<LesHouchesEvents version="3.0">
<header>
<!--
#*********************************************************************
#                                                                    *
#                        MadGraph5_aMC@NLO                           *
#                                                                    *
#                           Going Beyond                             *
#                                                                    *
#                   http://madgraph.hep.uiuc.edu                     *
#                   http://madgraph.phys.ucl.ac.be                   *
#                   http://amcatnlo.cern.ch                          *
#                                                                    *
#                     The MadGraph5_aMC@NLO team                     *
#                                                                    *
#....................................................................*
#                                                                    *
# This file contains all the information necessary to reproduce      *
# the events generated:                                              *
#                                                                    *
# 1. software version                                                *
# 2. proc_card          : code generation info including model       *
# 3. param_card         : model primary parameters in the LH format  *
# 4. run_card           : running parameters (collider and cuts)     *
# 5. pythia_card        : present only if pythia has been run        *
# 6. pgs_card           : present only if pgs has been run           *
# 7. delphes_cards      : present only if delphes has been run       *
#                                                                    *
#                                                                    *
#*********************************************************************
-->
<MGVersion>
#2.6.0
</MGVersion>
<MG5ProcCard>
<![CDATA[
#************************************************************
#*                     MadGraph5_aMC@NLO                    *
#*                                                          *
#*                *                       *                 *
#*                  *        * *        *                   *
#*                    * * * * 5 * * * *                     *
#*                  *        * *        *                   *
#*                *                       *                 *
#*                                                          *
#*                                                          *
#*         VERSION 2.6.0                 2017-08-16         *
#*                                                          *
#*    The MadGraph5_aMC@NLO Development Team - Find us at   *
#*    https://server06.fynu.ucl.ac.be/projects/madgraph     *
#*                                                          *
#************************************************************
#*                                                          *
#*               Command File for MadGraph5_aMC@NLO         *
#*                                                          *
#*     run as ./bin/mg5_aMC  filename                       *
#*                                                          *
#************************************************************
set group_subprocesses Auto
set ignore_six_quark_processes False
set loop_optimized_output True
set loop_color_flows False
set gauge unitary
set complex_mass_scheme False
set max_npoint_for_channel 0
import model sm
define p = g u c d s u~ c~ d~ s~
define j = g u c d s u~ c~ d~ s~
define l+ = e+ mu+
define l- = e- mu-
define vl = ve vm vt
define vl~ = ve~ vm~ vt~
import model HAHM_darkphoton_iDM_UFO -modelname
generate p p > j Zp, (Zp > chi2 chi1, chi2 > chi1 l+ l-)
output iDM_Mchi-5p25_dMchi-0p5_mZDinput-15p0_ctau-0 iDM_darkphoton_tes\
t
]]>
</MG5ProcCard>
<MGProcCard>
#*********************************************************************
#                        MadGraph/MadEvent                           *
#                   http://madgraph.hep.uiuc.edu                     *
#                                                                    *
#                          proc_card.dat                             *
#*********************************************************************
#                                                                    *
#            This Files is generated by MADGRAPH 5                   *
#                                                                    *
# WARNING: This Files is generated for MADEVENT (compatibility issue)*
#          This files is NOT a valid MG4 proc_card.dat               *
#          Running this in MG4 will NEVER reproduce the result of MG5*
#                                                                    *
#*********************************************************************
#*********************************************************************
# Process(es) requested : mg2 input                                  *
#*********************************************************************
# Begin PROCESS # This is TAG. Do not modify this line
p p > j Zp , (Zp > chi2 chi1 , chi2 > chi1 l+ l-)           #Process
# Be carefull the coupling are here in MG5 convention
          
end_coup           # End the couplings input

done               # this tells MG there are no more procs
# End PROCESS  # This is TAG. Do not modify this line
#*********************************************************************
# Model information                                                  *
#*********************************************************************
# Begin MODEL  # This is TAG. Do not modify this line
HAHM_darkphoton_iDM_UFO
# End   MODEL  # This is TAG. Do not modify this line
#*********************************************************************
# Start multiparticle definitions                                    *
#*********************************************************************
# Begin MULTIPARTICLES # This is TAG. Do not modify this line

# End  MULTIPARTICLES # This is TAG. Do not modify this line
</MGProcCard>
<MGRunCard>
<![CDATA[
#*********************************************************************
#                       MadGraph5_aMC@NLO                            *
#                                                                    *
#                     run_card.dat MadEvent                          *
#                                                                    *
#  This file is used to set the parameters of the run.               *
#                                                                    *
#  Some notation/conventions:                                        *
#                                                                    *
#   Lines starting with a '# ' are info or comments                  *
#                                                                    *
#   mind the format:   value    = variable     ! comment             *
#*********************************************************************
#
#*******************                                                 
# Running parameters
#*******************                                                 
#                                                                    
#*********************************************************************
# Tag name for the run (one word)                                    *
#*********************************************************************
  tag_1	= run_tag ! name of the run 
#*********************************************************************
# Number of events and rnd seed                                      *
# Warning: Do not generate more than 1M events in a single run       *
# If you want to run Pythia, avoid more than 50k events in a run.    *
#*********************************************************************
  10000	= nevents ! Number of unweighted events requested 
 7886250 = iseed ! rnd seed (0=assigned automatically=default))
#*********************************************************************
# Collider type and energy                                           *
# lpp: 0=No PDF, 1=proton, -1=antiproton, 2=photon from proton,      *
#                                         3=photon from electron     *
#*********************************************************************
  1	= lpp1 ! beam 1 type 
  1	= lpp2 ! beam 2 type
  6500.0	= ebeam1 ! beam 1 total energy in GeV
  6500.0	= ebeam2 ! beam 2 total energy in GeV
#*********************************************************************
# Beam polarization from -100 (left-handed) to 100 (right-handed)    *
#*********************************************************************
  0.0	= polbeam1 ! beam polarization for beam 1
  0.0	= polbeam2 ! beam polarization for beam 2
#*********************************************************************
# PDF CHOICE: this automatically fixes also alpha_s and its evol.    *
#*********************************************************************
  lhapdf	= pdlabel ! PDF set                                     
  320900	= lhaid ! if pdlabel=lhapdf, this is the lhapdf number
#*********************************************************************
# Renormalization and factorization scales                           *
#*********************************************************************
  False	= fixed_ren_scale ! if .true. use fixed ren scale
  False	= fixed_fac_scale ! if .true. use fixed fac scale
  91.188	= scale ! fixed ren scale
  91.188	= dsqrt_q2fact1 ! fixed fact scale for pdf1
  91.188	= dsqrt_q2fact2 ! fixed fact scale for pdf2
  -1	= dynamical_scale_choice ! Choose one of the preselected dynamical choices
  1.0	= scalefact ! scale factor for event-by-event scales
#*********************************************************************
# Type and output format
#*********************************************************************
  True	= gridpack !True = setting up the grid pack
  0.0001	= time_of_flight ! threshold (in mm) below which the invariant livetime is not written (-1 means not written)
  3.0	= lhe_version ! Change the way clustering information pass to shower.        
  True	= clusinfo ! include clustering tag in output
  average	= event_norm ! average/sum. Normalization of the weight in the LHEF

#*********************************************************************
# Matching parameter (MLM only)
#*********************************************************************
  0	= ickkw ! 0 no matching, 1 MLM
  1.0	= alpsfact ! scale factor for QCD emission vx
  False	= chcluster ! cluster only according to channel diag
  4	= asrwgtflavor ! highest quark flavor for a_s reweight
  False	= auto_ptj_mjj ! Automatic setting of ptj and mjj if xqcut >0
                                   ! (turn off for VBF and single top processes) 
  0.0	= xqcut ! minimum kt jet measure between partons
#*********************************************************************
#
#*********************************************************************
# handling of the helicities:
#  0: sum over all helicities
#  1: importance sampling over helicities
#*********************************************************************
  0	= nhel ! using helicities importance sampling or not.
#*********************************************************************
# Generation bias, check the wiki page below for more information:   *
#  'cp3.irmp.ucl.ac.be/projects/madgraph/wiki/LOEventGenerationBias' *
#*********************************************************************
  None	= bias_module ! Bias type of bias, [None, ptj_bias, -custom_folder-]
  {}	= bias_parameters ! Specifies the parameters of the module.
#
#*******************************                                                 
# Parton level cuts definition *
#*******************************                                     
#                                                                    
#
#*********************************************************************
# BW cutoff (M+/-bwcutoff*Gamma) ! Define on/off-shell for "$" and decay  
#*********************************************************************
  15.0	= bwcutoff ! (M+/-bwcutoff*Gamma)
#*********************************************************************
# Apply pt/E/eta/dr/mij/kt_durham cuts on decay products or not
# (note that etmiss/ptll/ptheavy/ht/sorted cuts always apply)
#*********************************************************************
  False	= cut_decays ! Cut decay products 
#*********************************************************************
# Standard Cuts                                                      *
#*********************************************************************
# Minimum and maximum pt's (for max, -1 means no cut)                *
#*********************************************************************
  20.0	= ptj ! minimum pt for the jets 
  0.0	= ptb ! minimum pt for the b 
  10.0	= pta ! minimum pt for the photons 
  10.0	= ptl ! minimum pt for the charged leptons 
  0.0	= misset ! minimum missing Et (sum of neutrino's momenta)
  -1.0	= ptjmax ! maximum pt for the jets
  -1.0	= ptbmax ! maximum pt for the b
  -1.0	= ptamax ! maximum pt for the photons
  -1.0	= ptlmax ! maximum pt for the charged leptons
  -1.0	= missetmax ! maximum missing Et (sum of neutrino's momenta)
#*********************************************************************
# Minimum and maximum E's (in the center of mass frame)              *
#*********************************************************************
  0.0	= ej ! minimum E for the jets 
  0.0	= eb ! minimum E for the b 
  0.0	= ea ! minimum E for the photons 
  0.0	= el ! minimum E for the charged leptons 
  -1.0	= ejmax ! maximum E for the jets
  -1.0	= ebmax ! maximum E for the b
  -1.0	= eamax ! maximum E for the photons
  -1.0	= elmax ! maximum E for the charged leptons
#*********************************************************************
# Maximum and minimum absolute rapidity (for max, -1 means no cut)   *
#*********************************************************************
  5.0	= etaj ! max rap for the jets 
  -1.0	= etab ! max rap for the b
  2.5	= etaa ! max rap for the photons 
  2.5	= etal ! max rap for the charged leptons 
  0.0	= etajmin ! min rap for the jets
  0.0	= etabmin ! min rap for the b
  0.0	= etaamin ! min rap for the photons
  0.0	= etalmin ! main rap for the charged leptons
#*********************************************************************
# Minimum and maximum DeltaR distance                                *
#*********************************************************************
  0.4	= drjj ! min distance between jets 
  0.0	= drbb ! min distance between b's 
  0.4	= drll ! min distance between leptons 
  0.4	= draa ! min distance between gammas 
  0.0	= drbj ! min distance between b and jet 
  0.4	= draj ! min distance between gamma and jet 
  0.4	= drjl ! min distance between jet and lepton 
  0.0	= drab ! min distance between gamma and b 
  0.0	= drbl ! min distance between b and lepton 
  0.4	= dral ! min distance between gamma and lepton 
  -1.0	= drjjmax ! max distance between jets
  -1.0	= drbbmax ! max distance between b's
  -1.0	= drllmax ! max distance between leptons
  -1.0	= draamax ! max distance between gammas
  -1.0	= drbjmax ! max distance between b and jet
  -1.0	= drajmax ! max distance between gamma and jet
  -1.0	= drjlmax ! max distance between jet and lepton
  -1.0	= drabmax ! max distance between gamma and b
  -1.0	= drblmax ! max distance between b and lepton
  -1.0	= dralmax ! maxdistance between gamma and lepton
#*********************************************************************
# Minimum and maximum invariant mass for pairs                       *
# WARNING: for four lepton final state mmll cut require to have      *
#          different lepton masses for each flavor!                  *           
#*********************************************************************
  0.0	= mmjj ! min invariant mass of a jet pair 
  0.0	= mmbb ! min invariant mass of a b pair 
  0.0	= mmaa ! min invariant mass of gamma gamma pair
  0.0	= mmll ! min invariant mass of l+l- (same flavour) lepton pair
  -1.0	= mmjjmax ! max invariant mass of a jet pair
  -1.0	= mmbbmax ! max invariant mass of a b pair
  -1.0	= mmaamax ! max invariant mass of gamma gamma pair
  -1.0	= mmllmax ! max invariant mass of l+l- (same flavour) lepton pair
#*********************************************************************
# Minimum and maximum invariant mass for all letpons                 *
#*********************************************************************
  0.0	= mmnl ! min invariant mass for all letpons (l+- and vl) 
  -1.0	= mmnlmax ! max invariant mass for all letpons (l+- and vl) 
#*********************************************************************
# Minimum and maximum pt for 4-momenta sum of leptons                *
#*********************************************************************
  0.0	= ptllmin ! Minimum pt for 4-momenta sum of leptons(l and vl)
  -1.0	= ptllmax ! Maximum pt for 4-momenta sum of leptons(l and vl)
#*********************************************************************
# Inclusive cuts                                                     *
#*********************************************************************
  0.0	= ptheavy ! minimum pt for at least one heavy final state
  0.0	= xptj ! minimum pt for at least one jet  
  0.0	= xptb ! minimum pt for at least one b 
  0.0	= xpta ! minimum pt for at least one photon 
  0.0	= xptl ! minimum pt for at least one charged lepton 
#*********************************************************************
# Control the pt's of the jets sorted by pt                          *
#*********************************************************************
  0.0	= ptj1min ! minimum pt for the leading jet in pt
  0.0	= ptj2min ! minimum pt for the second jet in pt
  0.0	= ptj3min ! minimum pt for the third jet in pt
  0.0	= ptj4min ! minimum pt for the fourth jet in pt
  -1.0	= ptj1max ! maximum pt for the leading jet in pt 
  -1.0	= ptj2max ! maximum pt for the second jet in pt
  -1.0	= ptj3max ! maximum pt for the third jet in pt
  -1.0	= ptj4max ! maximum pt for the fourth jet in pt
  0	= cutuse ! reject event if fails any (0) / all (1) jet pt cuts
#*********************************************************************
# Control the pt's of leptons sorted by pt                           *
#*********************************************************************
  0.0	= ptl1min ! minimum pt for the leading lepton in pt
  0.0	= ptl2min ! minimum pt for the second lepton in pt
  0.0	= ptl3min ! minimum pt for the third lepton in pt
  0.0	= ptl4min ! minimum pt for the fourth lepton in pt
  -1.0	= ptl1max ! maximum pt for the leading lepton in pt 
  -1.0	= ptl2max ! maximum pt for the second lepton in pt
  -1.0	= ptl3max ! maximum pt for the third lepton in pt
  -1.0	= ptl4max ! maximum pt for the fourth lepton in pt
#*********************************************************************
# Control the Ht(k)=Sum of k leading jets                            *
#*********************************************************************
  0.0	= htjmin ! minimum jet HT=Sum(jet pt)
  -1.0	= htjmax ! maximum jet HT=Sum(jet pt)
  0.0	= ihtmin !inclusive Ht for all partons (including b)
  -1.0	= ihtmax !inclusive Ht for all partons (including b)
  0.0	= ht2min ! minimum Ht for the two leading jets
  0.0	= ht3min ! minimum Ht for the three leading jets
  0.0	= ht4min ! minimum Ht for the four leading jets
  -1.0	= ht2max ! maximum Ht for the two leading jets
  -1.0	= ht3max ! maximum Ht for the three leading jets
  -1.0	= ht4max ! maximum Ht for the four leading jets
#***********************************************************************
# Photon-isolation cuts, according to hep-ph/9801442                   *
# When ptgmin=0, all the other parameters are ignored                  *
# When ptgmin>0, pta and draj are not going to be used                 *
#***********************************************************************
  0.0	= ptgmin ! Min photon transverse momentum
  0.4	= r0gamma ! Radius of isolation code
  1.0	= xn ! n parameter of eq.(3.4) in hep-ph/9801442
  1.0	= epsgamma ! epsilon_gamma parameter of eq.(3.4) in hep-ph/9801442
  True	= isoem ! isolate photons from EM energy (photons and leptons)
#*********************************************************************
# WBF cuts                                                           *
#*********************************************************************
  0.0	= xetamin ! minimum rapidity for two jets in the WBF case  
  0.0	= deltaeta ! minimum rapidity for two jets in the WBF case 
#***********************************************************************
# Turn on either the ktdurham or ptlund cut to activate                *
# CKKW(L) merging with Pythia8 [arXiv:1410.3012, arXiv:1109.4829]      *
#***********************************************************************
  -1.0	= ktdurham 
  0.4	= dparameter 
  -1.0	= ptlund 
  1, 2, 3, 4, 5, 6, 21, 5100002, 5100004, 5100006	= pdgs_for_merging_cut ! PDGs for two cuts above   
#*********************************************************************
# maximal pdg code for quark to be considered as a light jet         *
# (otherwise b cuts are applied)                                     *
#*********************************************************************
  4	= maxjetflavor ! Maximum jet pdg code
#*********************************************************************
#
#*********************************************************************
# Store info for systematics studies                                 *
# WARNING: Do not use for interference type of computation           *
#*********************************************************************
  True	= use_syst ! Enable systematics studies
#
#**************************************
# Parameter of the systematics study
#  will be used by SysCalc (if installed)
#**************************************                                  
#
  0.5 1 2	= sys_scalefact # factorization/renormalization scale factor
  None	= sys_alpsfact # \alpha_s emission scale factors
  auto	= sys_matchscale # variation of merging scale
# PDF sets and number of members (0 or none for all members).
  NNPDF23_lo_as_0130_qed	= sys_pdf # list of pdf sets
# MSTW2008nlo68cl.LHgrid 1  = sys_pdf
#
]]>
</MGRunCard>
<slha>
######################################################################
## PARAM_CARD AUTOMATICALY GENERATED BY MG5                       ####
######################################################################
###################################
## INFORMATION FOR CKMBLOCK
###################################
BLOCK CKMBLOCK # 
      1 4.880000e-01 # cabi
###################################
## INFORMATION FOR DM
###################################
BLOCK DM # 
      1 5.250000e+00 # mchi
      2 5.000000e-01 # dmchi
###################################
## INFORMATION FOR GAUGEMASS
###################################
BLOCK GAUGEMASS # 
      1 9.118800e+01 # mzinput
      2 8.041900e+01 # mwinput
###################################
## INFORMATION FOR HIDDEN
###################################
BLOCK HIDDEN # 
      1 1.500000e+01 # mzdinput
      2 2.000000e+02 # mhsinput
      3 1.000000e-02 # epsilon
      4 1.000000e-09 # kap
      5 1.279000e+02 # axm1
###################################
## INFORMATION FOR HIGGS
###################################
BLOCK HIGGS # 
      1 1.250000e+02 # mhinput
###################################
## INFORMATION FOR MASS
###################################
BLOCK MASS # 
      4 1.420000e+00 # mc
      5 4.700000e+00 # mb
      6 1.743000e+02 # mt
      11 5.110000e-04 # me
      13 1.057000e-01 # mm
      15 1.777000e+00 # mta
      1 0.000000e+00 # d : 0.0
      2 0.000000e+00 # u : 0.0
      3 0.000000e+00 # s : 0.0
      12 0.000000e+00 # ve : 0.0
      14 0.000000e+00 # vm : 0.0
      16 0.000000e+00 # vt : 0.0
      21 0.000000e+00 # g : 0.0
      22 0.000000e+00 # a : 0.0
      23 9.118800e+01 # z : mzinput
      24 8.041900e+01 # w+ : mwinput
      25 1.250000e+02 # h : mhinput
      35 2.000000e+02 # hs : mhsinput
      1023 1.500000e+01 # zp : mzdinput
      1000022 5.000000e+00 # chi1 : -dmchi/2. + mchi
      1000023 5.500000e+00 # chi2 : dmchi/2. + mchi
###################################
## INFORMATION FOR SMINPUTS
###################################
BLOCK SMINPUTS # 
      1 2.250000e-01 # swsqsm
      2 1.279000e+02 # aewm1
      3 1.166390e-05 # gf
      4 1.180000e-01 # as
###################################
## INFORMATION FOR YUKAWA
###################################
BLOCK YUKAWA # 
      4 1.420000e+00 # ymc
      5 4.700000e+00 # ymb
      6 1.743000e+02 # ymt
      11 5.110000e-04 # ymel
      13 1.057000e-01 # ymmu
      15 1.777000e+00 # ymtau
###################################
## INFORMATION FOR DECAY
###################################
DECAY 6 1.508336e+00 # wt
DECAY 23 2.441404e+00 # wz
DECAY 24 2.047600e+00 # ww
DECAY 25 2.822990e-03 # wh
DECAY 35 5.237950e+00 # whs
DECAY 1023 1.000000e-03 # wzp
DECAY 1000023 1.000000e-03 # wchi2
DECAY 1 0.000000e+00 # d : 0.0
DECAY 2 0.000000e+00 # u : 0.0
DECAY 3 0.000000e+00 # s : 0.0
DECAY 4 0.000000e+00 # c : 0.0
DECAY 5 0.000000e+00 # b : 0.0
DECAY 11 0.000000e+00 # e- : 0.0
DECAY 12 0.000000e+00 # ve : 0.0
DECAY 13 0.000000e+00 # mu- : 0.0
DECAY 14 0.000000e+00 # vm : 0.0
DECAY 15 0.000000e+00 # tt- : 0.0
DECAY 16 0.000000e+00 # vt : 0.0
DECAY 21 0.000000e+00 # g : 0.0
DECAY 22 0.000000e+00 # a : 0.0
DECAY 1000022 0.000000e+00 # chi1 : 0.0
###################################
## INFORMATION FOR QNUMBERS 1000022
###################################
BLOCK QNUMBERS 1000022 #  chi1
      1 0 # 3 times electric charge
      2 2 # number of spin states (2s+1)
      3 1 # colour rep (1: singlet, 3: triplet, 8: octet)
      4 0 # particle/antiparticle distinction (0=own anti)
###################################
## INFORMATION FOR QNUMBERS 1000023
###################################
BLOCK QNUMBERS 1000023 #  chi2
      1 0 # 3 times electric charge
      2 2 # number of spin states (2s+1)
      3 1 # colour rep (1: singlet, 3: triplet, 8: octet)
      4 0 # particle/antiparticle distinction (0=own anti)
###################################
## INFORMATION FOR QNUMBERS 1023
###################################
BLOCK QNUMBERS 1023 #  zp
      1 0 # 3 times electric charge
      2 3 # number of spin states (2s+1)
      3 1 # colour rep (1: singlet, 3: triplet, 8: octet)
      4 0 # particle/antiparticle distinction (0=own anti)
###################################
## INFORMATION FOR QNUMBERS 35
###################################
BLOCK QNUMBERS 35 #  hs
      1 0 # 3 times electric charge
      2 1 # number of spin states (2s+1)
      3 1 # colour rep (1: singlet, 3: triplet, 8: octet)
      4 0 # particle/antiparticle distinction (0=own anti)
</slha>
<MGGenerationInfo>
#  Number of Events        :          100
#  Integrated weight (pb)  :  0.15534E-09
#  Truncated wgt (pb)      :  0.00000E+00
#  Unit wgt                :  0.15538E-11
</MGGenerationInfo>
<initrwgt>
<![CDATA[
<weightgroup name="NNPDF31_nnlo_as_0118_nf_4" combine="replicas"> # 320900: NNPDF3.1 NNLO global fit, nf=4. mem=0 ; average on replicas; mem=1-100 ; PDF replicas
<weight id="1001" MUR="1.0" MUF="1.0" PDF="320900" >  </weight>
<weightgroup name="Central scale variation" combine="envelope">
</weightgroup> PDF 
<weight id="1002" MUR="1.0" MUF="1.0" DYN_SCALE="1" PDF="320900" > dyn_scale_choice=sum pt  </weight>
<weight id="1003" MUR="1.0" MUF="1.0" DYN_SCALE="2" PDF="320900" > dyn_scale_choice=HT  </weight>
<weight id="1004" MUR="1.0" MUF="1.0" DYN_SCALE="3" PDF="320900" > dyn_scale_choice=HT/2  </weight>
<weight id="1005" MUR="1.0" MUF="1.0" DYN_SCALE="4" PDF="320900" > dyn_scale_choice=sqrts  </weight>
<weight id="1006" MUR="2.0" MUF="1.0" PDF="320900" > MUR=2.0  </weight>
<weight id="1007" MUR="2.0" MUF="1.0" DYN_SCALE="1" PDF="320900" > MUR=2.0 dyn_scale_choice=sum pt  </weight>
<weight id="1008" MUR="2.0" MUF="1.0" DYN_SCALE="2" PDF="320900" > MUR=2.0 dyn_scale_choice=HT  </weight>
<weight id="1009" MUR="2.0" MUF="1.0" DYN_SCALE="3" PDF="320900" > MUR=2.0 dyn_scale_choice=HT/2  </weight>
<weight id="1010" MUR="2.0" MUF="1.0" DYN_SCALE="4" PDF="320900" > MUR=2.0 dyn_scale_choice=sqrts  </weight>
<weight id="1011" MUR="0.5" MUF="1.0" PDF="320900" > MUR=0.5  </weight>
<weight id="1012" MUR="0.5" MUF="1.0" DYN_SCALE="1" PDF="320900" > MUR=0.5 dyn_scale_choice=sum pt  </weight>
<weight id="1013" MUR="0.5" MUF="1.0" DYN_SCALE="2" PDF="320900" > MUR=0.5 dyn_scale_choice=HT  </weight>
<weight id="1014" MUR="0.5" MUF="1.0" DYN_SCALE="3" PDF="320900" > MUR=0.5 dyn_scale_choice=HT/2  </weight>
<weight id="1015" MUR="0.5" MUF="1.0" DYN_SCALE="4" PDF="320900" > MUR=0.5 dyn_scale_choice=sqrts  </weight>
<weight id="1016" MUR="1.0" MUF="2.0" PDF="320900" > MUF=2.0  </weight>
<weight id="1017" MUR="1.0" MUF="2.0" DYN_SCALE="1" PDF="320900" > MUF=2.0 dyn_scale_choice=sum pt  </weight>
<weight id="1018" MUR="1.0" MUF="2.0" DYN_SCALE="2" PDF="320900" > MUF=2.0 dyn_scale_choice=HT  </weight>
<weight id="1019" MUR="1.0" MUF="2.0" DYN_SCALE="3" PDF="320900" > MUF=2.0 dyn_scale_choice=HT/2  </weight>
<weight id="1020" MUR="1.0" MUF="2.0" DYN_SCALE="4" PDF="320900" > MUF=2.0 dyn_scale_choice=sqrts  </weight>
<weight id="1021" MUR="2.0" MUF="2.0" PDF="320900" > MUR=2.0 MUF=2.0  </weight>
<weight id="1022" MUR="2.0" MUF="2.0" DYN_SCALE="1" PDF="320900" > MUR=2.0 MUF=2.0 dyn_scale_choice=sum pt  </weight>
<weight id="1023" MUR="2.0" MUF="2.0" DYN_SCALE="2" PDF="320900" > MUR=2.0 MUF=2.0 dyn_scale_choice=HT  </weight>
<weight id="1024" MUR="2.0" MUF="2.0" DYN_SCALE="3" PDF="320900" > MUR=2.0 MUF=2.0 dyn_scale_choice=HT/2  </weight>
<weight id="1025" MUR="2.0" MUF="2.0" DYN_SCALE="4" PDF="320900" > MUR=2.0 MUF=2.0 dyn_scale_choice=sqrts  </weight>
<weight id="1026" MUR="0.5" MUF="2.0" PDF="320900" > MUR=0.5 MUF=2.0  </weight>
<weight id="1027" MUR="0.5" MUF="2.0" DYN_SCALE="1" PDF="320900" > MUR=0.5 MUF=2.0 dyn_scale_choice=sum pt  </weight>
<weight id="1028" MUR="0.5" MUF="2.0" DYN_SCALE="2" PDF="320900" > MUR=0.5 MUF=2.0 dyn_scale_choice=HT  </weight>
<weight id="1029" MUR="0.5" MUF="2.0" DYN_SCALE="3" PDF="320900" > MUR=0.5 MUF=2.0 dyn_scale_choice=HT/2  </weight>
<weight id="1030" MUR="0.5" MUF="2.0" DYN_SCALE="4" PDF="320900" > MUR=0.5 MUF=2.0 dyn_scale_choice=sqrts  </weight>
<weight id="1031" MUR="1.0" MUF="0.5" PDF="320900" > MUF=0.5  </weight>
<weight id="1032" MUR="1.0" MUF="0.5" DYN_SCALE="1" PDF="320900" > MUF=0.5 dyn_scale_choice=sum pt  </weight>
<weight id="1033" MUR="1.0" MUF="0.5" DYN_SCALE="2" PDF="320900" > MUF=0.5 dyn_scale_choice=HT  </weight>
<weight id="1034" MUR="1.0" MUF="0.5" DYN_SCALE="3" PDF="320900" > MUF=0.5 dyn_scale_choice=HT/2  </weight>
<weight id="1035" MUR="1.0" MUF="0.5" DYN_SCALE="4" PDF="320900" > MUF=0.5 dyn_scale_choice=sqrts  </weight>
<weight id="1036" MUR="2.0" MUF="0.5" PDF="320900" > MUR=2.0 MUF=0.5  </weight>
<weight id="1037" MUR="2.0" MUF="0.5" DYN_SCALE="1" PDF="320900" > MUR=2.0 MUF=0.5 dyn_scale_choice=sum pt  </weight>
<weight id="1038" MUR="2.0" MUF="0.5" DYN_SCALE="2" PDF="320900" > MUR=2.0 MUF=0.5 dyn_scale_choice=HT  </weight>
<weight id="1039" MUR="2.0" MUF="0.5" DYN_SCALE="3" PDF="320900" > MUR=2.0 MUF=0.5 dyn_scale_choice=HT/2  </weight>
<weight id="1040" MUR="2.0" MUF="0.5" DYN_SCALE="4" PDF="320900" > MUR=2.0 MUF=0.5 dyn_scale_choice=sqrts  </weight>
<weight id="1041" MUR="0.5" MUF="0.5" PDF="320900" > MUR=0.5 MUF=0.5  </weight>
<weight id="1042" MUR="0.5" MUF="0.5" DYN_SCALE="1" PDF="320900" > MUR=0.5 MUF=0.5 dyn_scale_choice=sum pt  </weight>
<weight id="1043" MUR="0.5" MUF="0.5" DYN_SCALE="2" PDF="320900" > MUR=0.5 MUF=0.5 dyn_scale_choice=HT  </weight>
<weight id="1044" MUR="0.5" MUF="0.5" DYN_SCALE="3" PDF="320900" > MUR=0.5 MUF=0.5 dyn_scale_choice=HT/2  </weight>
<weight id="1045" MUR="0.5" MUF="0.5" DYN_SCALE="4" PDF="320900" > MUR=0.5 MUF=0.5 dyn_scale_choice=sqrts  </weight>
</weightgroup> # scale
<weightgroup name="NNPDF31_nnlo_as_0118_nf_4" combine="replicas"> # 320900: NNPDF3.1 NNLO global fit, nf=4. mem=0 ; average on replicas; mem=1-100 ; PDF replicas
<weight id="1046" MUR="1.0" MUF="1.0" PDF="320900" >  </weight>
<weight id="1047" MUR="1.0" MUF="1.0" PDF="320901" > PDF=320900 MemberID=1 </weight>
<weight id="1048" MUR="1.0" MUF="1.0" PDF="320902" > PDF=320900 MemberID=2 </weight>
<weight id="1049" MUR="1.0" MUF="1.0" PDF="320903" > PDF=320900 MemberID=3 </weight>
<weight id="1050" MUR="1.0" MUF="1.0" PDF="320904" > PDF=320900 MemberID=4 </weight>
<weight id="1051" MUR="1.0" MUF="1.0" PDF="320905" > PDF=320900 MemberID=5 </weight>
<weight id="1052" MUR="1.0" MUF="1.0" PDF="320906" > PDF=320900 MemberID=6 </weight>
<weight id="1053" MUR="1.0" MUF="1.0" PDF="320907" > PDF=320900 MemberID=7 </weight>
<weight id="1054" MUR="1.0" MUF="1.0" PDF="320908" > PDF=320900 MemberID=8 </weight>
<weight id="1055" MUR="1.0" MUF="1.0" PDF="320909" > PDF=320900 MemberID=9 </weight>
<weight id="1056" MUR="1.0" MUF="1.0" PDF="320910" > PDF=320900 MemberID=10 </weight>
<weight id="1057" MUR="1.0" MUF="1.0" PDF="320911" > PDF=320900 MemberID=11 </weight>
<weight id="1058" MUR="1.0" MUF="1.0" PDF="320912" > PDF=320900 MemberID=12 </weight>
<weight id="1059" MUR="1.0" MUF="1.0" PDF="320913" > PDF=320900 MemberID=13 </weight>
<weight id="1060" MUR="1.0" MUF="1.0" PDF="320914" > PDF=320900 MemberID=14 </weight>
<weight id="1061" MUR="1.0" MUF="1.0" PDF="320915" > PDF=320900 MemberID=15 </weight>
<weight id="1062" MUR="1.0" MUF="1.0" PDF="320916" > PDF=320900 MemberID=16 </weight>
<weight id="1063" MUR="1.0" MUF="1.0" PDF="320917" > PDF=320900 MemberID=17 </weight>
<weight id="1064" MUR="1.0" MUF="1.0" PDF="320918" > PDF=320900 MemberID=18 </weight>
<weight id="1065" MUR="1.0" MUF="1.0" PDF="320919" > PDF=320900 MemberID=19 </weight>
<weight id="1066" MUR="1.0" MUF="1.0" PDF="320920" > PDF=320900 MemberID=20 </weight>
<weight id="1067" MUR="1.0" MUF="1.0" PDF="320921" > PDF=320900 MemberID=21 </weight>
<weight id="1068" MUR="1.0" MUF="1.0" PDF="320922" > PDF=320900 MemberID=22 </weight>
<weight id="1069" MUR="1.0" MUF="1.0" PDF="320923" > PDF=320900 MemberID=23 </weight>
<weight id="1070" MUR="1.0" MUF="1.0" PDF="320924" > PDF=320900 MemberID=24 </weight>
<weight id="1071" MUR="1.0" MUF="1.0" PDF="320925" > PDF=320900 MemberID=25 </weight>
<weight id="1072" MUR="1.0" MUF="1.0" PDF="320926" > PDF=320900 MemberID=26 </weight>
<weight id="1073" MUR="1.0" MUF="1.0" PDF="320927" > PDF=320900 MemberID=27 </weight>
<weight id="1074" MUR="1.0" MUF="1.0" PDF="320928" > PDF=320900 MemberID=28 </weight>
<weight id="1075" MUR="1.0" MUF="1.0" PDF="320929" > PDF=320900 MemberID=29 </weight>
<weight id="1076" MUR="1.0" MUF="1.0" PDF="320930" > PDF=320900 MemberID=30 </weight>
<weight id="1077" MUR="1.0" MUF="1.0" PDF="320931" > PDF=320900 MemberID=31 </weight>
<weight id="1078" MUR="1.0" MUF="1.0" PDF="320932" > PDF=320900 MemberID=32 </weight>
<weight id="1079" MUR="1.0" MUF="1.0" PDF="320933" > PDF=320900 MemberID=33 </weight>
<weight id="1080" MUR="1.0" MUF="1.0" PDF="320934" > PDF=320900 MemberID=34 </weight>
<weight id="1081" MUR="1.0" MUF="1.0" PDF="320935" > PDF=320900 MemberID=35 </weight>
<weight id="1082" MUR="1.0" MUF="1.0" PDF="320936" > PDF=320900 MemberID=36 </weight>
<weight id="1083" MUR="1.0" MUF="1.0" PDF="320937" > PDF=320900 MemberID=37 </weight>
<weight id="1084" MUR="1.0" MUF="1.0" PDF="320938" > PDF=320900 MemberID=38 </weight>
<weight id="1085" MUR="1.0" MUF="1.0" PDF="320939" > PDF=320900 MemberID=39 </weight>
<weight id="1086" MUR="1.0" MUF="1.0" PDF="320940" > PDF=320900 MemberID=40 </weight>
<weight id="1087" MUR="1.0" MUF="1.0" PDF="320941" > PDF=320900 MemberID=41 </weight>
<weight id="1088" MUR="1.0" MUF="1.0" PDF="320942" > PDF=320900 MemberID=42 </weight>
<weight id="1089" MUR="1.0" MUF="1.0" PDF="320943" > PDF=320900 MemberID=43 </weight>
<weight id="1090" MUR="1.0" MUF="1.0" PDF="320944" > PDF=320900 MemberID=44 </weight>
<weight id="1091" MUR="1.0" MUF="1.0" PDF="320945" > PDF=320900 MemberID=45 </weight>
<weight id="1092" MUR="1.0" MUF="1.0" PDF="320946" > PDF=320900 MemberID=46 </weight>
<weight id="1093" MUR="1.0" MUF="1.0" PDF="320947" > PDF=320900 MemberID=47 </weight>
<weight id="1094" MUR="1.0" MUF="1.0" PDF="320948" > PDF=320900 MemberID=48 </weight>
<weight id="1095" MUR="1.0" MUF="1.0" PDF="320949" > PDF=320900 MemberID=49 </weight>
<weight id="1096" MUR="1.0" MUF="1.0" PDF="320950" > PDF=320900 MemberID=50 </weight>
<weight id="1097" MUR="1.0" MUF="1.0" PDF="320951" > PDF=320900 MemberID=51 </weight>
<weight id="1098" MUR="1.0" MUF="1.0" PDF="320952" > PDF=320900 MemberID=52 </weight>
<weight id="1099" MUR="1.0" MUF="1.0" PDF="320953" > PDF=320900 MemberID=53 </weight>
<weight id="1100" MUR="1.0" MUF="1.0" PDF="320954" > PDF=320900 MemberID=54 </weight>
<weight id="1101" MUR="1.0" MUF="1.0" PDF="320955" > PDF=320900 MemberID=55 </weight>
<weight id="1102" MUR="1.0" MUF="1.0" PDF="320956" > PDF=320900 MemberID=56 </weight>
<weight id="1103" MUR="1.0" MUF="1.0" PDF="320957" > PDF=320900 MemberID=57 </weight>
<weight id="1104" MUR="1.0" MUF="1.0" PDF="320958" > PDF=320900 MemberID=58 </weight>
<weight id="1105" MUR="1.0" MUF="1.0" PDF="320959" > PDF=320900 MemberID=59 </weight>
<weight id="1106" MUR="1.0" MUF="1.0" PDF="320960" > PDF=320900 MemberID=60 </weight>
<weight id="1107" MUR="1.0" MUF="1.0" PDF="320961" > PDF=320900 MemberID=61 </weight>
<weight id="1108" MUR="1.0" MUF="1.0" PDF="320962" > PDF=320900 MemberID=62 </weight>
<weight id="1109" MUR="1.0" MUF="1.0" PDF="320963" > PDF=320900 MemberID=63 </weight>
<weight id="1110" MUR="1.0" MUF="1.0" PDF="320964" > PDF=320900 MemberID=64 </weight>
<weight id="1111" MUR="1.0" MUF="1.0" PDF="320965" > PDF=320900 MemberID=65 </weight>
<weight id="1112" MUR="1.0" MUF="1.0" PDF="320966" > PDF=320900 MemberID=66 </weight>
<weight id="1113" MUR="1.0" MUF="1.0" PDF="320967" > PDF=320900 MemberID=67 </weight>
<weight id="1114" MUR="1.0" MUF="1.0" PDF="320968" > PDF=320900 MemberID=68 </weight>
<weight id="1115" MUR="1.0" MUF="1.0" PDF="320969" > PDF=320900 MemberID=69 </weight>
<weight id="1116" MUR="1.0" MUF="1.0" PDF="320970" > PDF=320900 MemberID=70 </weight>
<weight id="1117" MUR="1.0" MUF="1.0" PDF="320971" > PDF=320900 MemberID=71 </weight>
<weight id="1118" MUR="1.0" MUF="1.0" PDF="320972" > PDF=320900 MemberID=72 </weight>
<weight id="1119" MUR="1.0" MUF="1.0" PDF="320973" > PDF=320900 MemberID=73 </weight>
<weight id="1120" MUR="1.0" MUF="1.0" PDF="320974" > PDF=320900 MemberID=74 </weight>
<weight id="1121" MUR="1.0" MUF="1.0" PDF="320975" > PDF=320900 MemberID=75 </weight>
<weight id="1122" MUR="1.0" MUF="1.0" PDF="320976" > PDF=320900 MemberID=76 </weight>
<weight id="1123" MUR="1.0" MUF="1.0" PDF="320977" > PDF=320900 MemberID=77 </weight>
<weight id="1124" MUR="1.0" MUF="1.0" PDF="320978" > PDF=320900 MemberID=78 </weight>
<weight id="1125" MUR="1.0" MUF="1.0" PDF="320979" > PDF=320900 MemberID=79 </weight>
<weight id="1126" MUR="1.0" MUF="1.0" PDF="320980" > PDF=320900 MemberID=80 </weight>
<weight id="1127" MUR="1.0" MUF="1.0" PDF="320981" > PDF=320900 MemberID=81 </weight>
<weight id="1128" MUR="1.0" MUF="1.0" PDF="320982" > PDF=320900 MemberID=82 </weight>
<weight id="1129" MUR="1.0" MUF="1.0" PDF="320983" > PDF=320900 MemberID=83 </weight>
<weight id="1130" MUR="1.0" MUF="1.0" PDF="320984" > PDF=320900 MemberID=84 </weight>
<weight id="1131" MUR="1.0" MUF="1.0" PDF="320985" > PDF=320900 MemberID=85 </weight>
<weight id="1132" MUR="1.0" MUF="1.0" PDF="320986" > PDF=320900 MemberID=86 </weight>
<weight id="1133" MUR="1.0" MUF="1.0" PDF="320987" > PDF=320900 MemberID=87 </weight>
<weight id="1134" MUR="1.0" MUF="1.0" PDF="320988" > PDF=320900 MemberID=88 </weight>
<weight id="1135" MUR="1.0" MUF="1.0" PDF="320989" > PDF=320900 MemberID=89 </weight>
<weight id="1136" MUR="1.0" MUF="1.0" PDF="320990" > PDF=320900 MemberID=90 </weight>
<weight id="1137" MUR="1.0" MUF="1.0" PDF="320991" > PDF=320900 MemberID=91 </weight>
<weight id="1138" MUR="1.0" MUF="1.0" PDF="320992" > PDF=320900 MemberID=92 </weight>
<weight id="1139" MUR="1.0" MUF="1.0" PDF="320993" > PDF=320900 MemberID=93 </weight>
<weight id="1140" MUR="1.0" MUF="1.0" PDF="320994" > PDF=320900 MemberID=94 </weight>
<weight id="1141" MUR="1.0" MUF="1.0" PDF="320995" > PDF=320900 MemberID=95 </weight>
<weight id="1142" MUR="1.0" MUF="1.0" PDF="320996" > PDF=320900 MemberID=96 </weight>
<weight id="1143" MUR="1.0" MUF="1.0" PDF="320997" > PDF=320900 MemberID=97 </weight>
<weight id="1144" MUR="1.0" MUF="1.0" PDF="320998" > PDF=320900 MemberID=98 </weight>
<weight id="1145" MUR="1.0" MUF="1.0" PDF="320999" > PDF=320900 MemberID=99 </weight>
<weight id="1146" MUR="1.0" MUF="1.0" PDF="321000" > PDF=320900 MemberID=100 </weight>
</weightgroup> # PDFSET -> PDFSET
<weightgroup name="CT10nlo_nf4" combine="unknown"> # 11082: CT10 NLO PDF fixed 4-flavour fits using the standard CTEQ PDF evolution but using the HOPPET alphas_s running solution. NEW CT12 grid type. Excluding the D0 Run-II W asymmetry data. mem=0 ; mem=0 ; NF4 high scale Q=m_Z=91.190 GeV; mem=1 ; NF4 low scale  Q=m_tau=1.778 GeV
<weight id="1147" MUR="1.0" MUF="1.0" PDF="11082" > PDF=11082 MemberID=0 </weight>
<weight id="1148" MUR="1.0" MUF="1.0" PDF="11083" > PDF=11082 MemberID=1 </weight>
</weightgroup> # PDFSET -> PDF
<weight id="1149" MUR="1.0" MUF="1.0" PDF="13091" > PDF=13091 MemberID=0 </weight>
<weight id="1150" MUR="1.0" MUF="1.0" PDF="13191" > PDF=13191 MemberID=0 </weight>
<weight id="1151" MUR="1.0" MUF="1.0" PDF="13202" > PDF=13202 MemberID=0 </weight>
<weightgroup name="MSTW2008lo68cl_nf4" combine="hessian"> # 23100: MSTW 2008 LO (68% C.L.) evolved with 4 flavours maximum.  This set has 41 member PDFs.  mem=0 ; central value; mem=1-40 ; 20 eigenvectors (+/- directions).  http://mstwpdf.hepforge.org
<weight id="1152" MUR="1.0" MUF="1.0" PDF="23100" > PDF=23100 MemberID=0 </weight>
<weight id="1153" MUR="1.0" MUF="1.0" PDF="23101" > PDF=23100 MemberID=1 </weight>
<weight id="1154" MUR="1.0" MUF="1.0" PDF="23102" > PDF=23100 MemberID=2 </weight>
<weight id="1155" MUR="1.0" MUF="1.0" PDF="23103" > PDF=23100 MemberID=3 </weight>
<weight id="1156" MUR="1.0" MUF="1.0" PDF="23104" > PDF=23100 MemberID=4 </weight>
<weight id="1157" MUR="1.0" MUF="1.0" PDF="23105" > PDF=23100 MemberID=5 </weight>
<weight id="1158" MUR="1.0" MUF="1.0" PDF="23106" > PDF=23100 MemberID=6 </weight>
<weight id="1159" MUR="1.0" MUF="1.0" PDF="23107" > PDF=23100 MemberID=7 </weight>
<weight id="1160" MUR="1.0" MUF="1.0" PDF="23108" > PDF=23100 MemberID=8 </weight>
<weight id="1161" MUR="1.0" MUF="1.0" PDF="23109" > PDF=23100 MemberID=9 </weight>
<weight id="1162" MUR="1.0" MUF="1.0" PDF="23110" > PDF=23100 MemberID=10 </weight>
<weight id="1163" MUR="1.0" MUF="1.0" PDF="23111" > PDF=23100 MemberID=11 </weight>
<weight id="1164" MUR="1.0" MUF="1.0" PDF="23112" > PDF=23100 MemberID=12 </weight>
<weight id="1165" MUR="1.0" MUF="1.0" PDF="23113" > PDF=23100 MemberID=13 </weight>
<weight id="1166" MUR="1.0" MUF="1.0" PDF="23114" > PDF=23100 MemberID=14 </weight>
<weight id="1167" MUR="1.0" MUF="1.0" PDF="23115" > PDF=23100 MemberID=15 </weight>
<weight id="1168" MUR="1.0" MUF="1.0" PDF="23116" > PDF=23100 MemberID=16 </weight>
<weight id="1169" MUR="1.0" MUF="1.0" PDF="23117" > PDF=23100 MemberID=17 </weight>
<weight id="1170" MUR="1.0" MUF="1.0" PDF="23118" > PDF=23100 MemberID=18 </weight>
<weight id="1171" MUR="1.0" MUF="1.0" PDF="23119" > PDF=23100 MemberID=19 </weight>
<weight id="1172" MUR="1.0" MUF="1.0" PDF="23120" > PDF=23100 MemberID=20 </weight>
<weight id="1173" MUR="1.0" MUF="1.0" PDF="23121" > PDF=23100 MemberID=21 </weight>
<weight id="1174" MUR="1.0" MUF="1.0" PDF="23122" > PDF=23100 MemberID=22 </weight>
<weight id="1175" MUR="1.0" MUF="1.0" PDF="23123" > PDF=23100 MemberID=23 </weight>
<weight id="1176" MUR="1.0" MUF="1.0" PDF="23124" > PDF=23100 MemberID=24 </weight>
<weight id="1177" MUR="1.0" MUF="1.0" PDF="23125" > PDF=23100 MemberID=25 </weight>
<weight id="1178" MUR="1.0" MUF="1.0" PDF="23126" > PDF=23100 MemberID=26 </weight>
<weight id="1179" MUR="1.0" MUF="1.0" PDF="23127" > PDF=23100 MemberID=27 </weight>
<weight id="1180" MUR="1.0" MUF="1.0" PDF="23128" > PDF=23100 MemberID=28 </weight>
<weight id="1181" MUR="1.0" MUF="1.0" PDF="23129" > PDF=23100 MemberID=29 </weight>
<weight id="1182" MUR="1.0" MUF="1.0" PDF="23130" > PDF=23100 MemberID=30 </weight>
<weight id="1183" MUR="1.0" MUF="1.0" PDF="23131" > PDF=23100 MemberID=31 </weight>
<weight id="1184" MUR="1.0" MUF="1.0" PDF="23132" > PDF=23100 MemberID=32 </weight>
<weight id="1185" MUR="1.0" MUF="1.0" PDF="23133" > PDF=23100 MemberID=33 </weight>
<weight id="1186" MUR="1.0" MUF="1.0" PDF="23134" > PDF=23100 MemberID=34 </weight>
<weight id="1187" MUR="1.0" MUF="1.0" PDF="23135" > PDF=23100 MemberID=35 </weight>
<weight id="1188" MUR="1.0" MUF="1.0" PDF="23136" > PDF=23100 MemberID=36 </weight>
<weight id="1189" MUR="1.0" MUF="1.0" PDF="23137" > PDF=23100 MemberID=37 </weight>
<weight id="1190" MUR="1.0" MUF="1.0" PDF="23138" > PDF=23100 MemberID=38 </weight>
<weight id="1191" MUR="1.0" MUF="1.0" PDF="23139" > PDF=23100 MemberID=39 </weight>
<weight id="1192" MUR="1.0" MUF="1.0" PDF="23140" > PDF=23100 MemberID=40 </weight>
</weightgroup> # PDFSET -> PDFSET
<weightgroup name="MSTW2008nlo68cl_nf4" combine="hessian"> # 23300: MSTW 2008 NLO (68% C.L.) evolved with 4 flavours maximum.  This set has 41 member PDFs.  mem=0 ; central value; mem=1-40 ; 20 eigenvectors (+/- directions).  http://mstwpdf.hepforge.org
<weight id="1193" MUR="1.0" MUF="1.0" PDF="23300" > PDF=23300 MemberID=0 </weight>
<weight id="1194" MUR="1.0" MUF="1.0" PDF="23301" > PDF=23300 MemberID=1 </weight>
<weight id="1195" MUR="1.0" MUF="1.0" PDF="23302" > PDF=23300 MemberID=2 </weight>
<weight id="1196" MUR="1.0" MUF="1.0" PDF="23303" > PDF=23300 MemberID=3 </weight>
<weight id="1197" MUR="1.0" MUF="1.0" PDF="23304" > PDF=23300 MemberID=4 </weight>
<weight id="1198" MUR="1.0" MUF="1.0" PDF="23305" > PDF=23300 MemberID=5 </weight>
<weight id="1199" MUR="1.0" MUF="1.0" PDF="23306" > PDF=23300 MemberID=6 </weight>
<weight id="1200" MUR="1.0" MUF="1.0" PDF="23307" > PDF=23300 MemberID=7 </weight>
<weight id="1201" MUR="1.0" MUF="1.0" PDF="23308" > PDF=23300 MemberID=8 </weight>
<weight id="1202" MUR="1.0" MUF="1.0" PDF="23309" > PDF=23300 MemberID=9 </weight>
<weight id="1203" MUR="1.0" MUF="1.0" PDF="23310" > PDF=23300 MemberID=10 </weight>
<weight id="1204" MUR="1.0" MUF="1.0" PDF="23311" > PDF=23300 MemberID=11 </weight>
<weight id="1205" MUR="1.0" MUF="1.0" PDF="23312" > PDF=23300 MemberID=12 </weight>
<weight id="1206" MUR="1.0" MUF="1.0" PDF="23313" > PDF=23300 MemberID=13 </weight>
<weight id="1207" MUR="1.0" MUF="1.0" PDF="23314" > PDF=23300 MemberID=14 </weight>
<weight id="1208" MUR="1.0" MUF="1.0" PDF="23315" > PDF=23300 MemberID=15 </weight>
<weight id="1209" MUR="1.0" MUF="1.0" PDF="23316" > PDF=23300 MemberID=16 </weight>
<weight id="1210" MUR="1.0" MUF="1.0" PDF="23317" > PDF=23300 MemberID=17 </weight>
<weight id="1211" MUR="1.0" MUF="1.0" PDF="23318" > PDF=23300 MemberID=18 </weight>
<weight id="1212" MUR="1.0" MUF="1.0" PDF="23319" > PDF=23300 MemberID=19 </weight>
<weight id="1213" MUR="1.0" MUF="1.0" PDF="23320" > PDF=23300 MemberID=20 </weight>
<weight id="1214" MUR="1.0" MUF="1.0" PDF="23321" > PDF=23300 MemberID=21 </weight>
<weight id="1215" MUR="1.0" MUF="1.0" PDF="23322" > PDF=23300 MemberID=22 </weight>
<weight id="1216" MUR="1.0" MUF="1.0" PDF="23323" > PDF=23300 MemberID=23 </weight>
<weight id="1217" MUR="1.0" MUF="1.0" PDF="23324" > PDF=23300 MemberID=24 </weight>
<weight id="1218" MUR="1.0" MUF="1.0" PDF="23325" > PDF=23300 MemberID=25 </weight>
<weight id="1219" MUR="1.0" MUF="1.0" PDF="23326" > PDF=23300 MemberID=26 </weight>
<weight id="1220" MUR="1.0" MUF="1.0" PDF="23327" > PDF=23300 MemberID=27 </weight>
<weight id="1221" MUR="1.0" MUF="1.0" PDF="23328" > PDF=23300 MemberID=28 </weight>
<weight id="1222" MUR="1.0" MUF="1.0" PDF="23329" > PDF=23300 MemberID=29 </weight>
<weight id="1223" MUR="1.0" MUF="1.0" PDF="23330" > PDF=23300 MemberID=30 </weight>
<weight id="1224" MUR="1.0" MUF="1.0" PDF="23331" > PDF=23300 MemberID=31 </weight>
<weight id="1225" MUR="1.0" MUF="1.0" PDF="23332" > PDF=23300 MemberID=32 </weight>
<weight id="1226" MUR="1.0" MUF="1.0" PDF="23333" > PDF=23300 MemberID=33 </weight>
<weight id="1227" MUR="1.0" MUF="1.0" PDF="23334" > PDF=23300 MemberID=34 </weight>
<weight id="1228" MUR="1.0" MUF="1.0" PDF="23335" > PDF=23300 MemberID=35 </weight>
<weight id="1229" MUR="1.0" MUF="1.0" PDF="23336" > PDF=23300 MemberID=36 </weight>
<weight id="1230" MUR="1.0" MUF="1.0" PDF="23337" > PDF=23300 MemberID=37 </weight>
<weight id="1231" MUR="1.0" MUF="1.0" PDF="23338" > PDF=23300 MemberID=38 </weight>
<weight id="1232" MUR="1.0" MUF="1.0" PDF="23339" > PDF=23300 MemberID=39 </weight>
<weight id="1233" MUR="1.0" MUF="1.0" PDF="23340" > PDF=23300 MemberID=40 </weight>
</weightgroup> # PDFSET -> PDFSET
<weightgroup name="MSTW2008nlo_mbrange_nf4" combine="unknown"> # 23490: MSTW 2008 NLO (fits for range of m_b values, evolve with 4 flavours maximum).  This set has 7 member PDFs.  mem=0 ; default m_b = 4.75 GeV; mem=1-6 ; m_b = 4.00, 4.25, 4.50, 5.00, 5.25, 5.50 GeV.  http://mstwpdf.hepforge.org
<weight id="1234" MUR="1.0" MUF="1.0" PDF="23490" > PDF=23490 MemberID=0 </weight>
<weight id="1235" MUR="1.0" MUF="1.0" PDF="23491" > PDF=23490 MemberID=1 </weight>
<weight id="1236" MUR="1.0" MUF="1.0" PDF="23492" > PDF=23490 MemberID=2 </weight>
<weight id="1237" MUR="1.0" MUF="1.0" PDF="23493" > PDF=23490 MemberID=3 </weight>
<weight id="1238" MUR="1.0" MUF="1.0" PDF="23494" > PDF=23490 MemberID=4 </weight>
<weight id="1239" MUR="1.0" MUF="1.0" PDF="23495" > PDF=23490 MemberID=5 </weight>
<weight id="1240" MUR="1.0" MUF="1.0" PDF="23496" > PDF=23490 MemberID=6 </weight>
</weightgroup> # PDFSET -> PDFSET
<weightgroup name="MSTW2008nnlo68cl_nf4" combine="hessian"> # 23600: MSTW 2008 NNLO (68% C.L.) evolved with 4 flavours maximum.  This set has 41 member PDFs.  mem=0 ; central value; mem=1-40 ; 20 eigenvectors (+/- directions).  http://mstwpdf.hepforge.org
<weight id="1241" MUR="1.0" MUF="1.0" PDF="23600" > PDF=23600 MemberID=0 </weight>
<weight id="1242" MUR="1.0" MUF="1.0" PDF="23601" > PDF=23600 MemberID=1 </weight>
<weight id="1243" MUR="1.0" MUF="1.0" PDF="23602" > PDF=23600 MemberID=2 </weight>
<weight id="1244" MUR="1.0" MUF="1.0" PDF="23603" > PDF=23600 MemberID=3 </weight>
<weight id="1245" MUR="1.0" MUF="1.0" PDF="23604" > PDF=23600 MemberID=4 </weight>
<weight id="1246" MUR="1.0" MUF="1.0" PDF="23605" > PDF=23600 MemberID=5 </weight>
<weight id="1247" MUR="1.0" MUF="1.0" PDF="23606" > PDF=23600 MemberID=6 </weight>
<weight id="1248" MUR="1.0" MUF="1.0" PDF="23607" > PDF=23600 MemberID=7 </weight>
<weight id="1249" MUR="1.0" MUF="1.0" PDF="23608" > PDF=23600 MemberID=8 </weight>
<weight id="1250" MUR="1.0" MUF="1.0" PDF="23609" > PDF=23600 MemberID=9 </weight>
<weight id="1251" MUR="1.0" MUF="1.0" PDF="23610" > PDF=23600 MemberID=10 </weight>
<weight id="1252" MUR="1.0" MUF="1.0" PDF="23611" > PDF=23600 MemberID=11 </weight>
<weight id="1253" MUR="1.0" MUF="1.0" PDF="23612" > PDF=23600 MemberID=12 </weight>
<weight id="1254" MUR="1.0" MUF="1.0" PDF="23613" > PDF=23600 MemberID=13 </weight>
<weight id="1255" MUR="1.0" MUF="1.0" PDF="23614" > PDF=23600 MemberID=14 </weight>
<weight id="1256" MUR="1.0" MUF="1.0" PDF="23615" > PDF=23600 MemberID=15 </weight>
<weight id="1257" MUR="1.0" MUF="1.0" PDF="23616" > PDF=23600 MemberID=16 </weight>
<weight id="1258" MUR="1.0" MUF="1.0" PDF="23617" > PDF=23600 MemberID=17 </weight>
<weight id="1259" MUR="1.0" MUF="1.0" PDF="23618" > PDF=23600 MemberID=18 </weight>
<weight id="1260" MUR="1.0" MUF="1.0" PDF="23619" > PDF=23600 MemberID=19 </weight>
<weight id="1261" MUR="1.0" MUF="1.0" PDF="23620" > PDF=23600 MemberID=20 </weight>
<weight id="1262" MUR="1.0" MUF="1.0" PDF="23621" > PDF=23600 MemberID=21 </weight>
<weight id="1263" MUR="1.0" MUF="1.0" PDF="23622" > PDF=23600 MemberID=22 </weight>
<weight id="1264" MUR="1.0" MUF="1.0" PDF="23623" > PDF=23600 MemberID=23 </weight>
<weight id="1265" MUR="1.0" MUF="1.0" PDF="23624" > PDF=23600 MemberID=24 </weight>
<weight id="1266" MUR="1.0" MUF="1.0" PDF="23625" > PDF=23600 MemberID=25 </weight>
<weight id="1267" MUR="1.0" MUF="1.0" PDF="23626" > PDF=23600 MemberID=26 </weight>
<weight id="1268" MUR="1.0" MUF="1.0" PDF="23627" > PDF=23600 MemberID=27 </weight>
<weight id="1269" MUR="1.0" MUF="1.0" PDF="23628" > PDF=23600 MemberID=28 </weight>
<weight id="1270" MUR="1.0" MUF="1.0" PDF="23629" > PDF=23600 MemberID=29 </weight>
<weight id="1271" MUR="1.0" MUF="1.0" PDF="23630" > PDF=23600 MemberID=30 </weight>
<weight id="1272" MUR="1.0" MUF="1.0" PDF="23631" > PDF=23600 MemberID=31 </weight>
<weight id="1273" MUR="1.0" MUF="1.0" PDF="23632" > PDF=23600 MemberID=32 </weight>
<weight id="1274" MUR="1.0" MUF="1.0" PDF="23633" > PDF=23600 MemberID=33 </weight>
<weight id="1275" MUR="1.0" MUF="1.0" PDF="23634" > PDF=23600 MemberID=34 </weight>
<weight id="1276" MUR="1.0" MUF="1.0" PDF="23635" > PDF=23600 MemberID=35 </weight>
<weight id="1277" MUR="1.0" MUF="1.0" PDF="23636" > PDF=23600 MemberID=36 </weight>
<weight id="1278" MUR="1.0" MUF="1.0" PDF="23637" > PDF=23600 MemberID=37 </weight>
<weight id="1279" MUR="1.0" MUF="1.0" PDF="23638" > PDF=23600 MemberID=38 </weight>
<weight id="1280" MUR="1.0" MUF="1.0" PDF="23639" > PDF=23600 MemberID=39 </weight>
<weight id="1281" MUR="1.0" MUF="1.0" PDF="23640" > PDF=23600 MemberID=40 </weight>
</weightgroup> # PDFSET -> PDFSET
<weightgroup name="MSTW2008nnlo_mbrange_nf4" combine="unknown"> # 23790: MSTW 2008 NNLO (fits for range of m_b values, evolve with 4 flavours maximum).  This set has 7 member PDFs.  mem=0 ; default m_b = 4.75 GeV; mem=1-6 ; m_b = 4.00, 4.25, 4.50, 5.00, 5.25, 5.50 GeV.  http://mstwpdf.hepforge.org
<weight id="1282" MUR="1.0" MUF="1.0" PDF="23790" > PDF=23790 MemberID=0 </weight>
<weight id="1283" MUR="1.0" MUF="1.0" PDF="23791" > PDF=23790 MemberID=1 </weight>
<weight id="1284" MUR="1.0" MUF="1.0" PDF="23792" > PDF=23790 MemberID=2 </weight>
<weight id="1285" MUR="1.0" MUF="1.0" PDF="23793" > PDF=23790 MemberID=3 </weight>
<weight id="1286" MUR="1.0" MUF="1.0" PDF="23794" > PDF=23790 MemberID=4 </weight>
<weight id="1287" MUR="1.0" MUF="1.0" PDF="23795" > PDF=23790 MemberID=5 </weight>
<weight id="1288" MUR="1.0" MUF="1.0" PDF="23796" > PDF=23790 MemberID=6 </weight>
</weightgroup> # PDFSET -> PDFSET
<weightgroup name="MMHT2014nlo68cl_nf4" combine="hessian"> # 25410: MMHT 2014 NLO (68% C.L.): evolve with 4 flavours maximum. This set has 51 member PDFs. mem=0 --.gt. central value; mem=1-50 --.gt. 20 eigenvector sets (+/- directions). Website: www.hep.ucl.ac.uk/mmht
<weight id="1289" MUR="1.0" MUF="1.0" PDF="25410" > PDF=25410 MemberID=0 </weight>
<weight id="1290" MUR="1.0" MUF="1.0" PDF="25411" > PDF=25410 MemberID=1 </weight>
<weight id="1291" MUR="1.0" MUF="1.0" PDF="25412" > PDF=25410 MemberID=2 </weight>
<weight id="1292" MUR="1.0" MUF="1.0" PDF="25413" > PDF=25410 MemberID=3 </weight>
<weight id="1293" MUR="1.0" MUF="1.0" PDF="25414" > PDF=25410 MemberID=4 </weight>
<weight id="1294" MUR="1.0" MUF="1.0" PDF="25415" > PDF=25410 MemberID=5 </weight>
<weight id="1295" MUR="1.0" MUF="1.0" PDF="25416" > PDF=25410 MemberID=6 </weight>
<weight id="1296" MUR="1.0" MUF="1.0" PDF="25417" > PDF=25410 MemberID=7 </weight>
<weight id="1297" MUR="1.0" MUF="1.0" PDF="25418" > PDF=25410 MemberID=8 </weight>
<weight id="1298" MUR="1.0" MUF="1.0" PDF="25419" > PDF=25410 MemberID=9 </weight>
<weight id="1299" MUR="1.0" MUF="1.0" PDF="25420" > PDF=25410 MemberID=10 </weight>
<weight id="1300" MUR="1.0" MUF="1.0" PDF="25421" > PDF=25410 MemberID=11 </weight>
<weight id="1301" MUR="1.0" MUF="1.0" PDF="25422" > PDF=25410 MemberID=12 </weight>
<weight id="1302" MUR="1.0" MUF="1.0" PDF="25423" > PDF=25410 MemberID=13 </weight>
<weight id="1303" MUR="1.0" MUF="1.0" PDF="25424" > PDF=25410 MemberID=14 </weight>
<weight id="1304" MUR="1.0" MUF="1.0" PDF="25425" > PDF=25410 MemberID=15 </weight>
<weight id="1305" MUR="1.0" MUF="1.0" PDF="25426" > PDF=25410 MemberID=16 </weight>
<weight id="1306" MUR="1.0" MUF="1.0" PDF="25427" > PDF=25410 MemberID=17 </weight>
<weight id="1307" MUR="1.0" MUF="1.0" PDF="25428" > PDF=25410 MemberID=18 </weight>
<weight id="1308" MUR="1.0" MUF="1.0" PDF="25429" > PDF=25410 MemberID=19 </weight>
<weight id="1309" MUR="1.0" MUF="1.0" PDF="25430" > PDF=25410 MemberID=20 </weight>
<weight id="1310" MUR="1.0" MUF="1.0" PDF="25431" > PDF=25410 MemberID=21 </weight>
<weight id="1311" MUR="1.0" MUF="1.0" PDF="25432" > PDF=25410 MemberID=22 </weight>
<weight id="1312" MUR="1.0" MUF="1.0" PDF="25433" > PDF=25410 MemberID=23 </weight>
<weight id="1313" MUR="1.0" MUF="1.0" PDF="25434" > PDF=25410 MemberID=24 </weight>
<weight id="1314" MUR="1.0" MUF="1.0" PDF="25435" > PDF=25410 MemberID=25 </weight>
<weight id="1315" MUR="1.0" MUF="1.0" PDF="25436" > PDF=25410 MemberID=26 </weight>
<weight id="1316" MUR="1.0" MUF="1.0" PDF="25437" > PDF=25410 MemberID=27 </weight>
<weight id="1317" MUR="1.0" MUF="1.0" PDF="25438" > PDF=25410 MemberID=28 </weight>
<weight id="1318" MUR="1.0" MUF="1.0" PDF="25439" > PDF=25410 MemberID=29 </weight>
<weight id="1319" MUR="1.0" MUF="1.0" PDF="25440" > PDF=25410 MemberID=30 </weight>
<weight id="1320" MUR="1.0" MUF="1.0" PDF="25441" > PDF=25410 MemberID=31 </weight>
<weight id="1321" MUR="1.0" MUF="1.0" PDF="25442" > PDF=25410 MemberID=32 </weight>
<weight id="1322" MUR="1.0" MUF="1.0" PDF="25443" > PDF=25410 MemberID=33 </weight>
<weight id="1323" MUR="1.0" MUF="1.0" PDF="25444" > PDF=25410 MemberID=34 </weight>
<weight id="1324" MUR="1.0" MUF="1.0" PDF="25445" > PDF=25410 MemberID=35 </weight>
<weight id="1325" MUR="1.0" MUF="1.0" PDF="25446" > PDF=25410 MemberID=36 </weight>
<weight id="1326" MUR="1.0" MUF="1.0" PDF="25447" > PDF=25410 MemberID=37 </weight>
<weight id="1327" MUR="1.0" MUF="1.0" PDF="25448" > PDF=25410 MemberID=38 </weight>
<weight id="1328" MUR="1.0" MUF="1.0" PDF="25449" > PDF=25410 MemberID=39 </weight>
<weight id="1329" MUR="1.0" MUF="1.0" PDF="25450" > PDF=25410 MemberID=40 </weight>
<weight id="1330" MUR="1.0" MUF="1.0" PDF="25451" > PDF=25410 MemberID=41 </weight>
<weight id="1331" MUR="1.0" MUF="1.0" PDF="25452" > PDF=25410 MemberID=42 </weight>
<weight id="1332" MUR="1.0" MUF="1.0" PDF="25453" > PDF=25410 MemberID=43 </weight>
<weight id="1333" MUR="1.0" MUF="1.0" PDF="25454" > PDF=25410 MemberID=44 </weight>
<weight id="1334" MUR="1.0" MUF="1.0" PDF="25455" > PDF=25410 MemberID=45 </weight>
<weight id="1335" MUR="1.0" MUF="1.0" PDF="25456" > PDF=25410 MemberID=46 </weight>
<weight id="1336" MUR="1.0" MUF="1.0" PDF="25457" > PDF=25410 MemberID=47 </weight>
<weight id="1337" MUR="1.0" MUF="1.0" PDF="25458" > PDF=25410 MemberID=48 </weight>
<weight id="1338" MUR="1.0" MUF="1.0" PDF="25459" > PDF=25410 MemberID=49 </weight>
<weight id="1339" MUR="1.0" MUF="1.0" PDF="25460" > PDF=25410 MemberID=50 </weight>
</weightgroup> # PDFSET -> PDFSET
<weightgroup name="MMHT2014nlo68clas118_nf4" combine="hessian"> # 25510: MMHT 2014 NLO (68% C.L.): evolve with 4 flavours maximum. This set has 51 member PDFs. mem=0 --.gt. central value; mem=1-50 --.gt. 20 eigenvector sets (+/- directions). Website: www.hep.ucl.ac.uk/mmht
<weight id="1340" MUR="1.0" MUF="1.0" PDF="25510" > PDF=25510 MemberID=0 </weight>
<weight id="1341" MUR="1.0" MUF="1.0" PDF="25511" > PDF=25510 MemberID=1 </weight>
<weight id="1342" MUR="1.0" MUF="1.0" PDF="25512" > PDF=25510 MemberID=2 </weight>
<weight id="1343" MUR="1.0" MUF="1.0" PDF="25513" > PDF=25510 MemberID=3 </weight>
<weight id="1344" MUR="1.0" MUF="1.0" PDF="25514" > PDF=25510 MemberID=4 </weight>
<weight id="1345" MUR="1.0" MUF="1.0" PDF="25515" > PDF=25510 MemberID=5 </weight>
<weight id="1346" MUR="1.0" MUF="1.0" PDF="25516" > PDF=25510 MemberID=6 </weight>
<weight id="1347" MUR="1.0" MUF="1.0" PDF="25517" > PDF=25510 MemberID=7 </weight>
<weight id="1348" MUR="1.0" MUF="1.0" PDF="25518" > PDF=25510 MemberID=8 </weight>
<weight id="1349" MUR="1.0" MUF="1.0" PDF="25519" > PDF=25510 MemberID=9 </weight>
<weight id="1350" MUR="1.0" MUF="1.0" PDF="25520" > PDF=25510 MemberID=10 </weight>
<weight id="1351" MUR="1.0" MUF="1.0" PDF="25521" > PDF=25510 MemberID=11 </weight>
<weight id="1352" MUR="1.0" MUF="1.0" PDF="25522" > PDF=25510 MemberID=12 </weight>
<weight id="1353" MUR="1.0" MUF="1.0" PDF="25523" > PDF=25510 MemberID=13 </weight>
<weight id="1354" MUR="1.0" MUF="1.0" PDF="25524" > PDF=25510 MemberID=14 </weight>
<weight id="1355" MUR="1.0" MUF="1.0" PDF="25525" > PDF=25510 MemberID=15 </weight>
<weight id="1356" MUR="1.0" MUF="1.0" PDF="25526" > PDF=25510 MemberID=16 </weight>
<weight id="1357" MUR="1.0" MUF="1.0" PDF="25527" > PDF=25510 MemberID=17 </weight>
<weight id="1358" MUR="1.0" MUF="1.0" PDF="25528" > PDF=25510 MemberID=18 </weight>
<weight id="1359" MUR="1.0" MUF="1.0" PDF="25529" > PDF=25510 MemberID=19 </weight>
<weight id="1360" MUR="1.0" MUF="1.0" PDF="25530" > PDF=25510 MemberID=20 </weight>
<weight id="1361" MUR="1.0" MUF="1.0" PDF="25531" > PDF=25510 MemberID=21 </weight>
<weight id="1362" MUR="1.0" MUF="1.0" PDF="25532" > PDF=25510 MemberID=22 </weight>
<weight id="1363" MUR="1.0" MUF="1.0" PDF="25533" > PDF=25510 MemberID=23 </weight>
<weight id="1364" MUR="1.0" MUF="1.0" PDF="25534" > PDF=25510 MemberID=24 </weight>
<weight id="1365" MUR="1.0" MUF="1.0" PDF="25535" > PDF=25510 MemberID=25 </weight>
<weight id="1366" MUR="1.0" MUF="1.0" PDF="25536" > PDF=25510 MemberID=26 </weight>
<weight id="1367" MUR="1.0" MUF="1.0" PDF="25537" > PDF=25510 MemberID=27 </weight>
<weight id="1368" MUR="1.0" MUF="1.0" PDF="25538" > PDF=25510 MemberID=28 </weight>
<weight id="1369" MUR="1.0" MUF="1.0" PDF="25539" > PDF=25510 MemberID=29 </weight>
<weight id="1370" MUR="1.0" MUF="1.0" PDF="25540" > PDF=25510 MemberID=30 </weight>
<weight id="1371" MUR="1.0" MUF="1.0" PDF="25541" > PDF=25510 MemberID=31 </weight>
<weight id="1372" MUR="1.0" MUF="1.0" PDF="25542" > PDF=25510 MemberID=32 </weight>
<weight id="1373" MUR="1.0" MUF="1.0" PDF="25543" > PDF=25510 MemberID=33 </weight>
<weight id="1374" MUR="1.0" MUF="1.0" PDF="25544" > PDF=25510 MemberID=34 </weight>
<weight id="1375" MUR="1.0" MUF="1.0" PDF="25545" > PDF=25510 MemberID=35 </weight>
<weight id="1376" MUR="1.0" MUF="1.0" PDF="25546" > PDF=25510 MemberID=36 </weight>
<weight id="1377" MUR="1.0" MUF="1.0" PDF="25547" > PDF=25510 MemberID=37 </weight>
<weight id="1378" MUR="1.0" MUF="1.0" PDF="25548" > PDF=25510 MemberID=38 </weight>
<weight id="1379" MUR="1.0" MUF="1.0" PDF="25549" > PDF=25510 MemberID=39 </weight>
<weight id="1380" MUR="1.0" MUF="1.0" PDF="25550" > PDF=25510 MemberID=40 </weight>
<weight id="1381" MUR="1.0" MUF="1.0" PDF="25551" > PDF=25510 MemberID=41 </weight>
<weight id="1382" MUR="1.0" MUF="1.0" PDF="25552" > PDF=25510 MemberID=42 </weight>
<weight id="1383" MUR="1.0" MUF="1.0" PDF="25553" > PDF=25510 MemberID=43 </weight>
<weight id="1384" MUR="1.0" MUF="1.0" PDF="25554" > PDF=25510 MemberID=44 </weight>
<weight id="1385" MUR="1.0" MUF="1.0" PDF="25555" > PDF=25510 MemberID=45 </weight>
<weight id="1386" MUR="1.0" MUF="1.0" PDF="25556" > PDF=25510 MemberID=46 </weight>
<weight id="1387" MUR="1.0" MUF="1.0" PDF="25557" > PDF=25510 MemberID=47 </weight>
<weight id="1388" MUR="1.0" MUF="1.0" PDF="25558" > PDF=25510 MemberID=48 </weight>
<weight id="1389" MUR="1.0" MUF="1.0" PDF="25559" > PDF=25510 MemberID=49 </weight>
<weight id="1390" MUR="1.0" MUF="1.0" PDF="25560" > PDF=25510 MemberID=50 </weight>
</weightgroup> # PDFSET -> PDFSET
<weightgroup name="MMHT2014nlo_asmzsmallrange_nf4" combine="unknown"> # 25570: MMHT 2014 NLO (fits for range of alpha_S values, evolve with 4 flavours maximum). This set has 5 member PDFs. mem=0 --.gt. best-fit alpha_S(M_Z) = 0.120; mem=1-4 --.gt. alpha_S(M_Z) = 0.117,...,0.121. Website: www.hep.ucl.ac.uk/mmht
<weight id="1391" MUR="1.0" MUF="1.0" PDF="25570" > PDF=25570 MemberID=0 </weight>
<weight id="1392" MUR="1.0" MUF="1.0" PDF="25571" > PDF=25570 MemberID=1 </weight>
<weight id="1393" MUR="1.0" MUF="1.0" PDF="25572" > PDF=25570 MemberID=2 </weight>
<weight id="1394" MUR="1.0" MUF="1.0" PDF="25573" > PDF=25570 MemberID=3 </weight>
<weight id="1395" MUR="1.0" MUF="1.0" PDF="25574" > PDF=25570 MemberID=4 </weight>
</weightgroup> # PDFSET -> PDFSET
<weightgroup name="MMHT2014nlo_mcrange_nf4" combine="unknown"> # 25605: MMHT 2014 NLO (range of mc, evolve with 4 flavours maximum). This set has 9 member PDFs. mem=0 --.gt. default mc = 1.40 GeV; mem=1-8 --.gt. mc = 1.15 - 1.55 GeV in steps of 0.05 GeV. Website: www.hep.ucl.ac.uk/mmht
<weight id="1396" MUR="1.0" MUF="1.0" PDF="25605" > PDF=25605 MemberID=0 </weight>
<weight id="1397" MUR="1.0" MUF="1.0" PDF="25606" > PDF=25605 MemberID=1 </weight>
<weight id="1398" MUR="1.0" MUF="1.0" PDF="25607" > PDF=25605 MemberID=2 </weight>
<weight id="1399" MUR="1.0" MUF="1.0" PDF="25608" > PDF=25605 MemberID=3 </weight>
<weight id="1400" MUR="1.0" MUF="1.0" PDF="25609" > PDF=25605 MemberID=4 </weight>
<weight id="1401" MUR="1.0" MUF="1.0" PDF="25610" > PDF=25605 MemberID=5 </weight>
<weight id="1402" MUR="1.0" MUF="1.0" PDF="25611" > PDF=25605 MemberID=6 </weight>
<weight id="1403" MUR="1.0" MUF="1.0" PDF="25612" > PDF=25605 MemberID=7 </weight>
<weight id="1404" MUR="1.0" MUF="1.0" PDF="25613" > PDF=25605 MemberID=8 </weight>
</weightgroup> # PDFSET -> PDFSET
<weightgroup name="MMHT2014nlo_mbrange_nf4" combine="unknown"> # 25620: MMHT 2014 NLO (range of mb, evolve with 4 flavours maximum). This set has 5 member PDFs. mem=0 --.gt. default mb = 4.75 GeV; mem=1-4 --.gt. mb = 4.25 - 5.25 GeV in steps of 0.25 GeV. Website: www.hep.ucl.ac.uk/mmht
<weight id="1405" MUR="1.0" MUF="1.0" PDF="25620" > PDF=25620 MemberID=0 </weight>
<weight id="1406" MUR="1.0" MUF="1.0" PDF="25621" > PDF=25620 MemberID=1 </weight>
<weight id="1407" MUR="1.0" MUF="1.0" PDF="25622" > PDF=25620 MemberID=2 </weight>
<weight id="1408" MUR="1.0" MUF="1.0" PDF="25623" > PDF=25620 MemberID=3 </weight>
<weight id="1409" MUR="1.0" MUF="1.0" PDF="25624" > PDF=25620 MemberID=4 </weight>
</weightgroup> # PDFSET -> PDFSET
<weightgroup name="MMHT2014nnlo68cl_nf4" combine="hessian"> # 25710: MMHT 2014 NNLO (68% C.L.): evolve with 4 flavours maximum. This set has 51 member PDFs. mem=0 --.gt. central value; mem=1-50 --.gt. 20 eigenvector sets (+/- directions). Website: www.hep.ucl.ac.uk/mmht
<weight id="1410" MUR="1.0" MUF="1.0" PDF="25710" > PDF=25710 MemberID=0 </weight>
<weight id="1411" MUR="1.0" MUF="1.0" PDF="25711" > PDF=25710 MemberID=1 </weight>
<weight id="1412" MUR="1.0" MUF="1.0" PDF="25712" > PDF=25710 MemberID=2 </weight>
<weight id="1413" MUR="1.0" MUF="1.0" PDF="25713" > PDF=25710 MemberID=3 </weight>
<weight id="1414" MUR="1.0" MUF="1.0" PDF="25714" > PDF=25710 MemberID=4 </weight>
<weight id="1415" MUR="1.0" MUF="1.0" PDF="25715" > PDF=25710 MemberID=5 </weight>
<weight id="1416" MUR="1.0" MUF="1.0" PDF="25716" > PDF=25710 MemberID=6 </weight>
<weight id="1417" MUR="1.0" MUF="1.0" PDF="25717" > PDF=25710 MemberID=7 </weight>
<weight id="1418" MUR="1.0" MUF="1.0" PDF="25718" > PDF=25710 MemberID=8 </weight>
<weight id="1419" MUR="1.0" MUF="1.0" PDF="25719" > PDF=25710 MemberID=9 </weight>
<weight id="1420" MUR="1.0" MUF="1.0" PDF="25720" > PDF=25710 MemberID=10 </weight>
<weight id="1421" MUR="1.0" MUF="1.0" PDF="25721" > PDF=25710 MemberID=11 </weight>
<weight id="1422" MUR="1.0" MUF="1.0" PDF="25722" > PDF=25710 MemberID=12 </weight>
<weight id="1423" MUR="1.0" MUF="1.0" PDF="25723" > PDF=25710 MemberID=13 </weight>
<weight id="1424" MUR="1.0" MUF="1.0" PDF="25724" > PDF=25710 MemberID=14 </weight>
<weight id="1425" MUR="1.0" MUF="1.0" PDF="25725" > PDF=25710 MemberID=15 </weight>
<weight id="1426" MUR="1.0" MUF="1.0" PDF="25726" > PDF=25710 MemberID=16 </weight>
<weight id="1427" MUR="1.0" MUF="1.0" PDF="25727" > PDF=25710 MemberID=17 </weight>
<weight id="1428" MUR="1.0" MUF="1.0" PDF="25728" > PDF=25710 MemberID=18 </weight>
<weight id="1429" MUR="1.0" MUF="1.0" PDF="25729" > PDF=25710 MemberID=19 </weight>
<weight id="1430" MUR="1.0" MUF="1.0" PDF="25730" > PDF=25710 MemberID=20 </weight>
<weight id="1431" MUR="1.0" MUF="1.0" PDF="25731" > PDF=25710 MemberID=21 </weight>
<weight id="1432" MUR="1.0" MUF="1.0" PDF="25732" > PDF=25710 MemberID=22 </weight>
<weight id="1433" MUR="1.0" MUF="1.0" PDF="25733" > PDF=25710 MemberID=23 </weight>
<weight id="1434" MUR="1.0" MUF="1.0" PDF="25734" > PDF=25710 MemberID=24 </weight>
<weight id="1435" MUR="1.0" MUF="1.0" PDF="25735" > PDF=25710 MemberID=25 </weight>
<weight id="1436" MUR="1.0" MUF="1.0" PDF="25736" > PDF=25710 MemberID=26 </weight>
<weight id="1437" MUR="1.0" MUF="1.0" PDF="25737" > PDF=25710 MemberID=27 </weight>
<weight id="1438" MUR="1.0" MUF="1.0" PDF="25738" > PDF=25710 MemberID=28 </weight>
<weight id="1439" MUR="1.0" MUF="1.0" PDF="25739" > PDF=25710 MemberID=29 </weight>
<weight id="1440" MUR="1.0" MUF="1.0" PDF="25740" > PDF=25710 MemberID=30 </weight>
<weight id="1441" MUR="1.0" MUF="1.0" PDF="25741" > PDF=25710 MemberID=31 </weight>
<weight id="1442" MUR="1.0" MUF="1.0" PDF="25742" > PDF=25710 MemberID=32 </weight>
<weight id="1443" MUR="1.0" MUF="1.0" PDF="25743" > PDF=25710 MemberID=33 </weight>
<weight id="1444" MUR="1.0" MUF="1.0" PDF="25744" > PDF=25710 MemberID=34 </weight>
<weight id="1445" MUR="1.0" MUF="1.0" PDF="25745" > PDF=25710 MemberID=35 </weight>
<weight id="1446" MUR="1.0" MUF="1.0" PDF="25746" > PDF=25710 MemberID=36 </weight>
<weight id="1447" MUR="1.0" MUF="1.0" PDF="25747" > PDF=25710 MemberID=37 </weight>
<weight id="1448" MUR="1.0" MUF="1.0" PDF="25748" > PDF=25710 MemberID=38 </weight>
<weight id="1449" MUR="1.0" MUF="1.0" PDF="25749" > PDF=25710 MemberID=39 </weight>
<weight id="1450" MUR="1.0" MUF="1.0" PDF="25750" > PDF=25710 MemberID=40 </weight>
<weight id="1451" MUR="1.0" MUF="1.0" PDF="25751" > PDF=25710 MemberID=41 </weight>
<weight id="1452" MUR="1.0" MUF="1.0" PDF="25752" > PDF=25710 MemberID=42 </weight>
<weight id="1453" MUR="1.0" MUF="1.0" PDF="25753" > PDF=25710 MemberID=43 </weight>
<weight id="1454" MUR="1.0" MUF="1.0" PDF="25754" > PDF=25710 MemberID=44 </weight>
<weight id="1455" MUR="1.0" MUF="1.0" PDF="25755" > PDF=25710 MemberID=45 </weight>
<weight id="1456" MUR="1.0" MUF="1.0" PDF="25756" > PDF=25710 MemberID=46 </weight>
<weight id="1457" MUR="1.0" MUF="1.0" PDF="25757" > PDF=25710 MemberID=47 </weight>
<weight id="1458" MUR="1.0" MUF="1.0" PDF="25758" > PDF=25710 MemberID=48 </weight>
<weight id="1459" MUR="1.0" MUF="1.0" PDF="25759" > PDF=25710 MemberID=49 </weight>
<weight id="1460" MUR="1.0" MUF="1.0" PDF="25760" > PDF=25710 MemberID=50 </weight>
</weightgroup> # PDFSET -> PDFSET
<weightgroup name="MMHT2014nnlo_asmzsmallrange_nf4" combine="unknown"> # 25770: MMHT 2014 NNLO (fits for range of alpha_S values, evolve with 4 flavours maximum). This set has 3 member PDFs. mem=0 --.gt. best-fit alpha_S(M_Z) = 0.118; mem=1-2 --.gt. alpha_S(M_Z) = 0.117, 0.119. Website: www.hep.ucl.ac.uk/mmht
<weight id="1461" MUR="1.0" MUF="1.0" PDF="25770" > PDF=25770 MemberID=0 </weight>
<weight id="1462" MUR="1.0" MUF="1.0" PDF="25771" > PDF=25770 MemberID=1 </weight>
<weight id="1463" MUR="1.0" MUF="1.0" PDF="25772" > PDF=25770 MemberID=2 </weight>
</weightgroup> # PDFSET -> PDFSET
<weightgroup name="MMHT2014nnlo_mcrange_nf4" combine="unknown"> # 25805: MMHT 2014 NNLO (range of mc, evolve with 4 flavours maximum). This set has 9 member PDFs. mem=0 --.gt. default mc = 1.40 GeV; mem=1-8 --.gt. mc = 1.15 - 1.55 GeV in steps of 0.05 GeV. Website: www.hep.ucl.ac.uk/mmht
<weight id="1464" MUR="1.0" MUF="1.0" PDF="25805" > PDF=25805 MemberID=0 </weight>
<weight id="1465" MUR="1.0" MUF="1.0" PDF="25806" > PDF=25805 MemberID=1 </weight>
<weight id="1466" MUR="1.0" MUF="1.0" PDF="25807" > PDF=25805 MemberID=2 </weight>
<weight id="1467" MUR="1.0" MUF="1.0" PDF="25808" > PDF=25805 MemberID=3 </weight>
<weight id="1468" MUR="1.0" MUF="1.0" PDF="25809" > PDF=25805 MemberID=4 </weight>
<weight id="1469" MUR="1.0" MUF="1.0" PDF="25810" > PDF=25805 MemberID=5 </weight>
<weight id="1470" MUR="1.0" MUF="1.0" PDF="25811" > PDF=25805 MemberID=6 </weight>
<weight id="1471" MUR="1.0" MUF="1.0" PDF="25812" > PDF=25805 MemberID=7 </weight>
<weight id="1472" MUR="1.0" MUF="1.0" PDF="25813" > PDF=25805 MemberID=8 </weight>
</weightgroup> # PDFSET -> PDFSET
<weightgroup name="MMHT2014nnlo_mbrange_nf4" combine="unknown"> # 25840: MMHT 2014 NNLO (range of mb, evolve with 4 flavours maximum). This set has 5 member PDFs. mem=0 --.gt. default mb = 4.75 GeV; mem=1-4 --.gt. mb = 4.25 - 5.25 GeV in steps of 0.25 GeV. Website: www.hep.ucl.ac.uk/mmht
<weight id="1473" MUR="1.0" MUF="1.0" PDF="25840" > PDF=25840 MemberID=0 </weight>
<weight id="1474" MUR="1.0" MUF="1.0" PDF="25841" > PDF=25840 MemberID=1 </weight>
<weight id="1475" MUR="1.0" MUF="1.0" PDF="25842" > PDF=25840 MemberID=2 </weight>
<weight id="1476" MUR="1.0" MUF="1.0" PDF="25843" > PDF=25840 MemberID=3 </weight>
<weight id="1477" MUR="1.0" MUF="1.0" PDF="25844" > PDF=25840 MemberID=4 </weight>
</weightgroup> # PDFSET -> PDFSET
<weightgroup name="PDF4LHC15_nlo_nf4_30" combine="symmhessian"> # 92000: PDF4LHC15_nlo_nf4_30, alphas(MZ)=0.1126, mem=0 ; central value; mem=1-30 ; PDF symmetric eigenvectors
<weight id="1478" MUR="1.0" MUF="1.0" PDF="92000" > PDF=92000 MemberID=0 </weight>
<weight id="1479" MUR="1.0" MUF="1.0" PDF="92001" > PDF=92000 MemberID=1 </weight>
<weight id="1480" MUR="1.0" MUF="1.0" PDF="92002" > PDF=92000 MemberID=2 </weight>
<weight id="1481" MUR="1.0" MUF="1.0" PDF="92003" > PDF=92000 MemberID=3 </weight>
<weight id="1482" MUR="1.0" MUF="1.0" PDF="92004" > PDF=92000 MemberID=4 </weight>
<weight id="1483" MUR="1.0" MUF="1.0" PDF="92005" > PDF=92000 MemberID=5 </weight>
<weight id="1484" MUR="1.0" MUF="1.0" PDF="92006" > PDF=92000 MemberID=6 </weight>
<weight id="1485" MUR="1.0" MUF="1.0" PDF="92007" > PDF=92000 MemberID=7 </weight>
<weight id="1486" MUR="1.0" MUF="1.0" PDF="92008" > PDF=92000 MemberID=8 </weight>
<weight id="1487" MUR="1.0" MUF="1.0" PDF="92009" > PDF=92000 MemberID=9 </weight>
<weight id="1488" MUR="1.0" MUF="1.0" PDF="92010" > PDF=92000 MemberID=10 </weight>
<weight id="1489" MUR="1.0" MUF="1.0" PDF="92011" > PDF=92000 MemberID=11 </weight>
<weight id="1490" MUR="1.0" MUF="1.0" PDF="92012" > PDF=92000 MemberID=12 </weight>
<weight id="1491" MUR="1.0" MUF="1.0" PDF="92013" > PDF=92000 MemberID=13 </weight>
<weight id="1492" MUR="1.0" MUF="1.0" PDF="92014" > PDF=92000 MemberID=14 </weight>
<weight id="1493" MUR="1.0" MUF="1.0" PDF="92015" > PDF=92000 MemberID=15 </weight>
<weight id="1494" MUR="1.0" MUF="1.0" PDF="92016" > PDF=92000 MemberID=16 </weight>
<weight id="1495" MUR="1.0" MUF="1.0" PDF="92017" > PDF=92000 MemberID=17 </weight>
<weight id="1496" MUR="1.0" MUF="1.0" PDF="92018" > PDF=92000 MemberID=18 </weight>
<weight id="1497" MUR="1.0" MUF="1.0" PDF="92019" > PDF=92000 MemberID=19 </weight>
<weight id="1498" MUR="1.0" MUF="1.0" PDF="92020" > PDF=92000 MemberID=20 </weight>
<weight id="1499" MUR="1.0" MUF="1.0" PDF="92021" > PDF=92000 MemberID=21 </weight>
<weight id="1500" MUR="1.0" MUF="1.0" PDF="92022" > PDF=92000 MemberID=22 </weight>
<weight id="1501" MUR="1.0" MUF="1.0" PDF="92023" > PDF=92000 MemberID=23 </weight>
<weight id="1502" MUR="1.0" MUF="1.0" PDF="92024" > PDF=92000 MemberID=24 </weight>
<weight id="1503" MUR="1.0" MUF="1.0" PDF="92025" > PDF=92000 MemberID=25 </weight>
<weight id="1504" MUR="1.0" MUF="1.0" PDF="92026" > PDF=92000 MemberID=26 </weight>
<weight id="1505" MUR="1.0" MUF="1.0" PDF="92027" > PDF=92000 MemberID=27 </weight>
<weight id="1506" MUR="1.0" MUF="1.0" PDF="92028" > PDF=92000 MemberID=28 </weight>
<weight id="1507" MUR="1.0" MUF="1.0" PDF="92029" > PDF=92000 MemberID=29 </weight>
<weight id="1508" MUR="1.0" MUF="1.0" PDF="92030" > PDF=92000 MemberID=30 </weight>
</weightgroup> # PDFSET -> PDFSET
<weightgroup name="NNPDF31_nnlo_hessian_pdfas" combine="symmhessian+as"> # 306000: Hessian conversion of NNPDF31_nnlo_as_0118_1000, mem=0 central value ; Alphas(MZ)=0.118; mem=1-100 ; PDF eig.; mem=101 ; central value Alphas(MZ)=0.116; mem=102 ; central value Alphas(MZ)=0.120
<weight id="1509" MUR="1.0" MUF="1.0" PDF="306000" > PDF=306000 MemberID=0 </weight>
<weight id="1510" MUR="1.0" MUF="1.0" PDF="306001" > PDF=306000 MemberID=1 </weight>
<weight id="1511" MUR="1.0" MUF="1.0" PDF="306002" > PDF=306000 MemberID=2 </weight>
<weight id="1512" MUR="1.0" MUF="1.0" PDF="306003" > PDF=306000 MemberID=3 </weight>
<weight id="1513" MUR="1.0" MUF="1.0" PDF="306004" > PDF=306000 MemberID=4 </weight>
<weight id="1514" MUR="1.0" MUF="1.0" PDF="306005" > PDF=306000 MemberID=5 </weight>
<weight id="1515" MUR="1.0" MUF="1.0" PDF="306006" > PDF=306000 MemberID=6 </weight>
<weight id="1516" MUR="1.0" MUF="1.0" PDF="306007" > PDF=306000 MemberID=7 </weight>
<weight id="1517" MUR="1.0" MUF="1.0" PDF="306008" > PDF=306000 MemberID=8 </weight>
<weight id="1518" MUR="1.0" MUF="1.0" PDF="306009" > PDF=306000 MemberID=9 </weight>
<weight id="1519" MUR="1.0" MUF="1.0" PDF="306010" > PDF=306000 MemberID=10 </weight>
<weight id="1520" MUR="1.0" MUF="1.0" PDF="306011" > PDF=306000 MemberID=11 </weight>
<weight id="1521" MUR="1.0" MUF="1.0" PDF="306012" > PDF=306000 MemberID=12 </weight>
<weight id="1522" MUR="1.0" MUF="1.0" PDF="306013" > PDF=306000 MemberID=13 </weight>
<weight id="1523" MUR="1.0" MUF="1.0" PDF="306014" > PDF=306000 MemberID=14 </weight>
<weight id="1524" MUR="1.0" MUF="1.0" PDF="306015" > PDF=306000 MemberID=15 </weight>
<weight id="1525" MUR="1.0" MUF="1.0" PDF="306016" > PDF=306000 MemberID=16 </weight>
<weight id="1526" MUR="1.0" MUF="1.0" PDF="306017" > PDF=306000 MemberID=17 </weight>
<weight id="1527" MUR="1.0" MUF="1.0" PDF="306018" > PDF=306000 MemberID=18 </weight>
<weight id="1528" MUR="1.0" MUF="1.0" PDF="306019" > PDF=306000 MemberID=19 </weight>
<weight id="1529" MUR="1.0" MUF="1.0" PDF="306020" > PDF=306000 MemberID=20 </weight>
<weight id="1530" MUR="1.0" MUF="1.0" PDF="306021" > PDF=306000 MemberID=21 </weight>
<weight id="1531" MUR="1.0" MUF="1.0" PDF="306022" > PDF=306000 MemberID=22 </weight>
<weight id="1532" MUR="1.0" MUF="1.0" PDF="306023" > PDF=306000 MemberID=23 </weight>
<weight id="1533" MUR="1.0" MUF="1.0" PDF="306024" > PDF=306000 MemberID=24 </weight>
<weight id="1534" MUR="1.0" MUF="1.0" PDF="306025" > PDF=306000 MemberID=25 </weight>
<weight id="1535" MUR="1.0" MUF="1.0" PDF="306026" > PDF=306000 MemberID=26 </weight>
<weight id="1536" MUR="1.0" MUF="1.0" PDF="306027" > PDF=306000 MemberID=27 </weight>
<weight id="1537" MUR="1.0" MUF="1.0" PDF="306028" > PDF=306000 MemberID=28 </weight>
<weight id="1538" MUR="1.0" MUF="1.0" PDF="306029" > PDF=306000 MemberID=29 </weight>
<weight id="1539" MUR="1.0" MUF="1.0" PDF="306030" > PDF=306000 MemberID=30 </weight>
<weight id="1540" MUR="1.0" MUF="1.0" PDF="306031" > PDF=306000 MemberID=31 </weight>
<weight id="1541" MUR="1.0" MUF="1.0" PDF="306032" > PDF=306000 MemberID=32 </weight>
<weight id="1542" MUR="1.0" MUF="1.0" PDF="306033" > PDF=306000 MemberID=33 </weight>
<weight id="1543" MUR="1.0" MUF="1.0" PDF="306034" > PDF=306000 MemberID=34 </weight>
<weight id="1544" MUR="1.0" MUF="1.0" PDF="306035" > PDF=306000 MemberID=35 </weight>
<weight id="1545" MUR="1.0" MUF="1.0" PDF="306036" > PDF=306000 MemberID=36 </weight>
<weight id="1546" MUR="1.0" MUF="1.0" PDF="306037" > PDF=306000 MemberID=37 </weight>
<weight id="1547" MUR="1.0" MUF="1.0" PDF="306038" > PDF=306000 MemberID=38 </weight>
<weight id="1548" MUR="1.0" MUF="1.0" PDF="306039" > PDF=306000 MemberID=39 </weight>
<weight id="1549" MUR="1.0" MUF="1.0" PDF="306040" > PDF=306000 MemberID=40 </weight>
<weight id="1550" MUR="1.0" MUF="1.0" PDF="306041" > PDF=306000 MemberID=41 </weight>
<weight id="1551" MUR="1.0" MUF="1.0" PDF="306042" > PDF=306000 MemberID=42 </weight>
<weight id="1552" MUR="1.0" MUF="1.0" PDF="306043" > PDF=306000 MemberID=43 </weight>
<weight id="1553" MUR="1.0" MUF="1.0" PDF="306044" > PDF=306000 MemberID=44 </weight>
<weight id="1554" MUR="1.0" MUF="1.0" PDF="306045" > PDF=306000 MemberID=45 </weight>
<weight id="1555" MUR="1.0" MUF="1.0" PDF="306046" > PDF=306000 MemberID=46 </weight>
<weight id="1556" MUR="1.0" MUF="1.0" PDF="306047" > PDF=306000 MemberID=47 </weight>
<weight id="1557" MUR="1.0" MUF="1.0" PDF="306048" > PDF=306000 MemberID=48 </weight>
<weight id="1558" MUR="1.0" MUF="1.0" PDF="306049" > PDF=306000 MemberID=49 </weight>
<weight id="1559" MUR="1.0" MUF="1.0" PDF="306050" > PDF=306000 MemberID=50 </weight>
<weight id="1560" MUR="1.0" MUF="1.0" PDF="306051" > PDF=306000 MemberID=51 </weight>
<weight id="1561" MUR="1.0" MUF="1.0" PDF="306052" > PDF=306000 MemberID=52 </weight>
<weight id="1562" MUR="1.0" MUF="1.0" PDF="306053" > PDF=306000 MemberID=53 </weight>
<weight id="1563" MUR="1.0" MUF="1.0" PDF="306054" > PDF=306000 MemberID=54 </weight>
<weight id="1564" MUR="1.0" MUF="1.0" PDF="306055" > PDF=306000 MemberID=55 </weight>
<weight id="1565" MUR="1.0" MUF="1.0" PDF="306056" > PDF=306000 MemberID=56 </weight>
<weight id="1566" MUR="1.0" MUF="1.0" PDF="306057" > PDF=306000 MemberID=57 </weight>
<weight id="1567" MUR="1.0" MUF="1.0" PDF="306058" > PDF=306000 MemberID=58 </weight>
<weight id="1568" MUR="1.0" MUF="1.0" PDF="306059" > PDF=306000 MemberID=59 </weight>
<weight id="1569" MUR="1.0" MUF="1.0" PDF="306060" > PDF=306000 MemberID=60 </weight>
<weight id="1570" MUR="1.0" MUF="1.0" PDF="306061" > PDF=306000 MemberID=61 </weight>
<weight id="1571" MUR="1.0" MUF="1.0" PDF="306062" > PDF=306000 MemberID=62 </weight>
<weight id="1572" MUR="1.0" MUF="1.0" PDF="306063" > PDF=306000 MemberID=63 </weight>
<weight id="1573" MUR="1.0" MUF="1.0" PDF="306064" > PDF=306000 MemberID=64 </weight>
<weight id="1574" MUR="1.0" MUF="1.0" PDF="306065" > PDF=306000 MemberID=65 </weight>
<weight id="1575" MUR="1.0" MUF="1.0" PDF="306066" > PDF=306000 MemberID=66 </weight>
<weight id="1576" MUR="1.0" MUF="1.0" PDF="306067" > PDF=306000 MemberID=67 </weight>
<weight id="1577" MUR="1.0" MUF="1.0" PDF="306068" > PDF=306000 MemberID=68 </weight>
<weight id="1578" MUR="1.0" MUF="1.0" PDF="306069" > PDF=306000 MemberID=69 </weight>
<weight id="1579" MUR="1.0" MUF="1.0" PDF="306070" > PDF=306000 MemberID=70 </weight>
<weight id="1580" MUR="1.0" MUF="1.0" PDF="306071" > PDF=306000 MemberID=71 </weight>
<weight id="1581" MUR="1.0" MUF="1.0" PDF="306072" > PDF=306000 MemberID=72 </weight>
<weight id="1582" MUR="1.0" MUF="1.0" PDF="306073" > PDF=306000 MemberID=73 </weight>
<weight id="1583" MUR="1.0" MUF="1.0" PDF="306074" > PDF=306000 MemberID=74 </weight>
<weight id="1584" MUR="1.0" MUF="1.0" PDF="306075" > PDF=306000 MemberID=75 </weight>
<weight id="1585" MUR="1.0" MUF="1.0" PDF="306076" > PDF=306000 MemberID=76 </weight>
<weight id="1586" MUR="1.0" MUF="1.0" PDF="306077" > PDF=306000 MemberID=77 </weight>
<weight id="1587" MUR="1.0" MUF="1.0" PDF="306078" > PDF=306000 MemberID=78 </weight>
<weight id="1588" MUR="1.0" MUF="1.0" PDF="306079" > PDF=306000 MemberID=79 </weight>
<weight id="1589" MUR="1.0" MUF="1.0" PDF="306080" > PDF=306000 MemberID=80 </weight>
<weight id="1590" MUR="1.0" MUF="1.0" PDF="306081" > PDF=306000 MemberID=81 </weight>
<weight id="1591" MUR="1.0" MUF="1.0" PDF="306082" > PDF=306000 MemberID=82 </weight>
<weight id="1592" MUR="1.0" MUF="1.0" PDF="306083" > PDF=306000 MemberID=83 </weight>
<weight id="1593" MUR="1.0" MUF="1.0" PDF="306084" > PDF=306000 MemberID=84 </weight>
<weight id="1594" MUR="1.0" MUF="1.0" PDF="306085" > PDF=306000 MemberID=85 </weight>
<weight id="1595" MUR="1.0" MUF="1.0" PDF="306086" > PDF=306000 MemberID=86 </weight>
<weight id="1596" MUR="1.0" MUF="1.0" PDF="306087" > PDF=306000 MemberID=87 </weight>
<weight id="1597" MUR="1.0" MUF="1.0" PDF="306088" > PDF=306000 MemberID=88 </weight>
<weight id="1598" MUR="1.0" MUF="1.0" PDF="306089" > PDF=306000 MemberID=89 </weight>
<weight id="1599" MUR="1.0" MUF="1.0" PDF="306090" > PDF=306000 MemberID=90 </weight>
<weight id="1600" MUR="1.0" MUF="1.0" PDF="306091" > PDF=306000 MemberID=91 </weight>
<weight id="1601" MUR="1.0" MUF="1.0" PDF="306092" > PDF=306000 MemberID=92 </weight>
<weight id="1602" MUR="1.0" MUF="1.0" PDF="306093" > PDF=306000 MemberID=93 </weight>
<weight id="1603" MUR="1.0" MUF="1.0" PDF="306094" > PDF=306000 MemberID=94 </weight>
<weight id="1604" MUR="1.0" MUF="1.0" PDF="306095" > PDF=306000 MemberID=95 </weight>
<weight id="1605" MUR="1.0" MUF="1.0" PDF="306096" > PDF=306000 MemberID=96 </weight>
<weight id="1606" MUR="1.0" MUF="1.0" PDF="306097" > PDF=306000 MemberID=97 </weight>
<weight id="1607" MUR="1.0" MUF="1.0" PDF="306098" > PDF=306000 MemberID=98 </weight>
<weight id="1608" MUR="1.0" MUF="1.0" PDF="306099" > PDF=306000 MemberID=99 </weight>
<weight id="1609" MUR="1.0" MUF="1.0" PDF="306100" > PDF=306000 MemberID=100 </weight>
<weight id="1610" MUR="1.0" MUF="1.0" PDF="306101" > PDF=306000 MemberID=101 </weight>
<weight id="1611" MUR="1.0" MUF="1.0" PDF="306102" > PDF=306000 MemberID=102 </weight>
</weightgroup> # PDFSET -> PDFSET
<weightgroup name="NNPDF31_nlo_as_0118_nf_4" combine="replicas"> # 320500: NNPDF3.1 NLO global fit, nf=4. mem=0 ; average on replicas; mem=1-100 ; PDF replicas
<weight id="1612" MUR="1.0" MUF="1.0" PDF="320500" > PDF=320500 MemberID=0 </weight>
<weight id="1613" MUR="1.0" MUF="1.0" PDF="320501" > PDF=320500 MemberID=1 </weight>
<weight id="1614" MUR="1.0" MUF="1.0" PDF="320502" > PDF=320500 MemberID=2 </weight>
<weight id="1615" MUR="1.0" MUF="1.0" PDF="320503" > PDF=320500 MemberID=3 </weight>
<weight id="1616" MUR="1.0" MUF="1.0" PDF="320504" > PDF=320500 MemberID=4 </weight>
<weight id="1617" MUR="1.0" MUF="1.0" PDF="320505" > PDF=320500 MemberID=5 </weight>
<weight id="1618" MUR="1.0" MUF="1.0" PDF="320506" > PDF=320500 MemberID=6 </weight>
<weight id="1619" MUR="1.0" MUF="1.0" PDF="320507" > PDF=320500 MemberID=7 </weight>
<weight id="1620" MUR="1.0" MUF="1.0" PDF="320508" > PDF=320500 MemberID=8 </weight>
<weight id="1621" MUR="1.0" MUF="1.0" PDF="320509" > PDF=320500 MemberID=9 </weight>
<weight id="1622" MUR="1.0" MUF="1.0" PDF="320510" > PDF=320500 MemberID=10 </weight>
<weight id="1623" MUR="1.0" MUF="1.0" PDF="320511" > PDF=320500 MemberID=11 </weight>
<weight id="1624" MUR="1.0" MUF="1.0" PDF="320512" > PDF=320500 MemberID=12 </weight>
<weight id="1625" MUR="1.0" MUF="1.0" PDF="320513" > PDF=320500 MemberID=13 </weight>
<weight id="1626" MUR="1.0" MUF="1.0" PDF="320514" > PDF=320500 MemberID=14 </weight>
<weight id="1627" MUR="1.0" MUF="1.0" PDF="320515" > PDF=320500 MemberID=15 </weight>
<weight id="1628" MUR="1.0" MUF="1.0" PDF="320516" > PDF=320500 MemberID=16 </weight>
<weight id="1629" MUR="1.0" MUF="1.0" PDF="320517" > PDF=320500 MemberID=17 </weight>
<weight id="1630" MUR="1.0" MUF="1.0" PDF="320518" > PDF=320500 MemberID=18 </weight>
<weight id="1631" MUR="1.0" MUF="1.0" PDF="320519" > PDF=320500 MemberID=19 </weight>
<weight id="1632" MUR="1.0" MUF="1.0" PDF="320520" > PDF=320500 MemberID=20 </weight>
<weight id="1633" MUR="1.0" MUF="1.0" PDF="320521" > PDF=320500 MemberID=21 </weight>
<weight id="1634" MUR="1.0" MUF="1.0" PDF="320522" > PDF=320500 MemberID=22 </weight>
<weight id="1635" MUR="1.0" MUF="1.0" PDF="320523" > PDF=320500 MemberID=23 </weight>
<weight id="1636" MUR="1.0" MUF="1.0" PDF="320524" > PDF=320500 MemberID=24 </weight>
<weight id="1637" MUR="1.0" MUF="1.0" PDF="320525" > PDF=320500 MemberID=25 </weight>
<weight id="1638" MUR="1.0" MUF="1.0" PDF="320526" > PDF=320500 MemberID=26 </weight>
<weight id="1639" MUR="1.0" MUF="1.0" PDF="320527" > PDF=320500 MemberID=27 </weight>
<weight id="1640" MUR="1.0" MUF="1.0" PDF="320528" > PDF=320500 MemberID=28 </weight>
<weight id="1641" MUR="1.0" MUF="1.0" PDF="320529" > PDF=320500 MemberID=29 </weight>
<weight id="1642" MUR="1.0" MUF="1.0" PDF="320530" > PDF=320500 MemberID=30 </weight>
<weight id="1643" MUR="1.0" MUF="1.0" PDF="320531" > PDF=320500 MemberID=31 </weight>
<weight id="1644" MUR="1.0" MUF="1.0" PDF="320532" > PDF=320500 MemberID=32 </weight>
<weight id="1645" MUR="1.0" MUF="1.0" PDF="320533" > PDF=320500 MemberID=33 </weight>
<weight id="1646" MUR="1.0" MUF="1.0" PDF="320534" > PDF=320500 MemberID=34 </weight>
<weight id="1647" MUR="1.0" MUF="1.0" PDF="320535" > PDF=320500 MemberID=35 </weight>
<weight id="1648" MUR="1.0" MUF="1.0" PDF="320536" > PDF=320500 MemberID=36 </weight>
<weight id="1649" MUR="1.0" MUF="1.0" PDF="320537" > PDF=320500 MemberID=37 </weight>
<weight id="1650" MUR="1.0" MUF="1.0" PDF="320538" > PDF=320500 MemberID=38 </weight>
<weight id="1651" MUR="1.0" MUF="1.0" PDF="320539" > PDF=320500 MemberID=39 </weight>
<weight id="1652" MUR="1.0" MUF="1.0" PDF="320540" > PDF=320500 MemberID=40 </weight>
<weight id="1653" MUR="1.0" MUF="1.0" PDF="320541" > PDF=320500 MemberID=41 </weight>
<weight id="1654" MUR="1.0" MUF="1.0" PDF="320542" > PDF=320500 MemberID=42 </weight>
<weight id="1655" MUR="1.0" MUF="1.0" PDF="320543" > PDF=320500 MemberID=43 </weight>
<weight id="1656" MUR="1.0" MUF="1.0" PDF="320544" > PDF=320500 MemberID=44 </weight>
<weight id="1657" MUR="1.0" MUF="1.0" PDF="320545" > PDF=320500 MemberID=45 </weight>
<weight id="1658" MUR="1.0" MUF="1.0" PDF="320546" > PDF=320500 MemberID=46 </weight>
<weight id="1659" MUR="1.0" MUF="1.0" PDF="320547" > PDF=320500 MemberID=47 </weight>
<weight id="1660" MUR="1.0" MUF="1.0" PDF="320548" > PDF=320500 MemberID=48 </weight>
<weight id="1661" MUR="1.0" MUF="1.0" PDF="320549" > PDF=320500 MemberID=49 </weight>
<weight id="1662" MUR="1.0" MUF="1.0" PDF="320550" > PDF=320500 MemberID=50 </weight>
<weight id="1663" MUR="1.0" MUF="1.0" PDF="320551" > PDF=320500 MemberID=51 </weight>
<weight id="1664" MUR="1.0" MUF="1.0" PDF="320552" > PDF=320500 MemberID=52 </weight>
<weight id="1665" MUR="1.0" MUF="1.0" PDF="320553" > PDF=320500 MemberID=53 </weight>
<weight id="1666" MUR="1.0" MUF="1.0" PDF="320554" > PDF=320500 MemberID=54 </weight>
<weight id="1667" MUR="1.0" MUF="1.0" PDF="320555" > PDF=320500 MemberID=55 </weight>
<weight id="1668" MUR="1.0" MUF="1.0" PDF="320556" > PDF=320500 MemberID=56 </weight>
<weight id="1669" MUR="1.0" MUF="1.0" PDF="320557" > PDF=320500 MemberID=57 </weight>
<weight id="1670" MUR="1.0" MUF="1.0" PDF="320558" > PDF=320500 MemberID=58 </weight>
<weight id="1671" MUR="1.0" MUF="1.0" PDF="320559" > PDF=320500 MemberID=59 </weight>
<weight id="1672" MUR="1.0" MUF="1.0" PDF="320560" > PDF=320500 MemberID=60 </weight>
<weight id="1673" MUR="1.0" MUF="1.0" PDF="320561" > PDF=320500 MemberID=61 </weight>
<weight id="1674" MUR="1.0" MUF="1.0" PDF="320562" > PDF=320500 MemberID=62 </weight>
<weight id="1675" MUR="1.0" MUF="1.0" PDF="320563" > PDF=320500 MemberID=63 </weight>
<weight id="1676" MUR="1.0" MUF="1.0" PDF="320564" > PDF=320500 MemberID=64 </weight>
<weight id="1677" MUR="1.0" MUF="1.0" PDF="320565" > PDF=320500 MemberID=65 </weight>
<weight id="1678" MUR="1.0" MUF="1.0" PDF="320566" > PDF=320500 MemberID=66 </weight>
<weight id="1679" MUR="1.0" MUF="1.0" PDF="320567" > PDF=320500 MemberID=67 </weight>
<weight id="1680" MUR="1.0" MUF="1.0" PDF="320568" > PDF=320500 MemberID=68 </weight>
<weight id="1681" MUR="1.0" MUF="1.0" PDF="320569" > PDF=320500 MemberID=69 </weight>
<weight id="1682" MUR="1.0" MUF="1.0" PDF="320570" > PDF=320500 MemberID=70 </weight>
<weight id="1683" MUR="1.0" MUF="1.0" PDF="320571" > PDF=320500 MemberID=71 </weight>
<weight id="1684" MUR="1.0" MUF="1.0" PDF="320572" > PDF=320500 MemberID=72 </weight>
<weight id="1685" MUR="1.0" MUF="1.0" PDF="320573" > PDF=320500 MemberID=73 </weight>
<weight id="1686" MUR="1.0" MUF="1.0" PDF="320574" > PDF=320500 MemberID=74 </weight>
<weight id="1687" MUR="1.0" MUF="1.0" PDF="320575" > PDF=320500 MemberID=75 </weight>
<weight id="1688" MUR="1.0" MUF="1.0" PDF="320576" > PDF=320500 MemberID=76 </weight>
<weight id="1689" MUR="1.0" MUF="1.0" PDF="320577" > PDF=320500 MemberID=77 </weight>
<weight id="1690" MUR="1.0" MUF="1.0" PDF="320578" > PDF=320500 MemberID=78 </weight>
<weight id="1691" MUR="1.0" MUF="1.0" PDF="320579" > PDF=320500 MemberID=79 </weight>
<weight id="1692" MUR="1.0" MUF="1.0" PDF="320580" > PDF=320500 MemberID=80 </weight>
<weight id="1693" MUR="1.0" MUF="1.0" PDF="320581" > PDF=320500 MemberID=81 </weight>
<weight id="1694" MUR="1.0" MUF="1.0" PDF="320582" > PDF=320500 MemberID=82 </weight>
<weight id="1695" MUR="1.0" MUF="1.0" PDF="320583" > PDF=320500 MemberID=83 </weight>
<weight id="1696" MUR="1.0" MUF="1.0" PDF="320584" > PDF=320500 MemberID=84 </weight>
<weight id="1697" MUR="1.0" MUF="1.0" PDF="320585" > PDF=320500 MemberID=85 </weight>
<weight id="1698" MUR="1.0" MUF="1.0" PDF="320586" > PDF=320500 MemberID=86 </weight>
<weight id="1699" MUR="1.0" MUF="1.0" PDF="320587" > PDF=320500 MemberID=87 </weight>
<weight id="1700" MUR="1.0" MUF="1.0" PDF="320588" > PDF=320500 MemberID=88 </weight>
<weight id="1701" MUR="1.0" MUF="1.0" PDF="320589" > PDF=320500 MemberID=89 </weight>
<weight id="1702" MUR="1.0" MUF="1.0" PDF="320590" > PDF=320500 MemberID=90 </weight>
<weight id="1703" MUR="1.0" MUF="1.0" PDF="320591" > PDF=320500 MemberID=91 </weight>
<weight id="1704" MUR="1.0" MUF="1.0" PDF="320592" > PDF=320500 MemberID=92 </weight>
<weight id="1705" MUR="1.0" MUF="1.0" PDF="320593" > PDF=320500 MemberID=93 </weight>
<weight id="1706" MUR="1.0" MUF="1.0" PDF="320594" > PDF=320500 MemberID=94 </weight>
<weight id="1707" MUR="1.0" MUF="1.0" PDF="320595" > PDF=320500 MemberID=95 </weight>
<weight id="1708" MUR="1.0" MUF="1.0" PDF="320596" > PDF=320500 MemberID=96 </weight>
<weight id="1709" MUR="1.0" MUF="1.0" PDF="320597" > PDF=320500 MemberID=97 </weight>
<weight id="1710" MUR="1.0" MUF="1.0" PDF="320598" > PDF=320500 MemberID=98 </weight>
<weight id="1711" MUR="1.0" MUF="1.0" PDF="320599" > PDF=320500 MemberID=99 </weight>
<weight id="1712" MUR="1.0" MUF="1.0" PDF="320600" > PDF=320500 MemberID=100 </weight>
</weightgroup> # PDFSET -> PDFSET
<weightgroup name="NNPDF30_nlo_as_0118_nf_4" combine="replicas"> # 260400: NNPDF3.0 NLO global fit, alphas(mb)=0.22278. mem=0 ; average on replicas; mem=1-100 ; PDF replicas
<weight id="1713" MUR="1.0" MUF="1.0" PDF="260400" > PDF=260400 MemberID=0 </weight>
<weight id="1714" MUR="1.0" MUF="1.0" PDF="260401" > PDF=260400 MemberID=1 </weight>
<weight id="1715" MUR="1.0" MUF="1.0" PDF="260402" > PDF=260400 MemberID=2 </weight>
<weight id="1716" MUR="1.0" MUF="1.0" PDF="260403" > PDF=260400 MemberID=3 </weight>
<weight id="1717" MUR="1.0" MUF="1.0" PDF="260404" > PDF=260400 MemberID=4 </weight>
<weight id="1718" MUR="1.0" MUF="1.0" PDF="260405" > PDF=260400 MemberID=5 </weight>
<weight id="1719" MUR="1.0" MUF="1.0" PDF="260406" > PDF=260400 MemberID=6 </weight>
<weight id="1720" MUR="1.0" MUF="1.0" PDF="260407" > PDF=260400 MemberID=7 </weight>
<weight id="1721" MUR="1.0" MUF="1.0" PDF="260408" > PDF=260400 MemberID=8 </weight>
<weight id="1722" MUR="1.0" MUF="1.0" PDF="260409" > PDF=260400 MemberID=9 </weight>
<weight id="1723" MUR="1.0" MUF="1.0" PDF="260410" > PDF=260400 MemberID=10 </weight>
<weight id="1724" MUR="1.0" MUF="1.0" PDF="260411" > PDF=260400 MemberID=11 </weight>
<weight id="1725" MUR="1.0" MUF="1.0" PDF="260412" > PDF=260400 MemberID=12 </weight>
<weight id="1726" MUR="1.0" MUF="1.0" PDF="260413" > PDF=260400 MemberID=13 </weight>
<weight id="1727" MUR="1.0" MUF="1.0" PDF="260414" > PDF=260400 MemberID=14 </weight>
<weight id="1728" MUR="1.0" MUF="1.0" PDF="260415" > PDF=260400 MemberID=15 </weight>
<weight id="1729" MUR="1.0" MUF="1.0" PDF="260416" > PDF=260400 MemberID=16 </weight>
<weight id="1730" MUR="1.0" MUF="1.0" PDF="260417" > PDF=260400 MemberID=17 </weight>
<weight id="1731" MUR="1.0" MUF="1.0" PDF="260418" > PDF=260400 MemberID=18 </weight>
<weight id="1732" MUR="1.0" MUF="1.0" PDF="260419" > PDF=260400 MemberID=19 </weight>
<weight id="1733" MUR="1.0" MUF="1.0" PDF="260420" > PDF=260400 MemberID=20 </weight>
<weight id="1734" MUR="1.0" MUF="1.0" PDF="260421" > PDF=260400 MemberID=21 </weight>
<weight id="1735" MUR="1.0" MUF="1.0" PDF="260422" > PDF=260400 MemberID=22 </weight>
<weight id="1736" MUR="1.0" MUF="1.0" PDF="260423" > PDF=260400 MemberID=23 </weight>
<weight id="1737" MUR="1.0" MUF="1.0" PDF="260424" > PDF=260400 MemberID=24 </weight>
<weight id="1738" MUR="1.0" MUF="1.0" PDF="260425" > PDF=260400 MemberID=25 </weight>
<weight id="1739" MUR="1.0" MUF="1.0" PDF="260426" > PDF=260400 MemberID=26 </weight>
<weight id="1740" MUR="1.0" MUF="1.0" PDF="260427" > PDF=260400 MemberID=27 </weight>
<weight id="1741" MUR="1.0" MUF="1.0" PDF="260428" > PDF=260400 MemberID=28 </weight>
<weight id="1742" MUR="1.0" MUF="1.0" PDF="260429" > PDF=260400 MemberID=29 </weight>
<weight id="1743" MUR="1.0" MUF="1.0" PDF="260430" > PDF=260400 MemberID=30 </weight>
<weight id="1744" MUR="1.0" MUF="1.0" PDF="260431" > PDF=260400 MemberID=31 </weight>
<weight id="1745" MUR="1.0" MUF="1.0" PDF="260432" > PDF=260400 MemberID=32 </weight>
<weight id="1746" MUR="1.0" MUF="1.0" PDF="260433" > PDF=260400 MemberID=33 </weight>
<weight id="1747" MUR="1.0" MUF="1.0" PDF="260434" > PDF=260400 MemberID=34 </weight>
<weight id="1748" MUR="1.0" MUF="1.0" PDF="260435" > PDF=260400 MemberID=35 </weight>
<weight id="1749" MUR="1.0" MUF="1.0" PDF="260436" > PDF=260400 MemberID=36 </weight>
<weight id="1750" MUR="1.0" MUF="1.0" PDF="260437" > PDF=260400 MemberID=37 </weight>
<weight id="1751" MUR="1.0" MUF="1.0" PDF="260438" > PDF=260400 MemberID=38 </weight>
<weight id="1752" MUR="1.0" MUF="1.0" PDF="260439" > PDF=260400 MemberID=39 </weight>
<weight id="1753" MUR="1.0" MUF="1.0" PDF="260440" > PDF=260400 MemberID=40 </weight>
<weight id="1754" MUR="1.0" MUF="1.0" PDF="260441" > PDF=260400 MemberID=41 </weight>
<weight id="1755" MUR="1.0" MUF="1.0" PDF="260442" > PDF=260400 MemberID=42 </weight>
<weight id="1756" MUR="1.0" MUF="1.0" PDF="260443" > PDF=260400 MemberID=43 </weight>
<weight id="1757" MUR="1.0" MUF="1.0" PDF="260444" > PDF=260400 MemberID=44 </weight>
<weight id="1758" MUR="1.0" MUF="1.0" PDF="260445" > PDF=260400 MemberID=45 </weight>
<weight id="1759" MUR="1.0" MUF="1.0" PDF="260446" > PDF=260400 MemberID=46 </weight>
<weight id="1760" MUR="1.0" MUF="1.0" PDF="260447" > PDF=260400 MemberID=47 </weight>
<weight id="1761" MUR="1.0" MUF="1.0" PDF="260448" > PDF=260400 MemberID=48 </weight>
<weight id="1762" MUR="1.0" MUF="1.0" PDF="260449" > PDF=260400 MemberID=49 </weight>
<weight id="1763" MUR="1.0" MUF="1.0" PDF="260450" > PDF=260400 MemberID=50 </weight>
<weight id="1764" MUR="1.0" MUF="1.0" PDF="260451" > PDF=260400 MemberID=51 </weight>
<weight id="1765" MUR="1.0" MUF="1.0" PDF="260452" > PDF=260400 MemberID=52 </weight>
<weight id="1766" MUR="1.0" MUF="1.0" PDF="260453" > PDF=260400 MemberID=53 </weight>
<weight id="1767" MUR="1.0" MUF="1.0" PDF="260454" > PDF=260400 MemberID=54 </weight>
<weight id="1768" MUR="1.0" MUF="1.0" PDF="260455" > PDF=260400 MemberID=55 </weight>
<weight id="1769" MUR="1.0" MUF="1.0" PDF="260456" > PDF=260400 MemberID=56 </weight>
<weight id="1770" MUR="1.0" MUF="1.0" PDF="260457" > PDF=260400 MemberID=57 </weight>
<weight id="1771" MUR="1.0" MUF="1.0" PDF="260458" > PDF=260400 MemberID=58 </weight>
<weight id="1772" MUR="1.0" MUF="1.0" PDF="260459" > PDF=260400 MemberID=59 </weight>
<weight id="1773" MUR="1.0" MUF="1.0" PDF="260460" > PDF=260400 MemberID=60 </weight>
<weight id="1774" MUR="1.0" MUF="1.0" PDF="260461" > PDF=260400 MemberID=61 </weight>
<weight id="1775" MUR="1.0" MUF="1.0" PDF="260462" > PDF=260400 MemberID=62 </weight>
<weight id="1776" MUR="1.0" MUF="1.0" PDF="260463" > PDF=260400 MemberID=63 </weight>
<weight id="1777" MUR="1.0" MUF="1.0" PDF="260464" > PDF=260400 MemberID=64 </weight>
<weight id="1778" MUR="1.0" MUF="1.0" PDF="260465" > PDF=260400 MemberID=65 </weight>
<weight id="1779" MUR="1.0" MUF="1.0" PDF="260466" > PDF=260400 MemberID=66 </weight>
<weight id="1780" MUR="1.0" MUF="1.0" PDF="260467" > PDF=260400 MemberID=67 </weight>
<weight id="1781" MUR="1.0" MUF="1.0" PDF="260468" > PDF=260400 MemberID=68 </weight>
<weight id="1782" MUR="1.0" MUF="1.0" PDF="260469" > PDF=260400 MemberID=69 </weight>
<weight id="1783" MUR="1.0" MUF="1.0" PDF="260470" > PDF=260400 MemberID=70 </weight>
<weight id="1784" MUR="1.0" MUF="1.0" PDF="260471" > PDF=260400 MemberID=71 </weight>
<weight id="1785" MUR="1.0" MUF="1.0" PDF="260472" > PDF=260400 MemberID=72 </weight>
<weight id="1786" MUR="1.0" MUF="1.0" PDF="260473" > PDF=260400 MemberID=73 </weight>
<weight id="1787" MUR="1.0" MUF="1.0" PDF="260474" > PDF=260400 MemberID=74 </weight>
<weight id="1788" MUR="1.0" MUF="1.0" PDF="260475" > PDF=260400 MemberID=75 </weight>
<weight id="1789" MUR="1.0" MUF="1.0" PDF="260476" > PDF=260400 MemberID=76 </weight>
<weight id="1790" MUR="1.0" MUF="1.0" PDF="260477" > PDF=260400 MemberID=77 </weight>
<weight id="1791" MUR="1.0" MUF="1.0" PDF="260478" > PDF=260400 MemberID=78 </weight>
<weight id="1792" MUR="1.0" MUF="1.0" PDF="260479" > PDF=260400 MemberID=79 </weight>
<weight id="1793" MUR="1.0" MUF="1.0" PDF="260480" > PDF=260400 MemberID=80 </weight>
<weight id="1794" MUR="1.0" MUF="1.0" PDF="260481" > PDF=260400 MemberID=81 </weight>
<weight id="1795" MUR="1.0" MUF="1.0" PDF="260482" > PDF=260400 MemberID=82 </weight>
<weight id="1796" MUR="1.0" MUF="1.0" PDF="260483" > PDF=260400 MemberID=83 </weight>
<weight id="1797" MUR="1.0" MUF="1.0" PDF="260484" > PDF=260400 MemberID=84 </weight>
<weight id="1798" MUR="1.0" MUF="1.0" PDF="260485" > PDF=260400 MemberID=85 </weight>
<weight id="1799" MUR="1.0" MUF="1.0" PDF="260486" > PDF=260400 MemberID=86 </weight>
<weight id="1800" MUR="1.0" MUF="1.0" PDF="260487" > PDF=260400 MemberID=87 </weight>
<weight id="1801" MUR="1.0" MUF="1.0" PDF="260488" > PDF=260400 MemberID=88 </weight>
<weight id="1802" MUR="1.0" MUF="1.0" PDF="260489" > PDF=260400 MemberID=89 </weight>
<weight id="1803" MUR="1.0" MUF="1.0" PDF="260490" > PDF=260400 MemberID=90 </weight>
<weight id="1804" MUR="1.0" MUF="1.0" PDF="260491" > PDF=260400 MemberID=91 </weight>
<weight id="1805" MUR="1.0" MUF="1.0" PDF="260492" > PDF=260400 MemberID=92 </weight>
<weight id="1806" MUR="1.0" MUF="1.0" PDF="260493" > PDF=260400 MemberID=93 </weight>
<weight id="1807" MUR="1.0" MUF="1.0" PDF="260494" > PDF=260400 MemberID=94 </weight>
<weight id="1808" MUR="1.0" MUF="1.0" PDF="260495" > PDF=260400 MemberID=95 </weight>
<weight id="1809" MUR="1.0" MUF="1.0" PDF="260496" > PDF=260400 MemberID=96 </weight>
<weight id="1810" MUR="1.0" MUF="1.0" PDF="260497" > PDF=260400 MemberID=97 </weight>
<weight id="1811" MUR="1.0" MUF="1.0" PDF="260498" > PDF=260400 MemberID=98 </weight>
<weight id="1812" MUR="1.0" MUF="1.0" PDF="260499" > PDF=260400 MemberID=99 </weight>
<weight id="1813" MUR="1.0" MUF="1.0" PDF="260500" > PDF=260400 MemberID=100 </weight>
</weightgroup> # PDFSET -> PDF
<weight id="1814" MUR="1.0" MUF="1.0" PDF="262400" > PDF=262400 MemberID=0 </weight>
<weight id="1815" MUR="1.0" MUF="1.0" PDF="263400" > PDF=263400 MemberID=0 </weight>
<weightgroup name="NNPDF30_nlo_nf_4_pdfas" combine="replicas+as"> # 292000: NNPDF3.0 NLO global fit; mem=0 to mem=100 with alphas(MZ)=0.118, mem=0 ; average on replicas 1-100; mem=1-100 ; PDF replicas with  alphas(MZ)=0.118; mem=101 ; central value for alphas=0.117; mem=102 ; central value for alphas=0.119; maximum number of active flavors NF=4
<weight id="1816" MUR="1.0" MUF="1.0" PDF="292000" > PDF=292000 MemberID=0 </weight>
<weight id="1817" MUR="1.0" MUF="1.0" PDF="292001" > PDF=292000 MemberID=1 </weight>
<weight id="1818" MUR="1.0" MUF="1.0" PDF="292002" > PDF=292000 MemberID=2 </weight>
<weight id="1819" MUR="1.0" MUF="1.0" PDF="292003" > PDF=292000 MemberID=3 </weight>
<weight id="1820" MUR="1.0" MUF="1.0" PDF="292004" > PDF=292000 MemberID=4 </weight>
<weight id="1821" MUR="1.0" MUF="1.0" PDF="292005" > PDF=292000 MemberID=5 </weight>
<weight id="1822" MUR="1.0" MUF="1.0" PDF="292006" > PDF=292000 MemberID=6 </weight>
<weight id="1823" MUR="1.0" MUF="1.0" PDF="292007" > PDF=292000 MemberID=7 </weight>
<weight id="1824" MUR="1.0" MUF="1.0" PDF="292008" > PDF=292000 MemberID=8 </weight>
<weight id="1825" MUR="1.0" MUF="1.0" PDF="292009" > PDF=292000 MemberID=9 </weight>
<weight id="1826" MUR="1.0" MUF="1.0" PDF="292010" > PDF=292000 MemberID=10 </weight>
<weight id="1827" MUR="1.0" MUF="1.0" PDF="292011" > PDF=292000 MemberID=11 </weight>
<weight id="1828" MUR="1.0" MUF="1.0" PDF="292012" > PDF=292000 MemberID=12 </weight>
<weight id="1829" MUR="1.0" MUF="1.0" PDF="292013" > PDF=292000 MemberID=13 </weight>
<weight id="1830" MUR="1.0" MUF="1.0" PDF="292014" > PDF=292000 MemberID=14 </weight>
<weight id="1831" MUR="1.0" MUF="1.0" PDF="292015" > PDF=292000 MemberID=15 </weight>
<weight id="1832" MUR="1.0" MUF="1.0" PDF="292016" > PDF=292000 MemberID=16 </weight>
<weight id="1833" MUR="1.0" MUF="1.0" PDF="292017" > PDF=292000 MemberID=17 </weight>
<weight id="1834" MUR="1.0" MUF="1.0" PDF="292018" > PDF=292000 MemberID=18 </weight>
<weight id="1835" MUR="1.0" MUF="1.0" PDF="292019" > PDF=292000 MemberID=19 </weight>
<weight id="1836" MUR="1.0" MUF="1.0" PDF="292020" > PDF=292000 MemberID=20 </weight>
<weight id="1837" MUR="1.0" MUF="1.0" PDF="292021" > PDF=292000 MemberID=21 </weight>
<weight id="1838" MUR="1.0" MUF="1.0" PDF="292022" > PDF=292000 MemberID=22 </weight>
<weight id="1839" MUR="1.0" MUF="1.0" PDF="292023" > PDF=292000 MemberID=23 </weight>
<weight id="1840" MUR="1.0" MUF="1.0" PDF="292024" > PDF=292000 MemberID=24 </weight>
<weight id="1841" MUR="1.0" MUF="1.0" PDF="292025" > PDF=292000 MemberID=25 </weight>
<weight id="1842" MUR="1.0" MUF="1.0" PDF="292026" > PDF=292000 MemberID=26 </weight>
<weight id="1843" MUR="1.0" MUF="1.0" PDF="292027" > PDF=292000 MemberID=27 </weight>
<weight id="1844" MUR="1.0" MUF="1.0" PDF="292028" > PDF=292000 MemberID=28 </weight>
<weight id="1845" MUR="1.0" MUF="1.0" PDF="292029" > PDF=292000 MemberID=29 </weight>
<weight id="1846" MUR="1.0" MUF="1.0" PDF="292030" > PDF=292000 MemberID=30 </weight>
<weight id="1847" MUR="1.0" MUF="1.0" PDF="292031" > PDF=292000 MemberID=31 </weight>
<weight id="1848" MUR="1.0" MUF="1.0" PDF="292032" > PDF=292000 MemberID=32 </weight>
<weight id="1849" MUR="1.0" MUF="1.0" PDF="292033" > PDF=292000 MemberID=33 </weight>
<weight id="1850" MUR="1.0" MUF="1.0" PDF="292034" > PDF=292000 MemberID=34 </weight>
<weight id="1851" MUR="1.0" MUF="1.0" PDF="292035" > PDF=292000 MemberID=35 </weight>
<weight id="1852" MUR="1.0" MUF="1.0" PDF="292036" > PDF=292000 MemberID=36 </weight>
<weight id="1853" MUR="1.0" MUF="1.0" PDF="292037" > PDF=292000 MemberID=37 </weight>
<weight id="1854" MUR="1.0" MUF="1.0" PDF="292038" > PDF=292000 MemberID=38 </weight>
<weight id="1855" MUR="1.0" MUF="1.0" PDF="292039" > PDF=292000 MemberID=39 </weight>
<weight id="1856" MUR="1.0" MUF="1.0" PDF="292040" > PDF=292000 MemberID=40 </weight>
<weight id="1857" MUR="1.0" MUF="1.0" PDF="292041" > PDF=292000 MemberID=41 </weight>
<weight id="1858" MUR="1.0" MUF="1.0" PDF="292042" > PDF=292000 MemberID=42 </weight>
<weight id="1859" MUR="1.0" MUF="1.0" PDF="292043" > PDF=292000 MemberID=43 </weight>
<weight id="1860" MUR="1.0" MUF="1.0" PDF="292044" > PDF=292000 MemberID=44 </weight>
<weight id="1861" MUR="1.0" MUF="1.0" PDF="292045" > PDF=292000 MemberID=45 </weight>
<weight id="1862" MUR="1.0" MUF="1.0" PDF="292046" > PDF=292000 MemberID=46 </weight>
<weight id="1863" MUR="1.0" MUF="1.0" PDF="292047" > PDF=292000 MemberID=47 </weight>
<weight id="1864" MUR="1.0" MUF="1.0" PDF="292048" > PDF=292000 MemberID=48 </weight>
<weight id="1865" MUR="1.0" MUF="1.0" PDF="292049" > PDF=292000 MemberID=49 </weight>
<weight id="1866" MUR="1.0" MUF="1.0" PDF="292050" > PDF=292000 MemberID=50 </weight>
<weight id="1867" MUR="1.0" MUF="1.0" PDF="292051" > PDF=292000 MemberID=51 </weight>
<weight id="1868" MUR="1.0" MUF="1.0" PDF="292052" > PDF=292000 MemberID=52 </weight>
<weight id="1869" MUR="1.0" MUF="1.0" PDF="292053" > PDF=292000 MemberID=53 </weight>
<weight id="1870" MUR="1.0" MUF="1.0" PDF="292054" > PDF=292000 MemberID=54 </weight>
<weight id="1871" MUR="1.0" MUF="1.0" PDF="292055" > PDF=292000 MemberID=55 </weight>
<weight id="1872" MUR="1.0" MUF="1.0" PDF="292056" > PDF=292000 MemberID=56 </weight>
<weight id="1873" MUR="1.0" MUF="1.0" PDF="292057" > PDF=292000 MemberID=57 </weight>
<weight id="1874" MUR="1.0" MUF="1.0" PDF="292058" > PDF=292000 MemberID=58 </weight>
<weight id="1875" MUR="1.0" MUF="1.0" PDF="292059" > PDF=292000 MemberID=59 </weight>
<weight id="1876" MUR="1.0" MUF="1.0" PDF="292060" > PDF=292000 MemberID=60 </weight>
<weight id="1877" MUR="1.0" MUF="1.0" PDF="292061" > PDF=292000 MemberID=61 </weight>
<weight id="1878" MUR="1.0" MUF="1.0" PDF="292062" > PDF=292000 MemberID=62 </weight>
<weight id="1879" MUR="1.0" MUF="1.0" PDF="292063" > PDF=292000 MemberID=63 </weight>
<weight id="1880" MUR="1.0" MUF="1.0" PDF="292064" > PDF=292000 MemberID=64 </weight>
<weight id="1881" MUR="1.0" MUF="1.0" PDF="292065" > PDF=292000 MemberID=65 </weight>
<weight id="1882" MUR="1.0" MUF="1.0" PDF="292066" > PDF=292000 MemberID=66 </weight>
<weight id="1883" MUR="1.0" MUF="1.0" PDF="292067" > PDF=292000 MemberID=67 </weight>
<weight id="1884" MUR="1.0" MUF="1.0" PDF="292068" > PDF=292000 MemberID=68 </weight>
<weight id="1885" MUR="1.0" MUF="1.0" PDF="292069" > PDF=292000 MemberID=69 </weight>
<weight id="1886" MUR="1.0" MUF="1.0" PDF="292070" > PDF=292000 MemberID=70 </weight>
<weight id="1887" MUR="1.0" MUF="1.0" PDF="292071" > PDF=292000 MemberID=71 </weight>
<weight id="1888" MUR="1.0" MUF="1.0" PDF="292072" > PDF=292000 MemberID=72 </weight>
<weight id="1889" MUR="1.0" MUF="1.0" PDF="292073" > PDF=292000 MemberID=73 </weight>
<weight id="1890" MUR="1.0" MUF="1.0" PDF="292074" > PDF=292000 MemberID=74 </weight>
<weight id="1891" MUR="1.0" MUF="1.0" PDF="292075" > PDF=292000 MemberID=75 </weight>
<weight id="1892" MUR="1.0" MUF="1.0" PDF="292076" > PDF=292000 MemberID=76 </weight>
<weight id="1893" MUR="1.0" MUF="1.0" PDF="292077" > PDF=292000 MemberID=77 </weight>
<weight id="1894" MUR="1.0" MUF="1.0" PDF="292078" > PDF=292000 MemberID=78 </weight>
<weight id="1895" MUR="1.0" MUF="1.0" PDF="292079" > PDF=292000 MemberID=79 </weight>
<weight id="1896" MUR="1.0" MUF="1.0" PDF="292080" > PDF=292000 MemberID=80 </weight>
<weight id="1897" MUR="1.0" MUF="1.0" PDF="292081" > PDF=292000 MemberID=81 </weight>
<weight id="1898" MUR="1.0" MUF="1.0" PDF="292082" > PDF=292000 MemberID=82 </weight>
<weight id="1899" MUR="1.0" MUF="1.0" PDF="292083" > PDF=292000 MemberID=83 </weight>
<weight id="1900" MUR="1.0" MUF="1.0" PDF="292084" > PDF=292000 MemberID=84 </weight>
<weight id="1901" MUR="1.0" MUF="1.0" PDF="292085" > PDF=292000 MemberID=85 </weight>
<weight id="1902" MUR="1.0" MUF="1.0" PDF="292086" > PDF=292000 MemberID=86 </weight>
<weight id="1903" MUR="1.0" MUF="1.0" PDF="292087" > PDF=292000 MemberID=87 </weight>
<weight id="1904" MUR="1.0" MUF="1.0" PDF="292088" > PDF=292000 MemberID=88 </weight>
<weight id="1905" MUR="1.0" MUF="1.0" PDF="292089" > PDF=292000 MemberID=89 </weight>
<weight id="1906" MUR="1.0" MUF="1.0" PDF="292090" > PDF=292000 MemberID=90 </weight>
<weight id="1907" MUR="1.0" MUF="1.0" PDF="292091" > PDF=292000 MemberID=91 </weight>
<weight id="1908" MUR="1.0" MUF="1.0" PDF="292092" > PDF=292000 MemberID=92 </weight>
<weight id="1909" MUR="1.0" MUF="1.0" PDF="292093" > PDF=292000 MemberID=93 </weight>
<weight id="1910" MUR="1.0" MUF="1.0" PDF="292094" > PDF=292000 MemberID=94 </weight>
<weight id="1911" MUR="1.0" MUF="1.0" PDF="292095" > PDF=292000 MemberID=95 </weight>
<weight id="1912" MUR="1.0" MUF="1.0" PDF="292096" > PDF=292000 MemberID=96 </weight>
<weight id="1913" MUR="1.0" MUF="1.0" PDF="292097" > PDF=292000 MemberID=97 </weight>
<weight id="1914" MUR="1.0" MUF="1.0" PDF="292098" > PDF=292000 MemberID=98 </weight>
<weight id="1915" MUR="1.0" MUF="1.0" PDF="292099" > PDF=292000 MemberID=99 </weight>
<weight id="1916" MUR="1.0" MUF="1.0" PDF="292100" > PDF=292000 MemberID=100 </weight>
<weight id="1917" MUR="1.0" MUF="1.0" PDF="292101" > PDF=292000 MemberID=101 </weight>
<weight id="1918" MUR="1.0" MUF="1.0" PDF="292102" > PDF=292000 MemberID=102 </weight>
</weightgroup> # PDFSET -> PDF
<weight id="1919" MUR="1.0" MUF="1.0" PDF="292400" > PDF=292400 MemberID=0 </weight>
]]>
</initrwgt>
</header>
<init>
2212     2212  0.65000000000E+04  0.65000000000E+04 0 0  320900  320900  3   1
  0.14644565000E-09  0.18525836669E-11  0.15534000000E-11   1
<generator name='MadGraph5_aMC@NLO' version='#2.6.0'>please cite 1405.0301 </generator>
</init>
<event>
 9      1 +1.5538000e-12 2.51497800e+01 7.81860800e-03 1.50468300e-01
       21 -1    0    0  501  502 +0.0000000000e+00 +0.0000000000e+00 +1.9371985699e+00 1.9371985699e+00 0.0000000000e+00 0.0000e+00 -1.0000e+00
        2 -1    0    0  502    0 -0.0000000000e+00 -0.0000000000e+00 -3.7823885514e+02 3.7823885514e+02 0.0000000000e+00 0.0000e+00 -1.0000e+00
     1023  2    1    2    0    0 +3.5122246670e+00 +1.9878622499e+01 -3.0605143279e+02 3.0708303561e+02 1.5000529621e+01 0.0000e+00 0.0000e+00
  1000023  2    3    3    0    0 -3.2030694990e-01 +1.7423473481e+01 -2.0973326199e+02 2.1052783854e+02 5.4999625265e+00 0.0000e+00 0.0000e+00
        2  1    1    2  501    0 -3.5122246670e+00 -1.9878622499e+01 -7.0250223781e+01 7.3093018106e+01 0.0000000000e+00 0.0000e+00 -1.0000e+00
  1000022  1    4    4    0    0 -5.5628318965e-01 +1.5020866613e+01 -1.8168314320e+02 1.8237242228e+02 5.0000000000e+00 0.0000e+00 -1.0000e+00
      -13  1    4    4    0    0 +7.1985868949e-02 +1.5824256496e+00 -1.8870782657e+01 1.8937446066e+01 1.0570000000e-01 0.0000e+00 1.0000e+00
       13  1    4    4    0    0 +1.6399037080e-01 +8.2018121880e-01 -9.1793361339e+00 9.2179701899e+00 1.0570000000e-01 0.0000e+00 -1.0000e+00
  1000022  1    3    3    0    0 +3.8325316169e+00 +2.4551490177e+00 -9.6318170798e+01 9.6555197070e+01 5.0000000000e+00 0.0000e+00 -1.0000e+00
<mgrwt>
<rscale>  1 0.25149776E+02</rscale>
<asrwt>0</asrwt>
<pdfrwt beam="1">  1       21 0.29803023E-03 0.25149776E+02</pdfrwt>
<pdfrwt beam="2">  1        2 0.58190655E-01 0.25149776E+02</pdfrwt>
<totfact> 0.14704597E+07</totfact>
</mgrwt>
<rwgt>
<wgt id='1001'> +1.5538000e-12 </wgt>
<wgt id='1002'> +1.6532241e-12 </wgt>
<wgt id='1003'> +1.6637958e-12 </wgt>
<wgt id='1004'> +1.5289109e-12 </wgt>
<wgt id='1005'> +1.6889913e-12 </wgt>
<wgt id='1006'> +1.3527575e-12 </wgt>
<wgt id='1007'> +1.4593462e-12 </wgt>
<wgt id='1008'> +1.4710676e-12 </wgt>
<wgt id='1009'> +1.3267983e-12 </wgt>
<wgt id='1010'> +1.4994184e-12 </wgt>
<wgt id='1011'> +1.8286457e-12 </wgt>
<wgt id='1012'> +1.9092519e-12 </wgt>
<wgt id='1013'> +1.9172436e-12 </wgt>
<wgt id='1014'> +1.8075486e-12 </wgt>
<wgt id='1015'> +1.9358137e-12 </wgt>
<wgt id='1016'> +1.9286303e-12 </wgt>
<wgt id='1017'> +1.9680657e-12 </wgt>
<wgt id='1018'> +1.9716053e-12 </wgt>
<wgt id='1019'> +1.9172436e-12 </wgt>
<wgt id='1020'> +1.9791241e-12 </wgt>
<wgt id='1021'> +1.6790893e-12 </wgt>
<wgt id='1022'> +1.7372655e-12 </wgt>
<wgt id='1023'> +1.7432216e-12 </wgt>
<wgt id='1024'> +1.6637958e-12 </wgt>
<wgt id='1025'> +1.7569866e-12 </wgt>
<wgt id='1026'> +2.2697782e-12 </wgt>
<wgt id='1027'> +2.2728516e-12 </wgt>
<wgt id='1028'> +2.2719420e-12 </wgt>
<wgt id='1029'> +2.2666534e-12 </wgt>
<wgt id='1030'> +2.2683454e-12 </wgt>
<wgt id='1031'> +1.1499224e-12 </wgt>
<wgt id='1032'> +1.3089776e-12 </wgt>
<wgt id='1033'> +1.3267983e-12 </wgt>
<wgt id='1034'> +1.1111885e-12 </wgt>
<wgt id='1035'> +1.3699625e-12 </wgt>
<wgt id='1036'> +1.0011366e-12 </wgt>
<wgt id='1037'> +1.1554703e-12 </wgt>
<wgt id='1038'> +1.1731067e-12 </wgt>
<wgt id='1039'> +9.6429624e-13 </wgt>
<wgt id='1040'> +1.2161975e-12 </wgt>
<wgt id='1041'> +1.3533277e-12 </wgt>
<wgt id='1042'> +1.5116933e-12 </wgt>
<wgt id='1043'> +1.5289109e-12 </wgt>
<wgt id='1044'> +1.3136981e-12 </wgt>
<wgt id='1045'> +1.5701633e-12 </wgt>
<wgt id='1046'> +1.5538000e-12 </wgt>
<wgt id='1047'> +1.5719151e-12 </wgt>
<wgt id='1048'> +1.5957746e-12 </wgt>
<wgt id='1049'> +1.4921813e-12 </wgt>
<wgt id='1050'> +1.5298002e-12 </wgt>
<wgt id='1051'> +1.5152569e-12 </wgt>
<wgt id='1052'> +1.5292595e-12 </wgt>
<wgt id='1053'> +1.6240299e-12 </wgt>
<wgt id='1054'> +1.5795528e-12 </wgt>
<wgt id='1055'> +1.5215364e-12 </wgt>
<wgt id='1056'> +1.5157159e-12 </wgt>
<wgt id='1057'> +1.5420853e-12 </wgt>
<wgt id='1058'> +1.5054865e-12 </wgt>
<wgt id='1059'> +1.5644521e-12 </wgt>
<wgt id='1060'> +1.5717211e-12 </wgt>
<wgt id='1061'> +1.5790828e-12 </wgt>
<wgt id='1062'> +1.5535942e-12 </wgt>
<wgt id='1063'> +1.5045997e-12 </wgt>
<wgt id='1064'> +1.5437779e-12 </wgt>
<wgt id='1065'> +1.6073642e-12 </wgt>
<wgt id='1066'> +1.5520710e-12 </wgt>
<wgt id='1067'> +1.5882970e-12 </wgt>
<wgt id='1068'> +1.6017049e-12 </wgt>
<wgt id='1069'> +1.6108509e-12 </wgt>
<wgt id='1070'> +1.5479740e-12 </wgt>
<wgt id='1071'> +1.5435094e-12 </wgt>
<wgt id='1072'> +1.5677900e-12 </wgt>
<wgt id='1073'> +1.5562878e-12 </wgt>
<wgt id='1074'> +1.5513879e-12 </wgt>
<wgt id='1075'> +1.5538606e-12 </wgt>
<wgt id='1076'> +1.5569998e-12 </wgt>
<wgt id='1077'> +1.5745020e-12 </wgt>
<wgt id='1078'> +1.5072863e-12 </wgt>
<wgt id='1079'> +1.5480831e-12 </wgt>
<wgt id='1080'> +1.5405412e-12 </wgt>
<wgt id='1081'> +1.5201275e-12 </wgt>
<wgt id='1082'> +1.5415105e-12 </wgt>
<wgt id='1083'> +1.5229995e-12 </wgt>
<wgt id='1084'> +1.5310564e-12 </wgt>
<wgt id='1085'> +1.5879596e-12 </wgt>
<wgt id='1086'> +1.6086371e-12 </wgt>
<wgt id='1087'> +1.5295219e-12 </wgt>
<wgt id='1088'> +1.5614253e-12 </wgt>
<wgt id='1089'> +1.5311084e-12 </wgt>
<wgt id='1090'> +1.5618064e-12 </wgt>
<wgt id='1091'> +1.5606833e-12 </wgt>
<wgt id='1092'> +1.5621029e-12 </wgt>
<wgt id='1093'> +1.5803096e-12 </wgt>
<wgt id='1094'> +1.6099616e-12 </wgt>
<wgt id='1095'> +1.5967881e-12 </wgt>
<wgt id='1096'> +1.5309699e-12 </wgt>
<wgt id='1097'> +1.5653100e-12 </wgt>
<wgt id='1098'> +1.5782913e-12 </wgt>
<wgt id='1099'> +1.5364559e-12 </wgt>
<wgt id='1100'> +1.5925901e-12 </wgt>
<wgt id='1101'> +1.5624006e-12 </wgt>
<wgt id='1102'> +1.5341712e-12 </wgt>
<wgt id='1103'> +1.5413564e-12 </wgt>
<wgt id='1104'> +1.5549571e-12 </wgt>
<wgt id='1105'> +1.4891060e-12 </wgt>
<wgt id='1106'> +1.5484203e-12 </wgt>
<wgt id='1107'> +1.6190307e-12 </wgt>
<wgt id='1108'> +1.5480315e-12 </wgt>
<wgt id='1109'> +1.5502490e-12 </wgt>
<wgt id='1110'> +1.5362161e-12 </wgt>
<wgt id='1111'> +1.5532109e-12 </wgt>
<wgt id='1112'> +1.5309108e-12 </wgt>
<wgt id='1113'> +1.6336425e-12 </wgt>
<wgt id='1114'> +1.5881226e-12 </wgt>
<wgt id='1115'> +1.5959516e-12 </wgt>
<wgt id='1116'> +1.6376534e-12 </wgt>
<wgt id='1117'> +1.5392471e-12 </wgt>
<wgt id='1118'> +1.6260064e-12 </wgt>
<wgt id='1119'> +1.4785628e-12 </wgt>
<wgt id='1120'> +1.5313717e-12 </wgt>
<wgt id='1121'> +1.5162586e-12 </wgt>
<wgt id='1122'> +1.5377451e-12 </wgt>
<wgt id='1123'> +1.5899428e-12 </wgt>
<wgt id='1124'> +1.5739421e-12 </wgt>
<wgt id='1125'> +1.4952355e-12 </wgt>
<wgt id='1126'> +1.5504015e-12 </wgt>
<wgt id='1127'> +1.5630450e-12 </wgt>
<wgt id='1128'> +1.5535942e-12 </wgt>
<wgt id='1129'> +1.5421135e-12 </wgt>
<wgt id='1130'> +1.5313993e-12 </wgt>
<wgt id='1131'> +1.5643990e-12 </wgt>
<wgt id='1132'> +1.5943232e-12 </wgt>
<wgt id='1133'> +1.5100819e-12 </wgt>
<wgt id='1134'> +1.5370418e-12 </wgt>
<wgt id='1135'> +1.4919488e-12 </wgt>
<wgt id='1136'> +1.5041721e-12 </wgt>
<wgt id='1137'> +1.5563918e-12 </wgt>
<wgt id='1138'> +1.5264486e-12 </wgt>
<wgt id='1139'> +1.5447433e-12 </wgt>
<wgt id='1140'> +1.5755859e-12 </wgt>
<wgt id='1141'> +1.5476011e-12 </wgt>
<wgt id='1142'> +1.5747169e-12 </wgt>
<wgt id='1143'> +1.5068974e-12 </wgt>
<wgt id='1144'> +1.5324181e-12 </wgt>
<wgt id='1145'> +1.5545460e-12 </wgt>
<wgt id='1146'> +1.5507455e-12 </wgt>
<wgt id='1147'> +1.3769269e-12 </wgt>
<wgt id='1148'> +1.4070597e-12 </wgt>
<wgt id='1149'> +1.3227175e-12 </wgt>
<wgt id='1150'> +1.3805621e-12 </wgt>
<wgt id='1151'> +1.6665541e-12 </wgt>
<wgt id='1152'> +2.2297818e-12 </wgt>
<wgt id='1153'> +2.2265564e-12 </wgt>
<wgt id='1154'> +2.2316164e-12 </wgt>
<wgt id='1155'> +2.2243171e-12 </wgt>
<wgt id='1156'> +2.2325968e-12 </wgt>
<wgt id='1157'> +2.2334990e-12 </wgt>
<wgt id='1158'> +2.2247241e-12 </wgt>
<wgt id='1159'> +2.2330366e-12 </wgt>
<wgt id='1160'> +2.2277067e-12 </wgt>
<wgt id='1161'> +2.2259313e-12 </wgt>
<wgt id='1162'> +2.2324479e-12 </wgt>
<wgt id='1163'> +2.2305086e-12 </wgt>
<wgt id='1164'> +2.2290800e-12 </wgt>
<wgt id='1165'> +2.2275144e-12 </wgt>
<wgt id='1166'> +2.2318393e-12 </wgt>
<wgt id='1167'> +2.2542893e-12 </wgt>
<wgt id='1168'> +2.1999060e-12 </wgt>
<wgt id='1169'> +2.2367917e-12 </wgt>
<wgt id='1170'> +2.2245921e-12 </wgt>
<wgt id='1171'> +2.2199199e-12 </wgt>
<wgt id='1172'> +2.2423962e-12 </wgt>
<wgt id='1173'> +2.2061443e-12 </wgt>
<wgt id='1174'> +2.2539538e-12 </wgt>
<wgt id='1175'> +2.2362091e-12 </wgt>
<wgt id='1176'> +2.2240422e-12 </wgt>
<wgt id='1177'> +2.2240071e-12 </wgt>
<wgt id='1178'> +2.2452971e-12 </wgt>
<wgt id='1179'> +2.2262763e-12 </wgt>
<wgt id='1180'> +2.2266086e-12 </wgt>
<wgt id='1181'> +2.2374338e-12 </wgt>
<wgt id='1182'> +2.2206688e-12 </wgt>
<wgt id='1183'> +2.2186428e-12 </wgt>
<wgt id='1184'> +2.2305879e-12 </wgt>
<wgt id='1185'> +2.2255094e-12 </wgt>
<wgt id='1186'> +2.2325536e-12 </wgt>
<wgt id='1187'> +2.2324123e-12 </wgt>
<wgt id='1188'> +2.2288792e-12 </wgt>
<wgt id='1189'> +2.2236001e-12 </wgt>
<wgt id='1190'> +2.2062029e-12 </wgt>
<wgt id='1191'> +2.2330432e-12 </wgt>
<wgt id='1192'> +2.2361961e-12 </wgt>
<wgt id='1193'> +1.3709859e-12 </wgt>
<wgt id='1194'> +1.3552260e-12 </wgt>
<wgt id='1195'> +1.3839101e-12 </wgt>
<wgt id='1196'> +1.3725693e-12 </wgt>
<wgt id='1197'> +1.3692556e-12 </wgt>
<wgt id='1198'> +1.3704953e-12 </wgt>
<wgt id='1199'> +1.3717757e-12 </wgt>
<wgt id='1200'> +1.3682004e-12 </wgt>
<wgt id='1201'> +1.3729103e-12 </wgt>
<wgt id='1202'> +1.3696596e-12 </wgt>
<wgt id='1203'> +1.3728915e-12 </wgt>
<wgt id='1204'> +1.3630639e-12 </wgt>
<wgt id='1205'> +1.3757080e-12 </wgt>
<wgt id='1206'> +1.3740703e-12 </wgt>
<wgt id='1207'> +1.3667654e-12 </wgt>
<wgt id='1208'> +1.3740907e-12 </wgt>
<wgt id='1209'> +1.3699261e-12 </wgt>
<wgt id='1210'> +1.3698917e-12 </wgt>
<wgt id='1211'> +1.3685208e-12 </wgt>
<wgt id='1212'> +1.3716142e-12 </wgt>
<wgt id='1213'> +1.3708088e-12 </wgt>
<wgt id='1214'> +1.3579202e-12 </wgt>
<wgt id='1215'> +1.3881378e-12 </wgt>
<wgt id='1216'> +1.3731796e-12 </wgt>
<wgt id='1217'> +1.3691980e-12 </wgt>
<wgt id='1218'> +1.3766882e-12 </wgt>
<wgt id='1219'> +1.3678801e-12 </wgt>
<wgt id='1220'> +1.3797204e-12 </wgt>
<wgt id='1221'> +1.3688143e-12 </wgt>
<wgt id='1222'> +1.3917169e-12 </wgt>
<wgt id='1223'> +1.3405960e-12 </wgt>
<wgt id='1224'> +1.3751352e-12 </wgt>
<wgt id='1225'> +1.3693001e-12 </wgt>
<wgt id='1226'> +1.3687780e-12 </wgt>
<wgt id='1227'> +1.3728078e-12 </wgt>
<wgt id='1228'> +1.3593580e-12 </wgt>
<wgt id='1229'> +1.3756625e-12 </wgt>
<wgt id='1230'> +1.3725569e-12 </wgt>
<wgt id='1231'> +1.3801917e-12 </wgt>
<wgt id='1232'> +1.3698809e-12 </wgt>
<wgt id='1233'> +1.3712304e-12 </wgt>
<wgt id='1234'> +1.3709859e-12 </wgt>
<wgt id='1235'> +1.3634703e-12 </wgt>
<wgt id='1236'> +1.3663364e-12 </wgt>
<wgt id='1237'> +1.3689934e-12 </wgt>
<wgt id='1238'> +1.3732103e-12 </wgt>
<wgt id='1239'> +1.3749682e-12 </wgt>
<wgt id='1240'> +1.3766881e-12 </wgt>
<wgt id='1241'> +1.3012761e-12 </wgt>
<wgt id='1242'> +1.2848635e-12 </wgt>
<wgt id='1243'> +1.3174756e-12 </wgt>
<wgt id='1244'> +1.3026528e-12 </wgt>
<wgt id='1245'> +1.3001768e-12 </wgt>
<wgt id='1246'> +1.2976199e-12 </wgt>
<wgt id='1247'> +1.3043750e-12 </wgt>
<wgt id='1248'> +1.3012384e-12 </wgt>
<wgt id='1249'> +1.3012962e-12 </wgt>
<wgt id='1250'> +1.3022745e-12 </wgt>
<wgt id='1251'> +1.3005741e-12 </wgt>
<wgt id='1252'> +1.2992118e-12 </wgt>
<wgt id='1253'> +1.3028411e-12 </wgt>
<wgt id='1254'> +1.2959258e-12 </wgt>
<wgt id='1255'> +1.3043637e-12 </wgt>
<wgt id='1256'> +1.3003923e-12 </wgt>
<wgt id='1257'> +1.3034227e-12 </wgt>
<wgt id='1258'> +1.3110531e-12 </wgt>
<wgt id='1259'> +1.2902668e-12 </wgt>
<wgt id='1260'> +1.3031984e-12 </wgt>
<wgt id='1261'> +1.2994528e-12 </wgt>
<wgt id='1262'> +1.2986127e-12 </wgt>
<wgt id='1263'> +1.3026332e-12 </wgt>
<wgt id='1264'> +1.3091386e-12 </wgt>
<wgt id='1265'> +1.2976828e-12 </wgt>
<wgt id='1266'> +1.2809964e-12 </wgt>
<wgt id='1267'> +1.3200168e-12 </wgt>
<wgt id='1268'> +1.3086624e-12 </wgt>
<wgt id='1269'> +1.2952427e-12 </wgt>
<wgt id='1270'> +1.3060915e-12 </wgt>
<wgt id='1271'> +1.3045501e-12 </wgt>
<wgt id='1272'> +1.3037245e-12 </wgt>
<wgt id='1273'> +1.3012403e-12 </wgt>
<wgt id='1274'> +1.3029401e-12 </wgt>
<wgt id='1275'> +1.2990302e-12 </wgt>
<wgt id='1276'> +1.3087737e-12 </wgt>
<wgt id='1277'> +1.2905999e-12 </wgt>
<wgt id='1278'> +1.3131566e-12 </wgt>
<wgt id='1279'> +1.3067697e-12 </wgt>
<wgt id='1280'> +1.3020833e-12 </wgt>
<wgt id='1281'> +1.3015000e-12 </wgt>
<wgt id='1282'> +1.3012761e-12 </wgt>
<wgt id='1283'> +1.2943010e-12 </wgt>
<wgt id='1284'> +1.2971811e-12 </wgt>
<wgt id='1285'> +1.2994318e-12 </wgt>
<wgt id='1286'> +1.3032026e-12 </wgt>
<wgt id='1287'> +1.3045423e-12 </wgt>
<wgt id='1288'> +1.3055950e-12 </wgt>
<wgt id='1289'> +1.4143492e-12 </wgt>
<wgt id='1290'> +1.4164449e-12 </wgt>
<wgt id='1291'> +1.4120651e-12 </wgt>
<wgt id='1292'> +1.4149016e-12 </wgt>
<wgt id='1293'> +1.4139691e-12 </wgt>
<wgt id='1294'> +1.3970147e-12 </wgt>
<wgt id='1295'> +1.4311015e-12 </wgt>
<wgt id='1296'> +1.4176656e-12 </wgt>
<wgt id='1297'> +1.4100937e-12 </wgt>
<wgt id='1298'> +1.4218099e-12 </wgt>
<wgt id='1299'> +1.4049715e-12 </wgt>
<wgt id='1300'> +1.4176767e-12 </wgt>
<wgt id='1301'> +1.4076661e-12 </wgt>
<wgt id='1302'> +1.4103674e-12 </wgt>
<wgt id='1303'> +1.4198681e-12 </wgt>
<wgt id='1304'> +1.4128083e-12 </wgt>
<wgt id='1305'> +1.4153863e-12 </wgt>
<wgt id='1306'> +1.4134895e-12 </wgt>
<wgt id='1307'> +1.4151599e-12 </wgt>
<wgt id='1308'> +1.4060210e-12 </wgt>
<wgt id='1309'> +1.4207224e-12 </wgt>
<wgt id='1310'> +1.4122170e-12 </wgt>
<wgt id='1311'> +1.4168129e-12 </wgt>
<wgt id='1312'> +1.4214026e-12 </wgt>
<wgt id='1313'> +1.4077111e-12 </wgt>
<wgt id='1314'> +1.3934232e-12 </wgt>
<wgt id='1315'> +1.4327587e-12 </wgt>
<wgt id='1316'> +1.4239271e-12 </wgt>
<wgt id='1317'> +1.4141580e-12 </wgt>
<wgt id='1318'> +1.4246280e-12 </wgt>
<wgt id='1319'> +1.4010253e-12 </wgt>
<wgt id='1320'> +1.4274755e-12 </wgt>
<wgt id='1321'> +1.4025402e-12 </wgt>
<wgt id='1322'> +1.4135051e-12 </wgt>
<wgt id='1323'> +1.4159004e-12 </wgt>
<wgt id='1324'> +1.4100700e-12 </wgt>
<wgt id='1325'> +1.4287972e-12 </wgt>
<wgt id='1326'> +1.4134558e-12 </wgt>
<wgt id='1327'> +1.4180270e-12 </wgt>
<wgt id='1328'> +1.4141194e-12 </wgt>
<wgt id='1329'> +1.4141911e-12 </wgt>
<wgt id='1330'> +1.4228208e-12 </wgt>
<wgt id='1331'> +1.4089471e-12 </wgt>
<wgt id='1332'> +1.4281373e-12 </wgt>
<wgt id='1333'> +1.4171671e-12 </wgt>
<wgt id='1334'> +1.4124887e-12 </wgt>
<wgt id='1335'> +1.4205854e-12 </wgt>
<wgt id='1336'> +1.4168469e-12 </wgt>
<wgt id='1337'> +1.4222751e-12 </wgt>
<wgt id='1338'> +1.4126654e-12 </wgt>
<wgt id='1339'> +1.4150902e-12 </wgt>
<wgt id='1340'> +1.3821340e-12 </wgt>
<wgt id='1341'> +1.3840119e-12 </wgt>
<wgt id='1342'> +1.3800618e-12 </wgt>
<wgt id='1343'> +1.3827218e-12 </wgt>
<wgt id='1344'> +1.3816971e-12 </wgt>
<wgt id='1345'> +1.3642575e-12 </wgt>
<wgt id='1346'> +1.3987260e-12 </wgt>
<wgt id='1347'> +1.3862934e-12 </wgt>
<wgt id='1348'> +1.3773349e-12 </wgt>
<wgt id='1349'> +1.3890669e-12 </wgt>
<wgt id='1350'> +1.3752702e-12 </wgt>
<wgt id='1351'> +1.3852482e-12 </wgt>
<wgt id='1352'> +1.3752819e-12 </wgt>
<wgt id='1353'> +1.3771927e-12 </wgt>
<wgt id='1354'> +1.3909607e-12 </wgt>
<wgt id='1355'> +1.3814505e-12 </wgt>
<wgt id='1356'> +1.3824576e-12 </wgt>
<wgt id='1357'> +1.3797248e-12 </wgt>
<wgt id='1358'> +1.3847194e-12 </wgt>
<wgt id='1359'> +1.3742839e-12 </wgt>
<wgt id='1360'> +1.3888844e-12 </wgt>
<wgt id='1361'> +1.3809866e-12 </wgt>
<wgt id='1362'> +1.3838294e-12 </wgt>
<wgt id='1363'> +1.3955775e-12 </wgt>
<wgt id='1364'> +1.3738327e-12 </wgt>
<wgt id='1365'> +1.3924113e-12 </wgt>
<wgt id='1366'> +1.3630990e-12 </wgt>
<wgt id='1367'> +1.3915788e-12 </wgt>
<wgt id='1368'> +1.3808905e-12 </wgt>
<wgt id='1369'> +1.3907863e-12 </wgt>
<wgt id='1370'> +1.3712145e-12 </wgt>
<wgt id='1371'> +1.3931512e-12 </wgt>
<wgt id='1372'> +1.3686153e-12 </wgt>
<wgt id='1373'> +1.3782298e-12 </wgt>
<wgt id='1374'> +1.3862059e-12 </wgt>
<wgt id='1375'> +1.3779845e-12 </wgt>
<wgt id='1376'> +1.3967497e-12 </wgt>
<wgt id='1377'> +1.3808869e-12 </wgt>
<wgt id='1378'> +1.3862432e-12 </wgt>
<wgt id='1379'> +1.3820274e-12 </wgt>
<wgt id='1380'> +1.3817405e-12 </wgt>
<wgt id='1381'> +1.3908417e-12 </wgt>
<wgt id='1382'> +1.3765932e-12 </wgt>
<wgt id='1383'> +1.3939683e-12 </wgt>
<wgt id='1384'> +1.3864507e-12 </wgt>
<wgt id='1385'> +1.3805784e-12 </wgt>
<wgt id='1386'> +1.3869797e-12 </wgt>
<wgt id='1387'> +1.3840943e-12 </wgt>
<wgt id='1388'> +1.3899277e-12 </wgt>
<wgt id='1389'> +1.3801359e-12 </wgt>
<wgt id='1390'> +1.3832795e-12 </wgt>
<wgt id='1391'> +1.3688769e-12 </wgt>
<wgt id='1392'> +1.3232272e-12 </wgt>
<wgt id='1393'> +1.3388016e-12 </wgt>
<wgt id='1394'> +1.3544240e-12 </wgt>
<wgt id='1395'> +1.3850663e-12 </wgt>
<wgt id='1396'> +1.3697754e-12 </wgt>
<wgt id='1397'> +1.3431308e-12 </wgt>
<wgt id='1398'> +1.3474927e-12 </wgt>
<wgt id='1399'> +1.3519759e-12 </wgt>
<wgt id='1400'> +1.3573256e-12 </wgt>
<wgt id='1401'> +1.3635141e-12 </wgt>
<wgt id='1402'> +1.3759465e-12 </wgt>
<wgt id='1403'> +1.3825791e-12 </wgt>
<wgt id='1404'> +1.3893205e-12 </wgt>
<wgt id='1405'> +1.3697754e-12 </wgt>
<wgt id='1406'> +1.3652844e-12 </wgt>
<wgt id='1407'> +1.3676278e-12 </wgt>
<wgt id='1408'> +1.3717437e-12 </wgt>
<wgt id='1409'> +1.3734204e-12 </wgt>
<wgt id='1410'> +1.2857903e-12 </wgt>
<wgt id='1411'> +1.2908473e-12 </wgt>
<wgt id='1412'> +1.2792726e-12 </wgt>
<wgt id='1413'> +1.2772932e-12 </wgt>
<wgt id='1414'> +1.2942689e-12 </wgt>
<wgt id='1415'> +1.2825463e-12 </wgt>
<wgt id='1416'> +1.2871154e-12 </wgt>
<wgt id='1417'> +1.2794511e-12 </wgt>
<wgt id='1418'> +1.2920730e-12 </wgt>
<wgt id='1419'> +1.2878418e-12 </wgt>
<wgt id='1420'> +1.2837851e-12 </wgt>
<wgt id='1421'> +1.2713060e-12 </wgt>
<wgt id='1422'> +1.2919535e-12 </wgt>
<wgt id='1423'> +1.2845063e-12 </wgt>
<wgt id='1424'> +1.2873652e-12 </wgt>
<wgt id='1425'> +1.2777864e-12 </wgt>
<wgt id='1426'> +1.2944122e-12 </wgt>
<wgt id='1427'> +1.2646538e-12 </wgt>
<wgt id='1428'> +1.2971986e-12 </wgt>
<wgt id='1429'> +1.2892400e-12 </wgt>
<wgt id='1430'> +1.2812338e-12 </wgt>
<wgt id='1431'> +1.2869207e-12 </wgt>
<wgt id='1432'> +1.2849278e-12 </wgt>
<wgt id='1433'> +1.2723349e-12 </wgt>
<wgt id='1434'> +1.2958661e-12 </wgt>
<wgt id='1435'> +1.2782757e-12 </wgt>
<wgt id='1436'> +1.3048342e-12 </wgt>
<wgt id='1437'> +1.2945386e-12 </wgt>
<wgt id='1438'> +1.2873790e-12 </wgt>
<wgt id='1439'> +1.2800634e-12 </wgt>
<wgt id='1440'> +1.2946077e-12 </wgt>
<wgt id='1441'> +1.2891162e-12 </wgt>
<wgt id='1442'> +1.2798600e-12 </wgt>
<wgt id='1443'> +1.2826225e-12 </wgt>
<wgt id='1444'> +1.2954099e-12 </wgt>
<wgt id='1445'> +1.3045390e-12 </wgt>
<wgt id='1446'> +1.2798418e-12 </wgt>
<wgt id='1447'> +1.2863836e-12 </wgt>
<wgt id='1448'> +1.2899493e-12 </wgt>
<wgt id='1449'> +1.2862852e-12 </wgt>
<wgt id='1450'> +1.2848220e-12 </wgt>
<wgt id='1451'> +1.2838093e-12 </wgt>
<wgt id='1452'> +1.2944540e-12 </wgt>
<wgt id='1453'> +1.2861697e-12 </wgt>
<wgt id='1454'> +1.2814678e-12 </wgt>
<wgt id='1455'> +1.2957846e-12 </wgt>
<wgt id='1456'> +1.2932622e-12 </wgt>
<wgt id='1457'> +1.2923304e-12 </wgt>
<wgt id='1458'> +1.2846605e-12 </wgt>
<wgt id='1459'> +1.2918018e-12 </wgt>
<wgt id='1460'> +1.2953140e-12 </wgt>
<wgt id='1461'> +1.2857903e-12 </wgt>
<wgt id='1462'> +1.2747100e-12 </wgt>
<wgt id='1463'> +1.2923050e-12 </wgt>
<wgt id='1464'> +1.2832158e-12 </wgt>
<wgt id='1465'> +1.2537370e-12 </wgt>
<wgt id='1466'> +1.2588631e-12 </wgt>
<wgt id='1467'> +1.2645272e-12 </wgt>
<wgt id='1468'> +1.2720844e-12 </wgt>
<wgt id='1469'> +1.2770881e-12 </wgt>
<wgt id='1470'> +1.2895713e-12 </wgt>
<wgt id='1471'> +1.2953941e-12 </wgt>
<wgt id='1472'> +1.3015368e-12 </wgt>
<wgt id='1473'> +1.2832158e-12 </wgt>
<wgt id='1474'> +1.2795262e-12 </wgt>
<wgt id='1475'> +1.2818654e-12 </wgt>
<wgt id='1476'> +1.2845008e-12 </wgt>
<wgt id='1477'> +1.2856898e-12 </wgt>
<wgt id='1478'> +1.3340014e-12 </wgt>
<wgt id='1479'> +1.3334335e-12 </wgt>
<wgt id='1480'> +1.3185728e-12 </wgt>
<wgt id='1481'> +1.3560178e-12 </wgt>
<wgt id='1482'> +1.3346971e-12 </wgt>
<wgt id='1483'> +1.3181197e-12 </wgt>
<wgt id='1484'> +1.3272612e-12 </wgt>
<wgt id='1485'> +1.3388108e-12 </wgt>
<wgt id='1486'> +1.3339225e-12 </wgt>
<wgt id='1487'> +1.3430130e-12 </wgt>
<wgt id='1488'> +1.3310991e-12 </wgt>
<wgt id='1489'> +1.3360204e-12 </wgt>
<wgt id='1490'> +1.3294523e-12 </wgt>
<wgt id='1491'> +1.3395493e-12 </wgt>
<wgt id='1492'> +1.3360988e-12 </wgt>
<wgt id='1493'> +1.3134681e-12 </wgt>
<wgt id='1494'> +1.3313861e-12 </wgt>
<wgt id='1495'> +1.3169835e-12 </wgt>
<wgt id='1496'> +1.3341151e-12 </wgt>
<wgt id='1497'> +1.3353864e-12 </wgt>
<wgt id='1498'> +1.3339339e-12 </wgt>
<wgt id='1499'> +1.3365754e-12 </wgt>
<wgt id='1500'> +1.3333065e-12 </wgt>
<wgt id='1501'> +1.3344806e-12 </wgt>
<wgt id='1502'> +1.3350769e-12 </wgt>
<wgt id='1503'> +1.3389783e-12 </wgt>
<wgt id='1504'> +1.3308772e-12 </wgt>
<wgt id='1505'> +1.3360113e-12 </wgt>
<wgt id='1506'> +1.3348665e-12 </wgt>
<wgt id='1507'> +1.3338373e-12 </wgt>
<wgt id='1508'> +1.3382566e-12 </wgt>
<wgt id='1509'> +1.2976929e-12 </wgt>
<wgt id='1510'> +1.3018489e-12 </wgt>
<wgt id='1511'> +1.2807499e-12 </wgt>
<wgt id='1512'> +1.2844746e-12 </wgt>
<wgt id='1513'> +1.2977757e-12 </wgt>
<wgt id='1514'> +1.3045170e-12 </wgt>
<wgt id='1515'> +1.3010763e-12 </wgt>
<wgt id='1516'> +1.3035040e-12 </wgt>
<wgt id='1517'> +1.2985653e-12 </wgt>
<wgt id='1518'> +1.2983743e-12 </wgt>
<wgt id='1519'> +1.2965904e-12 </wgt>
<wgt id='1520'> +1.2970673e-12 </wgt>
<wgt id='1521'> +1.2984766e-12 </wgt>
<wgt id='1522'> +1.2991329e-12 </wgt>
<wgt id='1523'> +1.3008898e-12 </wgt>
<wgt id='1524'> +1.2973159e-12 </wgt>
<wgt id='1525'> +1.2993310e-12 </wgt>
<wgt id='1526'> +1.2975177e-12 </wgt>
<wgt id='1527'> +1.2966359e-12 </wgt>
<wgt id='1528'> +1.2985193e-12 </wgt>
<wgt id='1529'> +1.2971365e-12 </wgt>
<wgt id='1530'> +1.3005193e-12 </wgt>
<wgt id='1531'> +1.2994218e-12 </wgt>
<wgt id='1532'> +1.2929809e-12 </wgt>
<wgt id='1533'> +1.2978470e-12 </wgt>
<wgt id='1534'> +1.2981755e-12 </wgt>
<wgt id='1535'> +1.2913499e-12 </wgt>
<wgt id='1536'> +1.2990258e-12 </wgt>
<wgt id='1537'> +1.2984806e-12 </wgt>
<wgt id='1538'> +1.2898920e-12 </wgt>
<wgt id='1539'> +1.3017940e-12 </wgt>
<wgt id='1540'> +1.2979690e-12 </wgt>
<wgt id='1541'> +1.2955169e-12 </wgt>
<wgt id='1542'> +1.2958697e-12 </wgt>
<wgt id='1543'> +1.2982023e-12 </wgt>
<wgt id='1544'> +1.2978803e-12 </wgt>
<wgt id='1545'> +1.2958720e-12 </wgt>
<wgt id='1546'> +1.2950752e-12 </wgt>
<wgt id='1547'> +1.2970195e-12 </wgt>
<wgt id='1548'> +1.2982738e-12 </wgt>
<wgt id='1549'> +1.2960463e-12 </wgt>
<wgt id='1550'> +1.2980385e-12 </wgt>
<wgt id='1551'> +1.2991430e-12 </wgt>
<wgt id='1552'> +1.2990482e-12 </wgt>
<wgt id='1553'> +1.2972831e-12 </wgt>
<wgt id='1554'> +1.2966194e-12 </wgt>
<wgt id='1555'> +1.2990974e-12 </wgt>
<wgt id='1556'> +1.3006206e-12 </wgt>
<wgt id='1557'> +1.2971532e-12 </wgt>
<wgt id='1558'> +1.2958836e-12 </wgt>
<wgt id='1559'> +1.2943742e-12 </wgt>
<wgt id='1560'> +1.2975474e-12 </wgt>
<wgt id='1561'> +1.2965958e-12 </wgt>
<wgt id='1562'> +1.2979092e-12 </wgt>
<wgt id='1563'> +1.2973503e-12 </wgt>
<wgt id='1564'> +1.2974934e-12 </wgt>
<wgt id='1565'> +1.2983009e-12 </wgt>
<wgt id='1566'> +1.2983575e-12 </wgt>
<wgt id='1567'> +1.2994170e-12 </wgt>
<wgt id='1568'> +1.2963287e-12 </wgt>
<wgt id='1569'> +1.2993354e-12 </wgt>
<wgt id='1570'> +1.2983648e-12 </wgt>
<wgt id='1571'> +1.2976044e-12 </wgt>
<wgt id='1572'> +1.2980532e-12 </wgt>
<wgt id='1573'> +1.2984708e-12 </wgt>
<wgt id='1574'> +1.2984961e-12 </wgt>
<wgt id='1575'> +1.2963040e-12 </wgt>
<wgt id='1576'> +1.2978123e-12 </wgt>
<wgt id='1577'> +1.2978384e-12 </wgt>
<wgt id='1578'> +1.2992630e-12 </wgt>
<wgt id='1579'> +1.2965275e-12 </wgt>
<wgt id='1580'> +1.2970533e-12 </wgt>
<wgt id='1581'> +1.2976766e-12 </wgt>
<wgt id='1582'> +1.3000409e-12 </wgt>
<wgt id='1583'> +1.2972564e-12 </wgt>
<wgt id='1584'> +1.2991098e-12 </wgt>
<wgt id='1585'> +1.2984307e-12 </wgt>
<wgt id='1586'> +1.2971813e-12 </wgt>
<wgt id='1587'> +1.2974151e-12 </wgt>
<wgt id='1588'> +1.2975026e-12 </wgt>
<wgt id='1589'> +1.2978437e-12 </wgt>
<wgt id='1590'> +1.2981485e-12 </wgt>
<wgt id='1591'> +1.2981448e-12 </wgt>
<wgt id='1592'> +1.2975247e-12 </wgt>
<wgt id='1593'> +1.2984335e-12 </wgt>
<wgt id='1594'> +1.2977172e-12 </wgt>
<wgt id='1595'> +1.2982934e-12 </wgt>
<wgt id='1596'> +1.2970372e-12 </wgt>
<wgt id='1597'> +1.2989230e-12 </wgt>
<wgt id='1598'> +1.2968455e-12 </wgt>
<wgt id='1599'> +1.2962243e-12 </wgt>
<wgt id='1600'> +1.2966727e-12 </wgt>
<wgt id='1601'> +1.2977397e-12 </wgt>
<wgt id='1602'> +1.2984864e-12 </wgt>
<wgt id='1603'> +1.2974740e-12 </wgt>
<wgt id='1604'> +1.2979056e-12 </wgt>
<wgt id='1605'> +1.2976479e-12 </wgt>
<wgt id='1606'> +1.2976429e-12 </wgt>
<wgt id='1607'> +1.2969287e-12 </wgt>
<wgt id='1608'> +1.2978102e-12 </wgt>
<wgt id='1609'> +1.2981674e-12 </wgt>
<wgt id='1610'> +1.2857223e-12 </wgt>
<wgt id='1611'> +1.3096995e-12 </wgt>
<wgt id='1612'> +1.5371957e-12 </wgt>
<wgt id='1613'> +1.5024881e-12 </wgt>
<wgt id='1614'> +1.4833502e-12 </wgt>
<wgt id='1615'> +1.5286637e-12 </wgt>
<wgt id='1616'> +1.4877421e-12 </wgt>
<wgt id='1617'> +1.5251458e-12 </wgt>
<wgt id='1618'> +1.5652569e-12 </wgt>
<wgt id='1619'> +1.5290438e-12 </wgt>
<wgt id='1620'> +1.4978966e-12 </wgt>
<wgt id='1621'> +1.5599821e-12 </wgt>
<wgt id='1622'> +1.5418490e-12 </wgt>
<wgt id='1623'> +1.5220966e-12 </wgt>
<wgt id='1624'> +1.5710081e-12 </wgt>
<wgt id='1625'> +1.4901455e-12 </wgt>
<wgt id='1626'> +1.5048972e-12 </wgt>
<wgt id='1627'> +1.5609197e-12 </wgt>
<wgt id='1628'> +1.4967756e-12 </wgt>
<wgt id='1629'> +1.5682619e-12 </wgt>
<wgt id='1630'> +1.4872474e-12 </wgt>
<wgt id='1631'> +1.5226987e-12 </wgt>
<wgt id='1632'> +1.4691387e-12 </wgt>
<wgt id='1633'> +1.4851654e-12 </wgt>
<wgt id='1634'> +1.5272609e-12 </wgt>
<wgt id='1635'> +1.5733015e-12 </wgt>
<wgt id='1636'> +1.5662118e-12 </wgt>
<wgt id='1637'> +1.5684049e-12 </wgt>
<wgt id='1638'> +1.5563622e-12 </wgt>
<wgt id='1639'> +1.5029549e-12 </wgt>
<wgt id='1640'> +1.5418409e-12 </wgt>
<wgt id='1641'> +1.5340360e-12 </wgt>
<wgt id='1642'> +1.4912014e-12 </wgt>
<wgt id='1643'> +1.5044283e-12 </wgt>
<wgt id='1644'> +1.5606318e-12 </wgt>
<wgt id='1645'> +1.5217597e-12 </wgt>
<wgt id='1646'> +1.5265886e-12 </wgt>
<wgt id='1647'> +1.5491870e-12 </wgt>
<wgt id='1648'> +1.5535252e-12 </wgt>
<wgt id='1649'> +1.6296627e-12 </wgt>
<wgt id='1650'> +1.5233973e-12 </wgt>
<wgt id='1651'> +1.5518201e-12 </wgt>
<wgt id='1652'> +1.4963918e-12 </wgt>
<wgt id='1653'> +1.5629660e-12 </wgt>
<wgt id='1654'> +1.5486901e-12 </wgt>
<wgt id='1655'> +1.5791893e-12 </wgt>
<wgt id='1656'> +1.5330914e-12 </wgt>
<wgt id='1657'> +1.5458592e-12 </wgt>
<wgt id='1658'> +1.5062065e-12 </wgt>
<wgt id='1659'> +1.5710081e-12 </wgt>
<wgt id='1660'> +1.5683539e-12 </wgt>
<wgt id='1661'> +1.5517356e-12 </wgt>
<wgt id='1662'> +1.6034283e-12 </wgt>
<wgt id='1663'> +1.5191101e-12 </wgt>
<wgt id='1664'> +1.5242157e-12 </wgt>
<wgt id='1665'> +1.4700152e-12 </wgt>
<wgt id='1666'> +1.5577292e-12 </wgt>
<wgt id='1667'> +1.5234831e-12 </wgt>
<wgt id='1668'> +1.5756136e-12 </wgt>
<wgt id='1669'> +1.5573799e-12 </wgt>
<wgt id='1670'> +1.5252710e-12 </wgt>
<wgt id='1671'> +1.5229516e-12 </wgt>
<wgt id='1672'> +1.5670749e-12 </wgt>
<wgt id='1673'> +1.5284822e-12 </wgt>
<wgt id='1674'> +1.4842414e-12 </wgt>
<wgt id='1675'> +1.5313362e-12 </wgt>
<wgt id='1676'> +1.5241659e-12 </wgt>
<wgt id='1677'> +1.5458166e-12 </wgt>
<wgt id='1678'> +1.5122791e-12 </wgt>
<wgt id='1679'> +1.5300045e-12 </wgt>
<wgt id='1680'> +1.5896754e-12 </wgt>
<wgt id='1681'> +1.5672435e-12 </wgt>
<wgt id='1682'> +1.5234833e-12 </wgt>
<wgt id='1683'> +1.5170369e-12 </wgt>
<wgt id='1684'> +1.5767690e-12 </wgt>
<wgt id='1685'> +1.5307949e-12 </wgt>
<wgt id='1686'> +1.5238974e-12 </wgt>
<wgt id='1687'> +1.5544440e-12 </wgt>
<wgt id='1688'> +1.5326487e-12 </wgt>
<wgt id='1689'> +1.6002421e-12 </wgt>
<wgt id='1690'> +1.5273997e-12 </wgt>
<wgt id='1691'> +1.5002858e-12 </wgt>
<wgt id='1692'> +1.5852937e-12 </wgt>
<wgt id='1693'> +1.5231047e-12 </wgt>
<wgt id='1694'> +1.5332872e-12 </wgt>
<wgt id='1695'> +1.5592679e-12 </wgt>
<wgt id='1696'> +1.5248573e-12 </wgt>
<wgt id='1697'> +1.5291979e-12 </wgt>
<wgt id='1698'> +1.5535090e-12 </wgt>
<wgt id='1699'> +1.5452869e-12 </wgt>
<wgt id='1700'> +1.5154214e-12 </wgt>
<wgt id='1701'> +1.6027681e-12 </wgt>
<wgt id='1702'> +1.4939526e-12 </wgt>
<wgt id='1703'> +1.5165945e-12 </wgt>
<wgt id='1704'> +1.5241676e-12 </wgt>
<wgt id='1705'> +1.4614130e-12 </wgt>
<wgt id='1706'> +1.5855050e-12 </wgt>
<wgt id='1707'> +1.5521552e-12 </wgt>
<wgt id='1708'> +1.5949404e-12 </wgt>
<wgt id='1709'> +1.5906370e-12 </wgt>
<wgt id='1710'> +1.5212456e-12 </wgt>
<wgt id='1711'> +1.5366972e-12 </wgt>
<wgt id='1712'> +1.5758734e-12 </wgt>
<wgt id='1713'> +1.2902032e-12 </wgt>
<wgt id='1714'> +1.2817311e-12 </wgt>
<wgt id='1715'> +1.2572879e-12 </wgt>
<wgt id='1716'> +1.3247054e-12 </wgt>
<wgt id='1717'> +1.3001571e-12 </wgt>
<wgt id='1718'> +1.3099063e-12 </wgt>
<wgt id='1719'> +1.3048941e-12 </wgt>
<wgt id='1720'> +1.2527473e-12 </wgt>
<wgt id='1721'> +1.2654432e-12 </wgt>
<wgt id='1722'> +1.2814748e-12 </wgt>
<wgt id='1723'> +1.3347958e-12 </wgt>
<wgt id='1724'> +1.3028555e-12 </wgt>
<wgt id='1725'> +1.2901234e-12 </wgt>
<wgt id='1726'> +1.2859088e-12 </wgt>
<wgt id='1727'> +1.3446536e-12 </wgt>
<wgt id='1728'> +1.2779477e-12 </wgt>
<wgt id='1729'> +1.2318596e-12 </wgt>
<wgt id='1730'> +1.2798527e-12 </wgt>
<wgt id='1731'> +1.2208126e-12 </wgt>
<wgt id='1732'> +1.3011226e-12 </wgt>
<wgt id='1733'> +1.2209092e-12 </wgt>
<wgt id='1734'> +1.3610175e-12 </wgt>
<wgt id='1735'> +1.2677782e-12 </wgt>
<wgt id='1736'> +1.3105033e-12 </wgt>
<wgt id='1737'> +1.3410190e-12 </wgt>
<wgt id='1738'> +1.2812144e-12 </wgt>
<wgt id='1739'> +1.2922644e-12 </wgt>
<wgt id='1740'> +1.2101999e-12 </wgt>
<wgt id='1741'> +1.3450157e-12 </wgt>
<wgt id='1742'> +1.2722366e-12 </wgt>
<wgt id='1743'> +1.2545177e-12 </wgt>
<wgt id='1744'> +1.3114919e-12 </wgt>
<wgt id='1745'> +1.3120879e-12 </wgt>
<wgt id='1746'> +1.2707459e-12 </wgt>
<wgt id='1747'> +1.3427761e-12 </wgt>
<wgt id='1748'> +1.2707937e-12 </wgt>
<wgt id='1749'> +1.2725339e-12 </wgt>
<wgt id='1750'> +1.2663718e-12 </wgt>
<wgt id='1751'> +1.2605339e-12 </wgt>
<wgt id='1752'> +1.2807164e-12 </wgt>
<wgt id='1753'> +1.3045149e-12 </wgt>
<wgt id='1754'> +1.3173952e-12 </wgt>
<wgt id='1755'> +1.2968760e-12 </wgt>
<wgt id='1756'> +1.3108806e-12 </wgt>
<wgt id='1757'> +1.3074790e-12 </wgt>
<wgt id='1758'> +1.3511896e-12 </wgt>
<wgt id='1759'> +1.3099473e-12 </wgt>
<wgt id='1760'> +1.2832500e-12 </wgt>
<wgt id='1761'> +1.2958688e-12 </wgt>
<wgt id='1762'> +1.2583648e-12 </wgt>
<wgt id='1763'> +1.3131843e-12 </wgt>
<wgt id='1764'> +1.3258280e-12 </wgt>
<wgt id='1765'> +1.2668661e-12 </wgt>
<wgt id='1766'> +1.3256503e-12 </wgt>
<wgt id='1767'> +1.2994696e-12 </wgt>
<wgt id='1768'> +1.3099951e-12 </wgt>
<wgt id='1769'> +1.3100010e-12 </wgt>
<wgt id='1770'> +1.2691421e-12 </wgt>
<wgt id='1771'> +1.3433271e-12 </wgt>
<wgt id='1772'> +1.2874016e-12 </wgt>
<wgt id='1773'> +1.2887393e-12 </wgt>
<wgt id='1774'> +1.2651192e-12 </wgt>
<wgt id='1775'> +1.2888271e-12 </wgt>
<wgt id='1776'> +1.3478106e-12 </wgt>
<wgt id='1777'> +1.2361396e-12 </wgt>
<wgt id='1778'> +1.2936064e-12 </wgt>
<wgt id='1779'> +1.2802551e-12 </wgt>
<wgt id='1780'> +1.2863181e-12 </wgt>
<wgt id='1781'> +1.3164043e-12 </wgt>
<wgt id='1782'> +1.2766282e-12 </wgt>
<wgt id='1783'> +1.3005887e-12 </wgt>
<wgt id='1784'> +1.2824867e-12 </wgt>
<wgt id='1785'> +1.2942092e-12 </wgt>
<wgt id='1786'> +1.2886605e-12 </wgt>
<wgt id='1787'> +1.3689248e-12 </wgt>
<wgt id='1788'> +1.2866248e-12 </wgt>
<wgt id='1789'> +1.3615031e-12 </wgt>
<wgt id='1790'> +1.2992301e-12 </wgt>
<wgt id='1791'> +1.2715131e-12 </wgt>
<wgt id='1792'> +1.2609686e-12 </wgt>
<wgt id='1793'> +1.2731857e-12 </wgt>
<wgt id='1794'> +1.3312606e-12 </wgt>
<wgt id='1795'> +1.2999296e-12 </wgt>
<wgt id='1796'> +1.2616685e-12 </wgt>
<wgt id='1797'> +1.3003451e-12 </wgt>
<wgt id='1798'> +1.2835770e-12 </wgt>
<wgt id='1799'> +1.2868868e-12 </wgt>
<wgt id='1800'> +1.3067560e-12 </wgt>
<wgt id='1801'> +1.2869484e-12 </wgt>
<wgt id='1802'> +1.2648308e-12 </wgt>
<wgt id='1803'> +1.3147717e-12 </wgt>
<wgt id='1804'> +1.2957674e-12 </wgt>
<wgt id='1805'> +1.2480802e-12 </wgt>
<wgt id='1806'> +1.2614866e-12 </wgt>
<wgt id='1807'> +1.2786174e-12 </wgt>
<wgt id='1808'> +1.2620085e-12 </wgt>
<wgt id='1809'> +1.2757958e-12 </wgt>
<wgt id='1810'> +1.2677409e-12 </wgt>
<wgt id='1811'> +1.2888079e-12 </wgt>
<wgt id='1812'> +1.2610642e-12 </wgt>
<wgt id='1813'> +1.2074183e-12 </wgt>
<wgt id='1814'> +1.6508558e-12 </wgt>
<wgt id='1815'> +1.9999007e-12 </wgt>
<wgt id='1816'> +1.2902032e-12 </wgt>
<wgt id='1817'> +1.2817311e-12 </wgt>
<wgt id='1818'> +1.2572879e-12 </wgt>
<wgt id='1819'> +1.3247054e-12 </wgt>
<wgt id='1820'> +1.3001571e-12 </wgt>
<wgt id='1821'> +1.3099063e-12 </wgt>
<wgt id='1822'> +1.3048941e-12 </wgt>
<wgt id='1823'> +1.2527473e-12 </wgt>
<wgt id='1824'> +1.2654432e-12 </wgt>
<wgt id='1825'> +1.2814748e-12 </wgt>
<wgt id='1826'> +1.3347958e-12 </wgt>
<wgt id='1827'> +1.3028555e-12 </wgt>
<wgt id='1828'> +1.2901234e-12 </wgt>
<wgt id='1829'> +1.2859088e-12 </wgt>
<wgt id='1830'> +1.3446536e-12 </wgt>
<wgt id='1831'> +1.2779477e-12 </wgt>
<wgt id='1832'> +1.2318596e-12 </wgt>
<wgt id='1833'> +1.2798527e-12 </wgt>
<wgt id='1834'> +1.2208126e-12 </wgt>
<wgt id='1835'> +1.3011226e-12 </wgt>
<wgt id='1836'> +1.2209092e-12 </wgt>
<wgt id='1837'> +1.3610175e-12 </wgt>
<wgt id='1838'> +1.2677782e-12 </wgt>
<wgt id='1839'> +1.3105033e-12 </wgt>
<wgt id='1840'> +1.3410190e-12 </wgt>
<wgt id='1841'> +1.2812144e-12 </wgt>
<wgt id='1842'> +1.2922644e-12 </wgt>
<wgt id='1843'> +1.2101999e-12 </wgt>
<wgt id='1844'> +1.3450157e-12 </wgt>
<wgt id='1845'> +1.2722366e-12 </wgt>
<wgt id='1846'> +1.2545177e-12 </wgt>
<wgt id='1847'> +1.3114919e-12 </wgt>
<wgt id='1848'> +1.3120879e-12 </wgt>
<wgt id='1849'> +1.2707459e-12 </wgt>
<wgt id='1850'> +1.3427761e-12 </wgt>
<wgt id='1851'> +1.2707937e-12 </wgt>
<wgt id='1852'> +1.2725339e-12 </wgt>
<wgt id='1853'> +1.2663718e-12 </wgt>
<wgt id='1854'> +1.2605339e-12 </wgt>
<wgt id='1855'> +1.2807164e-12 </wgt>
<wgt id='1856'> +1.3045149e-12 </wgt>
<wgt id='1857'> +1.3173952e-12 </wgt>
<wgt id='1858'> +1.2968760e-12 </wgt>
<wgt id='1859'> +1.3108806e-12 </wgt>
<wgt id='1860'> +1.3074790e-12 </wgt>
<wgt id='1861'> +1.3511896e-12 </wgt>
<wgt id='1862'> +1.3099473e-12 </wgt>
<wgt id='1863'> +1.2832500e-12 </wgt>
<wgt id='1864'> +1.2958688e-12 </wgt>
<wgt id='1865'> +1.2583648e-12 </wgt>
<wgt id='1866'> +1.3131843e-12 </wgt>
<wgt id='1867'> +1.3258280e-12 </wgt>
<wgt id='1868'> +1.2668661e-12 </wgt>
<wgt id='1869'> +1.3256503e-12 </wgt>
<wgt id='1870'> +1.2994696e-12 </wgt>
<wgt id='1871'> +1.3099951e-12 </wgt>
<wgt id='1872'> +1.3100010e-12 </wgt>
<wgt id='1873'> +1.2691421e-12 </wgt>
<wgt id='1874'> +1.3433271e-12 </wgt>
<wgt id='1875'> +1.2874016e-12 </wgt>
<wgt id='1876'> +1.2887393e-12 </wgt>
<wgt id='1877'> +1.2651192e-12 </wgt>
<wgt id='1878'> +1.2888271e-12 </wgt>
<wgt id='1879'> +1.3478106e-12 </wgt>
<wgt id='1880'> +1.2361396e-12 </wgt>
<wgt id='1881'> +1.2936064e-12 </wgt>
<wgt id='1882'> +1.2802551e-12 </wgt>
<wgt id='1883'> +1.2863181e-12 </wgt>
<wgt id='1884'> +1.3164043e-12 </wgt>
<wgt id='1885'> +1.2766282e-12 </wgt>
<wgt id='1886'> +1.3005887e-12 </wgt>
<wgt id='1887'> +1.2824867e-12 </wgt>
<wgt id='1888'> +1.2942092e-12 </wgt>
<wgt id='1889'> +1.2886605e-12 </wgt>
<wgt id='1890'> +1.3689248e-12 </wgt>
<wgt id='1891'> +1.2866248e-12 </wgt>
<wgt id='1892'> +1.3615031e-12 </wgt>
<wgt id='1893'> +1.2992301e-12 </wgt>
<wgt id='1894'> +1.2715131e-12 </wgt>
<wgt id='1895'> +1.2609686e-12 </wgt>
<wgt id='1896'> +1.2731857e-12 </wgt>
<wgt id='1897'> +1.3312606e-12 </wgt>
<wgt id='1898'> +1.2999296e-12 </wgt>
<wgt id='1899'> +1.2616685e-12 </wgt>
<wgt id='1900'> +1.3003451e-12 </wgt>
<wgt id='1901'> +1.2835770e-12 </wgt>
<wgt id='1902'> +1.2868868e-12 </wgt>
<wgt id='1903'> +1.3067560e-12 </wgt>
<wgt id='1904'> +1.2869484e-12 </wgt>
<wgt id='1905'> +1.2648308e-12 </wgt>
<wgt id='1906'> +1.3147717e-12 </wgt>
<wgt id='1907'> +1.2957674e-12 </wgt>
<wgt id='1908'> +1.2480802e-12 </wgt>
<wgt id='1909'> +1.2614866e-12 </wgt>
<wgt id='1910'> +1.2786174e-12 </wgt>
<wgt id='1911'> +1.2620085e-12 </wgt>
<wgt id='1912'> +1.2757958e-12 </wgt>
<wgt id='1913'> +1.2677409e-12 </wgt>
<wgt id='1914'> +1.2888079e-12 </wgt>
<wgt id='1915'> +1.2610642e-12 </wgt>
<wgt id='1916'> +1.2074183e-12 </wgt>
<wgt id='1917'> +1.2817386e-12 </wgt>
<wgt id='1918'> +1.3046516e-12 </wgt>
<wgt id='1919'> +1.2533308e-12 </wgt>
</rwgt>
</event>
<event>
 9      1 +1.5538000e-12 2.99670200e+01 7.81860800e-03 1.44999700e-01
        4 -1    0    0  502    0 +0.0000000000e+00 +0.0000000000e+00 -3.4540133193e-01 1.4614041467e+00 1.4200000000e+00 0.0000e+00 -1.0000e+00
       -4 -1    0    0    0  501 -0.0000000000e+00 -0.0000000000e+00 -1.6778325867e+03 1.6778331876e+03 1.4200000000e+00 0.0000e+00 1.0000e+00
     1023  2    1    2    0    0 +1.3766555795e+01 -2.1989266008e+01 -1.2309918372e+03 1.2313565387e+03 1.4999207827e+01 0.0000e+00 0.0000e+00
  1000023  2    3    3    0    0 +4.6544311807e+00 -2.4266682204e+00 -2.5483694583e+02 2.5495032302e+02 5.4996181433e+00 0.0000e+00 0.0000e+00
       21  1    1    2  502  501 -1.3766555795e+01 +2.1989266008e+01 -4.4718615078e+02 4.4793805300e+02 0.0000000000e+00 0.0000e+00 -1.0000e+00
  1000022  1    4    4    0    0 +4.2326735414e+00 -1.9961873589e+00 -2.2036070493e+02 2.2046709633e+02 5.0000000000e+00 0.0000e+00 1.0000e+00
      -13  1    4    4    0    0 +4.3349931653e-02 -2.2050154557e-01 -1.2785472552e+01 1.2787884149e+01 1.0570000000e-01 0.0000e+00 1.0000e+00
       13  1    4    4    0    0 +3.7840770761e-01 -2.0997931592e-01 -2.1690768351e+01 2.1695342539e+01 1.0570000000e-01 0.0000e+00 -1.0000e+00
  1000022  1    3    3    0    0 +9.1121246145e+00 -1.9562597788e+01 -9.7615489140e+02 9.7640621570e+02 5.0000000000e+00 0.0000e+00 1.0000e+00
<mgrwt>
<rscale>  1 0.29967017E+02</rscale>
<asrwt>0</asrwt>
<pdfrwt beam="1">  1        4 0.85893937E-04 0.29967017E+02</pdfrwt>
<pdfrwt beam="2">  1       -4 0.25826308E+00 0.29967017E+02</pdfrwt>
<totfact> 0.73342875E+03</totfact>
</mgrwt>
<rwgt>
<wgt id='1001'> +1.5538000e-12 </wgt>
<wgt id='1002'> +1.6495707e-12 </wgt>
<wgt id='1003'> +1.6563053e-12 </wgt>
<wgt id='1004'> +1.5388265e-12 </wgt>
<wgt id='1005'> +1.6683180e-12 </wgt>
<wgt id='1006'> +1.3595585e-12 </wgt>
<wgt id='1007'> +1.4636606e-12 </wgt>
<wgt id='1008'> +1.4712698e-12 </wgt>
<wgt id='1009'> +1.3436717e-12 </wgt>
<wgt id='1010'> +1.4849484e-12 </wgt>
<wgt id='1011'> +1.8159969e-12 </wgt>
<wgt id='1012'> +1.8919432e-12 </wgt>
<wgt id='1013'> +1.8968670e-12 </wgt>
<wgt id='1014'> +1.8036666e-12 </wgt>
<wgt id='1015'> +1.9055553e-12 </wgt>
<wgt id='1016'> +1.9036796e-12 </wgt>
<wgt id='1017'> +1.9403149e-12 </wgt>
<wgt id='1018'> +1.9423902e-12 </wgt>
<wgt id='1019'> +1.8968670e-12 </wgt>
<wgt id='1020'> +1.9455049e-12 </wgt>
<wgt id='1021'> +1.6656995e-12 </wgt>
<wgt id='1022'> +1.7216373e-12 </wgt>
<wgt id='1023'> +1.7253944e-12 </wgt>
<wgt id='1024'> +1.6563053e-12 </wgt>
<wgt id='1025'> +1.7316690e-12 </wgt>
<wgt id='1026'> +2.2249172e-12 </wgt>
<wgt id='1027'> +2.2254066e-12 </wgt>
<wgt id='1028'> +2.2245027e-12 </wgt>
<wgt id='1029'> +2.2233277e-12 </wgt>
<wgt id='1030'> +2.2221587e-12 </wgt>
<wgt id='1031'> +1.1737626e-12 </wgt>
<wgt id='1032'> +1.3321042e-12 </wgt>
<wgt id='1033'> +1.3436717e-12 </wgt>
<wgt id='1034'> +1.1493057e-12 </wgt>
<wgt id='1035'> +1.3640143e-12 </wgt>
<wgt id='1036'> +1.0270298e-12 </wgt>
<wgt id='1037'> +1.1819733e-12 </wgt>
<wgt id='1038'> +1.1935623e-12 </wgt>
<wgt id='1039'> +1.0035501e-12 </wgt>
<wgt id='1040'> +1.2140916e-12 </wgt>
<wgt id='1041'> +1.3718298e-12 </wgt>
<wgt id='1042'> +1.5278311e-12 </wgt>
<wgt id='1043'> +1.5388265e-12 </wgt>
<wgt id='1044'> +1.3471072e-12 </wgt>
<wgt id='1045'> +1.5579792e-12 </wgt>
<wgt id='1046'> +1.5538000e-12 </wgt>
<wgt id='1047'> +2.1569997e-12 </wgt>
<wgt id='1048'> +1.5859383e-12 </wgt>
<wgt id='1049'> +2.4957788e-12 </wgt>
<wgt id='1050'> +2.1670681e-12 </wgt>
<wgt id='1051'> +1.2109518e-12 </wgt>
<wgt id='1052'> +2.1094722e-12 </wgt>
<wgt id='1053'> +1.1588809e-12 </wgt>
<wgt id='1054'> +1.0226559e-12 </wgt>
<wgt id='1055'> +1.3145679e-12 </wgt>
<wgt id='1056'> +4.1110771e-12 </wgt>
<wgt id='1057'> +2.6461451e-12 </wgt>
<wgt id='1058'> +7.6284820e-13 </wgt>
<wgt id='1059'> +2.3931035e-12 </wgt>
<wgt id='1060'> +8.7875566e-13 </wgt>
<wgt id='1061'> +1.2845365e-12 </wgt>
<wgt id='1062'> +1.5537471e-12 </wgt>
<wgt id='1063'> +1.2105282e-12 </wgt>
<wgt id='1064'> +1.1075551e-12 </wgt>
<wgt id='1065'> +1.0226822e-12 </wgt>
<wgt id='1066'> +1.4029074e-12 </wgt>
<wgt id='1067'> +5.9791274e-13 </wgt>
<wgt id='1068'> +5.2940046e-13 </wgt>
<wgt id='1069'> +1.2558035e-12 </wgt>
<wgt id='1070'> +1.2445463e-12 </wgt>
<wgt id='1071'> -1.6169378e-13 </wgt>
<wgt id='1072'> +9.8261537e-13 </wgt>
<wgt id='1073'> +3.8684213e-12 </wgt>
<wgt id='1074'> +1.2538117e-12 </wgt>
<wgt id='1075'> +1.7768044e-12 </wgt>
<wgt id='1076'> +2.9373047e-12 </wgt>
<wgt id='1077'> +2.2334714e-12 </wgt>
<wgt id='1078'> +1.4054743e-12 </wgt>
<wgt id='1079'> +1.4948824e-12 </wgt>
<wgt id='1080'> +1.4509724e-12 </wgt>
<wgt id='1081'> +2.5402837e-12 </wgt>
<wgt id='1082'> +4.4995022e-13 </wgt>
<wgt id='1083'> +9.8116727e-13 </wgt>
<wgt id='1084'> +2.4670078e-12 </wgt>
<wgt id='1085'> +2.0157832e-12 </wgt>
<wgt id='1086'> +1.8491297e-12 </wgt>
<wgt id='1087'> +1.2041645e-12 </wgt>
<wgt id='1088'> +1.3771079e-12 </wgt>
<wgt id='1089'> +2.0772749e-12 </wgt>
<wgt id='1090'> +1.2311818e-12 </wgt>
<wgt id='1091'> +1.4698197e-12 </wgt>
<wgt id='1092'> +1.1703947e-12 </wgt>
<wgt id='1093'> +2.3649790e-12 </wgt>
<wgt id='1094'> +1.5755278e-12 </wgt>
<wgt id='1095'> +1.5270698e-12 </wgt>
<wgt id='1096'> +1.6919275e-12 </wgt>
<wgt id='1097'> +1.5188352e-12 </wgt>
<wgt id='1098'> +7.1978997e-13 </wgt>
<wgt id='1099'> +1.7770026e-12 </wgt>
<wgt id='1100'> +2.2881851e-13 </wgt>
<wgt id='1101'> +1.2035656e-12 </wgt>
<wgt id='1102'> +1.5718823e-12 </wgt>
<wgt id='1103'> +3.6345900e-13 </wgt>
<wgt id='1104'> +3.9930263e-13 </wgt>
<wgt id='1105'> +1.0427540e-12 </wgt>
<wgt id='1106'> +4.3370269e-13 </wgt>
<wgt id='1107'> +2.4679036e-12 </wgt>
<wgt id='1108'> +1.0013843e-12 </wgt>
<wgt id='1109'> +2.6560242e-12 </wgt>
<wgt id='1110'> +1.0866622e-12 </wgt>
<wgt id='1111'> +8.1576668e-13 </wgt>
<wgt id='1112'> +1.6836160e-12 </wgt>
<wgt id='1113'> +1.4853027e-12 </wgt>
<wgt id='1114'> +2.3129170e-12 </wgt>
<wgt id='1115'> +2.2794247e-12 </wgt>
<wgt id='1116'> +2.4642784e-12 </wgt>
<wgt id='1117'> +7.7272550e-13 </wgt>
<wgt id='1118'> +3.4239181e-12 </wgt>
<wgt id='1119'> +1.5845186e-12 </wgt>
<wgt id='1120'> +2.1060170e-12 </wgt>
<wgt id='1121'> +1.5294847e-12 </wgt>
<wgt id='1122'> +1.4649496e-12 </wgt>
<wgt id='1123'> +2.4959432e-12 </wgt>
<wgt id='1124'> +5.0807902e-13 </wgt>
<wgt id='1125'> +1.5818411e-12 </wgt>
<wgt id='1126'> +3.7710830e-12 </wgt>
<wgt id='1127'> +1.8146255e-12 </wgt>
<wgt id='1128'> +1.5537471e-12 </wgt>
<wgt id='1129'> +2.3187961e-12 </wgt>
<wgt id='1130'> +1.4679875e-12 </wgt>
<wgt id='1131'> +1.1042350e-12 </wgt>
<wgt id='1132'> +2.6419534e-12 </wgt>
<wgt id='1133'> +6.5868162e-13 </wgt>
<wgt id='1134'> +2.8200383e-12 </wgt>
<wgt id='1135'> +2.3506867e-12 </wgt>
<wgt id='1136'> +1.1348747e-12 </wgt>
<wgt id='1137'> +2.5779866e-13 </wgt>
<wgt id='1138'> +8.8073658e-13 </wgt>
<wgt id='1139'> +1.0054542e-12 </wgt>
<wgt id='1140'> +1.6717243e-12 </wgt>
<wgt id='1141'> +1.4899464e-12 </wgt>
<wgt id='1142'> +2.3151160e-13 </wgt>
<wgt id='1143'> +1.7362969e-12 </wgt>
<wgt id='1144'> +1.7648124e-12 </wgt>
<wgt id='1145'> +1.0480915e-12 </wgt>
<wgt id='1146'> +6.7054239e-13 </wgt>
<wgt id='1147'> +8.8478522e-13 </wgt>
<wgt id='1148'> +9.1449623e-13 </wgt>
<wgt id='1149'> +1.1541464e-12 </wgt>
<wgt id='1150'> +8.8451061e-13 </wgt>
<wgt id='1151'> +1.1954610e-12 </wgt>
<wgt id='1152'> +1.9532126e-12 </wgt>
<wgt id='1153'> +1.9410595e-12 </wgt>
<wgt id='1154'> +1.9602420e-12 </wgt>
<wgt id='1155'> +1.9546561e-12 </wgt>
<wgt id='1156'> +1.9524676e-12 </wgt>
<wgt id='1157'> +1.9445544e-12 </wgt>
<wgt id='1158'> +1.9648394e-12 </wgt>
<wgt id='1159'> +1.9458025e-12 </wgt>
<wgt id='1160'> +1.9579224e-12 </wgt>
<wgt id='1161'> +1.9377415e-12 </wgt>
<wgt id='1162'> +1.9638108e-12 </wgt>
<wgt id='1163'> +1.9642594e-12 </wgt>
<wgt id='1164'> +1.9421562e-12 </wgt>
<wgt id='1165'> +1.9385277e-12 </wgt>
<wgt id='1166'> +1.9675542e-12 </wgt>
<wgt id='1167'> +1.9304507e-12 </wgt>
<wgt id='1168'> +1.9797749e-12 </wgt>
<wgt id='1169'> +1.9421906e-12 </wgt>
<wgt id='1170'> +1.9619774e-12 </wgt>
<wgt id='1171'> +1.9802333e-12 </wgt>
<wgt id='1172'> +1.9199520e-12 </wgt>
<wgt id='1173'> +2.0318528e-12 </wgt>
<wgt id='1174'> +1.8726503e-12 </wgt>
<wgt id='1175'> +1.9510473e-12 </wgt>
<wgt id='1176'> +1.9538574e-12 </wgt>
<wgt id='1177'> +1.9560547e-12 </wgt>
<wgt id='1178'> +1.9470138e-12 </wgt>
<wgt id='1179'> +1.8670896e-12 </wgt>
<wgt id='1180'> +2.0302424e-12 </wgt>
<wgt id='1181'> +1.9810670e-12 </wgt>
<wgt id='1182'> +1.9293363e-12 </wgt>
<wgt id='1183'> +1.9609865e-12 </wgt>
<wgt id='1184'> +1.9525370e-12 </wgt>
<wgt id='1185'> +1.9737940e-12 </wgt>
<wgt id='1186'> +1.9435509e-12 </wgt>
<wgt id='1187'> +1.9528554e-12 </wgt>
<wgt id='1188'> +1.9532631e-12 </wgt>
<wgt id='1189'> +1.9567381e-12 </wgt>
<wgt id='1190'> +1.9042962e-12 </wgt>
<wgt id='1191'> +1.9948168e-12 </wgt>
<wgt id='1192'> +1.9394244e-12 </wgt>
<wgt id='1193'> +9.0880797e-13 </wgt>
<wgt id='1194'> +8.8898596e-13 </wgt>
<wgt id='1195'> +9.2494852e-13 </wgt>
<wgt id='1196'> +9.0697806e-13 </wgt>
<wgt id='1197'> +9.1084752e-13 </wgt>
<wgt id='1198'> +9.1117112e-13 </wgt>
<wgt id='1199'> +9.0535684e-13 </wgt>
<wgt id='1200'> +9.0934734e-13 </wgt>
<wgt id='1201'> +9.0842384e-13 </wgt>
<wgt id='1202'> +9.0497106e-13 </wgt>
<wgt id='1203'> +9.1423900e-13 </wgt>
<wgt id='1204'> +8.8665847e-13 </wgt>
<wgt id='1205'> +9.2248294e-13 </wgt>
<wgt id='1206'> +9.1299554e-13 </wgt>
<wgt id='1207'> +9.0300368e-13 </wgt>
<wgt id='1208'> +9.0501923e-13 </wgt>
<wgt id='1209'> +9.1030773e-13 </wgt>
<wgt id='1210'> +8.9095271e-13 </wgt>
<wgt id='1211'> +9.4144868e-13 </wgt>
<wgt id='1212'> +9.0797946e-13 </wgt>
<wgt id='1213'> +9.1064773e-13 </wgt>
<wgt id='1214'> +9.6761775e-13 </wgt>
<wgt id='1215'> +8.0632235e-13 </wgt>
<wgt id='1216'> +8.7038703e-13 </wgt>
<wgt id='1217'> +9.3264086e-13 </wgt>
<wgt id='1218'> +8.9284879e-13 </wgt>
<wgt id='1219'> +9.1607372e-13 </wgt>
<wgt id='1220'> +9.0757220e-13 </wgt>
<wgt id='1221'> +9.1909007e-13 </wgt>
<wgt id='1222'> +9.1272984e-13 </wgt>
<wgt id='1223'> +9.0902596e-13 </wgt>
<wgt id='1224'> +9.0082878e-13 </wgt>
<wgt id='1225'> +9.1199885e-13 </wgt>
<wgt id='1226'> +9.1105343e-13 </wgt>
<wgt id='1227'> +9.0771462e-13 </wgt>
<wgt id='1228'> +9.2730057e-13 </wgt>
<wgt id='1229'> +8.9739064e-13 </wgt>
<wgt id='1230'> +8.7266069e-13 </wgt>
<wgt id='1231'> +9.8225853e-13 </wgt>
<wgt id='1232'> +9.1453663e-13 </wgt>
<wgt id='1233'> +9.0734525e-13 </wgt>
<wgt id='1234'> +9.0880797e-13 </wgt>
<wgt id='1235'> +9.0187808e-13 </wgt>
<wgt id='1236'> +9.0491822e-13 </wgt>
<wgt id='1237'> +9.0718601e-13 </wgt>
<wgt id='1238'> +9.1211404e-13 </wgt>
<wgt id='1239'> +9.1356109e-13 </wgt>
<wgt id='1240'> +9.1532102e-13 </wgt>
<wgt id='1241'> +8.7051899e-13 </wgt>
<wgt id='1242'> +8.5471569e-13 </wgt>
<wgt id='1243'> +8.8593482e-13 </wgt>
<wgt id='1244'> +8.7022550e-13 </wgt>
<wgt id='1245'> +8.7072471e-13 </wgt>
<wgt id='1246'> +8.7089897e-13 </wgt>
<wgt id='1247'> +8.7021204e-13 </wgt>
<wgt id='1248'> +8.7043554e-13 </wgt>
<wgt id='1249'> +8.7063818e-13 </wgt>
<wgt id='1250'> +8.6689605e-13 </wgt>
<wgt id='1251'> +8.7309455e-13 </wgt>
<wgt id='1252'> +8.6951890e-13 </wgt>
<wgt id='1253'> +8.7126932e-13 </wgt>
<wgt id='1254'> +8.5606854e-13 </wgt>
<wgt id='1255'> +8.7918134e-13 </wgt>
<wgt id='1256'> +8.7249775e-13 </wgt>
<wgt id='1257'> +8.6553020e-13 </wgt>
<wgt id='1258'> +7.9175732e-13 </wgt>
<wgt id='1259'> +9.3620531e-13 </wgt>
<wgt id='1260'> +8.5740993e-13 </wgt>
<wgt id='1261'> +8.8750529e-13 </wgt>
<wgt id='1262'> +8.5514304e-13 </wgt>
<wgt id='1263'> +8.7708500e-13 </wgt>
<wgt id='1264'> +8.6336778e-13 </wgt>
<wgt id='1265'> +8.7444169e-13 </wgt>
<wgt id='1266'> +8.9012790e-13 </wgt>
<wgt id='1267'> +8.5564852e-13 </wgt>
<wgt id='1268'> +8.6978858e-13 </wgt>
<wgt id='1269'> +8.7753465e-13 </wgt>
<wgt id='1270'> +8.5838447e-13 </wgt>
<wgt id='1271'> +9.0132228e-13 </wgt>
<wgt id='1272'> +8.5667547e-13 </wgt>
<wgt id='1273'> +8.7677443e-13 </wgt>
<wgt id='1274'> +8.6401634e-13 </wgt>
<wgt id='1275'> +8.8317695e-13 </wgt>
<wgt id='1276'> +8.5188751e-13 </wgt>
<wgt id='1277'> +8.8819255e-13 </wgt>
<wgt id='1278'> +9.1120105e-13 </wgt>
<wgt id='1279'> +8.7174240e-13 </wgt>
<wgt id='1280'> +8.7123342e-13 </wgt>
<wgt id='1281'> +8.7625669e-13 </wgt>
<wgt id='1282'> +8.7051899e-13 </wgt>
<wgt id='1283'> +8.6231320e-13 </wgt>
<wgt id='1284'> +8.6585344e-13 </wgt>
<wgt id='1285'> +8.6837932e-13 </wgt>
<wgt id='1286'> +8.7302362e-13 </wgt>
<wgt id='1287'> +8.7427573e-13 </wgt>
<wgt id='1288'> +8.7547399e-13 </wgt>
<wgt id='1289'> +8.6616326e-13 </wgt>
<wgt id='1290'> +8.7196772e-13 </wgt>
<wgt id='1291'> +8.5997124e-13 </wgt>
<wgt id='1292'> +8.6776789e-13 </wgt>
<wgt id='1293'> +8.6502107e-13 </wgt>
<wgt id='1294'> +8.5132479e-13 </wgt>
<wgt id='1295'> +8.8020542e-13 </wgt>
<wgt id='1296'> +8.7096019e-13 </wgt>
<wgt id='1297'> +8.6005216e-13 </wgt>
<wgt id='1298'> +8.8054380e-13 </wgt>
<wgt id='1299'> +8.4836177e-13 </wgt>
<wgt id='1300'> +8.7066266e-13 </wgt>
<wgt id='1301'> +8.5715411e-13 </wgt>
<wgt id='1302'> +8.6428229e-13 </wgt>
<wgt id='1303'> +8.6880658e-13 </wgt>
<wgt id='1304'> +8.6442324e-13 </wgt>
<wgt id='1305'> +8.6733791e-13 </wgt>
<wgt id='1306'> +8.5803244e-13 </wgt>
<wgt id='1307'> +8.7541774e-13 </wgt>
<wgt id='1308'> +8.6211794e-13 </wgt>
<wgt id='1309'> +8.6926604e-13 </wgt>
<wgt id='1310'> +8.6345270e-13 </wgt>
<wgt id='1311'> +8.6923393e-13 </wgt>
<wgt id='1312'> +8.5791536e-13 </wgt>
<wgt id='1313'> +8.7540603e-13 </wgt>
<wgt id='1314'> +8.4295325e-13 </wgt>
<wgt id='1315'> +8.9494699e-13 </wgt>
<wgt id='1316'> +8.7038231e-13 </wgt>
<wgt id='1317'> +8.7063839e-13 </wgt>
<wgt id='1318'> +8.3067755e-13 </wgt>
<wgt id='1319'> +9.0744996e-13 </wgt>
<wgt id='1320'> +8.0889322e-13 </wgt>
<wgt id='1321'> +9.0963311e-13 </wgt>
<wgt id='1322'> +8.7168411e-13 </wgt>
<wgt id='1323'> +8.5871950e-13 </wgt>
<wgt id='1324'> +8.7666681e-13 </wgt>
<wgt id='1325'> +8.4959825e-13 </wgt>
<wgt id='1326'> +8.6602370e-13 </wgt>
<wgt id='1327'> +8.6862716e-13 </wgt>
<wgt id='1328'> +8.5552203e-13 </wgt>
<wgt id='1329'> +8.7646533e-13 </wgt>
<wgt id='1330'> +8.4747003e-13 </wgt>
<wgt id='1331'> +8.9009860e-13 </wgt>
<wgt id='1332'> +8.8098654e-13 </wgt>
<wgt id='1333'> +8.7566128e-13 </wgt>
<wgt id='1334'> +8.6363321e-13 </wgt>
<wgt id='1335'> +8.7380157e-13 </wgt>
<wgt id='1336'> +8.4720638e-13 </wgt>
<wgt id='1337'> +9.2632689e-13 </wgt>
<wgt id='1338'> +8.5394864e-13 </wgt>
<wgt id='1339'> +8.7347261e-13 </wgt>
<wgt id='1340'> +7.7682670e-13 </wgt>
<wgt id='1341'> +7.8190044e-13 </wgt>
<wgt id='1342'> +7.7142216e-13 </wgt>
<wgt id='1343'> +7.7840324e-13 </wgt>
<wgt id='1344'> +7.7579751e-13 </wgt>
<wgt id='1345'> +7.6274026e-13 </wgt>
<wgt id='1346'> +7.8963950e-13 </wgt>
<wgt id='1347'> +7.8163950e-13 </wgt>
<wgt id='1348'> +7.7133915e-13 </wgt>
<wgt id='1349'> +7.8921473e-13 </wgt>
<wgt id='1350'> +7.6479579e-13 </wgt>
<wgt id='1351'> +7.8109404e-13 </wgt>
<wgt id='1352'> +7.6760395e-13 </wgt>
<wgt id='1353'> +7.7454592e-13 </wgt>
<wgt id='1354'> +7.8095808e-13 </wgt>
<wgt id='1355'> +7.7563256e-13 </wgt>
<wgt id='1356'> +7.7751636e-13 </wgt>
<wgt id='1357'> +7.6872680e-13 </wgt>
<wgt id='1358'> +7.8636844e-13 </wgt>
<wgt id='1359'> +7.7515274e-13 </wgt>
<wgt id='1360'> +7.7834339e-13 </wgt>
<wgt id='1361'> +7.7495175e-13 </wgt>
<wgt id='1362'> +7.7945277e-13 </wgt>
<wgt id='1363'> +7.7044718e-13 </wgt>
<wgt id='1364'> +7.8194501e-13 </wgt>
<wgt id='1365'> +8.0686997e-13 </wgt>
<wgt id='1366'> +7.4658203e-13 </wgt>
<wgt id='1367'> +7.8084675e-13 </wgt>
<wgt id='1368'> +7.7913732e-13 </wgt>
<wgt id='1369'> +7.5199319e-13 </wgt>
<wgt id='1370'> +8.0665132e-13 </wgt>
<wgt id='1371'> +7.4115965e-13 </wgt>
<wgt id='1372'> +8.1769196e-13 </wgt>
<wgt id='1373'> +7.9042082e-13 </wgt>
<wgt id='1374'> +7.6343148e-13 </wgt>
<wgt id='1375'> +7.8541471e-13 </wgt>
<wgt id='1376'> +7.6136496e-13 </wgt>
<wgt id='1377'> +7.7816911e-13 </wgt>
<wgt id='1378'> +7.7789031e-13 </wgt>
<wgt id='1379'> +7.6845281e-13 </wgt>
<wgt id='1380'> +7.8632081e-13 </wgt>
<wgt id='1381'> +7.5981745e-13 </wgt>
<wgt id='1382'> +7.9734225e-13 </wgt>
<wgt id='1383'> +7.8846851e-13 </wgt>
<wgt id='1384'> +7.8529790e-13 </wgt>
<wgt id='1385'> +7.7384703e-13 </wgt>
<wgt id='1386'> +7.8495489e-13 </wgt>
<wgt id='1387'> +7.5833726e-13 </wgt>
<wgt id='1388'> +8.3147955e-13 </wgt>
<wgt id='1389'> +7.6074427e-13 </wgt>
<wgt id='1390'> +7.8713538e-13 </wgt>
<wgt id='1391'> +8.3659322e-13 </wgt>
<wgt id='1392'> +7.1475273e-13 </wgt>
<wgt id='1393'> +7.5094124e-13 </wgt>
<wgt id='1394'> +7.9646659e-13 </wgt>
<wgt id='1395'> +8.9597306e-13 </wgt>
<wgt id='1396'> +8.4172331e-13 </wgt>
<wgt id='1397'> +9.7182477e-13 </wgt>
<wgt id='1398'> +9.4227263e-13 </wgt>
<wgt id='1399'> +9.1362748e-13 </wgt>
<wgt id='1400'> +8.8826052e-13 </wgt>
<wgt id='1401'> +8.6456138e-13 </wgt>
<wgt id='1402'> +8.2113006e-13 </wgt>
<wgt id='1403'> +8.0025708e-13 </wgt>
<wgt id='1404'> +7.8020360e-13 </wgt>
<wgt id='1405'> +8.4172331e-13 </wgt>
<wgt id='1406'> +8.3405702e-13 </wgt>
<wgt id='1407'> +8.3781578e-13 </wgt>
<wgt id='1408'> +8.4572066e-13 </wgt>
<wgt id='1409'> +8.5140599e-13 </wgt>
<wgt id='1410'> +9.5484164e-13 </wgt>
<wgt id='1411'> +9.6631059e-13 </wgt>
<wgt id='1412'> +9.4012860e-13 </wgt>
<wgt id='1413'> +9.4168560e-13 </wgt>
<wgt id='1414'> +9.6780964e-13 </wgt>
<wgt id='1415'> +9.5061141e-13 </wgt>
<wgt id='1416'> +9.5654831e-13 </wgt>
<wgt id='1417'> +9.5297176e-13 </wgt>
<wgt id='1418'> +9.5669895e-13 </wgt>
<wgt id='1419'> +9.6092266e-13 </wgt>
<wgt id='1420'> +9.4897632e-13 </wgt>
<wgt id='1421'> +9.3061484e-13 </wgt>
<wgt id='1422'> +9.6524484e-13 </wgt>
<wgt id='1423'> +9.5394896e-13 </wgt>
<wgt id='1424'> +9.5595207e-13 </wgt>
<wgt id='1425'> +9.4809535e-13 </wgt>
<wgt id='1426'> +9.6215076e-13 </wgt>
<wgt id='1427'> +9.3090518e-13 </wgt>
<wgt id='1428'> +9.6840661e-13 </wgt>
<wgt id='1429'> +9.5201210e-13 </wgt>
<wgt id='1430'> +9.5906011e-13 </wgt>
<wgt id='1431'> +9.5845528e-13 </wgt>
<wgt id='1432'> +9.5242590e-13 </wgt>
<wgt id='1433'> +9.4438359e-13 </wgt>
<wgt id='1434'> +9.6304606e-13 </wgt>
<wgt id='1435'> +9.5373006e-13 </wgt>
<wgt id='1436'> +9.5916898e-13 </wgt>
<wgt id='1437'> +9.5724705e-13 </wgt>
<wgt id='1438'> +9.6516391e-13 </wgt>
<wgt id='1439'> +9.8144595e-13 </wgt>
<wgt id='1440'> +8.8027303e-13 </wgt>
<wgt id='1441'> +9.3628673e-13 </wgt>
<wgt id='1442'> +9.9609353e-13 </wgt>
<wgt id='1443'> +9.6511228e-13 </wgt>
<wgt id='1444'> +9.4022051e-13 </wgt>
<wgt id='1445'> +9.2573677e-13 </wgt>
<wgt id='1446'> +9.7243438e-13 </wgt>
<wgt id='1447'> +9.5505591e-13 </wgt>
<wgt id='1448'> +9.6179452e-13 </wgt>
<wgt id='1449'> +9.4003967e-13 </wgt>
<wgt id='1450'> +9.6568619e-13 </wgt>
<wgt id='1451'> +9.8535019e-13 </wgt>
<wgt id='1452'> +9.2083625e-13 </wgt>
<wgt id='1453'> +9.5717095e-13 </wgt>
<wgt id='1454'> +9.4172998e-13 </wgt>
<wgt id='1455'> +9.8706129e-13 </wgt>
<wgt id='1456'> +9.5829868e-13 </wgt>
<wgt id='1457'> +9.5477916e-13 </wgt>
<wgt id='1458'> +9.5822623e-13 </wgt>
<wgt id='1459'> +9.9263780e-13 </wgt>
<wgt id='1460'> +9.5312556e-13 </wgt>
<wgt id='1461'> +9.5484164e-13 </wgt>
<wgt id='1462'> +8.9395619e-13 </wgt>
<wgt id='1463'> +1.0408357e-12 </wgt>
<wgt id='1464'> +9.6577036e-13 </wgt>
<wgt id='1465'> +1.1574936e-12 </wgt>
<wgt id='1466'> +1.1108916e-12 </wgt>
<wgt id='1467'> +1.0695885e-12 </wgt>
<wgt id='1468'> +1.0363989e-12 </wgt>
<wgt id='1469'> +9.9840357e-13 </wgt>
<wgt id='1470'> +9.3402080e-13 </wgt>
<wgt id='1471'> +9.0452539e-13 </wgt>
<wgt id='1472'> +8.7703466e-13 </wgt>
<wgt id='1473'> +9.6577036e-13 </wgt>
<wgt id='1474'> +9.5485044e-13 </wgt>
<wgt id='1475'> +9.6115224e-13 </wgt>
<wgt id='1476'> +9.7092759e-13 </wgt>
<wgt id='1477'> +9.7599322e-13 </wgt>
<wgt id='1478'> +8.3000027e-13 </wgt>
<wgt id='1479'> +8.4002443e-13 </wgt>
<wgt id='1480'> +8.2185956e-13 </wgt>
<wgt id='1481'> +8.5486903e-13 </wgt>
<wgt id='1482'> +8.3276374e-13 </wgt>
<wgt id='1483'> +7.8819340e-13 </wgt>
<wgt id='1484'> +8.5082190e-13 </wgt>
<wgt id='1485'> +8.4865603e-13 </wgt>
<wgt id='1486'> +8.2730482e-13 </wgt>
<wgt id='1487'> +8.7483354e-13 </wgt>
<wgt id='1488'> +8.3979122e-13 </wgt>
<wgt id='1489'> +7.8634346e-13 </wgt>
<wgt id='1490'> +8.3292916e-13 </wgt>
<wgt id='1491'> +8.4920370e-13 </wgt>
<wgt id='1492'> +8.3148205e-13 </wgt>
<wgt id='1493'> +8.2877579e-13 </wgt>
<wgt id='1494'> +8.3635871e-13 </wgt>
<wgt id='1495'> +8.4246880e-13 </wgt>
<wgt id='1496'> +8.0053950e-13 </wgt>
<wgt id='1497'> +8.1899817e-13 </wgt>
<wgt id='1498'> +8.1414716e-13 </wgt>
<wgt id='1499'> +8.2369715e-13 </wgt>
<wgt id='1500'> +8.4582949e-13 </wgt>
<wgt id='1501'> +8.0805575e-13 </wgt>
<wgt id='1502'> +8.1607379e-13 </wgt>
<wgt id='1503'> +8.2976060e-13 </wgt>
<wgt id='1504'> +8.2242712e-13 </wgt>
<wgt id='1505'> +8.2291687e-13 </wgt>
<wgt id='1506'> +8.1672091e-13 </wgt>
<wgt id='1507'> +8.3798006e-13 </wgt>
<wgt id='1508'> +7.9173869e-13 </wgt>
<wgt id='1509'> +1.1886906e-12 </wgt>
<wgt id='1510'> +1.1846512e-12 </wgt>
<wgt id='1511'> +1.1051515e-12 </wgt>
<wgt id='1512'> +1.1224596e-12 </wgt>
<wgt id='1513'> +1.3039253e-12 </wgt>
<wgt id='1514'> +1.2355171e-12 </wgt>
<wgt id='1515'> +1.1082798e-12 </wgt>
<wgt id='1516'> +1.2570783e-12 </wgt>
<wgt id='1517'> +1.1739690e-12 </wgt>
<wgt id='1518'> +1.2893383e-12 </wgt>
<wgt id='1519'> +1.0913510e-12 </wgt>
<wgt id='1520'> +1.2090108e-12 </wgt>
<wgt id='1521'> +1.2467831e-12 </wgt>
<wgt id='1522'> +1.1728851e-12 </wgt>
<wgt id='1523'> +1.1312728e-12 </wgt>
<wgt id='1524'> +1.1924974e-12 </wgt>
<wgt id='1525'> +1.2053441e-12 </wgt>
<wgt id='1526'> +1.1585402e-12 </wgt>
<wgt id='1527'> +1.1710909e-12 </wgt>
<wgt id='1528'> +1.1962288e-12 </wgt>
<wgt id='1529'> +1.2063532e-12 </wgt>
<wgt id='1530'> +1.2111741e-12 </wgt>
<wgt id='1531'> +1.1298799e-12 </wgt>
<wgt id='1532'> +1.2832122e-12 </wgt>
<wgt id='1533'> +1.1429006e-12 </wgt>
<wgt id='1534'> +1.1714173e-12 </wgt>
<wgt id='1535'> +1.1912233e-12 </wgt>
<wgt id='1536'> +1.0391096e-12 </wgt>
<wgt id='1537'> +1.1047590e-12 </wgt>
<wgt id='1538'> +1.5232900e-12 </wgt>
<wgt id='1539'> +1.2766299e-12 </wgt>
<wgt id='1540'> +1.2335377e-12 </wgt>
<wgt id='1541'> +1.2876832e-12 </wgt>
<wgt id='1542'> +1.2432768e-12 </wgt>
<wgt id='1543'> +1.1140951e-12 </wgt>
<wgt id='1544'> +1.2529213e-12 </wgt>
<wgt id='1545'> +1.2546374e-12 </wgt>
<wgt id='1546'> +1.1141207e-12 </wgt>
<wgt id='1547'> +1.2187754e-12 </wgt>
<wgt id='1548'> +1.2106996e-12 </wgt>
<wgt id='1549'> +1.2341224e-12 </wgt>
<wgt id='1550'> +1.2396216e-12 </wgt>
<wgt id='1551'> +1.1894895e-12 </wgt>
<wgt id='1552'> +1.0895744e-12 </wgt>
<wgt id='1553'> +1.1906703e-12 </wgt>
<wgt id='1554'> +1.1818531e-12 </wgt>
<wgt id='1555'> +1.1652649e-12 </wgt>
<wgt id='1556'> +1.1612572e-12 </wgt>
<wgt id='1557'> +1.1279909e-12 </wgt>
<wgt id='1558'> +1.1904246e-12 </wgt>
<wgt id='1559'> +1.1332872e-12 </wgt>
<wgt id='1560'> +1.1070480e-12 </wgt>
<wgt id='1561'> +1.1573100e-12 </wgt>
<wgt id='1562'> +1.1159313e-12 </wgt>
<wgt id='1563'> +1.1321387e-12 </wgt>
<wgt id='1564'> +1.1567205e-12 </wgt>
<wgt id='1565'> +1.2299231e-12 </wgt>
<wgt id='1566'> +1.2099041e-12 </wgt>
<wgt id='1567'> +1.2338542e-12 </wgt>
<wgt id='1568'> +1.1674505e-12 </wgt>
<wgt id='1569'> +1.1947514e-12 </wgt>
<wgt id='1570'> +1.2136859e-12 </wgt>
<wgt id='1571'> +1.1726060e-12 </wgt>
<wgt id='1572'> +1.1973412e-12 </wgt>
<wgt id='1573'> +1.2727186e-12 </wgt>
<wgt id='1574'> +1.1198770e-12 </wgt>
<wgt id='1575'> +1.1904650e-12 </wgt>
<wgt id='1576'> +1.1486298e-12 </wgt>
<wgt id='1577'> +1.1128276e-12 </wgt>
<wgt id='1578'> +1.1744239e-12 </wgt>
<wgt id='1579'> +1.1982482e-12 </wgt>
<wgt id='1580'> +1.2089793e-12 </wgt>
<wgt id='1581'> +1.1796619e-12 </wgt>
<wgt id='1582'> +1.2586039e-12 </wgt>
<wgt id='1583'> +1.2451104e-12 </wgt>
<wgt id='1584'> +1.2087865e-12 </wgt>
<wgt id='1585'> +1.1778351e-12 </wgt>
<wgt id='1586'> +1.2028413e-12 </wgt>
<wgt id='1587'> +1.2015976e-12 </wgt>
<wgt id='1588'> +1.1363823e-12 </wgt>
<wgt id='1589'> +1.1844511e-12 </wgt>
<wgt id='1590'> +1.1525319e-12 </wgt>
<wgt id='1591'> +1.1395249e-12 </wgt>
<wgt id='1592'> +1.2080625e-12 </wgt>
<wgt id='1593'> +1.1902401e-12 </wgt>
<wgt id='1594'> +1.2239388e-12 </wgt>
<wgt id='1595'> +1.2138926e-12 </wgt>
<wgt id='1596'> +1.2009864e-12 </wgt>
<wgt id='1597'> +1.1714191e-12 </wgt>
<wgt id='1598'> +1.2107060e-12 </wgt>
<wgt id='1599'> +1.2178867e-12 </wgt>
<wgt id='1600'> +1.1530290e-12 </wgt>
<wgt id='1601'> +1.1526811e-12 </wgt>
<wgt id='1602'> +1.2195503e-12 </wgt>
<wgt id='1603'> +1.1577597e-12 </wgt>
<wgt id='1604'> +1.1796973e-12 </wgt>
<wgt id='1605'> +1.2074279e-12 </wgt>
<wgt id='1606'> +1.1011824e-12 </wgt>
<wgt id='1607'> +1.2671572e-12 </wgt>
<wgt id='1608'> +1.1814398e-12 </wgt>
<wgt id='1609'> +1.2069241e-12 </wgt>
<wgt id='1610'> +1.1305767e-12 </wgt>
<wgt id='1611'> +1.2685228e-12 </wgt>
<wgt id='1612'> +1.1927326e-12 </wgt>
<wgt id='1613'> +1.5744990e-12 </wgt>
<wgt id='1614'> +1.6641527e-12 </wgt>
<wgt id='1615'> +2.3802314e-12 </wgt>
<wgt id='1616'> +2.0707305e-12 </wgt>
<wgt id='1617'> +4.3793707e-13 </wgt>
<wgt id='1618'> +2.5456194e-12 </wgt>
<wgt id='1619'> +1.8978779e-12 </wgt>
<wgt id='1620'> +6.9067772e-13 </wgt>
<wgt id='1621'> -1.2580610e-13 </wgt>
<wgt id='1622'> +6.7736017e-13 </wgt>
<wgt id='1623'> +1.0923533e-12 </wgt>
<wgt id='1624'> +1.0557104e-12 </wgt>
<wgt id='1625'> +1.1665339e-12 </wgt>
<wgt id='1626'> +1.1202550e-12 </wgt>
<wgt id='1627'> +2.3700076e-12 </wgt>
<wgt id='1628'> +4.1486095e-12 </wgt>
<wgt id='1629'> +8.6045049e-13 </wgt>
<wgt id='1630'> +1.2205241e-12 </wgt>
<wgt id='1631'> +1.0943454e-12 </wgt>
<wgt id='1632'> +1.6130246e-12 </wgt>
<wgt id='1633'> +7.1417902e-13 </wgt>
<wgt id='1634'> +1.0021159e-12 </wgt>
<wgt id='1635'> +1.1754065e-13 </wgt>
<wgt id='1636'> +1.7042830e-12 </wgt>
<wgt id='1637'> +1.0006704e-12 </wgt>
<wgt id='1638'> +8.1290058e-13 </wgt>
<wgt id='1639'> +3.9167660e-13 </wgt>
<wgt id='1640'> +1.8132842e-12 </wgt>
<wgt id='1641'> -4.7270473e-14 </wgt>
<wgt id='1642'> +2.0090689e-12 </wgt>
<wgt id='1643'> +1.4379460e-12 </wgt>
<wgt id='1644'> +4.2350628e-13 </wgt>
<wgt id='1645'> +1.7170602e-12 </wgt>
<wgt id='1646'> -1.2547175e-13 </wgt>
<wgt id='1647'> +9.4986126e-13 </wgt>
<wgt id='1648'> +1.5409432e-12 </wgt>
<wgt id='1649'> +3.2793324e-12 </wgt>
<wgt id='1650'> +1.6792358e-12 </wgt>
<wgt id='1651'> +1.7834945e-12 </wgt>
<wgt id='1652'> +8.6381146e-13 </wgt>
<wgt id='1653'> +1.8348312e-12 </wgt>
<wgt id='1654'> +1.8472512e-12 </wgt>
<wgt id='1655'> +1.6771331e-12 </wgt>
<wgt id='1656'> +6.4619084e-13 </wgt>
<wgt id='1657'> +7.7613197e-13 </wgt>
<wgt id='1658'> +7.6481995e-13 </wgt>
<wgt id='1659'> +1.0557104e-12 </wgt>
<wgt id='1660'> +1.0796042e-12 </wgt>
<wgt id='1661'> -2.3963508e-13 </wgt>
<wgt id='1662'> +2.2016178e-13 </wgt>
<wgt id='1663'> +7.2955483e-14 </wgt>
<wgt id='1664'> +8.1436660e-13 </wgt>
<wgt id='1665'> +3.0722273e-12 </wgt>
<wgt id='1666'> +9.4721220e-13 </wgt>
<wgt id='1667'> +3.8809621e-13 </wgt>
<wgt id='1668'> +1.8402684e-12 </wgt>
<wgt id='1669'> +5.3840122e-13 </wgt>
<wgt id='1670'> +1.3086141e-12 </wgt>
<wgt id='1671'> +1.8516068e-12 </wgt>
<wgt id='1672'> +6.0413359e-13 </wgt>
<wgt id='1673'> +6.6695646e-13 </wgt>
<wgt id='1674'> +4.6016922e-13 </wgt>
<wgt id='1675'> +9.8958652e-13 </wgt>
<wgt id='1676'> +1.7284030e-12 </wgt>
<wgt id='1677'> +3.3887472e-13 </wgt>
<wgt id='1678'> +8.1400497e-13 </wgt>
<wgt id='1679'> +5.0091052e-13 </wgt>
<wgt id='1680'> +1.4607271e-12 </wgt>
<wgt id='1681'> +7.5833858e-13 </wgt>
<wgt id='1682'> +4.8183828e-13 </wgt>
<wgt id='1683'> +2.9026463e-13 </wgt>
<wgt id='1684'> +4.1880351e-13 </wgt>
<wgt id='1685'> +1.8663334e-12 </wgt>
<wgt id='1686'> +6.8305693e-13 </wgt>
<wgt id='1687'> +1.3116182e-12 </wgt>
<wgt id='1688'> +2.6415752e-12 </wgt>
<wgt id='1689'> +8.8913478e-13 </wgt>
<wgt id='1690'> +3.0495873e-13 </wgt>
<wgt id='1691'> +1.3976050e-12 </wgt>
<wgt id='1692'> +2.8041605e-12 </wgt>
<wgt id='1693'> +1.3982976e-12 </wgt>
<wgt id='1694'> +1.4279686e-12 </wgt>
<wgt id='1695'> +1.3720867e-12 </wgt>
<wgt id='1696'> +8.3023481e-13 </wgt>
<wgt id='1697'> +8.4888019e-13 </wgt>
<wgt id='1698'> +1.2445642e-12 </wgt>
<wgt id='1699'> +1.2105707e-12 </wgt>
<wgt id='1700'> +1.4621986e-12 </wgt>
<wgt id='1701'> -1.2710569e-13 </wgt>
<wgt id='1702'> +1.2795647e-12 </wgt>
<wgt id='1703'> +1.4031479e-12 </wgt>
<wgt id='1704'> +1.6939414e-12 </wgt>
<wgt id='1705'> +1.4526847e-12 </wgt>
<wgt id='1706'> +1.3880673e-12 </wgt>
<wgt id='1707'> +1.9674239e-12 </wgt>
<wgt id='1708'> +9.7704319e-13 </wgt>
<wgt id='1709'> +1.0327234e-12 </wgt>
<wgt id='1710'> +6.9192546e-13 </wgt>
<wgt id='1711'> +2.8190010e-12 </wgt>
<wgt id='1712'> +6.3418367e-13 </wgt>
<wgt id='1713'> +8.5246939e-13 </wgt>
<wgt id='1714'> +8.5239403e-13 </wgt>
<wgt id='1715'> +8.7978306e-13 </wgt>
<wgt id='1716'> +7.6797023e-13 </wgt>
<wgt id='1717'> +8.6207460e-13 </wgt>
<wgt id='1718'> +8.0775699e-13 </wgt>
<wgt id='1719'> +9.5674209e-13 </wgt>
<wgt id='1720'> +7.6621278e-13 </wgt>
<wgt id='1721'> +8.8931417e-13 </wgt>
<wgt id='1722'> +8.1674668e-13 </wgt>
<wgt id='1723'> +7.7279472e-13 </wgt>
<wgt id='1724'> +8.4777749e-13 </wgt>
<wgt id='1725'> +8.3387037e-13 </wgt>
<wgt id='1726'> +9.1695050e-13 </wgt>
<wgt id='1727'> +9.4165136e-13 </wgt>
<wgt id='1728'> +8.9260839e-13 </wgt>
<wgt id='1729'> +7.8832638e-13 </wgt>
<wgt id='1730'> +1.0589006e-12 </wgt>
<wgt id='1731'> +8.9528239e-13 </wgt>
<wgt id='1732'> +8.6032480e-13 </wgt>
<wgt id='1733'> +7.8930033e-13 </wgt>
<wgt id='1734'> +8.6648170e-13 </wgt>
<wgt id='1735'> +6.6511737e-13 </wgt>
<wgt id='1736'> +6.7689229e-13 </wgt>
<wgt id='1737'> +7.2844651e-13 </wgt>
<wgt id='1738'> +8.5129590e-13 </wgt>
<wgt id='1739'> +8.8299127e-13 </wgt>
<wgt id='1740'> +9.7916883e-13 </wgt>
<wgt id='1741'> +1.0598690e-12 </wgt>
<wgt id='1742'> +9.7324526e-13 </wgt>
<wgt id='1743'> +7.8664326e-13 </wgt>
<wgt id='1744'> +8.3517945e-13 </wgt>
<wgt id='1745'> +8.1100025e-13 </wgt>
<wgt id='1746'> +8.2795983e-13 </wgt>
<wgt id='1747'> +8.2356247e-13 </wgt>
<wgt id='1748'> +8.2135909e-13 </wgt>
<wgt id='1749'> +8.1858943e-13 </wgt>
<wgt id='1750'> +9.6831767e-13 </wgt>
<wgt id='1751'> +7.7436828e-13 </wgt>
<wgt id='1752'> +8.2255213e-13 </wgt>
<wgt id='1753'> +8.4211717e-13 </wgt>
<wgt id='1754'> +7.7338942e-13 </wgt>
<wgt id='1755'> +9.0829438e-13 </wgt>
<wgt id='1756'> +7.4458324e-13 </wgt>
<wgt id='1757'> +8.3527700e-13 </wgt>
<wgt id='1758'> +7.1997505e-13 </wgt>
<wgt id='1759'> +7.0197556e-13 </wgt>
<wgt id='1760'> +9.6741274e-13 </wgt>
<wgt id='1761'> +9.3598208e-13 </wgt>
<wgt id='1762'> +8.9097983e-13 </wgt>
<wgt id='1763'> +8.8353567e-13 </wgt>
<wgt id='1764'> +8.8913814e-13 </wgt>
<wgt id='1765'> +7.4593519e-13 </wgt>
<wgt id='1766'> +8.7154744e-13 </wgt>
<wgt id='1767'> +9.2814106e-13 </wgt>
<wgt id='1768'> +8.4312141e-13 </wgt>
<wgt id='1769'> +1.0112549e-12 </wgt>
<wgt id='1770'> +8.3860024e-13 </wgt>
<wgt id='1771'> +9.3149071e-13 </wgt>
<wgt id='1772'> +8.8553400e-13 </wgt>
<wgt id='1773'> +8.1567928e-13 </wgt>
<wgt id='1774'> +8.5871946e-13 </wgt>
<wgt id='1775'> +7.8154835e-13 </wgt>
<wgt id='1776'> +9.7374034e-13 </wgt>
<wgt id='1777'> +9.7544798e-13 </wgt>
<wgt id='1778'> +7.5752136e-13 </wgt>
<wgt id='1779'> +8.4841962e-13 </wgt>
<wgt id='1780'> +7.1582664e-13 </wgt>
<wgt id='1781'> +8.6871098e-13 </wgt>
<wgt id='1782'> +8.9392842e-13 </wgt>
<wgt id='1783'> +9.9051199e-13 </wgt>
<wgt id='1784'> +6.5613655e-13 </wgt>
<wgt id='1785'> +8.4079828e-13 </wgt>
<wgt id='1786'> +8.1304602e-13 </wgt>
<wgt id='1787'> +1.0124574e-12 </wgt>
<wgt id='1788'> +8.3721621e-13 </wgt>
<wgt id='1789'> +7.6718857e-13 </wgt>
<wgt id='1790'> +7.7201841e-13 </wgt>
<wgt id='1791'> +8.7641425e-13 </wgt>
<wgt id='1792'> +8.1942029e-13 </wgt>
<wgt id='1793'> +8.5288949e-13 </wgt>
<wgt id='1794'> +7.5044294e-13 </wgt>
<wgt id='1795'> +8.1741632e-13 </wgt>
<wgt id='1796'> +1.0104958e-12 </wgt>
<wgt id='1797'> +8.4497136e-13 </wgt>
<wgt id='1798'> +9.0481007e-13 </wgt>
<wgt id='1799'> +9.1900297e-13 </wgt>
<wgt id='1800'> +8.3236090e-13 </wgt>
<wgt id='1801'> +8.8807487e-13 </wgt>
<wgt id='1802'> +8.6583282e-13 </wgt>
<wgt id='1803'> +8.7173889e-13 </wgt>
<wgt id='1804'> +9.1505438e-13 </wgt>
<wgt id='1805'> +7.3810155e-13 </wgt>
<wgt id='1806'> +9.2549288e-13 </wgt>
<wgt id='1807'> +7.8023124e-13 </wgt>
<wgt id='1808'> +1.0707699e-12 </wgt>
<wgt id='1809'> +7.8871611e-13 </wgt>
<wgt id='1810'> +8.0161062e-13 </wgt>
<wgt id='1811'> +6.5266045e-13 </wgt>
<wgt id='1812'> +8.9949833e-13 </wgt>
<wgt id='1813'> +8.9979203e-13 </wgt>
<wgt id='1814'> +7.0176057e-13 </wgt>
<wgt id='1815'> +9.3059850e-13 </wgt>
<wgt id='1816'> +8.5246939e-13 </wgt>
<wgt id='1817'> +8.5239403e-13 </wgt>
<wgt id='1818'> +8.7978306e-13 </wgt>
<wgt id='1819'> +7.6797023e-13 </wgt>
<wgt id='1820'> +8.6207460e-13 </wgt>
<wgt id='1821'> +8.0775699e-13 </wgt>
<wgt id='1822'> +9.5674209e-13 </wgt>
<wgt id='1823'> +7.6621278e-13 </wgt>
<wgt id='1824'> +8.8931417e-13 </wgt>
<wgt id='1825'> +8.1674668e-13 </wgt>
<wgt id='1826'> +7.7279472e-13 </wgt>
<wgt id='1827'> +8.4777749e-13 </wgt>
<wgt id='1828'> +8.3387037e-13 </wgt>
<wgt id='1829'> +9.1695050e-13 </wgt>
<wgt id='1830'> +9.4165136e-13 </wgt>
<wgt id='1831'> +8.9260839e-13 </wgt>
<wgt id='1832'> +7.8832638e-13 </wgt>
<wgt id='1833'> +1.0589006e-12 </wgt>
<wgt id='1834'> +8.9528239e-13 </wgt>
<wgt id='1835'> +8.6032480e-13 </wgt>
<wgt id='1836'> +7.8930033e-13 </wgt>
<wgt id='1837'> +8.6648170e-13 </wgt>
<wgt id='1838'> +6.6511737e-13 </wgt>
<wgt id='1839'> +6.7689229e-13 </wgt>
<wgt id='1840'> +7.2844651e-13 </wgt>
<wgt id='1841'> +8.5129590e-13 </wgt>
<wgt id='1842'> +8.8299127e-13 </wgt>
<wgt id='1843'> +9.7916883e-13 </wgt>
<wgt id='1844'> +1.0598690e-12 </wgt>
<wgt id='1845'> +9.7324526e-13 </wgt>
<wgt id='1846'> +7.8664326e-13 </wgt>
<wgt id='1847'> +8.3517945e-13 </wgt>
<wgt id='1848'> +8.1100025e-13 </wgt>
<wgt id='1849'> +8.2795983e-13 </wgt>
<wgt id='1850'> +8.2356247e-13 </wgt>
<wgt id='1851'> +8.2135909e-13 </wgt>
<wgt id='1852'> +8.1858943e-13 </wgt>
<wgt id='1853'> +9.6831767e-13 </wgt>
<wgt id='1854'> +7.7436828e-13 </wgt>
<wgt id='1855'> +8.2255213e-13 </wgt>
<wgt id='1856'> +8.4211717e-13 </wgt>
<wgt id='1857'> +7.7338942e-13 </wgt>
<wgt id='1858'> +9.0829438e-13 </wgt>
<wgt id='1859'> +7.4458324e-13 </wgt>
<wgt id='1860'> +8.3527700e-13 </wgt>
<wgt id='1861'> +7.1997505e-13 </wgt>
<wgt id='1862'> +7.0197556e-13 </wgt>
<wgt id='1863'> +9.6741274e-13 </wgt>
<wgt id='1864'> +9.3598208e-13 </wgt>
<wgt id='1865'> +8.9097983e-13 </wgt>
<wgt id='1866'> +8.8353567e-13 </wgt>
<wgt id='1867'> +8.8913814e-13 </wgt>
<wgt id='1868'> +7.4593519e-13 </wgt>
<wgt id='1869'> +8.7154744e-13 </wgt>
<wgt id='1870'> +9.2814106e-13 </wgt>
<wgt id='1871'> +8.4312141e-13 </wgt>
<wgt id='1872'> +1.0112549e-12 </wgt>
<wgt id='1873'> +8.3860024e-13 </wgt>
<wgt id='1874'> +9.3149071e-13 </wgt>
<wgt id='1875'> +8.8553400e-13 </wgt>
<wgt id='1876'> +8.1567928e-13 </wgt>
<wgt id='1877'> +8.5871946e-13 </wgt>
<wgt id='1878'> +7.8154835e-13 </wgt>
<wgt id='1879'> +9.7374034e-13 </wgt>
<wgt id='1880'> +9.7544798e-13 </wgt>
<wgt id='1881'> +7.5752136e-13 </wgt>
<wgt id='1882'> +8.4841962e-13 </wgt>
<wgt id='1883'> +7.1582664e-13 </wgt>
<wgt id='1884'> +8.6871098e-13 </wgt>
<wgt id='1885'> +8.9392842e-13 </wgt>
<wgt id='1886'> +9.9051199e-13 </wgt>
<wgt id='1887'> +6.5613655e-13 </wgt>
<wgt id='1888'> +8.4079828e-13 </wgt>
<wgt id='1889'> +8.1304602e-13 </wgt>
<wgt id='1890'> +1.0124574e-12 </wgt>
<wgt id='1891'> +8.3721621e-13 </wgt>
<wgt id='1892'> +7.6718857e-13 </wgt>
<wgt id='1893'> +7.7201841e-13 </wgt>
<wgt id='1894'> +8.7641425e-13 </wgt>
<wgt id='1895'> +8.1942029e-13 </wgt>
<wgt id='1896'> +8.5288949e-13 </wgt>
<wgt id='1897'> +7.5044294e-13 </wgt>
<wgt id='1898'> +8.1741632e-13 </wgt>
<wgt id='1899'> +1.0104958e-12 </wgt>
<wgt id='1900'> +8.4497136e-13 </wgt>
<wgt id='1901'> +9.0481007e-13 </wgt>
<wgt id='1902'> +9.1900297e-13 </wgt>
<wgt id='1903'> +8.3236090e-13 </wgt>
<wgt id='1904'> +8.8807487e-13 </wgt>
<wgt id='1905'> +8.6583282e-13 </wgt>
<wgt id='1906'> +8.7173889e-13 </wgt>
<wgt id='1907'> +9.1505438e-13 </wgt>
<wgt id='1908'> +7.3810155e-13 </wgt>
<wgt id='1909'> +9.2549288e-13 </wgt>
<wgt id='1910'> +7.8023124e-13 </wgt>
<wgt id='1911'> +1.0707699e-12 </wgt>
<wgt id='1912'> +7.8871611e-13 </wgt>
<wgt id='1913'> +8.0161062e-13 </wgt>
<wgt id='1914'> +6.5266045e-13 </wgt>
<wgt id='1915'> +8.9949833e-13 </wgt>
<wgt id='1916'> +8.9979203e-13 </wgt>
<wgt id='1917'> +8.0824019e-13 </wgt>
<wgt id='1918'> +9.1449145e-13 </wgt>
<wgt id='1919'> +9.5516581e-13 </wgt>
</rwgt>
</event>
<event>
 9      1 +1.5538000e-12 6.52508000e+01 7.81860800e-03 1.24967500e-01
       21 -1    0    0  501  502 +0.0000000000e+00 +0.0000000000e+00 +4.5554897931e+01 4.5554897931e+01 0.0000000000e+00 0.0000e+00 1.0000e+00
        2 -1    0    0  502    0 -0.0000000000e+00 -0.0000000000e+00 -2.3365585886e+01 2.3365585886e+01 0.0000000000e+00 0.0000e+00 1.0000e+00
     1023  2    1    2    0    0 -3.0590031865e+01 -7.8061528641e-01 +7.1345059745e+00 3.4817601306e+01 1.5000159183e+01 0.0000e+00 0.0000e+00
  1000023  2    3    3    0    0 -2.3525458920e+01 -4.5694162543e+00 +4.3706293276e+00 2.4973708896e+01 5.5006320540e+00 0.0000e+00 0.0000e+00
        2  1    1    2  501    0 +3.0590031865e+01 +7.8061528641e-01 +1.5054806071e+01 3.4102882511e+01 0.0000000000e+00 0.0000e+00 1.0000e+00
  1000022  1    4    4    0    0 -1.9566414872e+01 -3.9417423998e+00 +3.7343134108e+00 2.0912365260e+01 5.0000000000e+00 0.0000e+00 1.0000e+00
      -11  1    4    4    0    0 -1.4426722926e+00 -1.6316184167e-01 +2.5895085312e-01 1.4747816571e+00 5.1100000000e-04 0.0000e+00 -1.0000e+00
       11  1    4    4    0    0 -2.5163717554e+00 -4.6451201289e-01 +3.7736506368e-01 2.5865619795e+00 5.1100000000e-04 0.0000e+00 1.0000e+00
  1000022  1    3    3    0    0 -7.0645729443e+00 +3.7888009679e+00 +2.7638766469e+00 9.8438924100e+00 5.0000000000e+00 0.0000e+00 1.0000e+00
<mgrwt>
<rscale>  1 0.65250805E+02</rscale>
<asrwt>0</asrwt>
<pdfrwt beam="1">  1       21 0.70084458E-02 0.65250805E+02</pdfrwt>
<pdfrwt beam="2">  1        2 0.35947055E-02 0.65250805E+02</pdfrwt>
<totfact> 0.46494601E+06</totfact>
</mgrwt>
<rwgt>
<wgt id='1001'> +1.5538000e-12 </wgt>
<wgt id='1002'> +1.5536127e-12 </wgt>
<wgt id='1003'> +1.5536527e-12 </wgt>
<wgt id='1004'> +1.5260526e-12 </wgt>
<wgt id='1005'> +1.5538000e-12 </wgt>
<wgt id='1006'> +1.3848267e-12 </wgt>
<wgt id='1007'> +1.3843218e-12 </wgt>
<wgt id='1008'> +1.3844282e-12 </wgt>
<wgt id='1009'> +1.3380285e-12 </wgt>
<wgt id='1010'> +1.3848267e-12 </wgt>
<wgt id='1011'> +1.7716953e-12 </wgt>
<wgt id='1012'> +1.7720510e-12 </wgt>
<wgt id='1013'> +1.7719770e-12 </wgt>
<wgt id='1014'> +1.7785644e-12 </wgt>
<wgt id='1015'> +1.7716953e-12 </wgt>
<wgt id='1016'> +1.7417187e-12 </wgt>
<wgt id='1017'> +1.7423635e-12 </wgt>
<wgt id='1018'> +1.7422288e-12 </wgt>
<wgt id='1019'> +1.7719770e-12 </wgt>
<wgt id='1020'> +1.7417187e-12 </wgt>
<wgt id='1021'> +1.5523095e-12 </wgt>
<wgt id='1022'> +1.5525051e-12 </wgt>
<wgt id='1023'> +1.5524646e-12 </wgt>
<wgt id='1024'> +1.5536527e-12 </wgt>
<wgt id='1025'> +1.5523095e-12 </wgt>
<wgt id='1026'> +1.9859665e-12 </wgt>
<wgt id='1027'> +1.9873401e-12 </wgt>
<wgt id='1028'> +1.9870524e-12 </wgt>
<wgt id='1029'> +2.0651812e-12 </wgt>
<wgt id='1030'> +1.9859665e-12 </wgt>
<wgt id='1031'> +1.3389307e-12 </wgt>
<wgt id='1032'> +1.3377879e-12 </wgt>
<wgt id='1033'> +1.3380285e-12 </wgt>
<wgt id='1034'> +1.2464403e-12 </wgt>
<wgt id='1035'> +1.3389307e-12 </wgt>
<wgt id='1036'> +1.1933241e-12 </wgt>
<wgt id='1037'> +1.1920145e-12 </wgt>
<wgt id='1038'> +1.1922899e-12 </wgt>
<wgt id='1039'> +1.0928671e-12 </wgt>
<wgt id='1040'> +1.1933241e-12 </wgt>
<wgt id='1041'> +1.5266941e-12 </wgt>
<wgt id='1042'> +1.5258812e-12 </wgt>
<wgt id='1043'> +1.5260526e-12 </wgt>
<wgt id='1044'> +1.4526854e-12 </wgt>
<wgt id='1045'> +1.5266941e-12 </wgt>
<wgt id='1046'> +1.5538000e-12 </wgt>
<wgt id='1047'> +1.5616486e-12 </wgt>
<wgt id='1048'> +1.5298085e-12 </wgt>
<wgt id='1049'> +1.5506954e-12 </wgt>
<wgt id='1050'> +1.5435164e-12 </wgt>
<wgt id='1051'> +1.5742441e-12 </wgt>
<wgt id='1052'> +1.5595892e-12 </wgt>
<wgt id='1053'> +1.5367789e-12 </wgt>
<wgt id='1054'> +1.5327059e-12 </wgt>
<wgt id='1055'> +1.5297230e-12 </wgt>
<wgt id='1056'> +1.5696279e-12 </wgt>
<wgt id='1057'> +1.5897691e-12 </wgt>
<wgt id='1058'> +1.5054368e-12 </wgt>
<wgt id='1059'> +1.5519086e-12 </wgt>
<wgt id='1060'> +1.5547181e-12 </wgt>
<wgt id='1061'> +1.5670876e-12 </wgt>
<wgt id='1062'> +1.5647797e-12 </wgt>
<wgt id='1063'> +1.5858153e-12 </wgt>
<wgt id='1064'> +1.5481747e-12 </wgt>
<wgt id='1065'> +1.5492973e-12 </wgt>
<wgt id='1066'> +1.5533890e-12 </wgt>
<wgt id='1067'> +1.5030701e-12 </wgt>
<wgt id='1068'> +1.5639298e-12 </wgt>
<wgt id='1069'> +1.5498974e-12 </wgt>
<wgt id='1070'> +1.5333086e-12 </wgt>
<wgt id='1071'> +1.5119922e-12 </wgt>
<wgt id='1072'> +1.5793291e-12 </wgt>
<wgt id='1073'> +1.5853303e-12 </wgt>
<wgt id='1074'> +1.5254716e-12 </wgt>
<wgt id='1075'> +1.5641426e-12 </wgt>
<wgt id='1076'> +1.5680793e-12 </wgt>
<wgt id='1077'> +1.5590100e-12 </wgt>
<wgt id='1078'> +1.5329336e-12 </wgt>
<wgt id='1079'> +1.5417108e-12 </wgt>
<wgt id='1080'> +1.5163947e-12 </wgt>
<wgt id='1081'> +1.6144893e-12 </wgt>
<wgt id='1082'> +1.5442849e-12 </wgt>
<wgt id='1083'> +1.5726164e-12 </wgt>
<wgt id='1084'> +1.5613712e-12 </wgt>
<wgt id='1085'> +1.5336320e-12 </wgt>
<wgt id='1086'> +1.5497854e-12 </wgt>
<wgt id='1087'> +1.5758305e-12 </wgt>
<wgt id='1088'> +1.5252315e-12 </wgt>
<wgt id='1089'> +1.5682012e-12 </wgt>
<wgt id='1090'> +1.5437746e-12 </wgt>
<wgt id='1091'> +1.5565765e-12 </wgt>
<wgt id='1092'> +1.5720880e-12 </wgt>
<wgt id='1093'> +1.5377552e-12 </wgt>
<wgt id='1094'> +1.5528076e-12 </wgt>
<wgt id='1095'> +1.5745962e-12 </wgt>
<wgt id='1096'> +1.5904657e-12 </wgt>
<wgt id='1097'> +1.5348597e-12 </wgt>
<wgt id='1098'> +1.5254287e-12 </wgt>
<wgt id='1099'> +1.5648124e-12 </wgt>
<wgt id='1100'> +1.5317210e-12 </wgt>
<wgt id='1101'> +1.5616303e-12 </wgt>
<wgt id='1102'> +1.5527242e-12 </wgt>
<wgt id='1103'> +1.5641030e-12 </wgt>
<wgt id='1104'> +1.5327734e-12 </wgt>
<wgt id='1105'> +1.5903677e-12 </wgt>
<wgt id='1106'> +1.5641395e-12 </wgt>
<wgt id='1107'> +1.5505890e-12 </wgt>
<wgt id='1108'> +1.5414961e-12 </wgt>
<wgt id='1109'> +1.5961209e-12 </wgt>
<wgt id='1110'> +1.5452428e-12 </wgt>
<wgt id='1111'> +1.5537343e-12 </wgt>
<wgt id='1112'> +1.5729728e-12 </wgt>
<wgt id='1113'> +1.5467286e-12 </wgt>
<wgt id='1114'> +1.5683417e-12 </wgt>
<wgt id='1115'> +1.5268929e-12 </wgt>
<wgt id='1116'> +1.5072383e-12 </wgt>
<wgt id='1117'> +1.5657468e-12 </wgt>
<wgt id='1118'> +1.6061288e-12 </wgt>
<wgt id='1119'> +1.5284526e-12 </wgt>
<wgt id='1120'> +1.5644215e-12 </wgt>
<wgt id='1121'> +1.5615678e-12 </wgt>
<wgt id='1122'> +1.6095195e-12 </wgt>
<wgt id='1123'> +1.5214389e-12 </wgt>
<wgt id='1124'> +1.5372943e-12 </wgt>
<wgt id='1125'> +1.5551946e-12 </wgt>
<wgt id='1126'> +1.5790171e-12 </wgt>
<wgt id='1127'> +1.5256245e-12 </wgt>
<wgt id='1128'> +1.5647797e-12 </wgt>
<wgt id='1129'> +1.5540705e-12 </wgt>
<wgt id='1130'> +1.5546576e-12 </wgt>
<wgt id='1131'> +1.5578811e-12 </wgt>
<wgt id='1132'> +1.5385320e-12 </wgt>
<wgt id='1133'> +1.5641455e-12 </wgt>
<wgt id='1134'> +1.5881231e-12 </wgt>
<wgt id='1135'> +1.5493511e-12 </wgt>
<wgt id='1136'> +1.5260096e-12 </wgt>
<wgt id='1137'> +1.5307115e-12 </wgt>
<wgt id='1138'> +1.5731361e-12 </wgt>
<wgt id='1139'> +1.5700849e-12 </wgt>
<wgt id='1140'> +1.5682422e-12 </wgt>
<wgt id='1141'> +1.5151955e-12 </wgt>
<wgt id='1142'> +1.5368801e-12 </wgt>
<wgt id='1143'> +1.5672058e-12 </wgt>
<wgt id='1144'> +1.5641121e-12 </wgt>
<wgt id='1145'> +1.5569048e-12 </wgt>
<wgt id='1146'> +1.5470448e-12 </wgt>
<wgt id='1147'> +1.2437639e-12 </wgt>
<wgt id='1148'> +1.2699112e-12 </wgt>
<wgt id='1149'> +1.3124345e-12 </wgt>
<wgt id='1150'> +1.2736504e-12 </wgt>
<wgt id='1151'> +1.2177981e-12 </wgt>
<wgt id='1152'> +1.5334553e-12 </wgt>
<wgt id='1153'> +1.5254171e-12 </wgt>
<wgt id='1154'> +1.5381639e-12 </wgt>
<wgt id='1155'> +1.5332894e-12 </wgt>
<wgt id='1156'> +1.5335680e-12 </wgt>
<wgt id='1157'> +1.5352543e-12 </wgt>
<wgt id='1158'> +1.5310140e-12 </wgt>
<wgt id='1159'> +1.5349836e-12 </wgt>
<wgt id='1160'> +1.5324944e-12 </wgt>
<wgt id='1161'> +1.5298480e-12 </wgt>
<wgt id='1162'> +1.5359412e-12 </wgt>
<wgt id='1163'> +1.5373430e-12 </wgt>
<wgt id='1164'> +1.5296199e-12 </wgt>
<wgt id='1165'> +1.5238213e-12 </wgt>
<wgt id='1166'> +1.5427702e-12 </wgt>
<wgt id='1167'> +1.5388515e-12 </wgt>
<wgt id='1168'> +1.5251381e-12 </wgt>
<wgt id='1169'> +1.5348590e-12 </wgt>
<wgt id='1170'> +1.5323948e-12 </wgt>
<wgt id='1171'> +1.5311504e-12 </wgt>
<wgt id='1172'> +1.5361550e-12 </wgt>
<wgt id='1173'> +1.5269052e-12 </wgt>
<wgt id='1174'> +1.5391900e-12 </wgt>
<wgt id='1175'> +1.5329087e-12 </wgt>
<wgt id='1176'> +1.5330563e-12 </wgt>
<wgt id='1177'> +1.5352947e-12 </wgt>
<wgt id='1178'> +1.5284454e-12 </wgt>
<wgt id='1179'> +1.5433552e-12 </wgt>
<wgt id='1180'> +1.5183116e-12 </wgt>
<wgt id='1181'> +1.5260437e-12 </wgt>
<wgt id='1182'> +1.5407774e-12 </wgt>
<wgt id='1183'> +1.5346776e-12 </wgt>
<wgt id='1184'> +1.5333613e-12 </wgt>
<wgt id='1185'> +1.5283303e-12 </wgt>
<wgt id='1186'> +1.5362220e-12 </wgt>
<wgt id='1187'> +1.5323087e-12 </wgt>
<wgt id='1188'> +1.5338748e-12 </wgt>
<wgt id='1189'> +1.5299468e-12 </wgt>
<wgt id='1190'> +1.5235239e-12 </wgt>
<wgt id='1191'> +1.5264690e-12 </wgt>
<wgt id='1192'> +1.5355222e-12 </wgt>
<wgt id='1193'> +1.2865548e-12 </wgt>
<wgt id='1194'> +1.2864572e-12 </wgt>
<wgt id='1195'> +1.2865505e-12 </wgt>
<wgt id='1196'> +1.2923347e-12 </wgt>
<wgt id='1197'> +1.2800614e-12 </wgt>
<wgt id='1198'> +1.2871863e-12 </wgt>
<wgt id='1199'> +1.2855696e-12 </wgt>
<wgt id='1200'> +1.2883946e-12 </wgt>
<wgt id='1201'> +1.2853398e-12 </wgt>
<wgt id='1202'> +1.2846303e-12 </wgt>
<wgt id='1203'> +1.2892566e-12 </wgt>
<wgt id='1204'> +1.2752675e-12 </wgt>
<wgt id='1205'> +1.2935023e-12 </wgt>
<wgt id='1206'> +1.2908099e-12 </wgt>
<wgt id='1207'> +1.2807218e-12 </wgt>
<wgt id='1208'> +1.2785468e-12 </wgt>
<wgt id='1209'> +1.2894111e-12 </wgt>
<wgt id='1210'> +1.2906961e-12 </wgt>
<wgt id='1211'> +1.2745829e-12 </wgt>
<wgt id='1212'> +1.2863818e-12 </wgt>
<wgt id='1213'> +1.2866032e-12 </wgt>
<wgt id='1214'> +1.2732233e-12 </wgt>
<wgt id='1215'> +1.3084068e-12 </wgt>
<wgt id='1216'> +1.2936149e-12 </wgt>
<wgt id='1217'> +1.2816646e-12 </wgt>
<wgt id='1218'> +1.2909407e-12 </wgt>
<wgt id='1219'> +1.2842376e-12 </wgt>
<wgt id='1220'> +1.2900296e-12 </wgt>
<wgt id='1221'> +1.2860584e-12 </wgt>
<wgt id='1222'> +1.2833952e-12 </wgt>
<wgt id='1223'> +1.2913661e-12 </wgt>
<wgt id='1224'> +1.2877803e-12 </wgt>
<wgt id='1225'> +1.2860780e-12 </wgt>
<wgt id='1226'> +1.2848214e-12 </wgt>
<wgt id='1227'> +1.2877613e-12 </wgt>
<wgt id='1228'> +1.2826374e-12 </wgt>
<wgt id='1229'> +1.2880452e-12 </wgt>
<wgt id='1230'> +1.2806753e-12 </wgt>
<wgt id='1231'> +1.2806677e-12 </wgt>
<wgt id='1232'> +1.2845326e-12 </wgt>
<wgt id='1233'> +1.2870448e-12 </wgt>
<wgt id='1234'> +1.2865548e-12 </wgt>
<wgt id='1235'> +1.2779770e-12 </wgt>
<wgt id='1236'> +1.2810876e-12 </wgt>
<wgt id='1237'> +1.2839463e-12 </wgt>
<wgt id='1238'> +1.2887335e-12 </wgt>
<wgt id='1239'> +1.2907408e-12 </wgt>
<wgt id='1240'> +1.2926073e-12 </wgt>
<wgt id='1241'> +1.2848966e-12 </wgt>
<wgt id='1242'> +1.2811374e-12 </wgt>
<wgt id='1243'> +1.2886680e-12 </wgt>
<wgt id='1244'> +1.2771533e-12 </wgt>
<wgt id='1245'> +1.2906058e-12 </wgt>
<wgt id='1246'> +1.2858034e-12 </wgt>
<wgt id='1247'> +1.2841814e-12 </wgt>
<wgt id='1248'> +1.2848172e-12 </wgt>
<wgt id='1249'> +1.2850059e-12 </wgt>
<wgt id='1250'> +1.2856138e-12 </wgt>
<wgt id='1251'> +1.2844175e-12 </wgt>
<wgt id='1252'> +1.2821155e-12 </wgt>
<wgt id='1253'> +1.2871031e-12 </wgt>
<wgt id='1254'> +1.2737579e-12 </wgt>
<wgt id='1255'> +1.2916443e-12 </wgt>
<wgt id='1256'> +1.2893739e-12 </wgt>
<wgt id='1257'> +1.2736497e-12 </wgt>
<wgt id='1258'> +1.3030727e-12 </wgt>
<wgt id='1259'> +1.2679008e-12 </wgt>
<wgt id='1260'> +1.2883987e-12 </wgt>
<wgt id='1261'> +1.2809834e-12 </wgt>
<wgt id='1262'> +1.2863773e-12 </wgt>
<wgt id='1263'> +1.2840806e-12 </wgt>
<wgt id='1264'> +1.2892060e-12 </wgt>
<wgt id='1265'> +1.2827565e-12 </wgt>
<wgt id='1266'> +1.2831224e-12 </wgt>
<wgt id='1267'> +1.2868046e-12 </wgt>
<wgt id='1268'> +1.2845498e-12 </wgt>
<wgt id='1269'> +1.2887732e-12 </wgt>
<wgt id='1270'> +1.2787039e-12 </wgt>
<wgt id='1271'> +1.2773362e-12 </wgt>
<wgt id='1272'> +1.2852701e-12 </wgt>
<wgt id='1273'> +1.2841120e-12 </wgt>
<wgt id='1274'> +1.2867132e-12 </wgt>
<wgt id='1275'> +1.2809045e-12 </wgt>
<wgt id='1276'> +1.2865933e-12 </wgt>
<wgt id='1277'> +1.2818064e-12 </wgt>
<wgt id='1278'> +1.2837278e-12 </wgt>
<wgt id='1279'> +1.2804084e-12 </wgt>
<wgt id='1280'> +1.2856293e-12 </wgt>
<wgt id='1281'> +1.2807379e-12 </wgt>
<wgt id='1282'> +1.2848966e-12 </wgt>
<wgt id='1283'> +1.2759319e-12 </wgt>
<wgt id='1284'> +1.2793140e-12 </wgt>
<wgt id='1285'> +1.2823992e-12 </wgt>
<wgt id='1286'> +1.2873597e-12 </wgt>
<wgt id='1287'> +1.2894415e-12 </wgt>
<wgt id='1288'> +1.2911839e-12 </wgt>
<wgt id='1289'> +1.3386537e-12 </wgt>
<wgt id='1290'> +1.3403789e-12 </wgt>
<wgt id='1291'> +1.3367436e-12 </wgt>
<wgt id='1292'> +1.3338416e-12 </wgt>
<wgt id='1293'> +1.3421077e-12 </wgt>
<wgt id='1294'> +1.3391723e-12 </wgt>
<wgt id='1295'> +1.3381421e-12 </wgt>
<wgt id='1296'> +1.3329262e-12 </wgt>
<wgt id='1297'> +1.3456981e-12 </wgt>
<wgt id='1298'> +1.3435322e-12 </wgt>
<wgt id='1299'> +1.3325102e-12 </wgt>
<wgt id='1300'> +1.3414535e-12 </wgt>
<wgt id='1301'> +1.3329765e-12 </wgt>
<wgt id='1302'> +1.3377122e-12 </wgt>
<wgt id='1303'> +1.3398998e-12 </wgt>
<wgt id='1304'> +1.3363457e-12 </wgt>
<wgt id='1305'> +1.3401693e-12 </wgt>
<wgt id='1306'> +1.3332121e-12 </wgt>
<wgt id='1307'> +1.3448713e-12 </wgt>
<wgt id='1308'> +1.3455771e-12 </wgt>
<wgt id='1309'> +1.3333760e-12 </wgt>
<wgt id='1310'> +1.3382611e-12 </wgt>
<wgt id='1311'> +1.3391185e-12 </wgt>
<wgt id='1312'> +1.3343919e-12 </wgt>
<wgt id='1313'> +1.3430931e-12 </wgt>
<wgt id='1314'> +1.3470131e-12 </wgt>
<wgt id='1315'> +1.3248298e-12 </wgt>
<wgt id='1316'> +1.3437389e-12 </wgt>
<wgt id='1317'> +1.3388235e-12 </wgt>
<wgt id='1318'> +1.3463705e-12 </wgt>
<wgt id='1319'> +1.3293677e-12 </wgt>
<wgt id='1320'> +1.3460819e-12 </wgt>
<wgt id='1321'> +1.3321706e-12 </wgt>
<wgt id='1322'> +1.3381754e-12 </wgt>
<wgt id='1323'> +1.3389294e-12 </wgt>
<wgt id='1324'> +1.3369127e-12 </wgt>
<wgt id='1325'> +1.3463749e-12 </wgt>
<wgt id='1326'> +1.3388526e-12 </wgt>
<wgt id='1327'> +1.3400847e-12 </wgt>
<wgt id='1328'> +1.3390037e-12 </wgt>
<wgt id='1329'> +1.3381686e-12 </wgt>
<wgt id='1330'> +1.3199500e-12 </wgt>
<wgt id='1331'> +1.3514967e-12 </wgt>
<wgt id='1332'> +1.3584835e-12 </wgt>
<wgt id='1333'> +1.3248193e-12 </wgt>
<wgt id='1334'> +1.3346409e-12 </wgt>
<wgt id='1335'> +1.3485869e-12 </wgt>
<wgt id='1336'> +1.3342712e-12 </wgt>
<wgt id='1337'> +1.3350641e-12 </wgt>
<wgt id='1338'> +1.3373642e-12 </wgt>
<wgt id='1339'> +1.3387060e-12 </wgt>
<wgt id='1340'> +1.3199202e-12 </wgt>
<wgt id='1341'> +1.3218673e-12 </wgt>
<wgt id='1342'> +1.3178130e-12 </wgt>
<wgt id='1343'> +1.3149823e-12 </wgt>
<wgt id='1344'> +1.3232524e-12 </wgt>
<wgt id='1345'> +1.3203910e-12 </wgt>
<wgt id='1346'> +1.3194386e-12 </wgt>
<wgt id='1347'> +1.3141766e-12 </wgt>
<wgt id='1348'> +1.3263145e-12 </wgt>
<wgt id='1349'> +1.3242961e-12 </wgt>
<wgt id='1350'> +1.3156064e-12 </wgt>
<wgt id='1351'> +1.3228069e-12 </wgt>
<wgt id='1352'> +1.3136602e-12 </wgt>
<wgt id='1353'> +1.3185975e-12 </wgt>
<wgt id='1354'> +1.3222775e-12 </wgt>
<wgt id='1355'> +1.3177428e-12 </wgt>
<wgt id='1356'> +1.3211251e-12 </wgt>
<wgt id='1357'> +1.3161513e-12 </wgt>
<wgt id='1358'> +1.3245065e-12 </wgt>
<wgt id='1359'> +1.3283864e-12 </wgt>
<wgt id='1360'> +1.3126276e-12 </wgt>
<wgt id='1361'> +1.3191682e-12 </wgt>
<wgt id='1362'> +1.3210448e-12 </wgt>
<wgt id='1363'> +1.3132599e-12 </wgt>
<wgt id='1364'> +1.3247320e-12 </wgt>
<wgt id='1365'> +1.3072759e-12 </wgt>
<wgt id='1366'> +1.3284007e-12 </wgt>
<wgt id='1367'> +1.3244870e-12 </wgt>
<wgt id='1368'> +1.3199251e-12 </wgt>
<wgt id='1369'> +1.3265500e-12 </wgt>
<wgt id='1370'> +1.3119959e-12 </wgt>
<wgt id='1371'> +1.3251123e-12 </wgt>
<wgt id='1372'> +1.3133992e-12 </wgt>
<wgt id='1373'> +1.3184962e-12 </wgt>
<wgt id='1374'> +1.3208065e-12 </wgt>
<wgt id='1375'> +1.3181206e-12 </wgt>
<wgt id='1376'> +1.3280248e-12 </wgt>
<wgt id='1377'> +1.3202612e-12 </wgt>
<wgt id='1378'> +1.3215714e-12 </wgt>
<wgt id='1379'> +1.3198944e-12 </wgt>
<wgt id='1380'> +1.3197974e-12 </wgt>
<wgt id='1381'> +1.3007893e-12 </wgt>
<wgt id='1382'> +1.3314006e-12 </wgt>
<wgt id='1383'> +1.3401075e-12 </wgt>
<wgt id='1384'> +1.3045676e-12 </wgt>
<wgt id='1385'> +1.3159339e-12 </wgt>
<wgt id='1386'> +1.3292259e-12 </wgt>
<wgt id='1387'> +1.3143124e-12 </wgt>
<wgt id='1388'> +1.3157936e-12 </wgt>
<wgt id='1389'> +1.3170511e-12 </wgt>
<wgt id='1390'> +1.3202645e-12 </wgt>
<wgt id='1391'> +1.2833208e-12 </wgt>
<wgt id='1392'> +1.2585015e-12 </wgt>
<wgt id='1393'> +1.2664847e-12 </wgt>
<wgt id='1394'> +1.2749423e-12 </wgt>
<wgt id='1395'> +1.2905106e-12 </wgt>
<wgt id='1396'> +1.2832245e-12 </wgt>
<wgt id='1397'> +1.2492959e-12 </wgt>
<wgt id='1398'> +1.2564787e-12 </wgt>
<wgt id='1399'> +1.2631110e-12 </wgt>
<wgt id='1400'> +1.2696060e-12 </wgt>
<wgt id='1401'> +1.2764186e-12 </wgt>
<wgt id='1402'> +1.2892802e-12 </wgt>
<wgt id='1403'> +1.2955734e-12 </wgt>
<wgt id='1404'> +1.3013965e-12 </wgt>
<wgt id='1405'> +1.2832245e-12 </wgt>
<wgt id='1406'> +1.2789012e-12 </wgt>
<wgt id='1407'> +1.2813298e-12 </wgt>
<wgt id='1408'> +1.2850583e-12 </wgt>
<wgt id='1409'> +1.2867237e-12 </wgt>
<wgt id='1410'> +1.2821268e-12 </wgt>
<wgt id='1411'> +1.2827205e-12 </wgt>
<wgt id='1412'> +1.2813044e-12 </wgt>
<wgt id='1413'> +1.2876240e-12 </wgt>
<wgt id='1414'> +1.2766213e-12 </wgt>
<wgt id='1415'> +1.2767789e-12 </wgt>
<wgt id='1416'> +1.2842932e-12 </wgt>
<wgt id='1417'> +1.2745229e-12 </wgt>
<wgt id='1418'> +1.2896835e-12 </wgt>
<wgt id='1419'> +1.2838702e-12 </wgt>
<wgt id='1420'> +1.2804336e-12 </wgt>
<wgt id='1421'> +1.2707350e-12 </wgt>
<wgt id='1422'> +1.2870395e-12 </wgt>
<wgt id='1423'> +1.2818762e-12 </wgt>
<wgt id='1424'> +1.2824439e-12 </wgt>
<wgt id='1425'> +1.2789423e-12 </wgt>
<wgt id='1426'> +1.2855533e-12 </wgt>
<wgt id='1427'> +1.2836494e-12 </wgt>
<wgt id='1428'> +1.2811112e-12 </wgt>
<wgt id='1429'> +1.2757982e-12 </wgt>
<wgt id='1430'> +1.2906961e-12 </wgt>
<wgt id='1431'> +1.2854644e-12 </wgt>
<wgt id='1432'> +1.2797565e-12 </wgt>
<wgt id='1433'> +1.2897375e-12 </wgt>
<wgt id='1434'> +1.2741344e-12 </wgt>
<wgt id='1435'> +1.2862255e-12 </wgt>
<wgt id='1436'> +1.2720896e-12 </wgt>
<wgt id='1437'> +1.2876672e-12 </wgt>
<wgt id='1438'> +1.2808775e-12 </wgt>
<wgt id='1439'> +1.2765955e-12 </wgt>
<wgt id='1440'> +1.2954558e-12 </wgt>
<wgt id='1441'> +1.2842142e-12 </wgt>
<wgt id='1442'> +1.2784138e-12 </wgt>
<wgt id='1443'> +1.2802292e-12 </wgt>
<wgt id='1444'> +1.2867814e-12 </wgt>
<wgt id='1445'> +1.2904377e-12 </wgt>
<wgt id='1446'> +1.2794026e-12 </wgt>
<wgt id='1447'> +1.2826145e-12 </wgt>
<wgt id='1448'> +1.2830576e-12 </wgt>
<wgt id='1449'> +1.2826560e-12 </wgt>
<wgt id='1450'> +1.2815399e-12 </wgt>
<wgt id='1451'> +1.2893224e-12 </wgt>
<wgt id='1452'> +1.2614366e-12 </wgt>
<wgt id='1453'> +1.2839033e-12 </wgt>
<wgt id='1454'> +1.2704868e-12 </wgt>
<wgt id='1455'> +1.2685839e-12 </wgt>
<wgt id='1456'> +1.2872558e-12 </wgt>
<wgt id='1457'> +1.2871236e-12 </wgt>
<wgt id='1458'> +1.2795571e-12 </wgt>
<wgt id='1459'> +1.2846551e-12 </wgt>
<wgt id='1460'> +1.2765426e-12 </wgt>
<wgt id='1461'> +1.2821268e-12 </wgt>
<wgt id='1462'> +1.2759336e-12 </wgt>
<wgt id='1463'> +1.2905881e-12 </wgt>
<wgt id='1464'> +1.2836277e-12 </wgt>
<wgt id='1465'> +1.2575516e-12 </wgt>
<wgt id='1466'> +1.2630913e-12 </wgt>
<wgt id='1467'> +1.2689355e-12 </wgt>
<wgt id='1468'> +1.2733085e-12 </wgt>
<wgt id='1469'> +1.2786073e-12 </wgt>
<wgt id='1470'> +1.2891372e-12 </wgt>
<wgt id='1471'> +1.2932012e-12 </wgt>
<wgt id='1472'> +1.2982883e-12 </wgt>
<wgt id='1473'> +1.2836277e-12 </wgt>
<wgt id='1474'> +1.2788813e-12 </wgt>
<wgt id='1475'> +1.2806530e-12 </wgt>
<wgt id='1476'> +1.2856246e-12 </wgt>
<wgt id='1477'> +1.2875909e-12 </wgt>
<wgt id='1478'> +1.2569875e-12 </wgt>
<wgt id='1479'> +1.2544454e-12 </wgt>
<wgt id='1480'> +1.2577526e-12 </wgt>
<wgt id='1481'> +1.2505305e-12 </wgt>
<wgt id='1482'> +1.2545169e-12 </wgt>
<wgt id='1483'> +1.2437485e-12 </wgt>
<wgt id='1484'> +1.2593815e-12 </wgt>
<wgt id='1485'> +1.2533315e-12 </wgt>
<wgt id='1486'> +1.2578451e-12 </wgt>
<wgt id='1487'> +1.2563647e-12 </wgt>
<wgt id='1488'> +1.2543866e-12 </wgt>
<wgt id='1489'> +1.2788624e-12 </wgt>
<wgt id='1490'> +1.2548289e-12 </wgt>
<wgt id='1491'> +1.2554167e-12 </wgt>
<wgt id='1492'> +1.2586704e-12 </wgt>
<wgt id='1493'> +1.2474423e-12 </wgt>
<wgt id='1494'> +1.2696806e-12 </wgt>
<wgt id='1495'> +1.2532900e-12 </wgt>
<wgt id='1496'> +1.2558414e-12 </wgt>
<wgt id='1497'> +1.2561375e-12 </wgt>
<wgt id='1498'> +1.2563679e-12 </wgt>
<wgt id='1499'> +1.2581725e-12 </wgt>
<wgt id='1500'> +1.2572252e-12 </wgt>
<wgt id='1501'> +1.2567606e-12 </wgt>
<wgt id='1502'> +1.2571089e-12 </wgt>
<wgt id='1503'> +1.2565711e-12 </wgt>
<wgt id='1504'> +1.2550126e-12 </wgt>
<wgt id='1505'> +1.2565535e-12 </wgt>
<wgt id='1506'> +1.2549244e-12 </wgt>
<wgt id='1507'> +1.2552678e-12 </wgt>
<wgt id='1508'> +1.2610009e-12 </wgt>
<wgt id='1509'> +1.3122701e-12 </wgt>
<wgt id='1510'> +1.3110660e-12 </wgt>
<wgt id='1511'> +1.3168047e-12 </wgt>
<wgt id='1512'> +1.3151760e-12 </wgt>
<wgt id='1513'> +1.3174645e-12 </wgt>
<wgt id='1514'> +1.3103898e-12 </wgt>
<wgt id='1515'> +1.3079468e-12 </wgt>
<wgt id='1516'> +1.3094240e-12 </wgt>
<wgt id='1517'> +1.3106975e-12 </wgt>
<wgt id='1518'> +1.3165054e-12 </wgt>
<wgt id='1519'> +1.3076567e-12 </wgt>
<wgt id='1520'> +1.3159790e-12 </wgt>
<wgt id='1521'> +1.3199041e-12 </wgt>
<wgt id='1522'> +1.3189000e-12 </wgt>
<wgt id='1523'> +1.3188935e-12 </wgt>
<wgt id='1524'> +1.3139147e-12 </wgt>
<wgt id='1525'> +1.3131780e-12 </wgt>
<wgt id='1526'> +1.3097548e-12 </wgt>
<wgt id='1527'> +1.3122138e-12 </wgt>
<wgt id='1528'> +1.3142398e-12 </wgt>
<wgt id='1529'> +1.3129634e-12 </wgt>
<wgt id='1530'> +1.3168334e-12 </wgt>
<wgt id='1531'> +1.3127829e-12 </wgt>
<wgt id='1532'> +1.3108934e-12 </wgt>
<wgt id='1533'> +1.3116741e-12 </wgt>
<wgt id='1534'> +1.3153643e-12 </wgt>
<wgt id='1535'> +1.3058730e-12 </wgt>
<wgt id='1536'> +1.3088056e-12 </wgt>
<wgt id='1537'> +1.3103931e-12 </wgt>
<wgt id='1538'> +1.3137553e-12 </wgt>
<wgt id='1539'> +1.3163628e-12 </wgt>
<wgt id='1540'> +1.3134400e-12 </wgt>
<wgt id='1541'> +1.3125460e-12 </wgt>
<wgt id='1542'> +1.3115391e-12 </wgt>
<wgt id='1543'> +1.3108125e-12 </wgt>
<wgt id='1544'> +1.3112874e-12 </wgt>
<wgt id='1545'> +1.3139415e-12 </wgt>
<wgt id='1546'> +1.3119272e-12 </wgt>
<wgt id='1547'> +1.3130661e-12 </wgt>
<wgt id='1548'> +1.3116172e-12 </wgt>
<wgt id='1549'> +1.3108946e-12 </wgt>
<wgt id='1550'> +1.3146690e-12 </wgt>
<wgt id='1551'> +1.3128249e-12 </wgt>
<wgt id='1552'> +1.3125203e-12 </wgt>
<wgt id='1553'> +1.3144935e-12 </wgt>
<wgt id='1554'> +1.3139750e-12 </wgt>
<wgt id='1555'> +1.3135306e-12 </wgt>
<wgt id='1556'> +1.3116214e-12 </wgt>
<wgt id='1557'> +1.3124557e-12 </wgt>
<wgt id='1558'> +1.3131437e-12 </wgt>
<wgt id='1559'> +1.3128605e-12 </wgt>
<wgt id='1560'> +1.3136360e-12 </wgt>
<wgt id='1561'> +1.3120100e-12 </wgt>
<wgt id='1562'> +1.3123274e-12 </wgt>
<wgt id='1563'> +1.3128233e-12 </wgt>
<wgt id='1564'> +1.3101948e-12 </wgt>
<wgt id='1565'> +1.3122538e-12 </wgt>
<wgt id='1566'> +1.3118854e-12 </wgt>
<wgt id='1567'> +1.3110984e-12 </wgt>
<wgt id='1568'> +1.3138742e-12 </wgt>
<wgt id='1569'> +1.3128579e-12 </wgt>
<wgt id='1570'> +1.3112336e-12 </wgt>
<wgt id='1571'> +1.3124148e-12 </wgt>
<wgt id='1572'> +1.3111913e-12 </wgt>
<wgt id='1573'> +1.3111826e-12 </wgt>
<wgt id='1574'> +1.3123984e-12 </wgt>
<wgt id='1575'> +1.3125470e-12 </wgt>
<wgt id='1576'> +1.3115566e-12 </wgt>
<wgt id='1577'> +1.3113463e-12 </wgt>
<wgt id='1578'> +1.3125712e-12 </wgt>
<wgt id='1579'> +1.3121736e-12 </wgt>
<wgt id='1580'> +1.3130803e-12 </wgt>
<wgt id='1581'> +1.3118917e-12 </wgt>
<wgt id='1582'> +1.3118750e-12 </wgt>
<wgt id='1583'> +1.3118536e-12 </wgt>
<wgt id='1584'> +1.3122178e-12 </wgt>
<wgt id='1585'> +1.3122011e-12 </wgt>
<wgt id='1586'> +1.3119787e-12 </wgt>
<wgt id='1587'> +1.3121653e-12 </wgt>
<wgt id='1588'> +1.3128830e-12 </wgt>
<wgt id='1589'> +1.3118026e-12 </wgt>
<wgt id='1590'> +1.3119144e-12 </wgt>
<wgt id='1591'> +1.3120481e-12 </wgt>
<wgt id='1592'> +1.3122086e-12 </wgt>
<wgt id='1593'> +1.3125296e-12 </wgt>
<wgt id='1594'> +1.3124435e-12 </wgt>
<wgt id='1595'> +1.3122410e-12 </wgt>
<wgt id='1596'> +1.3122806e-12 </wgt>
<wgt id='1597'> +1.3125082e-12 </wgt>
<wgt id='1598'> +1.3123954e-12 </wgt>
<wgt id='1599'> +1.3126848e-12 </wgt>
<wgt id='1600'> +1.3118963e-12 </wgt>
<wgt id='1601'> +1.3123267e-12 </wgt>
<wgt id='1602'> +1.3123293e-12 </wgt>
<wgt id='1603'> +1.3124291e-12 </wgt>
<wgt id='1604'> +1.3123759e-12 </wgt>
<wgt id='1605'> +1.3124326e-12 </wgt>
<wgt id='1606'> +1.3120643e-12 </wgt>
<wgt id='1607'> +1.3119109e-12 </wgt>
<wgt id='1608'> +1.3119585e-12 </wgt>
<wgt id='1609'> +1.3126052e-12 </wgt>
<wgt id='1610'> +1.2979808e-12 </wgt>
<wgt id='1611'> +1.3246792e-12 </wgt>
<wgt id='1612'> +1.5053980e-12 </wgt>
<wgt id='1613'> +1.4980816e-12 </wgt>
<wgt id='1614'> +1.5200682e-12 </wgt>
<wgt id='1615'> +1.4868558e-12 </wgt>
<wgt id='1616'> +1.5500660e-12 </wgt>
<wgt id='1617'> +1.5328685e-12 </wgt>
<wgt id='1618'> +1.4975627e-12 </wgt>
<wgt id='1619'> +1.5145183e-12 </wgt>
<wgt id='1620'> +1.4695164e-12 </wgt>
<wgt id='1621'> +1.5100895e-12 </wgt>
<wgt id='1622'> +1.5071015e-12 </wgt>
<wgt id='1623'> +1.5168010e-12 </wgt>
<wgt id='1624'> +1.4759922e-12 </wgt>
<wgt id='1625'> +1.4897902e-12 </wgt>
<wgt id='1626'> +1.4918913e-12 </wgt>
<wgt id='1627'> +1.4990793e-12 </wgt>
<wgt id='1628'> +1.5174044e-12 </wgt>
<wgt id='1629'> +1.5475670e-12 </wgt>
<wgt id='1630'> +1.5135706e-12 </wgt>
<wgt id='1631'> +1.4822601e-12 </wgt>
<wgt id='1632'> +1.4727429e-12 </wgt>
<wgt id='1633'> +1.4727559e-12 </wgt>
<wgt id='1634'> +1.5678374e-12 </wgt>
<wgt id='1635'> +1.5076613e-12 </wgt>
<wgt id='1636'> +1.5380621e-12 </wgt>
<wgt id='1637'> +1.4687108e-12 </wgt>
<wgt id='1638'> +1.5237436e-12 </wgt>
<wgt id='1639'> +1.5184483e-12 </wgt>
<wgt id='1640'> +1.5334700e-12 </wgt>
<wgt id='1641'> +1.4841493e-12 </wgt>
<wgt id='1642'> +1.5030564e-12 </wgt>
<wgt id='1643'> +1.5496083e-12 </wgt>
<wgt id='1644'> +1.4423821e-12 </wgt>
<wgt id='1645'> +1.5149690e-12 </wgt>
<wgt id='1646'> +1.4968605e-12 </wgt>
<wgt id='1647'> +1.5041861e-12 </wgt>
<wgt id='1648'> +1.5064040e-12 </wgt>
<wgt id='1649'> +1.5069980e-12 </wgt>
<wgt id='1650'> +1.4958010e-12 </wgt>
<wgt id='1651'> +1.4632387e-12 </wgt>
<wgt id='1652'> +1.5003808e-12 </wgt>
<wgt id='1653'> +1.5450891e-12 </wgt>
<wgt id='1654'> +1.5095788e-12 </wgt>
<wgt id='1655'> +1.4748404e-12 </wgt>
<wgt id='1656'> +1.4606661e-12 </wgt>
<wgt id='1657'> +1.4972410e-12 </wgt>
<wgt id='1658'> +1.4631701e-12 </wgt>
<wgt id='1659'> +1.4759922e-12 </wgt>
<wgt id='1660'> +1.5023524e-12 </wgt>
<wgt id='1661'> +1.4878881e-12 </wgt>
<wgt id='1662'> +1.5008303e-12 </wgt>
<wgt id='1663'> +1.4965493e-12 </wgt>
<wgt id='1664'> +1.5073673e-12 </wgt>
<wgt id='1665'> +1.4740827e-12 </wgt>
<wgt id='1666'> +1.5182557e-12 </wgt>
<wgt id='1667'> +1.4909283e-12 </wgt>
<wgt id='1668'> +1.5480979e-12 </wgt>
<wgt id='1669'> +1.4610762e-12 </wgt>
<wgt id='1670'> +1.5179871e-12 </wgt>
<wgt id='1671'> +1.4818930e-12 </wgt>
<wgt id='1672'> +1.5107191e-12 </wgt>
<wgt id='1673'> +1.4788869e-12 </wgt>
<wgt id='1674'> +1.4870412e-12 </wgt>
<wgt id='1675'> +1.5481701e-12 </wgt>
<wgt id='1676'> +1.5391059e-12 </wgt>
<wgt id='1677'> +1.5668145e-12 </wgt>
<wgt id='1678'> +1.5104785e-12 </wgt>
<wgt id='1679'> +1.5346642e-12 </wgt>
<wgt id='1680'> +1.5190817e-12 </wgt>
<wgt id='1681'> +1.5294777e-12 </wgt>
<wgt id='1682'> +1.5064552e-12 </wgt>
<wgt id='1683'> +1.4813451e-12 </wgt>
<wgt id='1684'> +1.4872876e-12 </wgt>
<wgt id='1685'> +1.4983435e-12 </wgt>
<wgt id='1686'> +1.5130758e-12 </wgt>
<wgt id='1687'> +1.5500856e-12 </wgt>
<wgt id='1688'> +1.5204846e-12 </wgt>
<wgt id='1689'> +1.4796541e-12 </wgt>
<wgt id='1690'> +1.5434448e-12 </wgt>
<wgt id='1691'> +1.5524031e-12 </wgt>
<wgt id='1692'> +1.5256820e-12 </wgt>
<wgt id='1693'> +1.5386372e-12 </wgt>
<wgt id='1694'> +1.4457505e-12 </wgt>
<wgt id='1695'> +1.5077171e-12 </wgt>
<wgt id='1696'> +1.5545255e-12 </wgt>
<wgt id='1697'> +1.4981835e-12 </wgt>
<wgt id='1698'> +1.4974205e-12 </wgt>
<wgt id='1699'> +1.5191467e-12 </wgt>
<wgt id='1700'> +1.4944941e-12 </wgt>
<wgt id='1701'> +1.4863822e-12 </wgt>
<wgt id='1702'> +1.4994373e-12 </wgt>
<wgt id='1703'> +1.5293117e-12 </wgt>
<wgt id='1704'> +1.4800994e-12 </wgt>
<wgt id='1705'> +1.4863756e-12 </wgt>
<wgt id='1706'> +1.5108975e-12 </wgt>
<wgt id='1707'> +1.4915631e-12 </wgt>
<wgt id='1708'> +1.4680866e-12 </wgt>
<wgt id='1709'> +1.4981868e-12 </wgt>
<wgt id='1710'> +1.4815705e-12 </wgt>
<wgt id='1711'> +1.5595149e-12 </wgt>
<wgt id='1712'> +1.5071586e-12 </wgt>
<wgt id='1713'> +1.2361500e-12 </wgt>
<wgt id='1714'> +1.2068541e-12 </wgt>
<wgt id='1715'> +1.2575059e-12 </wgt>
<wgt id='1716'> +1.2615142e-12 </wgt>
<wgt id='1717'> +1.2313547e-12 </wgt>
<wgt id='1718'> +1.2341548e-12 </wgt>
<wgt id='1719'> +1.2411251e-12 </wgt>
<wgt id='1720'> +1.2585281e-12 </wgt>
<wgt id='1721'> +1.2130245e-12 </wgt>
<wgt id='1722'> +1.2224229e-12 </wgt>
<wgt id='1723'> +1.1875980e-12 </wgt>
<wgt id='1724'> +1.1877617e-12 </wgt>
<wgt id='1725'> +1.2520190e-12 </wgt>
<wgt id='1726'> +1.2954013e-12 </wgt>
<wgt id='1727'> +1.2021267e-12 </wgt>
<wgt id='1728'> +1.2366666e-12 </wgt>
<wgt id='1729'> +1.2426952e-12 </wgt>
<wgt id='1730'> +1.2107794e-12 </wgt>
<wgt id='1731'> +1.2020459e-12 </wgt>
<wgt id='1732'> +1.2515556e-12 </wgt>
<wgt id='1733'> +1.2594108e-12 </wgt>
<wgt id='1734'> +1.2513350e-12 </wgt>
<wgt id='1735'> +1.2070260e-12 </wgt>
<wgt id='1736'> +1.3071775e-12 </wgt>
<wgt id='1737'> +1.2557231e-12 </wgt>
<wgt id='1738'> +1.2608856e-12 </wgt>
<wgt id='1739'> +1.1966966e-12 </wgt>
<wgt id='1740'> +1.2318836e-12 </wgt>
<wgt id='1741'> +1.2426639e-12 </wgt>
<wgt id='1742'> +1.2382270e-12 </wgt>
<wgt id='1743'> +1.2650477e-12 </wgt>
<wgt id='1744'> +1.2682535e-12 </wgt>
<wgt id='1745'> +1.1576942e-12 </wgt>
<wgt id='1746'> +1.2628304e-12 </wgt>
<wgt id='1747'> +1.2440478e-12 </wgt>
<wgt id='1748'> +1.2515798e-12 </wgt>
<wgt id='1749'> +1.2634782e-12 </wgt>
<wgt id='1750'> +1.2532450e-12 </wgt>
<wgt id='1751'> +1.1964815e-12 </wgt>
<wgt id='1752'> +1.2170061e-12 </wgt>
<wgt id='1753'> +1.2539969e-12 </wgt>
<wgt id='1754'> +1.2386537e-12 </wgt>
<wgt id='1755'> +1.2697585e-12 </wgt>
<wgt id='1756'> +1.2508832e-12 </wgt>
<wgt id='1757'> +1.2201851e-12 </wgt>
<wgt id='1758'> +1.2540986e-12 </wgt>
<wgt id='1759'> +1.2516862e-12 </wgt>
<wgt id='1760'> +1.2002290e-12 </wgt>
<wgt id='1761'> +1.2112948e-12 </wgt>
<wgt id='1762'> +1.2478401e-12 </wgt>
<wgt id='1763'> +1.2574637e-12 </wgt>
<wgt id='1764'> +1.2306805e-12 </wgt>
<wgt id='1765'> +1.2387560e-12 </wgt>
<wgt id='1766'> +1.2379469e-12 </wgt>
<wgt id='1767'> +1.2393302e-12 </wgt>
<wgt id='1768'> +1.2358515e-12 </wgt>
<wgt id='1769'> +1.2040595e-12 </wgt>
<wgt id='1770'> +1.2827184e-12 </wgt>
<wgt id='1771'> +1.2359818e-12 </wgt>
<wgt id='1772'> +1.2765774e-12 </wgt>
<wgt id='1773'> +1.2311648e-12 </wgt>
<wgt id='1774'> +1.2424984e-12 </wgt>
<wgt id='1775'> +1.2459202e-12 </wgt>
<wgt id='1776'> +1.2631259e-12 </wgt>
<wgt id='1777'> +1.1823851e-12 </wgt>
<wgt id='1778'> +1.2235802e-12 </wgt>
<wgt id='1779'> +1.2520492e-12 </wgt>
<wgt id='1780'> +1.2373539e-12 </wgt>
<wgt id='1781'> +1.2289477e-12 </wgt>
<wgt id='1782'> +1.2081155e-12 </wgt>
<wgt id='1783'> +1.2348245e-12 </wgt>
<wgt id='1784'> +1.2477381e-12 </wgt>
<wgt id='1785'> +1.2073712e-12 </wgt>
<wgt id='1786'> +1.1469973e-12 </wgt>
<wgt id='1787'> +1.2663697e-12 </wgt>
<wgt id='1788'> +1.2431316e-12 </wgt>
<wgt id='1789'> +1.1655922e-12 </wgt>
<wgt id='1790'> +1.2387493e-12 </wgt>
<wgt id='1791'> +1.2605959e-12 </wgt>
<wgt id='1792'> +1.2081616e-12 </wgt>
<wgt id='1793'> +1.2420331e-12 </wgt>
<wgt id='1794'> +1.2368851e-12 </wgt>
<wgt id='1795'> +1.2433193e-12 </wgt>
<wgt id='1796'> +1.2278276e-12 </wgt>
<wgt id='1797'> +1.2422346e-12 </wgt>
<wgt id='1798'> +1.2252104e-12 </wgt>
<wgt id='1799'> +1.2336856e-12 </wgt>
<wgt id='1800'> +1.2243466e-12 </wgt>
<wgt id='1801'> +1.2339498e-12 </wgt>
<wgt id='1802'> +1.2296681e-12 </wgt>
<wgt id='1803'> +1.2492091e-12 </wgt>
<wgt id='1804'> +1.2135107e-12 </wgt>
<wgt id='1805'> +1.2493986e-12 </wgt>
<wgt id='1806'> +1.2288457e-12 </wgt>
<wgt id='1807'> +1.2496816e-12 </wgt>
<wgt id='1808'> +1.2356651e-12 </wgt>
<wgt id='1809'> +1.2224872e-12 </wgt>
<wgt id='1810'> +1.2386855e-12 </wgt>
<wgt id='1811'> +1.2838556e-12 </wgt>
<wgt id='1812'> +1.2629077e-12 </wgt>
<wgt id='1813'> +1.2505998e-12 </wgt>
<wgt id='1814'> +1.3184186e-12 </wgt>
<wgt id='1815'> +1.4651031e-12 </wgt>
<wgt id='1816'> +1.2361500e-12 </wgt>
<wgt id='1817'> +1.2068541e-12 </wgt>
<wgt id='1818'> +1.2575059e-12 </wgt>
<wgt id='1819'> +1.2615142e-12 </wgt>
<wgt id='1820'> +1.2313547e-12 </wgt>
<wgt id='1821'> +1.2341548e-12 </wgt>
<wgt id='1822'> +1.2411251e-12 </wgt>
<wgt id='1823'> +1.2585281e-12 </wgt>
<wgt id='1824'> +1.2130245e-12 </wgt>
<wgt id='1825'> +1.2224229e-12 </wgt>
<wgt id='1826'> +1.1875980e-12 </wgt>
<wgt id='1827'> +1.1877617e-12 </wgt>
<wgt id='1828'> +1.2520190e-12 </wgt>
<wgt id='1829'> +1.2954013e-12 </wgt>
<wgt id='1830'> +1.2021267e-12 </wgt>
<wgt id='1831'> +1.2366666e-12 </wgt>
<wgt id='1832'> +1.2426952e-12 </wgt>
<wgt id='1833'> +1.2107794e-12 </wgt>
<wgt id='1834'> +1.2020459e-12 </wgt>
<wgt id='1835'> +1.2515556e-12 </wgt>
<wgt id='1836'> +1.2594108e-12 </wgt>
<wgt id='1837'> +1.2513350e-12 </wgt>
<wgt id='1838'> +1.2070260e-12 </wgt>
<wgt id='1839'> +1.3071775e-12 </wgt>
<wgt id='1840'> +1.2557231e-12 </wgt>
<wgt id='1841'> +1.2608856e-12 </wgt>
<wgt id='1842'> +1.1966966e-12 </wgt>
<wgt id='1843'> +1.2318836e-12 </wgt>
<wgt id='1844'> +1.2426639e-12 </wgt>
<wgt id='1845'> +1.2382270e-12 </wgt>
<wgt id='1846'> +1.2650477e-12 </wgt>
<wgt id='1847'> +1.2682535e-12 </wgt>
<wgt id='1848'> +1.1576942e-12 </wgt>
<wgt id='1849'> +1.2628304e-12 </wgt>
<wgt id='1850'> +1.2440478e-12 </wgt>
<wgt id='1851'> +1.2515798e-12 </wgt>
<wgt id='1852'> +1.2634782e-12 </wgt>
<wgt id='1853'> +1.2532450e-12 </wgt>
<wgt id='1854'> +1.1964815e-12 </wgt>
<wgt id='1855'> +1.2170061e-12 </wgt>
<wgt id='1856'> +1.2539969e-12 </wgt>
<wgt id='1857'> +1.2386537e-12 </wgt>
<wgt id='1858'> +1.2697585e-12 </wgt>
<wgt id='1859'> +1.2508832e-12 </wgt>
<wgt id='1860'> +1.2201851e-12 </wgt>
<wgt id='1861'> +1.2540986e-12 </wgt>
<wgt id='1862'> +1.2516862e-12 </wgt>
<wgt id='1863'> +1.2002290e-12 </wgt>
<wgt id='1864'> +1.2112948e-12 </wgt>
<wgt id='1865'> +1.2478401e-12 </wgt>
<wgt id='1866'> +1.2574637e-12 </wgt>
<wgt id='1867'> +1.2306805e-12 </wgt>
<wgt id='1868'> +1.2387560e-12 </wgt>
<wgt id='1869'> +1.2379469e-12 </wgt>
<wgt id='1870'> +1.2393302e-12 </wgt>
<wgt id='1871'> +1.2358515e-12 </wgt>
<wgt id='1872'> +1.2040595e-12 </wgt>
<wgt id='1873'> +1.2827184e-12 </wgt>
<wgt id='1874'> +1.2359818e-12 </wgt>
<wgt id='1875'> +1.2765774e-12 </wgt>
<wgt id='1876'> +1.2311648e-12 </wgt>
<wgt id='1877'> +1.2424984e-12 </wgt>
<wgt id='1878'> +1.2459202e-12 </wgt>
<wgt id='1879'> +1.2631259e-12 </wgt>
<wgt id='1880'> +1.1823851e-12 </wgt>
<wgt id='1881'> +1.2235802e-12 </wgt>
<wgt id='1882'> +1.2520492e-12 </wgt>
<wgt id='1883'> +1.2373539e-12 </wgt>
<wgt id='1884'> +1.2289477e-12 </wgt>
<wgt id='1885'> +1.2081155e-12 </wgt>
<wgt id='1886'> +1.2348245e-12 </wgt>
<wgt id='1887'> +1.2477381e-12 </wgt>
<wgt id='1888'> +1.2073712e-12 </wgt>
<wgt id='1889'> +1.1469973e-12 </wgt>
<wgt id='1890'> +1.2663697e-12 </wgt>
<wgt id='1891'> +1.2431316e-12 </wgt>
<wgt id='1892'> +1.1655922e-12 </wgt>
<wgt id='1893'> +1.2387493e-12 </wgt>
<wgt id='1894'> +1.2605959e-12 </wgt>
<wgt id='1895'> +1.2081616e-12 </wgt>
<wgt id='1896'> +1.2420331e-12 </wgt>
<wgt id='1897'> +1.2368851e-12 </wgt>
<wgt id='1898'> +1.2433193e-12 </wgt>
<wgt id='1899'> +1.2278276e-12 </wgt>
<wgt id='1900'> +1.2422346e-12 </wgt>
<wgt id='1901'> +1.2252104e-12 </wgt>
<wgt id='1902'> +1.2336856e-12 </wgt>
<wgt id='1903'> +1.2243466e-12 </wgt>
<wgt id='1904'> +1.2339498e-12 </wgt>
<wgt id='1905'> +1.2296681e-12 </wgt>
<wgt id='1906'> +1.2492091e-12 </wgt>
<wgt id='1907'> +1.2135107e-12 </wgt>
<wgt id='1908'> +1.2493986e-12 </wgt>
<wgt id='1909'> +1.2288457e-12 </wgt>
<wgt id='1910'> +1.2496816e-12 </wgt>
<wgt id='1911'> +1.2356651e-12 </wgt>
<wgt id='1912'> +1.2224872e-12 </wgt>
<wgt id='1913'> +1.2386855e-12 </wgt>
<wgt id='1914'> +1.2838556e-12 </wgt>
<wgt id='1915'> +1.2629077e-12 </wgt>
<wgt id='1916'> +1.2505998e-12 </wgt>
<wgt id='1917'> +1.2278082e-12 </wgt>
<wgt id='1918'> +1.2403141e-12 </wgt>
<wgt id='1919'> +1.2722343e-12 </wgt>
</rwgt>
</event>
<event>
 9      1 +1.5538000e-12 6.13855300e+01 7.81860800e-03 1.26330500e-01
        2 -1    0    0  502    0 -0.0000000000e+00 +0.0000000000e+00 +6.2592806254e+02 6.2592806254e+02 0.0000000000e+00 0.0000e+00 -1.0000e+00
       21 -1    0    0  501  502 +0.0000000000e+00 -0.0000000000e+00 -1.5050386842e+00 1.5050386842e+00 0.0000000000e+00 0.0000e+00 -1.0000e+00
     1023  2    1    2    0    0 -1.5106041352e+01 +1.7007298277e+01 +5.1239537842e+02 5.1311934867e+02 1.5000049283e+01 0.0000e+00 0.0000e+00
  1000023  2    3    3    0    0 -8.3504572841e+00 +4.1599842363e+00 +2.8537668779e+02 2.8558214888e+02 5.5022014269e+00 0.0000e+00 0.0000e+00
        2  1    1    2  501    0 +1.5106041352e+01 -1.7007298277e+01 +1.1202764544e+02 1.1431375255e+02 0.0000000000e+00 0.0000e+00 -1.0000e+00
  1000022  1    4    4    0    0 -7.5676941917e+00 +3.4389680455e+00 +2.5162557673e+02 2.5181248452e+02 5.0000000000e+00 0.0000e+00 -1.0000e+00
      -13  1    4    4    0    0 -1.1572775652e-01 +2.1389121207e-01 +6.3334739768e+00 6.3390225957e+00 1.0570000000e-01 0.0000e+00 -1.0000e+00
       13  1    4    4    0    0 -6.6703533586e-01 +5.0712497883e-01 +2.7417637085e+01 2.7430641766e+01 1.0570000000e-01 0.0000e+00 1.0000e+00
  1000022  1    3    3    0    0 -6.7555840684e+00 +1.2847314040e+01 +2.2701869063e+02 2.2753719979e+02 5.0000000000e+00 0.0000e+00 -1.0000e+00
<mgrwt>
<rscale>  1 0.61385534E+02</rscale>
<asrwt>0</asrwt>
<pdfrwt beam="1">  1       21 0.23154491E-03 0.61385534E+02</pdfrwt>
<pdfrwt beam="2">  1        2 0.96296417E-01 0.61385534E+02</pdfrwt>
<totfact> 0.15847776E+07</totfact>
</mgrwt>
<rwgt>
<wgt id='1001'> +1.5538000e-12 </wgt>
<wgt id='1002'> +1.5254068e-12 </wgt>
<wgt id='1003'> +1.5307841e-12 </wgt>
<wgt id='1004'> +1.4253399e-12 </wgt>
<wgt id='1005'> +1.5538000e-12 </wgt>
<wgt id='1006'> +1.3830909e-12 </wgt>
<wgt id='1007'> +1.3496903e-12 </wgt>
<wgt id='1008'> +1.3559099e-12 </wgt>
<wgt id='1009'> +1.2398802e-12 </wgt>
<wgt id='1010'> +1.3830909e-12 </wgt>
<wgt id='1011'> +1.7746286e-12 </wgt>
<wgt id='1012'> +1.7560723e-12 </wgt>
<wgt id='1013'> +1.7597568e-12 </wgt>
<wgt id='1014'> +1.6794229e-12 </wgt>
<wgt id='1015'> +1.7746286e-12 </wgt>
<wgt id='1016'> +1.7951459e-12 </wgt>
<wgt id='1017'> +1.7908098e-12 </wgt>
<wgt id='1018'> +1.7918387e-12 </wgt>
<wgt id='1019'> +1.7597568e-12 </wgt>
<wgt id='1020'> +1.7951459e-12 </wgt>
<wgt id='1021'> +1.5979213e-12 </wgt>
<wgt id='1022'> +1.5845207e-12 </wgt>
<wgt id='1023'> +1.5871422e-12 </wgt>
<wgt id='1024'> +1.5307841e-12 </wgt>
<wgt id='1025'> +1.5979213e-12 </wgt>
<wgt id='1026'> +2.0502751e-12 </wgt>
<wgt id='1027'> +2.0616085e-12 </wgt>
<wgt id='1028'> +2.0598597e-12 </wgt>
<wgt id='1029'> +2.0734534e-12 </wgt>
<wgt id='1030'> +2.0502751e-12 </wgt>
<wgt id='1031'> +1.2842916e-12 </wgt>
<wgt id='1032'> +1.2300316e-12 </wgt>
<wgt id='1033'> +1.2398802e-12 </wgt>
<wgt id='1034'> +1.0591071e-12 </wgt>
<wgt id='1035'> +1.2842916e-12 </wgt>
<wgt id='1036'> +1.1431922e-12 </wgt>
<wgt id='1037'> +1.0883403e-12 </wgt>
<wgt id='1038'> +1.0982384e-12 </wgt>
<wgt id='1039'> +9.2130013e-13 </wgt>
<wgt id='1040'> +1.1431922e-12 </wgt>
<wgt id='1041'> +1.4668173e-12 </wgt>
<wgt id='1042'> +1.4160317e-12 </wgt>
<wgt id='1043'> +1.4253399e-12 </wgt>
<wgt id='1044'> +1.2479048e-12 </wgt>
<wgt id='1045'> +1.4668173e-12 </wgt>
<wgt id='1046'> +1.5538000e-12 </wgt>
<wgt id='1047'> +1.5486047e-12 </wgt>
<wgt id='1048'> +1.6095924e-12 </wgt>
<wgt id='1049'> +1.5068065e-12 </wgt>
<wgt id='1050'> +1.5222409e-12 </wgt>
<wgt id='1051'> +1.5172185e-12 </wgt>
<wgt id='1052'> +1.5168489e-12 </wgt>
<wgt id='1053'> +1.6105570e-12 </wgt>
<wgt id='1054'> +1.5866414e-12 </wgt>
<wgt id='1055'> +1.5395468e-12 </wgt>
<wgt id='1056'> +1.4896014e-12 </wgt>
<wgt id='1057'> +1.5374941e-12 </wgt>
<wgt id='1058'> +1.5189040e-12 </wgt>
<wgt id='1059'> +1.5644235e-12 </wgt>
<wgt id='1060'> +1.5675523e-12 </wgt>
<wgt id='1061'> +1.5801863e-12 </wgt>
<wgt id='1062'> +1.5436196e-12 </wgt>
<wgt id='1063'> +1.5103272e-12 </wgt>
<wgt id='1064'> +1.5488771e-12 </wgt>
<wgt id='1065'> +1.5939687e-12 </wgt>
<wgt id='1066'> +1.5590164e-12 </wgt>
<wgt id='1067'> +1.5644748e-12 </wgt>
<wgt id='1068'> +1.5927929e-12 </wgt>
<wgt id='1069'> +1.6081638e-12 </wgt>
<wgt id='1070'> +1.5468955e-12 </wgt>
<wgt id='1071'> +1.5698235e-12 </wgt>
<wgt id='1072'> +1.5715056e-12 </wgt>
<wgt id='1073'> +1.5345923e-12 </wgt>
<wgt id='1074'> +1.5582867e-12 </wgt>
<wgt id='1075'> +1.5433272e-12 </wgt>
<wgt id='1076'> +1.5659140e-12 </wgt>
<wgt id='1077'> +1.5696946e-12 </wgt>
<wgt id='1078'> +1.5268243e-12 </wgt>
<wgt id='1079'> +1.5585356e-12 </wgt>
<wgt id='1080'> +1.5415981e-12 </wgt>
<wgt id='1081'> +1.5048746e-12 </wgt>
<wgt id='1082'> +1.5512187e-12 </wgt>
<wgt id='1083'> +1.5352727e-12 </wgt>
<wgt id='1084'> +1.5369466e-12 </wgt>
<wgt id='1085'> +1.5780109e-12 </wgt>
<wgt id='1086'> +1.5949050e-12 </wgt>
<wgt id='1087'> +1.5433026e-12 </wgt>
<wgt id='1088'> +1.5497964e-12 </wgt>
<wgt id='1089'> +1.5287982e-12 </wgt>
<wgt id='1090'> +1.5533354e-12 </wgt>
<wgt id='1091'> +1.5618189e-12 </wgt>
<wgt id='1092'> +1.5432380e-12 </wgt>
<wgt id='1093'> +1.5808333e-12 </wgt>
<wgt id='1094'> +1.5988466e-12 </wgt>
<wgt id='1095'> +1.5944103e-12 </wgt>
<wgt id='1096'> +1.5242555e-12 </wgt>
<wgt id='1097'> +1.5508892e-12 </wgt>
<wgt id='1098'> +1.5792955e-12 </wgt>
<wgt id='1099'> +1.5468478e-12 </wgt>
<wgt id='1100'> +1.5705649e-12 </wgt>
<wgt id='1101'> +1.5678323e-12 </wgt>
<wgt id='1102'> +1.5374372e-12 </wgt>
<wgt id='1103'> +1.5531252e-12 </wgt>
<wgt id='1104'> +1.5656037e-12 </wgt>
<wgt id='1105'> +1.5148906e-12 </wgt>
<wgt id='1106'> +1.5585573e-12 </wgt>
<wgt id='1107'> +1.5852676e-12 </wgt>
<wgt id='1108'> +1.5475060e-12 </wgt>
<wgt id='1109'> +1.5399481e-12 </wgt>
<wgt id='1110'> +1.5555171e-12 </wgt>
<wgt id='1111'> +1.5561418e-12 </wgt>
<wgt id='1112'> +1.5806423e-12 </wgt>
<wgt id='1113'> +1.6044587e-12 </wgt>
<wgt id='1114'> +1.5799408e-12 </wgt>
<wgt id='1115'> +1.5879951e-12 </wgt>
<wgt id='1116'> +1.6053684e-12 </wgt>
<wgt id='1117'> +1.5459575e-12 </wgt>
<wgt id='1118'> +1.5930875e-12 </wgt>
<wgt id='1119'> +1.5171077e-12 </wgt>
<wgt id='1120'> +1.5476070e-12 </wgt>
<wgt id='1121'> +1.5303705e-12 </wgt>
<wgt id='1122'> +1.5432139e-12 </wgt>
<wgt id='1123'> +1.5743498e-12 </wgt>
<wgt id='1124'> +1.5834054e-12 </wgt>
<wgt id='1125'> +1.5130184e-12 </wgt>
<wgt id='1126'> +1.5239383e-12 </wgt>
<wgt id='1127'> +1.5560902e-12 </wgt>
<wgt id='1128'> +1.5436196e-12 </wgt>
<wgt id='1129'> +1.5122517e-12 </wgt>
<wgt id='1130'> +1.5425510e-12 </wgt>
<wgt id='1131'> +1.5680180e-12 </wgt>
<wgt id='1132'> +1.5641635e-12 </wgt>
<wgt id='1133'> +1.5351014e-12 </wgt>
<wgt id='1134'> +1.5179688e-12 </wgt>
<wgt id='1135'> +1.4917849e-12 </wgt>
<wgt id='1136'> +1.5256140e-12 </wgt>
<wgt id='1137'> +1.5579972e-12 </wgt>
<wgt id='1138'> +1.5443932e-12 </wgt>
<wgt id='1139'> +1.5442244e-12 </wgt>
<wgt id='1140'> +1.5706436e-12 </wgt>
<wgt id='1141'> +1.5485870e-12 </wgt>
<wgt id='1142'> +1.5899761e-12 </wgt>
<wgt id='1143'> +1.5035836e-12 </wgt>
<wgt id='1144'> +1.5525229e-12 </wgt>
<wgt id='1145'> +1.5847504e-12 </wgt>
<wgt id='1146'> +1.5611043e-12 </wgt>
<wgt id='1147'> +1.4030606e-12 </wgt>
<wgt id='1148'> +1.4287950e-12 </wgt>
<wgt id='1149'> +1.3553539e-12 </wgt>
<wgt id='1150'> +1.4074195e-12 </wgt>
<wgt id='1151'> +1.6042782e-12 </wgt>
<wgt id='1152'> +2.1773382e-12 </wgt>
<wgt id='1153'> +2.1793296e-12 </wgt>
<wgt id='1154'> +2.1761092e-12 </wgt>
<wgt id='1155'> +2.1716003e-12 </wgt>
<wgt id='1156'> +2.1802595e-12 </wgt>
<wgt id='1157'> +2.1808995e-12 </wgt>
<wgt id='1158'> +2.1724981e-12 </wgt>
<wgt id='1159'> +2.1803604e-12 </wgt>
<wgt id='1160'> +2.1754253e-12 </wgt>
<wgt id='1161'> +2.1734019e-12 </wgt>
<wgt id='1162'> +2.1800196e-12 </wgt>
<wgt id='1163'> +2.1770252e-12 </wgt>
<wgt id='1164'> +2.1776380e-12 </wgt>
<wgt id='1165'> +2.1806039e-12 </wgt>
<wgt id='1166'> +2.1739303e-12 </wgt>
<wgt id='1167'> +2.2017509e-12 </wgt>
<wgt id='1168'> +2.1474766e-12 </wgt>
<wgt id='1169'> +2.1849645e-12 </wgt>
<wgt id='1170'> +2.1716120e-12 </wgt>
<wgt id='1171'> +2.1704609e-12 </wgt>
<wgt id='1172'> +2.1863781e-12 </wgt>
<wgt id='1173'> +2.1533510e-12 </wgt>
<wgt id='1174'> +2.2024121e-12 </wgt>
<wgt id='1175'> +2.1796352e-12 </wgt>
<wgt id='1176'> +2.1750402e-12 </wgt>
<wgt id='1177'> +2.1720123e-12 </wgt>
<wgt id='1178'> +2.1909136e-12 </wgt>
<wgt id='1179'> +2.1759773e-12 </wgt>
<wgt id='1180'> +2.1731248e-12 </wgt>
<wgt id='1181'> +2.1822515e-12 </wgt>
<wgt id='1182'> +2.1706674e-12 </wgt>
<wgt id='1183'> +2.1720219e-12 </wgt>
<wgt id='1184'> +2.1775874e-12 </wgt>
<wgt id='1185'> +2.1731232e-12 </wgt>
<wgt id='1186'> +2.1793680e-12 </wgt>
<wgt id='1187'> +2.1807673e-12 </wgt>
<wgt id='1188'> +2.1761429e-12 </wgt>
<wgt id='1189'> +2.1715093e-12 </wgt>
<wgt id='1190'> +2.1573984e-12 </wgt>
<wgt id='1191'> +2.1804021e-12 </wgt>
<wgt id='1192'> +2.1819063e-12 </wgt>
<wgt id='1193'> +1.4053543e-12 </wgt>
<wgt id='1194'> +1.3921192e-12 </wgt>
<wgt id='1195'> +1.4162028e-12 </wgt>
<wgt id='1196'> +1.4047639e-12 </wgt>
<wgt id='1197'> +1.4060001e-12 </wgt>
<wgt id='1198'> +1.4043184e-12 </wgt>
<wgt id='1199'> +1.4069093e-12 </wgt>
<wgt id='1200'> +1.4018248e-12 </wgt>
<wgt id='1201'> +1.4077279e-12 </wgt>
<wgt id='1202'> +1.4044580e-12 </wgt>
<wgt id='1203'> +1.4065895e-12 </wgt>
<wgt id='1204'> +1.3999572e-12 </wgt>
<wgt id='1205'> +1.4084760e-12 </wgt>
<wgt id='1206'> +1.4084217e-12 </wgt>
<wgt id='1207'> +1.4011302e-12 </wgt>
<wgt id='1208'> +1.4123546e-12 </wgt>
<wgt id='1209'> +1.4028689e-12 </wgt>
<wgt id='1210'> +1.4052179e-12 </wgt>
<wgt id='1211'> +1.4019680e-12 </wgt>
<wgt id='1212'> +1.4056367e-12 </wgt>
<wgt id='1213'> +1.4054247e-12 </wgt>
<wgt id='1214'> +1.3910937e-12 </wgt>
<wgt id='1215'> +1.4256784e-12 </wgt>
<wgt id='1216'> +1.4132769e-12 </wgt>
<wgt id='1217'> +1.4003185e-12 </wgt>
<wgt id='1218'> +1.4089724e-12 </wgt>
<wgt id='1219'> +1.4032930e-12 </wgt>
<wgt id='1220'> +1.4128535e-12 </wgt>
<wgt id='1221'> +1.4036884e-12 </wgt>
<wgt id='1222'> +1.4240972e-12 </wgt>
<wgt id='1223'> +1.3785283e-12 </wgt>
<wgt id='1224'> +1.4092658e-12 </wgt>
<wgt id='1225'> +1.4037881e-12 </wgt>
<wgt id='1226'> +1.4041028e-12 </wgt>
<wgt id='1227'> +1.4064491e-12 </wgt>
<wgt id='1228'> +1.3975525e-12 </wgt>
<wgt id='1229'> +1.4086520e-12 </wgt>
<wgt id='1230'> +1.4060825e-12 </wgt>
<wgt id='1231'> +1.4133988e-12 </wgt>
<wgt id='1232'> +1.4063521e-12 </wgt>
<wgt id='1233'> +1.4050738e-12 </wgt>
<wgt id='1234'> +1.4053543e-12 </wgt>
<wgt id='1235'> +1.3983365e-12 </wgt>
<wgt id='1236'> +1.4010704e-12 </wgt>
<wgt id='1237'> +1.4034769e-12 </wgt>
<wgt id='1238'> +1.4074061e-12 </wgt>
<wgt id='1239'> +1.4089514e-12 </wgt>
<wgt id='1240'> +1.4105432e-12 </wgt>
<wgt id='1241'> +1.3452622e-12 </wgt>
<wgt id='1242'> +1.3315042e-12 </wgt>
<wgt id='1243'> +1.3588524e-12 </wgt>
<wgt id='1244'> +1.3493889e-12 </wgt>
<wgt id='1245'> +1.3421683e-12 </wgt>
<wgt id='1246'> +1.3409831e-12 </wgt>
<wgt id='1247'> +1.3489052e-12 </wgt>
<wgt id='1248'> +1.3452711e-12 </wgt>
<wgt id='1249'> +1.3452656e-12 </wgt>
<wgt id='1250'> +1.3462831e-12 </wgt>
<wgt id='1251'> +1.3445618e-12 </wgt>
<wgt id='1252'> +1.3426754e-12 </wgt>
<wgt id='1253'> +1.3472749e-12 </wgt>
<wgt id='1254'> +1.3407262e-12 </wgt>
<wgt id='1255'> +1.3479159e-12 </wgt>
<wgt id='1256'> +1.3428115e-12 </wgt>
<wgt id='1257'> +1.3514417e-12 </wgt>
<wgt id='1258'> +1.3579613e-12 </wgt>
<wgt id='1259'> +1.3322074e-12 </wgt>
<wgt id='1260'> +1.3478511e-12 </wgt>
<wgt id='1261'> +1.3426298e-12 </wgt>
<wgt id='1262'> +1.3475860e-12 </wgt>
<wgt id='1263'> +1.3446652e-12 </wgt>
<wgt id='1264'> +1.3502962e-12 </wgt>
<wgt id='1265'> +1.3430418e-12 </wgt>
<wgt id='1266'> +1.3259088e-12 </wgt>
<wgt id='1267'> +1.3633811e-12 </wgt>
<wgt id='1268'> +1.3521142e-12 </wgt>
<wgt id='1269'> +1.3397606e-12 </wgt>
<wgt id='1270'> +1.3497466e-12 </wgt>
<wgt id='1271'> +1.3469313e-12 </wgt>
<wgt id='1272'> +1.3485916e-12 </wgt>
<wgt id='1273'> +1.3448625e-12 </wgt>
<wgt id='1274'> +1.3464924e-12 </wgt>
<wgt id='1275'> +1.3435075e-12 </wgt>
<wgt id='1276'> +1.3512528e-12 </wgt>
<wgt id='1277'> +1.3376590e-12 </wgt>
<wgt id='1278'> +1.3556119e-12 </wgt>
<wgt id='1279'> +1.3500857e-12 </wgt>
<wgt id='1280'> +1.3456723e-12 </wgt>
<wgt id='1281'> +1.3476913e-12 </wgt>
<wgt id='1282'> +1.3452622e-12 </wgt>
<wgt id='1283'> +1.3384648e-12 </wgt>
<wgt id='1284'> +1.3412789e-12 </wgt>
<wgt id='1285'> +1.3434496e-12 </wgt>
<wgt id='1286'> +1.3471209e-12 </wgt>
<wgt id='1287'> +1.3483897e-12 </wgt>
<wgt id='1288'> +1.3494250e-12 </wgt>
<wgt id='1289'> +1.4479725e-12 </wgt>
<wgt id='1290'> +1.4508605e-12 </wgt>
<wgt id='1291'> +1.4448564e-12 </wgt>
<wgt id='1292'> +1.4489535e-12 </wgt>
<wgt id='1293'> +1.4472831e-12 </wgt>
<wgt id='1294'> +1.4349998e-12 </wgt>
<wgt id='1295'> +1.4604553e-12 </wgt>
<wgt id='1296'> +1.4522601e-12 </wgt>
<wgt id='1297'> +1.4425782e-12 </wgt>
<wgt id='1298'> +1.4535903e-12 </wgt>
<wgt id='1299'> +1.4408678e-12 </wgt>
<wgt id='1300'> +1.4508954e-12 </wgt>
<wgt id='1301'> +1.4421286e-12 </wgt>
<wgt id='1302'> +1.4437556e-12 </wgt>
<wgt id='1303'> +1.4538321e-12 </wgt>
<wgt id='1304'> +1.4464699e-12 </wgt>
<wgt id='1305'> +1.4489845e-12 </wgt>
<wgt id='1306'> +1.4502787e-12 </wgt>
<wgt id='1307'> +1.4452042e-12 </wgt>
<wgt id='1308'> +1.4412837e-12 </wgt>
<wgt id='1309'> +1.4530842e-12 </wgt>
<wgt id='1310'> +1.4474974e-12 </wgt>
<wgt id='1311'> +1.4486645e-12 </wgt>
<wgt id='1312'> +1.4567025e-12 </wgt>
<wgt id='1313'> +1.4396977e-12 </wgt>
<wgt id='1314'> +1.4300077e-12 </wgt>
<wgt id='1315'> +1.4638265e-12 </wgt>
<wgt id='1316'> +1.4555811e-12 </wgt>
<wgt id='1317'> +1.4484886e-12 </wgt>
<wgt id='1318'> +1.4586677e-12 </wgt>
<wgt id='1319'> +1.4344811e-12 </wgt>
<wgt id='1320'> +1.4639299e-12 </wgt>
<wgt id='1321'> +1.4338537e-12 </wgt>
<wgt id='1322'> +1.4480734e-12 </wgt>
<wgt id='1323'> +1.4483562e-12 </wgt>
<wgt id='1324'> +1.4450635e-12 </wgt>
<wgt id='1325'> +1.4547480e-12 </wgt>
<wgt id='1326'> +1.4468337e-12 </wgt>
<wgt id='1327'> +1.4514879e-12 </wgt>
<wgt id='1328'> +1.4473031e-12 </wgt>
<wgt id='1329'> +1.4481045e-12 </wgt>
<wgt id='1330'> +1.4545991e-12 </wgt>
<wgt id='1331'> +1.4426253e-12 </wgt>
<wgt id='1332'> +1.4591682e-12 </wgt>
<wgt id='1333'> +1.4509286e-12 </wgt>
<wgt id='1334'> +1.4458296e-12 </wgt>
<wgt id='1335'> +1.4541515e-12 </wgt>
<wgt id='1336'> +1.4496534e-12 </wgt>
<wgt id='1337'> +1.4550390e-12 </wgt>
<wgt id='1338'> +1.4480674e-12 </wgt>
<wgt id='1339'> +1.4492379e-12 </wgt>
<wgt id='1340'> +1.4149594e-12 </wgt>
<wgt id='1341'> +1.4177024e-12 </wgt>
<wgt id='1342'> +1.4120312e-12 </wgt>
<wgt id='1343'> +1.4160441e-12 </wgt>
<wgt id='1344'> +1.4142334e-12 </wgt>
<wgt id='1345'> +1.4014671e-12 </wgt>
<wgt id='1346'> +1.4274361e-12 </wgt>
<wgt id='1347'> +1.4199132e-12 </wgt>
<wgt id='1348'> +1.4093434e-12 </wgt>
<wgt id='1349'> +1.4201436e-12 </wgt>
<wgt id='1350'> +1.4098372e-12 </wgt>
<wgt id='1351'> +1.4176304e-12 </wgt>
<wgt id='1352'> +1.4091382e-12 </wgt>
<wgt id='1353'> +1.4097858e-12 </wgt>
<wgt id='1354'> +1.4242079e-12 </wgt>
<wgt id='1355'> +1.4143885e-12 </wgt>
<wgt id='1356'> +1.4152663e-12 </wgt>
<wgt id='1357'> +1.4160966e-12 </wgt>
<wgt id='1358'> +1.4133593e-12 </wgt>
<wgt id='1359'> +1.4080157e-12 </wgt>
<wgt id='1360'> +1.4209779e-12 </wgt>
<wgt id='1361'> +1.4152774e-12 </wgt>
<wgt id='1362'> +1.4147445e-12 </wgt>
<wgt id='1363'> +1.4299158e-12 </wgt>
<wgt id='1364'> +1.4056584e-12 </wgt>
<wgt id='1365'> +1.4226440e-12 </wgt>
<wgt id='1366'> +1.3998031e-12 </wgt>
<wgt id='1367'> +1.4225786e-12 </wgt>
<wgt id='1368'> +1.4144144e-12 </wgt>
<wgt id='1369'> +1.4236599e-12 </wgt>
<wgt id='1370'> +1.4041972e-12 </wgt>
<wgt id='1371'> +1.4281618e-12 </wgt>
<wgt id='1372'> +1.3987397e-12 </wgt>
<wgt id='1373'> +1.4121535e-12 </wgt>
<wgt id='1374'> +1.4180023e-12 </wgt>
<wgt id='1375'> +1.4121291e-12 </wgt>
<wgt id='1376'> +1.4219216e-12 </wgt>
<wgt id='1377'> +1.4138168e-12 </wgt>
<wgt id='1378'> +1.4186650e-12 </wgt>
<wgt id='1379'> +1.4144931e-12 </wgt>
<wgt id='1380'> +1.4149103e-12 </wgt>
<wgt id='1381'> +1.4218662e-12 </wgt>
<wgt id='1382'> +1.4096712e-12 </wgt>
<wgt id='1383'> +1.4244428e-12 </wgt>
<wgt id='1384'> +1.4187921e-12 </wgt>
<wgt id='1385'> +1.4131040e-12 </wgt>
<wgt id='1386'> +1.4199597e-12 </wgt>
<wgt id='1387'> +1.4164125e-12 </wgt>
<wgt id='1388'> +1.4223050e-12 </wgt>
<wgt id='1389'> +1.4148979e-12 </wgt>
<wgt id='1390'> +1.4169459e-12 </wgt>
<wgt id='1391'> +1.3888208e-12 </wgt>
<wgt id='1392'> +1.3423428e-12 </wgt>
<wgt id='1393'> +1.3583593e-12 </wgt>
<wgt id='1394'> +1.3739049e-12 </wgt>
<wgt id='1395'> +1.4048565e-12 </wgt>
<wgt id='1396'> +1.3894139e-12 </wgt>
<wgt id='1397'> +1.3716773e-12 </wgt>
<wgt id='1398'> +1.3741916e-12 </wgt>
<wgt id='1399'> +1.3769984e-12 </wgt>
<wgt id='1400'> +1.3806012e-12 </wgt>
<wgt id='1401'> +1.3849510e-12 </wgt>
<wgt id='1402'> +1.3938746e-12 </wgt>
<wgt id='1403'> +1.3988367e-12 </wgt>
<wgt id='1404'> +1.4039607e-12 </wgt>
<wgt id='1405'> +1.3894139e-12 </wgt>
<wgt id='1406'> +1.3852263e-12 </wgt>
<wgt id='1407'> +1.3873720e-12 </wgt>
<wgt id='1408'> +1.3912356e-12 </wgt>
<wgt id='1409'> +1.3926505e-12 </wgt>
<wgt id='1410'> +1.3169687e-12 </wgt>
<wgt id='1411'> +1.3221007e-12 </wgt>
<wgt id='1412'> +1.3103719e-12 </wgt>
<wgt id='1413'> +1.3107947e-12 </wgt>
<wgt id='1414'> +1.3231100e-12 </wgt>
<wgt id='1415'> +1.3152338e-12 </wgt>
<wgt id='1416'> +1.3176747e-12 </wgt>
<wgt id='1417'> +1.3136522e-12 </wgt>
<wgt id='1418'> +1.3202294e-12 </wgt>
<wgt id='1419'> +1.3181933e-12 </wgt>
<wgt id='1420'> +1.3157551e-12 </wgt>
<wgt id='1421'> +1.3053601e-12 </wgt>
<wgt id='1422'> +1.3218647e-12 </wgt>
<wgt id='1423'> +1.3155348e-12 </wgt>
<wgt id='1424'> +1.3186970e-12 </wgt>
<wgt id='1425'> +1.3092937e-12 </wgt>
<wgt id='1426'> +1.3252351e-12 </wgt>
<wgt id='1427'> +1.3035412e-12 </wgt>
<wgt id='1428'> +1.3240257e-12 </wgt>
<wgt id='1429'> +1.3209559e-12 </wgt>
<wgt id='1430'> +1.3115754e-12 </wgt>
<wgt id='1431'> +1.3177151e-12 </wgt>
<wgt id='1432'> +1.3163808e-12 </wgt>
<wgt id='1433'> +1.3039050e-12 </wgt>
<wgt id='1434'> +1.3271348e-12 </wgt>
<wgt id='1435'> +1.3095949e-12 </wgt>
<wgt id='1436'> +1.3356963e-12 </wgt>
<wgt id='1437'> +1.3234952e-12 </wgt>
<wgt id='1438'> +1.3192853e-12 </wgt>
<wgt id='1439'> +1.3106938e-12 </wgt>
<wgt id='1440'> +1.3282614e-12 </wgt>
<wgt id='1441'> +1.3212049e-12 </wgt>
<wgt id='1442'> +1.3078665e-12 </wgt>
<wgt id='1443'> +1.3134602e-12 </wgt>
<wgt id='1444'> +1.3257246e-12 </wgt>
<wgt id='1445'> +1.3288330e-12 </wgt>
<wgt id='1446'> +1.3125716e-12 </wgt>
<wgt id='1447'> +1.3182396e-12 </wgt>
<wgt id='1448'> +1.3193726e-12 </wgt>
<wgt id='1449'> +1.3169584e-12 </wgt>
<wgt id='1450'> +1.3162568e-12 </wgt>
<wgt id='1451'> +1.3156966e-12 </wgt>
<wgt id='1452'> +1.3220652e-12 </wgt>
<wgt id='1453'> +1.3172400e-12 </wgt>
<wgt id='1454'> +1.3164628e-12 </wgt>
<wgt id='1455'> +1.3257333e-12 </wgt>
<wgt id='1456'> +1.3225892e-12 </wgt>
<wgt id='1457'> +1.3231990e-12 </wgt>
<wgt id='1458'> +1.3156487e-12 </wgt>
<wgt id='1459'> +1.3218328e-12 </wgt>
<wgt id='1460'> +1.3251973e-12 </wgt>
<wgt id='1461'> +1.3169687e-12 </wgt>
<wgt id='1462'> +1.3050904e-12 </wgt>
<wgt id='1463'> +1.3252452e-12 </wgt>
<wgt id='1464'> +1.3148063e-12 </wgt>
<wgt id='1465'> +1.2937322e-12 </wgt>
<wgt id='1466'> +1.2970729e-12 </wgt>
<wgt id='1467'> +1.3009696e-12 </wgt>
<wgt id='1468'> +1.3067957e-12 </wgt>
<wgt id='1469'> +1.3103044e-12 </wgt>
<wgt id='1470'> +1.3197050e-12 </wgt>
<wgt id='1471'> +1.3241467e-12 </wgt>
<wgt id='1472'> +1.3288325e-12 </wgt>
<wgt id='1473'> +1.3148063e-12 </wgt>
<wgt id='1474'> +1.3111597e-12 </wgt>
<wgt id='1475'> +1.3135112e-12 </wgt>
<wgt id='1476'> +1.3161734e-12 </wgt>
<wgt id='1477'> +1.3173407e-12 </wgt>
<wgt id='1478'> +1.3624457e-12 </wgt>
<wgt id='1479'> +1.3625022e-12 </wgt>
<wgt id='1480'> +1.3483491e-12 </wgt>
<wgt id='1481'> +1.3796093e-12 </wgt>
<wgt id='1482'> +1.3636697e-12 </wgt>
<wgt id='1483'> +1.3467324e-12 </wgt>
<wgt id='1484'> +1.3530040e-12 </wgt>
<wgt id='1485'> +1.3701581e-12 </wgt>
<wgt id='1486'> +1.3622385e-12 </wgt>
<wgt id='1487'> +1.3733117e-12 </wgt>
<wgt id='1488'> +1.3598793e-12 </wgt>
<wgt id='1489'> +1.3649041e-12 </wgt>
<wgt id='1490'> +1.3590304e-12 </wgt>
<wgt id='1491'> +1.3679825e-12 </wgt>
<wgt id='1492'> +1.3637033e-12 </wgt>
<wgt id='1493'> +1.3446567e-12 </wgt>
<wgt id='1494'> +1.3598936e-12 </wgt>
<wgt id='1495'> +1.3504555e-12 </wgt>
<wgt id='1496'> +1.3632116e-12 </wgt>
<wgt id='1497'> +1.3631222e-12 </wgt>
<wgt id='1498'> +1.3624644e-12 </wgt>
<wgt id='1499'> +1.3652565e-12 </wgt>
<wgt id='1500'> +1.3632283e-12 </wgt>
<wgt id='1501'> +1.3631823e-12 </wgt>
<wgt id='1502'> +1.3617813e-12 </wgt>
<wgt id='1503'> +1.3667980e-12 </wgt>
<wgt id='1504'> +1.3579320e-12 </wgt>
<wgt id='1505'> +1.3658825e-12 </wgt>
<wgt id='1506'> +1.3636754e-12 </wgt>
<wgt id='1507'> +1.3625394e-12 </wgt>
<wgt id='1508'> +1.3657782e-12 </wgt>
<wgt id='1509'> +1.3391492e-12 </wgt>
<wgt id='1510'> +1.3426040e-12 </wgt>
<wgt id='1511'> +1.3258408e-12 </wgt>
<wgt id='1512'> +1.3292681e-12 </wgt>
<wgt id='1513'> +1.3378129e-12 </wgt>
<wgt id='1514'> +1.3442054e-12 </wgt>
<wgt id='1515'> +1.3430539e-12 </wgt>
<wgt id='1516'> +1.3431310e-12 </wgt>
<wgt id='1517'> +1.3409438e-12 </wgt>
<wgt id='1518'> +1.3383822e-12 </wgt>
<wgt id='1519'> +1.3396477e-12 </wgt>
<wgt id='1520'> +1.3399377e-12 </wgt>
<wgt id='1521'> +1.3393304e-12 </wgt>
<wgt id='1522'> +1.3416396e-12 </wgt>
<wgt id='1523'> +1.3416467e-12 </wgt>
<wgt id='1524'> +1.3376976e-12 </wgt>
<wgt id='1525'> +1.3392125e-12 </wgt>
<wgt id='1526'> +1.3399188e-12 </wgt>
<wgt id='1527'> +1.3388786e-12 </wgt>
<wgt id='1528'> +1.3396545e-12 </wgt>
<wgt id='1529'> +1.3397361e-12 </wgt>
<wgt id='1530'> +1.3402913e-12 </wgt>
<wgt id='1531'> +1.3408640e-12 </wgt>
<wgt id='1532'> +1.3349683e-12 </wgt>
<wgt id='1533'> +1.3400751e-12 </wgt>
<wgt id='1534'> +1.3391107e-12 </wgt>
<wgt id='1535'> +1.3342619e-12 </wgt>
<wgt id='1536'> +1.3420276e-12 </wgt>
<wgt id='1537'> +1.3417223e-12 </wgt>
<wgt id='1538'> +1.3277727e-12 </wgt>
<wgt id='1539'> +1.3393650e-12 </wgt>
<wgt id='1540'> +1.3387820e-12 </wgt>
<wgt id='1541'> +1.3369575e-12 </wgt>
<wgt id='1542'> +1.3373307e-12 </wgt>
<wgt id='1543'> +1.3399373e-12 </wgt>
<wgt id='1544'> +1.3379513e-12 </wgt>
<wgt id='1545'> +1.3373021e-12 </wgt>
<wgt id='1546'> +1.3389794e-12 </wgt>
<wgt id='1547'> +1.3378194e-12 </wgt>
<wgt id='1548'> +1.3399932e-12 </wgt>
<wgt id='1549'> +1.3378147e-12 </wgt>
<wgt id='1550'> +1.3389155e-12 </wgt>
<wgt id='1551'> +1.3395497e-12 </wgt>
<wgt id='1552'> +1.3407453e-12 </wgt>
<wgt id='1553'> +1.3391001e-12 </wgt>
<wgt id='1554'> +1.3378902e-12 </wgt>
<wgt id='1555'> +1.3415320e-12 </wgt>
<wgt id='1556'> +1.3429659e-12 </wgt>
<wgt id='1557'> +1.3390022e-12 </wgt>
<wgt id='1558'> +1.3388673e-12 </wgt>
<wgt id='1559'> +1.3370133e-12 </wgt>
<wgt id='1560'> +1.3387235e-12 </wgt>
<wgt id='1561'> +1.3388562e-12 </wgt>
<wgt id='1562'> +1.3387866e-12 </wgt>
<wgt id='1563'> +1.3389897e-12 </wgt>
<wgt id='1564'> +1.3379964e-12 </wgt>
<wgt id='1565'> +1.3394526e-12 </wgt>
<wgt id='1566'> +1.3392476e-12 </wgt>
<wgt id='1567'> +1.3392532e-12 </wgt>
<wgt id='1568'> +1.3383137e-12 </wgt>
<wgt id='1569'> +1.3420950e-12 </wgt>
<wgt id='1570'> +1.3397967e-12 </wgt>
<wgt id='1571'> +1.3401703e-12 </wgt>
<wgt id='1572'> +1.3398804e-12 </wgt>
<wgt id='1573'> +1.3391420e-12 </wgt>
<wgt id='1574'> +1.3401198e-12 </wgt>
<wgt id='1575'> +1.3382398e-12 </wgt>
<wgt id='1576'> +1.3394122e-12 </wgt>
<wgt id='1577'> +1.3401544e-12 </wgt>
<wgt id='1578'> +1.3405937e-12 </wgt>
<wgt id='1579'> +1.3382345e-12 </wgt>
<wgt id='1580'> +1.3383354e-12 </wgt>
<wgt id='1581'> +1.3395827e-12 </wgt>
<wgt id='1582'> +1.3404435e-12 </wgt>
<wgt id='1583'> +1.3383329e-12 </wgt>
<wgt id='1584'> +1.3394154e-12 </wgt>
<wgt id='1585'> +1.3395683e-12 </wgt>
<wgt id='1586'> +1.3391884e-12 </wgt>
<wgt id='1587'> +1.3389612e-12 </wgt>
<wgt id='1588'> +1.3379102e-12 </wgt>
<wgt id='1589'> +1.3404576e-12 </wgt>
<wgt id='1590'> +1.3389394e-12 </wgt>
<wgt id='1591'> +1.3392384e-12 </wgt>
<wgt id='1592'> +1.3385307e-12 </wgt>
<wgt id='1593'> +1.3403788e-12 </wgt>
<wgt id='1594'> +1.3387013e-12 </wgt>
<wgt id='1595'> +1.3390963e-12 </wgt>
<wgt id='1596'> +1.3379402e-12 </wgt>
<wgt id='1597'> +1.3395843e-12 </wgt>
<wgt id='1598'> +1.3390281e-12 </wgt>
<wgt id='1599'> +1.3396482e-12 </wgt>
<wgt id='1600'> +1.3379422e-12 </wgt>
<wgt id='1601'> +1.3395318e-12 </wgt>
<wgt id='1602'> +1.3391508e-12 </wgt>
<wgt id='1603'> +1.3402711e-12 </wgt>
<wgt id='1604'> +1.3396927e-12 </wgt>
<wgt id='1605'> +1.3397146e-12 </wgt>
<wgt id='1606'> +1.3388921e-12 </wgt>
<wgt id='1607'> +1.3391046e-12 </wgt>
<wgt id='1608'> +1.3397803e-12 </wgt>
<wgt id='1609'> +1.3396297e-12 </wgt>
<wgt id='1610'> +1.3221606e-12 </wgt>
<wgt id='1611'> +1.3553228e-12 </wgt>
<wgt id='1612'> +1.5369333e-12 </wgt>
<wgt id='1613'> +1.5109763e-12 </wgt>
<wgt id='1614'> +1.4877420e-12 </wgt>
<wgt id='1615'> +1.5234618e-12 </wgt>
<wgt id='1616'> +1.4776890e-12 </wgt>
<wgt id='1617'> +1.5249663e-12 </wgt>
<wgt id='1618'> +1.5326157e-12 </wgt>
<wgt id='1619'> +1.5068959e-12 </wgt>
<wgt id='1620'> +1.5199012e-12 </wgt>
<wgt id='1621'> +1.5421354e-12 </wgt>
<wgt id='1622'> +1.5526600e-12 </wgt>
<wgt id='1623'> +1.5319793e-12 </wgt>
<wgt id='1624'> +1.5638616e-12 </wgt>
<wgt id='1625'> +1.5054979e-12 </wgt>
<wgt id='1626'> +1.5232226e-12 </wgt>
<wgt id='1627'> +1.5556749e-12 </wgt>
<wgt id='1628'> +1.4626750e-12 </wgt>
<wgt id='1629'> +1.5664531e-12 </wgt>
<wgt id='1630'> +1.5053578e-12 </wgt>
<wgt id='1631'> +1.5116349e-12 </wgt>
<wgt id='1632'> +1.4695109e-12 </wgt>
<wgt id='1633'> +1.4845304e-12 </wgt>
<wgt id='1634'> +1.5354345e-12 </wgt>
<wgt id='1635'> +1.5614264e-12 </wgt>
<wgt id='1636'> +1.5468988e-12 </wgt>
<wgt id='1637'> +1.5675334e-12 </wgt>
<wgt id='1638'> +1.5446169e-12 </wgt>
<wgt id='1639'> +1.5280065e-12 </wgt>
<wgt id='1640'> +1.5350455e-12 </wgt>
<wgt id='1641'> +1.5377564e-12 </wgt>
<wgt id='1642'> +1.4817694e-12 </wgt>
<wgt id='1643'> +1.5144279e-12 </wgt>
<wgt id='1644'> +1.5682734e-12 </wgt>
<wgt id='1645'> +1.5090458e-12 </wgt>
<wgt id='1646'> +1.5508251e-12 </wgt>
<wgt id='1647'> +1.5680894e-12 </wgt>
<wgt id='1648'> +1.5419943e-12 </wgt>
<wgt id='1649'> +1.5923954e-12 </wgt>
<wgt id='1650'> +1.5089105e-12 </wgt>
<wgt id='1651'> +1.5372724e-12 </wgt>
<wgt id='1652'> +1.5143753e-12 </wgt>
<wgt id='1653'> +1.5400667e-12 </wgt>
<wgt id='1654'> +1.5316019e-12 </wgt>
<wgt id='1655'> +1.5631112e-12 </wgt>
<wgt id='1656'> +1.5306670e-12 </wgt>
<wgt id='1657'> +1.5367208e-12 </wgt>
<wgt id='1658'> +1.5167340e-12 </wgt>
<wgt id='1659'> +1.5638616e-12 </wgt>
<wgt id='1660'> +1.5492406e-12 </wgt>
<wgt id='1661'> +1.5703981e-12 </wgt>
<wgt id='1662'> +1.6017468e-12 </wgt>
<wgt id='1663'> +1.5401614e-12 </wgt>
<wgt id='1664'> +1.5208571e-12 </wgt>
<wgt id='1665'> +1.5141332e-12 </wgt>
<wgt id='1666'> +1.5598286e-12 </wgt>
<wgt id='1667'> +1.5386515e-12 </wgt>
<wgt id='1668'> +1.5490936e-12 </wgt>
<wgt id='1669'> +1.5523342e-12 </wgt>
<wgt id='1670'> +1.5216540e-12 </wgt>
<wgt id='1671'> +1.5169702e-12 </wgt>
<wgt id='1672'> +1.5647524e-12 </wgt>
<wgt id='1673'> +1.5343290e-12 </wgt>
<wgt id='1674'> +1.5181651e-12 </wgt>
<wgt id='1675'> +1.5325678e-12 </wgt>
<wgt id='1676'> +1.5196919e-12 </wgt>
<wgt id='1677'> +1.5533193e-12 </wgt>
<wgt id='1678'> +1.5195246e-12 </wgt>
<wgt id='1679'> +1.5430625e-12 </wgt>
<wgt id='1680'> +1.5746945e-12 </wgt>
<wgt id='1681'> +1.5681295e-12 </wgt>
<wgt id='1682'> +1.5327576e-12 </wgt>
<wgt id='1683'> +1.5449850e-12 </wgt>
<wgt id='1684'> +1.5894324e-12 </wgt>
<wgt id='1685'> +1.5311819e-12 </wgt>
<wgt id='1686'> +1.5351162e-12 </wgt>
<wgt id='1687'> +1.5590549e-12 </wgt>
<wgt id='1688'> +1.5060793e-12 </wgt>
<wgt id='1689'> +1.5945004e-12 </wgt>
<wgt id='1690'> +1.5363364e-12 </wgt>
<wgt id='1691'> +1.4940437e-12 </wgt>
<wgt id='1692'> +1.5547982e-12 </wgt>
<wgt id='1693'> +1.5398808e-12 </wgt>
<wgt id='1694'> +1.5294389e-12 </wgt>
<wgt id='1695'> +1.5517604e-12 </wgt>
<wgt id='1696'> +1.5313893e-12 </wgt>
<wgt id='1697'> +1.5269526e-12 </wgt>
<wgt id='1698'> +1.5424251e-12 </wgt>
<wgt id='1699'> +1.5493853e-12 </wgt>
<wgt id='1700'> +1.5203293e-12 </wgt>
<wgt id='1701'> +1.5926672e-12 </wgt>
<wgt id='1702'> +1.4981382e-12 </wgt>
<wgt id='1703'> +1.5193624e-12 </wgt>
<wgt id='1704'> +1.5231625e-12 </wgt>
<wgt id='1705'> +1.4755942e-12 </wgt>
<wgt id='1706'> +1.5689399e-12 </wgt>
<wgt id='1707'> +1.5453669e-12 </wgt>
<wgt id='1708'> +1.5992372e-12 </wgt>
<wgt id='1709'> +1.5827809e-12 </wgt>
<wgt id='1710'> +1.5343344e-12 </wgt>
<wgt id='1711'> +1.5386684e-12 </wgt>
<wgt id='1712'> +1.5931857e-12 </wgt>
<wgt id='1713'> +1.3284173e-12 </wgt>
<wgt id='1714'> +1.3209193e-12 </wgt>
<wgt id='1715'> +1.2996435e-12 </wgt>
<wgt id='1716'> +1.3543329e-12 </wgt>
<wgt id='1717'> +1.3377817e-12 </wgt>
<wgt id='1718'> +1.3626768e-12 </wgt>
<wgt id='1719'> +1.3487092e-12 </wgt>
<wgt id='1720'> +1.2924570e-12 </wgt>
<wgt id='1721'> +1.2997734e-12 </wgt>
<wgt id='1722'> +1.3197548e-12 </wgt>
<wgt id='1723'> +1.3714501e-12 </wgt>
<wgt id='1724'> +1.3353334e-12 </wgt>
<wgt id='1725'> +1.3357368e-12 </wgt>
<wgt id='1726'> +1.3363192e-12 </wgt>
<wgt id='1727'> +1.3644727e-12 </wgt>
<wgt id='1728'> +1.3158822e-12 </wgt>
<wgt id='1729'> +1.2798064e-12 </wgt>
<wgt id='1730'> +1.3049175e-12 </wgt>
<wgt id='1731'> +1.2665608e-12 </wgt>
<wgt id='1732'> +1.3284092e-12 </wgt>
<wgt id='1733'> +1.2722952e-12 </wgt>
<wgt id='1734'> +1.3865337e-12 </wgt>
<wgt id='1735'> +1.3116047e-12 </wgt>
<wgt id='1736'> +1.3596710e-12 </wgt>
<wgt id='1737'> +1.3647655e-12 </wgt>
<wgt id='1738'> +1.3232531e-12 </wgt>
<wgt id='1739'> +1.3291971e-12 </wgt>
<wgt id='1740'> +1.2557789e-12 </wgt>
<wgt id='1741'> +1.3627547e-12 </wgt>
<wgt id='1742'> +1.3090823e-12 </wgt>
<wgt id='1743'> +1.3083367e-12 </wgt>
<wgt id='1744'> +1.3478505e-12 </wgt>
<wgt id='1745'> +1.3463333e-12 </wgt>
<wgt id='1746'> +1.3111247e-12 </wgt>
<wgt id='1747'> +1.3827039e-12 </wgt>
<wgt id='1748'> +1.3242455e-12 </wgt>
<wgt id='1749'> +1.3228581e-12 </wgt>
<wgt id='1750'> +1.3029360e-12 </wgt>
<wgt id='1751'> +1.3118468e-12 </wgt>
<wgt id='1752'> +1.3172005e-12 </wgt>
<wgt id='1753'> +1.3391021e-12 </wgt>
<wgt id='1754'> +1.3443828e-12 </wgt>
<wgt id='1755'> +1.3411688e-12 </wgt>
<wgt id='1756'> +1.3519557e-12 </wgt>
<wgt id='1757'> +1.3487002e-12 </wgt>
<wgt id='1758'> +1.3748633e-12 </wgt>
<wgt id='1759'> +1.3537261e-12 </wgt>
<wgt id='1760'> +1.3213541e-12 </wgt>
<wgt id='1761'> +1.3271337e-12 </wgt>
<wgt id='1762'> +1.3074232e-12 </wgt>
<wgt id='1763'> +1.3474250e-12 </wgt>
<wgt id='1764'> +1.3642964e-12 </wgt>
<wgt id='1765'> +1.3236784e-12 </wgt>
<wgt id='1766'> +1.3629454e-12 </wgt>
<wgt id='1767'> +1.3297720e-12 </wgt>
<wgt id='1768'> +1.3461244e-12 </wgt>
<wgt id='1769'> +1.3332839e-12 </wgt>
<wgt id='1770'> +1.3224632e-12 </wgt>
<wgt id='1771'> +1.3736047e-12 </wgt>
<wgt id='1772'> +1.3150291e-12 </wgt>
<wgt id='1773'> +1.3326617e-12 </wgt>
<wgt id='1774'> +1.3143404e-12 </wgt>
<wgt id='1775'> +1.3257600e-12 </wgt>
<wgt id='1776'> +1.3772038e-12 </wgt>
<wgt id='1777'> +1.2697865e-12 </wgt>
<wgt id='1778'> +1.3322451e-12 </wgt>
<wgt id='1779'> +1.3194557e-12 </wgt>
<wgt id='1780'> +1.3259439e-12 </wgt>
<wgt id='1781'> +1.3518592e-12 </wgt>
<wgt id='1782'> +1.3184218e-12 </wgt>
<wgt id='1783'> +1.3347119e-12 </wgt>
<wgt id='1784'> +1.3282908e-12 </wgt>
<wgt id='1785'> +1.3360308e-12 </wgt>
<wgt id='1786'> +1.3198694e-12 </wgt>
<wgt id='1787'> +1.4042692e-12 </wgt>
<wgt id='1788'> +1.3155324e-12 </wgt>
<wgt id='1789'> +1.4013531e-12 </wgt>
<wgt id='1790'> +1.3381063e-12 </wgt>
<wgt id='1791'> +1.3211325e-12 </wgt>
<wgt id='1792'> +1.3082206e-12 </wgt>
<wgt id='1793'> +1.3123285e-12 </wgt>
<wgt id='1794'> +1.3596666e-12 </wgt>
<wgt id='1795'> +1.3385124e-12 </wgt>
<wgt id='1796'> +1.2932798e-12 </wgt>
<wgt id='1797'> +1.3305948e-12 </wgt>
<wgt id='1798'> +1.3153851e-12 </wgt>
<wgt id='1799'> +1.3109004e-12 </wgt>
<wgt id='1800'> +1.3454767e-12 </wgt>
<wgt id='1801'> +1.3279385e-12 </wgt>
<wgt id='1802'> +1.2969128e-12 </wgt>
<wgt id='1803'> +1.3345741e-12 </wgt>
<wgt id='1804'> +1.3349442e-12 </wgt>
<wgt id='1805'> +1.2977934e-12 </wgt>
<wgt id='1806'> +1.3005761e-12 </wgt>
<wgt id='1807'> +1.3156939e-12 </wgt>
<wgt id='1808'> +1.2948850e-12 </wgt>
<wgt id='1809'> +1.3119676e-12 </wgt>
<wgt id='1810'> +1.2996866e-12 </wgt>
<wgt id='1811'> +1.3397430e-12 </wgt>
<wgt id='1812'> +1.3057125e-12 </wgt>
<wgt id='1813'> +1.2548390e-12 </wgt>
<wgt id='1814'> +1.6366908e-12 </wgt>
<wgt id='1815'> +1.9766542e-12 </wgt>
<wgt id='1816'> +1.3284173e-12 </wgt>
<wgt id='1817'> +1.3209193e-12 </wgt>
<wgt id='1818'> +1.2996435e-12 </wgt>
<wgt id='1819'> +1.3543329e-12 </wgt>
<wgt id='1820'> +1.3377817e-12 </wgt>
<wgt id='1821'> +1.3626768e-12 </wgt>
<wgt id='1822'> +1.3487092e-12 </wgt>
<wgt id='1823'> +1.2924570e-12 </wgt>
<wgt id='1824'> +1.2997734e-12 </wgt>
<wgt id='1825'> +1.3197548e-12 </wgt>
<wgt id='1826'> +1.3714501e-12 </wgt>
<wgt id='1827'> +1.3353334e-12 </wgt>
<wgt id='1828'> +1.3357368e-12 </wgt>
<wgt id='1829'> +1.3363192e-12 </wgt>
<wgt id='1830'> +1.3644727e-12 </wgt>
<wgt id='1831'> +1.3158822e-12 </wgt>
<wgt id='1832'> +1.2798064e-12 </wgt>
<wgt id='1833'> +1.3049175e-12 </wgt>
<wgt id='1834'> +1.2665608e-12 </wgt>
<wgt id='1835'> +1.3284092e-12 </wgt>
<wgt id='1836'> +1.2722952e-12 </wgt>
<wgt id='1837'> +1.3865337e-12 </wgt>
<wgt id='1838'> +1.3116047e-12 </wgt>
<wgt id='1839'> +1.3596710e-12 </wgt>
<wgt id='1840'> +1.3647655e-12 </wgt>
<wgt id='1841'> +1.3232531e-12 </wgt>
<wgt id='1842'> +1.3291971e-12 </wgt>
<wgt id='1843'> +1.2557789e-12 </wgt>
<wgt id='1844'> +1.3627547e-12 </wgt>
<wgt id='1845'> +1.3090823e-12 </wgt>
<wgt id='1846'> +1.3083367e-12 </wgt>
<wgt id='1847'> +1.3478505e-12 </wgt>
<wgt id='1848'> +1.3463333e-12 </wgt>
<wgt id='1849'> +1.3111247e-12 </wgt>
<wgt id='1850'> +1.3827039e-12 </wgt>
<wgt id='1851'> +1.3242455e-12 </wgt>
<wgt id='1852'> +1.3228581e-12 </wgt>
<wgt id='1853'> +1.3029360e-12 </wgt>
<wgt id='1854'> +1.3118468e-12 </wgt>
<wgt id='1855'> +1.3172005e-12 </wgt>
<wgt id='1856'> +1.3391021e-12 </wgt>
<wgt id='1857'> +1.3443828e-12 </wgt>
<wgt id='1858'> +1.3411688e-12 </wgt>
<wgt id='1859'> +1.3519557e-12 </wgt>
<wgt id='1860'> +1.3487002e-12 </wgt>
<wgt id='1861'> +1.3748633e-12 </wgt>
<wgt id='1862'> +1.3537261e-12 </wgt>
<wgt id='1863'> +1.3213541e-12 </wgt>
<wgt id='1864'> +1.3271337e-12 </wgt>
<wgt id='1865'> +1.3074232e-12 </wgt>
<wgt id='1866'> +1.3474250e-12 </wgt>
<wgt id='1867'> +1.3642964e-12 </wgt>
<wgt id='1868'> +1.3236784e-12 </wgt>
<wgt id='1869'> +1.3629454e-12 </wgt>
<wgt id='1870'> +1.3297720e-12 </wgt>
<wgt id='1871'> +1.3461244e-12 </wgt>
<wgt id='1872'> +1.3332839e-12 </wgt>
<wgt id='1873'> +1.3224632e-12 </wgt>
<wgt id='1874'> +1.3736047e-12 </wgt>
<wgt id='1875'> +1.3150291e-12 </wgt>
<wgt id='1876'> +1.3326617e-12 </wgt>
<wgt id='1877'> +1.3143404e-12 </wgt>
<wgt id='1878'> +1.3257600e-12 </wgt>
<wgt id='1879'> +1.3772038e-12 </wgt>
<wgt id='1880'> +1.2697865e-12 </wgt>
<wgt id='1881'> +1.3322451e-12 </wgt>
<wgt id='1882'> +1.3194557e-12 </wgt>
<wgt id='1883'> +1.3259439e-12 </wgt>
<wgt id='1884'> +1.3518592e-12 </wgt>
<wgt id='1885'> +1.3184218e-12 </wgt>
<wgt id='1886'> +1.3347119e-12 </wgt>
<wgt id='1887'> +1.3282908e-12 </wgt>
<wgt id='1888'> +1.3360308e-12 </wgt>
<wgt id='1889'> +1.3198694e-12 </wgt>
<wgt id='1890'> +1.4042692e-12 </wgt>
<wgt id='1891'> +1.3155324e-12 </wgt>
<wgt id='1892'> +1.4013531e-12 </wgt>
<wgt id='1893'> +1.3381063e-12 </wgt>
<wgt id='1894'> +1.3211325e-12 </wgt>
<wgt id='1895'> +1.3082206e-12 </wgt>
<wgt id='1896'> +1.3123285e-12 </wgt>
<wgt id='1897'> +1.3596666e-12 </wgt>
<wgt id='1898'> +1.3385124e-12 </wgt>
<wgt id='1899'> +1.2932798e-12 </wgt>
<wgt id='1900'> +1.3305948e-12 </wgt>
<wgt id='1901'> +1.3153851e-12 </wgt>
<wgt id='1902'> +1.3109004e-12 </wgt>
<wgt id='1903'> +1.3454767e-12 </wgt>
<wgt id='1904'> +1.3279385e-12 </wgt>
<wgt id='1905'> +1.2969128e-12 </wgt>
<wgt id='1906'> +1.3345741e-12 </wgt>
<wgt id='1907'> +1.3349442e-12 </wgt>
<wgt id='1908'> +1.2977934e-12 </wgt>
<wgt id='1909'> +1.3005761e-12 </wgt>
<wgt id='1910'> +1.3156939e-12 </wgt>
<wgt id='1911'> +1.2948850e-12 </wgt>
<wgt id='1912'> +1.3119676e-12 </wgt>
<wgt id='1913'> +1.2996866e-12 </wgt>
<wgt id='1914'> +1.3397430e-12 </wgt>
<wgt id='1915'> +1.3057125e-12 </wgt>
<wgt id='1916'> +1.2548390e-12 </wgt>
<wgt id='1917'> +1.3194257e-12 </wgt>
<wgt id='1918'> +1.3442596e-12 </wgt>
<wgt id='1919'> +1.2988689e-12 </wgt>
</rwgt>
</event>
<event>
 9      1 +1.5538000e-12 4.68803800e+01 7.81860800e-03 1.32736700e-01
       21 -1    0    0  501  502 +0.0000000000e+00 +0.0000000000e+00 +1.4335440390e+00 1.4335440390e+00 0.0000000000e+00 0.0000e+00 -1.0000e+00
       -2 -1    0    0    0  501 -0.0000000000e+00 -0.0000000000e+00 -3.8327569358e+02 3.8327569358e+02 0.0000000000e+00 0.0000e+00 -1.0000e+00
     1023  2    1    2    0    0 +1.9934802712e+01 +4.1909892165e+00 -2.5367015859e+02 2.5492857645e+02 1.5002299179e+01 0.0000e+00 0.0000e+00
  1000023  2    3    3    0    0 +1.0480407788e+01 +5.6989617525e+00 -1.7896175128e+02 1.7944344091e+02 5.5066279500e+00 0.0000e+00 0.0000e+00
       -2  1    1    2    0  502 -1.9934802712e+01 -4.1909892165e+00 -1.2817199095e+02 1.2978066117e+02 0.0000000000e+00 0.0000e+00 -1.0000e+00
  1000022  1    4    4    0    0 +8.7607141524e+00 +5.0352635609e+00 -1.5344445968e+02 1.5385807160e+02 5.0000000000e+00 0.0000e+00 -1.0000e+00
      -11  1    4    4    0    0 +2.6842721562e-01 +1.6702340826e-01 -3.2641568212e+00 3.2794313537e+00 5.1100000000e-04 0.0000e+00 -1.0000e+00
       11  1    4    4    0    0 +1.4512664200e+00 +4.9667478334e-01 -2.2253134787e+01 2.2305937958e+01 5.1100000000e-04 0.0000e+00 1.0000e+00
  1000022  1    3    3    0    0 +9.4543949237e+00 -1.5079725359e+00 -7.4708407310e+01 7.5485135539e+01 5.0000000000e+00 0.0000e+00 -1.0000e+00
<mgrwt>
<rscale>  1 0.46880383E+02</rscale>
<asrwt>0</asrwt>
<pdfrwt beam="1">  1       21 0.22054488E-03 0.46880383E+02</pdfrwt>
<pdfrwt beam="2">  1       -2 0.58965586E-01 0.46880383E+02</pdfrwt>
<totfact> 0.71649308E+06</totfact>
</mgrwt>
<rwgt>
<wgt id='1001'> +1.5538000e-12 </wgt>
<wgt id='1002'> +1.5381195e-12 </wgt>
<wgt id='1003'> +1.5460150e-12 </wgt>
<wgt id='1004'> +1.4170046e-12 </wgt>
<wgt id='1005'> +1.5538000e-12 </wgt>
<wgt id='1006'> +1.3749619e-12 </wgt>
<wgt id='1007'> +1.3575269e-12 </wgt>
<wgt id='1008'> +1.3662733e-12 </wgt>
<wgt id='1009'> +1.2288883e-12 </wgt>
<wgt id='1010'> +1.3749619e-12 </wgt>
<wgt id='1011'> +1.7885037e-12 </wgt>
<wgt id='1012'> +1.7766974e-12 </wgt>
<wgt id='1013'> +1.7826765e-12 </wgt>
<wgt id='1014'> +1.6767716e-12 </wgt>
<wgt id='1015'> +1.7885037e-12 </wgt>
<wgt id='1016'> +1.8344797e-12 </wgt>
<wgt id='1017'> +1.8298867e-12 </wgt>
<wgt id='1018'> +1.8322776e-12 </wgt>
<wgt id='1019'> +1.7826765e-12 </wgt>
<wgt id='1020'> +1.8344797e-12 </wgt>
<wgt id='1021'> +1.6233361e-12 </wgt>
<wgt id='1022'> +1.6150374e-12 </wgt>
<wgt id='1023'> +1.6192547e-12 </wgt>
<wgt id='1024'> +1.5460150e-12 </wgt>
<wgt id='1025'> +1.6233361e-12 </wgt>
<wgt id='1026'> +2.1115805e-12 </wgt>
<wgt id='1027'> +2.1137207e-12 </wgt>
<wgt id='1028'> +2.1127598e-12 </wgt>
<wgt id='1029'> +2.1094790e-12 </wgt>
<wgt id='1030'> +2.1115805e-12 </wgt>
<wgt id='1031'> +1.2423756e-12 </wgt>
<wgt id='1032'> +1.2152793e-12 </wgt>
<wgt id='1033'> +1.2288883e-12 </wgt>
<wgt id='1034'> +1.0204534e-12 </wgt>
<wgt id='1035'> +1.2423756e-12 </wgt>
<wgt id='1036'> +1.0993816e-12 </wgt>
<wgt id='1037'> +1.0725918e-12 </wgt>
<wgt id='1038'> +1.0860161e-12 </wgt>
<wgt id='1039'> +8.8498180e-13 </wgt>
<wgt id='1040'> +1.0993816e-12 </wgt>
<wgt id='1041'> +1.4300382e-12 </wgt>
<wgt id='1042'> +1.4037815e-12 </wgt>
<wgt id='1043'> +1.4170046e-12 </wgt>
<wgt id='1044'> +1.2075242e-12 </wgt>
<wgt id='1045'> +1.4300382e-12 </wgt>
<wgt id='1046'> +1.5538000e-12 </wgt>
<wgt id='1047'> +1.7392309e-12 </wgt>
<wgt id='1048'> +1.5959016e-12 </wgt>
<wgt id='1049'> +1.6033217e-12 </wgt>
<wgt id='1050'> +1.6113916e-12 </wgt>
<wgt id='1051'> +1.4950400e-12 </wgt>
<wgt id='1052'> +1.5211042e-12 </wgt>
<wgt id='1053'> +1.5273366e-12 </wgt>
<wgt id='1054'> +1.5415792e-12 </wgt>
<wgt id='1055'> +1.5275707e-12 </wgt>
<wgt id='1056'> +1.4954278e-12 </wgt>
<wgt id='1057'> +1.5660523e-12 </wgt>
<wgt id='1058'> +1.4931319e-12 </wgt>
<wgt id='1059'> +1.5181885e-12 </wgt>
<wgt id='1060'> +1.5725498e-12 </wgt>
<wgt id='1061'> +1.5300277e-12 </wgt>
<wgt id='1062'> +1.4789885e-12 </wgt>
<wgt id='1063'> +1.5539316e-12 </wgt>
<wgt id='1064'> +1.5590671e-12 </wgt>
<wgt id='1065'> +1.5738662e-12 </wgt>
<wgt id='1066'> +1.4614928e-12 </wgt>
<wgt id='1067'> +1.6098821e-12 </wgt>
<wgt id='1068'> +1.6860365e-12 </wgt>
<wgt id='1069'> +1.5979449e-12 </wgt>
<wgt id='1070'> +1.5345068e-12 </wgt>
<wgt id='1071'> +1.5006148e-12 </wgt>
<wgt id='1072'> +1.5279984e-12 </wgt>
<wgt id='1073'> +1.7393553e-12 </wgt>
<wgt id='1074'> +1.5632633e-12 </wgt>
<wgt id='1075'> +1.4851821e-12 </wgt>
<wgt id='1076'> +1.5531741e-12 </wgt>
<wgt id='1077'> +1.6556937e-12 </wgt>
<wgt id='1078'> +1.5125775e-12 </wgt>
<wgt id='1079'> +1.5872726e-12 </wgt>
<wgt id='1080'> +1.5787121e-12 </wgt>
<wgt id='1081'> +1.5635152e-12 </wgt>
<wgt id='1082'> +1.5883133e-12 </wgt>
<wgt id='1083'> +1.5439390e-12 </wgt>
<wgt id='1084'> +1.5043412e-12 </wgt>
<wgt id='1085'> +1.5814515e-12 </wgt>
<wgt id='1086'> +1.5578579e-12 </wgt>
<wgt id='1087'> +1.5656459e-12 </wgt>
<wgt id='1088'> +1.5492919e-12 </wgt>
<wgt id='1089'> +1.6454384e-12 </wgt>
<wgt id='1090'> +1.5863777e-12 </wgt>
<wgt id='1091'> +1.4907399e-12 </wgt>
<wgt id='1092'> +1.5638693e-12 </wgt>
<wgt id='1093'> +1.5821569e-12 </wgt>
<wgt id='1094'> +1.5503291e-12 </wgt>
<wgt id='1095'> +1.5576511e-12 </wgt>
<wgt id='1096'> +1.5219905e-12 </wgt>
<wgt id='1097'> +1.5764964e-12 </wgt>
<wgt id='1098'> +1.5030595e-12 </wgt>
<wgt id='1099'> +1.5223380e-12 </wgt>
<wgt id='1100'> +1.6071356e-12 </wgt>
<wgt id='1101'> +1.6313004e-12 </wgt>
<wgt id='1102'> +1.5645970e-12 </wgt>
<wgt id='1103'> +1.5908584e-12 </wgt>
<wgt id='1104'> +1.5842038e-12 </wgt>
<wgt id='1105'> +1.4711736e-12 </wgt>
<wgt id='1106'> +1.5695225e-12 </wgt>
<wgt id='1107'> +1.6424164e-12 </wgt>
<wgt id='1108'> +1.5270258e-12 </wgt>
<wgt id='1109'> +1.5863913e-12 </wgt>
<wgt id='1110'> +1.4728192e-12 </wgt>
<wgt id='1111'> +1.5355225e-12 </wgt>
<wgt id='1112'> +1.4612853e-12 </wgt>
<wgt id='1113'> +1.6315300e-12 </wgt>
<wgt id='1114'> +1.5715318e-12 </wgt>
<wgt id='1115'> +1.5724155e-12 </wgt>
<wgt id='1116'> +1.6375076e-12 </wgt>
<wgt id='1117'> +1.5538653e-12 </wgt>
<wgt id='1118'> +1.4584457e-12 </wgt>
<wgt id='1119'> +1.3716093e-12 </wgt>
<wgt id='1120'> +1.4631192e-12 </wgt>
<wgt id='1121'> +1.4796369e-12 </wgt>
<wgt id='1122'> +1.5803352e-12 </wgt>
<wgt id='1123'> +1.6068862e-12 </wgt>
<wgt id='1124'> +1.5385896e-12 </wgt>
<wgt id='1125'> +1.4494717e-12 </wgt>
<wgt id='1126'> +1.6255677e-12 </wgt>
<wgt id='1127'> +1.6416335e-12 </wgt>
<wgt id='1128'> +1.4789885e-12 </wgt>
<wgt id='1129'> +1.5167457e-12 </wgt>
<wgt id='1130'> +1.5353721e-12 </wgt>
<wgt id='1131'> +1.5658272e-12 </wgt>
<wgt id='1132'> +1.6804656e-12 </wgt>
<wgt id='1133'> +1.5417592e-12 </wgt>
<wgt id='1134'> +1.6467666e-12 </wgt>
<wgt id='1135'> +1.3873215e-12 </wgt>
<wgt id='1136'> +1.4980874e-12 </wgt>
<wgt id='1137'> +1.5465991e-12 </wgt>
<wgt id='1138'> +1.3839806e-12 </wgt>
<wgt id='1139'> +1.5148556e-12 </wgt>
<wgt id='1140'> +1.5237719e-12 </wgt>
<wgt id='1141'> +1.5899868e-12 </wgt>
<wgt id='1142'> +1.5785111e-12 </wgt>
<wgt id='1143'> +1.5867163e-12 </wgt>
<wgt id='1144'> +1.5904871e-12 </wgt>
<wgt id='1145'> +1.5817110e-12 </wgt>
<wgt id='1146'> +1.5521815e-12 </wgt>
<wgt id='1147'> +1.2971966e-12 </wgt>
<wgt id='1148'> +1.3244045e-12 </wgt>
<wgt id='1149'> +1.2868338e-12 </wgt>
<wgt id='1150'> +1.3681103e-12 </wgt>
<wgt id='1151'> +1.7125454e-12 </wgt>
<wgt id='1152'> +2.3776518e-12 </wgt>
<wgt id='1153'> +2.3623658e-12 </wgt>
<wgt id='1154'> +2.3864763e-12 </wgt>
<wgt id='1155'> +2.3605081e-12 </wgt>
<wgt id='1156'> +2.3862991e-12 </wgt>
<wgt id='1157'> +2.3859541e-12 </wgt>
<wgt id='1158'> +2.3664631e-12 </wgt>
<wgt id='1159'> +2.3858037e-12 </wgt>
<wgt id='1160'> +2.3723995e-12 </wgt>
<wgt id='1161'> +2.3819394e-12 </wgt>
<wgt id='1162'> +2.3745963e-12 </wgt>
<wgt id='1163'> +2.3785859e-12 </wgt>
<wgt id='1164'> +2.3767443e-12 </wgt>
<wgt id='1165'> +2.3645293e-12 </wgt>
<wgt id='1166'> +2.3905235e-12 </wgt>
<wgt id='1167'> +2.3764548e-12 </wgt>
<wgt id='1168'> +2.3771067e-12 </wgt>
<wgt id='1169'> +2.3855851e-12 </wgt>
<wgt id='1170'> +2.3717689e-12 </wgt>
<wgt id='1171'> +2.3666063e-12 </wgt>
<wgt id='1172'> +2.3927428e-12 </wgt>
<wgt id='1173'> +2.3552236e-12 </wgt>
<wgt id='1174'> +2.4002724e-12 </wgt>
<wgt id='1175'> +2.4045364e-12 </wgt>
<wgt id='1176'> +2.3551743e-12 </wgt>
<wgt id='1177'> +2.3894945e-12 </wgt>
<wgt id='1178'> +2.3402847e-12 </wgt>
<wgt id='1179'> +2.3709186e-12 </wgt>
<wgt id='1180'> +2.3719316e-12 </wgt>
<wgt id='1181'> +2.3671575e-12 </wgt>
<wgt id='1182'> +2.3883492e-12 </wgt>
<wgt id='1183'> +2.3922190e-12 </wgt>
<wgt id='1184'> +2.3755732e-12 </wgt>
<wgt id='1185'> +2.3835164e-12 </wgt>
<wgt id='1186'> +2.3769516e-12 </wgt>
<wgt id='1187'> +2.3783848e-12 </wgt>
<wgt id='1188'> +2.3773504e-12 </wgt>
<wgt id='1189'> +2.3816963e-12 </wgt>
<wgt id='1190'> +2.3419952e-12 </wgt>
<wgt id='1191'> +2.3600831e-12 </wgt>
<wgt id='1192'> +2.3974956e-12 </wgt>
<wgt id='1193'> +1.4150162e-12 </wgt>
<wgt id='1194'> +1.4012897e-12 </wgt>
<wgt id='1195'> +1.4263080e-12 </wgt>
<wgt id='1196'> +1.4274556e-12 </wgt>
<wgt id='1197'> +1.4011163e-12 </wgt>
<wgt id='1198'> +1.4108061e-12 </wgt>
<wgt id='1199'> +1.4212825e-12 </wgt>
<wgt id='1200'> +1.4056968e-12 </wgt>
<wgt id='1201'> +1.4213453e-12 </wgt>
<wgt id='1202'> +1.4149489e-12 </wgt>
<wgt id='1203'> +1.4151525e-12 </wgt>
<wgt id='1204'> +1.4158376e-12 </wgt>
<wgt id='1205'> +1.4143858e-12 </wgt>
<wgt id='1206'> +1.4154987e-12 </wgt>
<wgt id='1207'> +1.4144404e-12 </wgt>
<wgt id='1208'> +1.4049836e-12 </wgt>
<wgt id='1209'> +1.4187217e-12 </wgt>
<wgt id='1210'> +1.4130071e-12 </wgt>
<wgt id='1211'> +1.4145010e-12 </wgt>
<wgt id='1212'> +1.4147044e-12 </wgt>
<wgt id='1213'> +1.4158021e-12 </wgt>
<wgt id='1214'> +1.4033153e-12 </wgt>
<wgt id='1215'> +1.4309038e-12 </wgt>
<wgt id='1216'> +1.4153264e-12 </wgt>
<wgt id='1217'> +1.4160905e-12 </wgt>
<wgt id='1218'> +1.4317869e-12 </wgt>
<wgt id='1219'> +1.4068929e-12 </wgt>
<wgt id='1220'> +1.4302474e-12 </wgt>
<wgt id='1221'> +1.4064759e-12 </wgt>
<wgt id='1222'> +1.4318823e-12 </wgt>
<wgt id='1223'> +1.3841643e-12 </wgt>
<wgt id='1224'> +1.4167078e-12 </wgt>
<wgt id='1225'> +1.4144468e-12 </wgt>
<wgt id='1226'> +1.4098830e-12 </wgt>
<wgt id='1227'> +1.4191893e-12 </wgt>
<wgt id='1228'> +1.4314200e-12 </wgt>
<wgt id='1229'> +1.4039411e-12 </wgt>
<wgt id='1230'> +1.4301327e-12 </wgt>
<wgt id='1231'> +1.4093794e-12 </wgt>
<wgt id='1232'> +1.4226174e-12 </wgt>
<wgt id='1233'> +1.4128646e-12 </wgt>
<wgt id='1234'> +1.4150162e-12 </wgt>
<wgt id='1235'> +1.4085943e-12 </wgt>
<wgt id='1236'> +1.4110329e-12 </wgt>
<wgt id='1237'> +1.4131336e-12 </wgt>
<wgt id='1238'> +1.4170072e-12 </wgt>
<wgt id='1239'> +1.4184300e-12 </wgt>
<wgt id='1240'> +1.4196727e-12 </wgt>
<wgt id='1241'> +1.3143094e-12 </wgt>
<wgt id='1242'> +1.2998499e-12 </wgt>
<wgt id='1243'> +1.3286576e-12 </wgt>
<wgt id='1244'> +1.3076632e-12 </wgt>
<wgt id='1245'> +1.3193071e-12 </wgt>
<wgt id='1246'> +1.3032397e-12 </wgt>
<wgt id='1247'> +1.3237221e-12 </wgt>
<wgt id='1248'> +1.3142181e-12 </wgt>
<wgt id='1249'> +1.3145358e-12 </wgt>
<wgt id='1250'> +1.3218954e-12 </wgt>
<wgt id='1251'> +1.3089921e-12 </wgt>
<wgt id='1252'> +1.3141609e-12 </wgt>
<wgt id='1253'> +1.3144946e-12 </wgt>
<wgt id='1254'> +1.3185782e-12 </wgt>
<wgt id='1255'> +1.3116820e-12 </wgt>
<wgt id='1256'> +1.3173686e-12 </wgt>
<wgt id='1257'> +1.3068218e-12 </wgt>
<wgt id='1258'> +1.3207755e-12 </wgt>
<wgt id='1259'> +1.3069156e-12 </wgt>
<wgt id='1260'> +1.3172806e-12 </wgt>
<wgt id='1261'> +1.3113792e-12 </wgt>
<wgt id='1262'> +1.3107651e-12 </wgt>
<wgt id='1263'> +1.3170337e-12 </wgt>
<wgt id='1264'> +1.3306067e-12 </wgt>
<wgt id='1265'> +1.3066155e-12 </wgt>
<wgt id='1266'> +1.2931280e-12 </wgt>
<wgt id='1267'> +1.3315358e-12 </wgt>
<wgt id='1268'> +1.3197336e-12 </wgt>
<wgt id='1269'> +1.3109806e-12 </wgt>
<wgt id='1270'> +1.3210489e-12 </wgt>
<wgt id='1271'> +1.3170200e-12 </wgt>
<wgt id='1272'> +1.3171574e-12 </wgt>
<wgt id='1273'> +1.3140850e-12 </wgt>
<wgt id='1274'> +1.3173768e-12 </wgt>
<wgt id='1275'> +1.3109370e-12 </wgt>
<wgt id='1276'> +1.2973263e-12 </wgt>
<wgt id='1277'> +1.3286817e-12 </wgt>
<wgt id='1278'> +1.3167937e-12 </wgt>
<wgt id='1279'> +1.3242232e-12 </wgt>
<wgt id='1280'> +1.3116405e-12 </wgt>
<wgt id='1281'> +1.3319521e-12 </wgt>
<wgt id='1282'> +1.3143094e-12 </wgt>
<wgt id='1283'> +1.3088144e-12 </wgt>
<wgt id='1284'> +1.3109530e-12 </wgt>
<wgt id='1285'> +1.3129007e-12 </wgt>
<wgt id='1286'> +1.3159010e-12 </wgt>
<wgt id='1287'> +1.3167939e-12 </wgt>
<wgt id='1288'> +1.3178382e-12 </wgt>
<wgt id='1289'> +1.4683035e-12 </wgt>
<wgt id='1290'> +1.4642655e-12 </wgt>
<wgt id='1291'> +1.4725066e-12 </wgt>
<wgt id='1292'> +1.4692378e-12 </wgt>
<wgt id='1293'> +1.4676049e-12 </wgt>
<wgt id='1294'> +1.4459107e-12 </wgt>
<wgt id='1295'> +1.4900741e-12 </wgt>
<wgt id='1296'> +1.4695014e-12 </wgt>
<wgt id='1297'> +1.4666516e-12 </wgt>
<wgt id='1298'> +1.4653276e-12 </wgt>
<wgt id='1299'> +1.4718481e-12 </wgt>
<wgt id='1300'> +1.4686986e-12 </wgt>
<wgt id='1301'> +1.4674701e-12 </wgt>
<wgt id='1302'> +1.4611723e-12 </wgt>
<wgt id='1303'> +1.4781740e-12 </wgt>
<wgt id='1304'> +1.4699125e-12 </wgt>
<wgt id='1305'> +1.4671486e-12 </wgt>
<wgt id='1306'> +1.4556496e-12 </wgt>
<wgt id='1307'> +1.4825935e-12 </wgt>
<wgt id='1308'> +1.4494238e-12 </wgt>
<wgt id='1309'> +1.4826898e-12 </wgt>
<wgt id='1310'> +1.4775919e-12 </wgt>
<wgt id='1311'> +1.4586745e-12 </wgt>
<wgt id='1312'> +1.4549871e-12 </wgt>
<wgt id='1313'> +1.4822264e-12 </wgt>
<wgt id='1314'> +1.4543392e-12 </wgt>
<wgt id='1315'> +1.4789242e-12 </wgt>
<wgt id='1316'> +1.4736670e-12 </wgt>
<wgt id='1317'> +1.4718742e-12 </wgt>
<wgt id='1318'> +1.4733011e-12 </wgt>
<wgt id='1319'> +1.4614636e-12 </wgt>
<wgt id='1320'> +1.5016697e-12 </wgt>
<wgt id='1321'> +1.4435021e-12 </wgt>
<wgt id='1322'> +1.4620335e-12 </wgt>
<wgt id='1323'> +1.4789501e-12 </wgt>
<wgt id='1324'> +1.4709706e-12 </wgt>
<wgt id='1325'> +1.4684774e-12 </wgt>
<wgt id='1326'> +1.4667121e-12 </wgt>
<wgt id='1327'> +1.4726634e-12 </wgt>
<wgt id='1328'> +1.4647427e-12 </wgt>
<wgt id='1329'> +1.4709273e-12 </wgt>
<wgt id='1330'> +1.4563241e-12 </wgt>
<wgt id='1331'> +1.4965876e-12 </wgt>
<wgt id='1332'> +1.4772470e-12 </wgt>
<wgt id='1333'> +1.4698732e-12 </wgt>
<wgt id='1334'> +1.4622575e-12 </wgt>
<wgt id='1335'> +1.4873549e-12 </wgt>
<wgt id='1336'> +1.4751022e-12 </wgt>
<wgt id='1337'> +1.4691585e-12 </wgt>
<wgt id='1338'> +1.4717128e-12 </wgt>
<wgt id='1339'> +1.4655154e-12 </wgt>
<wgt id='1340'> +1.4445235e-12 </wgt>
<wgt id='1341'> +1.4401675e-12 </wgt>
<wgt id='1342'> +1.4491178e-12 </wgt>
<wgt id='1343'> +1.4454099e-12 </wgt>
<wgt id='1344'> +1.4438849e-12 </wgt>
<wgt id='1345'> +1.4215045e-12 </wgt>
<wgt id='1346'> +1.4659984e-12 </wgt>
<wgt id='1347'> +1.4468725e-12 </wgt>
<wgt id='1348'> +1.4417755e-12 </wgt>
<wgt id='1349'> +1.4417288e-12 </wgt>
<wgt id='1350'> +1.4471620e-12 </wgt>
<wgt id='1351'> +1.4442935e-12 </wgt>
<wgt id='1352'> +1.4450257e-12 </wgt>
<wgt id='1353'> +1.4364754e-12 </wgt>
<wgt id='1354'> +1.4588362e-12 </wgt>
<wgt id='1355'> +1.4478926e-12 </wgt>
<wgt id='1356'> +1.4425583e-12 </wgt>
<wgt id='1357'> +1.4266820e-12 </wgt>
<wgt id='1358'> +1.4654790e-12 </wgt>
<wgt id='1359'> +1.4304815e-12 </wgt>
<wgt id='1360'> +1.4566794e-12 </wgt>
<wgt id='1361'> +1.4521806e-12 </wgt>
<wgt id='1362'> +1.4347213e-12 </wgt>
<wgt id='1363'> +1.4287303e-12 </wgt>
<wgt id='1364'> +1.4558844e-12 </wgt>
<wgt id='1365'> +1.4509209e-12 </wgt>
<wgt id='1366'> +1.4302352e-12 </wgt>
<wgt id='1367'> +1.4507155e-12 </wgt>
<wgt id='1368'> +1.4459092e-12 </wgt>
<wgt id='1369'> +1.4475159e-12 </wgt>
<wgt id='1370'> +1.4406815e-12 </wgt>
<wgt id='1371'> +1.4675820e-12 </wgt>
<wgt id='1372'> +1.4197023e-12 </wgt>
<wgt id='1373'> +1.4310120e-12 </wgt>
<wgt id='1374'> +1.4605116e-12 </wgt>
<wgt id='1375'> +1.4463848e-12 </wgt>
<wgt id='1376'> +1.4455626e-12 </wgt>
<wgt id='1377'> +1.4436766e-12 </wgt>
<wgt id='1378'> +1.4485361e-12 </wgt>
<wgt id='1379'> +1.4407833e-12 </wgt>
<wgt id='1380'> +1.4476230e-12 </wgt>
<wgt id='1381'> +1.4328795e-12 </wgt>
<wgt id='1382'> +1.4704358e-12 </wgt>
<wgt id='1383'> +1.4573278e-12 </wgt>
<wgt id='1384'> +1.4462446e-12 </wgt>
<wgt id='1385'> +1.4382554e-12 </wgt>
<wgt id='1386'> +1.4628377e-12 </wgt>
<wgt id='1387'> +1.4496149e-12 </wgt>
<wgt id='1388'> +1.4473924e-12 </wgt>
<wgt id='1389'> +1.4483356e-12 </wgt>
<wgt id='1390'> +1.4416475e-12 </wgt>
<wgt id='1391'> +1.4116850e-12 </wgt>
<wgt id='1392'> +1.3773793e-12 </wgt>
<wgt id='1393'> +1.3900408e-12 </wgt>
<wgt id='1394'> +1.4014801e-12 </wgt>
<wgt id='1395'> +1.4246279e-12 </wgt>
<wgt id='1396'> +1.4130712e-12 </wgt>
<wgt id='1397'> +1.3596639e-12 </wgt>
<wgt id='1398'> +1.3703984e-12 </wgt>
<wgt id='1399'> +1.3810732e-12 </wgt>
<wgt id='1400'> +1.3915868e-12 </wgt>
<wgt id='1401'> +1.4023320e-12 </wgt>
<wgt id='1402'> +1.4238346e-12 </wgt>
<wgt id='1403'> +1.4344384e-12 </wgt>
<wgt id='1404'> +1.4450003e-12 </wgt>
<wgt id='1405'> +1.4130712e-12 </wgt>
<wgt id='1406'> +1.4103982e-12 </wgt>
<wgt id='1407'> +1.4119562e-12 </wgt>
<wgt id='1408'> +1.4141896e-12 </wgt>
<wgt id='1409'> +1.4157810e-12 </wgt>
<wgt id='1410'> +1.3060287e-12 </wgt>
<wgt id='1411'> +1.3056153e-12 </wgt>
<wgt id='1412'> +1.3064109e-12 </wgt>
<wgt id='1413'> +1.2928012e-12 </wgt>
<wgt id='1414'> +1.3192722e-12 </wgt>
<wgt id='1415'> +1.3031429e-12 </wgt>
<wgt id='1416'> +1.3071897e-12 </wgt>
<wgt id='1417'> +1.2954168e-12 </wgt>
<wgt id='1418'> +1.3167085e-12 </wgt>
<wgt id='1419'> +1.3028856e-12 </wgt>
<wgt id='1420'> +1.3090542e-12 </wgt>
<wgt id='1421'> +1.3072699e-12 </wgt>
<wgt id='1422'> +1.3053604e-12 </wgt>
<wgt id='1423'> +1.3030793e-12 </wgt>
<wgt id='1424'> +1.3096369e-12 </wgt>
<wgt id='1425'> +1.2959021e-12 </wgt>
<wgt id='1426'> +1.3168802e-12 </wgt>
<wgt id='1427'> +1.2687973e-12 </wgt>
<wgt id='1428'> +1.3267351e-12 </wgt>
<wgt id='1429'> +1.3075064e-12 </wgt>
<wgt id='1430'> +1.3042868e-12 </wgt>
<wgt id='1431'> +1.2938469e-12 </wgt>
<wgt id='1432'> +1.3144494e-12 </wgt>
<wgt id='1433'> +1.2844431e-12 </wgt>
<wgt id='1434'> +1.3243733e-12 </wgt>
<wgt id='1435'> +1.3096842e-12 </wgt>
<wgt id='1436'> +1.2975154e-12 </wgt>
<wgt id='1437'> +1.3119339e-12 </wgt>
<wgt id='1438'> +1.3095796e-12 </wgt>
<wgt id='1439'> +1.2997844e-12 </wgt>
<wgt id='1440'> +1.3172543e-12 </wgt>
<wgt id='1441'> +1.3207425e-12 </wgt>
<wgt id='1442'> +1.2780337e-12 </wgt>
<wgt id='1443'> +1.3102622e-12 </wgt>
<wgt id='1444'> +1.3039523e-12 </wgt>
<wgt id='1445'> +1.3144751e-12 </wgt>
<wgt id='1446'> +1.3049678e-12 </wgt>
<wgt id='1447'> +1.3055040e-12 </wgt>
<wgt id='1448'> +1.3117144e-12 </wgt>
<wgt id='1449'> +1.3028572e-12 </wgt>
<wgt id='1450'> +1.3072235e-12 </wgt>
<wgt id='1451'> +1.3231263e-12 </wgt>
<wgt id='1452'> +1.2851848e-12 </wgt>
<wgt id='1453'> +1.3058001e-12 </wgt>
<wgt id='1454'> +1.3028013e-12 </wgt>
<wgt id='1455'> +1.3101103e-12 </wgt>
<wgt id='1456'> +1.3189067e-12 </wgt>
<wgt id='1457'> +1.3239977e-12 </wgt>
<wgt id='1458'> +1.2995442e-12 </wgt>
<wgt id='1459'> +1.3084348e-12 </wgt>
<wgt id='1460'> +1.3149821e-12 </wgt>
<wgt id='1461'> +1.3060287e-12 </wgt>
<wgt id='1462'> +1.2999556e-12 </wgt>
<wgt id='1463'> +1.3124576e-12 </wgt>
<wgt id='1464'> +1.3062640e-12 </wgt>
<wgt id='1465'> +1.2544492e-12 </wgt>
<wgt id='1466'> +1.2658249e-12 </wgt>
<wgt id='1467'> +1.2765499e-12 </wgt>
<wgt id='1468'> +1.2865607e-12 </wgt>
<wgt id='1469'> +1.2966736e-12 </wgt>
<wgt id='1470'> +1.3156660e-12 </wgt>
<wgt id='1471'> +1.3229544e-12 </wgt>
<wgt id='1472'> +1.3319961e-12 </wgt>
<wgt id='1473'> +1.3062640e-12 </wgt>
<wgt id='1474'> +1.3044278e-12 </wgt>
<wgt id='1475'> +1.3052815e-12 </wgt>
<wgt id='1476'> +1.3069396e-12 </wgt>
<wgt id='1477'> +1.3075091e-12 </wgt>
<wgt id='1478'> +1.3621457e-12 </wgt>
<wgt id='1479'> +1.3613625e-12 </wgt>
<wgt id='1480'> +1.3696271e-12 </wgt>
<wgt id='1481'> +1.3840491e-12 </wgt>
<wgt id='1482'> +1.3649504e-12 </wgt>
<wgt id='1483'> +1.3440389e-12 </wgt>
<wgt id='1484'> +1.3661667e-12 </wgt>
<wgt id='1485'> +1.3685619e-12 </wgt>
<wgt id='1486'> +1.3620393e-12 </wgt>
<wgt id='1487'> +1.3389737e-12 </wgt>
<wgt id='1488'> +1.3597864e-12 </wgt>
<wgt id='1489'> +1.3620927e-12 </wgt>
<wgt id='1490'> +1.3570496e-12 </wgt>
<wgt id='1491'> +1.3694468e-12 </wgt>
<wgt id='1492'> +1.3612653e-12 </wgt>
<wgt id='1493'> +1.3383411e-12 </wgt>
<wgt id='1494'> +1.3554403e-12 </wgt>
<wgt id='1495'> +1.3676050e-12 </wgt>
<wgt id='1496'> +1.3656449e-12 </wgt>
<wgt id='1497'> +1.3306320e-12 </wgt>
<wgt id='1498'> +1.3602194e-12 </wgt>
<wgt id='1499'> +1.3652644e-12 </wgt>
<wgt id='1500'> +1.3589384e-12 </wgt>
<wgt id='1501'> +1.3628447e-12 </wgt>
<wgt id='1502'> +1.3678394e-12 </wgt>
<wgt id='1503'> +1.3652800e-12 </wgt>
<wgt id='1504'> +1.3623099e-12 </wgt>
<wgt id='1505'> +1.3597292e-12 </wgt>
<wgt id='1506'> +1.3630831e-12 </wgt>
<wgt id='1507'> +1.3607013e-12 </wgt>
<wgt id='1508'> +1.3706335e-12 </wgt>
<wgt id='1509'> +1.3216854e-12 </wgt>
<wgt id='1510'> +1.3242082e-12 </wgt>
<wgt id='1511'> +1.3073483e-12 </wgt>
<wgt id='1512'> +1.3085192e-12 </wgt>
<wgt id='1513'> +1.3275883e-12 </wgt>
<wgt id='1514'> +1.3277994e-12 </wgt>
<wgt id='1515'> +1.3214133e-12 </wgt>
<wgt id='1516'> +1.3296446e-12 </wgt>
<wgt id='1517'> +1.3277217e-12 </wgt>
<wgt id='1518'> +1.3287054e-12 </wgt>
<wgt id='1519'> +1.3154962e-12 </wgt>
<wgt id='1520'> +1.3195436e-12 </wgt>
<wgt id='1521'> +1.3272207e-12 </wgt>
<wgt id='1522'> +1.3186739e-12 </wgt>
<wgt id='1523'> +1.3244808e-12 </wgt>
<wgt id='1524'> +1.3216999e-12 </wgt>
<wgt id='1525'> +1.3267338e-12 </wgt>
<wgt id='1526'> +1.3168606e-12 </wgt>
<wgt id='1527'> +1.3161801e-12 </wgt>
<wgt id='1528'> +1.3240153e-12 </wgt>
<wgt id='1529'> +1.3186516e-12 </wgt>
<wgt id='1530'> +1.3274809e-12 </wgt>
<wgt id='1531'> +1.3217135e-12 </wgt>
<wgt id='1532'> +1.3192910e-12 </wgt>
<wgt id='1533'> +1.3220414e-12 </wgt>
<wgt id='1534'> +1.3206413e-12 </wgt>
<wgt id='1535'> +1.3119929e-12 </wgt>
<wgt id='1536'> +1.3194011e-12 </wgt>
<wgt id='1537'> +1.3267907e-12 </wgt>
<wgt id='1538'> +1.3214901e-12 </wgt>
<wgt id='1539'> +1.3098631e-12 </wgt>
<wgt id='1540'> +1.3285057e-12 </wgt>
<wgt id='1541'> +1.3309652e-12 </wgt>
<wgt id='1542'> +1.3237743e-12 </wgt>
<wgt id='1543'> +1.3125370e-12 </wgt>
<wgt id='1544'> +1.3421933e-12 </wgt>
<wgt id='1545'> +1.3299069e-12 </wgt>
<wgt id='1546'> +1.3150471e-12 </wgt>
<wgt id='1547'> +1.3294742e-12 </wgt>
<wgt id='1548'> +1.3172398e-12 </wgt>
<wgt id='1549'> +1.3233992e-12 </wgt>
<wgt id='1550'> +1.3234342e-12 </wgt>
<wgt id='1551'> +1.3253256e-12 </wgt>
<wgt id='1552'> +1.3173667e-12 </wgt>
<wgt id='1553'> +1.3263750e-12 </wgt>
<wgt id='1554'> +1.3169960e-12 </wgt>
<wgt id='1555'> +1.3207735e-12 </wgt>
<wgt id='1556'> +1.3172584e-12 </wgt>
<wgt id='1557'> +1.3243677e-12 </wgt>
<wgt id='1558'> +1.3252403e-12 </wgt>
<wgt id='1559'> +1.3227347e-12 </wgt>
<wgt id='1560'> +1.3251793e-12 </wgt>
<wgt id='1561'> +1.3170307e-12 </wgt>
<wgt id='1562'> +1.3205370e-12 </wgt>
<wgt id='1563'> +1.3249008e-12 </wgt>
<wgt id='1564'> +1.3201927e-12 </wgt>
<wgt id='1565'> +1.3231488e-12 </wgt>
<wgt id='1566'> +1.3222592e-12 </wgt>
<wgt id='1567'> +1.3304965e-12 </wgt>
<wgt id='1568'> +1.3210594e-12 </wgt>
<wgt id='1569'> +1.3182338e-12 </wgt>
<wgt id='1570'> +1.3225876e-12 </wgt>
<wgt id='1571'> +1.3198596e-12 </wgt>
<wgt id='1572'> +1.3178379e-12 </wgt>
<wgt id='1573'> +1.3142953e-12 </wgt>
<wgt id='1574'> +1.3247674e-12 </wgt>
<wgt id='1575'> +1.3232107e-12 </wgt>
<wgt id='1576'> +1.3239172e-12 </wgt>
<wgt id='1577'> +1.3223149e-12 </wgt>
<wgt id='1578'> +1.3242172e-12 </wgt>
<wgt id='1579'> +1.3188590e-12 </wgt>
<wgt id='1580'> +1.3181756e-12 </wgt>
<wgt id='1581'> +1.3195142e-12 </wgt>
<wgt id='1582'> +1.3242609e-12 </wgt>
<wgt id='1583'> +1.3231384e-12 </wgt>
<wgt id='1584'> +1.3238819e-12 </wgt>
<wgt id='1585'> +1.3224612e-12 </wgt>
<wgt id='1586'> +1.3206973e-12 </wgt>
<wgt id='1587'> +1.3237305e-12 </wgt>
<wgt id='1588'> +1.3180935e-12 </wgt>
<wgt id='1589'> +1.3234090e-12 </wgt>
<wgt id='1590'> +1.3229490e-12 </wgt>
<wgt id='1591'> +1.3237007e-12 </wgt>
<wgt id='1592'> +1.3228684e-12 </wgt>
<wgt id='1593'> +1.3219639e-12 </wgt>
<wgt id='1594'> +1.3221879e-12 </wgt>
<wgt id='1595'> +1.3230924e-12 </wgt>
<wgt id='1596'> +1.3185074e-12 </wgt>
<wgt id='1597'> +1.3222025e-12 </wgt>
<wgt id='1598'> +1.3218850e-12 </wgt>
<wgt id='1599'> +1.3184443e-12 </wgt>
<wgt id='1600'> +1.3177290e-12 </wgt>
<wgt id='1601'> +1.3228994e-12 </wgt>
<wgt id='1602'> +1.3214031e-12 </wgt>
<wgt id='1603'> +1.3214205e-12 </wgt>
<wgt id='1604'> +1.3212798e-12 </wgt>
<wgt id='1605'> +1.3226182e-12 </wgt>
<wgt id='1606'> +1.3214270e-12 </wgt>
<wgt id='1607'> +1.3183717e-12 </wgt>
<wgt id='1608'> +1.3225200e-12 </wgt>
<wgt id='1609'> +1.3245641e-12 </wgt>
<wgt id='1610'> +1.3216464e-12 </wgt>
<wgt id='1611'> +1.3198036e-12 </wgt>
<wgt id='1612'> +1.6041556e-12 </wgt>
<wgt id='1613'> +1.6716242e-12 </wgt>
<wgt id='1614'> +1.6092929e-12 </wgt>
<wgt id='1615'> +1.5811643e-12 </wgt>
<wgt id='1616'> +1.5859831e-12 </wgt>
<wgt id='1617'> +1.5805166e-12 </wgt>
<wgt id='1618'> +1.7324734e-12 </wgt>
<wgt id='1619'> +1.5918366e-12 </wgt>
<wgt id='1620'> +1.5136255e-12 </wgt>
<wgt id='1621'> +1.6363394e-12 </wgt>
<wgt id='1622'> +1.5780865e-12 </wgt>
<wgt id='1623'> +1.6781772e-12 </wgt>
<wgt id='1624'> +1.6500969e-12 </wgt>
<wgt id='1625'> +1.5768541e-12 </wgt>
<wgt id='1626'> +1.5457605e-12 </wgt>
<wgt id='1627'> +1.6720609e-12 </wgt>
<wgt id='1628'> +1.7219963e-12 </wgt>
<wgt id='1629'> +1.5995623e-12 </wgt>
<wgt id='1630'> +1.5124025e-12 </wgt>
<wgt id='1631'> +1.5957294e-12 </wgt>
<wgt id='1632'> +1.5226581e-12 </wgt>
<wgt id='1633'> +1.5039195e-12 </wgt>
<wgt id='1634'> +1.6239866e-12 </wgt>
<wgt id='1635'> +1.5856947e-12 </wgt>
<wgt id='1636'> +1.6079219e-12 </wgt>
<wgt id='1637'> +1.5777750e-12 </wgt>
<wgt id='1638'> +1.6412987e-12 </wgt>
<wgt id='1639'> +1.5154001e-12 </wgt>
<wgt id='1640'> +1.5526604e-12 </wgt>
<wgt id='1641'> +1.5979328e-12 </wgt>
<wgt id='1642'> +1.5065388e-12 </wgt>
<wgt id='1643'> +1.6579938e-12 </wgt>
<wgt id='1644'> +1.5177256e-12 </wgt>
<wgt id='1645'> +1.6109121e-12 </wgt>
<wgt id='1646'> +1.5689411e-12 </wgt>
<wgt id='1647'> +1.6470219e-12 </wgt>
<wgt id='1648'> +1.6014063e-12 </wgt>
<wgt id='1649'> +1.8100942e-12 </wgt>
<wgt id='1650'> +1.6289413e-12 </wgt>
<wgt id='1651'> +1.5543703e-12 </wgt>
<wgt id='1652'> +1.5648041e-12 </wgt>
<wgt id='1653'> +1.6406367e-12 </wgt>
<wgt id='1654'> +1.7125024e-12 </wgt>
<wgt id='1655'> +1.6742975e-12 </wgt>
<wgt id='1656'> +1.6411459e-12 </wgt>
<wgt id='1657'> +1.6411211e-12 </wgt>
<wgt id='1658'> +1.5209722e-12 </wgt>
<wgt id='1659'> +1.6500969e-12 </wgt>
<wgt id='1660'> +1.6723163e-12 </wgt>
<wgt id='1661'> +1.6583368e-12 </wgt>
<wgt id='1662'> +1.6022838e-12 </wgt>
<wgt id='1663'> +1.5445338e-12 </wgt>
<wgt id='1664'> +1.6405932e-12 </wgt>
<wgt id='1665'> +1.5899494e-12 </wgt>
<wgt id='1666'> +1.6255955e-12 </wgt>
<wgt id='1667'> +1.6261650e-12 </wgt>
<wgt id='1668'> +1.6477921e-12 </wgt>
<wgt id='1669'> +1.6247322e-12 </wgt>
<wgt id='1670'> +1.5666449e-12 </wgt>
<wgt id='1671'> +1.5715889e-12 </wgt>
<wgt id='1672'> +1.6126742e-12 </wgt>
<wgt id='1673'> +1.5479891e-12 </wgt>
<wgt id='1674'> +1.6101064e-12 </wgt>
<wgt id='1675'> +1.6394534e-12 </wgt>
<wgt id='1676'> +1.6464572e-12 </wgt>
<wgt id='1677'> +1.4932692e-12 </wgt>
<wgt id='1678'> +1.5263441e-12 </wgt>
<wgt id='1679'> +1.5585677e-12 </wgt>
<wgt id='1680'> +1.7545526e-12 </wgt>
<wgt id='1681'> +1.6077421e-12 </wgt>
<wgt id='1682'> +1.5994732e-12 </wgt>
<wgt id='1683'> +1.5805541e-12 </wgt>
<wgt id='1684'> +1.6075802e-12 </wgt>
<wgt id='1685'> +1.6447314e-12 </wgt>
<wgt id='1686'> +1.6267897e-12 </wgt>
<wgt id='1687'> +1.6037496e-12 </wgt>
<wgt id='1688'> +1.5827993e-12 </wgt>
<wgt id='1689'> +1.5382569e-12 </wgt>
<wgt id='1690'> +1.5842793e-12 </wgt>
<wgt id='1691'> +1.5892557e-12 </wgt>
<wgt id='1692'> +1.5847977e-12 </wgt>
<wgt id='1693'> +1.5248993e-12 </wgt>
<wgt id='1694'> +1.6189271e-12 </wgt>
<wgt id='1695'> +1.5501498e-12 </wgt>
<wgt id='1696'> +1.5301279e-12 </wgt>
<wgt id='1697'> +1.6007364e-12 </wgt>
<wgt id='1698'> +1.6114526e-12 </wgt>
<wgt id='1699'> +1.6094567e-12 </wgt>
<wgt id='1700'> +1.6078586e-12 </wgt>
<wgt id='1701'> +1.5785073e-12 </wgt>
<wgt id='1702'> +1.6366867e-12 </wgt>
<wgt id='1703'> +1.5654937e-12 </wgt>
<wgt id='1704'> +1.6279793e-12 </wgt>
<wgt id='1705'> +1.4528436e-12 </wgt>
<wgt id='1706'> +1.6560571e-12 </wgt>
<wgt id='1707'> +1.6290179e-12 </wgt>
<wgt id='1708'> +1.6417154e-12 </wgt>
<wgt id='1709'> +1.6518032e-12 </wgt>
<wgt id='1710'> +1.5782982e-12 </wgt>
<wgt id='1711'> +1.6660287e-12 </wgt>
<wgt id='1712'> +1.6693558e-12 </wgt>
<wgt id='1713'> +1.3317438e-12 </wgt>
<wgt id='1714'> +1.2257014e-12 </wgt>
<wgt id='1715'> +1.2525143e-12 </wgt>
<wgt id='1716'> +1.3389354e-12 </wgt>
<wgt id='1717'> +1.3389451e-12 </wgt>
<wgt id='1718'> +1.3828843e-12 </wgt>
<wgt id='1719'> +1.3018821e-12 </wgt>
<wgt id='1720'> +1.3520756e-12 </wgt>
<wgt id='1721'> +1.3393171e-12 </wgt>
<wgt id='1722'> +1.3432684e-12 </wgt>
<wgt id='1723'> +1.4161614e-12 </wgt>
<wgt id='1724'> +1.2804270e-12 </wgt>
<wgt id='1725'> +1.3218089e-12 </wgt>
<wgt id='1726'> +1.3630807e-12 </wgt>
<wgt id='1727'> +1.3630729e-12 </wgt>
<wgt id='1728'> +1.3113803e-12 </wgt>
<wgt id='1729'> +1.3156399e-12 </wgt>
<wgt id='1730'> +1.3182308e-12 </wgt>
<wgt id='1731'> +1.2757124e-12 </wgt>
<wgt id='1732'> +1.3433411e-12 </wgt>
<wgt id='1733'> +1.3797946e-12 </wgt>
<wgt id='1734'> +1.3752610e-12 </wgt>
<wgt id='1735'> +1.3570297e-12 </wgt>
<wgt id='1736'> +1.3615953e-12 </wgt>
<wgt id='1737'> +1.4494881e-12 </wgt>
<wgt id='1738'> +1.3359994e-12 </wgt>
<wgt id='1739'> +1.3634887e-12 </wgt>
<wgt id='1740'> +1.3036635e-12 </wgt>
<wgt id='1741'> +1.3659832e-12 </wgt>
<wgt id='1742'> +1.3307910e-12 </wgt>
<wgt id='1743'> +1.3577059e-12 </wgt>
<wgt id='1744'> +1.4222486e-12 </wgt>
<wgt id='1745'> +1.3520205e-12 </wgt>
<wgt id='1746'> +1.3364537e-12 </wgt>
<wgt id='1747'> +1.3620424e-12 </wgt>
<wgt id='1748'> +1.3677007e-12 </wgt>
<wgt id='1749'> +1.3184723e-12 </wgt>
<wgt id='1750'> +1.3577728e-12 </wgt>
<wgt id='1751'> +1.3376092e-12 </wgt>
<wgt id='1752'> +1.3130947e-12 </wgt>
<wgt id='1753'> +1.3440034e-12 </wgt>
<wgt id='1754'> +1.2491517e-12 </wgt>
<wgt id='1755'> +1.3205918e-12 </wgt>
<wgt id='1756'> +1.3800846e-12 </wgt>
<wgt id='1757'> +1.3432818e-12 </wgt>
<wgt id='1758'> +1.3747732e-12 </wgt>
<wgt id='1759'> +1.2800606e-12 </wgt>
<wgt id='1760'> +1.3082967e-12 </wgt>
<wgt id='1761'> +1.3440671e-12 </wgt>
<wgt id='1762'> +1.3459681e-12 </wgt>
<wgt id='1763'> +1.3135265e-12 </wgt>
<wgt id='1764'> +1.3357490e-12 </wgt>
<wgt id='1765'> +1.3272469e-12 </wgt>
<wgt id='1766'> +1.4180009e-12 </wgt>
<wgt id='1767'> +1.3265858e-12 </wgt>
<wgt id='1768'> +1.3571004e-12 </wgt>
<wgt id='1769'> +1.2983057e-12 </wgt>
<wgt id='1770'> +1.2421228e-12 </wgt>
<wgt id='1771'> +1.3202764e-12 </wgt>
<wgt id='1772'> +1.3750198e-12 </wgt>
<wgt id='1773'> +1.3596236e-12 </wgt>
<wgt id='1774'> +1.3113487e-12 </wgt>
<wgt id='1775'> +1.3229708e-12 </wgt>
<wgt id='1776'> +1.3224641e-12 </wgt>
<wgt id='1777'> +1.2694323e-12 </wgt>
<wgt id='1778'> +1.3308448e-12 </wgt>
<wgt id='1779'> +1.3740951e-12 </wgt>
<wgt id='1780'> +1.3476632e-12 </wgt>
<wgt id='1781'> +1.3643876e-12 </wgt>
<wgt id='1782'> +1.3837886e-12 </wgt>
<wgt id='1783'> +1.3829905e-12 </wgt>
<wgt id='1784'> +1.3005732e-12 </wgt>
<wgt id='1785'> +1.3324240e-12 </wgt>
<wgt id='1786'> +1.2432545e-12 </wgt>
<wgt id='1787'> +1.3887295e-12 </wgt>
<wgt id='1788'> +1.2714779e-12 </wgt>
<wgt id='1789'> +1.3754273e-12 </wgt>
<wgt id='1790'> +1.3495563e-12 </wgt>
<wgt id='1791'> +1.3006322e-12 </wgt>
<wgt id='1792'> +1.2945142e-12 </wgt>
<wgt id='1793'> +1.3594049e-12 </wgt>
<wgt id='1794'> +1.3333363e-12 </wgt>
<wgt id='1795'> +1.3473623e-12 </wgt>
<wgt id='1796'> +1.2948328e-12 </wgt>
<wgt id='1797'> +1.3369294e-12 </wgt>
<wgt id='1798'> +1.3213074e-12 </wgt>
<wgt id='1799'> +1.2925177e-12 </wgt>
<wgt id='1800'> +1.2906080e-12 </wgt>
<wgt id='1801'> +1.2748727e-12 </wgt>
<wgt id='1802'> +1.2610744e-12 </wgt>
<wgt id='1803'> +1.3746342e-12 </wgt>
<wgt id='1804'> +1.3437745e-12 </wgt>
<wgt id='1805'> +1.3752417e-12 </wgt>
<wgt id='1806'> +1.3088949e-12 </wgt>
<wgt id='1807'> +1.2717673e-12 </wgt>
<wgt id='1808'> +1.3255552e-12 </wgt>
<wgt id='1809'> +1.3168956e-12 </wgt>
<wgt id='1810'> +1.3187204e-12 </wgt>
<wgt id='1811'> +1.3232610e-12 </wgt>
<wgt id='1812'> +1.2706430e-12 </wgt>
<wgt id='1813'> +1.2744251e-12 </wgt>
<wgt id='1814'> +1.7993451e-12 </wgt>
<wgt id='1815'> +2.1420283e-12 </wgt>
<wgt id='1816'> +1.3317438e-12 </wgt>
<wgt id='1817'> +1.2257014e-12 </wgt>
<wgt id='1818'> +1.2525143e-12 </wgt>
<wgt id='1819'> +1.3389354e-12 </wgt>
<wgt id='1820'> +1.3389451e-12 </wgt>
<wgt id='1821'> +1.3828843e-12 </wgt>
<wgt id='1822'> +1.3018821e-12 </wgt>
<wgt id='1823'> +1.3520756e-12 </wgt>
<wgt id='1824'> +1.3393171e-12 </wgt>
<wgt id='1825'> +1.3432684e-12 </wgt>
<wgt id='1826'> +1.4161614e-12 </wgt>
<wgt id='1827'> +1.2804270e-12 </wgt>
<wgt id='1828'> +1.3218089e-12 </wgt>
<wgt id='1829'> +1.3630807e-12 </wgt>
<wgt id='1830'> +1.3630729e-12 </wgt>
<wgt id='1831'> +1.3113803e-12 </wgt>
<wgt id='1832'> +1.3156399e-12 </wgt>
<wgt id='1833'> +1.3182308e-12 </wgt>
<wgt id='1834'> +1.2757124e-12 </wgt>
<wgt id='1835'> +1.3433411e-12 </wgt>
<wgt id='1836'> +1.3797946e-12 </wgt>
<wgt id='1837'> +1.3752610e-12 </wgt>
<wgt id='1838'> +1.3570297e-12 </wgt>
<wgt id='1839'> +1.3615953e-12 </wgt>
<wgt id='1840'> +1.4494881e-12 </wgt>
<wgt id='1841'> +1.3359994e-12 </wgt>
<wgt id='1842'> +1.3634887e-12 </wgt>
<wgt id='1843'> +1.3036635e-12 </wgt>
<wgt id='1844'> +1.3659832e-12 </wgt>
<wgt id='1845'> +1.3307910e-12 </wgt>
<wgt id='1846'> +1.3577059e-12 </wgt>
<wgt id='1847'> +1.4222486e-12 </wgt>
<wgt id='1848'> +1.3520205e-12 </wgt>
<wgt id='1849'> +1.3364537e-12 </wgt>
<wgt id='1850'> +1.3620424e-12 </wgt>
<wgt id='1851'> +1.3677007e-12 </wgt>
<wgt id='1852'> +1.3184723e-12 </wgt>
<wgt id='1853'> +1.3577728e-12 </wgt>
<wgt id='1854'> +1.3376092e-12 </wgt>
<wgt id='1855'> +1.3130947e-12 </wgt>
<wgt id='1856'> +1.3440034e-12 </wgt>
<wgt id='1857'> +1.2491517e-12 </wgt>
<wgt id='1858'> +1.3205918e-12 </wgt>
<wgt id='1859'> +1.3800846e-12 </wgt>
<wgt id='1860'> +1.3432818e-12 </wgt>
<wgt id='1861'> +1.3747732e-12 </wgt>
<wgt id='1862'> +1.2800606e-12 </wgt>
<wgt id='1863'> +1.3082967e-12 </wgt>
<wgt id='1864'> +1.3440671e-12 </wgt>
<wgt id='1865'> +1.3459681e-12 </wgt>
<wgt id='1866'> +1.3135265e-12 </wgt>
<wgt id='1867'> +1.3357490e-12 </wgt>
<wgt id='1868'> +1.3272469e-12 </wgt>
<wgt id='1869'> +1.4180009e-12 </wgt>
<wgt id='1870'> +1.3265858e-12 </wgt>
<wgt id='1871'> +1.3571004e-12 </wgt>
<wgt id='1872'> +1.2983057e-12 </wgt>
<wgt id='1873'> +1.2421228e-12 </wgt>
<wgt id='1874'> +1.3202764e-12 </wgt>
<wgt id='1875'> +1.3750198e-12 </wgt>
<wgt id='1876'> +1.3596236e-12 </wgt>
<wgt id='1877'> +1.3113487e-12 </wgt>
<wgt id='1878'> +1.3229708e-12 </wgt>
<wgt id='1879'> +1.3224641e-12 </wgt>
<wgt id='1880'> +1.2694323e-12 </wgt>
<wgt id='1881'> +1.3308448e-12 </wgt>
<wgt id='1882'> +1.3740951e-12 </wgt>
<wgt id='1883'> +1.3476632e-12 </wgt>
<wgt id='1884'> +1.3643876e-12 </wgt>
<wgt id='1885'> +1.3837886e-12 </wgt>
<wgt id='1886'> +1.3829905e-12 </wgt>
<wgt id='1887'> +1.3005732e-12 </wgt>
<wgt id='1888'> +1.3324240e-12 </wgt>
<wgt id='1889'> +1.2432545e-12 </wgt>
<wgt id='1890'> +1.3887295e-12 </wgt>
<wgt id='1891'> +1.2714779e-12 </wgt>
<wgt id='1892'> +1.3754273e-12 </wgt>
<wgt id='1893'> +1.3495563e-12 </wgt>
<wgt id='1894'> +1.3006322e-12 </wgt>
<wgt id='1895'> +1.2945142e-12 </wgt>
<wgt id='1896'> +1.3594049e-12 </wgt>
<wgt id='1897'> +1.3333363e-12 </wgt>
<wgt id='1898'> +1.3473623e-12 </wgt>
<wgt id='1899'> +1.2948328e-12 </wgt>
<wgt id='1900'> +1.3369294e-12 </wgt>
<wgt id='1901'> +1.3213074e-12 </wgt>
<wgt id='1902'> +1.2925177e-12 </wgt>
<wgt id='1903'> +1.2906080e-12 </wgt>
<wgt id='1904'> +1.2748727e-12 </wgt>
<wgt id='1905'> +1.2610744e-12 </wgt>
<wgt id='1906'> +1.3746342e-12 </wgt>
<wgt id='1907'> +1.3437745e-12 </wgt>
<wgt id='1908'> +1.3752417e-12 </wgt>
<wgt id='1909'> +1.3088949e-12 </wgt>
<wgt id='1910'> +1.2717673e-12 </wgt>
<wgt id='1911'> +1.3255552e-12 </wgt>
<wgt id='1912'> +1.3168956e-12 </wgt>
<wgt id='1913'> +1.3187204e-12 </wgt>
<wgt id='1914'> +1.3232610e-12 </wgt>
<wgt id='1915'> +1.2706430e-12 </wgt>
<wgt id='1916'> +1.2744251e-12 </wgt>
<wgt id='1917'> +1.3228512e-12 </wgt>
<wgt id='1918'> +1.3417287e-12 </wgt>
<wgt id='1919'> +1.2657109e-12 </wgt>
</rwgt>
</event>
<event>
 9      1 +1.5538000e-12 2.62813100e+01 7.81860800e-03 1.49054600e-01
       21 -1    0    0  501  502 +0.0000000000e+00 +0.0000000000e+00 +5.6493640954e+00 5.6493640954e+00 0.0000000000e+00 0.0000e+00 -1.0000e+00
        2 -1    0    0  502    0 -0.0000000000e+00 -0.0000000000e+00 -2.0596044510e+02 2.0596044510e+02 0.0000000000e+00 0.0000e+00 -1.0000e+00
     1023  2    1    2    0    0 -1.3264698787e+01 -1.7022573388e+01 -1.8021510067e+02 1.8212135952e+02 1.4999561513e+01 0.0000e+00 0.0000e+00
  1000023  2    3    3    0    0 +2.4053340091e-01 -5.3583063033e+00 -4.7101858582e+01 4.7724255229e+01 5.5000138593e+00 0.0000e+00 0.0000e+00
        2  1    1    2  501    0 +1.3264698787e+01 +1.7022573388e+01 -2.0095980337e+01 2.9488449677e+01 0.0000000000e+00 0.0000e+00 -1.0000e+00
  1000022  1    4    4    0    0 +3.2949598032e-01 -5.2096658832e+00 -4.2277092551e+01 4.2890578695e+01 5.0000000000e+00 0.0000e+00 -1.0000e+00
      -11  1    4    4    0    0 -3.5130232717e-02 -2.0168116795e-01 -4.0675530885e+00 4.0727015378e+00 5.1100000000e-04 0.0000e+00 -1.0000e+00
       11  1    4    4    0    0 -5.3832346692e-02 +5.3040747871e-02 -7.5721294315e-01 7.6097499622e-01 5.1100000000e-04 0.0000e+00 1.0000e+00
  1000022  1    3    3    0    0 -1.3505232188e+01 -1.1664267085e+01 -1.3311324208e+02 1.3439710429e+02 5.0000000000e+00 0.0000e+00 -1.0000e+00
<mgrwt>
<rscale>  1 0.26281307E+02</rscale>
<asrwt>0</asrwt>
<pdfrwt beam="1">  1       21 0.86913306E-03 0.26281307E+02</pdfrwt>
<pdfrwt beam="2">  1        2 0.31686218E-01 0.26281307E+02</pdfrwt>
<totfact> 0.63353692E+06</totfact>
</mgrwt>
<rwgt>
<wgt id='1001'> +1.5538000e-12 </wgt>
<wgt id='1002'> +1.6200538e-12 </wgt>
<wgt id='1003'> +1.6251881e-12 </wgt>
<wgt id='1004'> +1.5378680e-12 </wgt>
<wgt id='1005'> +1.6508535e-12 </wgt>
<wgt id='1006'> +1.3545200e-12 </wgt>
<wgt id='1007'> +1.4322117e-12 </wgt>
<wgt id='1008'> +1.4386531e-12 </wgt>
<wgt id='1009'> +1.3366912e-12 </wgt>
<wgt id='1010'> +1.4726464e-12 </wgt>
<wgt id='1011'> +1.8253607e-12 </wgt>
<wgt id='1012'> +1.8671557e-12 </wgt>
<wgt id='1013'> +1.8697847e-12 </wgt>
<wgt id='1014'> +1.8140599e-12 </wgt>
<wgt id='1015'> +1.8801506e-12 </wgt>
<wgt id='1016'> +1.8736941e-12 </wgt>
<wgt id='1017'> +1.8818571e-12 </wgt>
<wgt id='1018'> +1.8816135e-12 </wgt>
<wgt id='1019'> +1.8697847e-12 </wgt>
<wgt id='1020'> +1.8765746e-12 </wgt>
<wgt id='1021'> +1.6333867e-12 </wgt>
<wgt id='1022'> +1.6636594e-12 </wgt>
<wgt id='1023'> +1.6656467e-12 </wgt>
<wgt id='1024'> +1.6251881e-12 </wgt>
<wgt id='1025'> +1.6740014e-12 </wgt>
<wgt id='1026'> +2.2011633e-12 </wgt>
<wgt id='1027'> +2.1688909e-12 </wgt>
<wgt id='1028'> +2.1648031e-12 </wgt>
<wgt id='1029'> +2.2055867e-12 </wgt>
<wgt id='1030'> +2.1372235e-12 </wgt>
<wgt id='1031'> +1.1981096e-12 </wgt>
<wgt id='1032'> +1.3258200e-12 </wgt>
<wgt id='1033'> +1.3366912e-12 </wgt>
<wgt id='1034'> +1.1691427e-12 </wgt>
<wgt id='1035'> +1.3965187e-12 </wgt>
<wgt id='1036'> +1.0444481e-12 </wgt>
<wgt id='1037'> +1.1720937e-12 </wgt>
<wgt id='1038'> +1.1832692e-12 </wgt>
<wgt id='1039'> +1.0162008e-12 </wgt>
<wgt id='1040'> +1.2457667e-12 </wgt>
<wgt id='1041'> +1.4075055e-12 </wgt>
<wgt id='1042'> +1.5280432e-12 </wgt>
<wgt id='1043'> +1.5378680e-12 </wgt>
<wgt id='1044'> +1.3791137e-12 </wgt>
<wgt id='1045'> +1.5904897e-12 </wgt>
<wgt id='1046'> +1.5538000e-12 </wgt>
<wgt id='1047'> +1.5940251e-12 </wgt>
<wgt id='1048'> +1.5645214e-12 </wgt>
<wgt id='1049'> +1.5197365e-12 </wgt>
<wgt id='1050'> +1.5214752e-12 </wgt>
<wgt id='1051'> +1.5211101e-12 </wgt>
<wgt id='1052'> +1.5384097e-12 </wgt>
<wgt id='1053'> +1.5836748e-12 </wgt>
<wgt id='1054'> +1.5614058e-12 </wgt>
<wgt id='1055'> +1.5150076e-12 </wgt>
<wgt id='1056'> +1.5156247e-12 </wgt>
<wgt id='1057'> +1.5484309e-12 </wgt>
<wgt id='1058'> +1.5103793e-12 </wgt>
<wgt id='1059'> +1.5613547e-12 </wgt>
<wgt id='1060'> +1.5683139e-12 </wgt>
<wgt id='1061'> +1.5692442e-12 </wgt>
<wgt id='1062'> +1.5681021e-12 </wgt>
<wgt id='1063'> +1.5519543e-12 </wgt>
<wgt id='1064'> +1.5464014e-12 </wgt>
<wgt id='1065'> +1.5771185e-12 </wgt>
<wgt id='1066'> +1.5360099e-12 </wgt>
<wgt id='1067'> +1.5376574e-12 </wgt>
<wgt id='1068'> +1.5907417e-12 </wgt>
<wgt id='1069'> +1.5862169e-12 </wgt>
<wgt id='1070'> +1.5587987e-12 </wgt>
<wgt id='1071'> +1.5327898e-12 </wgt>
<wgt id='1072'> +1.6004372e-12 </wgt>
<wgt id='1073'> +1.5608764e-12 </wgt>
<wgt id='1074'> +1.5407906e-12 </wgt>
<wgt id='1075'> +1.5631977e-12 </wgt>
<wgt id='1076'> +1.5288728e-12 </wgt>
<wgt id='1077'> +1.5643066e-12 </wgt>
<wgt id='1078'> +1.5145262e-12 </wgt>
<wgt id='1079'> +1.5330892e-12 </wgt>
<wgt id='1080'> +1.5412379e-12 </wgt>
<wgt id='1081'> +1.5515419e-12 </wgt>
<wgt id='1082'> +1.5319579e-12 </wgt>
<wgt id='1083'> +1.5642849e-12 </wgt>
<wgt id='1084'> +1.5217685e-12 </wgt>
<wgt id='1085'> +1.5502483e-12 </wgt>
<wgt id='1086'> +1.5902246e-12 </wgt>
<wgt id='1087'> +1.5295707e-12 </wgt>
<wgt id='1088'> +1.5727373e-12 </wgt>
<wgt id='1089'> +1.5477508e-12 </wgt>
<wgt id='1090'> +1.5354113e-12 </wgt>
<wgt id='1091'> +1.5692460e-12 </wgt>
<wgt id='1092'> +1.5959954e-12 </wgt>
<wgt id='1093'> +1.5545022e-12 </wgt>
<wgt id='1094'> +1.5900445e-12 </wgt>
<wgt id='1095'> +1.5775516e-12 </wgt>
<wgt id='1096'> +1.5779632e-12 </wgt>
<wgt id='1097'> +1.5491690e-12 </wgt>
<wgt id='1098'> +1.5522651e-12 </wgt>
<wgt id='1099'> +1.5368769e-12 </wgt>
<wgt id='1100'> +1.5916024e-12 </wgt>
<wgt id='1101'> +1.5919609e-12 </wgt>
<wgt id='1102'> +1.5408202e-12 </wgt>
<wgt id='1103'> +1.6052863e-12 </wgt>
<wgt id='1104'> +1.5293183e-12 </wgt>
<wgt id='1105'> +1.5001161e-12 </wgt>
<wgt id='1106'> +1.5802427e-12 </wgt>
<wgt id='1107'> +1.5771483e-12 </wgt>
<wgt id='1108'> +1.5661108e-12 </wgt>
<wgt id='1109'> +1.5622852e-12 </wgt>
<wgt id='1110'> +1.5517771e-12 </wgt>
<wgt id='1111'> +1.5497671e-12 </wgt>
<wgt id='1112'> +1.5347416e-12 </wgt>
<wgt id='1113'> +1.6152674e-12 </wgt>
<wgt id='1114'> +1.5703183e-12 </wgt>
<wgt id='1115'> +1.5679232e-12 </wgt>
<wgt id='1116'> +1.5950800e-12 </wgt>
<wgt id='1117'> +1.5203492e-12 </wgt>
<wgt id='1118'> +1.6313591e-12 </wgt>
<wgt id='1119'> +1.4800295e-12 </wgt>
<wgt id='1120'> +1.5226961e-12 </wgt>
<wgt id='1121'> +1.5338578e-12 </wgt>
<wgt id='1122'> +1.5507293e-12 </wgt>
<wgt id='1123'> +1.5592469e-12 </wgt>
<wgt id='1124'> +1.5401741e-12 </wgt>
<wgt id='1125'> +1.5227135e-12 </wgt>
<wgt id='1126'> +1.5500015e-12 </wgt>
<wgt id='1127'> +1.5684003e-12 </wgt>
<wgt id='1128'> +1.5681021e-12 </wgt>
<wgt id='1129'> +1.5505459e-12 </wgt>
<wgt id='1130'> +1.5437425e-12 </wgt>
<wgt id='1131'> +1.5544982e-12 </wgt>
<wgt id='1132'> +1.5739082e-12 </wgt>
<wgt id='1133'> +1.5237711e-12 </wgt>
<wgt id='1134'> +1.5426393e-12 </wgt>
<wgt id='1135'> +1.5009893e-12 </wgt>
<wgt id='1136'> +1.5282538e-12 </wgt>
<wgt id='1137'> +1.5517464e-12 </wgt>
<wgt id='1138'> +1.5310797e-12 </wgt>
<wgt id='1139'> +1.5484272e-12 </wgt>
<wgt id='1140'> +1.5744290e-12 </wgt>
<wgt id='1141'> +1.5703371e-12 </wgt>
<wgt id='1142'> +1.5427628e-12 </wgt>
<wgt id='1143'> +1.5622344e-12 </wgt>
<wgt id='1144'> +1.5318460e-12 </wgt>
<wgt id='1145'> +1.5842493e-12 </wgt>
<wgt id='1146'> +1.5628793e-12 </wgt>
<wgt id='1147'> +1.3309210e-12 </wgt>
<wgt id='1148'> +1.3585870e-12 </wgt>
<wgt id='1149'> +1.3114730e-12 </wgt>
<wgt id='1150'> +1.3433722e-12 </wgt>
<wgt id='1151'> +1.5584185e-12 </wgt>
<wgt id='1152'> +1.9408603e-12 </wgt>
<wgt id='1153'> +1.9345951e-12 </wgt>
<wgt id='1154'> +1.9444489e-12 </wgt>
<wgt id='1155'> +1.9376813e-12 </wgt>
<wgt id='1156'> +1.9424934e-12 </wgt>
<wgt id='1157'> +1.9441249e-12 </wgt>
<wgt id='1158'> +1.9364388e-12 </wgt>
<wgt id='1159'> +1.9437012e-12 </wgt>
<wgt id='1160'> +1.9390581e-12 </wgt>
<wgt id='1161'> +1.9375077e-12 </wgt>
<wgt id='1162'> +1.9431724e-12 </wgt>
<wgt id='1163'> +1.9430682e-12 </wgt>
<wgt id='1164'> +1.9386459e-12 </wgt>
<wgt id='1165'> +1.9360082e-12 </wgt>
<wgt id='1166'> +1.9453590e-12 </wgt>
<wgt id='1167'> +1.9550068e-12 </wgt>
<wgt id='1168'> +1.9225095e-12 </wgt>
<wgt id='1169'> +1.9444012e-12 </wgt>
<wgt id='1170'> +1.9381979e-12 </wgt>
<wgt id='1171'> +1.9317689e-12 </wgt>
<wgt id='1172'> +1.9519733e-12 </wgt>
<wgt id='1173'> +1.9235330e-12 </wgt>
<wgt id='1174'> +1.9577482e-12 </wgt>
<wgt id='1175'> +1.9450503e-12 </wgt>
<wgt id='1176'> +1.9366216e-12 </wgt>
<wgt id='1177'> +1.9381238e-12 </wgt>
<wgt id='1178'> +1.9483869e-12 </wgt>
<wgt id='1179'> +1.9410707e-12 </wgt>
<wgt id='1180'> +1.9337151e-12 </wgt>
<wgt id='1181'> +1.9428534e-12 </wgt>
<wgt id='1182'> +1.9379210e-12 </wgt>
<wgt id='1183'> +1.9326846e-12 </wgt>
<wgt id='1184'> +1.9415146e-12 </wgt>
<wgt id='1185'> +1.9364298e-12 </wgt>
<wgt id='1186'> +1.9438918e-12 </wgt>
<wgt id='1187'> +1.9421170e-12 </wgt>
<wgt id='1188'> +1.9404401e-12 </wgt>
<wgt id='1189'> +1.9365229e-12 </wgt>
<wgt id='1190'> +1.9251887e-12 </wgt>
<wgt id='1191'> +1.9399222e-12 </wgt>
<wgt id='1192'> +1.9429977e-12 </wgt>
<wgt id='1193'> +1.3206353e-12 </wgt>
<wgt id='1194'> +1.3136460e-12 </wgt>
<wgt id='1195'> +1.3263916e-12 </wgt>
<wgt id='1196'> +1.3250341e-12 </wgt>
<wgt id='1197'> +1.3157267e-12 </wgt>
<wgt id='1198'> +1.3203914e-12 </wgt>
<wgt id='1199'> +1.3210577e-12 </wgt>
<wgt id='1200'> +1.3198686e-12 </wgt>
<wgt id='1201'> +1.3212002e-12 </wgt>
<wgt id='1202'> +1.3192608e-12 </wgt>
<wgt id='1203'> +1.3225944e-12 </wgt>
<wgt id='1204'> +1.3124855e-12 </wgt>
<wgt id='1205'> +1.3255378e-12 </wgt>
<wgt id='1206'> +1.3240322e-12 </wgt>
<wgt id='1207'> +1.3160276e-12 </wgt>
<wgt id='1208'> +1.3189748e-12 </wgt>
<wgt id='1209'> +1.3212331e-12 </wgt>
<wgt id='1210'> +1.3168282e-12 </wgt>
<wgt id='1211'> +1.3175154e-12 </wgt>
<wgt id='1212'> +1.3222773e-12 </wgt>
<wgt id='1213'> +1.3191405e-12 </wgt>
<wgt id='1214'> +1.3056106e-12 </wgt>
<wgt id='1215'> +1.3436883e-12 </wgt>
<wgt id='1216'> +1.3219212e-12 </wgt>
<wgt id='1217'> +1.3191781e-12 </wgt>
<wgt id='1218'> +1.3258338e-12 </wgt>
<wgt id='1219'> +1.3178272e-12 </wgt>
<wgt id='1220'> +1.3270736e-12 </wgt>
<wgt id='1221'> +1.3187130e-12 </wgt>
<wgt id='1222'> +1.3335125e-12 </wgt>
<wgt id='1223'> +1.3002199e-12 </wgt>
<wgt id='1224'> +1.3238013e-12 </wgt>
<wgt id='1225'> +1.3193839e-12 </wgt>
<wgt id='1226'> +1.3182500e-12 </wgt>
<wgt id='1227'> +1.3224313e-12 </wgt>
<wgt id='1228'> +1.3078393e-12 </wgt>
<wgt id='1229'> +1.3260346e-12 </wgt>
<wgt id='1230'> +1.3187015e-12 </wgt>
<wgt id='1231'> +1.3228681e-12 </wgt>
<wgt id='1232'> +1.3180583e-12 </wgt>
<wgt id='1233'> +1.3212533e-12 </wgt>
<wgt id='1234'> +1.3206353e-12 </wgt>
<wgt id='1235'> +1.3126779e-12 </wgt>
<wgt id='1236'> +1.3156898e-12 </wgt>
<wgt id='1237'> +1.3183557e-12 </wgt>
<wgt id='1238'> +1.3228213e-12 </wgt>
<wgt id='1239'> +1.3246090e-12 </wgt>
<wgt id='1240'> +1.3264158e-12 </wgt>
<wgt id='1241'> +1.2767579e-12 </wgt>
<wgt id='1242'> +1.2668683e-12 </wgt>
<wgt id='1243'> +1.2864842e-12 </wgt>
<wgt id='1244'> +1.2734481e-12 </wgt>
<wgt id='1245'> +1.2791147e-12 </wgt>
<wgt id='1246'> +1.2749598e-12 </wgt>
<wgt id='1247'> +1.2782894e-12 </wgt>
<wgt id='1248'> +1.2766883e-12 </wgt>
<wgt id='1249'> +1.2767951e-12 </wgt>
<wgt id='1250'> +1.2781908e-12 </wgt>
<wgt id='1251'> +1.2757103e-12 </wgt>
<wgt id='1252'> +1.2745065e-12 </wgt>
<wgt id='1253'> +1.2784485e-12 </wgt>
<wgt id='1254'> +1.2700312e-12 </wgt>
<wgt id='1255'> +1.2807261e-12 </wgt>
<wgt id='1256'> +1.2780673e-12 </wgt>
<wgt id='1257'> +1.2733240e-12 </wgt>
<wgt id='1258'> +1.2922688e-12 </wgt>
<wgt id='1259'> +1.2616355e-12 </wgt>
<wgt id='1260'> +1.2793354e-12 </wgt>
<wgt id='1261'> +1.2740045e-12 </wgt>
<wgt id='1262'> +1.2734476e-12 </wgt>
<wgt id='1263'> +1.2779847e-12 </wgt>
<wgt id='1264'> +1.2839927e-12 </wgt>
<wgt id='1265'> +1.2732577e-12 </wgt>
<wgt id='1266'> +1.2619575e-12 </wgt>
<wgt id='1267'> +1.2899298e-12 </wgt>
<wgt id='1268'> +1.2815636e-12 </wgt>
<wgt id='1269'> +1.2735675e-12 </wgt>
<wgt id='1270'> +1.2723374e-12 </wgt>
<wgt id='1271'> +1.2758600e-12 </wgt>
<wgt id='1272'> +1.2758212e-12 </wgt>
<wgt id='1273'> +1.2769085e-12 </wgt>
<wgt id='1274'> +1.2781718e-12 </wgt>
<wgt id='1275'> +1.2741802e-12 </wgt>
<wgt id='1276'> +1.2851542e-12 </wgt>
<wgt id='1277'> +1.2648648e-12 </wgt>
<wgt id='1278'> +1.2801473e-12 </wgt>
<wgt id='1279'> +1.2797201e-12 </wgt>
<wgt id='1280'> +1.2775225e-12 </wgt>
<wgt id='1281'> +1.2743527e-12 </wgt>
<wgt id='1282'> +1.2767579e-12 </wgt>
<wgt id='1283'> +1.2691265e-12 </wgt>
<wgt id='1284'> +1.2722124e-12 </wgt>
<wgt id='1285'> +1.2747120e-12 </wgt>
<wgt id='1286'> +1.2789138e-12 </wgt>
<wgt id='1287'> +1.2805149e-12 </wgt>
<wgt id='1288'> +1.2817876e-12 </wgt>
<wgt id='1289'> +1.3860672e-12 </wgt>
<wgt id='1290'> +1.3852308e-12 </wgt>
<wgt id='1291'> +1.3870099e-12 </wgt>
<wgt id='1292'> +1.3845330e-12 </wgt>
<wgt id='1293'> +1.3872158e-12 </wgt>
<wgt id='1294'> +1.3753204e-12 </wgt>
<wgt id='1295'> +1.3965329e-12 </wgt>
<wgt id='1296'> +1.3850621e-12 </wgt>
<wgt id='1297'> +1.3871979e-12 </wgt>
<wgt id='1298'> +1.3908881e-12 </wgt>
<wgt id='1299'> +1.3800515e-12 </wgt>
<wgt id='1300'> +1.3886141e-12 </wgt>
<wgt id='1301'> +1.3810243e-12 </wgt>
<wgt id='1302'> +1.3834129e-12 </wgt>
<wgt id='1303'> +1.3897898e-12 </wgt>
<wgt id='1304'> +1.3838079e-12 </wgt>
<wgt id='1305'> +1.3876235e-12 </wgt>
<wgt id='1306'> +1.3823198e-12 </wgt>
<wgt id='1307'> +1.3902475e-12 </wgt>
<wgt id='1308'> +1.3793507e-12 </wgt>
<wgt id='1309'> +1.3912264e-12 </wgt>
<wgt id='1310'> +1.3838407e-12 </wgt>
<wgt id='1311'> +1.3885891e-12 </wgt>
<wgt id='1312'> +1.3878982e-12 </wgt>
<wgt id='1313'> +1.3842222e-12 </wgt>
<wgt id='1314'> +1.3716379e-12 </wgt>
<wgt id='1315'> +1.3967979e-12 </wgt>
<wgt id='1316'> +1.3947106e-12 </wgt>
<wgt id='1317'> +1.3847564e-12 </wgt>
<wgt id='1318'> +1.3972325e-12 </wgt>
<wgt id='1319'> +1.3724175e-12 </wgt>
<wgt id='1320'> +1.3965240e-12 </wgt>
<wgt id='1321'> +1.3773021e-12 </wgt>
<wgt id='1322'> +1.3853160e-12 </wgt>
<wgt id='1323'> +1.3870560e-12 </wgt>
<wgt id='1324'> +1.3803972e-12 </wgt>
<wgt id='1325'> +1.4045942e-12 </wgt>
<wgt id='1326'> +1.3858823e-12 </wgt>
<wgt id='1327'> +1.3884714e-12 </wgt>
<wgt id='1328'> +1.3863466e-12 </wgt>
<wgt id='1329'> +1.3855880e-12 </wgt>
<wgt id='1330'> +1.3905653e-12 </wgt>
<wgt id='1331'> +1.3846328e-12 </wgt>
<wgt id='1332'> +1.4017888e-12 </wgt>
<wgt id='1333'> +1.3820520e-12 </wgt>
<wgt id='1334'> +1.3839572e-12 </wgt>
<wgt id='1335'> +1.3929291e-12 </wgt>
<wgt id='1336'> +1.3844319e-12 </wgt>
<wgt id='1337'> +1.3902183e-12 </wgt>
<wgt id='1338'> +1.3829127e-12 </wgt>
<wgt id='1339'> +1.3868614e-12 </wgt>
<wgt id='1340'> +1.3596142e-12 </wgt>
<wgt id='1341'> +1.3586841e-12 </wgt>
<wgt id='1342'> +1.3605707e-12 </wgt>
<wgt id='1343'> +1.3580100e-12 </wgt>
<wgt id='1344'> +1.3607040e-12 </wgt>
<wgt id='1345'> +1.3486155e-12 </wgt>
<wgt id='1346'> +1.3698347e-12 </wgt>
<wgt id='1347'> +1.3591991e-12 </wgt>
<wgt id='1348'> +1.3599895e-12 </wgt>
<wgt id='1349'> +1.3640382e-12 </wgt>
<wgt id='1350'> +1.3552617e-12 </wgt>
<wgt id='1351'> +1.3619751e-12 </wgt>
<wgt id='1352'> +1.3544988e-12 </wgt>
<wgt id='1353'> +1.3561218e-12 </wgt>
<wgt id='1354'> +1.3657953e-12 </wgt>
<wgt id='1355'> +1.3578115e-12 </wgt>
<wgt id='1356'> +1.3605772e-12 </wgt>
<wgt id='1357'> +1.3544106e-12 </wgt>
<wgt id='1358'> +1.3656322e-12 </wgt>
<wgt id='1359'> +1.3539759e-12 </wgt>
<wgt id='1360'> +1.3644828e-12 </wgt>
<wgt id='1361'> +1.3579855e-12 </wgt>
<wgt id='1362'> +1.3618944e-12 </wgt>
<wgt id='1363'> +1.3650844e-12 </wgt>
<wgt id='1364'> +1.3561766e-12 </wgt>
<wgt id='1365'> +1.3651411e-12 </wgt>
<wgt id='1366'> +1.3459491e-12 </wgt>
<wgt id='1367'> +1.3681167e-12 </wgt>
<wgt id='1368'> +1.3577020e-12 </wgt>
<wgt id='1369'> +1.3692501e-12 </wgt>
<wgt id='1370'> +1.3478790e-12 </wgt>
<wgt id='1371'> +1.3680861e-12 </wgt>
<wgt id='1372'> +1.3495950e-12 </wgt>
<wgt id='1373'> +1.3564645e-12 </wgt>
<wgt id='1374'> +1.3625317e-12 </wgt>
<wgt id='1375'> +1.3540695e-12 </wgt>
<wgt id='1376'> +1.3788113e-12 </wgt>
<wgt id='1377'> +1.3590140e-12 </wgt>
<wgt id='1378'> +1.3625328e-12 </wgt>
<wgt id='1379'> +1.3598374e-12 </wgt>
<wgt id='1380'> +1.3591037e-12 </wgt>
<wgt id='1381'> +1.3645036e-12 </wgt>
<wgt id='1382'> +1.3574255e-12 </wgt>
<wgt id='1383'> +1.3737020e-12 </wgt>
<wgt id='1384'> +1.3575358e-12 </wgt>
<wgt id='1385'> +1.3579049e-12 </wgt>
<wgt id='1386'> +1.3649142e-12 </wgt>
<wgt id='1387'> +1.3568636e-12 </wgt>
<wgt id='1388'> +1.3638752e-12 </wgt>
<wgt id='1389'> +1.3552141e-12 </wgt>
<wgt id='1390'> +1.3608017e-12 </wgt>
<wgt id='1391'> +1.3407868e-12 </wgt>
<wgt id='1392'> +1.3038605e-12 </wgt>
<wgt id='1393'> +1.3162914e-12 </wgt>
<wgt id='1394'> +1.3294237e-12 </wgt>
<wgt id='1395'> +1.3542392e-12 </wgt>
<wgt id='1396'> +1.3420161e-12 </wgt>
<wgt id='1397'> +1.3129626e-12 </wgt>
<wgt id='1398'> +1.3184257e-12 </wgt>
<wgt id='1399'> +1.3234662e-12 </wgt>
<wgt id='1400'> +1.3292097e-12 </wgt>
<wgt id='1401'> +1.3356186e-12 </wgt>
<wgt id='1402'> +1.3484072e-12 </wgt>
<wgt id='1403'> +1.3550438e-12 </wgt>
<wgt id='1404'> +1.3616992e-12 </wgt>
<wgt id='1405'> +1.3420161e-12 </wgt>
<wgt id='1406'> +1.3373589e-12 </wgt>
<wgt id='1407'> +1.3398515e-12 </wgt>
<wgt id='1408'> +1.3440105e-12 </wgt>
<wgt id='1409'> +1.3460159e-12 </wgt>
<wgt id='1410'> +1.2843520e-12 </wgt>
<wgt id='1411'> +1.2848178e-12 </wgt>
<wgt id='1412'> +1.2836867e-12 </wgt>
<wgt id='1413'> +1.2812220e-12 </wgt>
<wgt id='1414'> +1.2874899e-12 </wgt>
<wgt id='1415'> +1.2806293e-12 </wgt>
<wgt id='1416'> +1.2858615e-12 </wgt>
<wgt id='1417'> +1.2763847e-12 </wgt>
<wgt id='1418'> +1.2922558e-12 </wgt>
<wgt id='1419'> +1.2859745e-12 </wgt>
<wgt id='1420'> +1.2827937e-12 </wgt>
<wgt id='1421'> +1.2723999e-12 </wgt>
<wgt id='1422'> +1.2894820e-12 </wgt>
<wgt id='1423'> +1.2838105e-12 </wgt>
<wgt id='1424'> +1.2850574e-12 </wgt>
<wgt id='1425'> +1.2778798e-12 </wgt>
<wgt id='1426'> +1.2913119e-12 </wgt>
<wgt id='1427'> +1.2650856e-12 </wgt>
<wgt id='1428'> +1.2947732e-12 </wgt>
<wgt id='1429'> +1.2863106e-12 </wgt>
<wgt id='1430'> +1.2817432e-12 </wgt>
<wgt id='1431'> +1.2844896e-12 </wgt>
<wgt id='1432'> +1.2841448e-12 </wgt>
<wgt id='1433'> +1.2768714e-12 </wgt>
<wgt id='1434'> +1.2894221e-12 </wgt>
<wgt id='1435'> +1.2802593e-12 </wgt>
<wgt id='1436'> +1.2942700e-12 </wgt>
<wgt id='1437'> +1.2923169e-12 </wgt>
<wgt id='1438'> +1.2834243e-12 </wgt>
<wgt id='1439'> +1.2788176e-12 </wgt>
<wgt id='1440'> +1.2953777e-12 </wgt>
<wgt id='1441'> +1.2862981e-12 </wgt>
<wgt id='1442'> +1.2815469e-12 </wgt>
<wgt id='1443'> +1.2804445e-12 </wgt>
<wgt id='1444'> +1.2941838e-12 </wgt>
<wgt id='1445'> +1.3037073e-12 </wgt>
<wgt id='1446'> +1.2777614e-12 </wgt>
<wgt id='1447'> +1.2836288e-12 </wgt>
<wgt id='1448'> +1.2886313e-12 </wgt>
<wgt id='1449'> +1.2852118e-12 </wgt>
<wgt id='1450'> +1.2833646e-12 </wgt>
<wgt id='1451'> +1.2832187e-12 </wgt>
<wgt id='1452'> +1.2877718e-12 </wgt>
<wgt id='1453'> +1.2851481e-12 </wgt>
<wgt id='1454'> +1.2774422e-12 </wgt>
<wgt id='1455'> +1.2881809e-12 </wgt>
<wgt id='1456'> +1.2865167e-12 </wgt>
<wgt id='1457'> +1.2874127e-12 </wgt>
<wgt id='1458'> +1.2835443e-12 </wgt>
<wgt id='1459'> +1.2890563e-12 </wgt>
<wgt id='1460'> +1.2854355e-12 </wgt>
<wgt id='1461'> +1.2843520e-12 </wgt>
<wgt id='1462'> +1.2745183e-12 </wgt>
<wgt id='1463'> +1.2912199e-12 </wgt>
<wgt id='1464'> +1.2833827e-12 </wgt>
<wgt id='1465'> +1.2546276e-12 </wgt>
<wgt id='1466'> +1.2599464e-12 </wgt>
<wgt id='1467'> +1.2659929e-12 </wgt>
<wgt id='1468'> +1.2721737e-12 </wgt>
<wgt id='1469'> +1.2774321e-12 </wgt>
<wgt id='1470'> +1.2897120e-12 </wgt>
<wgt id='1471'> +1.2949266e-12 </wgt>
<wgt id='1472'> +1.3009460e-12 </wgt>
<wgt id='1473'> +1.2833827e-12 </wgt>
<wgt id='1474'> +1.2790515e-12 </wgt>
<wgt id='1475'> +1.2812111e-12 </wgt>
<wgt id='1476'> +1.2851415e-12 </wgt>
<wgt id='1477'> +1.2867197e-12 </wgt>
<wgt id='1478'> +1.3048368e-12 </wgt>
<wgt id='1479'> +1.3035398e-12 </wgt>
<wgt id='1480'> +1.2918572e-12 </wgt>
<wgt id='1481'> +1.3125475e-12 </wgt>
<wgt id='1482'> +1.3033971e-12 </wgt>
<wgt id='1483'> +1.2919154e-12 </wgt>
<wgt id='1484'> +1.3021333e-12 </wgt>
<wgt id='1485'> +1.3034810e-12 </wgt>
<wgt id='1486'> +1.3049358e-12 </wgt>
<wgt id='1487'> +1.3081900e-12 </wgt>
<wgt id='1488'> +1.3025918e-12 </wgt>
<wgt id='1489'> +1.3114991e-12 </wgt>
<wgt id='1490'> +1.2999431e-12 </wgt>
<wgt id='1491'> +1.3076690e-12 </wgt>
<wgt id='1492'> +1.3083821e-12 </wgt>
<wgt id='1493'> +1.2847412e-12 </wgt>
<wgt id='1494'> +1.3055344e-12 </wgt>
<wgt id='1495'> +1.2875895e-12 </wgt>
<wgt id='1496'> +1.3042153e-12 </wgt>
<wgt id='1497'> +1.3055229e-12 </wgt>
<wgt id='1498'> +1.3053738e-12 </wgt>
<wgt id='1499'> +1.3058897e-12 </wgt>
<wgt id='1500'> +1.3039682e-12 </wgt>
<wgt id='1501'> +1.3055250e-12 </wgt>
<wgt id='1502'> +1.3083652e-12 </wgt>
<wgt id='1503'> +1.3084563e-12 </wgt>
<wgt id='1504'> +1.3032941e-12 </wgt>
<wgt id='1505'> +1.3054983e-12 </wgt>
<wgt id='1506'> +1.3045342e-12 </wgt>
<wgt id='1507'> +1.3047038e-12 </wgt>
<wgt id='1508'> +1.3096881e-12 </wgt>
<wgt id='1509'> +1.3062417e-12 </wgt>
<wgt id='1510'> +1.3063080e-12 </wgt>
<wgt id='1511'> +1.3028084e-12 </wgt>
<wgt id='1512'> +1.3005551e-12 </wgt>
<wgt id='1513'> +1.3058493e-12 </wgt>
<wgt id='1514'> +1.3118999e-12 </wgt>
<wgt id='1515'> +1.3099080e-12 </wgt>
<wgt id='1516'> +1.3130741e-12 </wgt>
<wgt id='1517'> +1.3120519e-12 </wgt>
<wgt id='1518'> +1.3064796e-12 </wgt>
<wgt id='1519'> +1.3015928e-12 </wgt>
<wgt id='1520'> +1.3071569e-12 </wgt>
<wgt id='1521'> +1.3087882e-12 </wgt>
<wgt id='1522'> +1.3054249e-12 </wgt>
<wgt id='1523'> +1.3120711e-12 </wgt>
<wgt id='1524'> +1.3078275e-12 </wgt>
<wgt id='1525'> +1.3103919e-12 </wgt>
<wgt id='1526'> +1.3048830e-12 </wgt>
<wgt id='1527'> +1.3048683e-12 </wgt>
<wgt id='1528'> +1.3073442e-12 </wgt>
<wgt id='1529'> +1.3058431e-12 </wgt>
<wgt id='1530'> +1.3107127e-12 </wgt>
<wgt id='1531'> +1.3073812e-12 </wgt>
<wgt id='1532'> +1.3007626e-12 </wgt>
<wgt id='1533'> +1.3060912e-12 </wgt>
<wgt id='1534'> +1.3088313e-12 </wgt>
<wgt id='1535'> +1.2987258e-12 </wgt>
<wgt id='1536'> +1.3054644e-12 </wgt>
<wgt id='1537'> +1.3043008e-12 </wgt>
<wgt id='1538'> +1.3024431e-12 </wgt>
<wgt id='1539'> +1.3141505e-12 </wgt>
<wgt id='1540'> +1.3081309e-12 </wgt>
<wgt id='1541'> +1.3050288e-12 </wgt>
<wgt id='1542'> +1.3044021e-12 </wgt>
<wgt id='1543'> +1.3072135e-12 </wgt>
<wgt id='1544'> +1.3066826e-12 </wgt>
<wgt id='1545'> +1.3042657e-12 </wgt>
<wgt id='1546'> +1.3029776e-12 </wgt>
<wgt id='1547'> +1.3066156e-12 </wgt>
<wgt id='1548'> +1.3057058e-12 </wgt>
<wgt id='1549'> +1.3056108e-12 </wgt>
<wgt id='1550'> +1.3065364e-12 </wgt>
<wgt id='1551'> +1.3069099e-12 </wgt>
<wgt id='1552'> +1.3079505e-12 </wgt>
<wgt id='1553'> +1.3051485e-12 </wgt>
<wgt id='1554'> +1.3065768e-12 </wgt>
<wgt id='1555'> +1.3065646e-12 </wgt>
<wgt id='1556'> +1.3061738e-12 </wgt>
<wgt id='1557'> +1.3079749e-12 </wgt>
<wgt id='1558'> +1.3029010e-12 </wgt>
<wgt id='1559'> +1.3050799e-12 </wgt>
<wgt id='1560'> +1.3073797e-12 </wgt>
<wgt id='1561'> +1.3050031e-12 </wgt>
<wgt id='1562'> +1.3071750e-12 </wgt>
<wgt id='1563'> +1.3069568e-12 </wgt>
<wgt id='1564'> +1.3080564e-12 </wgt>
<wgt id='1565'> +1.3046327e-12 </wgt>
<wgt id='1566'> +1.3070849e-12 </wgt>
<wgt id='1567'> +1.3075919e-12 </wgt>
<wgt id='1568'> +1.3048004e-12 </wgt>
<wgt id='1569'> +1.3064329e-12 </wgt>
<wgt id='1570'> +1.3063169e-12 </wgt>
<wgt id='1571'> +1.3055230e-12 </wgt>
<wgt id='1572'> +1.3057872e-12 </wgt>
<wgt id='1573'> +1.3070229e-12 </wgt>
<wgt id='1574'> +1.3053498e-12 </wgt>
<wgt id='1575'> +1.3060034e-12 </wgt>
<wgt id='1576'> +1.3059027e-12 </wgt>
<wgt id='1577'> +1.3074657e-12 </wgt>
<wgt id='1578'> +1.3075635e-12 </wgt>
<wgt id='1579'> +1.3055573e-12 </wgt>
<wgt id='1580'> +1.3055205e-12 </wgt>
<wgt id='1581'> +1.3070738e-12 </wgt>
<wgt id='1582'> +1.3090038e-12 </wgt>
<wgt id='1583'> +1.3057117e-12 </wgt>
<wgt id='1584'> +1.3069422e-12 </wgt>
<wgt id='1585'> +1.3066296e-12 </wgt>
<wgt id='1586'> +1.3059987e-12 </wgt>
<wgt id='1587'> +1.3074042e-12 </wgt>
<wgt id='1588'> +1.3067166e-12 </wgt>
<wgt id='1589'> +1.3055816e-12 </wgt>
<wgt id='1590'> +1.3065799e-12 </wgt>
<wgt id='1591'> +1.3063108e-12 </wgt>
<wgt id='1592'> +1.3072702e-12 </wgt>
<wgt id='1593'> +1.3058866e-12 </wgt>
<wgt id='1594'> +1.3057721e-12 </wgt>
<wgt id='1595'> +1.3060182e-12 </wgt>
<wgt id='1596'> +1.3055682e-12 </wgt>
<wgt id='1597'> +1.3065278e-12 </wgt>
<wgt id='1598'> +1.3061141e-12 </wgt>
<wgt id='1599'> +1.3048460e-12 </wgt>
<wgt id='1600'> +1.3067419e-12 </wgt>
<wgt id='1601'> +1.3067651e-12 </wgt>
<wgt id='1602'> +1.3066393e-12 </wgt>
<wgt id='1603'> +1.3054441e-12 </wgt>
<wgt id='1604'> +1.3053203e-12 </wgt>
<wgt id='1605'> +1.3061577e-12 </wgt>
<wgt id='1606'> +1.3061576e-12 </wgt>
<wgt id='1607'> +1.3065170e-12 </wgt>
<wgt id='1608'> +1.3064660e-12 </wgt>
<wgt id='1609'> +1.3067798e-12 </wgt>
<wgt id='1610'> +1.2974792e-12 </wgt>
<wgt id='1611'> +1.3165836e-12 </wgt>
<wgt id='1612'> +1.5301488e-12 </wgt>
<wgt id='1613'> +1.4866519e-12 </wgt>
<wgt id='1614'> +1.5065251e-12 </wgt>
<wgt id='1615'> +1.5411920e-12 </wgt>
<wgt id='1616'> +1.4862803e-12 </wgt>
<wgt id='1617'> +1.5523566e-12 </wgt>
<wgt id='1618'> +1.5516229e-12 </wgt>
<wgt id='1619'> +1.5237893e-12 </wgt>
<wgt id='1620'> +1.4883045e-12 </wgt>
<wgt id='1621'> +1.5670626e-12 </wgt>
<wgt id='1622'> +1.5247449e-12 </wgt>
<wgt id='1623'> +1.5128531e-12 </wgt>
<wgt id='1624'> +1.5297292e-12 </wgt>
<wgt id='1625'> +1.5363980e-12 </wgt>
<wgt id='1626'> +1.5169176e-12 </wgt>
<wgt id='1627'> +1.5224459e-12 </wgt>
<wgt id='1628'> +1.4950049e-12 </wgt>
<wgt id='1629'> +1.5846379e-12 </wgt>
<wgt id='1630'> +1.5170832e-12 </wgt>
<wgt id='1631'> +1.5395471e-12 </wgt>
<wgt id='1632'> +1.4912867e-12 </wgt>
<wgt id='1633'> +1.4954800e-12 </wgt>
<wgt id='1634'> +1.5472794e-12 </wgt>
<wgt id='1635'> +1.5473630e-12 </wgt>
<wgt id='1636'> +1.5745728e-12 </wgt>
<wgt id='1637'> +1.5398023e-12 </wgt>
<wgt id='1638'> +1.5513839e-12 </wgt>
<wgt id='1639'> +1.4982674e-12 </wgt>
<wgt id='1640'> +1.5509517e-12 </wgt>
<wgt id='1641'> +1.5083058e-12 </wgt>
<wgt id='1642'> +1.5294824e-12 </wgt>
<wgt id='1643'> +1.4942908e-12 </wgt>
<wgt id='1644'> +1.5587384e-12 </wgt>
<wgt id='1645'> +1.5464009e-12 </wgt>
<wgt id='1646'> +1.5240860e-12 </wgt>
<wgt id='1647'> +1.5194515e-12 </wgt>
<wgt id='1648'> +1.5794017e-12 </wgt>
<wgt id='1649'> +1.5410364e-12 </wgt>
<wgt id='1650'> +1.5159392e-12 </wgt>
<wgt id='1651'> +1.4981546e-12 </wgt>
<wgt id='1652'> +1.5059718e-12 </wgt>
<wgt id='1653'> +1.5400818e-12 </wgt>
<wgt id='1654'> +1.5316010e-12 </wgt>
<wgt id='1655'> +1.5221052e-12 </wgt>
<wgt id='1656'> +1.5204482e-12 </wgt>
<wgt id='1657'> +1.5081306e-12 </wgt>
<wgt id='1658'> +1.5181381e-12 </wgt>
<wgt id='1659'> +1.5297292e-12 </wgt>
<wgt id='1660'> +1.5739252e-12 </wgt>
<wgt id='1661'> +1.5411703e-12 </wgt>
<wgt id='1662'> +1.5559225e-12 </wgt>
<wgt id='1663'> +1.5203205e-12 </wgt>
<wgt id='1664'> +1.5405807e-12 </wgt>
<wgt id='1665'> +1.4779230e-12 </wgt>
<wgt id='1666'> +1.5217981e-12 </wgt>
<wgt id='1667'> +1.5166545e-12 </wgt>
<wgt id='1668'> +1.5560655e-12 </wgt>
<wgt id='1669'> +1.5634300e-12 </wgt>
<wgt id='1670'> +1.5571586e-12 </wgt>
<wgt id='1671'> +1.5598017e-12 </wgt>
<wgt id='1672'> +1.5760029e-12 </wgt>
<wgt id='1673'> +1.5042895e-12 </wgt>
<wgt id='1674'> +1.4633472e-12 </wgt>
<wgt id='1675'> +1.5476863e-12 </wgt>
<wgt id='1676'> +1.5476512e-12 </wgt>
<wgt id='1677'> +1.5832920e-12 </wgt>
<wgt id='1678'> +1.5176482e-12 </wgt>
<wgt id='1679'> +1.5118433e-12 </wgt>
<wgt id='1680'> +1.5451733e-12 </wgt>
<wgt id='1681'> +1.5461039e-12 </wgt>
<wgt id='1682'> +1.5341817e-12 </wgt>
<wgt id='1683'> +1.4882931e-12 </wgt>
<wgt id='1684'> +1.5389637e-12 </wgt>
<wgt id='1685'> +1.5096141e-12 </wgt>
<wgt id='1686'> +1.5349834e-12 </wgt>
<wgt id='1687'> +1.5453934e-12 </wgt>
<wgt id='1688'> +1.5111633e-12 </wgt>
<wgt id='1689'> +1.5525120e-12 </wgt>
<wgt id='1690'> +1.5364141e-12 </wgt>
<wgt id='1691'> +1.5432074e-12 </wgt>
<wgt id='1692'> +1.5781692e-12 </wgt>
<wgt id='1693'> +1.5455781e-12 </wgt>
<wgt id='1694'> +1.5548422e-12 </wgt>
<wgt id='1695'> +1.5824576e-12 </wgt>
<wgt id='1696'> +1.5348633e-12 </wgt>
<wgt id='1697'> +1.4973386e-12 </wgt>
<wgt id='1698'> +1.5223092e-12 </wgt>
<wgt id='1699'> +1.5205419e-12 </wgt>
<wgt id='1700'> +1.5132493e-12 </wgt>
<wgt id='1701'> +1.5497954e-12 </wgt>
<wgt id='1702'> +1.5078018e-12 </wgt>
<wgt id='1703'> +1.5448828e-12 </wgt>
<wgt id='1704'> +1.5360731e-12 </wgt>
<wgt id='1705'> +1.4696449e-12 </wgt>
<wgt id='1706'> +1.5447273e-12 </wgt>
<wgt id='1707'> +1.5061709e-12 </wgt>
<wgt id='1708'> +1.5409406e-12 </wgt>
<wgt id='1709'> +1.5413887e-12 </wgt>
<wgt id='1710'> +1.5021023e-12 </wgt>
<wgt id='1711'> +1.4927862e-12 </wgt>
<wgt id='1712'> +1.5354007e-12 </wgt>
<wgt id='1713'> +1.2609439e-12 </wgt>
<wgt id='1714'> +1.2311223e-12 </wgt>
<wgt id='1715'> +1.2413102e-12 </wgt>
<wgt id='1716'> +1.2838980e-12 </wgt>
<wgt id='1717'> +1.2581241e-12 </wgt>
<wgt id='1718'> +1.2712393e-12 </wgt>
<wgt id='1719'> +1.2577807e-12 </wgt>
<wgt id='1720'> +1.2569602e-12 </wgt>
<wgt id='1721'> +1.2385554e-12 </wgt>
<wgt id='1722'> +1.2459898e-12 </wgt>
<wgt id='1723'> +1.2725555e-12 </wgt>
<wgt id='1724'> +1.3276939e-12 </wgt>
<wgt id='1725'> +1.2590668e-12 </wgt>
<wgt id='1726'> +1.2551365e-12 </wgt>
<wgt id='1727'> +1.3001896e-12 </wgt>
<wgt id='1728'> +1.2556921e-12 </wgt>
<wgt id='1729'> +1.2170272e-12 </wgt>
<wgt id='1730'> +1.2646419e-12 </wgt>
<wgt id='1731'> +1.2033096e-12 </wgt>
<wgt id='1732'> +1.2768867e-12 </wgt>
<wgt id='1733'> +1.2096177e-12 </wgt>
<wgt id='1734'> +1.3016924e-12 </wgt>
<wgt id='1735'> +1.2551603e-12 </wgt>
<wgt id='1736'> +1.2962372e-12 </wgt>
<wgt id='1737'> +1.2928238e-12 </wgt>
<wgt id='1738'> +1.2677723e-12 </wgt>
<wgt id='1739'> +1.2436972e-12 </wgt>
<wgt id='1740'> +1.2045075e-12 </wgt>
<wgt id='1741'> +1.3084152e-12 </wgt>
<wgt id='1742'> +1.2429500e-12 </wgt>
<wgt id='1743'> +1.2394053e-12 </wgt>
<wgt id='1744'> +1.2783018e-12 </wgt>
<wgt id='1745'> +1.2643660e-12 </wgt>
<wgt id='1746'> +1.2589136e-12 </wgt>
<wgt id='1747'> +1.2804615e-12 </wgt>
<wgt id='1748'> +1.2344333e-12 </wgt>
<wgt id='1749'> +1.2454773e-12 </wgt>
<wgt id='1750'> +1.2446684e-12 </wgt>
<wgt id='1751'> +1.2298297e-12 </wgt>
<wgt id='1752'> +1.2408114e-12 </wgt>
<wgt id='1753'> +1.2729141e-12 </wgt>
<wgt id='1754'> +1.2866351e-12 </wgt>
<wgt id='1755'> +1.2745443e-12 </wgt>
<wgt id='1756'> +1.2771035e-12 </wgt>
<wgt id='1757'> +1.2551625e-12 </wgt>
<wgt id='1758'> +1.2971048e-12 </wgt>
<wgt id='1759'> +1.2635247e-12 </wgt>
<wgt id='1760'> +1.2454331e-12 </wgt>
<wgt id='1761'> +1.2556831e-12 </wgt>
<wgt id='1762'> +1.2253426e-12 </wgt>
<wgt id='1763'> +1.2760316e-12 </wgt>
<wgt id='1764'> +1.2862905e-12 </wgt>
<wgt id='1765'> +1.2391828e-12 </wgt>
<wgt id='1766'> +1.2863519e-12 </wgt>
<wgt id='1767'> +1.2755991e-12 </wgt>
<wgt id='1768'> +1.2737513e-12 </wgt>
<wgt id='1769'> +1.2617934e-12 </wgt>
<wgt id='1770'> +1.2345431e-12 </wgt>
<wgt id='1771'> +1.2928638e-12 </wgt>
<wgt id='1772'> +1.2597765e-12 </wgt>
<wgt id='1773'> +1.2528612e-12 </wgt>
<wgt id='1774'> +1.2346221e-12 </wgt>
<wgt id='1775'> +1.2638383e-12 </wgt>
<wgt id='1776'> +1.3098624e-12 </wgt>
<wgt id='1777'> +1.2186856e-12 </wgt>
<wgt id='1778'> +1.2578551e-12 </wgt>
<wgt id='1779'> +1.2683005e-12 </wgt>
<wgt id='1780'> +1.2731006e-12 </wgt>
<wgt id='1781'> +1.2650936e-12 </wgt>
<wgt id='1782'> +1.2558799e-12 </wgt>
<wgt id='1783'> +1.2611996e-12 </wgt>
<wgt id='1784'> +1.2686318e-12 </wgt>
<wgt id='1785'> +1.2709766e-12 </wgt>
<wgt id='1786'> +1.2649380e-12 </wgt>
<wgt id='1787'> +1.3069405e-12 </wgt>
<wgt id='1788'> +1.2720294e-12 </wgt>
<wgt id='1789'> +1.3103974e-12 </wgt>
<wgt id='1790'> +1.2783314e-12 </wgt>
<wgt id='1791'> +1.2599942e-12 </wgt>
<wgt id='1792'> +1.2400573e-12 </wgt>
<wgt id='1793'> +1.2559865e-12 </wgt>
<wgt id='1794'> +1.2877955e-12 </wgt>
<wgt id='1795'> +1.2687083e-12 </wgt>
<wgt id='1796'> +1.2360415e-12 </wgt>
<wgt id='1797'> +1.2663385e-12 </wgt>
<wgt id='1798'> +1.2643105e-12 </wgt>
<wgt id='1799'> +1.2788990e-12 </wgt>
<wgt id='1800'> +1.2870960e-12 </wgt>
<wgt id='1801'> +1.2605401e-12 </wgt>
<wgt id='1802'> +1.2460519e-12 </wgt>
<wgt id='1803'> +1.2926774e-12 </wgt>
<wgt id='1804'> +1.2434497e-12 </wgt>
<wgt id='1805'> +1.2214519e-12 </wgt>
<wgt id='1806'> +1.2285937e-12 </wgt>
<wgt id='1807'> +1.2838765e-12 </wgt>
<wgt id='1808'> +1.2471267e-12 </wgt>
<wgt id='1809'> +1.2571592e-12 </wgt>
<wgt id='1810'> +1.2454892e-12 </wgt>
<wgt id='1811'> +1.2635038e-12 </wgt>
<wgt id='1812'> +1.2409634e-12 </wgt>
<wgt id='1813'> +1.1947930e-12 </wgt>
<wgt id='1814'> +1.5443120e-12 </wgt>
<wgt id='1815'> +1.8120122e-12 </wgt>
<wgt id='1816'> +1.2609439e-12 </wgt>
<wgt id='1817'> +1.2311223e-12 </wgt>
<wgt id='1818'> +1.2413102e-12 </wgt>
<wgt id='1819'> +1.2838980e-12 </wgt>
<wgt id='1820'> +1.2581241e-12 </wgt>
<wgt id='1821'> +1.2712393e-12 </wgt>
<wgt id='1822'> +1.2577807e-12 </wgt>
<wgt id='1823'> +1.2569602e-12 </wgt>
<wgt id='1824'> +1.2385554e-12 </wgt>
<wgt id='1825'> +1.2459898e-12 </wgt>
<wgt id='1826'> +1.2725555e-12 </wgt>
<wgt id='1827'> +1.3276939e-12 </wgt>
<wgt id='1828'> +1.2590668e-12 </wgt>
<wgt id='1829'> +1.2551365e-12 </wgt>
<wgt id='1830'> +1.3001896e-12 </wgt>
<wgt id='1831'> +1.2556921e-12 </wgt>
<wgt id='1832'> +1.2170272e-12 </wgt>
<wgt id='1833'> +1.2646419e-12 </wgt>
<wgt id='1834'> +1.2033096e-12 </wgt>
<wgt id='1835'> +1.2768867e-12 </wgt>
<wgt id='1836'> +1.2096177e-12 </wgt>
<wgt id='1837'> +1.3016924e-12 </wgt>
<wgt id='1838'> +1.2551603e-12 </wgt>
<wgt id='1839'> +1.2962372e-12 </wgt>
<wgt id='1840'> +1.2928238e-12 </wgt>
<wgt id='1841'> +1.2677723e-12 </wgt>
<wgt id='1842'> +1.2436972e-12 </wgt>
<wgt id='1843'> +1.2045075e-12 </wgt>
<wgt id='1844'> +1.3084152e-12 </wgt>
<wgt id='1845'> +1.2429500e-12 </wgt>
<wgt id='1846'> +1.2394053e-12 </wgt>
<wgt id='1847'> +1.2783018e-12 </wgt>
<wgt id='1848'> +1.2643660e-12 </wgt>
<wgt id='1849'> +1.2589136e-12 </wgt>
<wgt id='1850'> +1.2804615e-12 </wgt>
<wgt id='1851'> +1.2344333e-12 </wgt>
<wgt id='1852'> +1.2454773e-12 </wgt>
<wgt id='1853'> +1.2446684e-12 </wgt>
<wgt id='1854'> +1.2298297e-12 </wgt>
<wgt id='1855'> +1.2408114e-12 </wgt>
<wgt id='1856'> +1.2729141e-12 </wgt>
<wgt id='1857'> +1.2866351e-12 </wgt>
<wgt id='1858'> +1.2745443e-12 </wgt>
<wgt id='1859'> +1.2771035e-12 </wgt>
<wgt id='1860'> +1.2551625e-12 </wgt>
<wgt id='1861'> +1.2971048e-12 </wgt>
<wgt id='1862'> +1.2635247e-12 </wgt>
<wgt id='1863'> +1.2454331e-12 </wgt>
<wgt id='1864'> +1.2556831e-12 </wgt>
<wgt id='1865'> +1.2253426e-12 </wgt>
<wgt id='1866'> +1.2760316e-12 </wgt>
<wgt id='1867'> +1.2862905e-12 </wgt>
<wgt id='1868'> +1.2391828e-12 </wgt>
<wgt id='1869'> +1.2863519e-12 </wgt>
<wgt id='1870'> +1.2755991e-12 </wgt>
<wgt id='1871'> +1.2737513e-12 </wgt>
<wgt id='1872'> +1.2617934e-12 </wgt>
<wgt id='1873'> +1.2345431e-12 </wgt>
<wgt id='1874'> +1.2928638e-12 </wgt>
<wgt id='1875'> +1.2597765e-12 </wgt>
<wgt id='1876'> +1.2528612e-12 </wgt>
<wgt id='1877'> +1.2346221e-12 </wgt>
<wgt id='1878'> +1.2638383e-12 </wgt>
<wgt id='1879'> +1.3098624e-12 </wgt>
<wgt id='1880'> +1.2186856e-12 </wgt>
<wgt id='1881'> +1.2578551e-12 </wgt>
<wgt id='1882'> +1.2683005e-12 </wgt>
<wgt id='1883'> +1.2731006e-12 </wgt>
<wgt id='1884'> +1.2650936e-12 </wgt>
<wgt id='1885'> +1.2558799e-12 </wgt>
<wgt id='1886'> +1.2611996e-12 </wgt>
<wgt id='1887'> +1.2686318e-12 </wgt>
<wgt id='1888'> +1.2709766e-12 </wgt>
<wgt id='1889'> +1.2649380e-12 </wgt>
<wgt id='1890'> +1.3069405e-12 </wgt>
<wgt id='1891'> +1.2720294e-12 </wgt>
<wgt id='1892'> +1.3103974e-12 </wgt>
<wgt id='1893'> +1.2783314e-12 </wgt>
<wgt id='1894'> +1.2599942e-12 </wgt>
<wgt id='1895'> +1.2400573e-12 </wgt>
<wgt id='1896'> +1.2559865e-12 </wgt>
<wgt id='1897'> +1.2877955e-12 </wgt>
<wgt id='1898'> +1.2687083e-12 </wgt>
<wgt id='1899'> +1.2360415e-12 </wgt>
<wgt id='1900'> +1.2663385e-12 </wgt>
<wgt id='1901'> +1.2643105e-12 </wgt>
<wgt id='1902'> +1.2788990e-12 </wgt>
<wgt id='1903'> +1.2870960e-12 </wgt>
<wgt id='1904'> +1.2605401e-12 </wgt>
<wgt id='1905'> +1.2460519e-12 </wgt>
<wgt id='1906'> +1.2926774e-12 </wgt>
<wgt id='1907'> +1.2434497e-12 </wgt>
<wgt id='1908'> +1.2214519e-12 </wgt>
<wgt id='1909'> +1.2285937e-12 </wgt>
<wgt id='1910'> +1.2838765e-12 </wgt>
<wgt id='1911'> +1.2471267e-12 </wgt>
<wgt id='1912'> +1.2571592e-12 </wgt>
<wgt id='1913'> +1.2454892e-12 </wgt>
<wgt id='1914'> +1.2635038e-12 </wgt>
<wgt id='1915'> +1.2409634e-12 </wgt>
<wgt id='1916'> +1.1947930e-12 </wgt>
<wgt id='1917'> +1.2498203e-12 </wgt>
<wgt id='1918'> +1.2683148e-12 </wgt>
<wgt id='1919'> +1.2553542e-12 </wgt>
</rwgt>
</event>
<event>
 9      1 +1.5538000e-12 4.82696800e+01 7.81860800e-03 1.32010000e-01
       -2 -1    0    0    0  501 -0.0000000000e+00 +0.0000000000e+00 +1.2366851930e+02 1.2366851930e+02 0.0000000000e+00 0.0000e+00 -1.0000e+00
        2 -1    0    0  502    0 +0.0000000000e+00 -0.0000000000e+00 -1.8048926351e+01 1.8048926351e+01 0.0000000000e+00 0.0000e+00 1.0000e+00
     1023  2    1    2    0    0 -4.4681169853e+01 -1.0419826348e+01 +4.8135559600e+01 6.8168864354e+01 1.4999408282e+01 0.0000e+00 0.0000e+00
  1000023  2    3    3    0    0 -1.3289531244e+01 +1.1547851812e+00 +1.5079208645e+01 2.0870566868e+01 5.5002598622e+00 0.0000e+00 0.0000e+00
       21  1    1    2  502  501 +4.4681169853e+01 +1.0419826348e+01 +5.7484033347e+01 7.3548581294e+01 0.0000000000e+00 0.0000e+00 -1.0000e+00
  1000022  1    4    4    0    0 -1.1680734771e+01 +8.3134953729e-01 +1.3732315437e+01 1.8727177953e+01 5.0000000000e+00 0.0000e+00 1.0000e+00
      -13  1    4    4    0    0 -1.2617450030e+00 +2.4955928281e-01 +9.6443001538e-01 1.6110797723e+00 1.0570000000e-01 0.0000e+00 1.0000e+00
       13  1    4    4    0    0 -3.4705147013e-01 +7.3876361129e-02 +3.8246319270e-01 5.3230914272e-01 1.0570000000e-01 0.0000e+00 -1.0000e+00
  1000022  1    3    3    0    0 -3.1391638609e+01 -1.1574611529e+01 +3.3056350955e+01 4.7298297486e+01 5.0000000000e+00 0.0000e+00 -1.0000e+00
<mgrwt>
<rscale>  1 0.48269680E+02</rscale>
<asrwt>0</asrwt>
<pdfrwt beam="1">  1        2 0.27767580E-02 0.48269680E+02</pdfrwt>
<pdfrwt beam="2">  1       -2 0.19025926E-01 0.48269680E+02</pdfrwt>
<totfact> 0.84651140E+04</totfact>
</mgrwt>
<rwgt>
<wgt id='1001'> +1.5538000e-12 </wgt>
<wgt id='1002'> +1.5388705e-12 </wgt>
<wgt id='1003'> +1.5386037e-12 </wgt>
<wgt id='1004'> +1.5540911e-12 </wgt>
<wgt id='1005'> +1.5384706e-12 </wgt>
<wgt id='1006'> +1.3758844e-12 </wgt>
<wgt id='1007'> +1.3809241e-12 </wgt>
<wgt id='1008'> +1.3808879e-12 </wgt>
<wgt id='1009'> +1.3753352e-12 </wgt>
<wgt id='1010'> +1.3808691e-12 </wgt>
<wgt id='1011'> +1.7869228e-12 </wgt>
<wgt id='1012'> +1.7392138e-12 </wgt>
<wgt id='1013'> +1.7385800e-12 </wgt>
<wgt id='1014'> +1.7886405e-12 </wgt>
<wgt id='1015'> +1.7382652e-12 </wgt>
<wgt id='1016'> +1.7366172e-12 </wgt>
<wgt id='1017'> +1.6848766e-12 </wgt>
<wgt id='1018'> +1.6842122e-12 </wgt>
<wgt id='1019'> +1.7385800e-12 </wgt>
<wgt id='1020'> +1.6838824e-12 </wgt>
<wgt id='1021'> +1.5377684e-12 </wgt>
<wgt id='1022'> +1.5119444e-12 </wgt>
<wgt id='1023'> +1.5115707e-12 </wgt>
<wgt id='1024'> +1.5386037e-12 </wgt>
<wgt id='1025'> +1.5113849e-12 </wgt>
<wgt id='1026'> +1.9971689e-12 </wgt>
<wgt id='1027'> +1.9042282e-12 </wgt>
<wgt id='1028'> +1.9031136e-12 </wgt>
<wgt id='1029'> +2.0009732e-12 </wgt>
<wgt id='1030'> +1.9025610e-12 </wgt>
<wgt id='1031'> +1.3486755e-12 </wgt>
<wgt id='1032'> +1.3751523e-12 </wgt>
<wgt id='1033'> +1.3753352e-12 </wgt>
<wgt id='1034'> +1.3471655e-12 </wgt>
<wgt id='1035'> +1.3754250e-12 </wgt>
<wgt id='1036'> +1.1942474e-12 </wgt>
<wgt id='1037'> +1.2340096e-12 </wgt>
<wgt id='1038'> +1.2343553e-12 </wgt>
<wgt id='1039'> +1.1922108e-12 </wgt>
<wgt id='1040'> +1.2345260e-12 </wgt>
<wgt id='1041'> +1.5510227e-12 </wgt>
<wgt id='1042'> +1.5541814e-12 </wgt>
<wgt id='1043'> +1.5540911e-12 </wgt>
<wgt id='1044'> +1.5504850e-12 </wgt>
<wgt id='1045'> +1.5540455e-12 </wgt>
<wgt id='1046'> +1.5538000e-12 </wgt>
<wgt id='1047'> +1.7615532e-12 </wgt>
<wgt id='1048'> +1.5544897e-12 </wgt>
<wgt id='1049'> +1.5879445e-12 </wgt>
<wgt id='1050'> +1.5545316e-12 </wgt>
<wgt id='1051'> +1.4971473e-12 </wgt>
<wgt id='1052'> +1.6178430e-12 </wgt>
<wgt id='1053'> +1.5434979e-12 </wgt>
<wgt id='1054'> +1.4838317e-12 </wgt>
<wgt id='1055'> +1.4724560e-12 </wgt>
<wgt id='1056'> +1.5194127e-12 </wgt>
<wgt id='1057'> +1.5720451e-12 </wgt>
<wgt id='1058'> +1.4856506e-12 </wgt>
<wgt id='1059'> +1.5211665e-12 </wgt>
<wgt id='1060'> +1.5730746e-12 </wgt>
<wgt id='1061'> +1.5585955e-12 </wgt>
<wgt id='1062'> +1.5409828e-12 </wgt>
<wgt id='1063'> +1.5971743e-12 </wgt>
<wgt id='1064'> +1.5064479e-12 </wgt>
<wgt id='1065'> +1.5415432e-12 </wgt>
<wgt id='1066'> +1.4414713e-12 </wgt>
<wgt id='1067'> +1.5269184e-12 </wgt>
<wgt id='1068'> +1.5943012e-12 </wgt>
<wgt id='1069'> +1.5637965e-12 </wgt>
<wgt id='1070'> +1.5116545e-12 </wgt>
<wgt id='1071'> +1.5023753e-12 </wgt>
<wgt id='1072'> +1.6040445e-12 </wgt>
<wgt id='1073'> +1.6409119e-12 </wgt>
<wgt id='1074'> +1.5209873e-12 </wgt>
<wgt id='1075'> +1.5573413e-12 </wgt>
<wgt id='1076'> +1.5944151e-12 </wgt>
<wgt id='1077'> +1.6327305e-12 </wgt>
<wgt id='1078'> +1.5396534e-12 </wgt>
<wgt id='1079'> +1.6043613e-12 </wgt>
<wgt id='1080'> +1.4803204e-12 </wgt>
<wgt id='1081'> +1.6101440e-12 </wgt>
<wgt id='1082'> +1.5791172e-12 </wgt>
<wgt id='1083'> +1.5276169e-12 </wgt>
<wgt id='1084'> +1.5291815e-12 </wgt>
<wgt id='1085'> +1.5419293e-12 </wgt>
<wgt id='1086'> +1.5998280e-12 </wgt>
<wgt id='1087'> +1.5800607e-12 </wgt>
<wgt id='1088'> +1.5708019e-12 </wgt>
<wgt id='1089'> +1.6032137e-12 </wgt>
<wgt id='1090'> +1.6050203e-12 </wgt>
<wgt id='1091'> +1.5594858e-12 </wgt>
<wgt id='1092'> +1.6005114e-12 </wgt>
<wgt id='1093'> +1.5840248e-12 </wgt>
<wgt id='1094'> +1.5216662e-12 </wgt>
<wgt id='1095'> +1.5919180e-12 </wgt>
<wgt id='1096'> +1.5557981e-12 </wgt>
<wgt id='1097'> +1.5164804e-12 </wgt>
<wgt id='1098'> +1.5044270e-12 </wgt>
<wgt id='1099'> +1.5514608e-12 </wgt>
<wgt id='1100'> +1.5852392e-12 </wgt>
<wgt id='1101'> +1.6093771e-12 </wgt>
<wgt id='1102'> +1.5641745e-12 </wgt>
<wgt id='1103'> +1.5913849e-12 </wgt>
<wgt id='1104'> +1.5254353e-12 </wgt>
<wgt id='1105'> +1.5469360e-12 </wgt>
<wgt id='1106'> +1.5995744e-12 </wgt>
<wgt id='1107'> +1.6052744e-12 </wgt>
<wgt id='1108'> +1.5171034e-12 </wgt>
<wgt id='1109'> +1.5506184e-12 </wgt>
<wgt id='1110'> +1.4943650e-12 </wgt>
<wgt id='1111'> +1.5779758e-12 </wgt>
<wgt id='1112'> +1.5886082e-12 </wgt>
<wgt id='1113'> +1.5912027e-12 </wgt>
<wgt id='1114'> +1.5840072e-12 </wgt>
<wgt id='1115'> +1.5529379e-12 </wgt>
<wgt id='1116'> +1.5155935e-12 </wgt>
<wgt id='1117'> +1.5175908e-12 </wgt>
<wgt id='1118'> +1.5382630e-12 </wgt>
<wgt id='1119'> +1.4386573e-12 </wgt>
<wgt id='1120'> +1.4844770e-12 </wgt>
<wgt id='1121'> +1.5019527e-12 </wgt>
<wgt id='1122'> +1.6728984e-12 </wgt>
<wgt id='1123'> +1.5000961e-12 </wgt>
<wgt id='1124'> +1.5476292e-12 </wgt>
<wgt id='1125'> +1.5291870e-12 </wgt>
<wgt id='1126'> +1.5944475e-12 </wgt>
<wgt id='1127'> +1.5598197e-12 </wgt>
<wgt id='1128'> +1.5409828e-12 </wgt>
<wgt id='1129'> +1.5688599e-12 </wgt>
<wgt id='1130'> +1.5136029e-12 </wgt>
<wgt id='1131'> +1.5536200e-12 </wgt>
<wgt id='1132'> +1.6215007e-12 </wgt>
<wgt id='1133'> +1.5054550e-12 </wgt>
<wgt id='1134'> +1.6301507e-12 </wgt>
<wgt id='1135'> +1.4240582e-12 </wgt>
<wgt id='1136'> +1.5230534e-12 </wgt>
<wgt id='1137'> +1.5497343e-12 </wgt>
<wgt id='1138'> +1.4804671e-12 </wgt>
<wgt id='1139'> +1.5164128e-12 </wgt>
<wgt id='1140'> +1.5533224e-12 </wgt>
<wgt id='1141'> +1.5383230e-12 </wgt>
<wgt id='1142'> +1.5613297e-12 </wgt>
<wgt id='1143'> +1.6229024e-12 </wgt>
<wgt id='1144'> +1.5745126e-12 </wgt>
<wgt id='1145'> +1.5742313e-12 </wgt>
<wgt id='1146'> +1.5278050e-12 </wgt>
<wgt id='1147'> +1.1546299e-12 </wgt>
<wgt id='1148'> +1.1795906e-12 </wgt>
<wgt id='1149'> +1.2942615e-12 </wgt>
<wgt id='1150'> +1.2180227e-12 </wgt>
<wgt id='1151'> +1.1005759e-12 </wgt>
<wgt id='1152'> +1.3667563e-12 </wgt>
<wgt id='1153'> +1.3574784e-12 </wgt>
<wgt id='1154'> +1.3721524e-12 </wgt>
<wgt id='1155'> +1.3633597e-12 </wgt>
<wgt id='1156'> +1.3684895e-12 </wgt>
<wgt id='1157'> +1.3755076e-12 </wgt>
<wgt id='1158'> +1.3549979e-12 </wgt>
<wgt id='1159'> +1.3742441e-12 </wgt>
<wgt id='1160'> +1.3620174e-12 </wgt>
<wgt id='1161'> +1.3687580e-12 </wgt>
<wgt id='1162'> +1.3653686e-12 </wgt>
<wgt id='1163'> +1.3705131e-12 </wgt>
<wgt id='1164'> +1.3630741e-12 </wgt>
<wgt id='1165'> +1.3625384e-12 </wgt>
<wgt id='1166'> +1.3708309e-12 </wgt>
<wgt id='1167'> +1.3643021e-12 </wgt>
<wgt id='1168'> +1.3684716e-12 </wgt>
<wgt id='1169'> +1.3658515e-12 </wgt>
<wgt id='1170'> +1.3674872e-12 </wgt>
<wgt id='1171'> +1.3600728e-12 </wgt>
<wgt id='1172'> +1.3746155e-12 </wgt>
<wgt id='1173'> +1.3580049e-12 </wgt>
<wgt id='1174'> +1.3741724e-12 </wgt>
<wgt id='1175'> +1.3680368e-12 </wgt>
<wgt id='1176'> +1.3649783e-12 </wgt>
<wgt id='1177'> +1.3698088e-12 </wgt>
<wgt id='1178'> +1.3578742e-12 </wgt>
<wgt id='1179'> +1.3693084e-12 </wgt>
<wgt id='1180'> +1.3580594e-12 </wgt>
<wgt id='1181'> +1.3599935e-12 </wgt>
<wgt id='1182'> +1.3735361e-12 </wgt>
<wgt id='1183'> +1.3674101e-12 </wgt>
<wgt id='1184'> +1.3665960e-12 </wgt>
<wgt id='1185'> +1.3559950e-12 </wgt>
<wgt id='1186'> +1.3733212e-12 </wgt>
<wgt id='1187'> +1.3660497e-12 </wgt>
<wgt id='1188'> +1.3670601e-12 </wgt>
<wgt id='1189'> +1.3651980e-12 </wgt>
<wgt id='1190'> +1.3574727e-12 </wgt>
<wgt id='1191'> +1.3624004e-12 </wgt>
<wgt id='1192'> +1.3680045e-12 </wgt>
<wgt id='1193'> +1.2434200e-12 </wgt>
<wgt id='1194'> +1.2432519e-12 </wgt>
<wgt id='1195'> +1.2434903e-12 </wgt>
<wgt id='1196'> +1.2550542e-12 </wgt>
<wgt id='1197'> +1.2304971e-12 </wgt>
<wgt id='1198'> +1.2402192e-12 </wgt>
<wgt id='1199'> +1.2481209e-12 </wgt>
<wgt id='1200'> +1.2440612e-12 </wgt>
<wgt id='1201'> +1.2429938e-12 </wgt>
<wgt id='1202'> +1.2438266e-12 </wgt>
<wgt id='1203'> +1.2427890e-12 </wgt>
<wgt id='1204'> +1.2455338e-12 </wgt>
<wgt id='1205'> +1.2421129e-12 </wgt>
<wgt id='1206'> +1.2453449e-12 </wgt>
<wgt id='1207'> +1.2407709e-12 </wgt>
<wgt id='1208'> +1.2351722e-12 </wgt>
<wgt id='1209'> +1.2463965e-12 </wgt>
<wgt id='1210'> +1.2478209e-12 </wgt>
<wgt id='1211'> +1.2324279e-12 </wgt>
<wgt id='1212'> +1.2458814e-12 </wgt>
<wgt id='1213'> +1.2410024e-12 </wgt>
<wgt id='1214'> +1.2262153e-12 </wgt>
<wgt id='1215'> +1.2728508e-12 </wgt>
<wgt id='1216'> +1.2443583e-12 </wgt>
<wgt id='1217'> +1.2419850e-12 </wgt>
<wgt id='1218'> +1.2458594e-12 </wgt>
<wgt id='1219'> +1.2420133e-12 </wgt>
<wgt id='1220'> +1.2481284e-12 </wgt>
<wgt id='1221'> +1.2412407e-12 </wgt>
<wgt id='1222'> +1.2445532e-12 </wgt>
<wgt id='1223'> +1.2361155e-12 </wgt>
<wgt id='1224'> +1.2447219e-12 </wgt>
<wgt id='1225'> +1.2429458e-12 </wgt>
<wgt id='1226'> +1.2366545e-12 </wgt>
<wgt id='1227'> +1.2480488e-12 </wgt>
<wgt id='1228'> +1.2480942e-12 </wgt>
<wgt id='1229'> +1.2398200e-12 </wgt>
<wgt id='1230'> +1.2401617e-12 </wgt>
<wgt id='1231'> +1.2366331e-12 </wgt>
<wgt id='1232'> +1.2480485e-12 </wgt>
<wgt id='1233'> +1.2420990e-12 </wgt>
<wgt id='1234'> +1.2434200e-12 </wgt>
<wgt id='1235'> +1.2350371e-12 </wgt>
<wgt id='1236'> +1.2381848e-12 </wgt>
<wgt id='1237'> +1.2410051e-12 </wgt>
<wgt id='1238'> +1.2457732e-12 </wgt>
<wgt id='1239'> +1.2477336e-12 </wgt>
<wgt id='1240'> +1.2495111e-12 </wgt>
<wgt id='1241'> +1.2627385e-12 </wgt>
<wgt id='1242'> +1.2598246e-12 </wgt>
<wgt id='1243'> +1.2655862e-12 </wgt>
<wgt id='1244'> +1.2533929e-12 </wgt>
<wgt id='1245'> +1.2696224e-12 </wgt>
<wgt id='1246'> +1.2605854e-12 </wgt>
<wgt id='1247'> +1.2645652e-12 </wgt>
<wgt id='1248'> +1.2626548e-12 </wgt>
<wgt id='1249'> +1.2628130e-12 </wgt>
<wgt id='1250'> +1.2714585e-12 </wgt>
<wgt id='1251'> +1.2565284e-12 </wgt>
<wgt id='1252'> +1.2607494e-12 </wgt>
<wgt id='1253'> +1.2642888e-12 </wgt>
<wgt id='1254'> +1.2646590e-12 </wgt>
<wgt id='1255'> +1.2615375e-12 </wgt>
<wgt id='1256'> +1.2657522e-12 </wgt>
<wgt id='1257'> +1.2551904e-12 </wgt>
<wgt id='1258'> +1.2851834e-12 </wgt>
<wgt id='1259'> +1.2433486e-12 </wgt>
<wgt id='1260'> +1.2648704e-12 </wgt>
<wgt id='1261'> +1.2603183e-12 </wgt>
<wgt id='1262'> +1.2570282e-12 </wgt>
<wgt id='1263'> +1.2646607e-12 </wgt>
<wgt id='1264'> +1.2617185e-12 </wgt>
<wgt id='1265'> +1.2629491e-12 </wgt>
<wgt id='1266'> +1.2560742e-12 </wgt>
<wgt id='1267'> +1.2668862e-12 </wgt>
<wgt id='1268'> +1.2639099e-12 </wgt>
<wgt id='1269'> +1.2633601e-12 </wgt>
<wgt id='1270'> +1.2588020e-12 </wgt>
<wgt id='1271'> +1.2573882e-12 </wgt>
<wgt id='1272'> +1.2606086e-12 </wgt>
<wgt id='1273'> +1.2628524e-12 </wgt>
<wgt id='1274'> +1.2668131e-12 </wgt>
<wgt id='1275'> +1.2557710e-12 </wgt>
<wgt id='1276'> +1.2569420e-12 </wgt>
<wgt id='1277'> +1.2667070e-12 </wgt>
<wgt id='1278'> +1.2590185e-12 </wgt>
<wgt id='1279'> +1.2598542e-12 </wgt>
<wgt id='1280'> +1.2610337e-12 </wgt>
<wgt id='1281'> +1.2702546e-12 </wgt>
<wgt id='1282'> +1.2627385e-12 </wgt>
<wgt id='1283'> +1.2534285e-12 </wgt>
<wgt id='1284'> +1.2569573e-12 </wgt>
<wgt id='1285'> +1.2600437e-12 </wgt>
<wgt id='1286'> +1.2650731e-12 </wgt>
<wgt id='1287'> +1.2671064e-12 </wgt>
<wgt id='1288'> +1.2686297e-12 </wgt>
<wgt id='1289'> +1.2601359e-12 </wgt>
<wgt id='1290'> +1.2572275e-12 </wgt>
<wgt id='1291'> +1.2631530e-12 </wgt>
<wgt id='1292'> +1.2502154e-12 </wgt>
<wgt id='1293'> +1.2672771e-12 </wgt>
<wgt id='1294'> +1.2538656e-12 </wgt>
<wgt id='1295'> +1.2662180e-12 </wgt>
<wgt id='1296'> +1.2572956e-12 </wgt>
<wgt id='1297'> +1.2635365e-12 </wgt>
<wgt id='1298'> +1.2579014e-12 </wgt>
<wgt id='1299'> +1.2627604e-12 </wgt>
<wgt id='1300'> +1.2602427e-12 </wgt>
<wgt id='1301'> +1.2599110e-12 </wgt>
<wgt id='1302'> +1.2580049e-12 </wgt>
<wgt id='1303'> +1.2629736e-12 </wgt>
<wgt id='1304'> +1.2605672e-12 </wgt>
<wgt id='1305'> +1.2597900e-12 </wgt>
<wgt id='1306'> +1.2600506e-12 </wgt>
<wgt id='1307'> +1.2603770e-12 </wgt>
<wgt id='1308'> +1.2629915e-12 </wgt>
<wgt id='1309'> +1.2578436e-12 </wgt>
<wgt id='1310'> +1.2661432e-12 </wgt>
<wgt id='1311'> +1.2538620e-12 </wgt>
<wgt id='1312'> +1.2608119e-12 </wgt>
<wgt id='1313'> +1.2596130e-12 </wgt>
<wgt id='1314'> +1.2566899e-12 </wgt>
<wgt id='1315'> +1.2609182e-12 </wgt>
<wgt id='1316'> +1.2644651e-12 </wgt>
<wgt id='1317'> +1.2602481e-12 </wgt>
<wgt id='1318'> +1.2658764e-12 </wgt>
<wgt id='1319'> +1.2530147e-12 </wgt>
<wgt id='1320'> +1.2787021e-12 </wgt>
<wgt id='1321'> +1.2458626e-12 </wgt>
<wgt id='1322'> +1.2552857e-12 </wgt>
<wgt id='1323'> +1.2659988e-12 </wgt>
<wgt id='1324'> +1.2610624e-12 </wgt>
<wgt id='1325'> +1.2612158e-12 </wgt>
<wgt id='1326'> +1.2557614e-12 </wgt>
<wgt id='1327'> +1.2650097e-12 </wgt>
<wgt id='1328'> +1.2603623e-12 </wgt>
<wgt id='1329'> +1.2596795e-12 </wgt>
<wgt id='1330'> +1.2259574e-12 </wgt>
<wgt id='1331'> +1.2915038e-12 </wgt>
<wgt id='1332'> +1.2780069e-12 </wgt>
<wgt id='1333'> +1.2411284e-12 </wgt>
<wgt id='1334'> +1.2509562e-12 </wgt>
<wgt id='1335'> +1.2841042e-12 </wgt>
<wgt id='1336'> +1.2615240e-12 </wgt>
<wgt id='1337'> +1.2485398e-12 </wgt>
<wgt id='1338'> +1.2566803e-12 </wgt>
<wgt id='1339'> +1.2600076e-12 </wgt>
<wgt id='1340'> +1.2274544e-12 </wgt>
<wgt id='1341'> +1.2248158e-12 </wgt>
<wgt id='1342'> +1.2302821e-12 </wgt>
<wgt id='1343'> +1.2173097e-12 </wgt>
<wgt id='1344'> +1.2343047e-12 </wgt>
<wgt id='1345'> +1.2215349e-12 </wgt>
<wgt id='1346'> +1.2329914e-12 </wgt>
<wgt id='1347'> +1.2249011e-12 </wgt>
<wgt id='1348'> +1.2302446e-12 </wgt>
<wgt id='1349'> +1.2250843e-12 </wgt>
<wgt id='1350'> +1.2297224e-12 </wgt>
<wgt id='1351'> +1.2273170e-12 </wgt>
<wgt id='1352'> +1.2277502e-12 </wgt>
<wgt id='1353'> +1.2252028e-12 </wgt>
<wgt id='1354'> +1.2314098e-12 </wgt>
<wgt id='1355'> +1.2285398e-12 </wgt>
<wgt id='1356'> +1.2267919e-12 </wgt>
<wgt id='1357'> +1.2284143e-12 </wgt>
<wgt id='1358'> +1.2265412e-12 </wgt>
<wgt id='1359'> +1.2310590e-12 </wgt>
<wgt id='1360'> +1.2242660e-12 </wgt>
<wgt id='1361'> +1.2325529e-12 </wgt>
<wgt id='1362'> +1.2208894e-12 </wgt>
<wgt id='1363'> +1.2284688e-12 </wgt>
<wgt id='1364'> +1.2271006e-12 </wgt>
<wgt id='1365'> +1.2245285e-12 </wgt>
<wgt id='1366'> +1.2266309e-12 </wgt>
<wgt id='1367'> +1.2318541e-12 </wgt>
<wgt id='1368'> +1.2269888e-12 </wgt>
<wgt id='1369'> +1.2318027e-12 </wgt>
<wgt id='1370'> +1.2220537e-12 </wgt>
<wgt id='1371'> +1.2396066e-12 </wgt>
<wgt id='1372'> +1.2135731e-12 </wgt>
<wgt id='1373'> +1.2181541e-12 </wgt>
<wgt id='1374'> +1.2359832e-12 </wgt>
<wgt id='1375'> +1.2282036e-12 </wgt>
<wgt id='1376'> +1.2285300e-12 </wgt>
<wgt id='1377'> +1.2240882e-12 </wgt>
<wgt id='1378'> +1.2316446e-12 </wgt>
<wgt id='1379'> +1.2272595e-12 </wgt>
<wgt id='1380'> +1.2274356e-12 </wgt>
<wgt id='1381'> +1.1927488e-12 </wgt>
<wgt id='1382'> +1.2560470e-12 </wgt>
<wgt id='1383'> +1.2485383e-12 </wgt>
<wgt id='1384'> +1.2059841e-12 </wgt>
<wgt id='1385'> +1.2183117e-12 </wgt>
<wgt id='1386'> +1.2500613e-12 </wgt>
<wgt id='1387'> +1.2289138e-12 </wgt>
<wgt id='1388'> +1.2136852e-12 </wgt>
<wgt id='1389'> +1.2224998e-12 </wgt>
<wgt id='1390'> +1.2273504e-12 </wgt>
<wgt id='1391'> +1.2112175e-12 </wgt>
<wgt id='1392'> +1.1651477e-12 </wgt>
<wgt id='1393'> +1.1808416e-12 </wgt>
<wgt id='1394'> +1.1965894e-12 </wgt>
<wgt id='1395'> +1.2276753e-12 </wgt>
<wgt id='1396'> +1.2126957e-12 </wgt>
<wgt id='1397'> +1.1666804e-12 </wgt>
<wgt id='1398'> +1.1774362e-12 </wgt>
<wgt id='1399'> +1.1861335e-12 </wgt>
<wgt id='1400'> +1.1944960e-12 </wgt>
<wgt id='1401'> +1.2038295e-12 </wgt>
<wgt id='1402'> +1.2207036e-12 </wgt>
<wgt id='1403'> +1.2279463e-12 </wgt>
<wgt id='1404'> +1.2342242e-12 </wgt>
<wgt id='1405'> +1.2126957e-12 </wgt>
<wgt id='1406'> +1.2102598e-12 </wgt>
<wgt id='1407'> +1.2118875e-12 </wgt>
<wgt id='1408'> +1.2137293e-12 </wgt>
<wgt id='1409'> +1.2157049e-12 </wgt>
<wgt id='1410'> +1.2592191e-12 </wgt>
<wgt id='1411'> +1.2557957e-12 </wgt>
<wgt id='1412'> +1.2635491e-12 </wgt>
<wgt id='1413'> +1.2611217e-12 </wgt>
<wgt id='1414'> +1.2573613e-12 </wgt>
<wgt id='1415'> +1.2448119e-12 </wgt>
<wgt id='1416'> +1.2650534e-12 </wgt>
<wgt id='1417'> +1.2516631e-12 </wgt>
<wgt id='1418'> +1.2667373e-12 </wgt>
<wgt id='1419'> +1.2572574e-12 </wgt>
<wgt id='1420'> +1.2611209e-12 </wgt>
<wgt id='1421'> +1.2612092e-12 </wgt>
<wgt id='1422'> +1.2584322e-12 </wgt>
<wgt id='1423'> +1.2586321e-12 </wgt>
<wgt id='1424'> +1.2599526e-12 </wgt>
<wgt id='1425'> +1.2562411e-12 </wgt>
<wgt id='1426'> +1.2624790e-12 </wgt>
<wgt id='1427'> +1.2603560e-12 </wgt>
<wgt id='1428'> +1.2585574e-12 </wgt>
<wgt id='1429'> +1.2560485e-12 </wgt>
<wgt id='1430'> +1.2635880e-12 </wgt>
<wgt id='1431'> +1.2578120e-12 </wgt>
<wgt id='1432'> +1.2601752e-12 </wgt>
<wgt id='1433'> +1.2507378e-12 </wgt>
<wgt id='1434'> +1.2668765e-12 </wgt>
<wgt id='1435'> +1.2590604e-12 </wgt>
<wgt id='1436'> +1.2597856e-12 </wgt>
<wgt id='1437'> +1.2620667e-12 </wgt>
<wgt id='1438'> +1.2596946e-12 </wgt>
<wgt id='1439'> +1.2540646e-12 </wgt>
<wgt id='1440'> +1.2718635e-12 </wgt>
<wgt id='1441'> +1.2668400e-12 </wgt>
<wgt id='1442'> +1.2443530e-12 </wgt>
<wgt id='1443'> +1.2603902e-12 </wgt>
<wgt id='1444'> +1.2573836e-12 </wgt>
<wgt id='1445'> +1.2654017e-12 </wgt>
<wgt id='1446'> +1.2572130e-12 </wgt>
<wgt id='1447'> +1.2595841e-12 </wgt>
<wgt id='1448'> +1.2600965e-12 </wgt>
<wgt id='1449'> +1.2598799e-12 </wgt>
<wgt id='1450'> +1.2584889e-12 </wgt>
<wgt id='1451'> +1.2814115e-12 </wgt>
<wgt id='1452'> +1.2125810e-12 </wgt>
<wgt id='1453'> +1.2625922e-12 </wgt>
<wgt id='1454'> +1.2344226e-12 </wgt>
<wgt id='1455'> +1.2413889e-12 </wgt>
<wgt id='1456'> +1.2695885e-12 </wgt>
<wgt id='1457'> +1.2770352e-12 </wgt>
<wgt id='1458'> +1.2510702e-12 </wgt>
<wgt id='1459'> +1.2617367e-12 </wgt>
<wgt id='1460'> +1.2524983e-12 </wgt>
<wgt id='1461'> +1.2592191e-12 </wgt>
<wgt id='1462'> +1.2428796e-12 </wgt>
<wgt id='1463'> +1.2817310e-12 </wgt>
<wgt id='1464'> +1.2617638e-12 </wgt>
<wgt id='1465'> +1.2215130e-12 </wgt>
<wgt id='1466'> +1.2318256e-12 </wgt>
<wgt id='1467'> +1.2415096e-12 </wgt>
<wgt id='1468'> +1.2461693e-12 </wgt>
<wgt id='1469'> +1.2552115e-12 </wgt>
<wgt id='1470'> +1.2679418e-12 </wgt>
<wgt id='1471'> +1.2716607e-12 </wgt>
<wgt id='1472'> +1.2777533e-12 </wgt>
<wgt id='1473'> +1.2617638e-12 </wgt>
<wgt id='1474'> +1.2582466e-12 </wgt>
<wgt id='1475'> +1.2581590e-12 </wgt>
<wgt id='1476'> +1.2634582e-12 </wgt>
<wgt id='1477'> +1.2654506e-12 </wgt>
<wgt id='1478'> +1.1939613e-12 </wgt>
<wgt id='1479'> +1.1922428e-12 </wgt>
<wgt id='1480'> +1.2045428e-12 </wgt>
<wgt id='1481'> +1.1966752e-12 </wgt>
<wgt id='1482'> +1.1903380e-12 </wgt>
<wgt id='1483'> +1.1630489e-12 </wgt>
<wgt id='1484'> +1.1934728e-12 </wgt>
<wgt id='1485'> +1.1926625e-12 </wgt>
<wgt id='1486'> +1.1949975e-12 </wgt>
<wgt id='1487'> +1.1932913e-12 </wgt>
<wgt id='1488'> +1.1931911e-12 </wgt>
<wgt id='1489'> +1.2005105e-12 </wgt>
<wgt id='1490'> +1.1879917e-12 </wgt>
<wgt id='1491'> +1.1942704e-12 </wgt>
<wgt id='1492'> +1.1957080e-12 </wgt>
<wgt id='1493'> +1.1825199e-12 </wgt>
<wgt id='1494'> +1.2126349e-12 </wgt>
<wgt id='1495'> +1.1822922e-12 </wgt>
<wgt id='1496'> +1.1929254e-12 </wgt>
<wgt id='1497'> +1.1800815e-12 </wgt>
<wgt id='1498'> +1.1933826e-12 </wgt>
<wgt id='1499'> +1.1940270e-12 </wgt>
<wgt id='1500'> +1.1977765e-12 </wgt>
<wgt id='1501'> +1.1934425e-12 </wgt>
<wgt id='1502'> +1.1953334e-12 </wgt>
<wgt id='1503'> +1.1940599e-12 </wgt>
<wgt id='1504'> +1.1839929e-12 </wgt>
<wgt id='1505'> +1.1946156e-12 </wgt>
<wgt id='1506'> +1.1924692e-12 </wgt>
<wgt id='1507'> +1.1919543e-12 </wgt>
<wgt id='1508'> +1.1989961e-12 </wgt>
<wgt id='1509'> +1.3639762e-12 </wgt>
<wgt id='1510'> +1.3630533e-12 </wgt>
<wgt id='1511'> +1.3660334e-12 </wgt>
<wgt id='1512'> +1.3624097e-12 </wgt>
<wgt id='1513'> +1.3740862e-12 </wgt>
<wgt id='1514'> +1.3652591e-12 </wgt>
<wgt id='1515'> +1.3587800e-12 </wgt>
<wgt id='1516'> +1.3639813e-12 </wgt>
<wgt id='1517'> +1.3622427e-12 </wgt>
<wgt id='1518'> +1.3751326e-12 </wgt>
<wgt id='1519'> +1.3533646e-12 </wgt>
<wgt id='1520'> +1.3580877e-12 </wgt>
<wgt id='1521'> +1.3734942e-12 </wgt>
<wgt id='1522'> +1.3603238e-12 </wgt>
<wgt id='1523'> +1.3796851e-12 </wgt>
<wgt id='1524'> +1.3694802e-12 </wgt>
<wgt id='1525'> +1.3769969e-12 </wgt>
<wgt id='1526'> +1.3558333e-12 </wgt>
<wgt id='1527'> +1.3570323e-12 </wgt>
<wgt id='1528'> +1.3676052e-12 </wgt>
<wgt id='1529'> +1.3650668e-12 </wgt>
<wgt id='1530'> +1.3761480e-12 </wgt>
<wgt id='1531'> +1.3683646e-12 </wgt>
<wgt id='1532'> +1.3554762e-12 </wgt>
<wgt id='1533'> +1.3615283e-12 </wgt>
<wgt id='1534'> +1.3700445e-12 </wgt>
<wgt id='1535'> +1.3502159e-12 </wgt>
<wgt id='1536'> +1.3622733e-12 </wgt>
<wgt id='1537'> +1.3661220e-12 </wgt>
<wgt id='1538'> +1.3609982e-12 </wgt>
<wgt id='1539'> +1.3530146e-12 </wgt>
<wgt id='1540'> +1.3699127e-12 </wgt>
<wgt id='1541'> +1.3704467e-12 </wgt>
<wgt id='1542'> +1.3687842e-12 </wgt>
<wgt id='1543'> +1.3610942e-12 </wgt>
<wgt id='1544'> +1.3662532e-12 </wgt>
<wgt id='1545'> +1.3681748e-12 </wgt>
<wgt id='1546'> +1.3633166e-12 </wgt>
<wgt id='1547'> +1.3676910e-12 </wgt>
<wgt id='1548'> +1.3608734e-12 </wgt>
<wgt id='1549'> +1.3618846e-12 </wgt>
<wgt id='1550'> +1.3664258e-12 </wgt>
<wgt id='1551'> +1.3629374e-12 </wgt>
<wgt id='1552'> +1.3643076e-12 </wgt>
<wgt id='1553'> +1.3663160e-12 </wgt>
<wgt id='1554'> +1.3692047e-12 </wgt>
<wgt id='1555'> +1.3669486e-12 </wgt>
<wgt id='1556'> +1.3609355e-12 </wgt>
<wgt id='1557'> +1.3675880e-12 </wgt>
<wgt id='1558'> +1.3630442e-12 </wgt>
<wgt id='1559'> +1.3660478e-12 </wgt>
<wgt id='1560'> +1.3669807e-12 </wgt>
<wgt id='1561'> +1.3641472e-12 </wgt>
<wgt id='1562'> +1.3651107e-12 </wgt>
<wgt id='1563'> +1.3649536e-12 </wgt>
<wgt id='1564'> +1.3609057e-12 </wgt>
<wgt id='1565'> +1.3617429e-12 </wgt>
<wgt id='1566'> +1.3655656e-12 </wgt>
<wgt id='1567'> +1.3636997e-12 </wgt>
<wgt id='1568'> +1.3663305e-12 </wgt>
<wgt id='1569'> +1.3666243e-12 </wgt>
<wgt id='1570'> +1.3623258e-12 </wgt>
<wgt id='1571'> +1.3648988e-12 </wgt>
<wgt id='1572'> +1.3607756e-12 </wgt>
<wgt id='1573'> +1.3600995e-12 </wgt>
<wgt id='1574'> +1.3645508e-12 </wgt>
<wgt id='1575'> +1.3646595e-12 </wgt>
<wgt id='1576'> +1.3622832e-12 </wgt>
<wgt id='1577'> +1.3632774e-12 </wgt>
<wgt id='1578'> +1.3666373e-12 </wgt>
<wgt id='1579'> +1.3626176e-12 </wgt>
<wgt id='1580'> +1.3627250e-12 </wgt>
<wgt id='1581'> +1.3654744e-12 </wgt>
<wgt id='1582'> +1.3654367e-12 </wgt>
<wgt id='1583'> +1.3632740e-12 </wgt>
<wgt id='1584'> +1.3639361e-12 </wgt>
<wgt id='1585'> +1.3632480e-12 </wgt>
<wgt id='1586'> +1.3620431e-12 </wgt>
<wgt id='1587'> +1.3649750e-12 </wgt>
<wgt id='1588'> +1.3630700e-12 </wgt>
<wgt id='1589'> +1.3635474e-12 </wgt>
<wgt id='1590'> +1.3632007e-12 </wgt>
<wgt id='1591'> +1.3622056e-12 </wgt>
<wgt id='1592'> +1.3650305e-12 </wgt>
<wgt id='1593'> +1.3632011e-12 </wgt>
<wgt id='1594'> +1.3629373e-12 </wgt>
<wgt id='1595'> +1.3652148e-12 </wgt>
<wgt id='1596'> +1.3631281e-12 </wgt>
<wgt id='1597'> +1.3637883e-12 </wgt>
<wgt id='1598'> +1.3629370e-12 </wgt>
<wgt id='1599'> +1.3630499e-12 </wgt>
<wgt id='1600'> +1.3640022e-12 </wgt>
<wgt id='1601'> +1.3645707e-12 </wgt>
<wgt id='1602'> +1.3656825e-12 </wgt>
<wgt id='1603'> +1.3630084e-12 </wgt>
<wgt id='1604'> +1.3640695e-12 </wgt>
<wgt id='1605'> +1.3647545e-12 </wgt>
<wgt id='1606'> +1.3630606e-12 </wgt>
<wgt id='1607'> +1.3644383e-12 </wgt>
<wgt id='1608'> +1.3640068e-12 </wgt>
<wgt id='1609'> +1.3635125e-12 </wgt>
<wgt id='1610'> +1.3394852e-12 </wgt>
<wgt id='1611'> +1.3927992e-12 </wgt>
<wgt id='1612'> +1.5062043e-12 </wgt>
<wgt id='1613'> +1.4818230e-12 </wgt>
<wgt id='1614'> +1.5206324e-12 </wgt>
<wgt id='1615'> +1.4945893e-12 </wgt>
<wgt id='1616'> +1.5449548e-12 </wgt>
<wgt id='1617'> +1.5979700e-12 </wgt>
<wgt id='1618'> +1.6098583e-12 </wgt>
<wgt id='1619'> +1.5227402e-12 </wgt>
<wgt id='1620'> +1.4450463e-12 </wgt>
<wgt id='1621'> +1.5270847e-12 </wgt>
<wgt id='1622'> +1.5160302e-12 </wgt>
<wgt id='1623'> +1.5009335e-12 </wgt>
<wgt id='1624'> +1.4948019e-12 </wgt>
<wgt id='1625'> +1.4918470e-12 </wgt>
<wgt id='1626'> +1.4598152e-12 </wgt>
<wgt id='1627'> +1.4763280e-12 </wgt>
<wgt id='1628'> +1.5360990e-12 </wgt>
<wgt id='1629'> +1.6040224e-12 </wgt>
<wgt id='1630'> +1.4977779e-12 </wgt>
<wgt id='1631'> +1.4868709e-12 </wgt>
<wgt id='1632'> +1.4114746e-12 </wgt>
<wgt id='1633'> +1.4390476e-12 </wgt>
<wgt id='1634'> +1.5388306e-12 </wgt>
<wgt id='1635'> +1.5081595e-12 </wgt>
<wgt id='1636'> +1.5998462e-12 </wgt>
<wgt id='1637'> +1.4664638e-12 </wgt>
<wgt id='1638'> +1.5013713e-12 </wgt>
<wgt id='1639'> +1.4838900e-12 </wgt>
<wgt id='1640'> +1.4272077e-12 </wgt>
<wgt id='1641'> +1.4782345e-12 </wgt>
<wgt id='1642'> +1.4540405e-12 </wgt>
<wgt id='1643'> +1.5852157e-12 </wgt>
<wgt id='1644'> +1.4114644e-12 </wgt>
<wgt id='1645'> +1.4890587e-12 </wgt>
<wgt id='1646'> +1.4600079e-12 </wgt>
<wgt id='1647'> +1.4555278e-12 </wgt>
<wgt id='1648'> +1.5020971e-12 </wgt>
<wgt id='1649'> +1.6560065e-12 </wgt>
<wgt id='1650'> +1.4824941e-12 </wgt>
<wgt id='1651'> +1.4759331e-12 </wgt>
<wgt id='1652'> +1.4641668e-12 </wgt>
<wgt id='1653'> +1.5873301e-12 </wgt>
<wgt id='1654'> +1.5476637e-12 </wgt>
<wgt id='1655'> +1.5088297e-12 </wgt>
<wgt id='1656'> +1.4342332e-12 </wgt>
<wgt id='1657'> +1.4893724e-12 </wgt>
<wgt id='1658'> +1.4229222e-12 </wgt>
<wgt id='1659'> +1.4948019e-12 </wgt>
<wgt id='1660'> +1.5563071e-12 </wgt>
<wgt id='1661'> +1.5152491e-12 </wgt>
<wgt id='1662'> +1.4806485e-12 </wgt>
<wgt id='1663'> +1.5173465e-12 </wgt>
<wgt id='1664'> +1.4617152e-12 </wgt>
<wgt id='1665'> +1.3920470e-12 </wgt>
<wgt id='1666'> +1.5197479e-12 </wgt>
<wgt id='1667'> +1.5477632e-12 </wgt>
<wgt id='1668'> +1.5528177e-12 </wgt>
<wgt id='1669'> +1.4458823e-12 </wgt>
<wgt id='1670'> +1.4913911e-12 </wgt>
<wgt id='1671'> +1.4523972e-12 </wgt>
<wgt id='1672'> +1.4921515e-12 </wgt>
<wgt id='1673'> +1.5177571e-12 </wgt>
<wgt id='1674'> +1.4918754e-12 </wgt>
<wgt id='1675'> +1.5261714e-12 </wgt>
<wgt id='1676'> +1.5769840e-12 </wgt>
<wgt id='1677'> +1.5766826e-12 </wgt>
<wgt id='1678'> +1.4731281e-12 </wgt>
<wgt id='1679'> +1.5474301e-12 </wgt>
<wgt id='1680'> +1.5050793e-12 </wgt>
<wgt id='1681'> +1.5382713e-12 </wgt>
<wgt id='1682'> +1.5137612e-12 </wgt>
<wgt id='1683'> +1.4889270e-12 </wgt>
<wgt id='1684'> +1.4765984e-12 </wgt>
<wgt id='1685'> +1.4826154e-12 </wgt>
<wgt id='1686'> +1.4882909e-12 </wgt>
<wgt id='1687'> +1.5604633e-12 </wgt>
<wgt id='1688'> +1.4683315e-12 </wgt>
<wgt id='1689'> +1.4669958e-12 </wgt>
<wgt id='1690'> +1.5312051e-12 </wgt>
<wgt id='1691'> +1.5381206e-12 </wgt>
<wgt id='1692'> +1.5380388e-12 </wgt>
<wgt id='1693'> +1.5354782e-12 </wgt>
<wgt id='1694'> +1.5076224e-12 </wgt>
<wgt id='1695'> +1.4773585e-12 </wgt>
<wgt id='1696'> +1.5232312e-12 </wgt>
<wgt id='1697'> +1.5576921e-12 </wgt>
<wgt id='1698'> +1.4883338e-12 </wgt>
<wgt id='1699'> +1.5592290e-12 </wgt>
<wgt id='1700'> +1.5131238e-12 </wgt>
<wgt id='1701'> +1.4984751e-12 </wgt>
<wgt id='1702'> +1.5676869e-12 </wgt>
<wgt id='1703'> +1.5588064e-12 </wgt>
<wgt id='1704'> +1.4801323e-12 </wgt>
<wgt id='1705'> +1.4082174e-12 </wgt>
<wgt id='1706'> +1.5410903e-12 </wgt>
<wgt id='1707'> +1.5207387e-12 </wgt>
<wgt id='1708'> +1.5250535e-12 </wgt>
<wgt id='1709'> +1.4948556e-12 </wgt>
<wgt id='1710'> +1.4977158e-12 </wgt>
<wgt id='1711'> +1.5430892e-12 </wgt>
<wgt id='1712'> +1.5290784e-12 </wgt>
<wgt id='1713'> +1.1836436e-12 </wgt>
<wgt id='1714'> +1.1332882e-12 </wgt>
<wgt id='1715'> +1.1846046e-12 </wgt>
<wgt id='1716'> +1.2556150e-12 </wgt>
<wgt id='1717'> +1.2136479e-12 </wgt>
<wgt id='1718'> +1.2032716e-12 </wgt>
<wgt id='1719'> +1.1725419e-12 </wgt>
<wgt id='1720'> +1.2183499e-12 </wgt>
<wgt id='1721'> +1.1659425e-12 </wgt>
<wgt id='1722'> +1.1811906e-12 </wgt>
<wgt id='1723'> +1.1498369e-12 </wgt>
<wgt id='1724'> +1.0812751e-12 </wgt>
<wgt id='1725'> +1.1980845e-12 </wgt>
<wgt id='1726'> +1.2691270e-12 </wgt>
<wgt id='1727'> +1.1740542e-12 </wgt>
<wgt id='1728'> +1.1750390e-12 </wgt>
<wgt id='1729'> +1.1618062e-12 </wgt>
<wgt id='1730'> +1.1644576e-12 </wgt>
<wgt id='1731'> +1.1292609e-12 </wgt>
<wgt id='1732'> +1.1761213e-12 </wgt>
<wgt id='1733'> +1.2192991e-12 </wgt>
<wgt id='1734'> +1.2122287e-12 </wgt>
<wgt id='1735'> +1.1584665e-12 </wgt>
<wgt id='1736'> +1.2138506e-12 </wgt>
<wgt id='1737'> +1.2577744e-12 </wgt>
<wgt id='1738'> +1.2045905e-12 </wgt>
<wgt id='1739'> +1.1739241e-12 </wgt>
<wgt id='1740'> +1.1806434e-12 </wgt>
<wgt id='1741'> +1.1987935e-12 </wgt>
<wgt id='1742'> +1.1997405e-12 </wgt>
<wgt id='1743'> +1.2148571e-12 </wgt>
<wgt id='1744'> +1.2564449e-12 </wgt>
<wgt id='1745'> +1.1253014e-12 </wgt>
<wgt id='1746'> +1.1986149e-12 </wgt>
<wgt id='1747'> +1.1919166e-12 </wgt>
<wgt id='1748'> +1.2149191e-12 </wgt>
<wgt id='1749'> +1.1909613e-12 </wgt>
<wgt id='1750'> +1.1974821e-12 </wgt>
<wgt id='1751'> +1.1039116e-12 </wgt>
<wgt id='1752'> +1.1782376e-12 </wgt>
<wgt id='1753'> +1.2056345e-12 </wgt>
<wgt id='1754'> +1.1645759e-12 </wgt>
<wgt id='1755'> +1.1746149e-12 </wgt>
<wgt id='1756'> +1.2002749e-12 </wgt>
<wgt id='1757'> +1.1632675e-12 </wgt>
<wgt id='1758'> +1.1941484e-12 </wgt>
<wgt id='1759'> +1.1617388e-12 </wgt>
<wgt id='1760'> +1.1236950e-12 </wgt>
<wgt id='1761'> +1.1735386e-12 </wgt>
<wgt id='1762'> +1.2191974e-12 </wgt>
<wgt id='1763'> +1.2229314e-12 </wgt>
<wgt id='1764'> +1.1933045e-12 </wgt>
<wgt id='1765'> +1.1953854e-12 </wgt>
<wgt id='1766'> +1.1749995e-12 </wgt>
<wgt id='1767'> +1.1936268e-12 </wgt>
<wgt id='1768'> +1.1924175e-12 </wgt>
<wgt id='1769'> +1.1582313e-12 </wgt>
<wgt id='1770'> +1.2340914e-12 </wgt>
<wgt id='1771'> +1.1945237e-12 </wgt>
<wgt id='1772'> +1.2107565e-12 </wgt>
<wgt id='1773'> +1.1955023e-12 </wgt>
<wgt id='1774'> +1.1821291e-12 </wgt>
<wgt id='1775'> +1.1832123e-12 </wgt>
<wgt id='1776'> +1.1690405e-12 </wgt>
<wgt id='1777'> +1.0819097e-12 </wgt>
<wgt id='1778'> +1.1694024e-12 </wgt>
<wgt id='1779'> +1.2205480e-12 </wgt>
<wgt id='1780'> +1.1853604e-12 </wgt>
<wgt id='1781'> +1.1891390e-12 </wgt>
<wgt id='1782'> +1.1822804e-12 </wgt>
<wgt id='1783'> +1.1895553e-12 </wgt>
<wgt id='1784'> +1.1752088e-12 </wgt>
<wgt id='1785'> +1.1394448e-12 </wgt>
<wgt id='1786'> +1.1024986e-12 </wgt>
<wgt id='1787'> +1.2327262e-12 </wgt>
<wgt id='1788'> +1.1717064e-12 </wgt>
<wgt id='1789'> +1.1286412e-12 </wgt>
<wgt id='1790'> +1.1863893e-12 </wgt>
<wgt id='1791'> +1.1656093e-12 </wgt>
<wgt id='1792'> +1.1414607e-12 </wgt>
<wgt id='1793'> +1.2153346e-12 </wgt>
<wgt id='1794'> +1.1860074e-12 </wgt>
<wgt id='1795'> +1.2266031e-12 </wgt>
<wgt id='1796'> +1.1633358e-12 </wgt>
<wgt id='1797'> +1.2054599e-12 </wgt>
<wgt id='1798'> +1.1986342e-12 </wgt>
<wgt id='1799'> +1.1625154e-12 </wgt>
<wgt id='1800'> +1.1761899e-12 </wgt>
<wgt id='1801'> +1.1860036e-12 </wgt>
<wgt id='1802'> +1.1491331e-12 </wgt>
<wgt id='1803'> +1.2186554e-12 </wgt>
<wgt id='1804'> +1.1939736e-12 </wgt>
<wgt id='1805'> +1.2110498e-12 </wgt>
<wgt id='1806'> +1.1825227e-12 </wgt>
<wgt id='1807'> +1.1322851e-12 </wgt>
<wgt id='1808'> +1.1687699e-12 </wgt>
<wgt id='1809'> +1.1622115e-12 </wgt>
<wgt id='1810'> +1.1839476e-12 </wgt>
<wgt id='1811'> +1.2230423e-12 </wgt>
<wgt id='1812'> +1.2031728e-12 </wgt>
<wgt id='1813'> +1.1873102e-12 </wgt>
<wgt id='1814'> +1.1730378e-12 </wgt>
<wgt id='1815'> +1.3723426e-12 </wgt>
<wgt id='1816'> +1.1836436e-12 </wgt>
<wgt id='1817'> +1.1332882e-12 </wgt>
<wgt id='1818'> +1.1846046e-12 </wgt>
<wgt id='1819'> +1.2556150e-12 </wgt>
<wgt id='1820'> +1.2136479e-12 </wgt>
<wgt id='1821'> +1.2032716e-12 </wgt>
<wgt id='1822'> +1.1725419e-12 </wgt>
<wgt id='1823'> +1.2183499e-12 </wgt>
<wgt id='1824'> +1.1659425e-12 </wgt>
<wgt id='1825'> +1.1811906e-12 </wgt>
<wgt id='1826'> +1.1498369e-12 </wgt>
<wgt id='1827'> +1.0812751e-12 </wgt>
<wgt id='1828'> +1.1980845e-12 </wgt>
<wgt id='1829'> +1.2691270e-12 </wgt>
<wgt id='1830'> +1.1740542e-12 </wgt>
<wgt id='1831'> +1.1750390e-12 </wgt>
<wgt id='1832'> +1.1618062e-12 </wgt>
<wgt id='1833'> +1.1644576e-12 </wgt>
<wgt id='1834'> +1.1292609e-12 </wgt>
<wgt id='1835'> +1.1761213e-12 </wgt>
<wgt id='1836'> +1.2192991e-12 </wgt>
<wgt id='1837'> +1.2122287e-12 </wgt>
<wgt id='1838'> +1.1584665e-12 </wgt>
<wgt id='1839'> +1.2138506e-12 </wgt>
<wgt id='1840'> +1.2577744e-12 </wgt>
<wgt id='1841'> +1.2045905e-12 </wgt>
<wgt id='1842'> +1.1739241e-12 </wgt>
<wgt id='1843'> +1.1806434e-12 </wgt>
<wgt id='1844'> +1.1987935e-12 </wgt>
<wgt id='1845'> +1.1997405e-12 </wgt>
<wgt id='1846'> +1.2148571e-12 </wgt>
<wgt id='1847'> +1.2564449e-12 </wgt>
<wgt id='1848'> +1.1253014e-12 </wgt>
<wgt id='1849'> +1.1986149e-12 </wgt>
<wgt id='1850'> +1.1919166e-12 </wgt>
<wgt id='1851'> +1.2149191e-12 </wgt>
<wgt id='1852'> +1.1909613e-12 </wgt>
<wgt id='1853'> +1.1974821e-12 </wgt>
<wgt id='1854'> +1.1039116e-12 </wgt>
<wgt id='1855'> +1.1782376e-12 </wgt>
<wgt id='1856'> +1.2056345e-12 </wgt>
<wgt id='1857'> +1.1645759e-12 </wgt>
<wgt id='1858'> +1.1746149e-12 </wgt>
<wgt id='1859'> +1.2002749e-12 </wgt>
<wgt id='1860'> +1.1632675e-12 </wgt>
<wgt id='1861'> +1.1941484e-12 </wgt>
<wgt id='1862'> +1.1617388e-12 </wgt>
<wgt id='1863'> +1.1236950e-12 </wgt>
<wgt id='1864'> +1.1735386e-12 </wgt>
<wgt id='1865'> +1.2191974e-12 </wgt>
<wgt id='1866'> +1.2229314e-12 </wgt>
<wgt id='1867'> +1.1933045e-12 </wgt>
<wgt id='1868'> +1.1953854e-12 </wgt>
<wgt id='1869'> +1.1749995e-12 </wgt>
<wgt id='1870'> +1.1936268e-12 </wgt>
<wgt id='1871'> +1.1924175e-12 </wgt>
<wgt id='1872'> +1.1582313e-12 </wgt>
<wgt id='1873'> +1.2340914e-12 </wgt>
<wgt id='1874'> +1.1945237e-12 </wgt>
<wgt id='1875'> +1.2107565e-12 </wgt>
<wgt id='1876'> +1.1955023e-12 </wgt>
<wgt id='1877'> +1.1821291e-12 </wgt>
<wgt id='1878'> +1.1832123e-12 </wgt>
<wgt id='1879'> +1.1690405e-12 </wgt>
<wgt id='1880'> +1.0819097e-12 </wgt>
<wgt id='1881'> +1.1694024e-12 </wgt>
<wgt id='1882'> +1.2205480e-12 </wgt>
<wgt id='1883'> +1.1853604e-12 </wgt>
<wgt id='1884'> +1.1891390e-12 </wgt>
<wgt id='1885'> +1.1822804e-12 </wgt>
<wgt id='1886'> +1.1895553e-12 </wgt>
<wgt id='1887'> +1.1752088e-12 </wgt>
<wgt id='1888'> +1.1394448e-12 </wgt>
<wgt id='1889'> +1.1024986e-12 </wgt>
<wgt id='1890'> +1.2327262e-12 </wgt>
<wgt id='1891'> +1.1717064e-12 </wgt>
<wgt id='1892'> +1.1286412e-12 </wgt>
<wgt id='1893'> +1.1863893e-12 </wgt>
<wgt id='1894'> +1.1656093e-12 </wgt>
<wgt id='1895'> +1.1414607e-12 </wgt>
<wgt id='1896'> +1.2153346e-12 </wgt>
<wgt id='1897'> +1.1860074e-12 </wgt>
<wgt id='1898'> +1.2266031e-12 </wgt>
<wgt id='1899'> +1.1633358e-12 </wgt>
<wgt id='1900'> +1.2054599e-12 </wgt>
<wgt id='1901'> +1.1986342e-12 </wgt>
<wgt id='1902'> +1.1625154e-12 </wgt>
<wgt id='1903'> +1.1761899e-12 </wgt>
<wgt id='1904'> +1.1860036e-12 </wgt>
<wgt id='1905'> +1.1491331e-12 </wgt>
<wgt id='1906'> +1.2186554e-12 </wgt>
<wgt id='1907'> +1.1939736e-12 </wgt>
<wgt id='1908'> +1.2110498e-12 </wgt>
<wgt id='1909'> +1.1825227e-12 </wgt>
<wgt id='1910'> +1.1322851e-12 </wgt>
<wgt id='1911'> +1.1687699e-12 </wgt>
<wgt id='1912'> +1.1622115e-12 </wgt>
<wgt id='1913'> +1.1839476e-12 </wgt>
<wgt id='1914'> +1.2230423e-12 </wgt>
<wgt id='1915'> +1.2031728e-12 </wgt>
<wgt id='1916'> +1.1873102e-12 </wgt>
<wgt id='1917'> +1.1717289e-12 </wgt>
<wgt id='1918'> +1.1964648e-12 </wgt>
<wgt id='1919'> +1.2366533e-12 </wgt>
</rwgt>
</event>
<event>
 9      1 +1.5538000e-12 2.65632600e+01 7.81860800e-03 1.48715900e-01
        2 -1    0    0  502    0 -0.0000000000e+00 +0.0000000000e+00 +4.9204516122e+01 4.9204516122e+01 0.0000000000e+00 0.0000e+00 1.0000e+00
       21 -1    0    0  501  502 +0.0000000000e+00 -0.0000000000e+00 -2.1152792501e+02 2.1152792501e+02 0.0000000000e+00 0.0000e+00 1.0000e+00
     1023  2    1    2    0    0 -1.8521700334e+01 -1.1728321665e+01 +4.4998905087e+01 5.2254267732e+01 1.5000004161e+01 0.0000e+00 0.0000e+00
  1000023  2    3    3    0    0 -4.1714735708e+00 -7.4473400141e-01 +1.8771497134e+01 2.0013840718e+01 5.4980810412e+00 0.0000e+00 0.0000e+00
        2  1    1    2  501    0 +1.8521700334e+01 +1.1728321665e+01 -2.0732231397e+02 2.0847817340e+02 0.0000000000e+00 0.0000e+00 1.0000e+00
  1000022  1    4    4    0    0 -3.4751390847e+00 -4.7531619446e-01 +1.6640629963e+01 1.7726056604e+01 5.0000000000e+00 0.0000e+00 1.0000e+00
      -11  1    4    4    0    0 -1.8366898213e-01 +3.1439580934e-03 +9.9830636866e-01 1.0150665231e+00 5.1100000000e-04 0.0000e+00 1.0000e+00
       11  1    4    4    0    0 -5.1266550393e-01 -2.7256176505e-01 +1.1325608025e+00 1.2727175913e+00 5.1100000000e-04 0.0000e+00 -1.0000e+00
  1000022  1    3    3    0    0 -1.4350226764e+01 -1.0983587663e+01 +2.6227407953e+01 3.2240427014e+01 5.0000000000e+00 0.0000e+00 1.0000e+00
<mgrwt>
<rscale>  1 0.26563265E+02</rscale>
<asrwt>0</asrwt>
<pdfrwt beam="1">  1       21 0.32542757E-01 0.26563265E+02</pdfrwt>
<pdfrwt beam="2">  1        2 0.75699256E-02 0.26563265E+02</pdfrwt>
<totfact> 0.11186450E+05</totfact>
</mgrwt>
<rwgt>
<wgt id='1001'> +1.5538000e-12 </wgt>
<wgt id='1002'> +1.4596128e-12 </wgt>
<wgt id='1003'> +1.4483079e-12 </wgt>
<wgt id='1004'> +1.5739790e-12 </wgt>
<wgt id='1005'> +1.2084551e-12 </wgt>
<wgt id='1006'> +1.3549436e-12 </wgt>
<wgt id='1007'> +1.2901466e-12 </wgt>
<wgt id='1008'> +1.2820274e-12 </wgt>
<wgt id='1009'> +1.3680116e-12 </wgt>
<wgt id='1010'> +1.0979293e-12 </wgt>
<wgt id='1011'> +1.8245740e-12 </wgt>
<wgt id='1012'> +1.6826422e-12 </wgt>
<wgt id='1013'> +1.6663648e-12 </wgt>
<wgt id='1014'> +1.8567841e-12 </wgt>
<wgt id='1015'> +1.3445684e-12 </wgt>
<wgt id='1016'> +1.6382365e-12 </wgt>
<wgt id='1017'> +1.5150477e-12 </wgt>
<wgt id='1018'> +1.5009524e-12 </wgt>
<wgt id='1019'> +1.6663648e-12 </wgt>
<wgt id='1020'> +1.2225247e-12 </wgt>
<wgt id='1021'> +1.4285739e-12 </wgt>
<wgt id='1022'> +1.3391453e-12 </wgt>
<wgt id='1023'> +1.3286277e-12 </wgt>
<wgt id='1024'> +1.4483079e-12 </wgt>
<wgt id='1025'> +1.1107120e-12 </wgt>
<wgt id='1026'> +1.9237249e-12 </wgt>
<wgt id='1027'> +1.7465475e-12 </wgt>
<wgt id='1028'> +1.7269354e-12 </wgt>
<wgt id='1029'> +1.9657693e-12 </wgt>
<wgt id='1030'> +1.3602226e-12 </wgt>
<wgt id='1031'> +1.4271332e-12 </wgt>
<wgt id='1032'> +1.3752677e-12 </wgt>
<wgt id='1033'> +1.3680116e-12 </wgt>
<wgt id='1034'> +1.4356845e-12 </wgt>
<wgt id='1035'> +1.1836923e-12 </wgt>
<wgt id='1036'> +1.2444878e-12 </wgt>
<wgt id='1037'> +1.2155943e-12 </wgt>
<wgt id='1038'> +1.2109499e-12 </wgt>
<wgt id='1039'> +1.2478140e-12 </wgt>
<wgt id='1040'> +1.0754312e-12 </wgt>
<wgt id='1041'> +1.6758336e-12 </wgt>
<wgt id='1042'> +1.5854091e-12 </wgt>
<wgt id='1043'> +1.5739790e-12 </wgt>
<wgt id='1044'> +1.6936414e-12 </wgt>
<wgt id='1045'> +1.3170164e-12 </wgt>
<wgt id='1046'> +1.5538000e-12 </wgt>
<wgt id='1047'> +1.5887284e-12 </wgt>
<wgt id='1048'> +1.5308389e-12 </wgt>
<wgt id='1049'> +1.5671245e-12 </wgt>
<wgt id='1050'> +1.5421329e-12 </wgt>
<wgt id='1051'> +1.5600011e-12 </wgt>
<wgt id='1052'> +1.5679073e-12 </wgt>
<wgt id='1053'> +1.5358963e-12 </wgt>
<wgt id='1054'> +1.5116377e-12 </wgt>
<wgt id='1055'> +1.5390445e-12 </wgt>
<wgt id='1056'> +1.5771971e-12 </wgt>
<wgt id='1057'> +1.5909616e-12 </wgt>
<wgt id='1058'> +1.5164126e-12 </wgt>
<wgt id='1059'> +1.5393920e-12 </wgt>
<wgt id='1060'> +1.5554683e-12 </wgt>
<wgt id='1061'> +1.5730664e-12 </wgt>
<wgt id='1062'> +1.5781558e-12 </wgt>
<wgt id='1063'> +1.5945113e-12 </wgt>
<wgt id='1064'> +1.5432872e-12 </wgt>
<wgt id='1065'> +1.5323458e-12 </wgt>
<wgt id='1066'> +1.5264478e-12 </wgt>
<wgt id='1067'> +1.5104347e-12 </wgt>
<wgt id='1068'> +1.5455189e-12 </wgt>
<wgt id='1069'> +1.5506336e-12 </wgt>
<wgt id='1070'> +1.5006904e-12 </wgt>
<wgt id='1071'> +1.4841911e-12 </wgt>
<wgt id='1072'> +1.5666992e-12 </wgt>
<wgt id='1073'> +1.5618284e-12 </wgt>
<wgt id='1074'> +1.5455357e-12 </wgt>
<wgt id='1075'> +1.5838953e-12 </wgt>
<wgt id='1076'> +1.5864732e-12 </wgt>
<wgt id='1077'> +1.5886378e-12 </wgt>
<wgt id='1078'> +1.5415074e-12 </wgt>
<wgt id='1079'> +1.5337376e-12 </wgt>
<wgt id='1080'> +1.5185230e-12 </wgt>
<wgt id='1081'> +1.6060122e-12 </wgt>
<wgt id='1082'> +1.5142561e-12 </wgt>
<wgt id='1083'> +1.5647232e-12 </wgt>
<wgt id='1084'> +1.5376405e-12 </wgt>
<wgt id='1085'> +1.5761343e-12 </wgt>
<wgt id='1086'> +1.5555811e-12 </wgt>
<wgt id='1087'> +1.5616738e-12 </wgt>
<wgt id='1088'> +1.5368570e-12 </wgt>
<wgt id='1089'> +1.5765462e-12 </wgt>
<wgt id='1090'> +1.5628291e-12 </wgt>
<wgt id='1091'> +1.5706721e-12 </wgt>
<wgt id='1092'> +1.5751622e-12 </wgt>
<wgt id='1093'> +1.5252831e-12 </wgt>
<wgt id='1094'> +1.5230615e-12 </wgt>
<wgt id='1095'> +1.5947989e-12 </wgt>
<wgt id='1096'> +1.5972761e-12 </wgt>
<wgt id='1097'> +1.5738663e-12 </wgt>
<wgt id='1098'> +1.5076991e-12 </wgt>
<wgt id='1099'> +1.5567827e-12 </wgt>
<wgt id='1100'> +1.5698327e-12 </wgt>
<wgt id='1101'> +1.5370215e-12 </wgt>
<wgt id='1102'> +1.5502555e-12 </wgt>
<wgt id='1103'> +1.5645104e-12 </wgt>
<wgt id='1104'> +1.4972298e-12 </wgt>
<wgt id='1105'> +1.5862436e-12 </wgt>
<wgt id='1106'> +1.5734135e-12 </wgt>
<wgt id='1107'> +1.5427144e-12 </wgt>
<wgt id='1108'> +1.5377197e-12 </wgt>
<wgt id='1109'> +1.5635370e-12 </wgt>
<wgt id='1110'> +1.5380917e-12 </wgt>
<wgt id='1111'> +1.5412498e-12 </wgt>
<wgt id='1112'> +1.5994357e-12 </wgt>
<wgt id='1113'> +1.5762558e-12 </wgt>
<wgt id='1114'> +1.5747719e-12 </wgt>
<wgt id='1115'> +1.5192605e-12 </wgt>
<wgt id='1116'> +1.5201912e-12 </wgt>
<wgt id='1117'> +1.5704365e-12 </wgt>
<wgt id='1118'> +1.6692917e-12 </wgt>
<wgt id='1119'> +1.5133003e-12 </wgt>
<wgt id='1120'> +1.5593186e-12 </wgt>
<wgt id='1121'> +1.5655421e-12 </wgt>
<wgt id='1122'> +1.6244717e-12 </wgt>
<wgt id='1123'> +1.4909962e-12 </wgt>
<wgt id='1124'> +1.5563111e-12 </wgt>
<wgt id='1125'> +1.5359806e-12 </wgt>
<wgt id='1126'> +1.5860487e-12 </wgt>
<wgt id='1127'> +1.5161044e-12 </wgt>
<wgt id='1128'> +1.5781558e-12 </wgt>
<wgt id='1129'> +1.5688136e-12 </wgt>
<wgt id='1130'> +1.5480337e-12 </wgt>
<wgt id='1131'> +1.5915200e-12 </wgt>
<wgt id='1132'> +1.5474034e-12 </wgt>
<wgt id='1133'> +1.5533253e-12 </wgt>
<wgt id='1134'> +1.6011214e-12 </wgt>
<wgt id='1135'> +1.5223087e-12 </wgt>
<wgt id='1136'> +1.5422926e-12 </wgt>
<wgt id='1137'> +1.5197835e-12 </wgt>
<wgt id='1138'> +1.5671923e-12 </wgt>
<wgt id='1139'> +1.5550919e-12 </wgt>
<wgt id='1140'> +1.5758355e-12 </wgt>
<wgt id='1141'> +1.5225292e-12 </wgt>
<wgt id='1142'> +1.5390579e-12 </wgt>
<wgt id='1143'> +1.5574442e-12 </wgt>
<wgt id='1144'> +1.5583406e-12 </wgt>
<wgt id='1145'> +1.5132467e-12 </wgt>
<wgt id='1146'> +1.5322882e-12 </wgt>
<wgt id='1147'> +1.2947475e-12 </wgt>
<wgt id='1148'> +1.3080936e-12 </wgt>
<wgt id='1149'> +1.3788451e-12 </wgt>
<wgt id='1150'> +1.3286478e-12 </wgt>
<wgt id='1151'> +1.1665074e-12 </wgt>
<wgt id='1152'> +1.4322391e-12 </wgt>
<wgt id='1153'> +1.4253684e-12 </wgt>
<wgt id='1154'> +1.4362288e-12 </wgt>
<wgt id='1155'> +1.4317844e-12 </wgt>
<wgt id='1156'> +1.4325036e-12 </wgt>
<wgt id='1157'> +1.4339778e-12 </wgt>
<wgt id='1158'> +1.4298802e-12 </wgt>
<wgt id='1159'> +1.4337965e-12 </wgt>
<wgt id='1160'> +1.4312604e-12 </wgt>
<wgt id='1161'> +1.4301825e-12 </wgt>
<wgt id='1162'> +1.4336703e-12 </wgt>
<wgt id='1163'> +1.4366652e-12 </wgt>
<wgt id='1164'> +1.4278574e-12 </wgt>
<wgt id='1165'> +1.4272801e-12 </wgt>
<wgt id='1166'> +1.4368564e-12 </wgt>
<wgt id='1167'> +1.4288922e-12 </wgt>
<wgt id='1168'> +1.4340714e-12 </wgt>
<wgt id='1169'> +1.4309680e-12 </wgt>
<wgt id='1170'> +1.4331857e-12 </wgt>
<wgt id='1171'> +1.4305758e-12 </wgt>
<wgt id='1172'> +1.4340849e-12 </wgt>
<wgt id='1173'> +1.4305818e-12 </wgt>
<wgt id='1174'> +1.4328144e-12 </wgt>
<wgt id='1175'> +1.4285132e-12 </wgt>
<wgt id='1176'> +1.4344753e-12 </wgt>
<wgt id='1177'> +1.4337356e-12 </wgt>
<wgt id='1178'> +1.4283294e-12 </wgt>
<wgt id='1179'> +1.4448137e-12 </wgt>
<wgt id='1180'> +1.4156240e-12 </wgt>
<wgt id='1181'> +1.4234396e-12 </wgt>
<wgt id='1182'> +1.4409387e-12 </wgt>
<wgt id='1183'> +1.4334571e-12 </wgt>
<wgt id='1184'> +1.4321414e-12 </wgt>
<wgt id='1185'> +1.4286375e-12 </wgt>
<wgt id='1186'> +1.4345093e-12 </wgt>
<wgt id='1187'> +1.4313652e-12 </wgt>
<wgt id='1188'> +1.4325850e-12 </wgt>
<wgt id='1189'> +1.4342072e-12 </wgt>
<wgt id='1190'> +1.4222231e-12 </wgt>
<wgt id='1191'> +1.4189383e-12 </wgt>
<wgt id='1192'> +1.4371979e-12 </wgt>
<wgt id='1193'> +1.3371974e-12 </wgt>
<wgt id='1194'> +1.3400757e-12 </wgt>
<wgt id='1195'> +1.3348097e-12 </wgt>
<wgt id='1196'> +1.3435271e-12 </wgt>
<wgt id='1197'> +1.3301546e-12 </wgt>
<wgt id='1198'> +1.3368744e-12 </wgt>
<wgt id='1199'> +1.3376623e-12 </wgt>
<wgt id='1200'> +1.3388686e-12 </wgt>
<wgt id='1201'> +1.3360699e-12 </wgt>
<wgt id='1202'> +1.3359457e-12 </wgt>
<wgt id='1203'> +1.3389765e-12 </wgt>
<wgt id='1204'> +1.3297180e-12 </wgt>
<wgt id='1205'> +1.3418182e-12 </wgt>
<wgt id='1206'> +1.3402640e-12 </wgt>
<wgt id='1207'> +1.3330516e-12 </wgt>
<wgt id='1208'> +1.3305287e-12 </wgt>
<wgt id='1209'> +1.3395533e-12 </wgt>
<wgt id='1210'> +1.3454467e-12 </wgt>
<wgt id='1211'> +1.3238972e-12 </wgt>
<wgt id='1212'> +1.3364750e-12 </wgt>
<wgt id='1213'> +1.3378075e-12 </wgt>
<wgt id='1214'> +1.3302228e-12 </wgt>
<wgt id='1215'> +1.3486190e-12 </wgt>
<wgt id='1216'> +1.3400052e-12 </wgt>
<wgt id='1217'> +1.3350183e-12 </wgt>
<wgt id='1218'> +1.3386874e-12 </wgt>
<wgt id='1219'> +1.3363272e-12 </wgt>
<wgt id='1220'> +1.3375973e-12 </wgt>
<wgt id='1221'> +1.3381796e-12 </wgt>
<wgt id='1222'> +1.3306884e-12 </wgt>
<wgt id='1223'> +1.3458583e-12 </wgt>
<wgt id='1224'> +1.3381441e-12 </wgt>
<wgt id='1225'> +1.3368172e-12 </wgt>
<wgt id='1226'> +1.3355395e-12 </wgt>
<wgt id='1227'> +1.3383533e-12 </wgt>
<wgt id='1228'> +1.3315529e-12 </wgt>
<wgt id='1229'> +1.3395227e-12 </wgt>
<wgt id='1230'> +1.3394083e-12 </wgt>
<wgt id='1231'> +1.3211659e-12 </wgt>
<wgt id='1232'> +1.3352897e-12 </wgt>
<wgt id='1233'> +1.3376441e-12 </wgt>
<wgt id='1234'> +1.3371974e-12 </wgt>
<wgt id='1235'> +1.3309667e-12 </wgt>
<wgt id='1236'> +1.3333021e-12 </wgt>
<wgt id='1237'> +1.3353833e-12 </wgt>
<wgt id='1238'> +1.3390204e-12 </wgt>
<wgt id='1239'> +1.3405086e-12 </wgt>
<wgt id='1240'> +1.3418645e-12 </wgt>
<wgt id='1241'> +1.3265990e-12 </wgt>
<wgt id='1242'> +1.3276925e-12 </wgt>
<wgt id='1243'> +1.3255519e-12 </wgt>
<wgt id='1244'> +1.3182124e-12 </wgt>
<wgt id='1245'> +1.3327942e-12 </wgt>
<wgt id='1246'> +1.3271960e-12 </wgt>
<wgt id='1247'> +1.3260908e-12 </wgt>
<wgt id='1248'> +1.3265038e-12 </wgt>
<wgt id='1249'> +1.3267039e-12 </wgt>
<wgt id='1250'> +1.3287888e-12 </wgt>
<wgt id='1251'> +1.3250594e-12 </wgt>
<wgt id='1252'> +1.3245584e-12 </wgt>
<wgt id='1253'> +1.3282110e-12 </wgt>
<wgt id='1254'> +1.3180776e-12 </wgt>
<wgt id='1255'> +1.3317127e-12 </wgt>
<wgt id='1256'> +1.3301776e-12 </wgt>
<wgt id='1257'> +1.3174748e-12 </wgt>
<wgt id='1258'> +1.3386283e-12 </wgt>
<wgt id='1259'> +1.3164755e-12 </wgt>
<wgt id='1260'> +1.3283574e-12 </wgt>
<wgt id='1261'> +1.3246722e-12 </wgt>
<wgt id='1262'> +1.3254767e-12 </wgt>
<wgt id='1263'> +1.3268308e-12 </wgt>
<wgt id='1264'> +1.3265927e-12 </wgt>
<wgt id='1265'> +1.3264355e-12 </wgt>
<wgt id='1266'> +1.3294375e-12 </wgt>
<wgt id='1267'> +1.3237695e-12 </wgt>
<wgt id='1268'> +1.3254548e-12 </wgt>
<wgt id='1269'> +1.3303154e-12 </wgt>
<wgt id='1270'> +1.3252124e-12 </wgt>
<wgt id='1271'> +1.3225115e-12 </wgt>
<wgt id='1272'> +1.3268915e-12 </wgt>
<wgt id='1273'> +1.3262015e-12 </wgt>
<wgt id='1274'> +1.3284698e-12 </wgt>
<wgt id='1275'> +1.3232583e-12 </wgt>
<wgt id='1276'> +1.3289877e-12 </wgt>
<wgt id='1277'> +1.3221271e-12 </wgt>
<wgt id='1278'> +1.3224404e-12 </wgt>
<wgt id='1279'> +1.3183601e-12 </wgt>
<wgt id='1280'> +1.3272569e-12 </wgt>
<wgt id='1281'> +1.3205384e-12 </wgt>
<wgt id='1282'> +1.3265990e-12 </wgt>
<wgt id='1283'> +1.3197796e-12 </wgt>
<wgt id='1284'> +1.3223354e-12 </wgt>
<wgt id='1285'> +1.3246494e-12 </wgt>
<wgt id='1286'> +1.3283502e-12 </wgt>
<wgt id='1287'> +1.3299419e-12 </wgt>
<wgt id='1288'> +1.3312548e-12 </wgt>
<wgt id='1289'> +1.4008522e-12 </wgt>
<wgt id='1290'> +1.4003673e-12 </wgt>
<wgt id='1291'> +1.4013758e-12 </wgt>
<wgt id='1292'> +1.3959325e-12 </wgt>
<wgt id='1293'> +1.4043722e-12 </wgt>
<wgt id='1294'> +1.4024951e-12 </wgt>
<wgt id='1295'> +1.3992903e-12 </wgt>
<wgt id='1296'> +1.3950799e-12 </wgt>
<wgt id='1297'> +1.4079350e-12 </wgt>
<wgt id='1298'> +1.4033865e-12 </wgt>
<wgt id='1299'> +1.3976597e-12 </wgt>
<wgt id='1300'> +1.4026014e-12 </wgt>
<wgt id='1301'> +1.3973092e-12 </wgt>
<wgt id='1302'> +1.4001076e-12 </wgt>
<wgt id='1303'> +1.4018783e-12 </wgt>
<wgt id='1304'> +1.3994162e-12 </wgt>
<wgt id='1305'> +1.4018080e-12 </wgt>
<wgt id='1306'> +1.3961951e-12 </wgt>
<wgt id='1307'> +1.4061796e-12 </wgt>
<wgt id='1308'> +1.4046474e-12 </wgt>
<wgt id='1309'> +1.3979534e-12 </wgt>
<wgt id='1310'> +1.4010631e-12 </wgt>
<wgt id='1311'> +1.4007020e-12 </wgt>
<wgt id='1312'> +1.3983809e-12 </wgt>
<wgt id='1313'> +1.4033431e-12 </wgt>
<wgt id='1314'> +1.4118080e-12 </wgt>
<wgt id='1315'> +1.3863902e-12 </wgt>
<wgt id='1316'> +1.4052385e-12 </wgt>
<wgt id='1317'> +1.3997935e-12 </wgt>
<wgt id='1318'> +1.4045615e-12 </wgt>
<wgt id='1319'> +1.3963584e-12 </wgt>
<wgt id='1320'> +1.4003489e-12 </wgt>
<wgt id='1321'> +1.4008602e-12 </wgt>
<wgt id='1322'> +1.4007284e-12 </wgt>
<wgt id='1323'> +1.4006803e-12 </wgt>
<wgt id='1324'> +1.3983919e-12 </wgt>
<wgt id='1325'> +1.4092656e-12 </wgt>
<wgt id='1326'> +1.3999716e-12 </wgt>
<wgt id='1327'> +1.4025664e-12 </wgt>
<wgt id='1328'> +1.4007253e-12 </wgt>
<wgt id='1329'> +1.4008962e-12 </wgt>
<wgt id='1330'> +1.3811404e-12 </wgt>
<wgt id='1331'> +1.4175429e-12 </wgt>
<wgt id='1332'> +1.4173576e-12 </wgt>
<wgt id='1333'> +1.3876237e-12 </wgt>
<wgt id='1334'> +1.3969385e-12 </wgt>
<wgt id='1335'> +1.4108979e-12 </wgt>
<wgt id='1336'> +1.4044255e-12 </wgt>
<wgt id='1337'> +1.3832398e-12 </wgt>
<wgt id='1338'> +1.4019863e-12 </wgt>
<wgt id='1339'> +1.3993236e-12 </wgt>
<wgt id='1340'> +1.3825464e-12 </wgt>
<wgt id='1341'> +1.3822836e-12 </wgt>
<wgt id='1342'> +1.3828613e-12 </wgt>
<wgt id='1343'> +1.3775249e-12 </wgt>
<wgt id='1344'> +1.3859655e-12 </wgt>
<wgt id='1345'> +1.3843972e-12 </wgt>
<wgt id='1346'> +1.3808643e-12 </wgt>
<wgt id='1347'> +1.3766757e-12 </wgt>
<wgt id='1348'> +1.3891091e-12 </wgt>
<wgt id='1349'> +1.3847204e-12 </wgt>
<wgt id='1350'> +1.3803922e-12 </wgt>
<wgt id='1351'> +1.3843458e-12 </wgt>
<wgt id='1352'> +1.3786854e-12 </wgt>
<wgt id='1353'> +1.3815087e-12 </wgt>
<wgt id='1354'> +1.3844344e-12 </wgt>
<wgt id='1355'> +1.3811334e-12 </wgt>
<wgt id='1356'> +1.3833429e-12 </wgt>
<wgt id='1357'> +1.3786893e-12 </wgt>
<wgt id='1358'> +1.3872427e-12 </wgt>
<wgt id='1359'> +1.3878540e-12 </wgt>
<wgt id='1360'> +1.3779941e-12 </wgt>
<wgt id='1361'> +1.3822238e-12 </wgt>
<wgt id='1362'> +1.3831312e-12 </wgt>
<wgt id='1363'> +1.3776390e-12 </wgt>
<wgt id='1364'> +1.3859198e-12 </wgt>
<wgt id='1365'> +1.3711120e-12 </wgt>
<wgt id='1366'> +1.3928241e-12 </wgt>
<wgt id='1367'> +1.3865216e-12 </wgt>
<wgt id='1368'> +1.3817231e-12 </wgt>
<wgt id='1369'> +1.3858488e-12 </wgt>
<wgt id='1370'> +1.3785932e-12 </wgt>
<wgt id='1371'> +1.3814108e-12 </wgt>
<wgt id='1372'> +1.3835521e-12 </wgt>
<wgt id='1373'> +1.3828263e-12 </wgt>
<wgt id='1374'> +1.3818611e-12 </wgt>
<wgt id='1375'> +1.3801729e-12 </wgt>
<wgt id='1376'> +1.3913622e-12 </wgt>
<wgt id='1377'> +1.3820088e-12 </wgt>
<wgt id='1378'> +1.3842646e-12 </wgt>
<wgt id='1379'> +1.3820321e-12 </wgt>
<wgt id='1380'> +1.3830878e-12 </wgt>
<wgt id='1381'> +1.3626711e-12 </wgt>
<wgt id='1382'> +1.3976010e-12 </wgt>
<wgt id='1383'> +1.4001333e-12 </wgt>
<wgt id='1384'> +1.3680967e-12 </wgt>
<wgt id='1385'> +1.3786154e-12 </wgt>
<wgt id='1386'> +1.3921351e-12 </wgt>
<wgt id='1387'> +1.3870465e-12 </wgt>
<wgt id='1388'> +1.3628912e-12 </wgt>
<wgt id='1389'> +1.3844045e-12 </wgt>
<wgt id='1390'> +1.3799802e-12 </wgt>
<wgt id='1391'> +1.3549158e-12 </wgt>
<wgt id='1392'> +1.3306392e-12 </wgt>
<wgt id='1393'> +1.3383236e-12 </wgt>
<wgt id='1394'> +1.3473235e-12 </wgt>
<wgt id='1395'> +1.3620725e-12 </wgt>
<wgt id='1396'> +1.3552423e-12 </wgt>
<wgt id='1397'> +1.3245277e-12 </wgt>
<wgt id='1398'> +1.3317707e-12 </wgt>
<wgt id='1399'> +1.3378919e-12 </wgt>
<wgt id='1400'> +1.3436938e-12 </wgt>
<wgt id='1401'> +1.3496506e-12 </wgt>
<wgt id='1402'> +1.3603536e-12 </wgt>
<wgt id='1403'> +1.3649140e-12 </wgt>
<wgt id='1404'> +1.3688403e-12 </wgt>
<wgt id='1405'> +1.3552423e-12 </wgt>
<wgt id='1406'> +1.3526977e-12 </wgt>
<wgt id='1407'> +1.3541916e-12 </wgt>
<wgt id='1408'> +1.3563870e-12 </wgt>
<wgt id='1409'> +1.3578377e-12 </wgt>
<wgt id='1410'> +1.3562398e-12 </wgt>
<wgt id='1411'> +1.3548310e-12 </wgt>
<wgt id='1412'> +1.3580682e-12 </wgt>
<wgt id='1413'> +1.3608292e-12 </wgt>
<wgt id='1414'> +1.3516708e-12 </wgt>
<wgt id='1415'> +1.3506264e-12 </wgt>
<wgt id='1416'> +1.3585012e-12 </wgt>
<wgt id='1417'> +1.3501942e-12 </wgt>
<wgt id='1418'> +1.3622956e-12 </wgt>
<wgt id='1419'> +1.3571600e-12 </wgt>
<wgt id='1420'> +1.3553446e-12 </wgt>
<wgt id='1421'> +1.3499095e-12 </wgt>
<wgt id='1422'> +1.3589983e-12 </wgt>
<wgt id='1423'> +1.3559106e-12 </wgt>
<wgt id='1424'> +1.3566303e-12 </wgt>
<wgt id='1425'> +1.3544976e-12 </wgt>
<wgt id='1426'> +1.3580988e-12 </wgt>
<wgt id='1427'> +1.3601487e-12 </wgt>
<wgt id='1428'> +1.3540547e-12 </wgt>
<wgt id='1429'> +1.3523593e-12 </wgt>
<wgt id='1430'> +1.3614852e-12 </wgt>
<wgt id='1431'> +1.3556419e-12 </wgt>
<wgt id='1432'> +1.3566283e-12 </wgt>
<wgt id='1433'> +1.3668877e-12 </wgt>
<wgt id='1434'> +1.3460645e-12 </wgt>
<wgt id='1435'> +1.3603664e-12 </wgt>
<wgt id='1436'> +1.3459214e-12 </wgt>
<wgt id='1437'> +1.3607005e-12 </wgt>
<wgt id='1438'> +1.3538594e-12 </wgt>
<wgt id='1439'> +1.3528893e-12 </wgt>
<wgt id='1440'> +1.3649512e-12 </wgt>
<wgt id='1441'> +1.3558664e-12 </wgt>
<wgt id='1442'> +1.3575179e-12 </wgt>
<wgt id='1443'> +1.3542684e-12 </wgt>
<wgt id='1444'> +1.3603409e-12 </wgt>
<wgt id='1445'> +1.3639134e-12 </wgt>
<wgt id='1446'> +1.3533325e-12 </wgt>
<wgt id='1447'> +1.3555708e-12 </wgt>
<wgt id='1448'> +1.3577406e-12 </wgt>
<wgt id='1449'> +1.3556731e-12 </wgt>
<wgt id='1450'> +1.3565923e-12 </wgt>
<wgt id='1451'> +1.3627233e-12 </wgt>
<wgt id='1452'> +1.3373801e-12 </wgt>
<wgt id='1453'> +1.3580853e-12 </wgt>
<wgt id='1454'> +1.3437827e-12 </wgt>
<wgt id='1455'> +1.3349930e-12 </wgt>
<wgt id='1456'> +1.3668963e-12 </wgt>
<wgt id='1457'> +1.3648541e-12 </wgt>
<wgt id='1458'> +1.3519523e-12 </wgt>
<wgt id='1459'> +1.3526242e-12 </wgt>
<wgt id='1460'> +1.3538370e-12 </wgt>
<wgt id='1461'> +1.3562398e-12 </wgt>
<wgt id='1462'> +1.3486641e-12 </wgt>
<wgt id='1463'> +1.3626999e-12 </wgt>
<wgt id='1464'> +1.3560161e-12 </wgt>
<wgt id='1465'> +1.3338711e-12 </wgt>
<wgt id='1466'> +1.3393979e-12 </wgt>
<wgt id='1467'> +1.3446789e-12 </wgt>
<wgt id='1468'> +1.3476964e-12 </wgt>
<wgt id='1469'> +1.3523167e-12 </wgt>
<wgt id='1470'> +1.3596995e-12 </wgt>
<wgt id='1471'> +1.3615311e-12 </wgt>
<wgt id='1472'> +1.3649821e-12 </wgt>
<wgt id='1473'> +1.3560161e-12 </wgt>
<wgt id='1474'> +1.3531340e-12 </wgt>
<wgt id='1475'> +1.3537394e-12 </wgt>
<wgt id='1476'> +1.3573368e-12 </wgt>
<wgt id='1477'> +1.3587226e-12 </wgt>
<wgt id='1478'> +1.3283371e-12 </wgt>
<wgt id='1479'> +1.3264579e-12 </wgt>
<wgt id='1480'> +1.3386415e-12 </wgt>
<wgt id='1481'> +1.3228259e-12 </wgt>
<wgt id='1482'> +1.3270738e-12 </wgt>
<wgt id='1483'> +1.3159880e-12 </wgt>
<wgt id='1484'> +1.3306108e-12 </wgt>
<wgt id='1485'> +1.3254615e-12 </wgt>
<wgt id='1486'> +1.3289191e-12 </wgt>
<wgt id='1487'> +1.3251555e-12 </wgt>
<wgt id='1488'> +1.3254039e-12 </wgt>
<wgt id='1489'> +1.3464361e-12 </wgt>
<wgt id='1490'> +1.3272222e-12 </wgt>
<wgt id='1491'> +1.3255873e-12 </wgt>
<wgt id='1492'> +1.3295994e-12 </wgt>
<wgt id='1493'> +1.3331247e-12 </wgt>
<wgt id='1494'> +1.3410696e-12 </wgt>
<wgt id='1495'> +1.3256014e-12 </wgt>
<wgt id='1496'> +1.3270541e-12 </wgt>
<wgt id='1497'> +1.3312371e-12 </wgt>
<wgt id='1498'> +1.3267949e-12 </wgt>
<wgt id='1499'> +1.3286970e-12 </wgt>
<wgt id='1500'> +1.3272224e-12 </wgt>
<wgt id='1501'> +1.3288171e-12 </wgt>
<wgt id='1502'> +1.3309935e-12 </wgt>
<wgt id='1503'> +1.3267108e-12 </wgt>
<wgt id='1504'> +1.3293300e-12 </wgt>
<wgt id='1505'> +1.3255095e-12 </wgt>
<wgt id='1506'> +1.3270620e-12 </wgt>
<wgt id='1507'> +1.3264542e-12 </wgt>
<wgt id='1508'> +1.3364167e-12 </wgt>
<wgt id='1509'> +1.3818364e-12 </wgt>
<wgt id='1510'> +1.3809851e-12 </wgt>
<wgt id='1511'> +1.3840711e-12 </wgt>
<wgt id='1512'> +1.3836156e-12 </wgt>
<wgt id='1513'> +1.3873048e-12 </wgt>
<wgt id='1514'> +1.3802705e-12 </wgt>
<wgt id='1515'> +1.3766906e-12 </wgt>
<wgt id='1516'> +1.3754472e-12 </wgt>
<wgt id='1517'> +1.3747657e-12 </wgt>
<wgt id='1518'> +1.3892294e-12 </wgt>
<wgt id='1519'> +1.3782108e-12 </wgt>
<wgt id='1520'> +1.3794894e-12 </wgt>
<wgt id='1521'> +1.3877759e-12 </wgt>
<wgt id='1522'> +1.3847394e-12 </wgt>
<wgt id='1523'> +1.3945082e-12 </wgt>
<wgt id='1524'> +1.3871381e-12 </wgt>
<wgt id='1525'> +1.3869689e-12 </wgt>
<wgt id='1526'> +1.3784623e-12 </wgt>
<wgt id='1527'> +1.3831869e-12 </wgt>
<wgt id='1528'> +1.3837156e-12 </wgt>
<wgt id='1529'> +1.3881000e-12 </wgt>
<wgt id='1530'> +1.3847568e-12 </wgt>
<wgt id='1531'> +1.3876356e-12 </wgt>
<wgt id='1532'> +1.3796865e-12 </wgt>
<wgt id='1533'> +1.3818667e-12 </wgt>
<wgt id='1534'> +1.3902605e-12 </wgt>
<wgt id='1535'> +1.3752771e-12 </wgt>
<wgt id='1536'> +1.3773331e-12 </wgt>
<wgt id='1537'> +1.3775131e-12 </wgt>
<wgt id='1538'> +1.3836668e-12 </wgt>
<wgt id='1539'> +1.3908282e-12 </wgt>
<wgt id='1540'> +1.3845581e-12 </wgt>
<wgt id='1541'> +1.3825311e-12 </wgt>
<wgt id='1542'> +1.3802705e-12 </wgt>
<wgt id='1543'> +1.3807495e-12 </wgt>
<wgt id='1544'> +1.3811306e-12 </wgt>
<wgt id='1545'> +1.3820235e-12 </wgt>
<wgt id='1546'> +1.3797235e-12 </wgt>
<wgt id='1547'> +1.3826193e-12 </wgt>
<wgt id='1548'> +1.3817258e-12 </wgt>
<wgt id='1549'> +1.3802820e-12 </wgt>
<wgt id='1550'> +1.3834707e-12 </wgt>
<wgt id='1551'> +1.3831699e-12 </wgt>
<wgt id='1552'> +1.3825857e-12 </wgt>
<wgt id='1553'> +1.3830839e-12 </wgt>
<wgt id='1554'> +1.3850041e-12 </wgt>
<wgt id='1555'> +1.3844948e-12 </wgt>
<wgt id='1556'> +1.3816996e-12 </wgt>
<wgt id='1557'> +1.3833301e-12 </wgt>
<wgt id='1558'> +1.3818263e-12 </wgt>
<wgt id='1559'> +1.3824034e-12 </wgt>
<wgt id='1560'> +1.3840890e-12 </wgt>
<wgt id='1561'> +1.3798946e-12 </wgt>
<wgt id='1562'> +1.3803970e-12 </wgt>
<wgt id='1563'> +1.3824264e-12 </wgt>
<wgt id='1564'> +1.3791799e-12 </wgt>
<wgt id='1565'> +1.3828924e-12 </wgt>
<wgt id='1566'> +1.3811352e-12 </wgt>
<wgt id='1567'> +1.3824362e-12 </wgt>
<wgt id='1568'> +1.3815901e-12 </wgt>
<wgt id='1569'> +1.3814929e-12 </wgt>
<wgt id='1570'> +1.3807564e-12 </wgt>
<wgt id='1571'> +1.3823782e-12 </wgt>
<wgt id='1572'> +1.3796495e-12 </wgt>
<wgt id='1573'> +1.3803033e-12 </wgt>
<wgt id='1574'> +1.3821773e-12 </wgt>
<wgt id='1575'> +1.3832271e-12 </wgt>
<wgt id='1576'> +1.3815618e-12 </wgt>
<wgt id='1577'> +1.3810449e-12 </wgt>
<wgt id='1578'> +1.3812488e-12 </wgt>
<wgt id='1579'> +1.3812504e-12 </wgt>
<wgt id='1580'> +1.3824985e-12 </wgt>
<wgt id='1581'> +1.3820629e-12 </wgt>
<wgt id='1582'> +1.3808723e-12 </wgt>
<wgt id='1583'> +1.3813311e-12 </wgt>
<wgt id='1584'> +1.3825981e-12 </wgt>
<wgt id='1585'> +1.3807220e-12 </wgt>
<wgt id='1586'> +1.3817656e-12 </wgt>
<wgt id='1587'> +1.3827894e-12 </wgt>
<wgt id='1588'> +1.3822323e-12 </wgt>
<wgt id='1589'> +1.3825250e-12 </wgt>
<wgt id='1590'> +1.3818458e-12 </wgt>
<wgt id='1591'> +1.3826209e-12 </wgt>
<wgt id='1592'> +1.3809583e-12 </wgt>
<wgt id='1593'> +1.3823140e-12 </wgt>
<wgt id='1594'> +1.3824675e-12 </wgt>
<wgt id='1595'> +1.3820903e-12 </wgt>
<wgt id='1596'> +1.3825372e-12 </wgt>
<wgt id='1597'> +1.3811544e-12 </wgt>
<wgt id='1598'> +1.3817097e-12 </wgt>
<wgt id='1599'> +1.3827486e-12 </wgt>
<wgt id='1600'> +1.3817376e-12 </wgt>
<wgt id='1601'> +1.3821246e-12 </wgt>
<wgt id='1602'> +1.3817026e-12 </wgt>
<wgt id='1603'> +1.3826119e-12 </wgt>
<wgt id='1604'> +1.3821503e-12 </wgt>
<wgt id='1605'> +1.3820055e-12 </wgt>
<wgt id='1606'> +1.3811732e-12 </wgt>
<wgt id='1607'> +1.3820058e-12 </wgt>
<wgt id='1608'> +1.3814328e-12 </wgt>
<wgt id='1609'> +1.3817308e-12 </wgt>
<wgt id='1610'> +1.3573958e-12 </wgt>
<wgt id='1611'> +1.4025585e-12 </wgt>
<wgt id='1612'> +1.5297800e-12 </wgt>
<wgt id='1613'> +1.5184782e-12 </wgt>
<wgt id='1614'> +1.5412041e-12 </wgt>
<wgt id='1615'> +1.5060890e-12 </wgt>
<wgt id='1616'> +1.5688150e-12 </wgt>
<wgt id='1617'> +1.5621958e-12 </wgt>
<wgt id='1618'> +1.5604360e-12 </wgt>
<wgt id='1619'> +1.5611719e-12 </wgt>
<wgt id='1620'> +1.4959264e-12 </wgt>
<wgt id='1621'> +1.5628204e-12 </wgt>
<wgt id='1622'> +1.5521276e-12 </wgt>
<wgt id='1623'> +1.5577475e-12 </wgt>
<wgt id='1624'> +1.5233587e-12 </wgt>
<wgt id='1625'> +1.5210790e-12 </wgt>
<wgt id='1626'> +1.4986783e-12 </wgt>
<wgt id='1627'> +1.5322152e-12 </wgt>
<wgt id='1628'> +1.5596672e-12 </wgt>
<wgt id='1629'> +1.6365129e-12 </wgt>
<wgt id='1630'> +1.5388683e-12 </wgt>
<wgt id='1631'> +1.5024401e-12 </wgt>
<wgt id='1632'> +1.4691293e-12 </wgt>
<wgt id='1633'> +1.4905599e-12 </wgt>
<wgt id='1634'> +1.5684596e-12 </wgt>
<wgt id='1635'> +1.5472117e-12 </wgt>
<wgt id='1636'> +1.5731217e-12 </wgt>
<wgt id='1637'> +1.4791742e-12 </wgt>
<wgt id='1638'> +1.5508819e-12 </wgt>
<wgt id='1639'> +1.5538447e-12 </wgt>
<wgt id='1640'> +1.5323557e-12 </wgt>
<wgt id='1641'> +1.5179597e-12 </wgt>
<wgt id='1642'> +1.5067984e-12 </wgt>
<wgt id='1643'> +1.5417180e-12 </wgt>
<wgt id='1644'> +1.4603597e-12 </wgt>
<wgt id='1645'> +1.5349237e-12 </wgt>
<wgt id='1646'> +1.5050005e-12 </wgt>
<wgt id='1647'> +1.5027532e-12 </wgt>
<wgt id='1648'> +1.5508591e-12 </wgt>
<wgt id='1649'> +1.5502634e-12 </wgt>
<wgt id='1650'> +1.5084362e-12 </wgt>
<wgt id='1651'> +1.5168000e-12 </wgt>
<wgt id='1652'> +1.4993475e-12 </wgt>
<wgt id='1653'> +1.5481557e-12 </wgt>
<wgt id='1654'> +1.5497234e-12 </wgt>
<wgt id='1655'> +1.5086636e-12 </wgt>
<wgt id='1656'> +1.4481846e-12 </wgt>
<wgt id='1657'> +1.5038496e-12 </wgt>
<wgt id='1658'> +1.5257675e-12 </wgt>
<wgt id='1659'> +1.5233587e-12 </wgt>
<wgt id='1660'> +1.5442534e-12 </wgt>
<wgt id='1661'> +1.4958970e-12 </wgt>
<wgt id='1662'> +1.5088672e-12 </wgt>
<wgt id='1663'> +1.5289830e-12 </wgt>
<wgt id='1664'> +1.5113146e-12 </wgt>
<wgt id='1665'> +1.4894624e-12 </wgt>
<wgt id='1666'> +1.5306425e-12 </wgt>
<wgt id='1667'> +1.5220761e-12 </wgt>
<wgt id='1668'> +1.5801930e-12 </wgt>
<wgt id='1669'> +1.4920615e-12 </wgt>
<wgt id='1670'> +1.5352688e-12 </wgt>
<wgt id='1671'> +1.4742125e-12 </wgt>
<wgt id='1672'> +1.5341006e-12 </wgt>
<wgt id='1673'> +1.5130153e-12 </wgt>
<wgt id='1674'> +1.5105445e-12 </wgt>
<wgt id='1675'> +1.5268068e-12 </wgt>
<wgt id='1676'> +1.5608653e-12 </wgt>
<wgt id='1677'> +1.5748905e-12 </wgt>
<wgt id='1678'> +1.5284278e-12 </wgt>
<wgt id='1679'> +1.5632308e-12 </wgt>
<wgt id='1680'> +1.5344257e-12 </wgt>
<wgt id='1681'> +1.5537367e-12 </wgt>
<wgt id='1682'> +1.5484549e-12 </wgt>
<wgt id='1683'> +1.5136581e-12 </wgt>
<wgt id='1684'> +1.5012098e-12 </wgt>
<wgt id='1685'> +1.5164723e-12 </wgt>
<wgt id='1686'> +1.5262333e-12 </wgt>
<wgt id='1687'> +1.5673422e-12 </wgt>
<wgt id='1688'> +1.5076598e-12 </wgt>
<wgt id='1689'> +1.5248784e-12 </wgt>
<wgt id='1690'> +1.5903536e-12 </wgt>
<wgt id='1691'> +1.5890634e-12 </wgt>
<wgt id='1692'> +1.5563797e-12 </wgt>
<wgt id='1693'> +1.5356139e-12 </wgt>
<wgt id='1694'> +1.4781297e-12 </wgt>
<wgt id='1695'> +1.5702959e-12 </wgt>
<wgt id='1696'> +1.5531793e-12 </wgt>
<wgt id='1697'> +1.5665514e-12 </wgt>
<wgt id='1698'> +1.5199953e-12 </wgt>
<wgt id='1699'> +1.5563624e-12 </wgt>
<wgt id='1700'> +1.5252830e-12 </wgt>
<wgt id='1701'> +1.5124791e-12 </wgt>
<wgt id='1702'> +1.5223797e-12 </wgt>
<wgt id='1703'> +1.5591303e-12 </wgt>
<wgt id='1704'> +1.4809145e-12 </wgt>
<wgt id='1705'> +1.4987698e-12 </wgt>
<wgt id='1706'> +1.5401116e-12 </wgt>
<wgt id='1707'> +1.5336430e-12 </wgt>
<wgt id='1708'> +1.4918396e-12 </wgt>
<wgt id='1709'> +1.5087636e-12 </wgt>
<wgt id='1710'> +1.5063356e-12 </wgt>
<wgt id='1711'> +1.5707135e-12 </wgt>
<wgt id='1712'> +1.5271197e-12 </wgt>
<wgt id='1713'> +1.3228319e-12 </wgt>
<wgt id='1714'> +1.3183414e-12 </wgt>
<wgt id='1715'> +1.3273662e-12 </wgt>
<wgt id='1716'> +1.3261789e-12 </wgt>
<wgt id='1717'> +1.3254263e-12 </wgt>
<wgt id='1718'> +1.3171403e-12 </wgt>
<wgt id='1719'> +1.3436807e-12 </wgt>
<wgt id='1720'> +1.3358994e-12 </wgt>
<wgt id='1721'> +1.3047218e-12 </wgt>
<wgt id='1722'> +1.3096098e-12 </wgt>
<wgt id='1723'> +1.2419302e-12 </wgt>
<wgt id='1724'> +1.2687358e-12 </wgt>
<wgt id='1725'> +1.3369041e-12 </wgt>
<wgt id='1726'> +1.3852502e-12 </wgt>
<wgt id='1727'> +1.2734971e-12 </wgt>
<wgt id='1728'> +1.3225709e-12 </wgt>
<wgt id='1729'> +1.3235395e-12 </wgt>
<wgt id='1730'> +1.3032346e-12 </wgt>
<wgt id='1731'> +1.2978001e-12 </wgt>
<wgt id='1732'> +1.3656279e-12 </wgt>
<wgt id='1733'> +1.3706605e-12 </wgt>
<wgt id='1734'> +1.3415220e-12 </wgt>
<wgt id='1735'> +1.2868588e-12 </wgt>
<wgt id='1736'> +1.3943855e-12 </wgt>
<wgt id='1737'> +1.3511794e-12 </wgt>
<wgt id='1738'> +1.3489454e-12 </wgt>
<wgt id='1739'> +1.2898431e-12 </wgt>
<wgt id='1740'> +1.3236943e-12 </wgt>
<wgt id='1741'> +1.3301795e-12 </wgt>
<wgt id='1742'> +1.3314654e-12 </wgt>
<wgt id='1743'> +1.3486826e-12 </wgt>
<wgt id='1744'> +1.3429122e-12 </wgt>
<wgt id='1745'> +1.2380077e-12 </wgt>
<wgt id='1746'> +1.3230862e-12 </wgt>
<wgt id='1747'> +1.3150570e-12 </wgt>
<wgt id='1748'> +1.3178729e-12 </wgt>
<wgt id='1749'> +1.3637335e-12 </wgt>
<wgt id='1750'> +1.3462498e-12 </wgt>
<wgt id='1751'> +1.3207376e-12 </wgt>
<wgt id='1752'> +1.3233887e-12 </wgt>
<wgt id='1753'> +1.3368196e-12 </wgt>
<wgt id='1754'> +1.3576429e-12 </wgt>
<wgt id='1755'> +1.3502356e-12 </wgt>
<wgt id='1756'> +1.3349570e-12 </wgt>
<wgt id='1757'> +1.2912853e-12 </wgt>
<wgt id='1758'> +1.3084866e-12 </wgt>
<wgt id='1759'> +1.3595459e-12 </wgt>
<wgt id='1760'> +1.2924758e-12 </wgt>
<wgt id='1761'> +1.3134842e-12 </wgt>
<wgt id='1762'> +1.3098037e-12 </wgt>
<wgt id='1763'> +1.3392186e-12 </wgt>
<wgt id='1764'> +1.3048088e-12 </wgt>
<wgt id='1765'> +1.3031602e-12 </wgt>
<wgt id='1766'> +1.3041325e-12 </wgt>
<wgt id='1767'> +1.3324851e-12 </wgt>
<wgt id='1768'> +1.3239086e-12 </wgt>
<wgt id='1769'> +1.2914486e-12 </wgt>
<wgt id='1770'> +1.3565289e-12 </wgt>
<wgt id='1771'> +1.3154153e-12 </wgt>
<wgt id='1772'> +1.3532480e-12 </wgt>
<wgt id='1773'> +1.3205596e-12 </wgt>
<wgt id='1774'> +1.3314409e-12 </wgt>
<wgt id='1775'> +1.3334198e-12 </wgt>
<wgt id='1776'> +1.3528503e-12 </wgt>
<wgt id='1777'> +1.2463495e-12 </wgt>
<wgt id='1778'> +1.3216345e-12 </wgt>
<wgt id='1779'> +1.3309317e-12 </wgt>
<wgt id='1780'> +1.3377353e-12 </wgt>
<wgt id='1781'> +1.3151112e-12 </wgt>
<wgt id='1782'> +1.2834636e-12 </wgt>
<wgt id='1783'> +1.3070058e-12 </wgt>
<wgt id='1784'> +1.3327267e-12 </wgt>
<wgt id='1785'> +1.3134155e-12 </wgt>
<wgt id='1786'> +1.2238415e-12 </wgt>
<wgt id='1787'> +1.3477422e-12 </wgt>
<wgt id='1788'> +1.3490592e-12 </wgt>
<wgt id='1789'> +1.2692577e-12 </wgt>
<wgt id='1790'> +1.3239199e-12 </wgt>
<wgt id='1791'> +1.3410304e-12 </wgt>
<wgt id='1792'> +1.3130489e-12 </wgt>
<wgt id='1793'> +1.3177174e-12 </wgt>
<wgt id='1794'> +1.3193816e-12 </wgt>
<wgt id='1795'> +1.3181771e-12 </wgt>
<wgt id='1796'> +1.3508551e-12 </wgt>
<wgt id='1797'> +1.3319972e-12 </wgt>
<wgt id='1798'> +1.3120251e-12 </wgt>
<wgt id='1799'> +1.3221607e-12 </wgt>
<wgt id='1800'> +1.2950205e-12 </wgt>
<wgt id='1801'> +1.3214000e-12 </wgt>
<wgt id='1802'> +1.3588762e-12 </wgt>
<wgt id='1803'> +1.3243951e-12 </wgt>
<wgt id='1804'> +1.3290029e-12 </wgt>
<wgt id='1805'> +1.3304754e-12 </wgt>
<wgt id='1806'> +1.3254247e-12 </wgt>
<wgt id='1807'> +1.3295137e-12 </wgt>
<wgt id='1808'> +1.2914045e-12 </wgt>
<wgt id='1809'> +1.3203045e-12 </wgt>
<wgt id='1810'> +1.3247447e-12 </wgt>
<wgt id='1811'> +1.3680779e-12 </wgt>
<wgt id='1812'> +1.3590891e-12 </wgt>
<wgt id='1813'> +1.3288218e-12 </wgt>
<wgt id='1814'> +1.3168495e-12 </wgt>
<wgt id='1815'> +1.4198987e-12 </wgt>
<wgt id='1816'> +1.3228319e-12 </wgt>
<wgt id='1817'> +1.3183414e-12 </wgt>
<wgt id='1818'> +1.3273662e-12 </wgt>
<wgt id='1819'> +1.3261789e-12 </wgt>
<wgt id='1820'> +1.3254263e-12 </wgt>
<wgt id='1821'> +1.3171403e-12 </wgt>
<wgt id='1822'> +1.3436807e-12 </wgt>
<wgt id='1823'> +1.3358994e-12 </wgt>
<wgt id='1824'> +1.3047218e-12 </wgt>
<wgt id='1825'> +1.3096098e-12 </wgt>
<wgt id='1826'> +1.2419302e-12 </wgt>
<wgt id='1827'> +1.2687358e-12 </wgt>
<wgt id='1828'> +1.3369041e-12 </wgt>
<wgt id='1829'> +1.3852502e-12 </wgt>
<wgt id='1830'> +1.2734971e-12 </wgt>
<wgt id='1831'> +1.3225709e-12 </wgt>
<wgt id='1832'> +1.3235395e-12 </wgt>
<wgt id='1833'> +1.3032346e-12 </wgt>
<wgt id='1834'> +1.2978001e-12 </wgt>
<wgt id='1835'> +1.3656279e-12 </wgt>
<wgt id='1836'> +1.3706605e-12 </wgt>
<wgt id='1837'> +1.3415220e-12 </wgt>
<wgt id='1838'> +1.2868588e-12 </wgt>
<wgt id='1839'> +1.3943855e-12 </wgt>
<wgt id='1840'> +1.3511794e-12 </wgt>
<wgt id='1841'> +1.3489454e-12 </wgt>
<wgt id='1842'> +1.2898431e-12 </wgt>
<wgt id='1843'> +1.3236943e-12 </wgt>
<wgt id='1844'> +1.3301795e-12 </wgt>
<wgt id='1845'> +1.3314654e-12 </wgt>
<wgt id='1846'> +1.3486826e-12 </wgt>
<wgt id='1847'> +1.3429122e-12 </wgt>
<wgt id='1848'> +1.2380077e-12 </wgt>
<wgt id='1849'> +1.3230862e-12 </wgt>
<wgt id='1850'> +1.3150570e-12 </wgt>
<wgt id='1851'> +1.3178729e-12 </wgt>
<wgt id='1852'> +1.3637335e-12 </wgt>
<wgt id='1853'> +1.3462498e-12 </wgt>
<wgt id='1854'> +1.3207376e-12 </wgt>
<wgt id='1855'> +1.3233887e-12 </wgt>
<wgt id='1856'> +1.3368196e-12 </wgt>
<wgt id='1857'> +1.3576429e-12 </wgt>
<wgt id='1858'> +1.3502356e-12 </wgt>
<wgt id='1859'> +1.3349570e-12 </wgt>
<wgt id='1860'> +1.2912853e-12 </wgt>
<wgt id='1861'> +1.3084866e-12 </wgt>
<wgt id='1862'> +1.3595459e-12 </wgt>
<wgt id='1863'> +1.2924758e-12 </wgt>
<wgt id='1864'> +1.3134842e-12 </wgt>
<wgt id='1865'> +1.3098037e-12 </wgt>
<wgt id='1866'> +1.3392186e-12 </wgt>
<wgt id='1867'> +1.3048088e-12 </wgt>
<wgt id='1868'> +1.3031602e-12 </wgt>
<wgt id='1869'> +1.3041325e-12 </wgt>
<wgt id='1870'> +1.3324851e-12 </wgt>
<wgt id='1871'> +1.3239086e-12 </wgt>
<wgt id='1872'> +1.2914486e-12 </wgt>
<wgt id='1873'> +1.3565289e-12 </wgt>
<wgt id='1874'> +1.3154153e-12 </wgt>
<wgt id='1875'> +1.3532480e-12 </wgt>
<wgt id='1876'> +1.3205596e-12 </wgt>
<wgt id='1877'> +1.3314409e-12 </wgt>
<wgt id='1878'> +1.3334198e-12 </wgt>
<wgt id='1879'> +1.3528503e-12 </wgt>
<wgt id='1880'> +1.2463495e-12 </wgt>
<wgt id='1881'> +1.3216345e-12 </wgt>
<wgt id='1882'> +1.3309317e-12 </wgt>
<wgt id='1883'> +1.3377353e-12 </wgt>
<wgt id='1884'> +1.3151112e-12 </wgt>
<wgt id='1885'> +1.2834636e-12 </wgt>
<wgt id='1886'> +1.3070058e-12 </wgt>
<wgt id='1887'> +1.3327267e-12 </wgt>
<wgt id='1888'> +1.3134155e-12 </wgt>
<wgt id='1889'> +1.2238415e-12 </wgt>
<wgt id='1890'> +1.3477422e-12 </wgt>
<wgt id='1891'> +1.3490592e-12 </wgt>
<wgt id='1892'> +1.2692577e-12 </wgt>
<wgt id='1893'> +1.3239199e-12 </wgt>
<wgt id='1894'> +1.3410304e-12 </wgt>
<wgt id='1895'> +1.3130489e-12 </wgt>
<wgt id='1896'> +1.3177174e-12 </wgt>
<wgt id='1897'> +1.3193816e-12 </wgt>
<wgt id='1898'> +1.3181771e-12 </wgt>
<wgt id='1899'> +1.3508551e-12 </wgt>
<wgt id='1900'> +1.3319972e-12 </wgt>
<wgt id='1901'> +1.3120251e-12 </wgt>
<wgt id='1902'> +1.3221607e-12 </wgt>
<wgt id='1903'> +1.2950205e-12 </wgt>
<wgt id='1904'> +1.3214000e-12 </wgt>
<wgt id='1905'> +1.3588762e-12 </wgt>
<wgt id='1906'> +1.3243951e-12 </wgt>
<wgt id='1907'> +1.3290029e-12 </wgt>
<wgt id='1908'> +1.3304754e-12 </wgt>
<wgt id='1909'> +1.3254247e-12 </wgt>
<wgt id='1910'> +1.3295137e-12 </wgt>
<wgt id='1911'> +1.2914045e-12 </wgt>
<wgt id='1912'> +1.3203045e-12 </wgt>
<wgt id='1913'> +1.3247447e-12 </wgt>
<wgt id='1914'> +1.3680779e-12 </wgt>
<wgt id='1915'> +1.3590891e-12 </wgt>
<wgt id='1916'> +1.3288218e-12 </wgt>
<wgt id='1917'> +1.3163537e-12 </wgt>
<wgt id='1918'> +1.3294263e-12 </wgt>
<wgt id='1919'> +1.3477479e-12 </wgt>
</rwgt>
</event>
<event>
 9      1 +1.5538000e-12 2.70029900e+01 7.81860800e-03 1.48198000e-01
        4 -1    0    0  502    0 -0.0000000000e+00 +0.0000000000e+00 +6.8777355526e+01 6.8792012858e+01 0.0000000000e+00 0.0000e+00 1.0000e+00
       21 -1    0    0  501  502 +0.0000000000e+00 -0.0000000000e+00 -1.3703725520e+01 1.3703725520e+01 1.4200000000e+00 0.0000e+00 1.0000e+00
     1023  2    1    2    0    0 -1.7007981011e+01 +1.4658370124e+01 +5.3517586188e+01 5.9944088658e+01 1.5000750008e+01 0.0000e+00 0.0000e+00
  1000023  2    3    3    0    0 -1.3302338383e+01 +4.4929807305e+00 +3.0385412975e+01 3.3921706630e+01 5.5017975923e+00 0.0000e+00 0.0000e+00
        4  1    1    2  501    0 +1.7007981011e+01 -1.4658370124e+01 +1.5560438172e+00 2.2551649721e+01 1.4200000000e+00 0.0000e+00 1.0000e+00
  1000022  1    4    4    0    0 -1.2001659683e+01 +3.6794992353e+00 +2.7305694628e+01 3.0466038614e+01 5.0000000000e+00 0.0000e+00 -1.0000e+00
      -13  1    4    4    0    0 -6.1930631145e-01 +3.2875020502e-01 +1.1679094531e+00 1.3663096228e+00 1.0570000000e-01 0.0000e+00 1.0000e+00
       13  1    4    4    0    0 -6.8137238857e-01 +4.8473129018e-01 +1.9118088946e+00 2.0893583931e+00 1.0570000000e-01 0.0000e+00 -1.0000e+00
  1000022  1    3    3    0    0 -3.7056426283e+00 +1.0165389394e+01 +2.3132173213e+01 2.6022382027e+01 5.0000000000e+00 0.0000e+00 1.0000e+00
<mgrwt>
<rscale>  1 0.27002995E+02</rscale>
<asrwt>0</asrwt>
<pdfrwt beam="1">  1       21 0.21082661E-02 0.27002995E+02</pdfrwt>
<pdfrwt beam="2">  1        4 0.10587915E-01 0.27002995E+02</pdfrwt>
<totfact> 0.24344571E+06</totfact>
</mgrwt>
<rwgt>
<wgt id='1001'> +1.5538000e-12 </wgt>
<wgt id='1002'> +1.7084909e-12 </wgt>
<wgt id='1003'> +1.7163005e-12 </wgt>
<wgt id='1004'> +1.5253588e-12 </wgt>
<wgt id='1005'> +1.7611581e-12 </wgt>
<wgt id='1006'> +1.3555901e-12 </wgt>
<wgt id='1007'> +1.5125164e-12 </wgt>
<wgt id='1008'> +1.5206328e-12 </wgt>
<wgt id='1009'> +1.3273467e-12 </wgt>
<wgt id='1010'> +1.5676860e-12 </wgt>
<wgt id='1011'> +1.8233697e-12 </wgt>
<wgt id='1012'> +1.9654161e-12 </wgt>
<wgt id='1013'> +1.9723363e-12 </wgt>
<wgt id='1014'> +1.7963971e-12 </wgt>
<wgt id='1015'> +2.0114258e-12 </wgt>
<wgt id='1016'> +1.9889549e-12 </wgt>
<wgt id='1017'> +2.0727491e-12 </wgt>
<wgt id='1018'> +2.0766317e-12 </wgt>
<wgt id='1019'> +1.9723363e-12 </wgt>
<wgt id='1020'> +2.0982561e-12 </wgt>
<wgt id='1021'> +1.7352347e-12 </wgt>
<wgt id='1022'> +1.8349919e-12 </wgt>
<wgt id='1023'> +1.8398842e-12 </wgt>
<wgt id='1024'> +1.7163005e-12 </wgt>
<wgt id='1025'> +1.8677520e-12 </wgt>
<wgt id='1026'> +2.3340200e-12 </wgt>
<wgt id='1027'> +2.3844520e-12 </wgt>
<wgt id='1028'> +2.3864212e-12 </wgt>
<wgt id='1029'> +2.3227973e-12 </wgt>
<wgt id='1030'> +2.3964268e-12 </wgt>
<wgt id='1031'> +1.0967643e-12 </wgt>
<wgt id='1032'> +1.3158626e-12 </wgt>
<wgt id='1033'> +1.3273467e-12 </wgt>
<wgt id='1034'> +1.0579405e-12 </wgt>
<wgt id='1035'> +1.3953856e-12 </wgt>
<wgt id='1036'> +9.5685600e-13 </wgt>
<wgt id='1037'> +1.1649250e-12 </wgt>
<wgt id='1038'> +1.1760218e-12 </wgt>
<wgt id='1039'> +9.2060556e-13 </wgt>
<wgt id='1040'> +1.2420954e-12 </wgt>
<wgt id='1041'> +1.2870426e-12 </wgt>
<wgt id='1042'> +1.5137439e-12 </wgt>
<wgt id='1043'> +1.5253588e-12 </wgt>
<wgt id='1044'> +1.2459240e-12 </wgt>
<wgt id='1045'> +1.5936755e-12 </wgt>
<wgt id='1046'> +1.5538000e-12 </wgt>
<wgt id='1047'> +1.4477314e-12 </wgt>
<wgt id='1048'> +1.5712284e-12 </wgt>
<wgt id='1049'> +1.6156906e-12 </wgt>
<wgt id='1050'> +1.5554437e-12 </wgt>
<wgt id='1051'> +1.5656382e-12 </wgt>
<wgt id='1052'> +1.4372664e-12 </wgt>
<wgt id='1053'> +1.5709026e-12 </wgt>
<wgt id='1054'> +1.6109162e-12 </wgt>
<wgt id='1055'> +1.6504034e-12 </wgt>
<wgt id='1056'> +1.5900203e-12 </wgt>
<wgt id='1057'> +1.5436034e-12 </wgt>
<wgt id='1058'> +1.5437376e-12 </wgt>
<wgt id='1059'> +1.5764022e-12 </wgt>
<wgt id='1060'> +1.5108633e-12 </wgt>
<wgt id='1061'> +1.6000570e-12 </wgt>
<wgt id='1062'> +1.5712321e-12 </wgt>
<wgt id='1063'> +1.5910498e-12 </wgt>
<wgt id='1064'> +1.5451311e-12 </wgt>
<wgt id='1065'> +1.5466184e-12 </wgt>
<wgt id='1066'> +1.6347735e-12 </wgt>
<wgt id='1067'> +1.5750259e-12 </wgt>
<wgt id='1068'> +1.5349421e-12 </wgt>
<wgt id='1069'> +1.5363910e-12 </wgt>
<wgt id='1070'> +1.5583614e-12 </wgt>
<wgt id='1071'> +1.6228790e-12 </wgt>
<wgt id='1072'> +1.5911753e-12 </wgt>
<wgt id='1073'> +1.5585419e-12 </wgt>
<wgt id='1074'> +1.5261516e-12 </wgt>
<wgt id='1075'> +1.5441132e-12 </wgt>
<wgt id='1076'> +1.5853544e-12 </wgt>
<wgt id='1077'> +1.4821965e-12 </wgt>
<wgt id='1078'> +1.5860337e-12 </wgt>
<wgt id='1079'> +1.5015187e-12 </wgt>
<wgt id='1080'> +1.5291729e-12 </wgt>
<wgt id='1081'> +1.5392593e-12 </wgt>
<wgt id='1082'> +1.5392241e-12 </wgt>
<wgt id='1083'> +1.5844902e-12 </wgt>
<wgt id='1084'> +1.5576035e-12 </wgt>
<wgt id='1085'> +1.5315231e-12 </wgt>
<wgt id='1086'> +1.5481309e-12 </wgt>
<wgt id='1087'> +1.5550712e-12 </wgt>
<wgt id='1088'> +1.4852341e-12 </wgt>
<wgt id='1089'> +1.4920794e-12 </wgt>
<wgt id='1090'> +1.4647677e-12 </wgt>
<wgt id='1091'> +1.5148285e-12 </wgt>
<wgt id='1092'> +1.4969876e-12 </wgt>
<wgt id='1093'> +1.5076236e-12 </wgt>
<wgt id='1094'> +1.5744917e-12 </wgt>
<wgt id='1095'> +1.5303843e-12 </wgt>
<wgt id='1096'> +1.5419104e-12 </wgt>
<wgt id='1097'> +1.5058058e-12 </wgt>
<wgt id='1098'> +1.6212448e-12 </wgt>
<wgt id='1099'> +1.5548475e-12 </wgt>
<wgt id='1100'> +1.5020131e-12 </wgt>
<wgt id='1101'> +1.5092519e-12 </wgt>
<wgt id='1102'> +1.5342786e-12 </wgt>
<wgt id='1103'> +1.5230776e-12 </wgt>
<wgt id='1104'> +1.5838179e-12 </wgt>
<wgt id='1105'> +1.6086842e-12 </wgt>
<wgt id='1106'> +1.5285558e-12 </wgt>
<wgt id='1107'> +1.5418999e-12 </wgt>
<wgt id='1108'> +1.5888081e-12 </wgt>
<wgt id='1109'> +1.5050755e-12 </wgt>
<wgt id='1110'> +1.5714375e-12 </wgt>
<wgt id='1111'> +1.5301558e-12 </wgt>
<wgt id='1112'> +1.4471571e-12 </wgt>
<wgt id='1113'> +1.4461410e-12 </wgt>
<wgt id='1114'> +1.5921956e-12 </wgt>
<wgt id='1115'> +1.5433214e-12 </wgt>
<wgt id='1116'> +1.5508239e-12 </wgt>
<wgt id='1117'> +1.6285651e-12 </wgt>
<wgt id='1118'> +1.5241019e-12 </wgt>
<wgt id='1119'> +1.6675174e-12 </wgt>
<wgt id='1120'> +1.6609831e-12 </wgt>
<wgt id='1121'> +1.5722724e-12 </wgt>
<wgt id='1122'> +1.4597953e-12 </wgt>
<wgt id='1123'> +1.6749844e-12 </wgt>
<wgt id='1124'> +1.5515585e-12 </wgt>
<wgt id='1125'> +1.5680831e-12 </wgt>
<wgt id='1126'> +1.4935474e-12 </wgt>
<wgt id='1127'> +1.5247959e-12 </wgt>
<wgt id='1128'> +1.5712321e-12 </wgt>
<wgt id='1129'> +1.4978801e-12 </wgt>
<wgt id='1130'> +1.6091038e-12 </wgt>
<wgt id='1131'> +1.5856441e-12 </wgt>
<wgt id='1132'> +1.4433158e-12 </wgt>
<wgt id='1133'> +1.5677222e-12 </wgt>
<wgt id='1134'> +1.5298314e-12 </wgt>
<wgt id='1135'> +1.7059246e-12 </wgt>
<wgt id='1136'> +1.5133984e-12 </wgt>
<wgt id='1137'> +1.5102200e-12 </wgt>
<wgt id='1138'> +1.6155713e-12 </wgt>
<wgt id='1139'> +1.5898589e-12 </wgt>
<wgt id='1140'> +1.5972541e-12 </wgt>
<wgt id='1141'> +1.5596355e-12 </wgt>
<wgt id='1142'> +1.5344689e-12 </wgt>
<wgt id='1143'> +1.4756389e-12 </wgt>
<wgt id='1144'> +1.6227790e-12 </wgt>
<wgt id='1145'> +1.6689672e-12 </wgt>
<wgt id='1146'> +1.6008476e-12 </wgt>
<wgt id='1147'> +1.2898939e-12 </wgt>
<wgt id='1148'> +1.3320778e-12 </wgt>
<wgt id='1149'> +1.2956174e-12 </wgt>
<wgt id='1150'> +1.3071393e-12 </wgt>
<wgt id='1151'> +1.1033286e-12 </wgt>
<wgt id='1152'> +1.6274249e-12 </wgt>
<wgt id='1153'> +1.6193426e-12 </wgt>
<wgt id='1154'> +1.6320940e-12 </wgt>
<wgt id='1155'> +1.6282739e-12 </wgt>
<wgt id='1156'> +1.6270070e-12 </wgt>
<wgt id='1157'> +1.6235631e-12 </wgt>
<wgt id='1158'> +1.6324940e-12 </wgt>
<wgt id='1159'> +1.6242595e-12 </wgt>
<wgt id='1160'> +1.6294811e-12 </wgt>
<wgt id='1161'> +1.6175452e-12 </wgt>
<wgt id='1162'> +1.6341882e-12 </wgt>
<wgt id='1163'> +1.6323227e-12 </wgt>
<wgt id='1164'> +1.6225428e-12 </wgt>
<wgt id='1165'> +1.6086020e-12 </wgt>
<wgt id='1166'> +1.6457207e-12 </wgt>
<wgt id='1167'> +1.6460870e-12 </wgt>
<wgt id='1168'> +1.6025118e-12 </wgt>
<wgt id='1169'> +1.6340654e-12 </wgt>
<wgt id='1170'> +1.6223804e-12 </wgt>
<wgt id='1171'> +1.6234966e-12 </wgt>
<wgt id='1172'> +1.6321806e-12 </wgt>
<wgt id='1173'> +1.6127404e-12 </wgt>
<wgt id='1174'> +1.6417769e-12 </wgt>
<wgt id='1175'> +1.6307268e-12 </wgt>
<wgt id='1176'> +1.6235063e-12 </wgt>
<wgt id='1177'> +1.6280203e-12 </wgt>
<wgt id='1178'> +1.6259889e-12 </wgt>
<wgt id='1179'> +1.6422280e-12 </wgt>
<wgt id='1180'> +1.6061449e-12 </wgt>
<wgt id='1181'> +1.6208655e-12 </wgt>
<wgt id='1182'> +1.6337200e-12 </wgt>
<wgt id='1183'> +1.6265166e-12 </wgt>
<wgt id='1184'> +1.6275144e-12 </wgt>
<wgt id='1185'> +1.6271656e-12 </wgt>
<wgt id='1186'> +1.6275337e-12 </wgt>
<wgt id='1187'> +1.6266196e-12 </wgt>
<wgt id='1188'> +1.6276292e-12 </wgt>
<wgt id='1189'> +1.6196447e-12 </wgt>
<wgt id='1190'> +1.6149656e-12 </wgt>
<wgt id='1191'> +1.6153246e-12 </wgt>
<wgt id='1192'> +1.6329781e-12 </wgt>
<wgt id='1193'> +1.3304697e-12 </wgt>
<wgt id='1194'> +1.3285764e-12 </wgt>
<wgt id='1195'> +1.3319246e-12 </wgt>
<wgt id='1196'> +1.3329727e-12 </wgt>
<wgt id='1197'> +1.3276625e-12 </wgt>
<wgt id='1198'> +1.3334446e-12 </wgt>
<wgt id='1199'> +1.3260359e-12 </wgt>
<wgt id='1200'> +1.3322477e-12 </wgt>
<wgt id='1201'> +1.3292397e-12 </wgt>
<wgt id='1202'> +1.3263025e-12 </wgt>
<wgt id='1203'> +1.3363549e-12 </wgt>
<wgt id='1204'> +1.3063953e-12 </wgt>
<wgt id='1205'> +1.3453772e-12 </wgt>
<wgt id='1206'> +1.3373785e-12 </wgt>
<wgt id='1207'> +1.3210677e-12 </wgt>
<wgt id='1208'> +1.3211352e-12 </wgt>
<wgt id='1209'> +1.3338641e-12 </wgt>
<wgt id='1210'> +1.3344508e-12 </wgt>
<wgt id='1211'> +1.3159318e-12 </wgt>
<wgt id='1212'> +1.3277771e-12 </wgt>
<wgt id='1213'> +1.3329428e-12 </wgt>
<wgt id='1214'> +1.3164821e-12 </wgt>
<wgt id='1215'> +1.3520260e-12 </wgt>
<wgt id='1216'> +1.3407181e-12 </wgt>
<wgt id='1217'> +1.3235145e-12 </wgt>
<wgt id='1218'> +1.3395154e-12 </wgt>
<wgt id='1219'> +1.3258055e-12 </wgt>
<wgt id='1220'> +1.3359967e-12 </wgt>
<wgt id='1221'> +1.3295618e-12 </wgt>
<wgt id='1222'> +1.3297634e-12 </wgt>
<wgt id='1223'> +1.3350222e-12 </wgt>
<wgt id='1224'> +1.3321782e-12 </wgt>
<wgt id='1225'> +1.3297524e-12 </wgt>
<wgt id='1226'> +1.3312120e-12 </wgt>
<wgt id='1227'> +1.3301546e-12 </wgt>
<wgt id='1228'> +1.3248069e-12 </wgt>
<wgt id='1229'> +1.3331692e-12 </wgt>
<wgt id='1230'> +1.3277441e-12 </wgt>
<wgt id='1231'> +1.3191035e-12 </wgt>
<wgt id='1232'> +1.3263466e-12 </wgt>
<wgt id='1233'> +1.3315816e-12 </wgt>
<wgt id='1234'> +1.3304697e-12 </wgt>
<wgt id='1235'> +1.3170500e-12 </wgt>
<wgt id='1236'> +1.3220801e-12 </wgt>
<wgt id='1237'> +1.3265563e-12 </wgt>
<wgt id='1238'> +1.3343830e-12 </wgt>
<wgt id='1239'> +1.3375825e-12 </wgt>
<wgt id='1240'> +1.3405876e-12 </wgt>
<wgt id='1241'> +1.2579643e-12 </wgt>
<wgt id='1242'> +1.2510547e-12 </wgt>
<wgt id='1243'> +1.2648931e-12 </wgt>
<wgt id='1244'> +1.2512582e-12 </wgt>
<wgt id='1245'> +1.2629509e-12 </wgt>
<wgt id='1246'> +1.2597418e-12 </wgt>
<wgt id='1247'> +1.2565474e-12 </wgt>
<wgt id='1248'> +1.2578591e-12 </wgt>
<wgt id='1249'> +1.2581308e-12 </wgt>
<wgt id='1250'> +1.2535306e-12 </wgt>
<wgt id='1251'> +1.2611465e-12 </wgt>
<wgt id='1252'> +1.2542965e-12 </wgt>
<wgt id='1253'> +1.2608568e-12 </wgt>
<wgt id='1254'> +1.2351384e-12 </wgt>
<wgt id='1255'> +1.2717867e-12 </wgt>
<wgt id='1256'> +1.2642675e-12 </wgt>
<wgt id='1257'> +1.2423239e-12 </wgt>
<wgt id='1258'> +1.2771255e-12 </wgt>
<wgt id='1259'> +1.2390618e-12 </wgt>
<wgt id='1260'> +1.2638789e-12 </wgt>
<wgt id='1261'> +1.2513448e-12 </wgt>
<wgt id='1262'> +1.2622766e-12 </wgt>
<wgt id='1263'> +1.2559851e-12 </wgt>
<wgt id='1264'> +1.2707456e-12 </wgt>
<wgt id='1265'> +1.2518533e-12 </wgt>
<wgt id='1266'> +1.2516145e-12 </wgt>
<wgt id='1267'> +1.2653721e-12 </wgt>
<wgt id='1268'> +1.2588056e-12 </wgt>
<wgt id='1269'> +1.2618423e-12 </wgt>
<wgt id='1270'> +1.2474548e-12 </wgt>
<wgt id='1271'> +1.2508148e-12 </wgt>
<wgt id='1272'> +1.2584843e-12 </wgt>
<wgt id='1273'> +1.2571235e-12 </wgt>
<wgt id='1274'> +1.2584960e-12 </wgt>
<wgt id='1275'> +1.2557393e-12 </wgt>
<wgt id='1276'> +1.2600442e-12 </wgt>
<wgt id='1277'> +1.2550279e-12 </wgt>
<wgt id='1278'> +1.2572552e-12 </wgt>
<wgt id='1279'> +1.2538504e-12 </wgt>
<wgt id='1280'> +1.2593521e-12 </wgt>
<wgt id='1281'> +1.2514482e-12 </wgt>
<wgt id='1282'> +1.2579643e-12 </wgt>
<wgt id='1283'> +1.2449231e-12 </wgt>
<wgt id='1284'> +1.2499152e-12 </wgt>
<wgt id='1285'> +1.2543560e-12 </wgt>
<wgt id='1286'> +1.2617930e-12 </wgt>
<wgt id='1287'> +1.2648614e-12 </wgt>
<wgt id='1288'> +1.2674075e-12 </wgt>
<wgt id='1289'> +1.3679888e-12 </wgt>
<wgt id='1290'> +1.3700825e-12 </wgt>
<wgt id='1291'> +1.3657199e-12 </wgt>
<wgt id='1292'> +1.3686355e-12 </wgt>
<wgt id='1293'> +1.3674780e-12 </wgt>
<wgt id='1294'> +1.3681682e-12 </wgt>
<wgt id='1295'> +1.3677741e-12 </wgt>
<wgt id='1296'> +1.3623150e-12 </wgt>
<wgt id='1297'> +1.3750033e-12 </wgt>
<wgt id='1298'> +1.3776825e-12 </wgt>
<wgt id='1299'> +1.3559607e-12 </wgt>
<wgt id='1300'> +1.3727945e-12 </wgt>
<wgt id='1301'> +1.3583839e-12 </wgt>
<wgt id='1302'> +1.3664014e-12 </wgt>
<wgt id='1303'> +1.3701379e-12 </wgt>
<wgt id='1304'> +1.3624007e-12 </wgt>
<wgt id='1305'> +1.3717718e-12 </wgt>
<wgt id='1306'> +1.3571056e-12 </wgt>
<wgt id='1307'> +1.3802733e-12 </wgt>
<wgt id='1308'> +1.3667467e-12 </wgt>
<wgt id='1309'> +1.3689663e-12 </wgt>
<wgt id='1310'> +1.3640125e-12 </wgt>
<wgt id='1311'> +1.3722785e-12 </wgt>
<wgt id='1312'> +1.3591276e-12 </wgt>
<wgt id='1313'> +1.3771927e-12 </wgt>
<wgt id='1314'> +1.3796454e-12 </wgt>
<wgt id='1315'> +1.3483540e-12 </wgt>
<wgt id='1316'> +1.3748343e-12 </wgt>
<wgt id='1317'> +1.3686125e-12 </wgt>
<wgt id='1318'> +1.3839067e-12 </wgt>
<wgt id='1319'> +1.3494418e-12 </wgt>
<wgt id='1320'> +1.3776966e-12 </wgt>
<wgt id='1321'> +1.3591929e-12 </wgt>
<wgt id='1322'> +1.3696068e-12 </wgt>
<wgt id='1323'> +1.3656423e-12 </wgt>
<wgt id='1324'> +1.3663546e-12 </wgt>
<wgt id='1325'> +1.3764090e-12 </wgt>
<wgt id='1326'> +1.3717359e-12 </wgt>
<wgt id='1327'> +1.3673514e-12 </wgt>
<wgt id='1328'> +1.3669483e-12 </wgt>
<wgt id='1329'> +1.3688535e-12 </wgt>
<wgt id='1330'> +1.3671564e-12 </wgt>
<wgt id='1331'> +1.3694987e-12 </wgt>
<wgt id='1332'> +1.3971606e-12 </wgt>
<wgt id='1333'> +1.3570522e-12 </wgt>
<wgt id='1334'> +1.3659855e-12 </wgt>
<wgt id='1335'> +1.3735722e-12 </wgt>
<wgt id='1336'> +1.3604478e-12 </wgt>
<wgt id='1337'> +1.3683186e-12 </wgt>
<wgt id='1338'> +1.3657734e-12 </wgt>
<wgt id='1339'> +1.3688608e-12 </wgt>
<wgt id='1340'> +1.3328535e-12 </wgt>
<wgt id='1341'> +1.3350133e-12 </wgt>
<wgt id='1342'> +1.3305490e-12 </wgt>
<wgt id='1343'> +1.3336639e-12 </wgt>
<wgt id='1344'> +1.3323370e-12 </wgt>
<wgt id='1345'> +1.3328745e-12 </wgt>
<wgt id='1346'> +1.3328277e-12 </wgt>
<wgt id='1347'> +1.3272915e-12 </wgt>
<wgt id='1348'> +1.3391288e-12 </wgt>
<wgt id='1349'> +1.3418272e-12 </wgt>
<wgt id='1350'> +1.3241493e-12 </wgt>
<wgt id='1351'> +1.3376751e-12 </wgt>
<wgt id='1352'> +1.3224868e-12 </wgt>
<wgt id='1353'> +1.3303117e-12 </wgt>
<wgt id='1354'> +1.3373782e-12 </wgt>
<wgt id='1355'> +1.3273406e-12 </wgt>
<wgt id='1356'> +1.3359724e-12 </wgt>
<wgt id='1357'> +1.3211687e-12 </wgt>
<wgt id='1358'> +1.3466777e-12 </wgt>
<wgt id='1359'> +1.3342056e-12 </wgt>
<wgt id='1360'> +1.3317222e-12 </wgt>
<wgt id='1361'> +1.3289286e-12 </wgt>
<wgt id='1362'> +1.3383118e-12 </wgt>
<wgt id='1363'> +1.3201786e-12 </wgt>
<wgt id='1364'> +1.3419898e-12 </wgt>
<wgt id='1365'> +1.3161577e-12 </wgt>
<wgt id='1366'> +1.3433139e-12 </wgt>
<wgt id='1367'> +1.3389397e-12 </wgt>
<wgt id='1368'> +1.3332074e-12 </wgt>
<wgt id='1369'> +1.3460612e-12 </wgt>
<wgt id='1370'> +1.3173770e-12 </wgt>
<wgt id='1371'> +1.3408365e-12 </wgt>
<wgt id='1372'> +1.3229210e-12 </wgt>
<wgt id='1373'> +1.3339691e-12 </wgt>
<wgt id='1374'> +1.3313634e-12 </wgt>
<wgt id='1375'> +1.3311590e-12 </wgt>
<wgt id='1376'> +1.3416837e-12 </wgt>
<wgt id='1377'> +1.3363076e-12 </wgt>
<wgt id='1378'> +1.3329933e-12 </wgt>
<wgt id='1379'> +1.3317114e-12 </wgt>
<wgt id='1380'> +1.3340480e-12 </wgt>
<wgt id='1381'> +1.3334746e-12 </wgt>
<wgt id='1382'> +1.3326765e-12 </wgt>
<wgt id='1383'> +1.3597823e-12 </wgt>
<wgt id='1384'> +1.3228427e-12 </wgt>
<wgt id='1385'> +1.3313490e-12 </wgt>
<wgt id='1386'> +1.3369379e-12 </wgt>
<wgt id='1387'> +1.3237925e-12 </wgt>
<wgt id='1388'> +1.3331970e-12 </wgt>
<wgt id='1389'> +1.3286146e-12 </wgt>
<wgt id='1390'> +1.3342630e-12 </wgt>
<wgt id='1391'> +1.3228719e-12 </wgt>
<wgt id='1392'> +1.2731320e-12 </wgt>
<wgt id='1393'> +1.2899712e-12 </wgt>
<wgt id='1394'> +1.3066666e-12 </wgt>
<wgt id='1395'> +1.3388165e-12 </wgt>
<wgt id='1396'> +1.3227575e-12 </wgt>
<wgt id='1397'> +1.3986703e-12 </wgt>
<wgt id='1398'> +1.3810913e-12 </wgt>
<wgt id='1399'> +1.3650941e-12 </wgt>
<wgt id='1400'> +1.3502926e-12 </wgt>
<wgt id='1401'> +1.3361281e-12 </wgt>
<wgt id='1402'> +1.3103995e-12 </wgt>
<wgt id='1403'> +1.2989709e-12 </wgt>
<wgt id='1404'> +1.2881760e-12 </wgt>
<wgt id='1405'> +1.3227575e-12 </wgt>
<wgt id='1406'> +1.3132527e-12 </wgt>
<wgt id='1407'> +1.3181754e-12 </wgt>
<wgt id='1408'> +1.3269848e-12 </wgt>
<wgt id='1409'> +1.3305999e-12 </wgt>
<wgt id='1410'> +1.2418323e-12 </wgt>
<wgt id='1411'> +1.2434792e-12 </wgt>
<wgt id='1412'> +1.2396572e-12 </wgt>
<wgt id='1413'> +1.2457513e-12 </wgt>
<wgt id='1414'> +1.2378640e-12 </wgt>
<wgt id='1415'> +1.2440697e-12 </wgt>
<wgt id='1416'> +1.2408763e-12 </wgt>
<wgt id='1417'> +1.2338885e-12 </wgt>
<wgt id='1418'> +1.2497624e-12 </wgt>
<wgt id='1419'> +1.2461078e-12 </wgt>
<wgt id='1420'> +1.2376482e-12 </wgt>
<wgt id='1421'> +1.2198450e-12 </wgt>
<wgt id='1422'> +1.2513274e-12 </wgt>
<wgt id='1423'> +1.2416991e-12 </wgt>
<wgt id='1424'> +1.2419365e-12 </wgt>
<wgt id='1425'> +1.2351222e-12 </wgt>
<wgt id='1426'> +1.2490543e-12 </wgt>
<wgt id='1427'> +1.2284291e-12 </wgt>
<wgt id='1428'> +1.2490380e-12 </wgt>
<wgt id='1429'> +1.2389985e-12 </wgt>
<wgt id='1430'> +1.2456833e-12 </wgt>
<wgt id='1431'> +1.2426730e-12 </wgt>
<wgt id='1432'> +1.2411241e-12 </wgt>
<wgt id='1433'> +1.2538707e-12 </wgt>
<wgt id='1434'> +1.2288851e-12 </wgt>
<wgt id='1435'> +1.2479024e-12 </wgt>
<wgt id='1436'> +1.2271093e-12 </wgt>
<wgt id='1437'> +1.2505119e-12 </wgt>
<wgt id='1438'> +1.2397633e-12 </wgt>
<wgt id='1439'> +1.2326172e-12 </wgt>
<wgt id='1440'> +1.2639868e-12 </wgt>
<wgt id='1441'> +1.2441322e-12 </wgt>
<wgt id='1442'> +1.2375668e-12 </wgt>
<wgt id='1443'> +1.2390351e-12 </wgt>
<wgt id='1444'> +1.2489609e-12 </wgt>
<wgt id='1445'> +1.2499583e-12 </wgt>
<wgt id='1446'> +1.2396457e-12 </wgt>
<wgt id='1447'> +1.2426858e-12 </wgt>
<wgt id='1448'> +1.2432922e-12 </wgt>
<wgt id='1449'> +1.2411747e-12 </wgt>
<wgt id='1450'> +1.2420356e-12 </wgt>
<wgt id='1451'> +1.2389859e-12 </wgt>
<wgt id='1452'> +1.2442990e-12 </wgt>
<wgt id='1453'> +1.2429356e-12 </wgt>
<wgt id='1454'> +1.2352380e-12 </wgt>
<wgt id='1455'> +1.2370232e-12 </wgt>
<wgt id='1456'> +1.2415951e-12 </wgt>
<wgt id='1457'> +1.2409011e-12 </wgt>
<wgt id='1458'> +1.2419815e-12 </wgt>
<wgt id='1459'> +1.2469848e-12 </wgt>
<wgt id='1460'> +1.2366076e-12 </wgt>
<wgt id='1461'> +1.2418323e-12 </wgt>
<wgt id='1462'> +1.2338799e-12 </wgt>
<wgt id='1463'> +1.2505299e-12 </wgt>
<wgt id='1464'> +1.2432634e-12 </wgt>
<wgt id='1465'> +1.3101753e-12 </wgt>
<wgt id='1466'> +1.2943702e-12 </wgt>
<wgt id='1467'> +1.2801971e-12 </wgt>
<wgt id='1468'> +1.2683565e-12 </wgt>
<wgt id='1469'> +1.2547717e-12 </wgt>
<wgt id='1470'> +1.2332658e-12 </wgt>
<wgt id='1471'> +1.2219311e-12 </wgt>
<wgt id='1472'> +1.2119759e-12 </wgt>
<wgt id='1473'> +1.2432634e-12 </wgt>
<wgt id='1474'> +1.2343374e-12 </wgt>
<wgt id='1475'> +1.2393674e-12 </wgt>
<wgt id='1476'> +1.2469675e-12 </wgt>
<wgt id='1477'> +1.2501427e-12 </wgt>
<wgt id='1478'> +1.2962916e-12 </wgt>
<wgt id='1479'> +1.2966517e-12 </wgt>
<wgt id='1480'> +1.2912280e-12 </wgt>
<wgt id='1481'> +1.2833314e-12 </wgt>
<wgt id='1482'> +1.3021826e-12 </wgt>
<wgt id='1483'> +1.2859406e-12 </wgt>
<wgt id='1484'> +1.2954571e-12 </wgt>
<wgt id='1485'> +1.3142111e-12 </wgt>
<wgt id='1486'> +1.2959801e-12 </wgt>
<wgt id='1487'> +1.3007353e-12 </wgt>
<wgt id='1488'> +1.2905672e-12 </wgt>
<wgt id='1489'> +1.3280982e-12 </wgt>
<wgt id='1490'> +1.2978915e-12 </wgt>
<wgt id='1491'> +1.3011687e-12 </wgt>
<wgt id='1492'> +1.2931894e-12 </wgt>
<wgt id='1493'> +1.2797192e-12 </wgt>
<wgt id='1494'> +1.2976311e-12 </wgt>
<wgt id='1495'> +1.3053146e-12 </wgt>
<wgt id='1496'> +1.2950634e-12 </wgt>
<wgt id='1497'> +1.3001400e-12 </wgt>
<wgt id='1498'> +1.2947877e-12 </wgt>
<wgt id='1499'> +1.3005212e-12 </wgt>
<wgt id='1500'> +1.2961234e-12 </wgt>
<wgt id='1501'> +1.2947585e-12 </wgt>
<wgt id='1502'> +1.2961764e-12 </wgt>
<wgt id='1503'> +1.2985067e-12 </wgt>
<wgt id='1504'> +1.2967063e-12 </wgt>
<wgt id='1505'> +1.2975658e-12 </wgt>
<wgt id='1506'> +1.2986700e-12 </wgt>
<wgt id='1507'> +1.2961484e-12 </wgt>
<wgt id='1508'> +1.3038099e-12 </wgt>
<wgt id='1509'> +1.2030696e-12 </wgt>
<wgt id='1510'> +1.1997721e-12 </wgt>
<wgt id='1511'> +1.2066550e-12 </wgt>
<wgt id='1512'> +1.2062568e-12 </wgt>
<wgt id='1513'> +1.2006625e-12 </wgt>
<wgt id='1514'> +1.2020386e-12 </wgt>
<wgt id='1515'> +1.2032529e-12 </wgt>
<wgt id='1516'> +1.2047702e-12 </wgt>
<wgt id='1517'> +1.2107511e-12 </wgt>
<wgt id='1518'> +1.1960169e-12 </wgt>
<wgt id='1519'> +1.2029892e-12 </wgt>
<wgt id='1520'> +1.2168750e-12 </wgt>
<wgt id='1521'> +1.2099437e-12 </wgt>
<wgt id='1522'> +1.2178297e-12 </wgt>
<wgt id='1523'> +1.2016696e-12 </wgt>
<wgt id='1524'> +1.2005560e-12 </wgt>
<wgt id='1525'> +1.1945195e-12 </wgt>
<wgt id='1526'> +1.2068425e-12 </wgt>
<wgt id='1527'> +1.2113465e-12 </wgt>
<wgt id='1528'> +1.2008864e-12 </wgt>
<wgt id='1529'> +1.2080541e-12 </wgt>
<wgt id='1530'> +1.1916808e-12 </wgt>
<wgt id='1531'> +1.2032230e-12 </wgt>
<wgt id='1532'> +1.2093856e-12 </wgt>
<wgt id='1533'> +1.1996341e-12 </wgt>
<wgt id='1534'> +1.1960178e-12 </wgt>
<wgt id='1535'> +1.2152397e-12 </wgt>
<wgt id='1536'> +1.2062693e-12 </wgt>
<wgt id='1537'> +1.2046110e-12 </wgt>
<wgt id='1538'> +1.2048337e-12 </wgt>
<wgt id='1539'> +1.1983152e-12 </wgt>
<wgt id='1540'> +1.1980583e-12 </wgt>
<wgt id='1541'> +1.2013554e-12 </wgt>
<wgt id='1542'> +1.2003401e-12 </wgt>
<wgt id='1543'> +1.2045996e-12 </wgt>
<wgt id='1544'> +1.2051411e-12 </wgt>
<wgt id='1545'> +1.2011502e-12 </wgt>
<wgt id='1546'> +1.2055792e-12 </wgt>
<wgt id='1547'> +1.2005280e-12 </wgt>
<wgt id='1548'> +1.2069942e-12 </wgt>
<wgt id='1549'> +1.2054142e-12 </wgt>
<wgt id='1550'> +1.2004397e-12 </wgt>
<wgt id='1551'> +1.2051322e-12 </wgt>
<wgt id='1552'> +1.2041604e-12 </wgt>
<wgt id='1553'> +1.1988367e-12 </wgt>
<wgt id='1554'> +1.1961768e-12 </wgt>
<wgt id='1555'> +1.1976548e-12 </wgt>
<wgt id='1556'> +1.2064686e-12 </wgt>
<wgt id='1557'> +1.1994588e-12 </wgt>
<wgt id='1558'> +1.2068093e-12 </wgt>
<wgt id='1559'> +1.2016742e-12 </wgt>
<wgt id='1560'> +1.2002997e-12 </wgt>
<wgt id='1561'> +1.2072229e-12 </wgt>
<wgt id='1562'> +1.2031730e-12 </wgt>
<wgt id='1563'> +1.2032372e-12 </wgt>
<wgt id='1564'> +1.2054894e-12 </wgt>
<wgt id='1565'> +1.2028041e-12 </wgt>
<wgt id='1566'> +1.1996051e-12 </wgt>
<wgt id='1567'> +1.1990051e-12 </wgt>
<wgt id='1568'> +1.2044069e-12 </wgt>
<wgt id='1569'> +1.2010569e-12 </wgt>
<wgt id='1570'> +1.2082608e-12 </wgt>
<wgt id='1571'> +1.2021384e-12 </wgt>
<wgt id='1572'> +1.2052202e-12 </wgt>
<wgt id='1573'> +1.2039795e-12 </wgt>
<wgt id='1574'> +1.2023188e-12 </wgt>
<wgt id='1575'> +1.2020829e-12 </wgt>
<wgt id='1576'> +1.2055815e-12 </wgt>
<wgt id='1577'> +1.2018571e-12 </wgt>
<wgt id='1578'> +1.2019313e-12 </wgt>
<wgt id='1579'> +1.2038413e-12 </wgt>
<wgt id='1580'> +1.2059985e-12 </wgt>
<wgt id='1581'> +1.2017392e-12 </wgt>
<wgt id='1582'> +1.2025767e-12 </wgt>
<wgt id='1583'> +1.2032787e-12 </wgt>
<wgt id='1584'> +1.2047524e-12 </wgt>
<wgt id='1585'> +1.2031446e-12 </wgt>
<wgt id='1586'> +1.2057901e-12 </wgt>
<wgt id='1587'> +1.2025459e-12 </wgt>
<wgt id='1588'> +1.2006538e-12 </wgt>
<wgt id='1589'> +1.2021339e-12 </wgt>
<wgt id='1590'> +1.2031218e-12 </wgt>
<wgt id='1591'> +1.2019701e-12 </wgt>
<wgt id='1592'> +1.2051173e-12 </wgt>
<wgt id='1593'> +1.2033368e-12 </wgt>
<wgt id='1594'> +1.2022900e-12 </wgt>
<wgt id='1595'> +1.2013433e-12 </wgt>
<wgt id='1596'> +1.2008704e-12 </wgt>
<wgt id='1597'> +1.2030402e-12 </wgt>
<wgt id='1598'> +1.2029518e-12 </wgt>
<wgt id='1599'> +1.2026863e-12 </wgt>
<wgt id='1600'> +1.2001249e-12 </wgt>
<wgt id='1601'> +1.2035437e-12 </wgt>
<wgt id='1602'> +1.2032650e-12 </wgt>
<wgt id='1603'> +1.2045828e-12 </wgt>
<wgt id='1604'> +1.2022486e-12 </wgt>
<wgt id='1605'> +1.2050059e-12 </wgt>
<wgt id='1606'> +1.2017447e-12 </wgt>
<wgt id='1607'> +1.2025375e-12 </wgt>
<wgt id='1608'> +1.2028413e-12 </wgt>
<wgt id='1609'> +1.2045475e-12 </wgt>
<wgt id='1610'> +1.1705089e-12 </wgt>
<wgt id='1611'> +1.2341644e-12 </wgt>
<wgt id='1612'> +1.4339498e-12 </wgt>
<wgt id='1613'> +1.5251879e-12 </wgt>
<wgt id='1614'> +1.4514335e-12 </wgt>
<wgt id='1615'> +1.4384452e-12 </wgt>
<wgt id='1616'> +1.5388071e-12 </wgt>
<wgt id='1617'> +1.3144510e-12 </wgt>
<wgt id='1618'> +1.2402841e-12 </wgt>
<wgt id='1619'> +1.4364112e-12 </wgt>
<wgt id='1620'> +1.4816732e-12 </wgt>
<wgt id='1621'> +1.4136626e-12 </wgt>
<wgt id='1622'> +1.4048820e-12 </wgt>
<wgt id='1623'> +1.4555504e-12 </wgt>
<wgt id='1624'> +1.4060039e-12 </wgt>
<wgt id='1625'> +1.4815957e-12 </wgt>
<wgt id='1626'> +1.5229100e-12 </wgt>
<wgt id='1627'> +1.4227861e-12 </wgt>
<wgt id='1628'> +1.4817725e-12 </wgt>
<wgt id='1629'> +1.4847075e-12 </wgt>
<wgt id='1630'> +1.4432627e-12 </wgt>
<wgt id='1631'> +1.4383961e-12 </wgt>
<wgt id='1632'> +1.5810748e-12 </wgt>
<wgt id='1633'> +1.4448386e-12 </wgt>
<wgt id='1634'> +1.4474218e-12 </wgt>
<wgt id='1635'> +1.4138434e-12 </wgt>
<wgt id='1636'> +1.3809955e-12 </wgt>
<wgt id='1637'> +1.3855056e-12 </wgt>
<wgt id='1638'> +1.4397890e-12 </wgt>
<wgt id='1639'> +1.4666248e-12 </wgt>
<wgt id='1640'> +1.5283924e-12 </wgt>
<wgt id='1641'> +1.4332401e-12 </wgt>
<wgt id='1642'> +1.4847421e-12 </wgt>
<wgt id='1643'> +1.5168473e-12 </wgt>
<wgt id='1644'> +1.3932846e-12 </wgt>
<wgt id='1645'> +1.4764142e-12 </wgt>
<wgt id='1646'> +1.5179279e-12 </wgt>
<wgt id='1647'> +1.5096011e-12 </wgt>
<wgt id='1648'> +1.4074984e-12 </wgt>
<wgt id='1649'> +1.2533988e-12 </wgt>
<wgt id='1650'> +1.5032492e-12 </wgt>
<wgt id='1651'> +1.4149284e-12 </wgt>
<wgt id='1652'> +1.5305804e-12 </wgt>
<wgt id='1653'> +1.3360807e-12 </wgt>
<wgt id='1654'> +1.3370285e-12 </wgt>
<wgt id='1655'> +1.3609449e-12 </wgt>
<wgt id='1656'> +1.4866025e-12 </wgt>
<wgt id='1657'> +1.3993720e-12 </wgt>
<wgt id='1658'> +1.4484169e-12 </wgt>
<wgt id='1659'> +1.4060039e-12 </wgt>
<wgt id='1660'> +1.3459237e-12 </wgt>
<wgt id='1661'> +1.4187043e-12 </wgt>
<wgt id='1662'> +1.4320772e-12 </wgt>
<wgt id='1663'> +1.4343808e-12 </wgt>
<wgt id='1664'> +1.5265846e-12 </wgt>
<wgt id='1665'> +1.5283286e-12 </wgt>
<wgt id='1666'> +1.4108557e-12 </wgt>
<wgt id='1667'> +1.3983966e-12 </wgt>
<wgt id='1668'> +1.3916057e-12 </wgt>
<wgt id='1669'> +1.4327109e-12 </wgt>
<wgt id='1670'> +1.4596055e-12 </wgt>
<wgt id='1671'> +1.5089690e-12 </wgt>
<wgt id='1672'> +1.4236496e-12 </wgt>
<wgt id='1673'> +1.3475442e-12 </wgt>
<wgt id='1674'> +1.4605196e-12 </wgt>
<wgt id='1675'> +1.5308128e-12 </wgt>
<wgt id='1676'> +1.4057279e-12 </wgt>
<wgt id='1677'> +1.4390314e-12 </wgt>
<wgt id='1678'> +1.4483930e-12 </wgt>
<wgt id='1679'> +1.4313718e-12 </wgt>
<wgt id='1680'> +1.4114818e-12 </wgt>
<wgt id='1681'> +1.4660925e-12 </wgt>
<wgt id='1682'> +1.4142680e-12 </wgt>
<wgt id='1683'> +1.4002273e-12 </wgt>
<wgt id='1684'> +1.4299168e-12 </wgt>
<wgt id='1685'> +1.4322532e-12 </wgt>
<wgt id='1686'> +1.4744612e-12 </wgt>
<wgt id='1687'> +1.4786875e-12 </wgt>
<wgt id='1688'> +1.4706548e-12 </wgt>
<wgt id='1689'> +1.3781633e-12 </wgt>
<wgt id='1690'> +1.3974062e-12 </wgt>
<wgt id='1691'> +1.4277831e-12 </wgt>
<wgt id='1692'> +1.4160050e-12 </wgt>
<wgt id='1693'> +1.5037836e-12 </wgt>
<wgt id='1694'> +1.3702540e-12 </wgt>
<wgt id='1695'> +1.4536394e-12 </wgt>
<wgt id='1696'> +1.4784372e-12 </wgt>
<wgt id='1697'> +1.2933023e-12 </wgt>
<wgt id='1698'> +1.4173428e-12 </wgt>
<wgt id='1699'> +1.3646178e-12 </wgt>
<wgt id='1700'> +1.4407536e-12 </wgt>
<wgt id='1701'> +1.4238247e-12 </wgt>
<wgt id='1702'> +1.3584825e-12 </wgt>
<wgt id='1703'> +1.4608148e-12 </wgt>
<wgt id='1704'> +1.4256643e-12 </wgt>
<wgt id='1705'> +1.5022895e-12 </wgt>
<wgt id='1706'> +1.3700480e-12 </wgt>
<wgt id='1707'> +1.4055284e-12 </wgt>
<wgt id='1708'> +1.3829522e-12 </wgt>
<wgt id='1709'> +1.4499109e-12 </wgt>
<wgt id='1710'> +1.4306978e-12 </wgt>
<wgt id='1711'> +1.4027278e-12 </wgt>
<wgt id='1712'> +1.4183638e-12 </wgt>
<wgt id='1713'> +1.3026715e-12 </wgt>
<wgt id='1714'> +1.2505944e-12 </wgt>
<wgt id='1715'> +1.3025455e-12 </wgt>
<wgt id='1716'> +1.2900322e-12 </wgt>
<wgt id='1717'> +1.2802097e-12 </wgt>
<wgt id='1718'> +1.2678045e-12 </wgt>
<wgt id='1719'> +1.3091534e-12 </wgt>
<wgt id='1720'> +1.3264771e-12 </wgt>
<wgt id='1721'> +1.2878553e-12 </wgt>
<wgt id='1722'> +1.2906935e-12 </wgt>
<wgt id='1723'> +1.2658677e-12 </wgt>
<wgt id='1724'> +1.3151853e-12 </wgt>
<wgt id='1725'> +1.3267787e-12 </wgt>
<wgt id='1726'> +1.3256539e-12 </wgt>
<wgt id='1727'> +1.2674655e-12 </wgt>
<wgt id='1728'> +1.3025803e-12 </wgt>
<wgt id='1729'> +1.3175063e-12 </wgt>
<wgt id='1730'> +1.2710703e-12 </wgt>
<wgt id='1731'> +1.2701052e-12 </wgt>
<wgt id='1732'> +1.3139245e-12 </wgt>
<wgt id='1733'> +1.3051330e-12 </wgt>
<wgt id='1734'> +1.3120874e-12 </wgt>
<wgt id='1735'> +1.3097106e-12 </wgt>
<wgt id='1736'> +1.4145040e-12 </wgt>
<wgt id='1737'> +1.2997688e-12 </wgt>
<wgt id='1738'> +1.3279177e-12 </wgt>
<wgt id='1739'> +1.2654398e-12 </wgt>
<wgt id='1740'> +1.2599995e-12 </wgt>
<wgt id='1741'> +1.2995658e-12 </wgt>
<wgt id='1742'> +1.2789867e-12 </wgt>
<wgt id='1743'> +1.3289743e-12 </wgt>
<wgt id='1744'> +1.3088772e-12 </wgt>
<wgt id='1745'> +1.2557947e-12 </wgt>
<wgt id='1746'> +1.3357295e-12 </wgt>
<wgt id='1747'> +1.3255440e-12 </wgt>
<wgt id='1748'> +1.2998808e-12 </wgt>
<wgt id='1749'> +1.3339526e-12 </wgt>
<wgt id='1750'> +1.3221200e-12 </wgt>
<wgt id='1751'> +1.2812942e-12 </wgt>
<wgt id='1752'> +1.2503450e-12 </wgt>
<wgt id='1753'> +1.3346178e-12 </wgt>
<wgt id='1754'> +1.2857718e-12 </wgt>
<wgt id='1755'> +1.3249042e-12 </wgt>
<wgt id='1756'> +1.3319972e-12 </wgt>
<wgt id='1757'> +1.2984076e-12 </wgt>
<wgt id='1758'> +1.3384970e-12 </wgt>
<wgt id='1759'> +1.3040080e-12 </wgt>
<wgt id='1760'> +1.2735598e-12 </wgt>
<wgt id='1761'> +1.2682947e-12 </wgt>
<wgt id='1762'> +1.3094286e-12 </wgt>
<wgt id='1763'> +1.3106469e-12 </wgt>
<wgt id='1764'> +1.3114980e-12 </wgt>
<wgt id='1765'> +1.3029308e-12 </wgt>
<wgt id='1766'> +1.3339694e-12 </wgt>
<wgt id='1767'> +1.3009437e-12 </wgt>
<wgt id='1768'> +1.3037266e-12 </wgt>
<wgt id='1769'> +1.2642693e-12 </wgt>
<wgt id='1770'> +1.3455429e-12 </wgt>
<wgt id='1771'> +1.3029891e-12 </wgt>
<wgt id='1772'> +1.3182605e-12 </wgt>
<wgt id='1773'> +1.2938425e-12 </wgt>
<wgt id='1774'> +1.3111486e-12 </wgt>
<wgt id='1775'> +1.3060714e-12 </wgt>
<wgt id='1776'> +1.3291890e-12 </wgt>
<wgt id='1777'> +1.2799346e-12 </wgt>
<wgt id='1778'> +1.2812927e-12 </wgt>
<wgt id='1779'> +1.3267072e-12 </wgt>
<wgt id='1780'> +1.3415093e-12 </wgt>
<wgt id='1781'> +1.2806482e-12 </wgt>
<wgt id='1782'> +1.2599538e-12 </wgt>
<wgt id='1783'> +1.3202261e-12 </wgt>
<wgt id='1784'> +1.3383380e-12 </wgt>
<wgt id='1785'> +1.2899630e-12 </wgt>
<wgt id='1786'> +1.2227850e-12 </wgt>
<wgt id='1787'> +1.3183627e-12 </wgt>
<wgt id='1788'> +1.2825450e-12 </wgt>
<wgt id='1789'> +1.2926896e-12 </wgt>
<wgt id='1790'> +1.3373022e-12 </wgt>
<wgt id='1791'> +1.3545988e-12 </wgt>
<wgt id='1792'> +1.2855702e-12 </wgt>
<wgt id='1793'> +1.3194051e-12 </wgt>
<wgt id='1794'> +1.3058913e-12 </wgt>
<wgt id='1795'> +1.2904344e-12 </wgt>
<wgt id='1796'> +1.2919290e-12 </wgt>
<wgt id='1797'> +1.3075247e-12 </wgt>
<wgt id='1798'> +1.2627819e-12 </wgt>
<wgt id='1799'> +1.3035117e-12 </wgt>
<wgt id='1800'> +1.2968097e-12 </wgt>
<wgt id='1801'> +1.2947979e-12 </wgt>
<wgt id='1802'> +1.3160026e-12 </wgt>
<wgt id='1803'> +1.3046845e-12 </wgt>
<wgt id='1804'> +1.2560910e-12 </wgt>
<wgt id='1805'> +1.3298670e-12 </wgt>
<wgt id='1806'> +1.2800010e-12 </wgt>
<wgt id='1807'> +1.3415293e-12 </wgt>
<wgt id='1808'> +1.2931142e-12 </wgt>
<wgt id='1809'> +1.3023225e-12 </wgt>
<wgt id='1810'> +1.2981810e-12 </wgt>
<wgt id='1811'> +1.3494474e-12 </wgt>
<wgt id='1812'> +1.3278571e-12 </wgt>
<wgt id='1813'> +1.2890824e-12 </wgt>
<wgt id='1814'> +1.2419930e-12 </wgt>
<wgt id='1815'> +1.4773729e-12 </wgt>
<wgt id='1816'> +1.3026715e-12 </wgt>
<wgt id='1817'> +1.2505944e-12 </wgt>
<wgt id='1818'> +1.3025455e-12 </wgt>
<wgt id='1819'> +1.2900322e-12 </wgt>
<wgt id='1820'> +1.2802097e-12 </wgt>
<wgt id='1821'> +1.2678045e-12 </wgt>
<wgt id='1822'> +1.3091534e-12 </wgt>
<wgt id='1823'> +1.3264771e-12 </wgt>
<wgt id='1824'> +1.2878553e-12 </wgt>
<wgt id='1825'> +1.2906935e-12 </wgt>
<wgt id='1826'> +1.2658677e-12 </wgt>
<wgt id='1827'> +1.3151853e-12 </wgt>
<wgt id='1828'> +1.3267787e-12 </wgt>
<wgt id='1829'> +1.3256539e-12 </wgt>
<wgt id='1830'> +1.2674655e-12 </wgt>
<wgt id='1831'> +1.3025803e-12 </wgt>
<wgt id='1832'> +1.3175063e-12 </wgt>
<wgt id='1833'> +1.2710703e-12 </wgt>
<wgt id='1834'> +1.2701052e-12 </wgt>
<wgt id='1835'> +1.3139245e-12 </wgt>
<wgt id='1836'> +1.3051330e-12 </wgt>
<wgt id='1837'> +1.3120874e-12 </wgt>
<wgt id='1838'> +1.3097106e-12 </wgt>
<wgt id='1839'> +1.4145040e-12 </wgt>
<wgt id='1840'> +1.2997688e-12 </wgt>
<wgt id='1841'> +1.3279177e-12 </wgt>
<wgt id='1842'> +1.2654398e-12 </wgt>
<wgt id='1843'> +1.2599995e-12 </wgt>
<wgt id='1844'> +1.2995658e-12 </wgt>
<wgt id='1845'> +1.2789867e-12 </wgt>
<wgt id='1846'> +1.3289743e-12 </wgt>
<wgt id='1847'> +1.3088772e-12 </wgt>
<wgt id='1848'> +1.2557947e-12 </wgt>
<wgt id='1849'> +1.3357295e-12 </wgt>
<wgt id='1850'> +1.3255440e-12 </wgt>
<wgt id='1851'> +1.2998808e-12 </wgt>
<wgt id='1852'> +1.3339526e-12 </wgt>
<wgt id='1853'> +1.3221200e-12 </wgt>
<wgt id='1854'> +1.2812942e-12 </wgt>
<wgt id='1855'> +1.2503450e-12 </wgt>
<wgt id='1856'> +1.3346178e-12 </wgt>
<wgt id='1857'> +1.2857718e-12 </wgt>
<wgt id='1858'> +1.3249042e-12 </wgt>
<wgt id='1859'> +1.3319972e-12 </wgt>
<wgt id='1860'> +1.2984076e-12 </wgt>
<wgt id='1861'> +1.3384970e-12 </wgt>
<wgt id='1862'> +1.3040080e-12 </wgt>
<wgt id='1863'> +1.2735598e-12 </wgt>
<wgt id='1864'> +1.2682947e-12 </wgt>
<wgt id='1865'> +1.3094286e-12 </wgt>
<wgt id='1866'> +1.3106469e-12 </wgt>
<wgt id='1867'> +1.3114980e-12 </wgt>
<wgt id='1868'> +1.3029308e-12 </wgt>
<wgt id='1869'> +1.3339694e-12 </wgt>
<wgt id='1870'> +1.3009437e-12 </wgt>
<wgt id='1871'> +1.3037266e-12 </wgt>
<wgt id='1872'> +1.2642693e-12 </wgt>
<wgt id='1873'> +1.3455429e-12 </wgt>
<wgt id='1874'> +1.3029891e-12 </wgt>
<wgt id='1875'> +1.3182605e-12 </wgt>
<wgt id='1876'> +1.2938425e-12 </wgt>
<wgt id='1877'> +1.3111486e-12 </wgt>
<wgt id='1878'> +1.3060714e-12 </wgt>
<wgt id='1879'> +1.3291890e-12 </wgt>
<wgt id='1880'> +1.2799346e-12 </wgt>
<wgt id='1881'> +1.2812927e-12 </wgt>
<wgt id='1882'> +1.3267072e-12 </wgt>
<wgt id='1883'> +1.3415093e-12 </wgt>
<wgt id='1884'> +1.2806482e-12 </wgt>
<wgt id='1885'> +1.2599538e-12 </wgt>
<wgt id='1886'> +1.3202261e-12 </wgt>
<wgt id='1887'> +1.3383380e-12 </wgt>
<wgt id='1888'> +1.2899630e-12 </wgt>
<wgt id='1889'> +1.2227850e-12 </wgt>
<wgt id='1890'> +1.3183627e-12 </wgt>
<wgt id='1891'> +1.2825450e-12 </wgt>
<wgt id='1892'> +1.2926896e-12 </wgt>
<wgt id='1893'> +1.3373022e-12 </wgt>
<wgt id='1894'> +1.3545988e-12 </wgt>
<wgt id='1895'> +1.2855702e-12 </wgt>
<wgt id='1896'> +1.3194051e-12 </wgt>
<wgt id='1897'> +1.3058913e-12 </wgt>
<wgt id='1898'> +1.2904344e-12 </wgt>
<wgt id='1899'> +1.2919290e-12 </wgt>
<wgt id='1900'> +1.3075247e-12 </wgt>
<wgt id='1901'> +1.2627819e-12 </wgt>
<wgt id='1902'> +1.3035117e-12 </wgt>
<wgt id='1903'> +1.2968097e-12 </wgt>
<wgt id='1904'> +1.2947979e-12 </wgt>
<wgt id='1905'> +1.3160026e-12 </wgt>
<wgt id='1906'> +1.3046845e-12 </wgt>
<wgt id='1907'> +1.2560910e-12 </wgt>
<wgt id='1908'> +1.3298670e-12 </wgt>
<wgt id='1909'> +1.2800010e-12 </wgt>
<wgt id='1910'> +1.3415293e-12 </wgt>
<wgt id='1911'> +1.2931142e-12 </wgt>
<wgt id='1912'> +1.3023225e-12 </wgt>
<wgt id='1913'> +1.2981810e-12 </wgt>
<wgt id='1914'> +1.3494474e-12 </wgt>
<wgt id='1915'> +1.3278571e-12 </wgt>
<wgt id='1916'> +1.2890824e-12 </wgt>
<wgt id='1917'> +1.2816578e-12 </wgt>
<wgt id='1918'> +1.3154556e-12 </wgt>
<wgt id='1919'> +1.2959174e-12 </wgt>
</rwgt>
</event>
<event>
 9      1 +1.5538000e-12 2.58016000e+01 7.81860800e-03 1.49643200e-01
        1 -1    0    0  502    0 +0.0000000000e+00 +0.0000000000e+00 +4.5182453806e+00 4.5182453806e+00 0.0000000000e+00 0.0000e+00 1.0000e+00
       -1 -1    0    0    0  501 -0.0000000000e+00 -0.0000000000e+00 -1.2331833756e+02 1.2331833756e+02 0.0000000000e+00 0.0000e+00 -1.0000e+00
     1023  2    1    2    0    0 -2.0304030289e+01 -5.3348571215e+00 -7.3805835198e+01 7.8185827582e+01 1.5000265958e+01 0.0000e+00 0.0000e+00
  1000023  2    3    3    0    0 -1.2858845738e+01 -7.3131485422e+00 -5.5574782793e+01 5.7772212474e+01 5.4990905033e+00 0.0000e+00 0.0000e+00
       21  1    1    2  502  501 +2.0304030289e+01 +5.3348571215e+00 -4.4994256984e+01 4.9650755362e+01 0.0000000000e+00 0.0000e+00 -1.0000e+00
  1000022  1    4    4    0    0 -1.1265474129e+01 -6.3078542776e+00 -4.9871223219e+01 5.1757500310e+01 5.0000000000e+00 0.0000e+00 -1.0000e+00
      -11  1    4    4    0    0 -6.0402240427e-01 -2.1386122485e-01 -2.0398637228e+00 2.1381356265e+00 5.1100000000e-04 0.0000e+00 1.0000e+00
       11  1    4    4    0    0 -9.8934920430e-01 -7.9143303974e-01 -3.6636958513e+00 3.8765765382e+00 5.1100000000e-04 0.0000e+00 -1.0000e+00
  1000022  1    3    3    0    0 -7.4451845514e+00 +1.9782914207e+00 -1.8231052405e+01 2.0413615107e+01 5.0000000000e+00 0.0000e+00 1.0000e+00
<mgrwt>
<rscale>  1 0.25801595E+02</rscale>
<asrwt>0</asrwt>
<pdfrwt beam="1">  1        1 0.69511485E-03 0.25801595E+02</pdfrwt>
<pdfrwt beam="2">  1       -1 0.18972047E-01 0.25801595E+02</pdfrwt>
<totfact> 0.48383843E+05</totfact>
</mgrwt>
<rwgt>
<wgt id='1001'> +1.5538000e-12 </wgt>
<wgt id='1002'> +1.6118732e-12 </wgt>
<wgt id='1003'> +1.6160899e-12 </wgt>
<wgt id='1004'> +1.5385003e-12 </wgt>
<wgt id='1005'> +1.6184898e-12 </wgt>
<wgt id='1006'> +1.3537843e-12 </wgt>
<wgt id='1007'> +1.4241131e-12 </wgt>
<wgt id='1008'> +1.4294048e-12 </wgt>
<wgt id='1009'> +1.3357662e-12 </wgt>
<wgt id='1010'> +1.4324373e-12 </wgt>
<wgt id='1011'> +1.8267258e-12 </wgt>
<wgt id='1012'> +1.8592555e-12 </wgt>
<wgt id='1013'> +1.8613697e-12 </wgt>
<wgt id='1014'> +1.8176423e-12 </wgt>
<wgt id='1015'> +1.8625689e-12 </wgt>
<wgt id='1016'> +1.8662493e-12 </wgt>
<wgt id='1017'> +1.8809576e-12 </wgt>
<wgt id='1018'> +1.8817414e-12 </wgt>
<wgt id='1019'> +1.8613697e-12 </wgt>
<wgt id='1020'> +1.8821512e-12 </wgt>
<wgt id='1021'> +1.6260130e-12 </wgt>
<wgt id='1022'> +1.6618531e-12 </wgt>
<wgt id='1023'> +1.6643691e-12 </wgt>
<wgt id='1024'> +1.6160899e-12 </wgt>
<wgt id='1025'> +1.6657897e-12 </wgt>
<wgt id='1026'> +2.1940570e-12 </wgt>
<wgt id='1027'> +2.1696377e-12 </wgt>
<wgt id='1028'> +2.1673400e-12 </wgt>
<wgt id='1029'> +2.1990923e-12 </wgt>
<wgt id='1030'> +2.1659923e-12 </wgt>
<wgt id='1031'> +1.2279965e-12 </wgt>
<wgt id='1032'> +1.3281590e-12 </wgt>
<wgt id='1033'> +1.3357662e-12 </wgt>
<wgt id='1034'> +1.2021499e-12 </wgt>
<wgt id='1035'> +1.3401012e-12 </wgt>
<wgt id='1036'> +1.0699204e-12 </wgt>
<wgt id='1037'> +1.1734476e-12 </wgt>
<wgt id='1038'> +1.1814632e-12 </wgt>
<wgt id='1039'> +1.0437380e-12 </wgt>
<wgt id='1040'> +1.1860507e-12 </wgt>
<wgt id='1041'> +1.4436947e-12 </wgt>
<wgt id='1042'> +1.5319983e-12 </wgt>
<wgt id='1043'> +1.5385003e-12 </wgt>
<wgt id='1044'> +1.4202652e-12 </wgt>
<wgt id='1045'> +1.5421974e-12 </wgt>
<wgt id='1046'> +1.5538000e-12 </wgt>
<wgt id='1047'> +1.6945096e-12 </wgt>
<wgt id='1048'> +1.5842917e-12 </wgt>
<wgt id='1049'> +1.4805980e-12 </wgt>
<wgt id='1050'> +1.5709713e-12 </wgt>
<wgt id='1051'> +1.5238219e-12 </wgt>
<wgt id='1052'> +1.6517864e-12 </wgt>
<wgt id='1053'> +1.5898896e-12 </wgt>
<wgt id='1054'> +1.4376629e-12 </wgt>
<wgt id='1055'> +1.5023648e-12 </wgt>
<wgt id='1056'> +1.5681062e-12 </wgt>
<wgt id='1057'> +1.5261609e-12 </wgt>
<wgt id='1058'> +1.5018448e-12 </wgt>
<wgt id='1059'> +1.5393999e-12 </wgt>
<wgt id='1060'> +1.5221267e-12 </wgt>
<wgt id='1061'> +1.5390069e-12 </wgt>
<wgt id='1062'> +1.5488123e-12 </wgt>
<wgt id='1063'> +1.6100645e-12 </wgt>
<wgt id='1064'> +1.5290312e-12 </wgt>
<wgt id='1065'> +1.5805198e-12 </wgt>
<wgt id='1066'> +1.4598558e-12 </wgt>
<wgt id='1067'> +1.5260782e-12 </wgt>
<wgt id='1068'> +1.5934194e-12 </wgt>
<wgt id='1069'> +1.5950479e-12 </wgt>
<wgt id='1070'> +1.4951768e-12 </wgt>
<wgt id='1071'> +1.5377961e-12 </wgt>
<wgt id='1072'> +1.5090034e-12 </wgt>
<wgt id='1073'> +1.7682883e-12 </wgt>
<wgt id='1074'> +1.5222874e-12 </wgt>
<wgt id='1075'> +1.5679960e-12 </wgt>
<wgt id='1076'> +1.6421862e-12 </wgt>
<wgt id='1077'> +1.5510482e-12 </wgt>
<wgt id='1078'> +1.5550658e-12 </wgt>
<wgt id='1079'> +1.6693022e-12 </wgt>
<wgt id='1080'> +1.4526140e-12 </wgt>
<wgt id='1081'> +1.5566123e-12 </wgt>
<wgt id='1082'> +1.5500909e-12 </wgt>
<wgt id='1083'> +1.5266324e-12 </wgt>
<wgt id='1084'> +1.5488459e-12 </wgt>
<wgt id='1085'> +1.5149737e-12 </wgt>
<wgt id='1086'> +1.5697576e-12 </wgt>
<wgt id='1087'> +1.5796868e-12 </wgt>
<wgt id='1088'> +1.5970915e-12 </wgt>
<wgt id='1089'> +1.6225688e-12 </wgt>
<wgt id='1090'> +1.6122457e-12 </wgt>
<wgt id='1091'> +1.4972704e-12 </wgt>
<wgt id='1092'> +1.5858930e-12 </wgt>
<wgt id='1093'> +1.5917532e-12 </wgt>
<wgt id='1094'> +1.4317049e-12 </wgt>
<wgt id='1095'> +1.6083959e-12 </wgt>
<wgt id='1096'> +1.5999471e-12 </wgt>
<wgt id='1097'> +1.4598591e-12 </wgt>
<wgt id='1098'> +1.5366888e-12 </wgt>
<wgt id='1099'> +1.5685078e-12 </wgt>
<wgt id='1100'> +1.6123264e-12 </wgt>
<wgt id='1101'> +1.5318346e-12 </wgt>
<wgt id='1102'> +1.5699553e-12 </wgt>
<wgt id='1103'> +1.6045687e-12 </wgt>
<wgt id='1104'> +1.5543393e-12 </wgt>
<wgt id='1105'> +1.5663926e-12 </wgt>
<wgt id='1106'> +1.5512829e-12 </wgt>
<wgt id='1107'> +1.6261566e-12 </wgt>
<wgt id='1108'> +1.5522716e-12 </wgt>
<wgt id='1109'> +1.5793778e-12 </wgt>
<wgt id='1110'> +1.4375003e-12 </wgt>
<wgt id='1111'> +1.6105703e-12 </wgt>
<wgt id='1112'> +1.5367113e-12 </wgt>
<wgt id='1113'> +1.6140211e-12 </wgt>
<wgt id='1114'> +1.6135325e-12 </wgt>
<wgt id='1115'> +1.5703146e-12 </wgt>
<wgt id='1116'> +1.5218596e-12 </wgt>
<wgt id='1117'> +1.5500852e-12 </wgt>
<wgt id='1118'> +1.4799454e-12 </wgt>
<wgt id='1119'> +1.4826557e-12 </wgt>
<wgt id='1120'> +1.5166364e-12 </wgt>
<wgt id='1121'> +1.4846301e-12 </wgt>
<wgt id='1122'> +1.6308815e-12 </wgt>
<wgt id='1123'> +1.5812181e-12 </wgt>
<wgt id='1124'> +1.5699601e-12 </wgt>
<wgt id='1125'> +1.5247366e-12 </wgt>
<wgt id='1126'> +1.5271440e-12 </wgt>
<wgt id='1127'> +1.5941373e-12 </wgt>
<wgt id='1128'> +1.5488123e-12 </wgt>
<wgt id='1129'> +1.5536208e-12 </wgt>
<wgt id='1130'> +1.4994406e-12 </wgt>
<wgt id='1131'> +1.5590187e-12 </wgt>
<wgt id='1132'> +1.6184933e-12 </wgt>
<wgt id='1133'> +1.5124960e-12 </wgt>
<wgt id='1134'> +1.6196166e-12 </wgt>
<wgt id='1135'> +1.3808981e-12 </wgt>
<wgt id='1136'> +1.5256214e-12 </wgt>
<wgt id='1137'> +1.5552467e-12 </wgt>
<wgt id='1138'> +1.4549853e-12 </wgt>
<wgt id='1139'> +1.4991274e-12 </wgt>
<wgt id='1140'> +1.5813625e-12 </wgt>
<wgt id='1141'> +1.5735838e-12 </wgt>
<wgt id='1142'> +1.5666618e-12 </wgt>
<wgt id='1143'> +1.5756635e-12 </wgt>
<wgt id='1144'> +1.5641977e-12 </wgt>
<wgt id='1145'> +1.5438825e-12 </wgt>
<wgt id='1146'> +1.5694882e-12 </wgt>
<wgt id='1147'> +1.0983773e-12 </wgt>
<wgt id='1148'> +1.1294814e-12 </wgt>
<wgt id='1149'> +1.1700380e-12 </wgt>
<wgt id='1150'> +1.0943023e-12 </wgt>
<wgt id='1151'> +1.0068107e-12 </wgt>
<wgt id='1152'> +1.3653060e-12 </wgt>
<wgt id='1153'> +1.3568739e-12 </wgt>
<wgt id='1154'> +1.3702096e-12 </wgt>
<wgt id='1155'> +1.3657373e-12 </wgt>
<wgt id='1156'> +1.3651398e-12 </wgt>
<wgt id='1157'> +1.3763426e-12 </wgt>
<wgt id='1158'> +1.3504994e-12 </wgt>
<wgt id='1159'> +1.3741870e-12 </wgt>
<wgt id='1160'> +1.3596343e-12 </wgt>
<wgt id='1161'> +1.3634484e-12 </wgt>
<wgt id='1162'> +1.3665881e-12 </wgt>
<wgt id='1163'> +1.3686963e-12 </wgt>
<wgt id='1164'> +1.3619029e-12 </wgt>
<wgt id='1165'> +1.3626790e-12 </wgt>
<wgt id='1166'> +1.3679797e-12 </wgt>
<wgt id='1167'> +1.3687460e-12 </wgt>
<wgt id='1168'> +1.3606660e-12 </wgt>
<wgt id='1169'> +1.3623446e-12 </wgt>
<wgt id='1170'> +1.3677191e-12 </wgt>
<wgt id='1171'> +1.3644233e-12 </wgt>
<wgt id='1172'> +1.3663960e-12 </wgt>
<wgt id='1173'> +1.3490828e-12 </wgt>
<wgt id='1174'> +1.3814010e-12 </wgt>
<wgt id='1175'> +1.3690518e-12 </wgt>
<wgt id='1176'> +1.3617519e-12 </wgt>
<wgt id='1177'> +1.3648105e-12 </wgt>
<wgt id='1178'> +1.3676306e-12 </wgt>
<wgt id='1179'> +1.3654158e-12 </wgt>
<wgt id='1180'> +1.3594939e-12 </wgt>
<wgt id='1181'> +1.3598516e-12 </wgt>
<wgt id='1182'> +1.3709949e-12 </wgt>
<wgt id='1183'> +1.3673023e-12 </wgt>
<wgt id='1184'> +1.3652666e-12 </wgt>
<wgt id='1185'> +1.3517917e-12 </wgt>
<wgt id='1186'> +1.3731055e-12 </wgt>
<wgt id='1187'> +1.3642179e-12 </wgt>
<wgt id='1188'> +1.3656625e-12 </wgt>
<wgt id='1189'> +1.3625626e-12 </wgt>
<wgt id='1190'> +1.3492030e-12 </wgt>
<wgt id='1191'> +1.3650789e-12 </wgt>
<wgt id='1192'> +1.3695869e-12 </wgt>
<wgt id='1193'> +1.1553472e-12 </wgt>
<wgt id='1194'> +1.1480796e-12 </wgt>
<wgt id='1195'> +1.1612290e-12 </wgt>
<wgt id='1196'> +1.1649929e-12 </wgt>
<wgt id='1197'> +1.1446854e-12 </wgt>
<wgt id='1198'> +1.1527381e-12 </wgt>
<wgt id='1199'> +1.1592397e-12 </wgt>
<wgt id='1200'> +1.1601536e-12 </wgt>
<wgt id='1201'> +1.1521326e-12 </wgt>
<wgt id='1202'> +1.1558292e-12 </wgt>
<wgt id='1203'> +1.1546525e-12 </wgt>
<wgt id='1204'> +1.1569764e-12 </wgt>
<wgt id='1205'> +1.1543514e-12 </wgt>
<wgt id='1206'> +1.1588789e-12 </wgt>
<wgt id='1207'> +1.1505585e-12 </wgt>
<wgt id='1208'> +1.1504717e-12 </wgt>
<wgt id='1209'> +1.1571553e-12 </wgt>
<wgt id='1210'> +1.1530462e-12 </wgt>
<wgt id='1211'> +1.1506523e-12 </wgt>
<wgt id='1212'> +1.1605646e-12 </wgt>
<wgt id='1213'> +1.1504757e-12 </wgt>
<wgt id='1214'> +1.1400888e-12 </wgt>
<wgt id='1215'> +1.1792969e-12 </wgt>
<wgt id='1216'> +1.1662043e-12 </wgt>
<wgt id='1217'> +1.1484443e-12 </wgt>
<wgt id='1218'> +1.1577013e-12 </wgt>
<wgt id='1219'> +1.1539427e-12 </wgt>
<wgt id='1220'> +1.1573162e-12 </wgt>
<wgt id='1221'> +1.1589195e-12 </wgt>
<wgt id='1222'> +1.1634561e-12 </wgt>
<wgt id='1223'> +1.1395999e-12 </wgt>
<wgt id='1224'> +1.1574619e-12 </wgt>
<wgt id='1225'> +1.1545958e-12 </wgt>
<wgt id='1226'> +1.1477244e-12 </wgt>
<wgt id='1227'> +1.1605322e-12 </wgt>
<wgt id='1228'> +1.1572763e-12 </wgt>
<wgt id='1229'> +1.1536108e-12 </wgt>
<wgt id='1230'> +1.1569216e-12 </wgt>
<wgt id='1231'> +1.1528081e-12 </wgt>
<wgt id='1232'> +1.1597783e-12 </wgt>
<wgt id='1233'> +1.1540709e-12 </wgt>
<wgt id='1234'> +1.1553472e-12 </wgt>
<wgt id='1235'> +1.1467481e-12 </wgt>
<wgt id='1236'> +1.1499836e-12 </wgt>
<wgt id='1237'> +1.1529264e-12 </wgt>
<wgt id='1238'> +1.1579548e-12 </wgt>
<wgt id='1239'> +1.1598911e-12 </wgt>
<wgt id='1240'> +1.1617366e-12 </wgt>
<wgt id='1241'> +1.1908011e-12 </wgt>
<wgt id='1242'> +1.1814186e-12 </wgt>
<wgt id='1243'> +1.2001788e-12 </wgt>
<wgt id='1244'> +1.1848909e-12 </wgt>
<wgt id='1245'> +1.1952214e-12 </wgt>
<wgt id='1246'> +1.1920854e-12 </wgt>
<wgt id='1247'> +1.1897728e-12 </wgt>
<wgt id='1248'> +1.1907988e-12 </wgt>
<wgt id='1249'> +1.1908163e-12 </wgt>
<wgt id='1250'> +1.1995349e-12 </wgt>
<wgt id='1251'> +1.1847074e-12 </wgt>
<wgt id='1252'> +1.1872601e-12 </wgt>
<wgt id='1253'> +1.1936263e-12 </wgt>
<wgt id='1254'> +1.1921484e-12 </wgt>
<wgt id='1255'> +1.1899910e-12 </wgt>
<wgt id='1256'> +1.1926307e-12 </wgt>
<wgt id='1257'> +1.1864117e-12 </wgt>
<wgt id='1258'> +1.2121118e-12 </wgt>
<wgt id='1259'> +1.1716095e-12 </wgt>
<wgt id='1260'> +1.1917560e-12 </wgt>
<wgt id='1261'> +1.1901390e-12 </wgt>
<wgt id='1262'> +1.1966854e-12 </wgt>
<wgt id='1263'> +1.1885989e-12 </wgt>
<wgt id='1264'> +1.1907081e-12 </wgt>
<wgt id='1265'> +1.1909315e-12 </wgt>
<wgt id='1266'> +1.1821178e-12 </wgt>
<wgt id='1267'> +1.1977406e-12 </wgt>
<wgt id='1268'> +1.1970840e-12 </wgt>
<wgt id='1269'> +1.1862060e-12 </wgt>
<wgt id='1270'> +1.1887868e-12 </wgt>
<wgt id='1271'> +1.1882774e-12 </wgt>
<wgt id='1272'> +1.1877298e-12 </wgt>
<wgt id='1273'> +1.1916470e-12 </wgt>
<wgt id='1274'> +1.1951470e-12 </wgt>
<wgt id='1275'> +1.1836289e-12 </wgt>
<wgt id='1276'> +1.1882568e-12 </wgt>
<wgt id='1277'> +1.1923746e-12 </wgt>
<wgt id='1278'> +1.1902410e-12 </wgt>
<wgt id='1279'> +1.1942227e-12 </wgt>
<wgt id='1280'> +1.1889642e-12 </wgt>
<wgt id='1281'> +1.2018863e-12 </wgt>
<wgt id='1282'> +1.1908011e-12 </wgt>
<wgt id='1283'> +1.1806874e-12 </wgt>
<wgt id='1284'> +1.1847478e-12 </wgt>
<wgt id='1285'> +1.1880156e-12 </wgt>
<wgt id='1286'> +1.1935643e-12 </wgt>
<wgt id='1287'> +1.1956093e-12 </wgt>
<wgt id='1288'> +1.1972905e-12 </wgt>
<wgt id='1289'> +1.1623501e-12 </wgt>
<wgt id='1290'> +1.1639756e-12 </wgt>
<wgt id='1291'> +1.1605319e-12 </wgt>
<wgt id='1292'> +1.1533068e-12 </wgt>
<wgt id='1293'> +1.1688803e-12 </wgt>
<wgt id='1294'> +1.1529501e-12 </wgt>
<wgt id='1295'> +1.1714851e-12 </wgt>
<wgt id='1296'> +1.1614722e-12 </wgt>
<wgt id='1297'> +1.1633994e-12 </wgt>
<wgt id='1298'> +1.1626217e-12 </wgt>
<wgt id='1299'> +1.1619769e-12 </wgt>
<wgt id='1300'> +1.1631474e-12 </wgt>
<wgt id='1301'> +1.1606471e-12 </wgt>
<wgt id='1302'> +1.1623237e-12 </wgt>
<wgt id='1303'> +1.1623502e-12 </wgt>
<wgt id='1304'> +1.1585420e-12 </wgt>
<wgt id='1305'> +1.1648964e-12 </wgt>
<wgt id='1306'> +1.1659860e-12 </wgt>
<wgt id='1307'> +1.1584050e-12 </wgt>
<wgt id='1308'> +1.1674178e-12 </wgt>
<wgt id='1309'> +1.1583791e-12 </wgt>
<wgt id='1310'> +1.1634186e-12 </wgt>
<wgt id='1311'> +1.1614228e-12 </wgt>
<wgt id='1312'> +1.1637837e-12 </wgt>
<wgt id='1313'> +1.1611701e-12 </wgt>
<wgt id='1314'> +1.1507603e-12 </wgt>
<wgt id='1315'> +1.1699715e-12 </wgt>
<wgt id='1316'> +1.1700193e-12 </wgt>
<wgt id='1317'> +1.1620912e-12 </wgt>
<wgt id='1318'> +1.1641518e-12 </wgt>
<wgt id='1319'> +1.1592351e-12 </wgt>
<wgt id='1320'> +1.1872830e-12 </wgt>
<wgt id='1321'> +1.1429148e-12 </wgt>
<wgt id='1322'> +1.1638928e-12 </wgt>
<wgt id='1323'> +1.1603389e-12 </wgt>
<wgt id='1324'> +1.1617942e-12 </wgt>
<wgt id='1325'> +1.1679238e-12 </wgt>
<wgt id='1326'> +1.1572724e-12 </wgt>
<wgt id='1327'> +1.1687733e-12 </wgt>
<wgt id='1328'> +1.1633749e-12 </wgt>
<wgt id='1329'> +1.1611414e-12 </wgt>
<wgt id='1330'> +1.1269435e-12 </wgt>
<wgt id='1331'> +1.1909885e-12 </wgt>
<wgt id='1332'> +1.1838756e-12 </wgt>
<wgt id='1333'> +1.1440677e-12 </wgt>
<wgt id='1334'> +1.1525513e-12 </wgt>
<wgt id='1335'> +1.1875894e-12 </wgt>
<wgt id='1336'> +1.1657364e-12 </wgt>
<wgt id='1337'> +1.1568057e-12 </wgt>
<wgt id='1338'> +1.1692454e-12 </wgt>
<wgt id='1339'> +1.1601181e-12 </wgt>
<wgt id='1340'> +1.1226123e-12 </wgt>
<wgt id='1341'> +1.1243500e-12 </wgt>
<wgt id='1342'> +1.1208036e-12 </wgt>
<wgt id='1343'> +1.1135045e-12 </wgt>
<wgt id='1344'> +1.1288325e-12 </wgt>
<wgt id='1345'> +1.1134070e-12 </wgt>
<wgt id='1346'> +1.1312534e-12 </wgt>
<wgt id='1347'> +1.1221635e-12 </wgt>
<wgt id='1348'> +1.1231099e-12 </wgt>
<wgt id='1349'> +1.1226143e-12 </wgt>
<wgt id='1350'> +1.1226251e-12 </wgt>
<wgt id='1351'> +1.1233213e-12 </wgt>
<wgt id='1352'> +1.1211889e-12 </wgt>
<wgt id='1353'> +1.1224835e-12 </wgt>
<wgt id='1354'> +1.1229730e-12 </wgt>
<wgt id='1355'> +1.1188906e-12 </wgt>
<wgt id='1356'> +1.1247390e-12 </wgt>
<wgt id='1357'> +1.1283905e-12 </wgt>
<wgt id='1358'> +1.1161838e-12 </wgt>
<wgt id='1359'> +1.1275028e-12 </wgt>
<wgt id='1360'> +1.1184045e-12 </wgt>
<wgt id='1361'> +1.1239338e-12 </wgt>
<wgt id='1362'> +1.1211715e-12 </wgt>
<wgt id='1363'> +1.1262054e-12 </wgt>
<wgt id='1364'> +1.1208341e-12 </wgt>
<wgt id='1365'> +1.1248098e-12 </wgt>
<wgt id='1366'> +1.1129287e-12 </wgt>
<wgt id='1367'> +1.1300744e-12 </wgt>
<wgt id='1368'> +1.1216505e-12 </wgt>
<wgt id='1369'> +1.1232604e-12 </wgt>
<wgt id='1370'> +1.1214911e-12 </wgt>
<wgt id='1371'> +1.1411200e-12 </wgt>
<wgt id='1372'> +1.1016116e-12 </wgt>
<wgt id='1373'> +1.1217193e-12 </wgt>
<wgt id='1374'> +1.1235037e-12 </wgt>
<wgt id='1375'> +1.1220075e-12 </wgt>
<wgt id='1376'> +1.1283177e-12 </wgt>
<wgt id='1377'> +1.1190081e-12 </wgt>
<wgt id='1378'> +1.1278809e-12 </wgt>
<wgt id='1379'> +1.1232140e-12 </wgt>
<wgt id='1380'> +1.1217285e-12 </wgt>
<wgt id='1381'> +1.0859576e-12 </wgt>
<wgt id='1382'> +1.1493355e-12 </wgt>
<wgt id='1383'> +1.1465280e-12 </wgt>
<wgt id='1384'> +1.1013013e-12 </wgt>
<wgt id='1385'> +1.1126972e-12 </wgt>
<wgt id='1386'> +1.1467617e-12 </wgt>
<wgt id='1387'> +1.1255140e-12 </wgt>
<wgt id='1388'> +1.1176024e-12 </wgt>
<wgt id='1389'> +1.1299238e-12 </wgt>
<wgt id='1390'> +1.1204426e-12 </wgt>
<wgt id='1391'> +1.1246282e-12 </wgt>
<wgt id='1392'> +1.0682429e-12 </wgt>
<wgt id='1393'> +1.0870804e-12 </wgt>
<wgt id='1394'> +1.1059320e-12 </wgt>
<wgt id='1395'> +1.1439074e-12 </wgt>
<wgt id='1396'> +1.1256888e-12 </wgt>
<wgt id='1397'> +1.0813215e-12 </wgt>
<wgt id='1398'> +1.0912664e-12 </wgt>
<wgt id='1399'> +1.0996589e-12 </wgt>
<wgt id='1400'> +1.1077740e-12 </wgt>
<wgt id='1401'> +1.1167660e-12 </wgt>
<wgt id='1402'> +1.1330832e-12 </wgt>
<wgt id='1403'> +1.1405960e-12 </wgt>
<wgt id='1404'> +1.1471491e-12 </wgt>
<wgt id='1405'> +1.1256888e-12 </wgt>
<wgt id='1406'> +1.1223317e-12 </wgt>
<wgt id='1407'> +1.1243749e-12 </wgt>
<wgt id='1408'> +1.1270619e-12 </wgt>
<wgt id='1409'> +1.1287604e-12 </wgt>
<wgt id='1410'> +1.1667161e-12 </wgt>
<wgt id='1411'> +1.1676865e-12 </wgt>
<wgt id='1412'> +1.1653970e-12 </wgt>
<wgt id='1413'> +1.1674408e-12 </wgt>
<wgt id='1414'> +1.1659716e-12 </wgt>
<wgt id='1415'> +1.1526257e-12 </wgt>
<wgt id='1416'> +1.1723669e-12 </wgt>
<wgt id='1417'> +1.1587401e-12 </wgt>
<wgt id='1418'> +1.1746769e-12 </wgt>
<wgt id='1419'> +1.1654900e-12 </wgt>
<wgt id='1420'> +1.1678853e-12 </wgt>
<wgt id='1421'> +1.1644409e-12 </wgt>
<wgt id='1422'> +1.1676975e-12 </wgt>
<wgt id='1423'> +1.1682580e-12 </wgt>
<wgt id='1424'> +1.1647891e-12 </wgt>
<wgt id='1425'> +1.1635474e-12 </wgt>
<wgt id='1426'> +1.1701022e-12 </wgt>
<wgt id='1427'> +1.1654572e-12 </wgt>
<wgt id='1428'> +1.1671817e-12 </wgt>
<wgt id='1429'> +1.1653458e-12 </wgt>
<wgt id='1430'> +1.1684756e-12 </wgt>
<wgt id='1431'> +1.1721961e-12 </wgt>
<wgt id='1432'> +1.1628090e-12 </wgt>
<wgt id='1433'> +1.1547233e-12 </wgt>
<wgt id='1434'> +1.1764055e-12 </wgt>
<wgt id='1435'> +1.1638342e-12 </wgt>
<wgt id='1436'> +1.1741108e-12 </wgt>
<wgt id='1437'> +1.1729937e-12 </wgt>
<wgt id='1438'> +1.1673709e-12 </wgt>
<wgt id='1439'> +1.1619804e-12 </wgt>
<wgt id='1440'> +1.1755827e-12 </wgt>
<wgt id='1441'> +1.1761781e-12 </wgt>
<wgt id='1442'> +1.1484291e-12 </wgt>
<wgt id='1443'> +1.1627817e-12 </wgt>
<wgt id='1444'> +1.1767627e-12 </wgt>
<wgt id='1445'> +1.1722032e-12 </wgt>
<wgt id='1446'> +1.1658372e-12 </wgt>
<wgt id='1447'> +1.1648124e-12 </wgt>
<wgt id='1448'> +1.1729484e-12 </wgt>
<wgt id='1449'> +1.1685467e-12 </wgt>
<wgt id='1450'> +1.1650105e-12 </wgt>
<wgt id='1451'> +1.1886937e-12 </wgt>
<wgt id='1452'> +1.1215484e-12 </wgt>
<wgt id='1453'> +1.1687193e-12 </wgt>
<wgt id='1454'> +1.1586205e-12 </wgt>
<wgt id='1455'> +1.1536514e-12 </wgt>
<wgt id='1456'> +1.1797310e-12 </wgt>
<wgt id='1457'> +1.1857974e-12 </wgt>
<wgt id='1458'> +1.1589199e-12 </wgt>
<wgt id='1459'> +1.1741434e-12 </wgt>
<wgt id='1460'> +1.1628149e-12 </wgt>
<wgt id='1461'> +1.1667161e-12 </wgt>
<wgt id='1462'> +1.1481882e-12 </wgt>
<wgt id='1463'> +1.1913178e-12 </wgt>
<wgt id='1464'> +1.1686388e-12 </wgt>
<wgt id='1465'> +1.1260450e-12 </wgt>
<wgt id='1466'> +1.1364549e-12 </wgt>
<wgt id='1467'> +1.1462676e-12 </wgt>
<wgt id='1468'> +1.1523115e-12 </wgt>
<wgt id='1469'> +1.1615480e-12 </wgt>
<wgt id='1470'> +1.1754816e-12 </wgt>
<wgt id='1471'> +1.1802189e-12 </wgt>
<wgt id='1472'> +1.1866629e-12 </wgt>
<wgt id='1473'> +1.1686388e-12 </wgt>
<wgt id='1474'> +1.1641279e-12 </wgt>
<wgt id='1475'> +1.1649161e-12 </wgt>
<wgt id='1476'> +1.1706795e-12 </wgt>
<wgt id='1477'> +1.1730396e-12 </wgt>
<wgt id='1478'> +1.1043156e-12 </wgt>
<wgt id='1479'> +1.1039746e-12 </wgt>
<wgt id='1480'> +1.1421287e-12 </wgt>
<wgt id='1481'> +1.1094996e-12 </wgt>
<wgt id='1482'> +1.1052830e-12 </wgt>
<wgt id='1483'> +1.0828795e-12 </wgt>
<wgt id='1484'> +1.1054555e-12 </wgt>
<wgt id='1485'> +1.1139363e-12 </wgt>
<wgt id='1486'> +1.1042093e-12 </wgt>
<wgt id='1487'> +1.1046133e-12 </wgt>
<wgt id='1488'> +1.1026946e-12 </wgt>
<wgt id='1489'> +1.1104987e-12 </wgt>
<wgt id='1490'> +1.0977491e-12 </wgt>
<wgt id='1491'> +1.1110262e-12 </wgt>
<wgt id='1492'> +1.1025166e-12 </wgt>
<wgt id='1493'> +1.0818690e-12 </wgt>
<wgt id='1494'> +1.1144568e-12 </wgt>
<wgt id='1495'> +1.1026015e-12 </wgt>
<wgt id='1496'> +1.1075913e-12 </wgt>
<wgt id='1497'> +1.0945581e-12 </wgt>
<wgt id='1498'> +1.1031285e-12 </wgt>
<wgt id='1499'> +1.1052070e-12 </wgt>
<wgt id='1500'> +1.1025472e-12 </wgt>
<wgt id='1501'> +1.1044461e-12 </wgt>
<wgt id='1502'> +1.1080842e-12 </wgt>
<wgt id='1503'> +1.0994345e-12 </wgt>
<wgt id='1504'> +1.0822177e-12 </wgt>
<wgt id='1505'> +1.1043324e-12 </wgt>
<wgt id='1506'> +1.1051024e-12 </wgt>
<wgt id='1507'> +1.1040860e-12 </wgt>
<wgt id='1508'> +1.1095732e-12 </wgt>
<wgt id='1509'> +1.2934089e-12 </wgt>
<wgt id='1510'> +1.2919779e-12 </wgt>
<wgt id='1511'> +1.2912126e-12 </wgt>
<wgt id='1512'> +1.2901307e-12 </wgt>
<wgt id='1513'> +1.3057720e-12 </wgt>
<wgt id='1514'> +1.2933821e-12 </wgt>
<wgt id='1515'> +1.2841266e-12 </wgt>
<wgt id='1516'> +1.2965898e-12 </wgt>
<wgt id='1517'> +1.2859297e-12 </wgt>
<wgt id='1518'> +1.2998004e-12 </wgt>
<wgt id='1519'> +1.2816125e-12 </wgt>
<wgt id='1520'> +1.2803216e-12 </wgt>
<wgt id='1521'> +1.3037824e-12 </wgt>
<wgt id='1522'> +1.2865293e-12 </wgt>
<wgt id='1523'> +1.2955739e-12 </wgt>
<wgt id='1524'> +1.3076483e-12 </wgt>
<wgt id='1525'> +1.3049266e-12 </wgt>
<wgt id='1526'> +1.2821675e-12 </wgt>
<wgt id='1527'> +1.2877327e-12 </wgt>
<wgt id='1528'> +1.2863750e-12 </wgt>
<wgt id='1529'> +1.2920228e-12 </wgt>
<wgt id='1530'> +1.3029014e-12 </wgt>
<wgt id='1531'> +1.2947349e-12 </wgt>
<wgt id='1532'> +1.2853807e-12 </wgt>
<wgt id='1533'> +1.3047123e-12 </wgt>
<wgt id='1534'> +1.2957219e-12 </wgt>
<wgt id='1535'> +1.2885560e-12 </wgt>
<wgt id='1536'> +1.2951814e-12 </wgt>
<wgt id='1537'> +1.2954495e-12 </wgt>
<wgt id='1538'> +1.2911205e-12 </wgt>
<wgt id='1539'> +1.2785725e-12 </wgt>
<wgt id='1540'> +1.3004972e-12 </wgt>
<wgt id='1541'> +1.2950811e-12 </wgt>
<wgt id='1542'> +1.3044683e-12 </wgt>
<wgt id='1543'> +1.2947405e-12 </wgt>
<wgt id='1544'> +1.2998459e-12 </wgt>
<wgt id='1545'> +1.2939681e-12 </wgt>
<wgt id='1546'> +1.2841837e-12 </wgt>
<wgt id='1547'> +1.2966343e-12 </wgt>
<wgt id='1548'> +1.2891336e-12 </wgt>
<wgt id='1549'> +1.2948652e-12 </wgt>
<wgt id='1550'> +1.2894137e-12 </wgt>
<wgt id='1551'> +1.2934647e-12 </wgt>
<wgt id='1552'> +1.2921485e-12 </wgt>
<wgt id='1553'> +1.2934952e-12 </wgt>
<wgt id='1554'> +1.2931756e-12 </wgt>
<wgt id='1555'> +1.2901297e-12 </wgt>
<wgt id='1556'> +1.2901238e-12 </wgt>
<wgt id='1557'> +1.2951254e-12 </wgt>
<wgt id='1558'> +1.2956310e-12 </wgt>
<wgt id='1559'> +1.2969235e-12 </wgt>
<wgt id='1560'> +1.2936281e-12 </wgt>
<wgt id='1561'> +1.2944486e-12 </wgt>
<wgt id='1562'> +1.2936325e-12 </wgt>
<wgt id='1563'> +1.2933045e-12 </wgt>
<wgt id='1564'> +1.2931120e-12 </wgt>
<wgt id='1565'> +1.2926489e-12 </wgt>
<wgt id='1566'> +1.2926016e-12 </wgt>
<wgt id='1567'> +1.2924593e-12 </wgt>
<wgt id='1568'> +1.2941239e-12 </wgt>
<wgt id='1569'> +1.2939530e-12 </wgt>
<wgt id='1570'> +1.2921516e-12 </wgt>
<wgt id='1571'> +1.2945385e-12 </wgt>
<wgt id='1572'> +1.2933259e-12 </wgt>
<wgt id='1573'> +1.2939042e-12 </wgt>
<wgt id='1574'> +1.2946133e-12 </wgt>
<wgt id='1575'> +1.2912043e-12 </wgt>
<wgt id='1576'> +1.2938091e-12 </wgt>
<wgt id='1577'> +1.2945250e-12 </wgt>
<wgt id='1578'> +1.2908501e-12 </wgt>
<wgt id='1579'> +1.2943275e-12 </wgt>
<wgt id='1580'> +1.2890095e-12 </wgt>
<wgt id='1581'> +1.2961079e-12 </wgt>
<wgt id='1582'> +1.2924589e-12 </wgt>
<wgt id='1583'> +1.2946321e-12 </wgt>
<wgt id='1584'> +1.2910394e-12 </wgt>
<wgt id='1585'> +1.2908940e-12 </wgt>
<wgt id='1586'> +1.2907841e-12 </wgt>
<wgt id='1587'> +1.2920800e-12 </wgt>
<wgt id='1588'> +1.2937877e-12 </wgt>
<wgt id='1589'> +1.2925384e-12 </wgt>
<wgt id='1590'> +1.2939884e-12 </wgt>
<wgt id='1591'> +1.2913552e-12 </wgt>
<wgt id='1592'> +1.2933658e-12 </wgt>
<wgt id='1593'> +1.2936112e-12 </wgt>
<wgt id='1594'> +1.2929239e-12 </wgt>
<wgt id='1595'> +1.2918673e-12 </wgt>
<wgt id='1596'> +1.2931228e-12 </wgt>
<wgt id='1597'> +1.2921986e-12 </wgt>
<wgt id='1598'> +1.2930902e-12 </wgt>
<wgt id='1599'> +1.2947609e-12 </wgt>
<wgt id='1600'> +1.2929766e-12 </wgt>
<wgt id='1601'> +1.2930027e-12 </wgt>
<wgt id='1602'> +1.2940526e-12 </wgt>
<wgt id='1603'> +1.2933426e-12 </wgt>
<wgt id='1604'> +1.2947395e-12 </wgt>
<wgt id='1605'> +1.2937348e-12 </wgt>
<wgt id='1606'> +1.2925021e-12 </wgt>
<wgt id='1607'> +1.2940850e-12 </wgt>
<wgt id='1608'> +1.2938109e-12 </wgt>
<wgt id='1609'> +1.2941025e-12 </wgt>
<wgt id='1610'> +1.2731124e-12 </wgt>
<wgt id='1611'> +1.3268060e-12 </wgt>
<wgt id='1612'> +1.4725126e-12 </wgt>
<wgt id='1613'> +1.5299991e-12 </wgt>
<wgt id='1614'> +1.5084980e-12 </wgt>
<wgt id='1615'> +1.4467328e-12 </wgt>
<wgt id='1616'> +1.5187214e-12 </wgt>
<wgt id='1617'> +1.5656301e-12 </wgt>
<wgt id='1618'> +1.5838761e-12 </wgt>
<wgt id='1619'> +1.5131744e-12 </wgt>
<wgt id='1620'> +1.4442674e-12 </wgt>
<wgt id='1621'> +1.4737679e-12 </wgt>
<wgt id='1622'> +1.4422779e-12 </wgt>
<wgt id='1623'> +1.4104071e-12 </wgt>
<wgt id='1624'> +1.4790057e-12 </wgt>
<wgt id='1625'> +1.5026983e-12 </wgt>
<wgt id='1626'> +1.3768008e-12 </wgt>
<wgt id='1627'> +1.4504250e-12 </wgt>
<wgt id='1628'> +1.5425987e-12 </wgt>
<wgt id='1629'> +1.4859685e-12 </wgt>
<wgt id='1630'> +1.4779042e-12 </wgt>
<wgt id='1631'> +1.5031798e-12 </wgt>
<wgt id='1632'> +1.4364147e-12 </wgt>
<wgt id='1633'> +1.4221750e-12 </wgt>
<wgt id='1634'> +1.3929574e-12 </wgt>
<wgt id='1635'> +1.4800829e-12 </wgt>
<wgt id='1636'> +1.6037650e-12 </wgt>
<wgt id='1637'> +1.4773605e-12 </wgt>
<wgt id='1638'> +1.4315032e-12 </wgt>
<wgt id='1639'> +1.4867582e-12 </wgt>
<wgt id='1640'> +1.4063898e-12 </wgt>
<wgt id='1641'> +1.5074233e-12 </wgt>
<wgt id='1642'> +1.3974021e-12 </wgt>
<wgt id='1643'> +1.5692918e-12 </wgt>
<wgt id='1644'> +1.3789988e-12 </wgt>
<wgt id='1645'> +1.4501590e-12 </wgt>
<wgt id='1646'> +1.4340366e-12 </wgt>
<wgt id='1647'> +1.4912804e-12 </wgt>
<wgt id='1648'> +1.5045839e-12 </wgt>
<wgt id='1649'> +1.6423123e-12 </wgt>
<wgt id='1650'> +1.4579349e-12 </wgt>
<wgt id='1651'> +1.4684823e-12 </wgt>
<wgt id='1652'> +1.4235312e-12 </wgt>
<wgt id='1653'> +1.5417429e-12 </wgt>
<wgt id='1654'> +1.5373657e-12 </wgt>
<wgt id='1655'> +1.5095063e-12 </wgt>
<wgt id='1656'> +1.4242153e-12 </wgt>
<wgt id='1657'> +1.5083977e-12 </wgt>
<wgt id='1658'> +1.4033260e-12 </wgt>
<wgt id='1659'> +1.4790057e-12 </wgt>
<wgt id='1660'> +1.5556434e-12 </wgt>
<wgt id='1661'> +1.4173895e-12 </wgt>
<wgt id='1662'> +1.3884599e-12 </wgt>
<wgt id='1663'> +1.4329592e-12 </wgt>
<wgt id='1664'> +1.4444122e-12 </wgt>
<wgt id='1665'> +1.2831841e-12 </wgt>
<wgt id='1666'> +1.4212984e-12 </wgt>
<wgt id='1667'> +1.5255659e-12 </wgt>
<wgt id='1668'> +1.5304389e-12 </wgt>
<wgt id='1669'> +1.4900841e-12 </wgt>
<wgt id='1670'> +1.4803634e-12 </wgt>
<wgt id='1671'> +1.3827262e-12 </wgt>
<wgt id='1672'> +1.4280524e-12 </wgt>
<wgt id='1673'> +1.5114392e-12 </wgt>
<wgt id='1674'> +1.4876352e-12 </wgt>
<wgt id='1675'> +1.4669779e-12 </wgt>
<wgt id='1676'> +1.5421693e-12 </wgt>
<wgt id='1677'> +1.4449744e-12 </wgt>
<wgt id='1678'> +1.4271509e-12 </wgt>
<wgt id='1679'> +1.5095454e-12 </wgt>
<wgt id='1680'> +1.5136289e-12 </wgt>
<wgt id='1681'> +1.4467540e-12 </wgt>
<wgt id='1682'> +1.4434064e-12 </wgt>
<wgt id='1683'> +1.4535560e-12 </wgt>
<wgt id='1684'> +1.4073285e-12 </wgt>
<wgt id='1685'> +1.4665670e-12 </wgt>
<wgt id='1686'> +1.4515147e-12 </wgt>
<wgt id='1687'> +1.4956854e-12 </wgt>
<wgt id='1688'> +1.4336734e-12 </wgt>
<wgt id='1689'> +1.4335740e-12 </wgt>
<wgt id='1690'> +1.4359643e-12 </wgt>
<wgt id='1691'> +1.4672788e-12 </wgt>
<wgt id='1692'> +1.4861130e-12 </wgt>
<wgt id='1693'> +1.4529157e-12 </wgt>
<wgt id='1694'> +1.4547715e-12 </wgt>
<wgt id='1695'> +1.3729431e-12 </wgt>
<wgt id='1696'> +1.4672832e-12 </wgt>
<wgt id='1697'> +1.5736704e-12 </wgt>
<wgt id='1698'> +1.4509855e-12 </wgt>
<wgt id='1699'> +1.5889912e-12 </wgt>
<wgt id='1700'> +1.4490594e-12 </wgt>
<wgt id='1701'> +1.4675958e-12 </wgt>
<wgt id='1702'> +1.5644346e-12 </wgt>
<wgt id='1703'> +1.4549515e-12 </wgt>
<wgt id='1704'> +1.5226260e-12 </wgt>
<wgt id='1705'> +1.3892218e-12 </wgt>
<wgt id='1706'> +1.5698236e-12 </wgt>
<wgt id='1707'> +1.4531049e-12 </wgt>
<wgt id='1708'> +1.5559938e-12 </wgt>
<wgt id='1709'> +1.4612984e-12 </wgt>
<wgt id='1710'> +1.5014424e-12 </wgt>
<wgt id='1711'> +1.4397567e-12 </wgt>
<wgt id='1712'> +1.4652814e-12 </wgt>
<wgt id='1713'> +1.1343926e-12 </wgt>
<wgt id='1714'> +1.0741658e-12 </wgt>
<wgt id='1715'> +1.1416450e-12 </wgt>
<wgt id='1716'> +1.2048290e-12 </wgt>
<wgt id='1717'> +1.1792632e-12 </wgt>
<wgt id='1718'> +1.0664211e-12 </wgt>
<wgt id='1719'> +1.0299817e-12 </wgt>
<wgt id='1720'> +1.1447838e-12 </wgt>
<wgt id='1721'> +1.1567889e-12 </wgt>
<wgt id='1722'> +1.1533974e-12 </wgt>
<wgt id='1723'> +1.1271239e-12 </wgt>
<wgt id='1724'> +9.9759215e-13 </wgt>
<wgt id='1725'> +1.1017932e-12 </wgt>
<wgt id='1726'> +1.1858484e-12 </wgt>
<wgt id='1727'> +1.1430947e-12 </wgt>
<wgt id='1728'> +1.1162828e-12 </wgt>
<wgt id='1729'> +1.1143298e-12 </wgt>
<wgt id='1730'> +1.0980354e-12 </wgt>
<wgt id='1731'> +1.0847152e-12 </wgt>
<wgt id='1732'> +1.1182912e-12 </wgt>
<wgt id='1733'> +1.1985243e-12 </wgt>
<wgt id='1734'> +1.1821281e-12 </wgt>
<wgt id='1735'> +1.1443033e-12 </wgt>
<wgt id='1736'> +1.1653408e-12 </wgt>
<wgt id='1737'> +1.1700197e-12 </wgt>
<wgt id='1738'> +1.1628030e-12 </wgt>
<wgt id='1739'> +1.1380433e-12 </wgt>
<wgt id='1740'> +1.1111477e-12 </wgt>
<wgt id='1741'> +1.1697503e-12 </wgt>
<wgt id='1742'> +1.1293408e-12 </wgt>
<wgt id='1743'> +1.1850613e-12 </wgt>
<wgt id='1744'> +1.2451393e-12 </wgt>
<wgt id='1745'> +1.0940644e-12 </wgt>
<wgt id='1746'> +1.1779457e-12 </wgt>
<wgt id='1747'> +1.1192851e-12 </wgt>
<wgt id='1748'> +1.1894249e-12 </wgt>
<wgt id='1749'> +1.1354822e-12 </wgt>
<wgt id='1750'> +1.1447033e-12 </wgt>
<wgt id='1751'> +1.0468864e-12 </wgt>
<wgt id='1752'> +1.1126412e-12 </wgt>
<wgt id='1753'> +1.1682419e-12 </wgt>
<wgt id='1754'> +1.1259235e-12 </wgt>
<wgt id='1755'> +1.1070061e-12 </wgt>
<wgt id='1756'> +1.1465670e-12 </wgt>
<wgt id='1757'> +1.1346461e-12 </wgt>
<wgt id='1758'> +1.1626238e-12 </wgt>
<wgt id='1759'> +1.0802549e-12 </wgt>
<wgt id='1760'> +1.0974479e-12 </wgt>
<wgt id='1761'> +1.1268452e-12 </wgt>
<wgt id='1762'> +1.1000091e-12 </wgt>
<wgt id='1763'> +1.1719477e-12 </wgt>
<wgt id='1764'> +1.1629892e-12 </wgt>
<wgt id='1765'> +1.1373416e-12 </wgt>
<wgt id='1766'> +1.0875177e-12 </wgt>
<wgt id='1767'> +1.1245375e-12 </wgt>
<wgt id='1768'> +1.1521297e-12 </wgt>
<wgt id='1769'> +1.1055630e-12 </wgt>
<wgt id='1770'> +1.1809382e-12 </wgt>
<wgt id='1771'> +1.1483559e-12 </wgt>
<wgt id='1772'> +1.1759484e-12 </wgt>
<wgt id='1773'> +1.1625551e-12 </wgt>
<wgt id='1774'> +1.1417563e-12 </wgt>
<wgt id='1775'> +1.1509638e-12 </wgt>
<wgt id='1776'> +1.0533136e-12 </wgt>
<wgt id='1777'> +1.1088273e-12 </wgt>
<wgt id='1778'> +1.1598545e-12 </wgt>
<wgt id='1779'> +1.1594275e-12 </wgt>
<wgt id='1780'> +1.1724106e-12 </wgt>
<wgt id='1781'> +1.1541529e-12 </wgt>
<wgt id='1782'> +1.1290983e-12 </wgt>
<wgt id='1783'> +1.1534991e-12 </wgt>
<wgt id='1784'> +1.1108969e-12 </wgt>
<wgt id='1785'> +1.0462736e-12 </wgt>
<wgt id='1786'> +1.0926003e-12 </wgt>
<wgt id='1787'> +1.1374603e-12 </wgt>
<wgt id='1788'> +1.1158430e-12 </wgt>
<wgt id='1789'> +1.0926146e-12 </wgt>
<wgt id='1790'> +1.1249084e-12 </wgt>
<wgt id='1791'> +1.1255338e-12 </wgt>
<wgt id='1792'> +1.1214289e-12 </wgt>
<wgt id='1793'> +1.1826124e-12 </wgt>
<wgt id='1794'> +1.1588713e-12 </wgt>
<wgt id='1795'> +1.1496693e-12 </wgt>
<wgt id='1796'> +1.1100507e-12 </wgt>
<wgt id='1797'> +1.1752297e-12 </wgt>
<wgt id='1798'> +1.1464323e-12 </wgt>
<wgt id='1799'> +1.1367064e-12 </wgt>
<wgt id='1800'> +1.1617269e-12 </wgt>
<wgt id='1801'> +1.1229793e-12 </wgt>
<wgt id='1802'> +1.1034652e-12 </wgt>
<wgt id='1803'> +1.1775995e-12 </wgt>
<wgt id='1804'> +1.1705971e-12 </wgt>
<wgt id='1805'> +1.1584549e-12 </wgt>
<wgt id='1806'> +1.1320265e-12 </wgt>
<wgt id='1807'> +1.0888427e-12 </wgt>
<wgt id='1808'> +1.1031290e-12 </wgt>
<wgt id='1809'> +1.1050786e-12 </wgt>
<wgt id='1810'> +1.1406404e-12 </wgt>
<wgt id='1811'> +1.1748535e-12 </wgt>
<wgt id='1812'> +1.1681689e-12 </wgt>
<wgt id='1813'> +1.1150937e-12 </wgt>
<wgt id='1814'> +1.1136774e-12 </wgt>
<wgt id='1815'> +1.3546552e-12 </wgt>
<wgt id='1816'> +1.1343926e-12 </wgt>
<wgt id='1817'> +1.0741658e-12 </wgt>
<wgt id='1818'> +1.1416450e-12 </wgt>
<wgt id='1819'> +1.2048290e-12 </wgt>
<wgt id='1820'> +1.1792632e-12 </wgt>
<wgt id='1821'> +1.0664211e-12 </wgt>
<wgt id='1822'> +1.0299817e-12 </wgt>
<wgt id='1823'> +1.1447838e-12 </wgt>
<wgt id='1824'> +1.1567889e-12 </wgt>
<wgt id='1825'> +1.1533974e-12 </wgt>
<wgt id='1826'> +1.1271239e-12 </wgt>
<wgt id='1827'> +9.9759215e-13 </wgt>
<wgt id='1828'> +1.1017932e-12 </wgt>
<wgt id='1829'> +1.1858484e-12 </wgt>
<wgt id='1830'> +1.1430947e-12 </wgt>
<wgt id='1831'> +1.1162828e-12 </wgt>
<wgt id='1832'> +1.1143298e-12 </wgt>
<wgt id='1833'> +1.0980354e-12 </wgt>
<wgt id='1834'> +1.0847152e-12 </wgt>
<wgt id='1835'> +1.1182912e-12 </wgt>
<wgt id='1836'> +1.1985243e-12 </wgt>
<wgt id='1837'> +1.1821281e-12 </wgt>
<wgt id='1838'> +1.1443033e-12 </wgt>
<wgt id='1839'> +1.1653408e-12 </wgt>
<wgt id='1840'> +1.1700197e-12 </wgt>
<wgt id='1841'> +1.1628030e-12 </wgt>
<wgt id='1842'> +1.1380433e-12 </wgt>
<wgt id='1843'> +1.1111477e-12 </wgt>
<wgt id='1844'> +1.1697503e-12 </wgt>
<wgt id='1845'> +1.1293408e-12 </wgt>
<wgt id='1846'> +1.1850613e-12 </wgt>
<wgt id='1847'> +1.2451393e-12 </wgt>
<wgt id='1848'> +1.0940644e-12 </wgt>
<wgt id='1849'> +1.1779457e-12 </wgt>
<wgt id='1850'> +1.1192851e-12 </wgt>
<wgt id='1851'> +1.1894249e-12 </wgt>
<wgt id='1852'> +1.1354822e-12 </wgt>
<wgt id='1853'> +1.1447033e-12 </wgt>
<wgt id='1854'> +1.0468864e-12 </wgt>
<wgt id='1855'> +1.1126412e-12 </wgt>
<wgt id='1856'> +1.1682419e-12 </wgt>
<wgt id='1857'> +1.1259235e-12 </wgt>
<wgt id='1858'> +1.1070061e-12 </wgt>
<wgt id='1859'> +1.1465670e-12 </wgt>
<wgt id='1860'> +1.1346461e-12 </wgt>
<wgt id='1861'> +1.1626238e-12 </wgt>
<wgt id='1862'> +1.0802549e-12 </wgt>
<wgt id='1863'> +1.0974479e-12 </wgt>
<wgt id='1864'> +1.1268452e-12 </wgt>
<wgt id='1865'> +1.1000091e-12 </wgt>
<wgt id='1866'> +1.1719477e-12 </wgt>
<wgt id='1867'> +1.1629892e-12 </wgt>
<wgt id='1868'> +1.1373416e-12 </wgt>
<wgt id='1869'> +1.0875177e-12 </wgt>
<wgt id='1870'> +1.1245375e-12 </wgt>
<wgt id='1871'> +1.1521297e-12 </wgt>
<wgt id='1872'> +1.1055630e-12 </wgt>
<wgt id='1873'> +1.1809382e-12 </wgt>
<wgt id='1874'> +1.1483559e-12 </wgt>
<wgt id='1875'> +1.1759484e-12 </wgt>
<wgt id='1876'> +1.1625551e-12 </wgt>
<wgt id='1877'> +1.1417563e-12 </wgt>
<wgt id='1878'> +1.1509638e-12 </wgt>
<wgt id='1879'> +1.0533136e-12 </wgt>
<wgt id='1880'> +1.1088273e-12 </wgt>
<wgt id='1881'> +1.1598545e-12 </wgt>
<wgt id='1882'> +1.1594275e-12 </wgt>
<wgt id='1883'> +1.1724106e-12 </wgt>
<wgt id='1884'> +1.1541529e-12 </wgt>
<wgt id='1885'> +1.1290983e-12 </wgt>
<wgt id='1886'> +1.1534991e-12 </wgt>
<wgt id='1887'> +1.1108969e-12 </wgt>
<wgt id='1888'> +1.0462736e-12 </wgt>
<wgt id='1889'> +1.0926003e-12 </wgt>
<wgt id='1890'> +1.1374603e-12 </wgt>
<wgt id='1891'> +1.1158430e-12 </wgt>
<wgt id='1892'> +1.0926146e-12 </wgt>
<wgt id='1893'> +1.1249084e-12 </wgt>
<wgt id='1894'> +1.1255338e-12 </wgt>
<wgt id='1895'> +1.1214289e-12 </wgt>
<wgt id='1896'> +1.1826124e-12 </wgt>
<wgt id='1897'> +1.1588713e-12 </wgt>
<wgt id='1898'> +1.1496693e-12 </wgt>
<wgt id='1899'> +1.1100507e-12 </wgt>
<wgt id='1900'> +1.1752297e-12 </wgt>
<wgt id='1901'> +1.1464323e-12 </wgt>
<wgt id='1902'> +1.1367064e-12 </wgt>
<wgt id='1903'> +1.1617269e-12 </wgt>
<wgt id='1904'> +1.1229793e-12 </wgt>
<wgt id='1905'> +1.1034652e-12 </wgt>
<wgt id='1906'> +1.1775995e-12 </wgt>
<wgt id='1907'> +1.1705971e-12 </wgt>
<wgt id='1908'> +1.1584549e-12 </wgt>
<wgt id='1909'> +1.1320265e-12 </wgt>
<wgt id='1910'> +1.0888427e-12 </wgt>
<wgt id='1911'> +1.1031290e-12 </wgt>
<wgt id='1912'> +1.1050786e-12 </wgt>
<wgt id='1913'> +1.1406404e-12 </wgt>
<wgt id='1914'> +1.1748535e-12 </wgt>
<wgt id='1915'> +1.1681689e-12 </wgt>
<wgt id='1916'> +1.1150937e-12 </wgt>
<wgt id='1917'> +1.1216048e-12 </wgt>
<wgt id='1918'> +1.1542232e-12 </wgt>
<wgt id='1919'> +1.1890230e-12 </wgt>
</rwgt>
</event>
<event>
 9      1 +1.5538000e-12 5.95773600e+01 7.81860800e-03 1.27009300e-01
       21 -1    0    0  501  502 +0.0000000000e+00 +0.0000000000e+00 +1.2623064218e+02 1.2623064218e+02 0.0000000000e+00 0.0000e+00 1.0000e+00
       -2 -1    0    0    0  501 -0.0000000000e+00 -0.0000000000e+00 -7.0297152422e+00 7.0297152422e+00 0.0000000000e+00 0.0000e+00 1.0000e+00
     1023  2    1    2    0    0 -2.1452245339e+01 +7.8395589780e+00 +2.7536321874e+01 3.8793128519e+01 1.5000009431e+01 0.0000e+00 0.0000e+00
  1000023  2    3    3    0    0 -1.5617142904e+01 +3.0061476130e-01 +1.6686697467e+01 2.3509200683e+01 5.5001020615e+00 0.0000e+00 0.0000e+00
       -2  1    1    2    0  502 +2.1452245339e+01 -7.8395589780e+00 +9.1664605059e+01 9.4467228898e+01 0.0000000000e+00 0.0000e+00 1.0000e+00
  1000022  1    4    4    0    0 -1.3655147255e+01 +2.7071330328e-01 +1.4787502391e+01 2.0741421340e+01 5.0000000000e+00 0.0000e+00 1.0000e+00
      -13  1    4    4    0    0 -1.9056547590e-01 +5.9752250413e-02 +1.2496558961e-01 2.5821390478e-01 1.0570000000e-01 0.0000e+00 -1.0000e+00
       13  1    4    4    0    0 -1.7714301736e+00 -2.9850792387e-02 +1.7742294858e+00 2.5095654381e+00 1.0570000000e-01 0.0000e+00 1.0000e+00
  1000022  1    3    3    0    0 -5.8351024345e+00 +7.5389442167e+00 +1.0849624407e+01 1.5283927836e+01 5.0000000000e+00 0.0000e+00 1.0000e+00
<mgrwt>
<rscale>  1 0.59577360E+02</rscale>
<asrwt>0</asrwt>
<pdfrwt beam="1">  1       21 0.19420097E-01 0.59577360E+02</pdfrwt>
<pdfrwt beam="2">  1       -2 0.10814947E-02 0.59577360E+02</pdfrwt>
<totfact> 0.38682694E+06</totfact>
</mgrwt>
<rwgt>
<wgt id='1001'> +1.5538000e-12 </wgt>
<wgt id='1002'> +1.5525314e-12 </wgt>
<wgt id='1003'> +1.5528028e-12 </wgt>
<wgt id='1004'> +1.5278958e-12 </wgt>
<wgt id='1005'> +1.5538000e-12 </wgt>
<wgt id='1006'> +1.3822268e-12 </wgt>
<wgt id='1007'> +1.3752261e-12 </wgt>
<wgt id='1008'> +1.3761901e-12 </wgt>
<wgt id='1009'> +1.3300869e-12 </wgt>
<wgt id='1010'> +1.3822268e-12 </wgt>
<wgt id='1011'> +1.7760845e-12 </wgt>
<wgt id='1012'> +1.7846657e-12 </wgt>
<wgt id='1013'> +1.7837337e-12 </wgt>
<wgt id='1014'> +1.7983812e-12 </wgt>
<wgt id='1015'> +1.7760845e-12 </wgt>
<wgt id='1016'> +1.7346915e-12 </wgt>
<wgt id='1017'> +1.7477473e-12 </wgt>
<wgt id='1018'> +1.7462332e-12 </wgt>
<wgt id='1019'> +1.7837337e-12 </wgt>
<wgt id='1020'> +1.7346915e-12 </wgt>
<wgt id='1021'> +1.5431440e-12 </wgt>
<wgt id='1022'> +1.5481476e-12 </wgt>
<wgt id='1023'> +1.5476201e-12 </wgt>
<wgt id='1024'> +1.5528028e-12 </wgt>
<wgt id='1025'> +1.5431440e-12 </wgt>
<wgt id='1026'> +1.9828541e-12 </wgt>
<wgt id='1027'> +2.0090702e-12 </wgt>
<wgt id='1028'> +2.0059308e-12 </wgt>
<wgt id='1029'> +2.0995103e-12 </wgt>
<wgt id='1030'> +1.9828541e-12 </wgt>
<wgt id='1031'> +1.3453629e-12 </wgt>
<wgt id='1032'> +1.3278308e-12 </wgt>
<wgt id='1033'> +1.3300869e-12 </wgt>
<wgt id='1034'> +1.2359123e-12 </wgt>
<wgt id='1035'> +1.3453629e-12 </wgt>
<wgt id='1036'> +1.1968057e-12 </wgt>
<wgt id='1037'> +1.1761872e-12 </wgt>
<wgt id='1038'> +1.1788055e-12 </wgt>
<wgt id='1039'> +1.0759050e-12 </wgt>
<wgt id='1040'> +1.1968057e-12 </wgt>
<wgt id='1041'> +1.5378287e-12 </wgt>
<wgt id='1042'> +1.5263678e-12 </wgt>
<wgt id='1043'> +1.5278958e-12 </wgt>
<wgt id='1044'> +1.4547074e-12 </wgt>
<wgt id='1045'> +1.5378287e-12 </wgt>
<wgt id='1046'> +1.5538000e-12 </wgt>
<wgt id='1047'> +1.5608195e-12 </wgt>
<wgt id='1048'> +1.5391176e-12 </wgt>
<wgt id='1049'> +1.5586235e-12 </wgt>
<wgt id='1050'> +1.5466100e-12 </wgt>
<wgt id='1051'> +1.5350754e-12 </wgt>
<wgt id='1052'> +1.5623421e-12 </wgt>
<wgt id='1053'> +1.5343960e-12 </wgt>
<wgt id='1054'> +1.5412776e-12 </wgt>
<wgt id='1055'> +1.5526645e-12 </wgt>
<wgt id='1056'> +1.5656353e-12 </wgt>
<wgt id='1057'> +1.5817166e-12 </wgt>
<wgt id='1058'> +1.5189333e-12 </wgt>
<wgt id='1059'> +1.5508052e-12 </wgt>
<wgt id='1060'> +1.5502115e-12 </wgt>
<wgt id='1061'> +1.5833592e-12 </wgt>
<wgt id='1062'> +1.5750304e-12 </wgt>
<wgt id='1063'> +1.5895680e-12 </wgt>
<wgt id='1064'> +1.5340246e-12 </wgt>
<wgt id='1065'> +1.5540776e-12 </wgt>
<wgt id='1066'> +1.5467738e-12 </wgt>
<wgt id='1067'> +1.5038764e-12 </wgt>
<wgt id='1068'> +1.5458241e-12 </wgt>
<wgt id='1069'> +1.5395315e-12 </wgt>
<wgt id='1070'> +1.5259105e-12 </wgt>
<wgt id='1071'> +1.5278858e-12 </wgt>
<wgt id='1072'> +1.5821992e-12 </wgt>
<wgt id='1073'> +1.6080694e-12 </wgt>
<wgt id='1074'> +1.5232238e-12 </wgt>
<wgt id='1075'> +1.5836509e-12 </wgt>
<wgt id='1076'> +1.5972250e-12 </wgt>
<wgt id='1077'> +1.5626310e-12 </wgt>
<wgt id='1078'> +1.5462409e-12 </wgt>
<wgt id='1079'> +1.5418225e-12 </wgt>
<wgt id='1080'> +1.5351957e-12 </wgt>
<wgt id='1081'> +1.5781485e-12 </wgt>
<wgt id='1082'> +1.5381510e-12 </wgt>
<wgt id='1083'> +1.5354451e-12 </wgt>
<wgt id='1084'> +1.5459935e-12 </wgt>
<wgt id='1085'> +1.5456298e-12 </wgt>
<wgt id='1086'> +1.5640211e-12 </wgt>
<wgt id='1087'> +1.5752991e-12 </wgt>
<wgt id='1088'> +1.5409062e-12 </wgt>
<wgt id='1089'> +1.5631082e-12 </wgt>
<wgt id='1090'> +1.5377914e-12 </wgt>
<wgt id='1091'> +1.5361777e-12 </wgt>
<wgt id='1092'> +1.5717637e-12 </wgt>
<wgt id='1093'> +1.5256752e-12 </wgt>
<wgt id='1094'> +1.5622761e-12 </wgt>
<wgt id='1095'> +1.5815921e-12 </wgt>
<wgt id='1096'> +1.5700795e-12 </wgt>
<wgt id='1097'> +1.5365451e-12 </wgt>
<wgt id='1098'> +1.5196278e-12 </wgt>
<wgt id='1099'> +1.5859450e-12 </wgt>
<wgt id='1100'> +1.5494517e-12 </wgt>
<wgt id='1101'> +1.5606048e-12 </wgt>
<wgt id='1102'> +1.5351838e-12 </wgt>
<wgt id='1103'> +1.5525574e-12 </wgt>
<wgt id='1104'> +1.5245618e-12 </wgt>
<wgt id='1105'> +1.6007750e-12 </wgt>
<wgt id='1106'> +1.5573967e-12 </wgt>
<wgt id='1107'> +1.5565556e-12 </wgt>
<wgt id='1108'> +1.5408908e-12 </wgt>
<wgt id='1109'> +1.5497526e-12 </wgt>
<wgt id='1110'> +1.5585458e-12 </wgt>
<wgt id='1111'> +1.5470852e-12 </wgt>
<wgt id='1112'> +1.5613473e-12 </wgt>
<wgt id='1113'> +1.5247264e-12 </wgt>
<wgt id='1114'> +1.5775905e-12 </wgt>
<wgt id='1115'> +1.5453000e-12 </wgt>
<wgt id='1116'> +1.5234298e-12 </wgt>
<wgt id='1117'> +1.5732379e-12 </wgt>
<wgt id='1118'> +1.5807715e-12 </wgt>
<wgt id='1119'> +1.5354298e-12 </wgt>
<wgt id='1120'> +1.5766666e-12 </wgt>
<wgt id='1121'> +1.5608903e-12 </wgt>
<wgt id='1122'> +1.6136586e-12 </wgt>
<wgt id='1123'> +1.5269930e-12 </wgt>
<wgt id='1124'> +1.5664871e-12 </wgt>
<wgt id='1125'> +1.5597595e-12 </wgt>
<wgt id='1126'> +1.5488255e-12 </wgt>
<wgt id='1127'> +1.5255709e-12 </wgt>
<wgt id='1128'> +1.5750304e-12 </wgt>
<wgt id='1129'> +1.5549523e-12 </wgt>
<wgt id='1130'> +1.5595206e-12 </wgt>
<wgt id='1131'> +1.5673000e-12 </wgt>
<wgt id='1132'> +1.5290411e-12 </wgt>
<wgt id='1133'> +1.5585584e-12 </wgt>
<wgt id='1134'> +1.5781129e-12 </wgt>
<wgt id='1135'> +1.5727311e-12 </wgt>
<wgt id='1136'> +1.5181639e-12 </wgt>
<wgt id='1137'> +1.5327957e-12 </wgt>
<wgt id='1138'> +1.5749340e-12 </wgt>
<wgt id='1139'> +1.5659677e-12 </wgt>
<wgt id='1140'> +1.5519057e-12 </wgt>
<wgt id='1141'> +1.5182391e-12 </wgt>
<wgt id='1142'> +1.5454916e-12 </wgt>
<wgt id='1143'> +1.5499269e-12 </wgt>
<wgt id='1144'> +1.5565443e-12 </wgt>
<wgt id='1145'> +1.5733490e-12 </wgt>
<wgt id='1146'> +1.5442852e-12 </wgt>
<wgt id='1147'> +1.2140903e-12 </wgt>
<wgt id='1148'> +1.2406345e-12 </wgt>
<wgt id='1149'> +1.3167611e-12 </wgt>
<wgt id='1150'> +1.2473635e-12 </wgt>
<wgt id='1151'> +1.1122054e-12 </wgt>
<wgt id='1152'> +1.4530521e-12 </wgt>
<wgt id='1153'> +1.4464530e-12 </wgt>
<wgt id='1154'> +1.4567978e-12 </wgt>
<wgt id='1155'> +1.4528490e-12 </wgt>
<wgt id='1156'> +1.4530927e-12 </wgt>
<wgt id='1157'> +1.4547065e-12 </wgt>
<wgt id='1158'> +1.4506526e-12 </wgt>
<wgt id='1159'> +1.4544614e-12 </wgt>
<wgt id='1160'> +1.4520700e-12 </wgt>
<wgt id='1161'> +1.4490462e-12 </wgt>
<wgt id='1162'> +1.4557401e-12 </wgt>
<wgt id='1163'> +1.4568939e-12 </wgt>
<wgt id='1164'> +1.4490996e-12 </wgt>
<wgt id='1165'> +1.4443809e-12 </wgt>
<wgt id='1166'> +1.4613124e-12 </wgt>
<wgt id='1167'> +1.4599442e-12 </wgt>
<wgt id='1168'> +1.4429664e-12 </wgt>
<wgt id='1169'> +1.4548942e-12 </wgt>
<wgt id='1170'> +1.4515027e-12 </wgt>
<wgt id='1171'> +1.4517385e-12 </wgt>
<wgt id='1172'> +1.4544406e-12 </wgt>
<wgt id='1173'> +1.4482234e-12 </wgt>
<wgt id='1174'> +1.4571417e-12 </wgt>
<wgt id='1175'> +1.4511009e-12 </wgt>
<wgt id='1176'> +1.4538107e-12 </wgt>
<wgt id='1177'> +1.4531256e-12 </wgt>
<wgt id='1178'> +1.4530040e-12 </wgt>
<wgt id='1179'> +1.4655832e-12 </wgt>
<wgt id='1180'> +1.4361782e-12 </wgt>
<wgt id='1181'> +1.4473536e-12 </wgt>
<wgt id='1182'> +1.4583633e-12 </wgt>
<wgt id='1183'> +1.4520105e-12 </wgt>
<wgt id='1184'> +1.4530862e-12 </wgt>
<wgt id='1185'> +1.4481492e-12 </wgt>
<wgt id='1186'> +1.4554177e-12 </wgt>
<wgt id='1187'> +1.4520184e-12 </wgt>
<wgt id='1188'> +1.4533594e-12 </wgt>
<wgt id='1189'> +1.4512223e-12 </wgt>
<wgt id='1190'> +1.4371889e-12 </wgt>
<wgt id='1191'> +1.4468552e-12 </wgt>
<wgt id='1192'> +1.4573077e-12 </wgt>
<wgt id='1193'> +1.2733363e-12 </wgt>
<wgt id='1194'> +1.2696849e-12 </wgt>
<wgt id='1195'> +1.2762954e-12 </wgt>
<wgt id='1196'> +1.2779362e-12 </wgt>
<wgt id='1197'> +1.2682586e-12 </wgt>
<wgt id='1198'> +1.2740387e-12 </wgt>
<wgt id='1199'> +1.2723133e-12 </wgt>
<wgt id='1200'> +1.2751134e-12 </wgt>
<wgt id='1201'> +1.2721610e-12 </wgt>
<wgt id='1202'> +1.2711753e-12 </wgt>
<wgt id='1203'> +1.2764383e-12 </wgt>
<wgt id='1204'> +1.2606303e-12 </wgt>
<wgt id='1205'> +1.2812166e-12 </wgt>
<wgt id='1206'> +1.2778424e-12 </wgt>
<wgt id='1207'> +1.2671215e-12 </wgt>
<wgt id='1208'> +1.2668851e-12 </wgt>
<wgt id='1209'> +1.2757154e-12 </wgt>
<wgt id='1210'> +1.2720946e-12 </wgt>
<wgt id='1211'> +1.2665946e-12 </wgt>
<wgt id='1212'> +1.2736261e-12 </wgt>
<wgt id='1213'> +1.2730326e-12 </wgt>
<wgt id='1214'> +1.2606523e-12 </wgt>
<wgt id='1215'> +1.2928642e-12 </wgt>
<wgt id='1216'> +1.2791779e-12 </wgt>
<wgt id='1217'> +1.2691438e-12 </wgt>
<wgt id='1218'> +1.2763913e-12 </wgt>
<wgt id='1219'> +1.2716160e-12 </wgt>
<wgt id='1220'> +1.2771789e-12 </wgt>
<wgt id='1221'> +1.2734186e-12 </wgt>
<wgt id='1222'> +1.2712709e-12 </wgt>
<wgt id='1223'> +1.2778260e-12 </wgt>
<wgt id='1224'> +1.2747613e-12 </wgt>
<wgt id='1225'> +1.2728239e-12 </wgt>
<wgt id='1226'> +1.2719259e-12 </wgt>
<wgt id='1227'> +1.2744080e-12 </wgt>
<wgt id='1228'> +1.2698419e-12 </wgt>
<wgt id='1229'> +1.2748000e-12 </wgt>
<wgt id='1230'> +1.2768300e-12 </wgt>
<wgt id='1231'> +1.2633944e-12 </wgt>
<wgt id='1232'> +1.2720005e-12 </wgt>
<wgt id='1233'> +1.2737498e-12 </wgt>
<wgt id='1234'> +1.2733363e-12 </wgt>
<wgt id='1235'> +1.2656910e-12 </wgt>
<wgt id='1236'> +1.2686249e-12 </wgt>
<wgt id='1237'> +1.2712128e-12 </wgt>
<wgt id='1238'> +1.2757234e-12 </wgt>
<wgt id='1239'> +1.2775583e-12 </wgt>
<wgt id='1240'> +1.2792485e-12 </wgt>
<wgt id='1241'> +1.2983114e-12 </wgt>
<wgt id='1242'> +1.2918026e-12 </wgt>
<wgt id='1243'> +1.3047262e-12 </wgt>
<wgt id='1244'> +1.2922719e-12 </wgt>
<wgt id='1245'> +1.3027496e-12 </wgt>
<wgt id='1246'> +1.2990439e-12 </wgt>
<wgt id='1247'> +1.2976948e-12 </wgt>
<wgt id='1248'> +1.2981849e-12 </wgt>
<wgt id='1249'> +1.2983708e-12 </wgt>
<wgt id='1250'> +1.2985391e-12 </wgt>
<wgt id='1251'> +1.2981296e-12 </wgt>
<wgt id='1252'> +1.2953467e-12 </wgt>
<wgt id='1253'> +1.3006186e-12 </wgt>
<wgt id='1254'> +1.2859686e-12 </wgt>
<wgt id='1255'> +1.3057279e-12 </wgt>
<wgt id='1256'> +1.3023702e-12 </wgt>
<wgt id='1257'> +1.2881297e-12 </wgt>
<wgt id='1258'> +1.3142222e-12 </wgt>
<wgt id='1259'> +1.2830809e-12 </wgt>
<wgt id='1260'> +1.3018135e-12 </wgt>
<wgt id='1261'> +1.2944561e-12 </wgt>
<wgt id='1262'> +1.2999899e-12 </wgt>
<wgt id='1263'> +1.2974727e-12 </wgt>
<wgt id='1264'> +1.3021007e-12 </wgt>
<wgt id='1265'> +1.2964283e-12 </wgt>
<wgt id='1266'> +1.2977770e-12 </wgt>
<wgt id='1267'> +1.2996567e-12 </wgt>
<wgt id='1268'> +1.2977139e-12 </wgt>
<wgt id='1269'> +1.3030481e-12 </wgt>
<wgt id='1270'> +1.2944565e-12 </wgt>
<wgt id='1271'> +1.2932199e-12 </wgt>
<wgt id='1272'> +1.2996621e-12 </wgt>
<wgt id='1273'> +1.2975545e-12 </wgt>
<wgt id='1274'> +1.2998677e-12 </wgt>
<wgt id='1275'> +1.2949175e-12 </wgt>
<wgt id='1276'> +1.2999560e-12 </wgt>
<wgt id='1277'> +1.2958108e-12 </wgt>
<wgt id='1278'> +1.2965213e-12 </wgt>
<wgt id='1279'> +1.2979036e-12 </wgt>
<wgt id='1280'> +1.2988260e-12 </wgt>
<wgt id='1281'> +1.2964025e-12 </wgt>
<wgt id='1282'> +1.2983114e-12 </wgt>
<wgt id='1283'> +1.2894580e-12 </wgt>
<wgt id='1284'> +1.2929118e-12 </wgt>
<wgt id='1285'> +1.2958832e-12 </wgt>
<wgt id='1286'> +1.3008254e-12 </wgt>
<wgt id='1287'> +1.3027932e-12 </wgt>
<wgt id='1288'> +1.3044722e-12 </wgt>
<wgt id='1289'> +1.3063211e-12 </wgt>
<wgt id='1290'> +1.3116119e-12 </wgt>
<wgt id='1291'> +1.3005491e-12 </wgt>
<wgt id='1292'> +1.3023488e-12 </wgt>
<wgt id='1293'> +1.3091337e-12 </wgt>
<wgt id='1294'> +1.3067951e-12 </wgt>
<wgt id='1295'> +1.3057602e-12 </wgt>
<wgt id='1296'> +1.3009355e-12 </wgt>
<wgt id='1297'> +1.3128319e-12 </wgt>
<wgt id='1298'> +1.3116910e-12 </wgt>
<wgt id='1299'> +1.2995327e-12 </wgt>
<wgt id='1300'> +1.3095471e-12 </wgt>
<wgt id='1301'> +1.2997717e-12 </wgt>
<wgt id='1302'> +1.3051968e-12 </wgt>
<wgt id='1303'> +1.3077322e-12 </wgt>
<wgt id='1304'> +1.3037872e-12 </wgt>
<wgt id='1305'> +1.3079949e-12 </wgt>
<wgt id='1306'> +1.3023371e-12 </wgt>
<wgt id='1307'> +1.3107809e-12 </wgt>
<wgt id='1308'> +1.3163091e-12 </wgt>
<wgt id='1309'> +1.2986179e-12 </wgt>
<wgt id='1310'> +1.3046118e-12 </wgt>
<wgt id='1311'> +1.3082108e-12 </wgt>
<wgt id='1312'> +1.3040169e-12 </wgt>
<wgt id='1313'> +1.3088400e-12 </wgt>
<wgt id='1314'> +1.3093426e-12 </wgt>
<wgt id='1315'> +1.2967733e-12 </wgt>
<wgt id='1316'> +1.3127743e-12 </wgt>
<wgt id='1317'> +1.3063894e-12 </wgt>
<wgt id='1318'> +1.3141055e-12 </wgt>
<wgt id='1319'> +1.2965306e-12 </wgt>
<wgt id='1320'> +1.3103222e-12 </wgt>
<wgt id='1321'> +1.3016369e-12 </wgt>
<wgt id='1322'> +1.3060115e-12 </wgt>
<wgt id='1323'> +1.3063202e-12 </wgt>
<wgt id='1324'> +1.3042797e-12 </wgt>
<wgt id='1325'> +1.3147616e-12 </wgt>
<wgt id='1326'> +1.3062011e-12 </wgt>
<wgt id='1327'> +1.3083549e-12 </wgt>
<wgt id='1328'> +1.3065835e-12 </wgt>
<wgt id='1329'> +1.3058225e-12 </wgt>
<wgt id='1330'> +1.2837495e-12 </wgt>
<wgt id='1331'> +1.3195561e-12 </wgt>
<wgt id='1332'> +1.3264489e-12 </wgt>
<wgt id='1333'> +1.2938232e-12 </wgt>
<wgt id='1334'> +1.3021220e-12 </wgt>
<wgt id='1335'> +1.3163506e-12 </wgt>
<wgt id='1336'> +1.3083559e-12 </wgt>
<wgt id='1337'> +1.2980093e-12 </wgt>
<wgt id='1338'> +1.3066541e-12 </wgt>
<wgt id='1339'> +1.3058044e-12 </wgt>
<wgt id='1340'> +1.2813915e-12 </wgt>
<wgt id='1341'> +1.2868827e-12 </wgt>
<wgt id='1342'> +1.2755895e-12 </wgt>
<wgt id='1343'> +1.2774792e-12 </wgt>
<wgt id='1344'> +1.2841024e-12 </wgt>
<wgt id='1345'> +1.2817511e-12 </wgt>
<wgt id='1346'> +1.2811581e-12 </wgt>
<wgt id='1347'> +1.2761672e-12 </wgt>
<wgt id='1348'> +1.2873162e-12 </wgt>
<wgt id='1349'> +1.2861751e-12 </wgt>
<wgt id='1350'> +1.2766945e-12 </wgt>
<wgt id='1351'> +1.2846703e-12 </wgt>
<wgt id='1352'> +1.2742682e-12 </wgt>
<wgt id='1353'> +1.2799459e-12 </wgt>
<wgt id='1354'> +1.2842123e-12 </wgt>
<wgt id='1355'> +1.2791085e-12 </wgt>
<wgt id='1356'> +1.2827136e-12 </wgt>
<wgt id='1357'> +1.2802962e-12 </wgt>
<wgt id='1358'> +1.2829531e-12 </wgt>
<wgt id='1359'> +1.2925643e-12 </wgt>
<wgt id='1360'> +1.2718473e-12 </wgt>
<wgt id='1361'> +1.2798007e-12 </wgt>
<wgt id='1362'> +1.2838153e-12 </wgt>
<wgt id='1363'> +1.2782391e-12 </wgt>
<wgt id='1364'> +1.2840131e-12 </wgt>
<wgt id='1365'> +1.2727187e-12 </wgt>
<wgt id='1366'> +1.2834826e-12 </wgt>
<wgt id='1367'> +1.2872335e-12 </wgt>
<wgt id='1368'> +1.2812380e-12 </wgt>
<wgt id='1369'> +1.2884156e-12 </wgt>
<wgt id='1370'> +1.2729598e-12 </wgt>
<wgt id='1371'> +1.2847240e-12 </wgt>
<wgt id='1372'> +1.2765481e-12 </wgt>
<wgt id='1373'> +1.2805494e-12 </wgt>
<wgt id='1374'> +1.2818064e-12 </wgt>
<wgt id='1375'> +1.2795953e-12 </wgt>
<wgt id='1376'> +1.2897267e-12 </wgt>
<wgt id='1377'> +1.2814815e-12 </wgt>
<wgt id='1378'> +1.2837201e-12 </wgt>
<wgt id='1379'> +1.2813872e-12 </wgt>
<wgt id='1380'> +1.2813014e-12 </wgt>
<wgt id='1381'> +1.2577778e-12 </wgt>
<wgt id='1382'> +1.2939621e-12 </wgt>
<wgt id='1383'> +1.3021765e-12 </wgt>
<wgt id='1384'> +1.2664273e-12 </wgt>
<wgt id='1385'> +1.2769463e-12 </wgt>
<wgt id='1386'> +1.2914237e-12 </wgt>
<wgt id='1387'> +1.2838214e-12 </wgt>
<wgt id='1388'> +1.2708865e-12 </wgt>
<wgt id='1389'> +1.2819294e-12 </wgt>
<wgt id='1390'> +1.2806010e-12 </wgt>
<wgt id='1391'> +1.2532719e-12 </wgt>
<wgt id='1392'> +1.2202399e-12 </wgt>
<wgt id='1393'> +1.2304435e-12 </wgt>
<wgt id='1394'> +1.2416782e-12 </wgt>
<wgt id='1395'> +1.2617932e-12 </wgt>
<wgt id='1396'> +1.2524555e-12 </wgt>
<wgt id='1397'> +1.2235577e-12 </wgt>
<wgt id='1398'> +1.2295465e-12 </wgt>
<wgt id='1399'> +1.2351433e-12 </wgt>
<wgt id='1400'> +1.2406957e-12 </wgt>
<wgt id='1401'> +1.2465630e-12 </wgt>
<wgt id='1402'> +1.2573334e-12 </wgt>
<wgt id='1403'> +1.2627227e-12 </wgt>
<wgt id='1404'> +1.2674375e-12 </wgt>
<wgt id='1405'> +1.2524555e-12 </wgt>
<wgt id='1406'> +1.2484222e-12 </wgt>
<wgt id='1407'> +1.2506698e-12 </wgt>
<wgt id='1408'> +1.2541560e-12 </wgt>
<wgt id='1409'> +1.2553492e-12 </wgt>
<wgt id='1410'> +1.2730055e-12 </wgt>
<wgt id='1411'> +1.2766710e-12 </wgt>
<wgt id='1412'> +1.2683288e-12 </wgt>
<wgt id='1413'> +1.2789221e-12 </wgt>
<wgt id='1414'> +1.2671166e-12 </wgt>
<wgt id='1415'> +1.2688573e-12 </wgt>
<wgt id='1416'> +1.2746917e-12 </wgt>
<wgt id='1417'> +1.2651390e-12 </wgt>
<wgt id='1418'> +1.2807766e-12 </wgt>
<wgt id='1419'> +1.2745919e-12 </wgt>
<wgt id='1420'> +1.2714352e-12 </wgt>
<wgt id='1421'> +1.2609193e-12 </wgt>
<wgt id='1422'> +1.2782422e-12 </wgt>
<wgt id='1423'> +1.2727466e-12 </wgt>
<wgt id='1424'> +1.2732714e-12 </wgt>
<wgt id='1425'> +1.2695305e-12 </wgt>
<wgt id='1426'> +1.2767745e-12 </wgt>
<wgt id='1427'> +1.2762782e-12 </wgt>
<wgt id='1428'> +1.2709512e-12 </wgt>
<wgt id='1429'> +1.2662685e-12 </wgt>
<wgt id='1430'> +1.2820505e-12 </wgt>
<wgt id='1431'> +1.2789611e-12 </wgt>
<wgt id='1432'> +1.2687201e-12 </wgt>
<wgt id='1433'> +1.2793311e-12 </wgt>
<wgt id='1434'> +1.2653879e-12 </wgt>
<wgt id='1435'> +1.2753973e-12 </wgt>
<wgt id='1436'> +1.2671560e-12 </wgt>
<wgt id='1437'> +1.2796348e-12 </wgt>
<wgt id='1438'> +1.2721945e-12 </wgt>
<wgt id='1439'> +1.2675757e-12 </wgt>
<wgt id='1440'> +1.2848927e-12 </wgt>
<wgt id='1441'> +1.2737133e-12 </wgt>
<wgt id='1442'> +1.2721067e-12 </wgt>
<wgt id='1443'> +1.2710873e-12 </wgt>
<wgt id='1444'> +1.2781201e-12 </wgt>
<wgt id='1445'> +1.2821498e-12 </wgt>
<wgt id='1446'> +1.2701197e-12 </wgt>
<wgt id='1447'> +1.2739871e-12 </wgt>
<wgt id='1448'> +1.2739160e-12 </wgt>
<wgt id='1449'> +1.2734080e-12 </wgt>
<wgt id='1450'> +1.2724471e-12 </wgt>
<wgt id='1451'> +1.2807576e-12 </wgt>
<wgt id='1452'> +1.2510814e-12 </wgt>
<wgt id='1453'> +1.2751544e-12 </wgt>
<wgt id='1454'> +1.2594095e-12 </wgt>
<wgt id='1455'> +1.2582982e-12 </wgt>
<wgt id='1456'> +1.2825315e-12 </wgt>
<wgt id='1457'> +1.2809326e-12 </wgt>
<wgt id='1458'> +1.2696879e-12 </wgt>
<wgt id='1459'> +1.2752753e-12 </wgt>
<wgt id='1460'> +1.2713302e-12 </wgt>
<wgt id='1461'> +1.2730055e-12 </wgt>
<wgt id='1462'> +1.2645586e-12 </wgt>
<wgt id='1463'> +1.2822682e-12 </wgt>
<wgt id='1464'> +1.2735916e-12 </wgt>
<wgt id='1465'> +1.2504924e-12 </wgt>
<wgt id='1466'> +1.2552953e-12 </wgt>
<wgt id='1467'> +1.2603529e-12 </wgt>
<wgt id='1468'> +1.2646265e-12 </wgt>
<wgt id='1469'> +1.2691969e-12 </wgt>
<wgt id='1470'> +1.2784689e-12 </wgt>
<wgt id='1471'> +1.2821356e-12 </wgt>
<wgt id='1472'> +1.2865640e-12 </wgt>
<wgt id='1473'> +1.2735916e-12 </wgt>
<wgt id='1474'> +1.2690079e-12 </wgt>
<wgt id='1475'> +1.2708441e-12 </wgt>
<wgt id='1476'> +1.2755069e-12 </wgt>
<wgt id='1477'> +1.2773596e-12 </wgt>
<wgt id='1478'> +1.2342147e-12 </wgt>
<wgt id='1479'> +1.2329943e-12 </wgt>
<wgt id='1480'> +1.2372607e-12 </wgt>
<wgt id='1481'> +1.2286054e-12 </wgt>
<wgt id='1482'> +1.2334875e-12 </wgt>
<wgt id='1483'> +1.2169893e-12 </wgt>
<wgt id='1484'> +1.2340000e-12 </wgt>
<wgt id='1485'> +1.2354198e-12 </wgt>
<wgt id='1486'> +1.2349553e-12 </wgt>
<wgt id='1487'> +1.2376814e-12 </wgt>
<wgt id='1488'> +1.2303716e-12 </wgt>
<wgt id='1489'> +1.2561679e-12 </wgt>
<wgt id='1490'> +1.2331647e-12 </wgt>
<wgt id='1491'> +1.2322631e-12 </wgt>
<wgt id='1492'> +1.2350307e-12 </wgt>
<wgt id='1493'> +1.2306015e-12 </wgt>
<wgt id='1494'> +1.2526197e-12 </wgt>
<wgt id='1495'> +1.2304589e-12 </wgt>
<wgt id='1496'> +1.2328724e-12 </wgt>
<wgt id='1497'> +1.2350935e-12 </wgt>
<wgt id='1498'> +1.2333861e-12 </wgt>
<wgt id='1499'> +1.2358570e-12 </wgt>
<wgt id='1500'> +1.2356727e-12 </wgt>
<wgt id='1501'> +1.2333550e-12 </wgt>
<wgt id='1502'> +1.2328444e-12 </wgt>
<wgt id='1503'> +1.2375489e-12 </wgt>
<wgt id='1504'> +1.2327815e-12 </wgt>
<wgt id='1505'> +1.2346585e-12 </wgt>
<wgt id='1506'> +1.2327505e-12 </wgt>
<wgt id='1507'> +1.2328134e-12 </wgt>
<wgt id='1508'> +1.2401104e-12 </wgt>
<wgt id='1509'> +1.3025207e-12 </wgt>
<wgt id='1510'> +1.3006119e-12 </wgt>
<wgt id='1511'> +1.3064985e-12 </wgt>
<wgt id='1512'> +1.3044902e-12 </wgt>
<wgt id='1513'> +1.3105342e-12 </wgt>
<wgt id='1514'> +1.3008937e-12 </wgt>
<wgt id='1515'> +1.2976055e-12 </wgt>
<wgt id='1516'> +1.2996015e-12 </wgt>
<wgt id='1517'> +1.2986497e-12 </wgt>
<wgt id='1518'> +1.3083972e-12 </wgt>
<wgt id='1519'> +1.2989032e-12 </wgt>
<wgt id='1520'> +1.3033513e-12 </wgt>
<wgt id='1521'> +1.3101693e-12 </wgt>
<wgt id='1522'> +1.3079787e-12 </wgt>
<wgt id='1523'> +1.3104222e-12 </wgt>
<wgt id='1524'> +1.3041227e-12 </wgt>
<wgt id='1525'> +1.3030403e-12 </wgt>
<wgt id='1526'> +1.3005922e-12 </wgt>
<wgt id='1527'> +1.3064448e-12 </wgt>
<wgt id='1528'> +1.3062194e-12 </wgt>
<wgt id='1529'> +1.3087407e-12 </wgt>
<wgt id='1530'> +1.3044410e-12 </wgt>
<wgt id='1531'> +1.3052520e-12 </wgt>
<wgt id='1532'> +1.3055794e-12 </wgt>
<wgt id='1533'> +1.3015180e-12 </wgt>
<wgt id='1534'> +1.3060747e-12 </wgt>
<wgt id='1535'> +1.2970153e-12 </wgt>
<wgt id='1536'> +1.2986825e-12 </wgt>
<wgt id='1537'> +1.3031721e-12 </wgt>
<wgt id='1538'> +1.3018913e-12 </wgt>
<wgt id='1539'> +1.3031969e-12 </wgt>
<wgt id='1540'> +1.3031334e-12 </wgt>
<wgt id='1541'> +1.3020787e-12 </wgt>
<wgt id='1542'> +1.3039363e-12 </wgt>
<wgt id='1543'> +1.3021286e-12 </wgt>
<wgt id='1544'> +1.3007983e-12 </wgt>
<wgt id='1545'> +1.3024190e-12 </wgt>
<wgt id='1546'> +1.3030658e-12 </wgt>
<wgt id='1547'> +1.3027060e-12 </wgt>
<wgt id='1548'> +1.3010063e-12 </wgt>
<wgt id='1549'> +1.3004540e-12 </wgt>
<wgt id='1550'> +1.3027371e-12 </wgt>
<wgt id='1551'> +1.3010278e-12 </wgt>
<wgt id='1552'> +1.3027135e-12 </wgt>
<wgt id='1553'> +1.3019695e-12 </wgt>
<wgt id='1554'> +1.3022906e-12 </wgt>
<wgt id='1555'> +1.3033224e-12 </wgt>
<wgt id='1556'> +1.3031541e-12 </wgt>
<wgt id='1557'> +1.3019415e-12 </wgt>
<wgt id='1558'> +1.3016745e-12 </wgt>
<wgt id='1559'> +1.3026449e-12 </wgt>
<wgt id='1560'> +1.3021311e-12 </wgt>
<wgt id='1561'> +1.3033846e-12 </wgt>
<wgt id='1562'> +1.3029379e-12 </wgt>
<wgt id='1563'> +1.3027676e-12 </wgt>
<wgt id='1564'> +1.3030606e-12 </wgt>
<wgt id='1565'> +1.3027800e-12 </wgt>
<wgt id='1566'> +1.3024307e-12 </wgt>
<wgt id='1567'> +1.3030362e-12 </wgt>
<wgt id='1568'> +1.3021871e-12 </wgt>
<wgt id='1569'> +1.3015447e-12 </wgt>
<wgt id='1570'> +1.3031596e-12 </wgt>
<wgt id='1571'> +1.3021314e-12 </wgt>
<wgt id='1572'> +1.3031718e-12 </wgt>
<wgt id='1573'> +1.3022044e-12 </wgt>
<wgt id='1574'> +1.3028722e-12 </wgt>
<wgt id='1575'> +1.3026107e-12 </wgt>
<wgt id='1576'> +1.3027721e-12 </wgt>
<wgt id='1577'> +1.3021588e-12 </wgt>
<wgt id='1578'> +1.3021073e-12 </wgt>
<wgt id='1579'> +1.3030052e-12 </wgt>
<wgt id='1580'> +1.3022078e-12 </wgt>
<wgt id='1581'> +1.3024424e-12 </wgt>
<wgt id='1582'> +1.3025277e-12 </wgt>
<wgt id='1583'> +1.3027464e-12 </wgt>
<wgt id='1584'> +1.3023267e-12 </wgt>
<wgt id='1585'> +1.3024170e-12 </wgt>
<wgt id='1586'> +1.3023826e-12 </wgt>
<wgt id='1587'> +1.3024812e-12 </wgt>
<wgt id='1588'> +1.3023898e-12 </wgt>
<wgt id='1589'> +1.3025688e-12 </wgt>
<wgt id='1590'> +1.3026621e-12 </wgt>
<wgt id='1591'> +1.3026101e-12 </wgt>
<wgt id='1592'> +1.3028643e-12 </wgt>
<wgt id='1593'> +1.3027599e-12 </wgt>
<wgt id='1594'> +1.3023395e-12 </wgt>
<wgt id='1595'> +1.3020640e-12 </wgt>
<wgt id='1596'> +1.3020728e-12 </wgt>
<wgt id='1597'> +1.3023898e-12 </wgt>
<wgt id='1598'> +1.3022765e-12 </wgt>
<wgt id='1599'> +1.3022731e-12 </wgt>
<wgt id='1600'> +1.3019850e-12 </wgt>
<wgt id='1601'> +1.3022930e-12 </wgt>
<wgt id='1602'> +1.3027254e-12 </wgt>
<wgt id='1603'> +1.3026413e-12 </wgt>
<wgt id='1604'> +1.3022396e-12 </wgt>
<wgt id='1605'> +1.3023122e-12 </wgt>
<wgt id='1606'> +1.3023542e-12 </wgt>
<wgt id='1607'> +1.3024641e-12 </wgt>
<wgt id='1608'> +1.3023483e-12 </wgt>
<wgt id='1609'> +1.3022438e-12 </wgt>
<wgt id='1610'> +1.2816211e-12 </wgt>
<wgt id='1611'> +1.3220334e-12 </wgt>
<wgt id='1612'> +1.4968659e-12 </wgt>
<wgt id='1613'> +1.4908783e-12 </wgt>
<wgt id='1614'> +1.5125208e-12 </wgt>
<wgt id='1615'> +1.4673562e-12 </wgt>
<wgt id='1616'> +1.5519643e-12 </wgt>
<wgt id='1617'> +1.5198039e-12 </wgt>
<wgt id='1618'> +1.4579723e-12 </wgt>
<wgt id='1619'> +1.5213075e-12 </wgt>
<wgt id='1620'> +1.4785579e-12 </wgt>
<wgt id='1621'> +1.4929381e-12 </wgt>
<wgt id='1622'> +1.4842877e-12 </wgt>
<wgt id='1623'> +1.5254655e-12 </wgt>
<wgt id='1624'> +1.4773225e-12 </wgt>
<wgt id='1625'> +1.4784517e-12 </wgt>
<wgt id='1626'> +1.4872591e-12 </wgt>
<wgt id='1627'> +1.4824485e-12 </wgt>
<wgt id='1628'> +1.5078268e-12 </wgt>
<wgt id='1629'> +1.5330021e-12 </wgt>
<wgt id='1630'> +1.5128449e-12 </wgt>
<wgt id='1631'> +1.4781929e-12 </wgt>
<wgt id='1632'> +1.4730456e-12 </wgt>
<wgt id='1633'> +1.4634288e-12 </wgt>
<wgt id='1634'> +1.5335969e-12 </wgt>
<wgt id='1635'> +1.5021419e-12 </wgt>
<wgt id='1636'> +1.5162575e-12 </wgt>
<wgt id='1637'> +1.4570176e-12 </wgt>
<wgt id='1638'> +1.4956248e-12 </wgt>
<wgt id='1639'> +1.5253794e-12 </wgt>
<wgt id='1640'> +1.5152376e-12 </wgt>
<wgt id='1641'> +1.4903020e-12 </wgt>
<wgt id='1642'> +1.4851342e-12 </wgt>
<wgt id='1643'> +1.5345506e-12 </wgt>
<wgt id='1644'> +1.4283785e-12 </wgt>
<wgt id='1645'> +1.4913259e-12 </wgt>
<wgt id='1646'> +1.5196262e-12 </wgt>
<wgt id='1647'> +1.5091081e-12 </wgt>
<wgt id='1648'> +1.4972430e-12 </wgt>
<wgt id='1649'> +1.4984915e-12 </wgt>
<wgt id='1650'> +1.4863869e-12 </wgt>
<wgt id='1651'> +1.4754787e-12 </wgt>
<wgt id='1652'> +1.5039775e-12 </wgt>
<wgt id='1653'> +1.5114237e-12 </wgt>
<wgt id='1654'> +1.4883740e-12 </wgt>
<wgt id='1655'> +1.4715047e-12 </wgt>
<wgt id='1656'> +1.4470487e-12 </wgt>
<wgt id='1657'> +1.4735908e-12 </wgt>
<wgt id='1658'> +1.4725034e-12 </wgt>
<wgt id='1659'> +1.4773225e-12 </wgt>
<wgt id='1660'> +1.4823576e-12 </wgt>
<wgt id='1661'> +1.4949239e-12 </wgt>
<wgt id='1662'> +1.4864325e-12 </wgt>
<wgt id='1663'> +1.5151645e-12 </wgt>
<wgt id='1664'> +1.4828878e-12 </wgt>
<wgt id='1665'> +1.4588717e-12 </wgt>
<wgt id='1666'> +1.5156343e-12 </wgt>
<wgt id='1667'> +1.5000368e-12 </wgt>
<wgt id='1668'> +1.5437182e-12 </wgt>
<wgt id='1669'> +1.4416611e-12 </wgt>
<wgt id='1670'> +1.5063749e-12 </wgt>
<wgt id='1671'> +1.4851527e-12 </wgt>
<wgt id='1672'> +1.4902747e-12 </wgt>
<wgt id='1673'> +1.5001444e-12 </wgt>
<wgt id='1674'> +1.4779284e-12 </wgt>
<wgt id='1675'> +1.5136060e-12 </wgt>
<wgt id='1676'> +1.5139565e-12 </wgt>
<wgt id='1677'> +1.5605034e-12 </wgt>
<wgt id='1678'> +1.4882183e-12 </wgt>
<wgt id='1679'> +1.5309151e-12 </wgt>
<wgt id='1680'> +1.4944560e-12 </wgt>
<wgt id='1681'> +1.5127612e-12 </wgt>
<wgt id='1682'> +1.5062445e-12 </wgt>
<wgt id='1683'> +1.4854394e-12 </wgt>
<wgt id='1684'> +1.4921826e-12 </wgt>
<wgt id='1685'> +1.4738541e-12 </wgt>
<wgt id='1686'> +1.4975016e-12 </wgt>
<wgt id='1687'> +1.5398264e-12 </wgt>
<wgt id='1688'> +1.4997467e-12 </wgt>
<wgt id='1689'> +1.4785191e-12 </wgt>
<wgt id='1690'> +1.4901586e-12 </wgt>
<wgt id='1691'> +1.5200793e-12 </wgt>
<wgt id='1692'> +1.5304605e-12 </wgt>
<wgt id='1693'> +1.5351715e-12 </wgt>
<wgt id='1694'> +1.4384804e-12 </wgt>
<wgt id='1695'> +1.5179542e-12 </wgt>
<wgt id='1696'> +1.5334838e-12 </wgt>
<wgt id='1697'> +1.5025344e-12 </wgt>
<wgt id='1698'> +1.4788436e-12 </wgt>
<wgt id='1699'> +1.4972920e-12 </wgt>
<wgt id='1700'> +1.4831937e-12 </wgt>
<wgt id='1701'> +1.5157085e-12 </wgt>
<wgt id='1702'> +1.4990446e-12 </wgt>
<wgt id='1703'> +1.5126536e-12 </wgt>
<wgt id='1704'> +1.4813563e-12 </wgt>
<wgt id='1705'> +1.4859738e-12 </wgt>
<wgt id='1706'> +1.4865998e-12 </wgt>
<wgt id='1707'> +1.5155360e-12 </wgt>
<wgt id='1708'> +1.4796108e-12 </wgt>
<wgt id='1709'> +1.4853724e-12 </wgt>
<wgt id='1710'> +1.4887671e-12 </wgt>
<wgt id='1711'> +1.5552025e-12 </wgt>
<wgt id='1712'> +1.4830251e-12 </wgt>
<wgt id='1713'> +1.2294723e-12 </wgt>
<wgt id='1714'> +1.2050157e-12 </wgt>
<wgt id='1715'> +1.2330582e-12 </wgt>
<wgt id='1716'> +1.2408917e-12 </wgt>
<wgt id='1717'> +1.2352148e-12 </wgt>
<wgt id='1718'> +1.2227493e-12 </wgt>
<wgt id='1719'> +1.2531041e-12 </wgt>
<wgt id='1720'> +1.2343405e-12 </wgt>
<wgt id='1721'> +1.2169555e-12 </wgt>
<wgt id='1722'> +1.2182954e-12 </wgt>
<wgt id='1723'> +1.1798667e-12 </wgt>
<wgt id='1724'> +1.1062688e-12 </wgt>
<wgt id='1725'> +1.2686524e-12 </wgt>
<wgt id='1726'> +1.2860091e-12 </wgt>
<wgt id='1727'> +1.1899985e-12 </wgt>
<wgt id='1728'> +1.2260613e-12 </wgt>
<wgt id='1729'> +1.2236262e-12 </wgt>
<wgt id='1730'> +1.2096886e-12 </wgt>
<wgt id='1731'> +1.2020114e-12 </wgt>
<wgt id='1732'> +1.2536784e-12 </wgt>
<wgt id='1733'> +1.2444356e-12 </wgt>
<wgt id='1734'> +1.2550948e-12 </wgt>
<wgt id='1735'> +1.1788218e-12 </wgt>
<wgt id='1736'> +1.3080706e-12 </wgt>
<wgt id='1737'> +1.2593346e-12 </wgt>
<wgt id='1738'> +1.2399159e-12 </wgt>
<wgt id='1739'> +1.2384059e-12 </wgt>
<wgt id='1740'> +1.2055025e-12 </wgt>
<wgt id='1741'> +1.2342336e-12 </wgt>
<wgt id='1742'> +1.2205326e-12 </wgt>
<wgt id='1743'> +1.2545871e-12 </wgt>
<wgt id='1744'> +1.2652037e-12 </wgt>
<wgt id='1745'> +1.1454996e-12 </wgt>
<wgt id='1746'> +1.2587669e-12 </wgt>
<wgt id='1747'> +1.2589396e-12 </wgt>
<wgt id='1748'> +1.2285874e-12 </wgt>
<wgt id='1749'> +1.2655282e-12 </wgt>
<wgt id='1750'> +1.2396598e-12 </wgt>
<wgt id='1751'> +1.1755577e-12 </wgt>
<wgt id='1752'> +1.2100549e-12 </wgt>
<wgt id='1753'> +1.2465583e-12 </wgt>
<wgt id='1754'> +1.2475542e-12 </wgt>
<wgt id='1755'> +1.2416152e-12 </wgt>
<wgt id='1756'> +1.2347115e-12 </wgt>
<wgt id='1757'> +1.2157191e-12 </wgt>
<wgt id='1758'> +1.2483723e-12 </wgt>
<wgt id='1759'> +1.2487706e-12 </wgt>
<wgt id='1760'> +1.2095108e-12 </wgt>
<wgt id='1761'> +1.2197261e-12 </wgt>
<wgt id='1762'> +1.2526260e-12 </wgt>
<wgt id='1763'> +1.2475843e-12 </wgt>
<wgt id='1764'> +1.2363042e-12 </wgt>
<wgt id='1765'> +1.2212982e-12 </wgt>
<wgt id='1766'> +1.2563084e-12 </wgt>
<wgt id='1767'> +1.2340123e-12 </wgt>
<wgt id='1768'> +1.2320660e-12 </wgt>
<wgt id='1769'> +1.1993553e-12 </wgt>
<wgt id='1770'> +1.2892296e-12 </wgt>
<wgt id='1771'> +1.2284664e-12 </wgt>
<wgt id='1772'> +1.2598594e-12 </wgt>
<wgt id='1773'> +1.2286445e-12 </wgt>
<wgt id='1774'> +1.2537104e-12 </wgt>
<wgt id='1775'> +1.2295830e-12 </wgt>
<wgt id='1776'> +1.2757295e-12 </wgt>
<wgt id='1777'> +1.1673634e-12 </wgt>
<wgt id='1778'> +1.2218236e-12 </wgt>
<wgt id='1779'> +1.2449719e-12 </wgt>
<wgt id='1780'> +1.2280202e-12 </wgt>
<wgt id='1781'> +1.2312552e-12 </wgt>
<wgt id='1782'> +1.1893170e-12 </wgt>
<wgt id='1783'> +1.2259072e-12 </wgt>
<wgt id='1784'> +1.2446513e-12 </wgt>
<wgt id='1785'> +1.2002008e-12 </wgt>
<wgt id='1786'> +1.1291690e-12 </wgt>
<wgt id='1787'> +1.2614019e-12 </wgt>
<wgt id='1788'> +1.2214696e-12 </wgt>
<wgt id='1789'> +1.1509634e-12 </wgt>
<wgt id='1790'> +1.2157196e-12 </wgt>
<wgt id='1791'> +1.2510985e-12 </wgt>
<wgt id='1792'> +1.2015018e-12 </wgt>
<wgt id='1793'> +1.2343190e-12 </wgt>
<wgt id='1794'> +1.2321308e-12 </wgt>
<wgt id='1795'> +1.2479851e-12 </wgt>
<wgt id='1796'> +1.2273150e-12 </wgt>
<wgt id='1797'> +1.2383965e-12 </wgt>
<wgt id='1798'> +1.2072761e-12 </wgt>
<wgt id='1799'> +1.2177316e-12 </wgt>
<wgt id='1800'> +1.2270018e-12 </wgt>
<wgt id='1801'> +1.2293024e-12 </wgt>
<wgt id='1802'> +1.2292447e-12 </wgt>
<wgt id='1803'> +1.2367106e-12 </wgt>
<wgt id='1804'> +1.2228876e-12 </wgt>
<wgt id='1805'> +1.2304448e-12 </wgt>
<wgt id='1806'> +1.2189510e-12 </wgt>
<wgt id='1807'> +1.2407876e-12 </wgt>
<wgt id='1808'> +1.2226221e-12 </wgt>
<wgt id='1809'> +1.2289027e-12 </wgt>
<wgt id='1810'> +1.2424195e-12 </wgt>
<wgt id='1811'> +1.2892104e-12 </wgt>
<wgt id='1812'> +1.2710813e-12 </wgt>
<wgt id='1813'> +1.2292134e-12 </wgt>
<wgt id='1814'> +1.2454364e-12 </wgt>
<wgt id='1815'> +1.3905467e-12 </wgt>
<wgt id='1816'> +1.2294723e-12 </wgt>
<wgt id='1817'> +1.2050157e-12 </wgt>
<wgt id='1818'> +1.2330582e-12 </wgt>
<wgt id='1819'> +1.2408917e-12 </wgt>
<wgt id='1820'> +1.2352148e-12 </wgt>
<wgt id='1821'> +1.2227493e-12 </wgt>
<wgt id='1822'> +1.2531041e-12 </wgt>
<wgt id='1823'> +1.2343405e-12 </wgt>
<wgt id='1824'> +1.2169555e-12 </wgt>
<wgt id='1825'> +1.2182954e-12 </wgt>
<wgt id='1826'> +1.1798667e-12 </wgt>
<wgt id='1827'> +1.1062688e-12 </wgt>
<wgt id='1828'> +1.2686524e-12 </wgt>
<wgt id='1829'> +1.2860091e-12 </wgt>
<wgt id='1830'> +1.1899985e-12 </wgt>
<wgt id='1831'> +1.2260613e-12 </wgt>
<wgt id='1832'> +1.2236262e-12 </wgt>
<wgt id='1833'> +1.2096886e-12 </wgt>
<wgt id='1834'> +1.2020114e-12 </wgt>
<wgt id='1835'> +1.2536784e-12 </wgt>
<wgt id='1836'> +1.2444356e-12 </wgt>
<wgt id='1837'> +1.2550948e-12 </wgt>
<wgt id='1838'> +1.1788218e-12 </wgt>
<wgt id='1839'> +1.3080706e-12 </wgt>
<wgt id='1840'> +1.2593346e-12 </wgt>
<wgt id='1841'> +1.2399159e-12 </wgt>
<wgt id='1842'> +1.2384059e-12 </wgt>
<wgt id='1843'> +1.2055025e-12 </wgt>
<wgt id='1844'> +1.2342336e-12 </wgt>
<wgt id='1845'> +1.2205326e-12 </wgt>
<wgt id='1846'> +1.2545871e-12 </wgt>
<wgt id='1847'> +1.2652037e-12 </wgt>
<wgt id='1848'> +1.1454996e-12 </wgt>
<wgt id='1849'> +1.2587669e-12 </wgt>
<wgt id='1850'> +1.2589396e-12 </wgt>
<wgt id='1851'> +1.2285874e-12 </wgt>
<wgt id='1852'> +1.2655282e-12 </wgt>
<wgt id='1853'> +1.2396598e-12 </wgt>
<wgt id='1854'> +1.1755577e-12 </wgt>
<wgt id='1855'> +1.2100549e-12 </wgt>
<wgt id='1856'> +1.2465583e-12 </wgt>
<wgt id='1857'> +1.2475542e-12 </wgt>
<wgt id='1858'> +1.2416152e-12 </wgt>
<wgt id='1859'> +1.2347115e-12 </wgt>
<wgt id='1860'> +1.2157191e-12 </wgt>
<wgt id='1861'> +1.2483723e-12 </wgt>
<wgt id='1862'> +1.2487706e-12 </wgt>
<wgt id='1863'> +1.2095108e-12 </wgt>
<wgt id='1864'> +1.2197261e-12 </wgt>
<wgt id='1865'> +1.2526260e-12 </wgt>
<wgt id='1866'> +1.2475843e-12 </wgt>
<wgt id='1867'> +1.2363042e-12 </wgt>
<wgt id='1868'> +1.2212982e-12 </wgt>
<wgt id='1869'> +1.2563084e-12 </wgt>
<wgt id='1870'> +1.2340123e-12 </wgt>
<wgt id='1871'> +1.2320660e-12 </wgt>
<wgt id='1872'> +1.1993553e-12 </wgt>
<wgt id='1873'> +1.2892296e-12 </wgt>
<wgt id='1874'> +1.2284664e-12 </wgt>
<wgt id='1875'> +1.2598594e-12 </wgt>
<wgt id='1876'> +1.2286445e-12 </wgt>
<wgt id='1877'> +1.2537104e-12 </wgt>
<wgt id='1878'> +1.2295830e-12 </wgt>
<wgt id='1879'> +1.2757295e-12 </wgt>
<wgt id='1880'> +1.1673634e-12 </wgt>
<wgt id='1881'> +1.2218236e-12 </wgt>
<wgt id='1882'> +1.2449719e-12 </wgt>
<wgt id='1883'> +1.2280202e-12 </wgt>
<wgt id='1884'> +1.2312552e-12 </wgt>
<wgt id='1885'> +1.1893170e-12 </wgt>
<wgt id='1886'> +1.2259072e-12 </wgt>
<wgt id='1887'> +1.2446513e-12 </wgt>
<wgt id='1888'> +1.2002008e-12 </wgt>
<wgt id='1889'> +1.1291690e-12 </wgt>
<wgt id='1890'> +1.2614019e-12 </wgt>
<wgt id='1891'> +1.2214696e-12 </wgt>
<wgt id='1892'> +1.1509634e-12 </wgt>
<wgt id='1893'> +1.2157196e-12 </wgt>
<wgt id='1894'> +1.2510985e-12 </wgt>
<wgt id='1895'> +1.2015018e-12 </wgt>
<wgt id='1896'> +1.2343190e-12 </wgt>
<wgt id='1897'> +1.2321308e-12 </wgt>
<wgt id='1898'> +1.2479851e-12 </wgt>
<wgt id='1899'> +1.2273150e-12 </wgt>
<wgt id='1900'> +1.2383965e-12 </wgt>
<wgt id='1901'> +1.2072761e-12 </wgt>
<wgt id='1902'> +1.2177316e-12 </wgt>
<wgt id='1903'> +1.2270018e-12 </wgt>
<wgt id='1904'> +1.2293024e-12 </wgt>
<wgt id='1905'> +1.2292447e-12 </wgt>
<wgt id='1906'> +1.2367106e-12 </wgt>
<wgt id='1907'> +1.2228876e-12 </wgt>
<wgt id='1908'> +1.2304448e-12 </wgt>
<wgt id='1909'> +1.2189510e-12 </wgt>
<wgt id='1910'> +1.2407876e-12 </wgt>
<wgt id='1911'> +1.2226221e-12 </wgt>
<wgt id='1912'> +1.2289027e-12 </wgt>
<wgt id='1913'> +1.2424195e-12 </wgt>
<wgt id='1914'> +1.2892104e-12 </wgt>
<wgt id='1915'> +1.2710813e-12 </wgt>
<wgt id='1916'> +1.2292134e-12 </wgt>
<wgt id='1917'> +1.2211619e-12 </wgt>
<wgt id='1918'> +1.2379411e-12 </wgt>
<wgt id='1919'> +1.2730142e-12 </wgt>
</rwgt>
</event>
<event>
 9      1 +1.5538000e-12 2.67883200e+01 7.81860800e-03 1.48449300e-01
       21 -1    0    0  501  502 +0.0000000000e+00 +0.0000000000e+00 +4.5681153405e+00 4.5681153405e+00 0.0000000000e+00 0.0000e+00 1.0000e+00
        2 -1    0    0  502    0 -0.0000000000e+00 -0.0000000000e+00 -1.3132019146e+02 1.3132019146e+02 0.0000000000e+00 0.0000e+00 -1.0000e+00
     1023  2    1    2    0    0 -2.0824133799e+01 +7.6792446633e+00 -6.9910624839e+01 7.4867278206e+01 1.4999951117e+01 0.0000e+00 0.0000e+00
  1000023  2    3    3    0    0 -3.8855782103e+00 +6.0414375953e+00 -2.4142349875e+01 2.5782330711e+01 5.5026205706e+00 0.0000e+00 0.0000e+00
        2  1    1    2  501    0 +2.0824133799e+01 -7.6792446633e+00 -5.6841451285e+01 6.1021028599e+01 0.0000000000e+00 0.0000e+00 -1.0000e+00
  1000022  1    4    4    0    0 -3.3578240810e+00 +5.4213483695e+00 -2.2672063295e+01 2.4076720183e+01 5.0000000000e+00 0.0000e+00 -1.0000e+00
      -11  1    4    4    0    0 -9.3455299587e-02 -1.4737828433e-02 -1.8379280814e-01 2.0671515197e-01 5.1100000000e-04 0.0000e+00 1.0000e+00
       11  1    4    4    0    0 -4.3429882966e-01 +6.3482705419e-01 -1.2864937717e+00 1.4988953759e+00 5.1100000000e-04 0.0000e+00 -1.0000e+00
  1000022  1    3    3    0    0 -1.6938555589e+01 +1.6378070680e+00 -4.5768274964e+01 4.9084947495e+01 5.0000000000e+00 0.0000e+00 1.0000e+00
<mgrwt>
<rscale>  1 0.26788316E+02</rscale>
<asrwt>0</asrwt>
<pdfrwt beam="1">  1       21 0.70278707E-03 0.26788316E+02</pdfrwt>
<pdfrwt beam="2">  1        2 0.20203104E-01 0.26788316E+02</pdfrwt>
<totfact> 0.13982075E+07</totfact>
</mgrwt>
<rwgt>
<wgt id='1001'> +1.5538000e-12 </wgt>
<wgt id='1002'> +1.6524972e-12 </wgt>
<wgt id='1003'> +1.6590716e-12 </wgt>
<wgt id='1004'> +1.5338148e-12 </wgt>
<wgt id='1005'> +1.6593172e-12 </wgt>
<wgt id='1006'> +1.3552766e-12 </wgt>
<wgt id='1007'> +1.4621575e-12 </wgt>
<wgt id='1008'> +1.4695349e-12 </wgt>
<wgt id='1009'> +1.3342321e-12 </wgt>
<wgt id='1010'> +1.4698111e-12 </wgt>
<wgt id='1011'> +1.8239537e-12 </wgt>
<wgt id='1012'> +1.9023521e-12 </wgt>
<wgt id='1013'> +1.9072459e-12 </wgt>
<wgt id='1014'> +1.8072510e-12 </wgt>
<wgt id='1015'> +1.9074276e-12 </wgt>
<wgt id='1016'> +1.9162702e-12 </wgt>
<wgt id='1017'> +1.9548969e-12 </wgt>
<wgt id='1018'> +1.9570153e-12 </wgt>
<wgt id='1019'> +1.9072459e-12 </wgt>
<wgt id='1020'> +1.9570929e-12 </wgt>
<wgt id='1021'> +1.6714353e-12 </wgt>
<wgt id='1022'> +1.7297260e-12 </wgt>
<wgt id='1023'> +1.7334407e-12 </wgt>
<wgt id='1024'> +1.6590716e-12 </wgt>
<wgt id='1025'> +1.7335786e-12 </wgt>
<wgt id='1026'> +2.2494454e-12 </wgt>
<wgt id='1027'> +2.2504742e-12 </wgt>
<wgt id='1028'> +2.2497578e-12 </wgt>
<wgt id='1029'> +2.2472544e-12 </wgt>
<wgt id='1030'> +2.2497284e-12 </wgt>
<wgt id='1031'> +1.1651730e-12 </wgt>
<wgt id='1032'> +1.3232229e-12 </wgt>
<wgt id='1033'> +1.3342321e-12 </wgt>
<wgt id='1034'> +1.1342710e-12 </wgt>
<wgt id='1035'> +1.3346447e-12 </wgt>
<wgt id='1036'> +1.0163030e-12 </wgt>
<wgt id='1037'> +1.1708100e-12 </wgt>
<wgt id='1038'> +1.1818059e-12 </wgt>
<wgt id='1039'> +9.8667761e-13 </wgt>
<wgt id='1040'> +1.1822185e-12 </wgt>
<wgt id='1041'> +1.3677575e-12 </wgt>
<wgt id='1042'> +1.5232920e-12 </wgt>
<wgt id='1043'> +1.5338148e-12 </wgt>
<wgt id='1044'> +1.3364797e-12 </wgt>
<wgt id='1045'> +1.5342082e-12 </wgt>
<wgt id='1046'> +1.5538000e-12 </wgt>
<wgt id='1047'> +1.6050936e-12 </wgt>
<wgt id='1048'> +1.5573708e-12 </wgt>
<wgt id='1049'> +1.4979056e-12 </wgt>
<wgt id='1050'> +1.5247995e-12 </wgt>
<wgt id='1051'> +1.5221695e-12 </wgt>
<wgt id='1052'> +1.5277735e-12 </wgt>
<wgt id='1053'> +1.5717690e-12 </wgt>
<wgt id='1054'> +1.5543164e-12 </wgt>
<wgt id='1055'> +1.5035596e-12 </wgt>
<wgt id='1056'> +1.5275060e-12 </wgt>
<wgt id='1057'> +1.5573778e-12 </wgt>
<wgt id='1058'> +1.4995599e-12 </wgt>
<wgt id='1059'> +1.5642574e-12 </wgt>
<wgt id='1060'> +1.5622925e-12 </wgt>
<wgt id='1061'> +1.5632371e-12 </wgt>
<wgt id='1062'> +1.5580478e-12 </wgt>
<wgt id='1063'> +1.5546081e-12 </wgt>
<wgt id='1064'> +1.5455498e-12 </wgt>
<wgt id='1065'> +1.5707424e-12 </wgt>
<wgt id='1066'> +1.5308320e-12 </wgt>
<wgt id='1067'> +1.5380002e-12 </wgt>
<wgt id='1068'> +1.5877253e-12 </wgt>
<wgt id='1069'> +1.5946165e-12 </wgt>
<wgt id='1070'> +1.5545197e-12 </wgt>
<wgt id='1071'> +1.5103591e-12 </wgt>
<wgt id='1072'> +1.5894200e-12 </wgt>
<wgt id='1073'> +1.5766215e-12 </wgt>
<wgt id='1074'> +1.5341652e-12 </wgt>
<wgt id='1075'> +1.5664773e-12 </wgt>
<wgt id='1076'> +1.5345593e-12 </wgt>
<wgt id='1077'> +1.5733825e-12 </wgt>
<wgt id='1078'> +1.5083529e-12 </wgt>
<wgt id='1079'> +1.5198938e-12 </wgt>
<wgt id='1080'> +1.5408343e-12 </wgt>
<wgt id='1081'> +1.5646571e-12 </wgt>
<wgt id='1082'> +1.5254667e-12 </wgt>
<wgt id='1083'> +1.5562849e-12 </wgt>
<wgt id='1084'> +1.5115681e-12 </wgt>
<wgt id='1085'> +1.5428195e-12 </wgt>
<wgt id='1086'> +1.5811556e-12 </wgt>
<wgt id='1087'> +1.5285736e-12 </wgt>
<wgt id='1088'> +1.5732037e-12 </wgt>
<wgt id='1089'> +1.5595100e-12 </wgt>
<wgt id='1090'> +1.5451424e-12 </wgt>
<wgt id='1091'> +1.5760632e-12 </wgt>
<wgt id='1092'> +1.5927946e-12 </wgt>
<wgt id='1093'> +1.5497414e-12 </wgt>
<wgt id='1094'> +1.5839215e-12 </wgt>
<wgt id='1095'> +1.5781160e-12 </wgt>
<wgt id='1096'> +1.5889777e-12 </wgt>
<wgt id='1097'> +1.5628560e-12 </wgt>
<wgt id='1098'> +1.5489074e-12 </wgt>
<wgt id='1099'> +1.5381272e-12 </wgt>
<wgt id='1100'> +1.6005749e-12 </wgt>
<wgt id='1101'> +1.5898363e-12 </wgt>
<wgt id='1102'> +1.5432326e-12 </wgt>
<wgt id='1103'> +1.6038946e-12 </wgt>
<wgt id='1104'> +1.5210311e-12 </wgt>
<wgt id='1105'> +1.4959596e-12 </wgt>
<wgt id='1106'> +1.5820598e-12 </wgt>
<wgt id='1107'> +1.5802875e-12 </wgt>
<wgt id='1108'> +1.5572921e-12 </wgt>
<wgt id='1109'> +1.5783213e-12 </wgt>
<wgt id='1110'> +1.5423934e-12 </wgt>
<wgt id='1111'> +1.5493882e-12 </wgt>
<wgt id='1112'> +1.5421334e-12 </wgt>
<wgt id='1113'> +1.6287245e-12 </wgt>
<wgt id='1114'> +1.5673403e-12 </wgt>
<wgt id='1115'> +1.5601394e-12 </wgt>
<wgt id='1116'> +1.6084755e-12 </wgt>
<wgt id='1117'> +1.5227076e-12 </wgt>
<wgt id='1118'> +1.6447187e-12 </wgt>
<wgt id='1119'> +1.4781318e-12 </wgt>
<wgt id='1120'> +1.5196325e-12 </wgt>
<wgt id='1121'> +1.5201282e-12 </wgt>
<wgt id='1122'> +1.5462665e-12 </wgt>
<wgt id='1123'> +1.5503565e-12 </wgt>
<wgt id='1124'> +1.5363946e-12 </wgt>
<wgt id='1125'> +1.5156564e-12 </wgt>
<wgt id='1126'> +1.5613396e-12 </wgt>
<wgt id='1127'> +1.5757592e-12 </wgt>
<wgt id='1128'> +1.5580478e-12 </wgt>
<wgt id='1129'> +1.5693102e-12 </wgt>
<wgt id='1130'> +1.5402468e-12 </wgt>
<wgt id='1131'> +1.5474846e-12 </wgt>
<wgt id='1132'> +1.5881479e-12 </wgt>
<wgt id='1133'> +1.5355627e-12 </wgt>
<wgt id='1134'> +1.5582494e-12 </wgt>
<wgt id='1135'> +1.5179136e-12 </wgt>
<wgt id='1136'> +1.5311538e-12 </wgt>
<wgt id='1137'> +1.5502166e-12 </wgt>
<wgt id='1138'> +1.5430910e-12 </wgt>
<wgt id='1139'> +1.5540962e-12 </wgt>
<wgt id='1140'> +1.5921430e-12 </wgt>
<wgt id='1141'> +1.5712154e-12 </wgt>
<wgt id='1142'> +1.5361267e-12 </wgt>
<wgt id='1143'> +1.5682247e-12 </wgt>
<wgt id='1144'> +1.5295344e-12 </wgt>
<wgt id='1145'> +1.5743568e-12 </wgt>
<wgt id='1146'> +1.5569862e-12 </wgt>
<wgt id='1147'> +1.3094491e-12 </wgt>
<wgt id='1148'> +1.3405476e-12 </wgt>
<wgt id='1149'> +1.3039561e-12 </wgt>
<wgt id='1150'> +1.3312739e-12 </wgt>
<wgt id='1151'> +1.5689913e-12 </wgt>
<wgt id='1152'> +1.9873609e-12 </wgt>
<wgt id='1153'> +1.9787224e-12 </wgt>
<wgt id='1154'> +1.9923846e-12 </wgt>
<wgt id='1155'> +1.9851696e-12 </wgt>
<wgt id='1156'> +1.9885310e-12 </wgt>
<wgt id='1157'> +1.9909328e-12 </wgt>
<wgt id='1158'> +1.9824950e-12 </wgt>
<wgt id='1159'> +1.9904596e-12 </wgt>
<wgt id='1160'> +1.9854200e-12 </wgt>
<wgt id='1161'> +1.9834904e-12 </wgt>
<wgt id='1162'> +1.9900629e-12 </wgt>
<wgt id='1163'> +1.9903693e-12 </wgt>
<wgt id='1164'> +1.9843750e-12 </wgt>
<wgt id='1165'> +1.9785161e-12 </wgt>
<wgt id='1166'> +1.9958562e-12 </wgt>
<wgt id='1167'> +2.0020943e-12 </wgt>
<wgt id='1168'> +1.9683841e-12 </wgt>
<wgt id='1169'> +1.9907110e-12 </wgt>
<wgt id='1170'> +1.9848827e-12 </wgt>
<wgt id='1171'> +1.9786483e-12 </wgt>
<wgt id='1172'> +1.9978737e-12 </wgt>
<wgt id='1173'> +1.9700250e-12 </wgt>
<wgt id='1174'> +2.0039388e-12 </wgt>
<wgt id='1175'> +1.9920201e-12 </wgt>
<wgt id='1176'> +1.9826665e-12 </wgt>
<wgt id='1177'> +1.9868964e-12 </wgt>
<wgt id='1178'> +1.9887377e-12 </wgt>
<wgt id='1179'> +1.9869777e-12 </wgt>
<wgt id='1180'> +1.9802583e-12 </wgt>
<wgt id='1181'> +1.9862170e-12 </wgt>
<wgt id='1182'> +1.9880835e-12 </wgt>
<wgt id='1183'> +1.9828246e-12 </wgt>
<wgt id='1184'> +1.9877229e-12 </wgt>
<wgt id='1185'> +1.9812758e-12 </wgt>
<wgt id='1186'> +1.9912809e-12 </wgt>
<wgt id='1187'> +1.9879369e-12 </wgt>
<wgt id='1188'> +1.9871952e-12 </wgt>
<wgt id='1189'> +1.9826009e-12 </wgt>
<wgt id='1190'> +1.9696577e-12 </wgt>
<wgt id='1191'> +1.9848044e-12 </wgt>
<wgt id='1192'> +1.9919203e-12 </wgt>
<wgt id='1193'> +1.3036618e-12 </wgt>
<wgt id='1194'> +1.2955929e-12 </wgt>
<wgt id='1195'> +1.3102818e-12 </wgt>
<wgt id='1196'> +1.3086763e-12 </wgt>
<wgt id='1197'> +1.2980808e-12 </wgt>
<wgt id='1198'> +1.3038153e-12 </wgt>
<wgt id='1199'> +1.3034769e-12 </wgt>
<wgt id='1200'> +1.3038583e-12 </wgt>
<wgt id='1201'> +1.3035700e-12 </wgt>
<wgt id='1202'> +1.3019919e-12 </wgt>
<wgt id='1203'> +1.3060021e-12 </wgt>
<wgt id='1204'> +1.2938521e-12 </wgt>
<wgt id='1205'> +1.3096168e-12 </wgt>
<wgt id='1206'> +1.3073851e-12 </wgt>
<wgt id='1207'> +1.2986352e-12 </wgt>
<wgt id='1208'> +1.2995504e-12 </wgt>
<wgt id='1209'> +1.3051647e-12 </wgt>
<wgt id='1210'> +1.3010972e-12 </wgt>
<wgt id='1211'> +1.2991143e-12 </wgt>
<wgt id='1212'> +1.3050244e-12 </wgt>
<wgt id='1213'> +1.3024619e-12 </wgt>
<wgt id='1214'> +1.2893200e-12 </wgt>
<wgt id='1215'> +1.3250318e-12 </wgt>
<wgt id='1216'> +1.3052405e-12 </wgt>
<wgt id='1217'> +1.3017016e-12 </wgt>
<wgt id='1218'> +1.3091713e-12 </wgt>
<wgt id='1219'> +1.3006637e-12 </wgt>
<wgt id='1220'> +1.3105306e-12 </wgt>
<wgt id='1221'> +1.3017235e-12 </wgt>
<wgt id='1222'> +1.3163419e-12 </wgt>
<wgt id='1223'> +1.2836461e-12 </wgt>
<wgt id='1224'> +1.3061749e-12 </wgt>
<wgt id='1225'> +1.3026849e-12 </wgt>
<wgt id='1226'> +1.3002814e-12 </wgt>
<wgt id='1227'> +1.3060600e-12 </wgt>
<wgt id='1228'> +1.2931934e-12 </wgt>
<wgt id='1229'> +1.3078237e-12 </wgt>
<wgt id='1230'> +1.3014654e-12 </wgt>
<wgt id='1231'> +1.3056994e-12 </wgt>
<wgt id='1232'> +1.3017679e-12 </wgt>
<wgt id='1233'> +1.3041051e-12 </wgt>
<wgt id='1234'> +1.3036618e-12 </wgt>
<wgt id='1235'> +1.2952781e-12 </wgt>
<wgt id='1236'> +1.2984087e-12 </wgt>
<wgt id='1237'> +1.3012372e-12 </wgt>
<wgt id='1238'> +1.3059360e-12 </wgt>
<wgt id='1239'> +1.3078095e-12 </wgt>
<wgt id='1240'> +1.3096887e-12 </wgt>
<wgt id='1241'> +1.2601756e-12 </wgt>
<wgt id='1242'> +1.2491109e-12 </wgt>
<wgt id='1243'> +1.2711036e-12 </wgt>
<wgt id='1244'> +1.2558344e-12 </wgt>
<wgt id='1245'> +1.2632921e-12 </wgt>
<wgt id='1246'> +1.2592155e-12 </wgt>
<wgt id='1247'> +1.2610066e-12 </wgt>
<wgt id='1248'> +1.2601077e-12 </wgt>
<wgt id='1249'> +1.2602448e-12 </wgt>
<wgt id='1250'> +1.2615127e-12 </wgt>
<wgt id='1251'> +1.2592081e-12 </wgt>
<wgt id='1252'> +1.2579055e-12 </wgt>
<wgt id='1253'> +1.2619081e-12 </wgt>
<wgt id='1254'> +1.2525846e-12 </wgt>
<wgt id='1255'> +1.2646808e-12 </wgt>
<wgt id='1256'> +1.2625376e-12 </wgt>
<wgt id='1257'> +1.2541423e-12 </wgt>
<wgt id='1258'> +1.2754140e-12 </wgt>
<wgt id='1259'> +1.2451731e-12 </wgt>
<wgt id='1260'> +1.2627585e-12 </wgt>
<wgt id='1261'> +1.2574344e-12 </wgt>
<wgt id='1262'> +1.2572609e-12 </wgt>
<wgt id='1263'> +1.2610814e-12 </wgt>
<wgt id='1264'> +1.2677135e-12 </wgt>
<wgt id='1265'> +1.2565541e-12 </wgt>
<wgt id='1266'> +1.2459447e-12 </wgt>
<wgt id='1267'> +1.2729619e-12 </wgt>
<wgt id='1268'> +1.2647859e-12 </wgt>
<wgt id='1269'> +1.2575604e-12 </wgt>
<wgt id='1270'> +1.2561023e-12 </wgt>
<wgt id='1271'> +1.2596518e-12 </wgt>
<wgt id='1272'> +1.2584650e-12 </wgt>
<wgt id='1273'> +1.2606374e-12 </wgt>
<wgt id='1274'> +1.2618984e-12 </wgt>
<wgt id='1275'> +1.2570823e-12 </wgt>
<wgt id='1276'> +1.2665176e-12 </wgt>
<wgt id='1277'> +1.2504741e-12 </wgt>
<wgt id='1278'> +1.2645587e-12 </wgt>
<wgt id='1279'> +1.2624686e-12 </wgt>
<wgt id='1280'> +1.2608219e-12 </wgt>
<wgt id='1281'> +1.2586652e-12 </wgt>
<wgt id='1282'> +1.2601756e-12 </wgt>
<wgt id='1283'> +1.2520963e-12 </wgt>
<wgt id='1284'> +1.2553148e-12 </wgt>
<wgt id='1285'> +1.2579723e-12 </wgt>
<wgt id='1286'> +1.2624364e-12 </wgt>
<wgt id='1287'> +1.2641206e-12 </wgt>
<wgt id='1288'> +1.2655131e-12 </wgt>
<wgt id='1289'> +1.3766604e-12 </wgt>
<wgt id='1290'> +1.3762054e-12 </wgt>
<wgt id='1291'> +1.3771700e-12 </wgt>
<wgt id='1292'> +1.3736710e-12 </wgt>
<wgt id='1293'> +1.3788389e-12 </wgt>
<wgt id='1294'> +1.3646329e-12 </wgt>
<wgt id='1295'> +1.3883406e-12 </wgt>
<wgt id='1296'> +1.3759643e-12 </wgt>
<wgt id='1297'> +1.3773787e-12 </wgt>
<wgt id='1298'> +1.3832685e-12 </wgt>
<wgt id='1299'> +1.3684121e-12 </wgt>
<wgt id='1300'> +1.3795103e-12 </wgt>
<wgt id='1301'> +1.3709654e-12 </wgt>
<wgt id='1302'> +1.3743544e-12 </wgt>
<wgt id='1303'> +1.3798393e-12 </wgt>
<wgt id='1304'> +1.3743605e-12 </wgt>
<wgt id='1305'> +1.3782231e-12 </wgt>
<wgt id='1306'> +1.3714445e-12 </wgt>
<wgt id='1307'> +1.3825256e-12 </wgt>
<wgt id='1308'> +1.3714615e-12 </wgt>
<wgt id='1309'> +1.3806378e-12 </wgt>
<wgt id='1310'> +1.3758063e-12 </wgt>
<wgt id='1311'> +1.3776961e-12 </wgt>
<wgt id='1312'> +1.3756469e-12 </wgt>
<wgt id='1313'> +1.3777201e-12 </wgt>
<wgt id='1314'> +1.3629874e-12 </wgt>
<wgt id='1315'> +1.3861107e-12 </wgt>
<wgt id='1316'> +1.3849914e-12 </wgt>
<wgt id='1317'> +1.3761397e-12 </wgt>
<wgt id='1318'> +1.3857946e-12 </wgt>
<wgt id='1319'> +1.3651034e-12 </wgt>
<wgt id='1320'> +1.3874971e-12 </wgt>
<wgt id='1321'> +1.3673660e-12 </wgt>
<wgt id='1322'> +1.3759072e-12 </wgt>
<wgt id='1323'> +1.3773503e-12 </wgt>
<wgt id='1324'> +1.3715327e-12 </wgt>
<wgt id='1325'> +1.3947110e-12 </wgt>
<wgt id='1326'> +1.3766934e-12 </wgt>
<wgt id='1327'> +1.3790535e-12 </wgt>
<wgt id='1328'> +1.3770651e-12 </wgt>
<wgt id='1329'> +1.3760789e-12 </wgt>
<wgt id='1330'> +1.3777882e-12 </wgt>
<wgt id='1331'> +1.3769421e-12 </wgt>
<wgt id='1332'> +1.3957859e-12 </wgt>
<wgt id='1333'> +1.3705275e-12 </wgt>
<wgt id='1334'> +1.3743478e-12 </wgt>
<wgt id='1335'> +1.3839218e-12 </wgt>
<wgt id='1336'> +1.3750767e-12 </wgt>
<wgt id='1337'> +1.3804129e-12 </wgt>
<wgt id='1338'> +1.3741835e-12 </wgt>
<wgt id='1339'> +1.3771140e-12 </wgt>
<wgt id='1340'> +1.3514828e-12 </wgt>
<wgt id='1341'> +1.3509762e-12 </wgt>
<wgt id='1342'> +1.3519570e-12 </wgt>
<wgt id='1343'> +1.3484047e-12 </wgt>
<wgt id='1344'> +1.3535167e-12 </wgt>
<wgt id='1345'> +1.3392158e-12 </wgt>
<wgt id='1346'> +1.3628881e-12 </wgt>
<wgt id='1347'> +1.3513786e-12 </wgt>
<wgt id='1348'> +1.3514901e-12 </wgt>
<wgt id='1349'> +1.3576308e-12 </wgt>
<wgt id='1350'> +1.3454030e-12 </wgt>
<wgt id='1351'> +1.3542365e-12 </wgt>
<wgt id='1352'> +1.3454556e-12 </wgt>
<wgt id='1353'> +1.3484492e-12 </wgt>
<wgt id='1354'> +1.3568327e-12 </wgt>
<wgt id='1355'> +1.3495923e-12 </wgt>
<wgt id='1356'> +1.3524953e-12 </wgt>
<wgt id='1357'> +1.3451329e-12 </wgt>
<wgt id='1358'> +1.3588583e-12 </wgt>
<wgt id='1359'> +1.3477337e-12 </wgt>
<wgt id='1360'> +1.3546938e-12 </wgt>
<wgt id='1361'> +1.3508857e-12 </wgt>
<wgt id='1362'> +1.3523951e-12 </wgt>
<wgt id='1363'> +1.3529823e-12 </wgt>
<wgt id='1364'> +1.3507554e-12 </wgt>
<wgt id='1365'> +1.3566292e-12 </wgt>
<wgt id='1366'> +1.3377444e-12 </wgt>
<wgt id='1367'> +1.3597299e-12 </wgt>
<wgt id='1368'> +1.3501492e-12 </wgt>
<wgt id='1369'> +1.3593776e-12 </wgt>
<wgt id='1370'> +1.3416118e-12 </wgt>
<wgt id='1371'> +1.3600796e-12 </wgt>
<wgt id='1372'> +1.3410874e-12 </wgt>
<wgt id='1373'> +1.3482480e-12 </wgt>
<wgt id='1374'> +1.3540996e-12 </wgt>
<wgt id='1375'> +1.3463074e-12 </wgt>
<wgt id='1376'> +1.3704837e-12 </wgt>
<wgt id='1377'> +1.3513071e-12 </wgt>
<wgt id='1378'> +1.3542793e-12 </wgt>
<wgt id='1379'> +1.3517692e-12 </wgt>
<wgt id='1380'> +1.3509012e-12 </wgt>
<wgt id='1381'> +1.3529762e-12 </wgt>
<wgt id='1382'> +1.3507586e-12 </wgt>
<wgt id='1383'> +1.3686829e-12 </wgt>
<wgt id='1384'> +1.3471183e-12 </wgt>
<wgt id='1385'> +1.3495770e-12 </wgt>
<wgt id='1386'> +1.3570547e-12 </wgt>
<wgt id='1387'> +1.3486177e-12 </wgt>
<wgt id='1388'> +1.3553631e-12 </wgt>
<wgt id='1389'> +1.3476760e-12 </wgt>
<wgt id='1390'> +1.3523379e-12 </wgt>
<wgt id='1391'> +1.3313835e-12 </wgt>
<wgt id='1392'> +1.2964165e-12 </wgt>
<wgt id='1393'> +1.3081236e-12 </wgt>
<wgt id='1394'> +1.3208556e-12 </wgt>
<wgt id='1395'> +1.3445283e-12 </wgt>
<wgt id='1396'> +1.3329007e-12 </wgt>
<wgt id='1397'> +1.2962414e-12 </wgt>
<wgt id='1398'> +1.3033403e-12 </wgt>
<wgt id='1399'> +1.3098280e-12 </wgt>
<wgt id='1400'> +1.3170439e-12 </wgt>
<wgt id='1401'> +1.3249810e-12 </wgt>
<wgt id='1402'> +1.3407387e-12 </wgt>
<wgt id='1403'> +1.3487143e-12 </wgt>
<wgt id='1404'> +1.3566228e-12 </wgt>
<wgt id='1405'> +1.3329007e-12 </wgt>
<wgt id='1406'> +1.3281244e-12 </wgt>
<wgt id='1407'> +1.3306884e-12 </wgt>
<wgt id='1408'> +1.3349421e-12 </wgt>
<wgt id='1409'> +1.3371555e-12 </wgt>
<wgt id='1410'> +1.2709560e-12 </wgt>
<wgt id='1411'> +1.2720067e-12 </wgt>
<wgt id='1412'> +1.2695791e-12 </wgt>
<wgt id='1413'> +1.2679145e-12 </wgt>
<wgt id='1414'> +1.2739790e-12 </wgt>
<wgt id='1415'> +1.2649052e-12 </wgt>
<wgt id='1416'> +1.2733905e-12 </wgt>
<wgt id='1417'> +1.2627002e-12 </wgt>
<wgt id='1418'> +1.2791721e-12 </wgt>
<wgt id='1419'> +1.2732927e-12 </wgt>
<wgt id='1420'> +1.2686697e-12 </wgt>
<wgt id='1421'> +1.2568250e-12 </wgt>
<wgt id='1422'> +1.2770466e-12 </wgt>
<wgt id='1423'> +1.2705719e-12 </wgt>
<wgt id='1424'> +1.2714427e-12 </wgt>
<wgt id='1425'> +1.2645480e-12 </wgt>
<wgt id='1426'> +1.2778552e-12 </wgt>
<wgt id='1427'> +1.2512473e-12 </wgt>
<wgt id='1428'> +1.2816379e-12 </wgt>
<wgt id='1429'> +1.2706268e-12 </wgt>
<wgt id='1430'> +1.2714957e-12 </wgt>
<wgt id='1431'> +1.2716599e-12 </wgt>
<wgt id='1432'> +1.2703474e-12 </wgt>
<wgt id='1433'> +1.2622400e-12 </wgt>
<wgt id='1434'> +1.2770508e-12 </wgt>
<wgt id='1435'> +1.2683839e-12 </wgt>
<wgt id='1436'> +1.2772127e-12 </wgt>
<wgt id='1437'> +1.2786887e-12 </wgt>
<wgt id='1438'> +1.2708684e-12 </wgt>
<wgt id='1439'> +1.2659822e-12 </wgt>
<wgt id='1440'> +1.2799289e-12 </wgt>
<wgt id='1441'> +1.2736384e-12 </wgt>
<wgt id='1442'> +1.2666747e-12 </wgt>
<wgt id='1443'> +1.2670954e-12 </wgt>
<wgt id='1444'> +1.2806118e-12 </wgt>
<wgt id='1445'> +1.2890881e-12 </wgt>
<wgt id='1446'> +1.2650960e-12 </wgt>
<wgt id='1447'> +1.2701166e-12 </wgt>
<wgt id='1448'> +1.2757450e-12 </wgt>
<wgt id='1449'> +1.2719299e-12 </wgt>
<wgt id='1450'> +1.2699112e-12 </wgt>
<wgt id='1451'> +1.2712322e-12 </wgt>
<wgt id='1452'> +1.2708803e-12 </wgt>
<wgt id='1453'> +1.2716461e-12 </wgt>
<wgt id='1454'> +1.2647623e-12 </wgt>
<wgt id='1455'> +1.2729608e-12 </wgt>
<wgt id='1456'> +1.2750921e-12 </wgt>
<wgt id='1457'> +1.2744470e-12 </wgt>
<wgt id='1458'> +1.2700638e-12 </wgt>
<wgt id='1459'> +1.2765852e-12 </wgt>
<wgt id='1460'> +1.2720809e-12 </wgt>
<wgt id='1461'> +1.2709560e-12 </wgt>
<wgt id='1462'> +1.2617328e-12 </wgt>
<wgt id='1463'> +1.2781484e-12 </wgt>
<wgt id='1464'> +1.2705590e-12 </wgt>
<wgt id='1465'> +1.2363294e-12 </wgt>
<wgt id='1466'> +1.2428027e-12 </wgt>
<wgt id='1467'> +1.2501207e-12 </wgt>
<wgt id='1468'> +1.2573666e-12 </wgt>
<wgt id='1469'> +1.2636318e-12 </wgt>
<wgt id='1470'> +1.2779040e-12 </wgt>
<wgt id='1471'> +1.2839500e-12 </wgt>
<wgt id='1472'> +1.2909781e-12 </wgt>
<wgt id='1473'> +1.2705590e-12 </wgt>
<wgt id='1474'> +1.2661297e-12 </wgt>
<wgt id='1475'> +1.2682059e-12 </wgt>
<wgt id='1476'> +1.2723799e-12 </wgt>
<wgt id='1477'> +1.2740299e-12 </wgt>
<wgt id='1478'> +1.2922316e-12 </wgt>
<wgt id='1479'> +1.2898079e-12 </wgt>
<wgt id='1480'> +1.2810692e-12 </wgt>
<wgt id='1481'> +1.3023904e-12 </wgt>
<wgt id='1482'> +1.2895253e-12 </wgt>
<wgt id='1483'> +1.2789390e-12 </wgt>
<wgt id='1484'> +1.2917681e-12 </wgt>
<wgt id='1485'> +1.2892925e-12 </wgt>
<wgt id='1486'> +1.2921988e-12 </wgt>
<wgt id='1487'> +1.2949145e-12 </wgt>
<wgt id='1488'> +1.2905333e-12 </wgt>
<wgt id='1489'> +1.2991191e-12 </wgt>
<wgt id='1490'> +1.2865041e-12 </wgt>
<wgt id='1491'> +1.2943616e-12 </wgt>
<wgt id='1492'> +1.2962746e-12 </wgt>
<wgt id='1493'> +1.2709599e-12 </wgt>
<wgt id='1494'> +1.2945717e-12 </wgt>
<wgt id='1495'> +1.2767547e-12 </wgt>
<wgt id='1496'> +1.2907091e-12 </wgt>
<wgt id='1497'> +1.2916907e-12 </wgt>
<wgt id='1498'> +1.2932625e-12 </wgt>
<wgt id='1499'> +1.2928773e-12 </wgt>
<wgt id='1500'> +1.2909372e-12 </wgt>
<wgt id='1501'> +1.2931710e-12 </wgt>
<wgt id='1502'> +1.2966793e-12 </wgt>
<wgt id='1503'> +1.2951204e-12 </wgt>
<wgt id='1504'> +1.2895368e-12 </wgt>
<wgt id='1505'> +1.2927509e-12 </wgt>
<wgt id='1506'> +1.2911970e-12 </wgt>
<wgt id='1507'> +1.2916572e-12 </wgt>
<wgt id='1508'> +1.2965783e-12 </wgt>
<wgt id='1509'> +1.2849358e-12 </wgt>
<wgt id='1510'> +1.2857183e-12 </wgt>
<wgt id='1511'> +1.2799514e-12 </wgt>
<wgt id='1512'> +1.2778046e-12 </wgt>
<wgt id='1513'> +1.2850976e-12 </wgt>
<wgt id='1514'> +1.2910594e-12 </wgt>
<wgt id='1515'> +1.2876251e-12 </wgt>
<wgt id='1516'> +1.2918370e-12 </wgt>
<wgt id='1517'> +1.2896295e-12 </wgt>
<wgt id='1518'> +1.2862268e-12 </wgt>
<wgt id='1519'> +1.2801348e-12 </wgt>
<wgt id='1520'> +1.2848355e-12 </wgt>
<wgt id='1521'> +1.2878868e-12 </wgt>
<wgt id='1522'> +1.2840553e-12 </wgt>
<wgt id='1523'> +1.2913798e-12 </wgt>
<wgt id='1524'> +1.2871371e-12 </wgt>
<wgt id='1525'> +1.2893853e-12 </wgt>
<wgt id='1526'> +1.2834090e-12 </wgt>
<wgt id='1527'> +1.2829491e-12 </wgt>
<wgt id='1528'> +1.2863886e-12 </wgt>
<wgt id='1529'> +1.2837474e-12 </wgt>
<wgt id='1530'> +1.2904451e-12 </wgt>
<wgt id='1531'> +1.2861629e-12 </wgt>
<wgt id='1532'> +1.2786634e-12 </wgt>
<wgt id='1533'> +1.2850137e-12 </wgt>
<wgt id='1534'> +1.2882390e-12 </wgt>
<wgt id='1535'> +1.2766371e-12 </wgt>
<wgt id='1536'> +1.2828844e-12 </wgt>
<wgt id='1537'> +1.2820945e-12 </wgt>
<wgt id='1538'> +1.2841174e-12 </wgt>
<wgt id='1539'> +1.2948565e-12 </wgt>
<wgt id='1540'> +1.2873118e-12 </wgt>
<wgt id='1541'> +1.2849010e-12 </wgt>
<wgt id='1542'> +1.2826293e-12 </wgt>
<wgt id='1543'> +1.2856576e-12 </wgt>
<wgt id='1544'> +1.2853035e-12 </wgt>
<wgt id='1545'> +1.2832455e-12 </wgt>
<wgt id='1546'> +1.2813987e-12 </wgt>
<wgt id='1547'> +1.2853924e-12 </wgt>
<wgt id='1548'> +1.2836542e-12 </wgt>
<wgt id='1549'> +1.2843972e-12 </wgt>
<wgt id='1550'> +1.2853522e-12 </wgt>
<wgt id='1551'> +1.2865212e-12 </wgt>
<wgt id='1552'> +1.2859806e-12 </wgt>
<wgt id='1553'> +1.2837785e-12 </wgt>
<wgt id='1554'> +1.2861713e-12 </wgt>
<wgt id='1555'> +1.2856240e-12 </wgt>
<wgt id='1556'> +1.2841698e-12 </wgt>
<wgt id='1557'> +1.2880293e-12 </wgt>
<wgt id='1558'> +1.2818604e-12 </wgt>
<wgt id='1559'> +1.2846560e-12 </wgt>
<wgt id='1560'> +1.2867984e-12 </wgt>
<wgt id='1561'> +1.2841300e-12 </wgt>
<wgt id='1562'> +1.2861240e-12 </wgt>
<wgt id='1563'> +1.2861686e-12 </wgt>
<wgt id='1564'> +1.2867711e-12 </wgt>
<wgt id='1565'> +1.2835455e-12 </wgt>
<wgt id='1566'> +1.2857404e-12 </wgt>
<wgt id='1567'> +1.2863938e-12 </wgt>
<wgt id='1568'> +1.2833679e-12 </wgt>
<wgt id='1569'> +1.2846231e-12 </wgt>
<wgt id='1570'> +1.2850571e-12 </wgt>
<wgt id='1571'> +1.2846007e-12 </wgt>
<wgt id='1572'> +1.2841709e-12 </wgt>
<wgt id='1573'> +1.2843702e-12 </wgt>
<wgt id='1574'> +1.2842077e-12 </wgt>
<wgt id='1575'> +1.2852388e-12 </wgt>
<wgt id='1576'> +1.2848657e-12 </wgt>
<wgt id='1577'> +1.2862220e-12 </wgt>
<wgt id='1578'> +1.2858878e-12 </wgt>
<wgt id='1579'> +1.2844206e-12 </wgt>
<wgt id='1580'> +1.2841318e-12 </wgt>
<wgt id='1581'> +1.2865097e-12 </wgt>
<wgt id='1582'> +1.2860628e-12 </wgt>
<wgt id='1583'> +1.2851295e-12 </wgt>
<wgt id='1584'> +1.2855954e-12 </wgt>
<wgt id='1585'> +1.2848979e-12 </wgt>
<wgt id='1586'> +1.2852924e-12 </wgt>
<wgt id='1587'> +1.2858824e-12 </wgt>
<wgt id='1588'> +1.2850104e-12 </wgt>
<wgt id='1589'> +1.2853332e-12 </wgt>
<wgt id='1590'> +1.2847242e-12 </wgt>
<wgt id='1591'> +1.2846211e-12 </wgt>
<wgt id='1592'> +1.2852697e-12 </wgt>
<wgt id='1593'> +1.2836403e-12 </wgt>
<wgt id='1594'> +1.2844925e-12 </wgt>
<wgt id='1595'> +1.2849349e-12 </wgt>
<wgt id='1596'> +1.2844783e-12 </wgt>
<wgt id='1597'> +1.2845966e-12 </wgt>
<wgt id='1598'> +1.2847030e-12 </wgt>
<wgt id='1599'> +1.2847334e-12 </wgt>
<wgt id='1600'> +1.2860605e-12 </wgt>
<wgt id='1601'> +1.2840783e-12 </wgt>
<wgt id='1602'> +1.2846931e-12 </wgt>
<wgt id='1603'> +1.2841187e-12 </wgt>
<wgt id='1604'> +1.2848922e-12 </wgt>
<wgt id='1605'> +1.2852325e-12 </wgt>
<wgt id='1606'> +1.2848581e-12 </wgt>
<wgt id='1607'> +1.2857467e-12 </wgt>
<wgt id='1608'> +1.2849810e-12 </wgt>
<wgt id='1609'> +1.2845634e-12 </wgt>
<wgt id='1610'> +1.2758187e-12 </wgt>
<wgt id='1611'> +1.2960588e-12 </wgt>
<wgt id='1612'> +1.5318621e-12 </wgt>
<wgt id='1613'> +1.4954067e-12 </wgt>
<wgt id='1614'> +1.5016396e-12 </wgt>
<wgt id='1615'> +1.5401601e-12 </wgt>
<wgt id='1616'> +1.4925312e-12 </wgt>
<wgt id='1617'> +1.5425496e-12 </wgt>
<wgt id='1618'> +1.5815836e-12 </wgt>
<wgt id='1619'> +1.5202824e-12 </wgt>
<wgt id='1620'> +1.4596458e-12 </wgt>
<wgt id='1621'> +1.5722816e-12 </wgt>
<wgt id='1622'> +1.5282895e-12 </wgt>
<wgt id='1623'> +1.5168046e-12 </wgt>
<wgt id='1624'> +1.5330045e-12 </wgt>
<wgt id='1625'> +1.5369013e-12 </wgt>
<wgt id='1626'> +1.5078456e-12 </wgt>
<wgt id='1627'> +1.5270386e-12 </wgt>
<wgt id='1628'> +1.5281100e-12 </wgt>
<wgt id='1629'> +1.5678737e-12 </wgt>
<wgt id='1630'> +1.5013135e-12 </wgt>
<wgt id='1631'> +1.5419923e-12 </wgt>
<wgt id='1632'> +1.5009270e-12 </wgt>
<wgt id='1633'> +1.4981308e-12 </wgt>
<wgt id='1634'> +1.5441480e-12 </wgt>
<wgt id='1635'> +1.5584895e-12 </wgt>
<wgt id='1636'> +1.5860749e-12 </wgt>
<wgt id='1637'> +1.5340485e-12 </wgt>
<wgt id='1638'> +1.5577292e-12 </wgt>
<wgt id='1639'> +1.5019769e-12 </wgt>
<wgt id='1640'> +1.5516391e-12 </wgt>
<wgt id='1641'> +1.5192154e-12 </wgt>
<wgt id='1642'> +1.5285988e-12 </wgt>
<wgt id='1643'> +1.4984255e-12 </wgt>
<wgt id='1644'> +1.5480101e-12 </wgt>
<wgt id='1645'> +1.5556335e-12 </wgt>
<wgt id='1646'> +1.5054887e-12 </wgt>
<wgt id='1647'> +1.5267763e-12 </wgt>
<wgt id='1648'> +1.5759065e-12 </wgt>
<wgt id='1649'> +1.5867275e-12 </wgt>
<wgt id='1650'> +1.5207867e-12 </wgt>
<wgt id='1651'> +1.5066909e-12 </wgt>
<wgt id='1652'> +1.4928411e-12 </wgt>
<wgt id='1653'> +1.5441782e-12 </wgt>
<wgt id='1654'> +1.5499635e-12 </wgt>
<wgt id='1655'> +1.5266141e-12 </wgt>
<wgt id='1656'> +1.5202163e-12 </wgt>
<wgt id='1657'> +1.5049166e-12 </wgt>
<wgt id='1658'> +1.5294120e-12 </wgt>
<wgt id='1659'> +1.5330045e-12 </wgt>
<wgt id='1660'> +1.5920240e-12 </wgt>
<wgt id='1661'> +1.5257879e-12 </wgt>
<wgt id='1662'> +1.5492319e-12 </wgt>
<wgt id='1663'> +1.5162612e-12 </wgt>
<wgt id='1664'> +1.5408922e-12 </wgt>
<wgt id='1665'> +1.4918701e-12 </wgt>
<wgt id='1666'> +1.5156384e-12 </wgt>
<wgt id='1667'> +1.5050373e-12 </wgt>
<wgt id='1668'> +1.5547944e-12 </wgt>
<wgt id='1669'> +1.5579020e-12 </wgt>
<wgt id='1670'> +1.5556960e-12 </wgt>
<wgt id='1671'> +1.5520730e-12 </wgt>
<wgt id='1672'> +1.5752395e-12 </wgt>
<wgt id='1673'> +1.5112225e-12 </wgt>
<wgt id='1674'> +1.4560786e-12 </wgt>
<wgt id='1675'> +1.5587657e-12 </wgt>
<wgt id='1676'> +1.5612588e-12 </wgt>
<wgt id='1677'> +1.5815756e-12 </wgt>
<wgt id='1678'> +1.5185911e-12 </wgt>
<wgt id='1679'> +1.4993720e-12 </wgt>
<wgt id='1680'> +1.5541172e-12 </wgt>
<wgt id='1681'> +1.5399834e-12 </wgt>
<wgt id='1682'> +1.5400945e-12 </wgt>
<wgt id='1683'> +1.4902560e-12 </wgt>
<wgt id='1684'> +1.5408566e-12 </wgt>
<wgt id='1685'> +1.5144242e-12 </wgt>
<wgt id='1686'> +1.5327711e-12 </wgt>
<wgt id='1687'> +1.5531917e-12 </wgt>
<wgt id='1688'> +1.5260602e-12 </wgt>
<wgt id='1689'> +1.5547042e-12 </wgt>
<wgt id='1690'> +1.5443303e-12 </wgt>
<wgt id='1691'> +1.5470152e-12 </wgt>
<wgt id='1692'> +1.5738244e-12 </wgt>
<wgt id='1693'> +1.5376211e-12 </wgt>
<wgt id='1694'> +1.5552201e-12 </wgt>
<wgt id='1695'> +1.5868159e-12 </wgt>
<wgt id='1696'> +1.5393899e-12 </wgt>
<wgt id='1697'> +1.5156057e-12 </wgt>
<wgt id='1698'> +1.5213966e-12 </wgt>
<wgt id='1699'> +1.5320367e-12 </wgt>
<wgt id='1700'> +1.5107660e-12 </wgt>
<wgt id='1701'> +1.5481954e-12 </wgt>
<wgt id='1702'> +1.4998540e-12 </wgt>
<wgt id='1703'> +1.5410606e-12 </wgt>
<wgt id='1704'> +1.5358279e-12 </wgt>
<wgt id='1705'> +1.4555005e-12 </wgt>
<wgt id='1706'> +1.5549221e-12 </wgt>
<wgt id='1707'> +1.5152926e-12 </wgt>
<wgt id='1708'> +1.5320637e-12 </wgt>
<wgt id='1709'> +1.5472583e-12 </wgt>
<wgt id='1710'> +1.4929760e-12 </wgt>
<wgt id='1711'> +1.4957669e-12 </wgt>
<wgt id='1712'> +1.5364130e-12 </wgt>
<wgt id='1713'> +1.2439717e-12 </wgt>
<wgt id='1714'> +1.2106751e-12 </wgt>
<wgt id='1715'> +1.2292707e-12 </wgt>
<wgt id='1716'> +1.2490636e-12 </wgt>
<wgt id='1717'> +1.2368572e-12 </wgt>
<wgt id='1718'> +1.2569637e-12 </wgt>
<wgt id='1719'> +1.2434956e-12 </wgt>
<wgt id='1720'> +1.2327724e-12 </wgt>
<wgt id='1721'> +1.2073264e-12 </wgt>
<wgt id='1722'> +1.2257114e-12 </wgt>
<wgt id='1723'> +1.2484967e-12 </wgt>
<wgt id='1724'> +1.3101490e-12 </wgt>
<wgt id='1725'> +1.2348845e-12 </wgt>
<wgt id='1726'> +1.2424591e-12 </wgt>
<wgt id='1727'> +1.2830929e-12 </wgt>
<wgt id='1728'> +1.2363821e-12 </wgt>
<wgt id='1729'> +1.1972539e-12 </wgt>
<wgt id='1730'> +1.2472933e-12 </wgt>
<wgt id='1731'> +1.1872540e-12 </wgt>
<wgt id='1732'> +1.2618073e-12 </wgt>
<wgt id='1733'> +1.2134346e-12 </wgt>
<wgt id='1734'> +1.2824742e-12 </wgt>
<wgt id='1735'> +1.2388601e-12 </wgt>
<wgt id='1736'> +1.2718809e-12 </wgt>
<wgt id='1737'> +1.2850966e-12 </wgt>
<wgt id='1738'> +1.2550763e-12 </wgt>
<wgt id='1739'> +1.2160138e-12 </wgt>
<wgt id='1740'> +1.1957350e-12 </wgt>
<wgt id='1741'> +1.3046588e-12 </wgt>
<wgt id='1742'> +1.2344679e-12 </wgt>
<wgt id='1743'> +1.2319196e-12 </wgt>
<wgt id='1744'> +1.2690690e-12 </wgt>
<wgt id='1745'> +1.2334894e-12 </wgt>
<wgt id='1746'> +1.2416726e-12 </wgt>
<wgt id='1747'> +1.2570475e-12 </wgt>
<wgt id='1748'> +1.2252333e-12 </wgt>
<wgt id='1749'> +1.2340764e-12 </wgt>
<wgt id='1750'> +1.2320463e-12 </wgt>
<wgt id='1751'> +1.2109317e-12 </wgt>
<wgt id='1752'> +1.2317888e-12 </wgt>
<wgt id='1753'> +1.2556616e-12 </wgt>
<wgt id='1754'> +1.2675253e-12 </wgt>
<wgt id='1755'> +1.2629664e-12 </wgt>
<wgt id='1756'> +1.2619228e-12 </wgt>
<wgt id='1757'> +1.2375544e-12 </wgt>
<wgt id='1758'> +1.2745310e-12 </wgt>
<wgt id='1759'> +1.2501180e-12 </wgt>
<wgt id='1760'> +1.2268449e-12 </wgt>
<wgt id='1761'> +1.2376769e-12 </wgt>
<wgt id='1762'> +1.2134102e-12 </wgt>
<wgt id='1763'> +1.2567463e-12 </wgt>
<wgt id='1764'> +1.2767297e-12 </wgt>
<wgt id='1765'> +1.2248714e-12 </wgt>
<wgt id='1766'> +1.2561292e-12 </wgt>
<wgt id='1767'> +1.2514782e-12 </wgt>
<wgt id='1768'> +1.2554973e-12 </wgt>
<wgt id='1769'> +1.2371023e-12 </wgt>
<wgt id='1770'> +1.2225715e-12 </wgt>
<wgt id='1771'> +1.2753724e-12 </wgt>
<wgt id='1772'> +1.2449064e-12 </wgt>
<wgt id='1773'> +1.2383765e-12 </wgt>
<wgt id='1774'> +1.2202820e-12 </wgt>
<wgt id='1775'> +1.2531640e-12 </wgt>
<wgt id='1776'> +1.2912949e-12 </wgt>
<wgt id='1777'> +1.2018982e-12 </wgt>
<wgt id='1778'> +1.2379497e-12 </wgt>
<wgt id='1779'> +1.2583838e-12 </wgt>
<wgt id='1780'> +1.2464960e-12 </wgt>
<wgt id='1781'> +1.2482883e-12 </wgt>
<wgt id='1782'> +1.2482508e-12 </wgt>
<wgt id='1783'> +1.2469281e-12 </wgt>
<wgt id='1784'> +1.2468680e-12 </wgt>
<wgt id='1785'> +1.2505605e-12 </wgt>
<wgt id='1786'> +1.2311547e-12 </wgt>
<wgt id='1787'> +1.2935066e-12 </wgt>
<wgt id='1788'> +1.2572705e-12 </wgt>
<wgt id='1789'> +1.2931004e-12 </wgt>
<wgt id='1790'> +1.2584843e-12 </wgt>
<wgt id='1791'> +1.2397654e-12 </wgt>
<wgt id='1792'> +1.2297096e-12 </wgt>
<wgt id='1793'> +1.2355883e-12 </wgt>
<wgt id='1794'> +1.2651537e-12 </wgt>
<wgt id='1795'> +1.2473643e-12 </wgt>
<wgt id='1796'> +1.2248911e-12 </wgt>
<wgt id='1797'> +1.2441064e-12 </wgt>
<wgt id='1798'> +1.2593205e-12 </wgt>
<wgt id='1799'> +1.2598134e-12 </wgt>
<wgt id='1800'> +1.2739268e-12 </wgt>
<wgt id='1801'> +1.2378253e-12 </wgt>
<wgt id='1802'> +1.2294652e-12 </wgt>
<wgt id='1803'> +1.2747597e-12 </wgt>
<wgt id='1804'> +1.2365735e-12 </wgt>
<wgt id='1805'> +1.2015569e-12 </wgt>
<wgt id='1806'> +1.2144933e-12 </wgt>
<wgt id='1807'> +1.2625758e-12 </wgt>
<wgt id='1808'> +1.2346231e-12 </wgt>
<wgt id='1809'> +1.2351153e-12 </wgt>
<wgt id='1810'> +1.2223042e-12 </wgt>
<wgt id='1811'> +1.2501653e-12 </wgt>
<wgt id='1812'> +1.2198332e-12 </wgt>
<wgt id='1813'> +1.1856829e-12 </wgt>
<wgt id='1814'> +1.5506330e-12 </wgt>
<wgt id='1815'> +1.8258989e-12 </wgt>
<wgt id='1816'> +1.2439717e-12 </wgt>
<wgt id='1817'> +1.2106751e-12 </wgt>
<wgt id='1818'> +1.2292707e-12 </wgt>
<wgt id='1819'> +1.2490636e-12 </wgt>
<wgt id='1820'> +1.2368572e-12 </wgt>
<wgt id='1821'> +1.2569637e-12 </wgt>
<wgt id='1822'> +1.2434956e-12 </wgt>
<wgt id='1823'> +1.2327724e-12 </wgt>
<wgt id='1824'> +1.2073264e-12 </wgt>
<wgt id='1825'> +1.2257114e-12 </wgt>
<wgt id='1826'> +1.2484967e-12 </wgt>
<wgt id='1827'> +1.3101490e-12 </wgt>
<wgt id='1828'> +1.2348845e-12 </wgt>
<wgt id='1829'> +1.2424591e-12 </wgt>
<wgt id='1830'> +1.2830929e-12 </wgt>
<wgt id='1831'> +1.2363821e-12 </wgt>
<wgt id='1832'> +1.1972539e-12 </wgt>
<wgt id='1833'> +1.2472933e-12 </wgt>
<wgt id='1834'> +1.1872540e-12 </wgt>
<wgt id='1835'> +1.2618073e-12 </wgt>
<wgt id='1836'> +1.2134346e-12 </wgt>
<wgt id='1837'> +1.2824742e-12 </wgt>
<wgt id='1838'> +1.2388601e-12 </wgt>
<wgt id='1839'> +1.2718809e-12 </wgt>
<wgt id='1840'> +1.2850966e-12 </wgt>
<wgt id='1841'> +1.2550763e-12 </wgt>
<wgt id='1842'> +1.2160138e-12 </wgt>
<wgt id='1843'> +1.1957350e-12 </wgt>
<wgt id='1844'> +1.3046588e-12 </wgt>
<wgt id='1845'> +1.2344679e-12 </wgt>
<wgt id='1846'> +1.2319196e-12 </wgt>
<wgt id='1847'> +1.2690690e-12 </wgt>
<wgt id='1848'> +1.2334894e-12 </wgt>
<wgt id='1849'> +1.2416726e-12 </wgt>
<wgt id='1850'> +1.2570475e-12 </wgt>
<wgt id='1851'> +1.2252333e-12 </wgt>
<wgt id='1852'> +1.2340764e-12 </wgt>
<wgt id='1853'> +1.2320463e-12 </wgt>
<wgt id='1854'> +1.2109317e-12 </wgt>
<wgt id='1855'> +1.2317888e-12 </wgt>
<wgt id='1856'> +1.2556616e-12 </wgt>
<wgt id='1857'> +1.2675253e-12 </wgt>
<wgt id='1858'> +1.2629664e-12 </wgt>
<wgt id='1859'> +1.2619228e-12 </wgt>
<wgt id='1860'> +1.2375544e-12 </wgt>
<wgt id='1861'> +1.2745310e-12 </wgt>
<wgt id='1862'> +1.2501180e-12 </wgt>
<wgt id='1863'> +1.2268449e-12 </wgt>
<wgt id='1864'> +1.2376769e-12 </wgt>
<wgt id='1865'> +1.2134102e-12 </wgt>
<wgt id='1866'> +1.2567463e-12 </wgt>
<wgt id='1867'> +1.2767297e-12 </wgt>
<wgt id='1868'> +1.2248714e-12 </wgt>
<wgt id='1869'> +1.2561292e-12 </wgt>
<wgt id='1870'> +1.2514782e-12 </wgt>
<wgt id='1871'> +1.2554973e-12 </wgt>
<wgt id='1872'> +1.2371023e-12 </wgt>
<wgt id='1873'> +1.2225715e-12 </wgt>
<wgt id='1874'> +1.2753724e-12 </wgt>
<wgt id='1875'> +1.2449064e-12 </wgt>
<wgt id='1876'> +1.2383765e-12 </wgt>
<wgt id='1877'> +1.2202820e-12 </wgt>
<wgt id='1878'> +1.2531640e-12 </wgt>
<wgt id='1879'> +1.2912949e-12 </wgt>
<wgt id='1880'> +1.2018982e-12 </wgt>
<wgt id='1881'> +1.2379497e-12 </wgt>
<wgt id='1882'> +1.2583838e-12 </wgt>
<wgt id='1883'> +1.2464960e-12 </wgt>
<wgt id='1884'> +1.2482883e-12 </wgt>
<wgt id='1885'> +1.2482508e-12 </wgt>
<wgt id='1886'> +1.2469281e-12 </wgt>
<wgt id='1887'> +1.2468680e-12 </wgt>
<wgt id='1888'> +1.2505605e-12 </wgt>
<wgt id='1889'> +1.2311547e-12 </wgt>
<wgt id='1890'> +1.2935066e-12 </wgt>
<wgt id='1891'> +1.2572705e-12 </wgt>
<wgt id='1892'> +1.2931004e-12 </wgt>
<wgt id='1893'> +1.2584843e-12 </wgt>
<wgt id='1894'> +1.2397654e-12 </wgt>
<wgt id='1895'> +1.2297096e-12 </wgt>
<wgt id='1896'> +1.2355883e-12 </wgt>
<wgt id='1897'> +1.2651537e-12 </wgt>
<wgt id='1898'> +1.2473643e-12 </wgt>
<wgt id='1899'> +1.2248911e-12 </wgt>
<wgt id='1900'> +1.2441064e-12 </wgt>
<wgt id='1901'> +1.2593205e-12 </wgt>
<wgt id='1902'> +1.2598134e-12 </wgt>
<wgt id='1903'> +1.2739268e-12 </wgt>
<wgt id='1904'> +1.2378253e-12 </wgt>
<wgt id='1905'> +1.2294652e-12 </wgt>
<wgt id='1906'> +1.2747597e-12 </wgt>
<wgt id='1907'> +1.2365735e-12 </wgt>
<wgt id='1908'> +1.2015569e-12 </wgt>
<wgt id='1909'> +1.2144933e-12 </wgt>
<wgt id='1910'> +1.2625758e-12 </wgt>
<wgt id='1911'> +1.2346231e-12 </wgt>
<wgt id='1912'> +1.2351153e-12 </wgt>
<wgt id='1913'> +1.2223042e-12 </wgt>
<wgt id='1914'> +1.2501653e-12 </wgt>
<wgt id='1915'> +1.2198332e-12 </wgt>
<wgt id='1916'> +1.1856829e-12 </wgt>
<wgt id='1917'> +1.2335706e-12 </wgt>
<wgt id='1918'> +1.2520959e-12 </wgt>
<wgt id='1919'> +1.2393599e-12 </wgt>
</rwgt>
</event>
<event>
 9      1 +1.5538000e-12 6.62593100e+01 7.81860800e-03 1.24630000e-01
       21 -1    0    0  501  502 +0.0000000000e+00 +0.0000000000e+00 +2.4911648921e+01 2.4911648921e+01 0.0000000000e+00 0.0000e+00 -1.0000e+00
        3 -1    0    0  502    0 -0.0000000000e+00 -0.0000000000e+00 -4.4058660410e+01 4.4058660410e+01 0.0000000000e+00 0.0000e+00 -1.0000e+00
     1023  2    1    2    0    0 -1.4272394106e+01 +1.6294839316e+01 -3.3771690905e+01 4.2834045827e+01 1.5000178448e+01 0.0000e+00 0.0000e+00
  1000023  2    3    3    0    0 -1.3450928476e+01 +1.5450196358e+01 -2.7315964484e+01 3.4583916669e+01 5.4999392797e+00 0.0000e+00 0.0000e+00
        3  1    1    2  501    0 +1.4272394106e+01 -1.6294839316e+01 +1.4624679416e+01 2.6136263503e+01 0.0000000000e+00 0.0000e+00 -1.0000e+00
  1000022  1    4    4    0    0 -1.2405439048e+01 +1.4200549747e+01 -2.4599528986e+01 3.1395658257e+01 5.0000000000e+00 0.0000e+00 -1.0000e+00
      -11  1    4    4    0    0 -1.0595053372e+00 +1.2481565102e+00 -2.6107297220e+00 3.0816158385e+00 5.1100000000e-04 0.0000e+00 -1.0000e+00
       11  1    4    4    0    0 +1.4015908652e-02 +1.4901007218e-03 -1.0570577651e-01 1.0664257314e-01 5.1100000000e-04 0.0000e+00 1.0000e+00
  1000022  1    3    3    0    0 -8.2146563007e-01 +8.4464295806e-01 -6.4557264211e+00 8.2501291585e+00 5.0000000000e+00 0.0000e+00 -1.0000e+00
<mgrwt>
<rscale>  1 0.66259305E+02</rscale>
<asrwt>0</asrwt>
<pdfrwt beam="1">  1       21 0.38325614E-02 0.66259305E+02</pdfrwt>
<pdfrwt beam="2">  1        3 0.67782554E-02 0.66259305E+02</pdfrwt>
<totfact> 0.37690824E+06</totfact>
</mgrwt>
<rwgt>
<wgt id='1001'> +1.5538000e-12 </wgt>
<wgt id='1002'> +1.5241827e-12 </wgt>
<wgt id='1003'> +1.5317446e-12 </wgt>
<wgt id='1004'> +1.4504521e-12 </wgt>
<wgt id='1005'> +1.5538000e-12 </wgt>
<wgt id='1006'> +1.3852569e-12 </wgt>
<wgt id='1007'> +1.3466918e-12 </wgt>
<wgt id='1008'> +1.3561533e-12 </wgt>
<wgt id='1009'> +1.2609786e-12 </wgt>
<wgt id='1010'> +1.3852569e-12 </wgt>
<wgt id='1011'> +1.7709732e-12 </wgt>
<wgt id='1012'> +1.7580103e-12 </wgt>
<wgt id='1013'> +1.7619031e-12 </wgt>
<wgt id='1014'> +1.7104320e-12 </wgt>
<wgt id='1015'> +1.7709732e-12 </wgt>
<wgt id='1016'> +1.7686132e-12 </wgt>
<wgt id='1017'> +1.7730951e-12 </wgt>
<wgt id='1018'> +1.7727992e-12 </wgt>
<wgt id='1019'> +1.7619031e-12 </wgt>
<wgt id='1020'> +1.7686132e-12 </wgt>
<wgt id='1021'> +1.5767690e-12 </wgt>
<wgt id='1022'> +1.5666183e-12 </wgt>
<wgt id='1023'> +1.5695747e-12 </wgt>
<wgt id='1024'> +1.5317446e-12 </wgt>
<wgt id='1025'> +1.5767690e-12 </wgt>
<wgt id='1026'> +2.0158106e-12 </wgt>
<wgt id='1027'> +2.0451087e-12 </wgt>
<wgt id='1028'> +2.0391783e-12 </wgt>
<wgt id='1029'> +2.0777077e-12 </wgt>
<wgt id='1030'> +2.0158106e-12 </wgt>
<wgt id='1031'> +1.3117745e-12 </wgt>
<wgt id='1032'> +1.2451332e-12 </wgt>
<wgt id='1033'> +1.2609786e-12 </wgt>
<wgt id='1034'> +1.1063828e-12 </wgt>
<wgt id='1035'> +1.3117745e-12 </wgt>
<wgt id='1036'> +1.1694843e-12 </wgt>
<wgt id='1037'> +1.1001376e-12 </wgt>
<wgt id='1038'> +1.1164266e-12 </wgt>
<wgt id='1039'> +9.6185535e-13 </wgt>
<wgt id='1040'> +1.1694843e-12 </wgt>
<wgt id='1041'> +1.4951200e-12 </wgt>
<wgt id='1042'> +1.4361513e-12 </wgt>
<wgt id='1043'> +1.4504521e-12 </wgt>
<wgt id='1044'> +1.3046916e-12 </wgt>
<wgt id='1045'> +1.4951200e-12 </wgt>
<wgt id='1046'> +1.5538000e-12 </wgt>
<wgt id='1047'> +1.3033305e-12 </wgt>
<wgt id='1048'> +1.5345842e-12 </wgt>
<wgt id='1049'> +1.5205960e-12 </wgt>
<wgt id='1050'> +1.5674827e-12 </wgt>
<wgt id='1051'> +1.5978687e-12 </wgt>
<wgt id='1052'> +1.3828738e-12 </wgt>
<wgt id='1053'> +1.5007988e-12 </wgt>
<wgt id='1054'> +1.6689584e-12 </wgt>
<wgt id='1055'> +1.5605221e-12 </wgt>
<wgt id='1056'> +1.5171116e-12 </wgt>
<wgt id='1057'> +1.5435540e-12 </wgt>
<wgt id='1058'> +1.6158741e-12 </wgt>
<wgt id='1059'> +1.6136973e-12 </wgt>
<wgt id='1060'> +1.5672834e-12 </wgt>
<wgt id='1061'> +1.4977577e-12 </wgt>
<wgt id='1062'> +1.5685177e-12 </wgt>
<wgt id='1063'> +1.4235628e-12 </wgt>
<wgt id='1064'> +1.6542267e-12 </wgt>
<wgt id='1065'> +1.6013532e-12 </wgt>
<wgt id='1066'> +1.6873273e-12 </wgt>
<wgt id='1067'> +1.5293580e-12 </wgt>
<wgt id='1068'> +1.5651253e-12 </wgt>
<wgt id='1069'> +1.5072652e-12 </wgt>
<wgt id='1070'> +1.6680368e-12 </wgt>
<wgt id='1071'> +1.6430226e-12 </wgt>
<wgt id='1072'> +1.5580718e-12 </wgt>
<wgt id='1073'> +1.4680568e-12 </wgt>
<wgt id='1074'> +1.5705826e-12 </wgt>
<wgt id='1075'> +1.5716705e-12 </wgt>
<wgt id='1076'> +1.4118423e-12 </wgt>
<wgt id='1077'> +1.4329442e-12 </wgt>
<wgt id='1078'> +1.5348092e-12 </wgt>
<wgt id='1079'> +1.5154800e-12 </wgt>
<wgt id='1080'> +1.6818654e-12 </wgt>
<wgt id='1081'> +1.5528085e-12 </wgt>
<wgt id='1082'> +1.5733134e-12 </wgt>
<wgt id='1083'> +1.6389299e-12 </wgt>
<wgt id='1084'> +1.5816502e-12 </wgt>
<wgt id='1085'> +1.4648484e-12 </wgt>
<wgt id='1086'> +1.5242413e-12 </wgt>
<wgt id='1087'> +1.5864673e-12 </wgt>
<wgt id='1088'> +1.5357687e-12 </wgt>
<wgt id='1089'> +1.5037481e-12 </wgt>
<wgt id='1090'> +1.4372632e-12 </wgt>
<wgt id='1091'> +1.5606021e-12 </wgt>
<wgt id='1092'> +1.5588116e-12 </wgt>
<wgt id='1093'> +1.5931713e-12 </wgt>
<wgt id='1094'> +1.6272675e-12 </wgt>
<wgt id='1095'> +1.4933353e-12 </wgt>
<wgt id='1096'> +1.5621215e-12 </wgt>
<wgt id='1097'> +1.5722537e-12 </wgt>
<wgt id='1098'> +1.5378391e-12 </wgt>
<wgt id='1099'> +1.5740357e-12 </wgt>
<wgt id='1100'> +1.4806204e-12 </wgt>
<wgt id='1101'> +1.6497930e-12 </wgt>
<wgt id='1102'> +1.5704236e-12 </wgt>
<wgt id='1103'> +1.5672668e-12 </wgt>
<wgt id='1104'> +1.6013702e-12 </wgt>
<wgt id='1105'> +1.5056498e-12 </wgt>
<wgt id='1106'> +1.4871180e-12 </wgt>
<wgt id='1107'> +1.4228276e-12 </wgt>
<wgt id='1108'> +1.5903139e-12 </wgt>
<wgt id='1109'> +1.6210136e-12 </wgt>
<wgt id='1110'> +1.6596056e-12 </wgt>
<wgt id='1111'> +1.5638159e-12 </wgt>
<wgt id='1112'> +1.5697571e-12 </wgt>
<wgt id='1113'> +1.5358203e-12 </wgt>
<wgt id='1114'> +1.4384442e-12 </wgt>
<wgt id='1115'> +1.5403726e-12 </wgt>
<wgt id='1116'> +1.5368360e-12 </wgt>
<wgt id='1117'> +1.5178614e-12 </wgt>
<wgt id='1118'> +1.4836845e-12 </wgt>
<wgt id='1119'> +1.6136532e-12 </wgt>
<wgt id='1120'> +1.6131003e-12 </wgt>
<wgt id='1121'> +1.6227875e-12 </wgt>
<wgt id='1122'> +1.5426656e-12 </wgt>
<wgt id='1123'> +1.5819421e-12 </wgt>
<wgt id='1124'> +1.5367760e-12 </wgt>
<wgt id='1125'> +1.5847467e-12 </wgt>
<wgt id='1126'> +1.4744376e-12 </wgt>
<wgt id='1127'> +1.5864912e-12 </wgt>
<wgt id='1128'> +1.5685177e-12 </wgt>
<wgt id='1129'> +1.5058040e-12 </wgt>
<wgt id='1130'> +1.6328653e-12 </wgt>
<wgt id='1131'> +1.5488419e-12 </wgt>
<wgt id='1132'> +1.4733292e-12 </wgt>
<wgt id='1133'> +1.6930448e-12 </wgt>
<wgt id='1134'> +1.4006705e-12 </wgt>
<wgt id='1135'> +1.6800438e-12 </wgt>
<wgt id='1136'> +1.5717766e-12 </wgt>
<wgt id='1137'> +1.6483426e-12 </wgt>
<wgt id='1138'> +1.6846133e-12 </wgt>
<wgt id='1139'> +1.6042745e-12 </wgt>
<wgt id='1140'> +1.4801531e-12 </wgt>
<wgt id='1141'> +1.6126832e-12 </wgt>
<wgt id='1142'> +1.5642779e-12 </wgt>
<wgt id='1143'> +1.4705909e-12 </wgt>
<wgt id='1144'> +1.4840512e-12 </wgt>
<wgt id='1145'> +1.6100893e-12 </wgt>
<wgt id='1146'> +1.5953957e-12 </wgt>
<wgt id='1147'> +1.2873194e-12 </wgt>
<wgt id='1148'> +1.3164323e-12 </wgt>
<wgt id='1149'> +1.2187575e-12 </wgt>
<wgt id='1150'> +1.2057572e-12 </wgt>
<wgt id='1151'> +1.0701442e-12 </wgt>
<wgt id='1152'> +1.3742819e-12 </wgt>
<wgt id='1153'> +1.3698127e-12 </wgt>
<wgt id='1154'> +1.3769397e-12 </wgt>
<wgt id='1155'> +1.3757358e-12 </wgt>
<wgt id='1156'> +1.3736048e-12 </wgt>
<wgt id='1157'> +1.3645621e-12 </wgt>
<wgt id='1158'> +1.3874166e-12 </wgt>
<wgt id='1159'> +1.3663608e-12 </wgt>
<wgt id='1160'> +1.3794262e-12 </wgt>
<wgt id='1161'> +1.3619609e-12 </wgt>
<wgt id='1162'> +1.3828104e-12 </wgt>
<wgt id='1163'> +1.3630557e-12 </wgt>
<wgt id='1164'> +1.3854865e-12 </wgt>
<wgt id='1165'> +1.3621277e-12 </wgt>
<wgt id='1166'> +1.3861914e-12 </wgt>
<wgt id='1167'> +1.3912903e-12 </wgt>
<wgt id='1168'> +1.3518374e-12 </wgt>
<wgt id='1169'> +1.3775725e-12 </wgt>
<wgt id='1170'> +1.3718480e-12 </wgt>
<wgt id='1171'> +1.3684335e-12 </wgt>
<wgt id='1172'> +1.3816081e-12 </wgt>
<wgt id='1173'> +1.3637796e-12 </wgt>
<wgt id='1174'> +1.3844028e-12 </wgt>
<wgt id='1175'> +1.3714834e-12 </wgt>
<wgt id='1176'> +1.3757731e-12 </wgt>
<wgt id='1177'> +1.3754656e-12 </wgt>
<wgt id='1178'> +1.3710993e-12 </wgt>
<wgt id='1179'> +1.3843604e-12 </wgt>
<wgt id='1180'> +1.3586956e-12 </wgt>
<wgt id='1181'> +1.3718101e-12 </wgt>
<wgt id='1182'> +1.3765959e-12 </wgt>
<wgt id='1183'> +1.3745726e-12 </wgt>
<wgt id='1184'> +1.3743328e-12 </wgt>
<wgt id='1185'> +1.4092662e-12 </wgt>
<wgt id='1186'> +1.3555730e-12 </wgt>
<wgt id='1187'> +1.3893090e-12 </wgt>
<wgt id='1188'> +1.3707540e-12 </wgt>
<wgt id='1189'> +1.3662913e-12 </wgt>
<wgt id='1190'> +1.3677280e-12 </wgt>
<wgt id='1191'> +1.3724381e-12 </wgt>
<wgt id='1192'> +1.3713666e-12 </wgt>
<wgt id='1193'> +1.2021176e-12 </wgt>
<wgt id='1194'> +1.2024400e-12 </wgt>
<wgt id='1195'> +1.2017557e-12 </wgt>
<wgt id='1196'> +1.1995169e-12 </wgt>
<wgt id='1197'> +1.2050188e-12 </wgt>
<wgt id='1198'> +1.2096217e-12 </wgt>
<wgt id='1199'> +1.1909240e-12 </wgt>
<wgt id='1200'> +1.1995711e-12 </wgt>
<wgt id='1201'> +1.2038071e-12 </wgt>
<wgt id='1202'> +1.2003407e-12 </wgt>
<wgt id='1203'> +1.2045898e-12 </wgt>
<wgt id='1204'> +1.1948283e-12 </wgt>
<wgt id='1205'> +1.2065799e-12 </wgt>
<wgt id='1206'> +1.2071368e-12 </wgt>
<wgt id='1207'> +1.1952334e-12 </wgt>
<wgt id='1208'> +1.1949327e-12 </wgt>
<wgt id='1209'> +1.2046992e-12 </wgt>
<wgt id='1210'> +1.2090737e-12 </wgt>
<wgt id='1211'> +1.1863879e-12 </wgt>
<wgt id='1212'> +1.1994007e-12 </wgt>
<wgt id='1213'> +1.2046076e-12 </wgt>
<wgt id='1214'> +1.1860138e-12 </wgt>
<wgt id='1215'> +1.2290410e-12 </wgt>
<wgt id='1216'> +1.2135564e-12 </wgt>
<wgt id='1217'> +1.1946100e-12 </wgt>
<wgt id='1218'> +1.2099192e-12 </wgt>
<wgt id='1219'> +1.1981576e-12 </wgt>
<wgt id='1220'> +1.2072430e-12 </wgt>
<wgt id='1221'> +1.2002402e-12 </wgt>
<wgt id='1222'> +1.2021007e-12 </wgt>
<wgt id='1223'> +1.2038040e-12 </wgt>
<wgt id='1224'> +1.1970045e-12 </wgt>
<wgt id='1225'> +1.2041080e-12 </wgt>
<wgt id='1226'> +1.2144132e-12 </wgt>
<wgt id='1227'> +1.1939889e-12 </wgt>
<wgt id='1228'> +1.1970355e-12 </wgt>
<wgt id='1229'> +1.2045315e-12 </wgt>
<wgt id='1230'> +1.1922830e-12 </wgt>
<wgt id='1231'> +1.1989472e-12 </wgt>
<wgt id='1232'> +1.2081302e-12 </wgt>
<wgt id='1233'> +1.2018904e-12 </wgt>
<wgt id='1234'> +1.2021176e-12 </wgt>
<wgt id='1235'> +1.1925015e-12 </wgt>
<wgt id='1236'> +1.1960407e-12 </wgt>
<wgt id='1237'> +1.1992921e-12 </wgt>
<wgt id='1238'> +1.2047507e-12 </wgt>
<wgt id='1239'> +1.2070453e-12 </wgt>
<wgt id='1240'> +1.2092691e-12 </wgt>
<wgt id='1241'> +1.1905675e-12 </wgt>
<wgt id='1242'> +1.1871460e-12 </wgt>
<wgt id='1243'> +1.1939939e-12 </wgt>
<wgt id='1244'> +1.1858226e-12 </wgt>
<wgt id='1245'> +1.1941319e-12 </wgt>
<wgt id='1246'> +1.1929549e-12 </wgt>
<wgt id='1247'> +1.1885912e-12 </wgt>
<wgt id='1248'> +1.1907396e-12 </wgt>
<wgt id='1249'> +1.1904123e-12 </wgt>
<wgt id='1250'> +1.1777357e-12 </wgt>
<wgt id='1251'> +1.1996799e-12 </wgt>
<wgt id='1252'> +1.1843315e-12 </wgt>
<wgt id='1253'> +1.1954357e-12 </wgt>
<wgt id='1254'> +1.1842694e-12 </wgt>
<wgt id='1255'> +1.1943194e-12 </wgt>
<wgt id='1256'> +1.1947203e-12 </wgt>
<wgt id='1257'> +1.1801868e-12 </wgt>
<wgt id='1258'> +1.2139863e-12 </wgt>
<wgt id='1259'> +1.1693716e-12 </wgt>
<wgt id='1260'> +1.1968072e-12 </wgt>
<wgt id='1261'> +1.1833194e-12 </wgt>
<wgt id='1262'> +1.1946430e-12 </wgt>
<wgt id='1263'> +1.1887175e-12 </wgt>
<wgt id='1264'> +1.2002783e-12 </wgt>
<wgt id='1265'> +1.1859005e-12 </wgt>
<wgt id='1266'> +1.1851366e-12 </wgt>
<wgt id='1267'> +1.1961596e-12 </wgt>
<wgt id='1268'> +1.1905705e-12 </wgt>
<wgt id='1269'> +1.1942430e-12 </wgt>
<wgt id='1270'> +1.1850138e-12 </wgt>
<wgt id='1271'> +1.1820858e-12 </wgt>
<wgt id='1272'> +1.1922705e-12 </wgt>
<wgt id='1273'> +1.1893575e-12 </wgt>
<wgt id='1274'> +1.1819361e-12 </wgt>
<wgt id='1275'> +1.2031258e-12 </wgt>
<wgt id='1276'> +1.1933408e-12 </wgt>
<wgt id='1277'> +1.1870245e-12 </wgt>
<wgt id='1278'> +1.1932241e-12 </wgt>
<wgt id='1279'> +1.1827081e-12 </wgt>
<wgt id='1280'> +1.1924338e-12 </wgt>
<wgt id='1281'> +1.1876723e-12 </wgt>
<wgt id='1282'> +1.1905675e-12 </wgt>
<wgt id='1283'> +1.1800983e-12 </wgt>
<wgt id='1284'> +1.1841061e-12 </wgt>
<wgt id='1285'> +1.1876298e-12 </wgt>
<wgt id='1286'> +1.1935752e-12 </wgt>
<wgt id='1287'> +1.1960624e-12 </wgt>
<wgt id='1288'> +1.1981544e-12 </wgt>
<wgt id='1289'> +1.3116934e-12 </wgt>
<wgt id='1290'> +1.3119585e-12 </wgt>
<wgt id='1291'> +1.3114811e-12 </wgt>
<wgt id='1292'> +1.3108015e-12 </wgt>
<wgt id='1293'> +1.3123591e-12 </wgt>
<wgt id='1294'> +1.3116015e-12 </wgt>
<wgt id='1295'> +1.3118916e-12 </wgt>
<wgt id='1296'> +1.3058621e-12 </wgt>
<wgt id='1297'> +1.3189752e-12 </wgt>
<wgt id='1298'> +1.3153267e-12 </wgt>
<wgt id='1299'> +1.3072532e-12 </wgt>
<wgt id='1300'> +1.3136656e-12 </wgt>
<wgt id='1301'> +1.3078450e-12 </wgt>
<wgt id='1302'> +1.3097150e-12 </wgt>
<wgt id='1303'> +1.3145285e-12 </wgt>
<wgt id='1304'> +1.3056922e-12 </wgt>
<wgt id='1305'> +1.3159081e-12 </wgt>
<wgt id='1306'> +1.3008076e-12 </wgt>
<wgt id='1307'> +1.3240835e-12 </wgt>
<wgt id='1308'> +1.2844030e-12 </wgt>
<wgt id='1309'> +1.3325768e-12 </wgt>
<wgt id='1310'> +1.3106035e-12 </wgt>
<wgt id='1311'> +1.3130563e-12 </wgt>
<wgt id='1312'> +1.3073133e-12 </wgt>
<wgt id='1313'> +1.3163857e-12 </wgt>
<wgt id='1314'> +1.3204382e-12 </wgt>
<wgt id='1315'> +1.2974063e-12 </wgt>
<wgt id='1316'> +1.3151527e-12 </wgt>
<wgt id='1317'> +1.3137227e-12 </wgt>
<wgt id='1318'> +1.3280043e-12 </wgt>
<wgt id='1319'> +1.2930052e-12 </wgt>
<wgt id='1320'> +1.3257168e-12 </wgt>
<wgt id='1321'> +1.3004234e-12 </wgt>
<wgt id='1322'> +1.3158100e-12 </wgt>
<wgt id='1323'> +1.3061725e-12 </wgt>
<wgt id='1324'> +1.3122119e-12 </wgt>
<wgt id='1325'> +1.3143642e-12 </wgt>
<wgt id='1326'> +1.3212576e-12 </wgt>
<wgt id='1327'> +1.3059387e-12 </wgt>
<wgt id='1328'> +1.3090424e-12 </wgt>
<wgt id='1329'> +1.3142756e-12 </wgt>
<wgt id='1330'> +1.3977842e-12 </wgt>
<wgt id='1331'> +1.2295409e-12 </wgt>
<wgt id='1332'> +1.2752743e-12 </wgt>
<wgt id='1333'> +1.3462420e-12 </wgt>
<wgt id='1334'> +1.3291154e-12 </wgt>
<wgt id='1335'> +1.2685461e-12 </wgt>
<wgt id='1336'> +1.2954211e-12 </wgt>
<wgt id='1337'> +1.3262800e-12 </wgt>
<wgt id='1338'> +1.3045742e-12 </wgt>
<wgt id='1339'> +1.3151235e-12 </wgt>
<wgt id='1340'> +1.2744492e-12 </wgt>
<wgt id='1341'> +1.2746648e-12 </wgt>
<wgt id='1342'> +1.2742563e-12 </wgt>
<wgt id='1343'> +1.2734157e-12 </wgt>
<wgt id='1344'> +1.2751706e-12 </wgt>
<wgt id='1345'> +1.2741037e-12 </wgt>
<wgt id='1346'> +1.2748082e-12 </wgt>
<wgt id='1347'> +1.2689624e-12 </wgt>
<wgt id='1348'> +1.2806052e-12 </wgt>
<wgt id='1349'> +1.2783492e-12 </wgt>
<wgt id='1350'> +1.2706711e-12 </wgt>
<wgt id='1351'> +1.2761577e-12 </wgt>
<wgt id='1352'> +1.2707655e-12 </wgt>
<wgt id='1353'> +1.2712044e-12 </wgt>
<wgt id='1354'> +1.2802790e-12 </wgt>
<wgt id='1355'> +1.2682761e-12 </wgt>
<wgt id='1356'> +1.2779429e-12 </wgt>
<wgt id='1357'> +1.2547752e-12 </wgt>
<wgt id='1358'> +1.2975573e-12 </wgt>
<wgt id='1359'> +1.2487625e-12 </wgt>
<wgt id='1360'> +1.2967115e-12 </wgt>
<wgt id='1361'> +1.2730941e-12 </wgt>
<wgt id='1362'> +1.2764309e-12 </wgt>
<wgt id='1363'> +1.2684871e-12 </wgt>
<wgt id='1364'> +1.2789323e-12 </wgt>
<wgt id='1365'> +1.2611670e-12 </wgt>
<wgt id='1366'> +1.2835093e-12 </wgt>
<wgt id='1367'> +1.2777034e-12 </wgt>
<wgt id='1368'> +1.2757210e-12 </wgt>
<wgt id='1369'> +1.2867159e-12 </wgt>
<wgt id='1370'> +1.2601403e-12 </wgt>
<wgt id='1371'> +1.2867243e-12 </wgt>
<wgt id='1372'> +1.2603329e-12 </wgt>
<wgt id='1373'> +1.2779335e-12 </wgt>
<wgt id='1374'> +1.2707629e-12 </wgt>
<wgt id='1375'> +1.2744434e-12 </wgt>
<wgt id='1376'> +1.2781269e-12 </wgt>
<wgt id='1377'> +1.2821441e-12 </wgt>
<wgt id='1378'> +1.2707667e-12 </wgt>
<wgt id='1379'> +1.2730606e-12 </wgt>
<wgt id='1380'> +1.2759397e-12 </wgt>
<wgt id='1381'> +1.3634564e-12 </wgt>
<wgt id='1382'> +1.1955909e-12 </wgt>
<wgt id='1383'> +1.2299780e-12 </wgt>
<wgt id='1384'> +1.3180224e-12 </wgt>
<wgt id='1385'> +1.2929995e-12 </wgt>
<wgt id='1386'> +1.2306430e-12 </wgt>
<wgt id='1387'> +1.2548932e-12 </wgt>
<wgt id='1388'> +1.2911243e-12 </wgt>
<wgt id='1389'> +1.2646657e-12 </wgt>
<wgt id='1390'> +1.2787628e-12 </wgt>
<wgt id='1391'> +1.2573180e-12 </wgt>
<wgt id='1392'> +1.2055551e-12 </wgt>
<wgt id='1393'> +1.2227023e-12 </wgt>
<wgt id='1394'> +1.2377939e-12 </wgt>
<wgt id='1395'> +1.2696727e-12 </wgt>
<wgt id='1396'> +1.2545560e-12 </wgt>
<wgt id='1397'> +1.2239844e-12 </wgt>
<wgt id='1398'> +1.2282490e-12 </wgt>
<wgt id='1399'> +1.2340132e-12 </wgt>
<wgt id='1400'> +1.2406681e-12 </wgt>
<wgt id='1401'> +1.2468594e-12 </wgt>
<wgt id='1402'> +1.2618354e-12 </wgt>
<wgt id='1403'> +1.2700686e-12 </wgt>
<wgt id='1404'> +1.2794810e-12 </wgt>
<wgt id='1405'> +1.2545560e-12 </wgt>
<wgt id='1406'> +1.2426072e-12 </wgt>
<wgt id='1407'> +1.2485521e-12 </wgt>
<wgt id='1408'> +1.2595683e-12 </wgt>
<wgt id='1409'> +1.2635772e-12 </wgt>
<wgt id='1410'> +1.2421805e-12 </wgt>
<wgt id='1411'> +1.2416478e-12 </wgt>
<wgt id='1412'> +1.2428309e-12 </wgt>
<wgt id='1413'> +1.2455329e-12 </wgt>
<wgt id='1414'> +1.2388331e-12 </wgt>
<wgt id='1415'> +1.2414594e-12 </wgt>
<wgt id='1416'> +1.2424578e-12 </wgt>
<wgt id='1417'> +1.2342284e-12 </wgt>
<wgt id='1418'> +1.2501659e-12 </wgt>
<wgt id='1419'> +1.2440187e-12 </wgt>
<wgt id='1420'> +1.2404351e-12 </wgt>
<wgt id='1421'> +1.2330165e-12 </wgt>
<wgt id='1422'> +1.2462538e-12 </wgt>
<wgt id='1423'> +1.2426263e-12 </wgt>
<wgt id='1424'> +1.2415311e-12 </wgt>
<wgt id='1425'> +1.2354087e-12 </wgt>
<wgt id='1426'> +1.2494826e-12 </wgt>
<wgt id='1427'> +1.2124794e-12 </wgt>
<wgt id='1428'> +1.2586186e-12 </wgt>
<wgt id='1429'> +1.2557092e-12 </wgt>
<wgt id='1430'> +1.2241572e-12 </wgt>
<wgt id='1431'> +1.2224053e-12 </wgt>
<wgt id='1432'> +1.2559861e-12 </wgt>
<wgt id='1433'> +1.2527352e-12 </wgt>
<wgt id='1434'> +1.2314019e-12 </wgt>
<wgt id='1435'> +1.2459166e-12 </wgt>
<wgt id='1436'> +1.2332404e-12 </wgt>
<wgt id='1437'> +1.2475074e-12 </wgt>
<wgt id='1438'> +1.2414324e-12 </wgt>
<wgt id='1439'> +1.2334958e-12 </wgt>
<wgt id='1440'> +1.2642550e-12 </wgt>
<wgt id='1441'> +1.2460739e-12 </wgt>
<wgt id='1442'> +1.2347127e-12 </wgt>
<wgt id='1443'> +1.2387084e-12 </wgt>
<wgt id='1444'> +1.2500749e-12 </wgt>
<wgt id='1445'> +1.2439777e-12 </wgt>
<wgt id='1446'> +1.2424243e-12 </wgt>
<wgt id='1447'> +1.2436252e-12 </wgt>
<wgt id='1448'> +1.2419648e-12 </wgt>
<wgt id='1449'> +1.2405090e-12 </wgt>
<wgt id='1450'> +1.2433320e-12 </wgt>
<wgt id='1451'> +1.1850938e-12 </wgt>
<wgt id='1452'> +1.3452179e-12 </wgt>
<wgt id='1453'> +1.2368098e-12 </wgt>
<wgt id='1454'> +1.2742519e-12 </wgt>
<wgt id='1455'> +1.2816817e-12 </wgt>
<wgt id='1456'> +1.2058745e-12 </wgt>
<wgt id='1457'> +1.2081045e-12 </wgt>
<wgt id='1458'> +1.2565848e-12 </wgt>
<wgt id='1459'> +1.2247849e-12 </wgt>
<wgt id='1460'> +1.2521136e-12 </wgt>
<wgt id='1461'> +1.2421805e-12 </wgt>
<wgt id='1462'> +1.2230556e-12 </wgt>
<wgt id='1463'> +1.2467719e-12 </wgt>
<wgt id='1464'> +1.2351663e-12 </wgt>
<wgt id='1465'> +1.1899505e-12 </wgt>
<wgt id='1466'> +1.1969842e-12 </wgt>
<wgt id='1467'> +1.2055356e-12 </wgt>
<wgt id='1468'> +1.2159969e-12 </wgt>
<wgt id='1469'> +1.2252260e-12 </wgt>
<wgt id='1470'> +1.2460135e-12 </wgt>
<wgt id='1471'> +1.2620272e-12 </wgt>
<wgt id='1472'> +1.2732651e-12 </wgt>
<wgt id='1473'> +1.2351663e-12 </wgt>
<wgt id='1474'> +1.2243553e-12 </wgt>
<wgt id='1475'> +1.2308327e-12 </wgt>
<wgt id='1476'> +1.2401833e-12 </wgt>
<wgt id='1477'> +1.2439241e-12 </wgt>
<wgt id='1478'> +1.1879243e-12 </wgt>
<wgt id='1479'> +1.1859929e-12 </wgt>
<wgt id='1480'> +1.1400802e-12 </wgt>
<wgt id='1481'> +1.1732361e-12 </wgt>
<wgt id='1482'> +1.1880331e-12 </wgt>
<wgt id='1483'> +1.2372247e-12 </wgt>
<wgt id='1484'> +1.1820331e-12 </wgt>
<wgt id='1485'> +1.1843016e-12 </wgt>
<wgt id='1486'> +1.1870426e-12 </wgt>
<wgt id='1487'> +1.1948938e-12 </wgt>
<wgt id='1488'> +1.1875530e-12 </wgt>
<wgt id='1489'> +1.1981692e-12 </wgt>
<wgt id='1490'> +1.1831509e-12 </wgt>
<wgt id='1491'> +1.2004350e-12 </wgt>
<wgt id='1492'> +1.1887742e-12 </wgt>
<wgt id='1493'> +1.1813469e-12 </wgt>
<wgt id='1494'> +1.1410184e-12 </wgt>
<wgt id='1495'> +1.1782182e-12 </wgt>
<wgt id='1496'> +1.1960871e-12 </wgt>
<wgt id='1497'> +1.1932106e-12 </wgt>
<wgt id='1498'> +1.1965236e-12 </wgt>
<wgt id='1499'> +1.1881290e-12 </wgt>
<wgt id='1500'> +1.1855511e-12 </wgt>
<wgt id='1501'> +1.1953419e-12 </wgt>
<wgt id='1502'> +1.1922014e-12 </wgt>
<wgt id='1503'> +1.1828477e-12 </wgt>
<wgt id='1504'> +1.1915467e-12 </wgt>
<wgt id='1505'> +1.1977496e-12 </wgt>
<wgt id='1506'> +1.1855284e-12 </wgt>
<wgt id='1507'> +1.1862963e-12 </wgt>
<wgt id='1508'> +1.1833989e-12 </wgt>
<wgt id='1509'> +1.2977745e-12 </wgt>
<wgt id='1510'> +1.2975998e-12 </wgt>
<wgt id='1511'> +1.3024079e-12 </wgt>
<wgt id='1512'> +1.3000766e-12 </wgt>
<wgt id='1513'> +1.2811328e-12 </wgt>
<wgt id='1514'> +1.2984458e-12 </wgt>
<wgt id='1515'> +1.3105204e-12 </wgt>
<wgt id='1516'> +1.3029467e-12 </wgt>
<wgt id='1517'> +1.3130535e-12 </wgt>
<wgt id='1518'> +1.2786150e-12 </wgt>
<wgt id='1519'> +1.3135971e-12 </wgt>
<wgt id='1520'> +1.3149772e-12 </wgt>
<wgt id='1521'> +1.2855490e-12 </wgt>
<wgt id='1522'> +1.3026071e-12 </wgt>
<wgt id='1523'> +1.2685742e-12 </wgt>
<wgt id='1524'> +1.2810888e-12 </wgt>
<wgt id='1525'> +1.2750207e-12 </wgt>
<wgt id='1526'> +1.3083352e-12 </wgt>
<wgt id='1527'> +1.3029908e-12 </wgt>
<wgt id='1528'> +1.3033915e-12 </wgt>
<wgt id='1529'> +1.2940384e-12 </wgt>
<wgt id='1530'> +1.2914299e-12 </wgt>
<wgt id='1531'> +1.2882253e-12 </wgt>
<wgt id='1532'> +1.3145871e-12 </wgt>
<wgt id='1533'> +1.3004988e-12 </wgt>
<wgt id='1534'> +1.2981382e-12 </wgt>
<wgt id='1535'> +1.2959476e-12 </wgt>
<wgt id='1536'> +1.2938995e-12 </wgt>
<wgt id='1537'> +1.2978789e-12 </wgt>
<wgt id='1538'> +1.2927952e-12 </wgt>
<wgt id='1539'> +1.3066790e-12 </wgt>
<wgt id='1540'> +1.2954960e-12 </wgt>
<wgt id='1541'> +1.2890185e-12 </wgt>
<wgt id='1542'> +1.3018764e-12 </wgt>
<wgt id='1543'> +1.2984935e-12 </wgt>
<wgt id='1544'> +1.2936537e-12 </wgt>
<wgt id='1545'> +1.2976823e-12 </wgt>
<wgt id='1546'> +1.2917298e-12 </wgt>
<wgt id='1547'> +1.2994822e-12 </wgt>
<wgt id='1548'> +1.2935325e-12 </wgt>
<wgt id='1549'> +1.2973846e-12 </wgt>
<wgt id='1550'> +1.2973435e-12 </wgt>
<wgt id='1551'> +1.2935700e-12 </wgt>
<wgt id='1552'> +1.2956010e-12 </wgt>
<wgt id='1553'> +1.3013397e-12 </wgt>
<wgt id='1554'> +1.2937307e-12 </wgt>
<wgt id='1555'> +1.2975570e-12 </wgt>
<wgt id='1556'> +1.2950571e-12 </wgt>
<wgt id='1557'> +1.3002040e-12 </wgt>
<wgt id='1558'> +1.2964018e-12 </wgt>
<wgt id='1559'> +1.2983076e-12 </wgt>
<wgt id='1560'> +1.2973287e-12 </wgt>
<wgt id='1561'> +1.2973953e-12 </wgt>
<wgt id='1562'> +1.2981999e-12 </wgt>
<wgt id='1563'> +1.2979967e-12 </wgt>
<wgt id='1564'> +1.2985039e-12 </wgt>
<wgt id='1565'> +1.2961298e-12 </wgt>
<wgt id='1566'> +1.2982925e-12 </wgt>
<wgt id='1567'> +1.2983234e-12 </wgt>
<wgt id='1568'> +1.2991266e-12 </wgt>
<wgt id='1569'> +1.2978409e-12 </wgt>
<wgt id='1570'> +1.2957492e-12 </wgt>
<wgt id='1571'> +1.2978523e-12 </wgt>
<wgt id='1572'> +1.2974989e-12 </wgt>
<wgt id='1573'> +1.2980040e-12 </wgt>
<wgt id='1574'> +1.2971213e-12 </wgt>
<wgt id='1575'> +1.2978944e-12 </wgt>
<wgt id='1576'> +1.2982851e-12 </wgt>
<wgt id='1577'> +1.2987208e-12 </wgt>
<wgt id='1578'> +1.2976848e-12 </wgt>
<wgt id='1579'> +1.2974247e-12 </wgt>
<wgt id='1580'> +1.2967483e-12 </wgt>
<wgt id='1581'> +1.2985565e-12 </wgt>
<wgt id='1582'> +1.2979968e-12 </wgt>
<wgt id='1583'> +1.2981972e-12 </wgt>
<wgt id='1584'> +1.2977788e-12 </wgt>
<wgt id='1585'> +1.2979663e-12 </wgt>
<wgt id='1586'> +1.2979754e-12 </wgt>
<wgt id='1587'> +1.2977154e-12 </wgt>
<wgt id='1588'> +1.2974164e-12 </wgt>
<wgt id='1589'> +1.2977661e-12 </wgt>
<wgt id='1590'> +1.2977721e-12 </wgt>
<wgt id='1591'> +1.2977941e-12 </wgt>
<wgt id='1592'> +1.2981426e-12 </wgt>
<wgt id='1593'> +1.2979165e-12 </wgt>
<wgt id='1594'> +1.2983985e-12 </wgt>
<wgt id='1595'> +1.2988173e-12 </wgt>
<wgt id='1596'> +1.2979342e-12 </wgt>
<wgt id='1597'> +1.2985442e-12 </wgt>
<wgt id='1598'> +1.2982407e-12 </wgt>
<wgt id='1599'> +1.2986699e-12 </wgt>
<wgt id='1600'> +1.2984820e-12 </wgt>
<wgt id='1601'> +1.2961060e-12 </wgt>
<wgt id='1602'> +1.2972843e-12 </wgt>
<wgt id='1603'> +1.2986601e-12 </wgt>
<wgt id='1604'> +1.2981909e-12 </wgt>
<wgt id='1605'> +1.2977718e-12 </wgt>
<wgt id='1606'> +1.2976631e-12 </wgt>
<wgt id='1607'> +1.2971407e-12 </wgt>
<wgt id='1608'> +1.2977668e-12 </wgt>
<wgt id='1609'> +1.2977646e-12 </wgt>
<wgt id='1610'> +1.2751565e-12 </wgt>
<wgt id='1611'> +1.3099621e-12 </wgt>
<wgt id='1612'> +1.4635156e-12 </wgt>
<wgt id='1613'> +1.3728960e-12 </wgt>
<wgt id='1614'> +1.4656461e-12 </wgt>
<wgt id='1615'> +1.4851129e-12 </wgt>
<wgt id='1616'> +1.3779171e-12 </wgt>
<wgt id='1617'> +1.3908625e-12 </wgt>
<wgt id='1618'> +1.3100037e-12 </wgt>
<wgt id='1619'> +1.3844834e-12 </wgt>
<wgt id='1620'> +1.4567346e-12 </wgt>
<wgt id='1621'> +1.4290347e-12 </wgt>
<wgt id='1622'> +1.4616870e-12 </wgt>
<wgt id='1623'> +1.4999949e-12 </wgt>
<wgt id='1624'> +1.4778701e-12 </wgt>
<wgt id='1625'> +1.4219625e-12 </wgt>
<wgt id='1626'> +1.5127017e-12 </wgt>
<wgt id='1627'> +1.5463844e-12 </wgt>
<wgt id='1628'> +1.3628934e-12 </wgt>
<wgt id='1629'> +1.1988388e-12 </wgt>
<wgt id='1630'> +1.4954689e-12 </wgt>
<wgt id='1631'> +1.4384489e-12 </wgt>
<wgt id='1632'> +1.5627528e-12 </wgt>
<wgt id='1633'> +1.5056973e-12 </wgt>
<wgt id='1634'> +1.4846121e-12 </wgt>
<wgt id='1635'> +1.4000519e-12 </wgt>
<wgt id='1636'> +1.2902298e-12 </wgt>
<wgt id='1637'> +1.5395783e-12 </wgt>
<wgt id='1638'> +1.4881089e-12 </wgt>
<wgt id='1639'> +1.4375537e-12 </wgt>
<wgt id='1640'> +1.5476210e-12 </wgt>
<wgt id='1641'> +1.4761601e-12 </wgt>
<wgt id='1642'> +1.5200937e-12 </wgt>
<wgt id='1643'> +1.3898782e-12 </wgt>
<wgt id='1644'> +1.6030269e-12 </wgt>
<wgt id='1645'> +1.4947658e-12 </wgt>
<wgt id='1646'> +1.5553680e-12 </wgt>
<wgt id='1647'> +1.5703794e-12 </wgt>
<wgt id='1648'> +1.4263234e-12 </wgt>
<wgt id='1649'> +1.3345062e-12 </wgt>
<wgt id='1650'> +1.4721116e-12 </wgt>
<wgt id='1651'> +1.4425818e-12 </wgt>
<wgt id='1652'> +1.5006801e-12 </wgt>
<wgt id='1653'> +1.4356432e-12 </wgt>
<wgt id='1654'> +1.4366591e-12 </wgt>
<wgt id='1655'> +1.4811669e-12 </wgt>
<wgt id='1656'> +1.6103722e-12 </wgt>
<wgt id='1657'> +1.4441510e-12 </wgt>
<wgt id='1658'> +1.5323216e-12 </wgt>
<wgt id='1659'> +1.4778701e-12 </wgt>
<wgt id='1660'> +1.3827402e-12 </wgt>
<wgt id='1661'> +1.5885777e-12 </wgt>
<wgt id='1662'> +1.4819994e-12 </wgt>
<wgt id='1663'> +1.4901330e-12 </wgt>
<wgt id='1664'> +1.4857362e-12 </wgt>
<wgt id='1665'> +1.6090922e-12 </wgt>
<wgt id='1666'> +1.4997426e-12 </wgt>
<wgt id='1667'> +1.4721318e-12 </wgt>
<wgt id='1668'> +1.4149171e-12 </wgt>
<wgt id='1669'> +1.5678870e-12 </wgt>
<wgt id='1670'> +1.4877041e-12 </wgt>
<wgt id='1671'> +1.5738878e-12 </wgt>
<wgt id='1672'> +1.5344623e-12 </wgt>
<wgt id='1673'> +1.4793940e-12 </wgt>
<wgt id='1674'> +1.4027393e-12 </wgt>
<wgt id='1675'> +1.4459634e-12 </wgt>
<wgt id='1676'> +1.4077413e-12 </wgt>
<wgt id='1677'> +1.3961837e-12 </wgt>
<wgt id='1678'> +1.4963386e-12 </wgt>
<wgt id='1679'> +1.4004381e-12 </wgt>
<wgt id='1680'> +1.4480604e-12 </wgt>
<wgt id='1681'> +1.4410150e-12 </wgt>
<wgt id='1682'> +1.4774939e-12 </wgt>
<wgt id='1683'> +1.4747349e-12 </wgt>
<wgt id='1684'> +1.5705837e-12 </wgt>
<wgt id='1685'> +1.5003240e-12 </wgt>
<wgt id='1686'> +1.4814096e-12 </wgt>
<wgt id='1687'> +1.3898616e-12 </wgt>
<wgt id='1688'> +1.4761283e-12 </wgt>
<wgt id='1689'> +1.4962490e-12 </wgt>
<wgt id='1690'> +1.4744078e-12 </wgt>
<wgt id='1691'> +1.3561025e-12 </wgt>
<wgt id='1692'> +1.4290590e-12 </wgt>
<wgt id='1693'> +1.4494376e-12 </wgt>
<wgt id='1694'> +1.5346242e-12 </wgt>
<wgt id='1695'> +1.4996220e-12 </wgt>
<wgt id='1696'> +1.4591346e-12 </wgt>
<wgt id='1697'> +1.3524384e-12 </wgt>
<wgt id='1698'> +1.4901893e-12 </wgt>
<wgt id='1699'> +1.3682756e-12 </wgt>
<wgt id='1700'> +1.5055926e-12 </wgt>
<wgt id='1701'> +1.3884148e-12 </wgt>
<wgt id='1702'> +1.4185342e-12 </wgt>
<wgt id='1703'> +1.3863046e-12 </wgt>
<wgt id='1704'> +1.5476471e-12 </wgt>
<wgt id='1705'> +1.5429168e-12 </wgt>
<wgt id='1706'> +1.4387901e-12 </wgt>
<wgt id='1707'> +1.4102596e-12 </wgt>
<wgt id='1708'> +1.4562917e-12 </wgt>
<wgt id='1709'> +1.5020736e-12 </wgt>
<wgt id='1710'> +1.4484993e-12 </wgt>
<wgt id='1711'> +1.5049275e-12 </wgt>
<wgt id='1712'> +1.4609563e-12 </wgt>
<wgt id='1713'> +1.1555406e-12 </wgt>
<wgt id='1714'> +1.1189729e-12 </wgt>
<wgt id='1715'> +1.0761039e-12 </wgt>
<wgt id='1716'> +9.9048152e-13 </wgt>
<wgt id='1717'> +1.0933314e-12 </wgt>
<wgt id='1718'> +1.1083837e-12 </wgt>
<wgt id='1719'> +1.1871316e-12 </wgt>
<wgt id='1720'> +1.1425367e-12 </wgt>
<wgt id='1721'> +1.1329150e-12 </wgt>
<wgt id='1722'> +1.1515384e-12 </wgt>
<wgt id='1723'> +1.4036955e-12 </wgt>
<wgt id='1724'> +1.3563234e-12 </wgt>
<wgt id='1725'> +1.1200050e-12 </wgt>
<wgt id='1726'> +1.0654155e-12 </wgt>
<wgt id='1727'> +1.2022010e-12 </wgt>
<wgt id='1728'> +1.1950660e-12 </wgt>
<wgt id='1729'> +1.1826063e-12 </wgt>
<wgt id='1730'> +1.2157426e-12 </wgt>
<wgt id='1731'> +1.1622718e-12 </wgt>
<wgt id='1732'> +1.1281265e-12 </wgt>
<wgt id='1733'> +1.0454738e-12 </wgt>
<wgt id='1734'> +1.0740752e-12 </wgt>
<wgt id='1735'> +1.2078245e-12 </wgt>
<wgt id='1736'> +1.2067759e-12 </wgt>
<wgt id='1737'> +1.0548151e-12 </wgt>
<wgt id='1738'> +1.0964102e-12 </wgt>
<wgt id='1739'> +1.2075227e-12 </wgt>
<wgt id='1740'> +1.0552341e-12 </wgt>
<wgt id='1741'> +1.1883342e-12 </wgt>
<wgt id='1742'> +1.0411335e-12 </wgt>
<wgt id='1743'> +1.0738654e-12 </wgt>
<wgt id='1744'> +1.0205681e-12 </wgt>
<wgt id='1745'> +1.3971489e-12 </wgt>
<wgt id='1746'> +1.1956948e-12 </wgt>
<wgt id='1747'> +1.1974698e-12 </wgt>
<wgt id='1748'> +1.0441617e-12 </wgt>
<wgt id='1749'> +1.0780813e-12 </wgt>
<wgt id='1750'> +1.1281030e-12 </wgt>
<wgt id='1751'> +1.3056000e-12 </wgt>
<wgt id='1752'> +1.1003364e-12 </wgt>
<wgt id='1753'> +1.1169933e-12 </wgt>
<wgt id='1754'> +1.1360138e-12 </wgt>
<wgt id='1755'> +1.1359856e-12 </wgt>
<wgt id='1756'> +1.1534492e-12 </wgt>
<wgt id='1757'> +1.1879022e-12 </wgt>
<wgt id='1758'> +1.2102625e-12 </wgt>
<wgt id='1759'> +1.0983568e-12 </wgt>
<wgt id='1760'> +1.2150921e-12 </wgt>
<wgt id='1761'> +1.1463068e-12 </wgt>
<wgt id='1762'> +1.0680080e-12 </wgt>
<wgt id='1763'> +1.0528738e-12 </wgt>
<wgt id='1764'> +1.1728032e-12 </wgt>
<wgt id='1765'> +1.1416745e-12 </wgt>
<wgt id='1766'> +1.3848396e-12 </wgt>
<wgt id='1767'> +1.1685897e-12 </wgt>
<wgt id='1768'> +1.1608659e-12 </wgt>
<wgt id='1769'> +1.1376679e-12 </wgt>
<wgt id='1770'> +1.0037550e-12 </wgt>
<wgt id='1771'> +1.1024211e-12 </wgt>
<wgt id='1772'> +1.0950162e-12 </wgt>
<wgt id='1773'> +1.1456309e-12 </wgt>
<wgt id='1774'> +1.1013276e-12 </wgt>
<wgt id='1775'> +1.0982308e-12 </wgt>
<wgt id='1776'> +1.1639467e-12 </wgt>
<wgt id='1777'> +1.2708972e-12 </wgt>
<wgt id='1778'> +1.1254024e-12 </wgt>
<wgt id='1779'> +1.1196020e-12 </wgt>
<wgt id='1780'> +1.4252797e-12 </wgt>
<wgt id='1781'> +1.1132942e-12 </wgt>
<wgt id='1782'> +1.2150438e-12 </wgt>
<wgt id='1783'> +1.1355260e-12 </wgt>
<wgt id='1784'> +1.2276978e-12 </wgt>
<wgt id='1785'> +1.3630110e-12 </wgt>
<wgt id='1786'> +1.4817999e-12 </wgt>
<wgt id='1787'> +1.1632470e-12 </wgt>
<wgt id='1788'> +1.0843897e-12 </wgt>
<wgt id='1789'> +1.3533882e-12 </wgt>
<wgt id='1790'> +1.2315221e-12 </wgt>
<wgt id='1791'> +1.1729347e-12 </wgt>
<wgt id='1792'> +1.2298191e-12 </wgt>
<wgt id='1793'> +1.1105212e-12 </wgt>
<wgt id='1794'> +1.1584484e-12 </wgt>
<wgt id='1795'> +1.0814333e-12 </wgt>
<wgt id='1796'> +1.1533325e-12 </wgt>
<wgt id='1797'> +1.0834488e-12 </wgt>
<wgt id='1798'> +1.1065705e-12 </wgt>
<wgt id='1799'> +1.1964548e-12 </wgt>
<wgt id='1800'> +1.1838040e-12 </wgt>
<wgt id='1801'> +1.0875156e-12 </wgt>
<wgt id='1802'> +1.1866528e-12 </wgt>
<wgt id='1803'> +1.1181604e-12 </wgt>
<wgt id='1804'> +1.0697383e-12 </wgt>
<wgt id='1805'> +1.1697220e-12 </wgt>
<wgt id='1806'> +1.1204050e-12 </wgt>
<wgt id='1807'> +1.2211069e-12 </wgt>
<wgt id='1808'> +1.0845934e-12 </wgt>
<wgt id='1809'> +1.2282617e-12 </wgt>
<wgt id='1810'> +1.1346246e-12 </wgt>
<wgt id='1811'> +1.1316749e-12 </wgt>
<wgt id='1812'> +1.0729439e-12 </wgt>
<wgt id='1813'> +9.8710189e-13 </wgt>
<wgt id='1814'> +1.1314989e-12 </wgt>
<wgt id='1815'> +1.3385707e-12 </wgt>
<wgt id='1816'> +1.1555406e-12 </wgt>
<wgt id='1817'> +1.1189729e-12 </wgt>
<wgt id='1818'> +1.0761039e-12 </wgt>
<wgt id='1819'> +9.9048152e-13 </wgt>
<wgt id='1820'> +1.0933314e-12 </wgt>
<wgt id='1821'> +1.1083837e-12 </wgt>
<wgt id='1822'> +1.1871316e-12 </wgt>
<wgt id='1823'> +1.1425367e-12 </wgt>
<wgt id='1824'> +1.1329150e-12 </wgt>
<wgt id='1825'> +1.1515384e-12 </wgt>
<wgt id='1826'> +1.4036955e-12 </wgt>
<wgt id='1827'> +1.3563234e-12 </wgt>
<wgt id='1828'> +1.1200050e-12 </wgt>
<wgt id='1829'> +1.0654155e-12 </wgt>
<wgt id='1830'> +1.2022010e-12 </wgt>
<wgt id='1831'> +1.1950660e-12 </wgt>
<wgt id='1832'> +1.1826063e-12 </wgt>
<wgt id='1833'> +1.2157426e-12 </wgt>
<wgt id='1834'> +1.1622718e-12 </wgt>
<wgt id='1835'> +1.1281265e-12 </wgt>
<wgt id='1836'> +1.0454738e-12 </wgt>
<wgt id='1837'> +1.0740752e-12 </wgt>
<wgt id='1838'> +1.2078245e-12 </wgt>
<wgt id='1839'> +1.2067759e-12 </wgt>
<wgt id='1840'> +1.0548151e-12 </wgt>
<wgt id='1841'> +1.0964102e-12 </wgt>
<wgt id='1842'> +1.2075227e-12 </wgt>
<wgt id='1843'> +1.0552341e-12 </wgt>
<wgt id='1844'> +1.1883342e-12 </wgt>
<wgt id='1845'> +1.0411335e-12 </wgt>
<wgt id='1846'> +1.0738654e-12 </wgt>
<wgt id='1847'> +1.0205681e-12 </wgt>
<wgt id='1848'> +1.3971489e-12 </wgt>
<wgt id='1849'> +1.1956948e-12 </wgt>
<wgt id='1850'> +1.1974698e-12 </wgt>
<wgt id='1851'> +1.0441617e-12 </wgt>
<wgt id='1852'> +1.0780813e-12 </wgt>
<wgt id='1853'> +1.1281030e-12 </wgt>
<wgt id='1854'> +1.3056000e-12 </wgt>
<wgt id='1855'> +1.1003364e-12 </wgt>
<wgt id='1856'> +1.1169933e-12 </wgt>
<wgt id='1857'> +1.1360138e-12 </wgt>
<wgt id='1858'> +1.1359856e-12 </wgt>
<wgt id='1859'> +1.1534492e-12 </wgt>
<wgt id='1860'> +1.1879022e-12 </wgt>
<wgt id='1861'> +1.2102625e-12 </wgt>
<wgt id='1862'> +1.0983568e-12 </wgt>
<wgt id='1863'> +1.2150921e-12 </wgt>
<wgt id='1864'> +1.1463068e-12 </wgt>
<wgt id='1865'> +1.0680080e-12 </wgt>
<wgt id='1866'> +1.0528738e-12 </wgt>
<wgt id='1867'> +1.1728032e-12 </wgt>
<wgt id='1868'> +1.1416745e-12 </wgt>
<wgt id='1869'> +1.3848396e-12 </wgt>
<wgt id='1870'> +1.1685897e-12 </wgt>
<wgt id='1871'> +1.1608659e-12 </wgt>
<wgt id='1872'> +1.1376679e-12 </wgt>
<wgt id='1873'> +1.0037550e-12 </wgt>
<wgt id='1874'> +1.1024211e-12 </wgt>
<wgt id='1875'> +1.0950162e-12 </wgt>
<wgt id='1876'> +1.1456309e-12 </wgt>
<wgt id='1877'> +1.1013276e-12 </wgt>
<wgt id='1878'> +1.0982308e-12 </wgt>
<wgt id='1879'> +1.1639467e-12 </wgt>
<wgt id='1880'> +1.2708972e-12 </wgt>
<wgt id='1881'> +1.1254024e-12 </wgt>
<wgt id='1882'> +1.1196020e-12 </wgt>
<wgt id='1883'> +1.4252797e-12 </wgt>
<wgt id='1884'> +1.1132942e-12 </wgt>
<wgt id='1885'> +1.2150438e-12 </wgt>
<wgt id='1886'> +1.1355260e-12 </wgt>
<wgt id='1887'> +1.2276978e-12 </wgt>
<wgt id='1888'> +1.3630110e-12 </wgt>
<wgt id='1889'> +1.4817999e-12 </wgt>
<wgt id='1890'> +1.1632470e-12 </wgt>
<wgt id='1891'> +1.0843897e-12 </wgt>
<wgt id='1892'> +1.3533882e-12 </wgt>
<wgt id='1893'> +1.2315221e-12 </wgt>
<wgt id='1894'> +1.1729347e-12 </wgt>
<wgt id='1895'> +1.2298191e-12 </wgt>
<wgt id='1896'> +1.1105212e-12 </wgt>
<wgt id='1897'> +1.1584484e-12 </wgt>
<wgt id='1898'> +1.0814333e-12 </wgt>
<wgt id='1899'> +1.1533325e-12 </wgt>
<wgt id='1900'> +1.0834488e-12 </wgt>
<wgt id='1901'> +1.1065705e-12 </wgt>
<wgt id='1902'> +1.1964548e-12 </wgt>
<wgt id='1903'> +1.1838040e-12 </wgt>
<wgt id='1904'> +1.0875156e-12 </wgt>
<wgt id='1905'> +1.1866528e-12 </wgt>
<wgt id='1906'> +1.1181604e-12 </wgt>
<wgt id='1907'> +1.0697383e-12 </wgt>
<wgt id='1908'> +1.1697220e-12 </wgt>
<wgt id='1909'> +1.1204050e-12 </wgt>
<wgt id='1910'> +1.2211069e-12 </wgt>
<wgt id='1911'> +1.0845934e-12 </wgt>
<wgt id='1912'> +1.2282617e-12 </wgt>
<wgt id='1913'> +1.1346246e-12 </wgt>
<wgt id='1914'> +1.1316749e-12 </wgt>
<wgt id='1915'> +1.0729439e-12 </wgt>
<wgt id='1916'> +9.8710189e-13 </wgt>
<wgt id='1917'> +1.1238707e-12 </wgt>
<wgt id='1918'> +1.1506520e-12 </wgt>
<wgt id='1919'> +1.1810956e-12 </wgt>
</rwgt>
</event>
<event>
 9      1 +1.5538000e-12 5.29754400e+01 7.81860800e-03 1.29751000e-01
       21 -1    0    0  501  502 +0.0000000000e+00 +0.0000000000e+00 +6.0627002764e+00 6.0627002764e+00 0.0000000000e+00 0.0000e+00 -1.0000e+00
        2 -1    0    0  502    0 -0.0000000000e+00 -0.0000000000e+00 -1.1572388282e+02 1.1572388282e+02 0.0000000000e+00 0.0000e+00 1.0000e+00
     1023  2    1    2    0    0 +2.3469541021e+01 -4.4500186666e-01 -4.4223219194e+01 5.2265762980e+01 1.4999982718e+01 0.0000e+00 0.0000e+00
  1000023  2    3    3    0    0 +3.9875121182e+00 +2.9232404567e+00 -1.0228233862e+01 1.2622938481e+01 5.5023831462e+00 0.0000e+00 0.0000e+00
        2  1    1    2  501    0 -2.3469541021e+01 +4.4500186666e-01 -6.5437963349e+01 6.9520820117e+01 0.0000000000e+00 0.0000e+00 1.0000e+00
  1000022  1    4    4    0    0 +3.5758173046e+00 +2.1762851137e+00 -9.0441023931e+00 1.1149819478e+01 5.0000000000e+00 0.0000e+00 -1.0000e+00
      -11  1    4    4    0    0 +2.0338480020e-01 +4.7243135618e-01 -8.4753455524e-01 9.9139893418e-01 5.1100000000e-04 0.0000e+00 1.0000e+00
       11  1    4    4    0    0 +2.0831001338e-01 +2.7452398689e-01 -3.3659691398e-01 4.8172006879e-01 5.1100000000e-04 0.0000e+00 -1.0000e+00
  1000022  1    3    3    0    0 +1.9482028903e+01 -3.3682423234e+00 -3.3994985332e+01 3.9642824499e+01 5.0000000000e+00 0.0000e+00 -1.0000e+00
<mgrwt>
<rscale>  1 0.52975436E+02</rscale>
<asrwt>0</asrwt>
<pdfrwt beam="1">  1       21 0.93272312E-03 0.52975436E+02</pdfrwt>
<pdfrwt beam="2">  1        2 0.17803674E-01 0.52975436E+02</pdfrwt>
<totfact> 0.13170517E+07</totfact>
</mgrwt>
<rwgt>
<wgt id='1001'> +1.5538000e-12 </wgt>
<wgt id='1002'> +1.5450697e-12 </wgt>
<wgt id='1003'> +1.5502067e-12 </wgt>
<wgt id='1004'> +1.4490894e-12 </wgt>
<wgt id='1005'> +1.5538000e-12 </wgt>
<wgt id='1006'> +1.3787479e-12 </wgt>
<wgt id='1007'> +1.3685868e-12 </wgt>
<wgt id='1008'> +1.3745532e-12 </wgt>
<wgt id='1009'> +1.2622941e-12 </wgt>
<wgt id='1010'> +1.3787479e-12 </wgt>
<wgt id='1011'> +1.7819896e-12 </wgt>
<wgt id='1012'> +1.7761395e-12 </wgt>
<wgt id='1013'> +1.7796074e-12 </wgt>
<wgt id='1014'> +1.7041045e-12 </wgt>
<wgt id='1015'> +1.7819896e-12 </wgt>
<wgt id='1016'> +1.8124612e-12 </wgt>
<wgt id='1017'> +1.8106022e-12 </wgt>
<wgt id='1018'> +1.8117219e-12 </wgt>
<wgt id='1019'> +1.7796074e-12 </wgt>
<wgt id='1020'> +1.8124612e-12 </wgt>
<wgt id='1021'> +1.6082682e-12 </wgt>
<wgt id='1022'> +1.6037893e-12 </wgt>
<wgt id='1023'> +1.6064362e-12 </wgt>
<wgt id='1024'> +1.5502067e-12 </wgt>
<wgt id='1025'> +1.6082682e-12 </wgt>
<wgt id='1026'> +2.0786375e-12 </wgt>
<wgt id='1027'> +2.0813831e-12 </wgt>
<wgt id='1028'> +2.0798219e-12 </wgt>
<wgt id='1029'> +2.0927882e-12 </wgt>
<wgt id='1030'> +2.0786375e-12 </wgt>
<wgt id='1031'> +1.2688482e-12 </wgt>
<wgt id='1032'> +1.2530648e-12 </wgt>
<wgt id='1033'> +1.2622941e-12 </wgt>
<wgt id='1034'> +1.0915836e-12 </wgt>
<wgt id='1035'> +1.2688482e-12 </wgt>
<wgt id='1036'> +1.1258990e-12 </wgt>
<wgt id='1037'> +1.1099356e-12 </wgt>
<wgt id='1038'> +1.1192639e-12 </wgt>
<wgt id='1039'> +9.5087269e-13 </wgt>
<wgt id='1040'> +1.1258990e-12 </wgt>
<wgt id='1041'> +1.4551900e-12 </wgt>
<wgt id='1042'> +1.4404643e-12 </wgt>
<wgt id='1043'> +1.4490894e-12 </wgt>
<wgt id='1044'> +1.2836838e-12 </wgt>
<wgt id='1045'> +1.4551900e-12 </wgt>
<wgt id='1046'> +1.5538000e-12 </wgt>
<wgt id='1047'> +1.5991227e-12 </wgt>
<wgt id='1048'> +1.5472442e-12 </wgt>
<wgt id='1049'> +1.5086024e-12 </wgt>
<wgt id='1050'> +1.5251756e-12 </wgt>
<wgt id='1051'> +1.5385165e-12 </wgt>
<wgt id='1052'> +1.5292491e-12 </wgt>
<wgt id='1053'> +1.5607967e-12 </wgt>
<wgt id='1054'> +1.5495153e-12 </wgt>
<wgt id='1055'> +1.5112684e-12 </wgt>
<wgt id='1056'> +1.5369816e-12 </wgt>
<wgt id='1057'> +1.5614815e-12 </wgt>
<wgt id='1058'> +1.5104375e-12 </wgt>
<wgt id='1059'> +1.5639575e-12 </wgt>
<wgt id='1060'> +1.5576619e-12 </wgt>
<wgt id='1061'> +1.5586276e-12 </wgt>
<wgt id='1062'> +1.5690655e-12 </wgt>
<wgt id='1063'> +1.5647371e-12 </wgt>
<wgt id='1064'> +1.5476607e-12 </wgt>
<wgt id='1065'> +1.5637748e-12 </wgt>
<wgt id='1066'> +1.5330195e-12 </wgt>
<wgt id='1067'> +1.5292744e-12 </wgt>
<wgt id='1068'> +1.5785166e-12 </wgt>
<wgt id='1069'> +1.5830810e-12 </wgt>
<wgt id='1070'> +1.5526767e-12 </wgt>
<wgt id='1071'> +1.5132958e-12 </wgt>
<wgt id='1072'> +1.5954433e-12 </wgt>
<wgt id='1073'> +1.5699341e-12 </wgt>
<wgt id='1074'> +1.5372111e-12 </wgt>
<wgt id='1075'> +1.5706192e-12 </wgt>
<wgt id='1076'> +1.5349953e-12 </wgt>
<wgt id='1077'> +1.5674145e-12 </wgt>
<wgt id='1078'> +1.5113892e-12 </wgt>
<wgt id='1079'> +1.5206098e-12 </wgt>
<wgt id='1080'> +1.5388691e-12 </wgt>
<wgt id='1081'> +1.5706222e-12 </wgt>
<wgt id='1082'> +1.5323245e-12 </wgt>
<wgt id='1083'> +1.5706483e-12 </wgt>
<wgt id='1084'> +1.5155148e-12 </wgt>
<wgt id='1085'> +1.5373505e-12 </wgt>
<wgt id='1086'> +1.5670360e-12 </wgt>
<wgt id='1087'> +1.5374236e-12 </wgt>
<wgt id='1088'> +1.5645126e-12 </wgt>
<wgt id='1089'> +1.5634277e-12 </wgt>
<wgt id='1090'> +1.5407812e-12 </wgt>
<wgt id='1091'> +1.5750611e-12 </wgt>
<wgt id='1092'> +1.5903531e-12 </wgt>
<wgt id='1093'> +1.5373807e-12 </wgt>
<wgt id='1094'> +1.5790001e-12 </wgt>
<wgt id='1095'> +1.5717316e-12 </wgt>
<wgt id='1096'> +1.5945259e-12 </wgt>
<wgt id='1097'> +1.5574774e-12 </wgt>
<wgt id='1098'> +1.5436768e-12 </wgt>
<wgt id='1099'> +1.5422140e-12 </wgt>
<wgt id='1100'> +1.5874496e-12 </wgt>
<wgt id='1101'> +1.5961683e-12 </wgt>
<wgt id='1102'> +1.5474626e-12 </wgt>
<wgt id='1103'> +1.6010834e-12 </wgt>
<wgt id='1104'> +1.5264854e-12 </wgt>
<wgt id='1105'> +1.5174391e-12 </wgt>
<wgt id='1106'> +1.5823590e-12 </wgt>
<wgt id='1107'> +1.5610041e-12 </wgt>
<wgt id='1108'> +1.5581378e-12 </wgt>
<wgt id='1109'> +1.5822294e-12 </wgt>
<wgt id='1110'> +1.5442645e-12 </wgt>
<wgt id='1111'> +1.5554327e-12 </wgt>
<wgt id='1112'> +1.5566316e-12 </wgt>
<wgt id='1113'> +1.6070727e-12 </wgt>
<wgt id='1114'> +1.5624219e-12 </wgt>
<wgt id='1115'> +1.5500854e-12 </wgt>
<wgt id='1116'> +1.5811899e-12 </wgt>
<wgt id='1117'> +1.5287816e-12 </wgt>
<wgt id='1118'> +1.6392109e-12 </wgt>
<wgt id='1119'> +1.4890353e-12 </wgt>
<wgt id='1120'> +1.5201430e-12 </wgt>
<wgt id='1121'> +1.5292242e-12 </wgt>
<wgt id='1122'> +1.5563764e-12 </wgt>
<wgt id='1123'> +1.5355758e-12 </wgt>
<wgt id='1124'> +1.5309979e-12 </wgt>
<wgt id='1125'> +1.5271774e-12 </wgt>
<wgt id='1126'> +1.5615834e-12 </wgt>
<wgt id='1127'> +1.5617087e-12 </wgt>
<wgt id='1128'> +1.5690655e-12 </wgt>
<wgt id='1129'> +1.5615369e-12 </wgt>
<wgt id='1130'> +1.5517974e-12 </wgt>
<wgt id='1131'> +1.5454183e-12 </wgt>
<wgt id='1132'> +1.5778190e-12 </wgt>
<wgt id='1133'> +1.5427584e-12 </wgt>
<wgt id='1134'> +1.5584519e-12 </wgt>
<wgt id='1135'> +1.5229522e-12 </wgt>
<wgt id='1136'> +1.5408048e-12 </wgt>
<wgt id='1137'> +1.5507105e-12 </wgt>
<wgt id='1138'> +1.5494782e-12 </wgt>
<wgt id='1139'> +1.5555406e-12 </wgt>
<wgt id='1140'> +1.5833275e-12 </wgt>
<wgt id='1141'> +1.5693620e-12 </wgt>
<wgt id='1142'> +1.5294261e-12 </wgt>
<wgt id='1143'> +1.5709240e-12 </wgt>
<wgt id='1144'> +1.5386824e-12 </wgt>
<wgt id='1145'> +1.5674211e-12 </wgt>
<wgt id='1146'> +1.5652577e-12 </wgt>
<wgt id='1147'> +1.3074125e-12 </wgt>
<wgt id='1148'> +1.3360258e-12 </wgt>
<wgt id='1149'> +1.3130775e-12 </wgt>
<wgt id='1150'> +1.3284798e-12 </wgt>
<wgt id='1151'> +1.4744125e-12 </wgt>
<wgt id='1152'> +1.8475974e-12 </wgt>
<wgt id='1153'> +1.8397568e-12 </wgt>
<wgt id='1154'> +1.8520619e-12 </wgt>
<wgt id='1155'> +1.8457117e-12 </wgt>
<wgt id='1156'> +1.8485389e-12 </wgt>
<wgt id='1157'> +1.8504792e-12 </wgt>
<wgt id='1158'> +1.8435910e-12 </wgt>
<wgt id='1159'> +1.8500758e-12 </wgt>
<wgt id='1160'> +1.8459557e-12 </wgt>
<wgt id='1161'> +1.8440360e-12 </wgt>
<wgt id='1162'> +1.8499815e-12 </wgt>
<wgt id='1163'> +1.8505963e-12 </wgt>
<wgt id='1164'> +1.8445456e-12 </wgt>
<wgt id='1165'> +1.8402621e-12 </wgt>
<wgt id='1166'> +1.8544967e-12 </wgt>
<wgt id='1167'> +1.8578046e-12 </wgt>
<wgt id='1168'> +1.8336286e-12 </wgt>
<wgt id='1169'> +1.8498272e-12 </wgt>
<wgt id='1170'> +1.8458706e-12 </wgt>
<wgt id='1171'> +1.8403320e-12 </wgt>
<wgt id='1172'> +1.8562268e-12 </wgt>
<wgt id='1173'> +1.8335804e-12 </wgt>
<wgt id='1174'> +1.8607371e-12 </wgt>
<wgt id='1175'> +1.8500833e-12 </wgt>
<wgt id='1176'> +1.8446190e-12 </wgt>
<wgt id='1177'> +1.8473566e-12 </wgt>
<wgt id='1178'> +1.8481951e-12 </wgt>
<wgt id='1179'> +1.8502138e-12 </wgt>
<wgt id='1180'> +1.8381064e-12 </wgt>
<wgt id='1181'> +1.8450166e-12 </wgt>
<wgt id='1182'> +1.8496747e-12 </wgt>
<wgt id='1183'> +1.8440249e-12 </wgt>
<wgt id='1184'> +1.8478715e-12 </wgt>
<wgt id='1185'> +1.8426502e-12 </wgt>
<wgt id='1186'> +1.8507319e-12 </wgt>
<wgt id='1187'> +1.8479567e-12 </wgt>
<wgt id='1188'> +1.8474752e-12 </wgt>
<wgt id='1189'> +1.8439221e-12 </wgt>
<wgt id='1190'> +1.8335447e-12 </wgt>
<wgt id='1191'> +1.8430069e-12 </wgt>
<wgt id='1192'> +1.8505133e-12 </wgt>
<wgt id='1193'> +1.3076009e-12 </wgt>
<wgt id='1194'> +1.3030856e-12 </wgt>
<wgt id='1195'> +1.3112395e-12 </wgt>
<wgt id='1196'> +1.3128300e-12 </wgt>
<wgt id='1197'> +1.3017493e-12 </wgt>
<wgt id='1198'> +1.3076362e-12 </wgt>
<wgt id='1199'> +1.3075053e-12 </wgt>
<wgt id='1200'> +1.3079833e-12 </wgt>
<wgt id='1201'> +1.3073386e-12 </wgt>
<wgt id='1202'> +1.3061171e-12 </wgt>
<wgt id='1203'> +1.3097139e-12 </wgt>
<wgt id='1204'> +1.2987407e-12 </wgt>
<wgt id='1205'> +1.3129891e-12 </wgt>
<wgt id='1206'> +1.3111695e-12 </wgt>
<wgt id='1207'> +1.3026752e-12 </wgt>
<wgt id='1208'> +1.3031889e-12 </wgt>
<wgt id='1209'> +1.3091818e-12 </wgt>
<wgt id='1210'> +1.3068476e-12 </wgt>
<wgt id='1211'> +1.3011956e-12 </wgt>
<wgt id='1212'> +1.3086979e-12 </wgt>
<wgt id='1213'> +1.3065538e-12 </wgt>
<wgt id='1214'> +1.2937388e-12 </wgt>
<wgt id='1215'> +1.3291432e-12 </wgt>
<wgt id='1216'> +1.3100090e-12 </wgt>
<wgt id='1217'> +1.3052812e-12 </wgt>
<wgt id='1218'> +1.3123555e-12 </wgt>
<wgt id='1219'> +1.3050307e-12 </wgt>
<wgt id='1220'> +1.3129575e-12 </wgt>
<wgt id='1221'> +1.3061036e-12 </wgt>
<wgt id='1222'> +1.3158536e-12 </wgt>
<wgt id='1223'> +1.2939814e-12 </wgt>
<wgt id='1224'> +1.3098121e-12 </wgt>
<wgt id='1225'> +1.3066908e-12 </wgt>
<wgt id='1226'> +1.3049560e-12 </wgt>
<wgt id='1227'> +1.3094779e-12 </wgt>
<wgt id='1228'> +1.2975520e-12 </wgt>
<wgt id='1229'> +1.3117487e-12 </wgt>
<wgt id='1230'> +1.3040839e-12 </wgt>
<wgt id='1231'> +1.3069035e-12 </wgt>
<wgt id='1232'> +1.3053482e-12 </wgt>
<wgt id='1233'> +1.3081148e-12 </wgt>
<wgt id='1234'> +1.3076009e-12 </wgt>
<wgt id='1235'> +1.2992457e-12 </wgt>
<wgt id='1236'> +1.3023279e-12 </wgt>
<wgt id='1237'> +1.3051342e-12 </wgt>
<wgt id='1238'> +1.3097971e-12 </wgt>
<wgt id='1239'> +1.3116762e-12 </wgt>
<wgt id='1240'> +1.3135578e-12 </wgt>
<wgt id='1241'> +1.2687801e-12 </wgt>
<wgt id='1242'> +1.2610902e-12 </wgt>
<wgt id='1243'> +1.2763919e-12 </wgt>
<wgt id='1244'> +1.2635829e-12 </wgt>
<wgt id='1245'> +1.2725673e-12 </wgt>
<wgt id='1246'> +1.2681173e-12 </wgt>
<wgt id='1247'> +1.2693649e-12 </wgt>
<wgt id='1248'> +1.2687210e-12 </wgt>
<wgt id='1249'> +1.2688446e-12 </wgt>
<wgt id='1250'> +1.2701695e-12 </wgt>
<wgt id='1251'> +1.2678052e-12 </wgt>
<wgt id='1252'> +1.2664306e-12 </wgt>
<wgt id='1253'> +1.2706068e-12 </wgt>
<wgt id='1254'> +1.2611308e-12 </wgt>
<wgt id='1255'> +1.2733443e-12 </wgt>
<wgt id='1256'> +1.2713076e-12 </wgt>
<wgt id='1257'> +1.2622989e-12 </wgt>
<wgt id='1258'> +1.2848001e-12 </wgt>
<wgt id='1259'> +1.2535344e-12 </wgt>
<wgt id='1260'> +1.2714744e-12 </wgt>
<wgt id='1261'> +1.2659087e-12 </wgt>
<wgt id='1262'> +1.2665478e-12 </wgt>
<wgt id='1263'> +1.2694238e-12 </wgt>
<wgt id='1264'> +1.2749413e-12 </wgt>
<wgt id='1265'> +1.2657551e-12 </wgt>
<wgt id='1266'> +1.2577672e-12 </wgt>
<wgt id='1267'> +1.2785632e-12 </wgt>
<wgt id='1268'> +1.2721461e-12 </wgt>
<wgt id='1269'> +1.2674372e-12 </wgt>
<wgt id='1270'> +1.2634963e-12 </wgt>
<wgt id='1271'> +1.2664332e-12 </wgt>
<wgt id='1272'> +1.2672904e-12 </wgt>
<wgt id='1273'> +1.2689707e-12 </wgt>
<wgt id='1274'> +1.2703472e-12 </wgt>
<wgt id='1275'> +1.2657724e-12 </wgt>
<wgt id='1276'> +1.2749345e-12 </wgt>
<wgt id='1277'> +1.2595794e-12 </wgt>
<wgt id='1278'> +1.2707319e-12 </wgt>
<wgt id='1279'> +1.2688126e-12 </wgt>
<wgt id='1280'> +1.2694936e-12 </wgt>
<wgt id='1281'> +1.2658310e-12 </wgt>
<wgt id='1282'> +1.2687801e-12 </wgt>
<wgt id='1283'> +1.2606478e-12 </wgt>
<wgt id='1284'> +1.2638653e-12 </wgt>
<wgt id='1285'> +1.2665566e-12 </wgt>
<wgt id='1286'> +1.2710310e-12 </wgt>
<wgt id='1287'> +1.2728121e-12 </wgt>
<wgt id='1288'> +1.2742500e-12 </wgt>
<wgt id='1289'> +1.3889144e-12 </wgt>
<wgt id='1290'> +1.3878472e-12 </wgt>
<wgt id='1291'> +1.3900804e-12 </wgt>
<wgt id='1292'> +1.3857110e-12 </wgt>
<wgt id='1293'> +1.3912246e-12 </wgt>
<wgt id='1294'> +1.3806956e-12 </wgt>
<wgt id='1295'> +1.3969250e-12 </wgt>
<wgt id='1296'> +1.3867505e-12 </wgt>
<wgt id='1297'> +1.3915344e-12 </wgt>
<wgt id='1298'> +1.3938474e-12 </wgt>
<wgt id='1299'> +1.3827755e-12 </wgt>
<wgt id='1300'> +1.3913873e-12 </wgt>
<wgt id='1301'> +1.3840147e-12 </wgt>
<wgt id='1302'> +1.3869315e-12 </wgt>
<wgt id='1303'> +1.3916718e-12 </wgt>
<wgt id='1304'> +1.3865622e-12 </wgt>
<wgt id='1305'> +1.3905130e-12 </wgt>
<wgt id='1306'> +1.3839403e-12 </wgt>
<wgt id='1307'> +1.3945378e-12 </wgt>
<wgt id='1308'> +1.3848720e-12 </wgt>
<wgt id='1309'> +1.3920178e-12 </wgt>
<wgt id='1310'> +1.3880353e-12 </wgt>
<wgt id='1311'> +1.3900127e-12 </wgt>
<wgt id='1312'> +1.3877935e-12 </wgt>
<wgt id='1313'> +1.3900354e-12 </wgt>
<wgt id='1314'> +1.3809360e-12 </wgt>
<wgt id='1315'> +1.3927786e-12 </wgt>
<wgt id='1316'> +1.3963582e-12 </wgt>
<wgt id='1317'> +1.3880245e-12 </wgt>
<wgt id='1318'> +1.3982623e-12 </wgt>
<wgt id='1319'> +1.3774582e-12 </wgt>
<wgt id='1320'> +1.3982484e-12 </wgt>
<wgt id='1321'> +1.3811003e-12 </wgt>
<wgt id='1322'> +1.3884515e-12 </wgt>
<wgt id='1323'> +1.3892915e-12 </wgt>
<wgt id='1324'> +1.3839885e-12 </wgt>
<wgt id='1325'> +1.4055122e-12 </wgt>
<wgt id='1326'> +1.3890070e-12 </wgt>
<wgt id='1327'> +1.3908883e-12 </wgt>
<wgt id='1328'> +1.3892776e-12 </wgt>
<wgt id='1329'> +1.3884122e-12 </wgt>
<wgt id='1330'> +1.3879439e-12 </wgt>
<wgt id='1331'> +1.3909805e-12 </wgt>
<wgt id='1332'> +1.4065159e-12 </wgt>
<wgt id='1333'> +1.3814125e-12 </wgt>
<wgt id='1334'> +1.3865360e-12 </wgt>
<wgt id='1335'> +1.3962177e-12 </wgt>
<wgt id='1336'> +1.3861677e-12 </wgt>
<wgt id='1337'> +1.3904184e-12 </wgt>
<wgt id='1338'> +1.3864100e-12 </wgt>
<wgt id='1339'> +1.3893781e-12 </wgt>
<wgt id='1340'> +1.3638701e-12 </wgt>
<wgt id='1341'> +1.3628529e-12 </wgt>
<wgt id='1342'> +1.3649776e-12 </wgt>
<wgt id='1343'> +1.3606089e-12 </wgt>
<wgt id='1344'> +1.3660760e-12 </wgt>
<wgt id='1345'> +1.3555263e-12 </wgt>
<wgt id='1346'> +1.3716962e-12 </wgt>
<wgt id='1347'> +1.3621639e-12 </wgt>
<wgt id='1348'> +1.3657225e-12 </wgt>
<wgt id='1349'> +1.3684460e-12 </wgt>
<wgt id='1350'> +1.3593704e-12 </wgt>
<wgt id='1351'> +1.3662132e-12 </wgt>
<wgt id='1352'> +1.3587661e-12 </wgt>
<wgt id='1353'> +1.3612496e-12 </wgt>
<wgt id='1354'> +1.3685518e-12 </wgt>
<wgt id='1355'> +1.3618473e-12 </wgt>
<wgt id='1356'> +1.3650019e-12 </wgt>
<wgt id='1357'> +1.3579506e-12 </wgt>
<wgt id='1358'> +1.3708083e-12 </wgt>
<wgt id='1359'> +1.3612688e-12 </wgt>
<wgt id='1360'> +1.3661711e-12 </wgt>
<wgt id='1361'> +1.3630959e-12 </wgt>
<wgt id='1362'> +1.3650468e-12 </wgt>
<wgt id='1363'> +1.3642375e-12 </wgt>
<wgt id='1364'> +1.3638209e-12 </wgt>
<wgt id='1365'> +1.3647706e-12 </wgt>
<wgt id='1366'> +1.3561377e-12 </wgt>
<wgt id='1367'> +1.3711844e-12 </wgt>
<wgt id='1368'> +1.3625234e-12 </wgt>
<wgt id='1369'> +1.3719472e-12 </wgt>
<wgt id='1370'> +1.3540424e-12 </wgt>
<wgt id='1371'> +1.3711251e-12 </wgt>
<wgt id='1372'> +1.3552425e-12 </wgt>
<wgt id='1373'> +1.3614954e-12 </wgt>
<wgt id='1374'> +1.3657406e-12 </wgt>
<wgt id='1375'> +1.3589472e-12 </wgt>
<wgt id='1376'> +1.3814007e-12 </wgt>
<wgt id='1377'> +1.3637683e-12 </wgt>
<wgt id='1378'> +1.3662046e-12 </wgt>
<wgt id='1379'> +1.3640756e-12 </wgt>
<wgt id='1380'> +1.3634328e-12 </wgt>
<wgt id='1381'> +1.3633235e-12 </wgt>
<wgt id='1382'> +1.3648285e-12 </wgt>
<wgt id='1383'> +1.3801147e-12 </wgt>
<wgt id='1384'> +1.3578586e-12 </wgt>
<wgt id='1385'> +1.3618367e-12 </wgt>
<wgt id='1386'> +1.3696852e-12 </wgt>
<wgt id='1387'> +1.3598454e-12 </wgt>
<wgt id='1388'> +1.3655219e-12 </wgt>
<wgt id='1389'> +1.3599598e-12 </wgt>
<wgt id='1390'> +1.3646743e-12 </wgt>
<wgt id='1391'> +1.3338773e-12 </wgt>
<wgt id='1392'> +1.2995333e-12 </wgt>
<wgt id='1393'> +1.3109809e-12 </wgt>
<wgt id='1394'> +1.3233801e-12 </wgt>
<wgt id='1395'> +1.3463727e-12 </wgt>
<wgt id='1396'> +1.3351154e-12 </wgt>
<wgt id='1397'> +1.3022902e-12 </wgt>
<wgt id='1398'> +1.3088278e-12 </wgt>
<wgt id='1399'> +1.3147506e-12 </wgt>
<wgt id='1400'> +1.3211585e-12 </wgt>
<wgt id='1401'> +1.3281618e-12 </wgt>
<wgt id='1402'> +1.3420020e-12 </wgt>
<wgt id='1403'> +1.3489165e-12 </wgt>
<wgt id='1404'> +1.3557417e-12 </wgt>
<wgt id='1405'> +1.3351154e-12 </wgt>
<wgt id='1406'> +1.3303749e-12 </wgt>
<wgt id='1407'> +1.3329518e-12 </wgt>
<wgt id='1408'> +1.3371515e-12 </wgt>
<wgt id='1409'> +1.3393407e-12 </wgt>
<wgt id='1410'> +1.2852587e-12 </wgt>
<wgt id='1411'> +1.2850218e-12 </wgt>
<wgt id='1412'> +1.2856029e-12 </wgt>
<wgt id='1413'> +1.2842924e-12 </wgt>
<wgt id='1414'> +1.2862394e-12 </wgt>
<wgt id='1415'> +1.2799521e-12 </wgt>
<wgt id='1416'> +1.2874285e-12 </wgt>
<wgt id='1417'> +1.2774873e-12 </wgt>
<wgt id='1418'> +1.2930288e-12 </wgt>
<wgt id='1419'> +1.2870687e-12 </wgt>
<wgt id='1420'> +1.2835208e-12 </wgt>
<wgt id='1421'> +1.2735661e-12 </wgt>
<wgt id='1422'> +1.2903146e-12 </wgt>
<wgt id='1423'> +1.2849517e-12 </wgt>
<wgt id='1424'> +1.2856640e-12 </wgt>
<wgt id='1425'> +1.2798362e-12 </wgt>
<wgt id='1426'> +1.2911228e-12 </wgt>
<wgt id='1427'> +1.2702238e-12 </wgt>
<wgt id='1428'> +1.2934090e-12 </wgt>
<wgt id='1429'> +1.2849408e-12 </wgt>
<wgt id='1430'> +1.2857935e-12 </wgt>
<wgt id='1431'> +1.2852579e-12 </wgt>
<wgt id='1432'> +1.2851903e-12 </wgt>
<wgt id='1433'> +1.2811472e-12 </wgt>
<wgt id='1434'> +1.2876367e-12 </wgt>
<wgt id='1435'> +1.2839921e-12 </wgt>
<wgt id='1436'> +1.2882425e-12 </wgt>
<wgt id='1437'> +1.2922278e-12 </wgt>
<wgt id='1438'> +1.2843092e-12 </wgt>
<wgt id='1439'> +1.2802122e-12 </wgt>
<wgt id='1440'> +1.2957871e-12 </wgt>
<wgt id='1441'> +1.2873259e-12 </wgt>
<wgt id='1442'> +1.2821376e-12 </wgt>
<wgt id='1443'> +1.2814823e-12 </wgt>
<wgt id='1444'> +1.2941652e-12 </wgt>
<wgt id='1445'> +1.3014689e-12 </wgt>
<wgt id='1446'> +1.2797711e-12 </wgt>
<wgt id='1447'> +1.2843915e-12 </wgt>
<wgt id='1448'> +1.2892160e-12 </wgt>
<wgt id='1449'> +1.2860361e-12 </wgt>
<wgt id='1450'> +1.2844485e-12 </wgt>
<wgt id='1451'> +1.2857543e-12 </wgt>
<wgt id='1452'> +1.2831601e-12 </wgt>
<wgt id='1453'> +1.2861077e-12 </wgt>
<wgt id='1454'> +1.2784508e-12 </wgt>
<wgt id='1455'> +1.2840568e-12 </wgt>
<wgt id='1456'> +1.2880204e-12 </wgt>
<wgt id='1457'> +1.2881015e-12 </wgt>
<wgt id='1458'> +1.2842472e-12 </wgt>
<wgt id='1459'> +1.2892615e-12 </wgt>
<wgt id='1460'> +1.2839976e-12 </wgt>
<wgt id='1461'> +1.2852587e-12 </wgt>
<wgt id='1462'> +1.2756414e-12 </wgt>
<wgt id='1463'> +1.2933153e-12 </wgt>
<wgt id='1464'> +1.2851863e-12 </wgt>
<wgt id='1465'> +1.2552571e-12 </wgt>
<wgt id='1466'> +1.2610706e-12 </wgt>
<wgt id='1467'> +1.2675914e-12 </wgt>
<wgt id='1468'> +1.2735414e-12 </wgt>
<wgt id='1469'> +1.2791348e-12 </wgt>
<wgt id='1470'> +1.2916079e-12 </wgt>
<wgt id='1471'> +1.2966803e-12 </wgt>
<wgt id='1472'> +1.3027614e-12 </wgt>
<wgt id='1473'> +1.2851863e-12 </wgt>
<wgt id='1474'> +1.2805741e-12 </wgt>
<wgt id='1475'> +1.2826105e-12 </wgt>
<wgt id='1476'> +1.2871071e-12 </wgt>
<wgt id='1477'> +1.2888858e-12 </wgt>
<wgt id='1478'> +1.2960387e-12 </wgt>
<wgt id='1479'> +1.2934285e-12 </wgt>
<wgt id='1480'> +1.2870048e-12 </wgt>
<wgt id='1481'> +1.3000259e-12 </wgt>
<wgt id='1482'> +1.2932709e-12 </wgt>
<wgt id='1483'> +1.2842330e-12 </wgt>
<wgt id='1484'> +1.2958776e-12 </wgt>
<wgt id='1485'> +1.2920297e-12 </wgt>
<wgt id='1486'> +1.2960720e-12 </wgt>
<wgt id='1487'> +1.2971428e-12 </wgt>
<wgt id='1488'> +1.2943789e-12 </wgt>
<wgt id='1489'> +1.3057264e-12 </wgt>
<wgt id='1490'> +1.2910690e-12 </wgt>
<wgt id='1491'> +1.2971552e-12 </wgt>
<wgt id='1492'> +1.2999587e-12 </wgt>
<wgt id='1493'> +1.2782471e-12 </wgt>
<wgt id='1494'> +1.2993861e-12 </wgt>
<wgt id='1495'> +1.2820747e-12 </wgt>
<wgt id='1496'> +1.2947829e-12 </wgt>
<wgt id='1497'> +1.2959160e-12 </wgt>
<wgt id='1498'> +1.2967813e-12 </wgt>
<wgt id='1499'> +1.2966306e-12 </wgt>
<wgt id='1500'> +1.2948981e-12 </wgt>
<wgt id='1501'> +1.2969696e-12 </wgt>
<wgt id='1502'> +1.3001838e-12 </wgt>
<wgt id='1503'> +1.2975863e-12 </wgt>
<wgt id='1504'> +1.2941879e-12 </wgt>
<wgt id='1505'> +1.2961627e-12 </wgt>
<wgt id='1506'> +1.2949379e-12 </wgt>
<wgt id='1507'> +1.2952524e-12 </wgt>
<wgt id='1508'> +1.3005395e-12 </wgt>
<wgt id='1509'> +1.3086690e-12 </wgt>
<wgt id='1510'> +1.3084439e-12 </wgt>
<wgt id='1511'> +1.3081842e-12 </wgt>
<wgt id='1512'> +1.3058950e-12 </wgt>
<wgt id='1513'> +1.3086886e-12 </wgt>
<wgt id='1514'> +1.3125559e-12 </wgt>
<wgt id='1515'> +1.3103364e-12 </wgt>
<wgt id='1516'> +1.3131321e-12 </wgt>
<wgt id='1517'> +1.3137321e-12 </wgt>
<wgt id='1518'> +1.3097401e-12 </wgt>
<wgt id='1519'> +1.3036034e-12 </wgt>
<wgt id='1520'> +1.3103377e-12 </wgt>
<wgt id='1521'> +1.3125049e-12 </wgt>
<wgt id='1522'> +1.3082953e-12 </wgt>
<wgt id='1523'> +1.3149382e-12 </wgt>
<wgt id='1524'> +1.3109670e-12 </wgt>
<wgt id='1525'> +1.3135766e-12 </wgt>
<wgt id='1526'> +1.3069786e-12 </wgt>
<wgt id='1527'> +1.3065528e-12 </wgt>
<wgt id='1528'> +1.3101702e-12 </wgt>
<wgt id='1529'> +1.3084144e-12 </wgt>
<wgt id='1530'> +1.3137303e-12 </wgt>
<wgt id='1531'> +1.3102193e-12 </wgt>
<wgt id='1532'> +1.3028625e-12 </wgt>
<wgt id='1533'> +1.3087677e-12 </wgt>
<wgt id='1534'> +1.3117145e-12 </wgt>
<wgt id='1535'> +1.3004916e-12 </wgt>
<wgt id='1536'> +1.3064850e-12 </wgt>
<wgt id='1537'> +1.3058238e-12 </wgt>
<wgt id='1538'> +1.3082012e-12 </wgt>
<wgt id='1539'> +1.3180937e-12 </wgt>
<wgt id='1540'> +1.3111310e-12 </wgt>
<wgt id='1541'> +1.3084384e-12 </wgt>
<wgt id='1542'> +1.3063948e-12 </wgt>
<wgt id='1543'> +1.3092090e-12 </wgt>
<wgt id='1544'> +1.3089038e-12 </wgt>
<wgt id='1545'> +1.3072169e-12 </wgt>
<wgt id='1546'> +1.3052769e-12 </wgt>
<wgt id='1547'> +1.3090136e-12 </wgt>
<wgt id='1548'> +1.3076710e-12 </wgt>
<wgt id='1549'> +1.3078746e-12 </wgt>
<wgt id='1550'> +1.3090904e-12 </wgt>
<wgt id='1551'> +1.3104195e-12 </wgt>
<wgt id='1552'> +1.3094853e-12 </wgt>
<wgt id='1553'> +1.3077116e-12 </wgt>
<wgt id='1554'> +1.3101577e-12 </wgt>
<wgt id='1555'> +1.3097068e-12 </wgt>
<wgt id='1556'> +1.3081202e-12 </wgt>
<wgt id='1557'> +1.3115675e-12 </wgt>
<wgt id='1558'> +1.3060647e-12 </wgt>
<wgt id='1559'> +1.3083970e-12 </wgt>
<wgt id='1560'> +1.3108028e-12 </wgt>
<wgt id='1561'> +1.3078036e-12 </wgt>
<wgt id='1562'> +1.3094686e-12 </wgt>
<wgt id='1563'> +1.3097141e-12 </wgt>
<wgt id='1564'> +1.3101106e-12 </wgt>
<wgt id='1565'> +1.3076658e-12 </wgt>
<wgt id='1566'> +1.3093496e-12 </wgt>
<wgt id='1567'> +1.3102474e-12 </wgt>
<wgt id='1568'> +1.3070059e-12 </wgt>
<wgt id='1569'> +1.3083682e-12 </wgt>
<wgt id='1570'> +1.3086467e-12 </wgt>
<wgt id='1571'> +1.3083956e-12 </wgt>
<wgt id='1572'> +1.3080220e-12 </wgt>
<wgt id='1573'> +1.3079455e-12 </wgt>
<wgt id='1574'> +1.3081238e-12 </wgt>
<wgt id='1575'> +1.3089793e-12 </wgt>
<wgt id='1576'> +1.3087307e-12 </wgt>
<wgt id='1577'> +1.3098277e-12 </wgt>
<wgt id='1578'> +1.3092852e-12 </wgt>
<wgt id='1579'> +1.3081405e-12 </wgt>
<wgt id='1580'> +1.3079112e-12 </wgt>
<wgt id='1581'> +1.3101549e-12 </wgt>
<wgt id='1582'> +1.3093881e-12 </wgt>
<wgt id='1583'> +1.3089446e-12 </wgt>
<wgt id='1584'> +1.3093161e-12 </wgt>
<wgt id='1585'> +1.3086416e-12 </wgt>
<wgt id='1586'> +1.3090304e-12 </wgt>
<wgt id='1587'> +1.3096378e-12 </wgt>
<wgt id='1588'> +1.3084770e-12 </wgt>
<wgt id='1589'> +1.3092983e-12 </wgt>
<wgt id='1590'> +1.3086506e-12 </wgt>
<wgt id='1591'> +1.3085967e-12 </wgt>
<wgt id='1592'> +1.3087365e-12 </wgt>
<wgt id='1593'> +1.3074100e-12 </wgt>
<wgt id='1594'> +1.3084135e-12 </wgt>
<wgt id='1595'> +1.3087945e-12 </wgt>
<wgt id='1596'> +1.3084845e-12 </wgt>
<wgt id='1597'> +1.3082881e-12 </wgt>
<wgt id='1598'> +1.3085335e-12 </wgt>
<wgt id='1599'> +1.3085552e-12 </wgt>
<wgt id='1600'> +1.3095389e-12 </wgt>
<wgt id='1601'> +1.3077989e-12 </wgt>
<wgt id='1602'> +1.3082528e-12 </wgt>
<wgt id='1603'> +1.3080005e-12 </wgt>
<wgt id='1604'> +1.3088000e-12 </wgt>
<wgt id='1605'> +1.3089391e-12 </wgt>
<wgt id='1606'> +1.3086302e-12 </wgt>
<wgt id='1607'> +1.3092568e-12 </wgt>
<wgt id='1608'> +1.3087900e-12 </wgt>
<wgt id='1609'> +1.3083666e-12 </wgt>
<wgt id='1610'> +1.2952529e-12 </wgt>
<wgt id='1611'> +1.3221076e-12 </wgt>
<wgt id='1612'> +1.5295083e-12 </wgt>
<wgt id='1613'> +1.5002443e-12 </wgt>
<wgt id='1614'> +1.5162883e-12 </wgt>
<wgt id='1615'> +1.5326117e-12 </wgt>
<wgt id='1616'> +1.5069800e-12 </wgt>
<wgt id='1617'> +1.5370866e-12 </wgt>
<wgt id='1618'> +1.5624446e-12 </wgt>
<wgt id='1619'> +1.5238349e-12 </wgt>
<wgt id='1620'> +1.4703130e-12 </wgt>
<wgt id='1621'> +1.5587304e-12 </wgt>
<wgt id='1622'> +1.5289907e-12 </wgt>
<wgt id='1623'> +1.5139456e-12 </wgt>
<wgt id='1624'> +1.5181686e-12 </wgt>
<wgt id='1625'> +1.5343904e-12 </wgt>
<wgt id='1626'> +1.5092876e-12 </wgt>
<wgt id='1627'> +1.5177385e-12 </wgt>
<wgt id='1628'> +1.5211611e-12 </wgt>
<wgt id='1629'> +1.5676994e-12 </wgt>
<wgt id='1630'> +1.5092328e-12 </wgt>
<wgt id='1631'> +1.5357119e-12 </wgt>
<wgt id='1632'> +1.5042580e-12 </wgt>
<wgt id='1633'> +1.4971250e-12 </wgt>
<wgt id='1634'> +1.5544967e-12 </wgt>
<wgt id='1635'> +1.5539282e-12 </wgt>
<wgt id='1636'> +1.5734268e-12 </wgt>
<wgt id='1637'> +1.5225885e-12 </wgt>
<wgt id='1638'> +1.5554089e-12 </wgt>
<wgt id='1639'> +1.5054455e-12 </wgt>
<wgt id='1640'> +1.5506141e-12 </wgt>
<wgt id='1641'> +1.5186643e-12 </wgt>
<wgt id='1642'> +1.5343707e-12 </wgt>
<wgt id='1643'> +1.5074290e-12 </wgt>
<wgt id='1644'> +1.5367912e-12 </wgt>
<wgt id='1645'> +1.5538078e-12 </wgt>
<wgt id='1646'> +1.5109287e-12 </wgt>
<wgt id='1647'> +1.5207969e-12 </wgt>
<wgt id='1648'> +1.5734221e-12 </wgt>
<wgt id='1649'> +1.5574941e-12 </wgt>
<wgt id='1650'> +1.5147030e-12 </wgt>
<wgt id='1651'> +1.4934148e-12 </wgt>
<wgt id='1652'> +1.4939985e-12 </wgt>
<wgt id='1653'> +1.5413505e-12 </wgt>
<wgt id='1654'> +1.5393298e-12 </wgt>
<wgt id='1655'> +1.5102454e-12 </wgt>
<wgt id='1656'> +1.5170930e-12 </wgt>
<wgt id='1657'> +1.4948357e-12 </wgt>
<wgt id='1658'> +1.5191555e-12 </wgt>
<wgt id='1659'> +1.5181686e-12 </wgt>
<wgt id='1660'> +1.5805810e-12 </wgt>
<wgt id='1661'> +1.5314801e-12 </wgt>
<wgt id='1662'> +1.5385974e-12 </wgt>
<wgt id='1663'> +1.5228271e-12 </wgt>
<wgt id='1664'> +1.5365859e-12 </wgt>
<wgt id='1665'> +1.4986557e-12 </wgt>
<wgt id='1666'> +1.5137592e-12 </wgt>
<wgt id='1667'> +1.5055858e-12 </wgt>
<wgt id='1668'> +1.5467568e-12 </wgt>
<wgt id='1669'> +1.5529037e-12 </wgt>
<wgt id='1670'> +1.5573972e-12 </wgt>
<wgt id='1671'> +1.5576766e-12 </wgt>
<wgt id='1672'> +1.5727946e-12 </wgt>
<wgt id='1673'> +1.5082657e-12 </wgt>
<wgt id='1674'> +1.4664631e-12 </wgt>
<wgt id='1675'> +1.5653483e-12 </wgt>
<wgt id='1676'> +1.5556086e-12 </wgt>
<wgt id='1677'> +1.5872180e-12 </wgt>
<wgt id='1678'> +1.5186668e-12 </wgt>
<wgt id='1679'> +1.5073132e-12 </wgt>
<wgt id='1680'> +1.5453493e-12 </wgt>
<wgt id='1681'> +1.5409279e-12 </wgt>
<wgt id='1682'> +1.5426695e-12 </wgt>
<wgt id='1683'> +1.4886075e-12 </wgt>
<wgt id='1684'> +1.5294304e-12 </wgt>
<wgt id='1685'> +1.5122526e-12 </wgt>
<wgt id='1686'> +1.5338523e-12 </wgt>
<wgt id='1687'> +1.5531835e-12 </wgt>
<wgt id='1688'> +1.5235821e-12 </wgt>
<wgt id='1689'> +1.5425886e-12 </wgt>
<wgt id='1690'> +1.5538449e-12 </wgt>
<wgt id='1691'> +1.5558904e-12 </wgt>
<wgt id='1692'> +1.5736325e-12 </wgt>
<wgt id='1693'> +1.5462156e-12 </wgt>
<wgt id='1694'> +1.5380133e-12 </wgt>
<wgt id='1695'> +1.5880430e-12 </wgt>
<wgt id='1696'> +1.5520183e-12 </wgt>
<wgt id='1697'> +1.5144303e-12 </wgt>
<wgt id='1698'> +1.5150607e-12 </wgt>
<wgt id='1699'> +1.5264367e-12 </wgt>
<wgt id='1700'> +1.5143939e-12 </wgt>
<wgt id='1701'> +1.5338807e-12 </wgt>
<wgt id='1702'> +1.5075159e-12 </wgt>
<wgt id='1703'> +1.5497175e-12 </wgt>
<wgt id='1704'> +1.5238567e-12 </wgt>
<wgt id='1705'> +1.4655812e-12 </wgt>
<wgt id='1706'> +1.5451634e-12 </wgt>
<wgt id='1707'> +1.5040776e-12 </wgt>
<wgt id='1708'> +1.5137671e-12 </wgt>
<wgt id='1709'> +1.5308990e-12 </wgt>
<wgt id='1710'> +1.4929198e-12 </wgt>
<wgt id='1711'> +1.5034907e-12 </wgt>
<wgt id='1712'> +1.5277687e-12 </wgt>
<wgt id='1713'> +1.2536234e-12 </wgt>
<wgt id='1714'> +1.2210570e-12 </wgt>
<wgt id='1715'> +1.2487172e-12 </wgt>
<wgt id='1716'> +1.2527252e-12 </wgt>
<wgt id='1717'> +1.2450344e-12 </wgt>
<wgt id='1718'> +1.2617228e-12 </wgt>
<wgt id='1719'> +1.2511991e-12 </wgt>
<wgt id='1720'> +1.2528539e-12 </wgt>
<wgt id='1721'> +1.2166582e-12 </wgt>
<wgt id='1722'> +1.2352979e-12 </wgt>
<wgt id='1723'> +1.2463681e-12 </wgt>
<wgt id='1724'> +1.3204988e-12 </wgt>
<wgt id='1725'> +1.2468992e-12 </wgt>
<wgt id='1726'> +1.2590639e-12 </wgt>
<wgt id='1727'> +1.2772442e-12 </wgt>
<wgt id='1728'> +1.2517192e-12 </wgt>
<wgt id='1729'> +1.2197990e-12 </wgt>
<wgt id='1730'> +1.2540706e-12 </wgt>
<wgt id='1731'> +1.2030013e-12 </wgt>
<wgt id='1732'> +1.2693870e-12 </wgt>
<wgt id='1733'> +1.2341048e-12 </wgt>
<wgt id='1734'> +1.2810994e-12 </wgt>
<wgt id='1735'> +1.2520341e-12 </wgt>
<wgt id='1736'> +1.2946846e-12 </wgt>
<wgt id='1737'> +1.2839121e-12 </wgt>
<wgt id='1738'> +1.2681643e-12 </wgt>
<wgt id='1739'> +1.2217214e-12 </wgt>
<wgt id='1740'> +1.2147858e-12 </wgt>
<wgt id='1741'> +1.2995533e-12 </wgt>
<wgt id='1742'> +1.2438338e-12 </wgt>
<wgt id='1743'> +1.2504128e-12 </wgt>
<wgt id='1744'> +1.2729066e-12 </wgt>
<wgt id='1745'> +1.2361529e-12 </wgt>
<wgt id='1746'> +1.2553843e-12 </wgt>
<wgt id='1747'> +1.2607193e-12 </wgt>
<wgt id='1748'> +1.2363423e-12 </wgt>
<wgt id='1749'> +1.2482920e-12 </wgt>
<wgt id='1750'> +1.2464542e-12 </wgt>
<wgt id='1751'> +1.2254718e-12 </wgt>
<wgt id='1752'> +1.2408402e-12 </wgt>
<wgt id='1753'> +1.2656132e-12 </wgt>
<wgt id='1754'> +1.2739463e-12 </wgt>
<wgt id='1755'> +1.2761273e-12 </wgt>
<wgt id='1756'> +1.2706907e-12 </wgt>
<wgt id='1757'> +1.2423706e-12 </wgt>
<wgt id='1758'> +1.2751113e-12 </wgt>
<wgt id='1759'> +1.2581726e-12 </wgt>
<wgt id='1760'> +1.2330763e-12 </wgt>
<wgt id='1761'> +1.2427927e-12 </wgt>
<wgt id='1762'> +1.2274433e-12 </wgt>
<wgt id='1763'> +1.2639311e-12 </wgt>
<wgt id='1764'> +1.2762683e-12 </wgt>
<wgt id='1765'> +1.2384931e-12 </wgt>
<wgt id='1766'> +1.2633112e-12 </wgt>
<wgt id='1767'> +1.2624125e-12 </wgt>
<wgt id='1768'> +1.2606691e-12 </wgt>
<wgt id='1769'> +1.2391170e-12 </wgt>
<wgt id='1770'> +1.2402417e-12 </wgt>
<wgt id='1771'> +1.2744485e-12 </wgt>
<wgt id='1772'> +1.2583896e-12 </wgt>
<wgt id='1773'> +1.2466180e-12 </wgt>
<wgt id='1774'> +1.2337476e-12 </wgt>
<wgt id='1775'> +1.2623668e-12 </wgt>
<wgt id='1776'> +1.2934911e-12 </wgt>
<wgt id='1777'> +1.2126163e-12 </wgt>
<wgt id='1778'> +1.2431628e-12 </wgt>
<wgt id='1779'> +1.2712436e-12 </wgt>
<wgt id='1780'> +1.2637818e-12 </wgt>
<wgt id='1781'> +1.2506783e-12 </wgt>
<wgt id='1782'> +1.2544741e-12 </wgt>
<wgt id='1783'> +1.2519343e-12 </wgt>
<wgt id='1784'> +1.2632479e-12 </wgt>
<wgt id='1785'> +1.2592132e-12 </wgt>
<wgt id='1786'> +1.2381947e-12 </wgt>
<wgt id='1787'> +1.2909833e-12 </wgt>
<wgt id='1788'> +1.2675827e-12 </wgt>
<wgt id='1789'> +1.2883649e-12 </wgt>
<wgt id='1790'> +1.2734131e-12 </wgt>
<wgt id='1791'> +1.2599547e-12 </wgt>
<wgt id='1792'> +1.2432266e-12 </wgt>
<wgt id='1793'> +1.2492413e-12 </wgt>
<wgt id='1794'> +1.2700897e-12 </wgt>
<wgt id='1795'> +1.2561713e-12 </wgt>
<wgt id='1796'> +1.2367863e-12 </wgt>
<wgt id='1797'> +1.2523716e-12 </wgt>
<wgt id='1798'> +1.2635797e-12 </wgt>
<wgt id='1799'> +1.2684569e-12 </wgt>
<wgt id='1800'> +1.2778947e-12 </wgt>
<wgt id='1801'> +1.2494748e-12 </wgt>
<wgt id='1802'> +1.2459916e-12 </wgt>
<wgt id='1803'> +1.2799716e-12 </wgt>
<wgt id='1804'> +1.2385946e-12 </wgt>
<wgt id='1805'> +1.2220760e-12 </wgt>
<wgt id='1806'> +1.2274205e-12 </wgt>
<wgt id='1807'> +1.2798177e-12 </wgt>
<wgt id='1808'> +1.2409163e-12 </wgt>
<wgt id='1809'> +1.2481204e-12 </wgt>
<wgt id='1810'> +1.2361289e-12 </wgt>
<wgt id='1811'> +1.2658755e-12 </wgt>
<wgt id='1812'> +1.2375977e-12 </wgt>
<wgt id='1813'> +1.2086563e-12 </wgt>
<wgt id='1814'> +1.4924729e-12 </wgt>
<wgt id='1815'> +1.7318756e-12 </wgt>
<wgt id='1816'> +1.2536234e-12 </wgt>
<wgt id='1817'> +1.2210570e-12 </wgt>
<wgt id='1818'> +1.2487172e-12 </wgt>
<wgt id='1819'> +1.2527252e-12 </wgt>
<wgt id='1820'> +1.2450344e-12 </wgt>
<wgt id='1821'> +1.2617228e-12 </wgt>
<wgt id='1822'> +1.2511991e-12 </wgt>
<wgt id='1823'> +1.2528539e-12 </wgt>
<wgt id='1824'> +1.2166582e-12 </wgt>
<wgt id='1825'> +1.2352979e-12 </wgt>
<wgt id='1826'> +1.2463681e-12 </wgt>
<wgt id='1827'> +1.3204988e-12 </wgt>
<wgt id='1828'> +1.2468992e-12 </wgt>
<wgt id='1829'> +1.2590639e-12 </wgt>
<wgt id='1830'> +1.2772442e-12 </wgt>
<wgt id='1831'> +1.2517192e-12 </wgt>
<wgt id='1832'> +1.2197990e-12 </wgt>
<wgt id='1833'> +1.2540706e-12 </wgt>
<wgt id='1834'> +1.2030013e-12 </wgt>
<wgt id='1835'> +1.2693870e-12 </wgt>
<wgt id='1836'> +1.2341048e-12 </wgt>
<wgt id='1837'> +1.2810994e-12 </wgt>
<wgt id='1838'> +1.2520341e-12 </wgt>
<wgt id='1839'> +1.2946846e-12 </wgt>
<wgt id='1840'> +1.2839121e-12 </wgt>
<wgt id='1841'> +1.2681643e-12 </wgt>
<wgt id='1842'> +1.2217214e-12 </wgt>
<wgt id='1843'> +1.2147858e-12 </wgt>
<wgt id='1844'> +1.2995533e-12 </wgt>
<wgt id='1845'> +1.2438338e-12 </wgt>
<wgt id='1846'> +1.2504128e-12 </wgt>
<wgt id='1847'> +1.2729066e-12 </wgt>
<wgt id='1848'> +1.2361529e-12 </wgt>
<wgt id='1849'> +1.2553843e-12 </wgt>
<wgt id='1850'> +1.2607193e-12 </wgt>
<wgt id='1851'> +1.2363423e-12 </wgt>
<wgt id='1852'> +1.2482920e-12 </wgt>
<wgt id='1853'> +1.2464542e-12 </wgt>
<wgt id='1854'> +1.2254718e-12 </wgt>
<wgt id='1855'> +1.2408402e-12 </wgt>
<wgt id='1856'> +1.2656132e-12 </wgt>
<wgt id='1857'> +1.2739463e-12 </wgt>
<wgt id='1858'> +1.2761273e-12 </wgt>
<wgt id='1859'> +1.2706907e-12 </wgt>
<wgt id='1860'> +1.2423706e-12 </wgt>
<wgt id='1861'> +1.2751113e-12 </wgt>
<wgt id='1862'> +1.2581726e-12 </wgt>
<wgt id='1863'> +1.2330763e-12 </wgt>
<wgt id='1864'> +1.2427927e-12 </wgt>
<wgt id='1865'> +1.2274433e-12 </wgt>
<wgt id='1866'> +1.2639311e-12 </wgt>
<wgt id='1867'> +1.2762683e-12 </wgt>
<wgt id='1868'> +1.2384931e-12 </wgt>
<wgt id='1869'> +1.2633112e-12 </wgt>
<wgt id='1870'> +1.2624125e-12 </wgt>
<wgt id='1871'> +1.2606691e-12 </wgt>
<wgt id='1872'> +1.2391170e-12 </wgt>
<wgt id='1873'> +1.2402417e-12 </wgt>
<wgt id='1874'> +1.2744485e-12 </wgt>
<wgt id='1875'> +1.2583896e-12 </wgt>
<wgt id='1876'> +1.2466180e-12 </wgt>
<wgt id='1877'> +1.2337476e-12 </wgt>
<wgt id='1878'> +1.2623668e-12 </wgt>
<wgt id='1879'> +1.2934911e-12 </wgt>
<wgt id='1880'> +1.2126163e-12 </wgt>
<wgt id='1881'> +1.2431628e-12 </wgt>
<wgt id='1882'> +1.2712436e-12 </wgt>
<wgt id='1883'> +1.2637818e-12 </wgt>
<wgt id='1884'> +1.2506783e-12 </wgt>
<wgt id='1885'> +1.2544741e-12 </wgt>
<wgt id='1886'> +1.2519343e-12 </wgt>
<wgt id='1887'> +1.2632479e-12 </wgt>
<wgt id='1888'> +1.2592132e-12 </wgt>
<wgt id='1889'> +1.2381947e-12 </wgt>
<wgt id='1890'> +1.2909833e-12 </wgt>
<wgt id='1891'> +1.2675827e-12 </wgt>
<wgt id='1892'> +1.2883649e-12 </wgt>
<wgt id='1893'> +1.2734131e-12 </wgt>
<wgt id='1894'> +1.2599547e-12 </wgt>
<wgt id='1895'> +1.2432266e-12 </wgt>
<wgt id='1896'> +1.2492413e-12 </wgt>
<wgt id='1897'> +1.2700897e-12 </wgt>
<wgt id='1898'> +1.2561713e-12 </wgt>
<wgt id='1899'> +1.2367863e-12 </wgt>
<wgt id='1900'> +1.2523716e-12 </wgt>
<wgt id='1901'> +1.2635797e-12 </wgt>
<wgt id='1902'> +1.2684569e-12 </wgt>
<wgt id='1903'> +1.2778947e-12 </wgt>
<wgt id='1904'> +1.2494748e-12 </wgt>
<wgt id='1905'> +1.2459916e-12 </wgt>
<wgt id='1906'> +1.2799716e-12 </wgt>
<wgt id='1907'> +1.2385946e-12 </wgt>
<wgt id='1908'> +1.2220760e-12 </wgt>
<wgt id='1909'> +1.2274205e-12 </wgt>
<wgt id='1910'> +1.2798177e-12 </wgt>
<wgt id='1911'> +1.2409163e-12 </wgt>
<wgt id='1912'> +1.2481204e-12 </wgt>
<wgt id='1913'> +1.2361289e-12 </wgt>
<wgt id='1914'> +1.2658755e-12 </wgt>
<wgt id='1915'> +1.2375977e-12 </wgt>
<wgt id='1916'> +1.2086563e-12 </wgt>
<wgt id='1917'> +1.2419534e-12 </wgt>
<wgt id='1918'> +1.2607219e-12 </wgt>
<wgt id='1919'> +1.2574290e-12 </wgt>
</rwgt>
</event>
<event>
 9      1 +1.5538000e-12 2.75987700e+01 7.81860800e-03 1.47515500e-01
        1 -1    0    0  502    0 -0.0000000000e+00 +0.0000000000e+00 +1.1021274235e+03 1.1021274235e+03 0.0000000000e+00 0.0000e+00 1.0000e+00
       21 -1    0    0  501  502 +0.0000000000e+00 -0.0000000000e+00 -1.3150954291e+00 1.3150954291e+00 0.0000000000e+00 0.0000e+00 1.0000e+00
     1023  2    1    2    0    0 +9.3789230176e+00 +2.1183134117e+01 +9.8227299141e+02 9.8266063409e+02 1.5000092654e+01 0.0000e+00 0.0000e+00
  1000023  2    3    3    0    0 +1.4227921790e+00 +6.2284275527e+00 +1.8493623605e+02 1.8512828697e+02 5.5003258190e+00 0.0000e+00 0.0000e+00
        1  1    1    2  501    0 -9.3789230176e+00 -2.1183134117e+01 +1.1853933668e+02 1.2078188485e+02 0.0000000000e+00 0.0000e+00 1.0000e+00
  1000022  1    4    4    0    0 +1.4496722747e+00 +5.4888961635e+00 +1.5820031811e+02 1.5838109161e+02 5.0000000000e+00 0.0000e+00 1.0000e+00
      -11  1    4    4    0    0 -7.5136556405e-02 +2.8301440815e-01 +7.3260667797e+00 7.3319163511e+00 5.1100000000e-04 0.0000e+00 -1.0000e+00
       11  1    4    4    0    0 +4.8256460674e-02 +4.5651698109e-01 +1.9409851164e+01 1.9415279006e+01 5.1100000000e-04 0.0000e+00 1.0000e+00
  1000022  1    3    3    0    0 +7.9561308386e+00 +1.4954706564e+01 +7.9733675535e+02 7.9753234712e+02 5.0000000000e+00 0.0000e+00 1.0000e+00
<mgrwt>
<rscale>  1 0.27598771E+02</rscale>
<asrwt>0</asrwt>
<pdfrwt beam="1">  1       21 0.20232326E-03 0.27598771E+02</pdfrwt>
<pdfrwt beam="2">  1        1 0.16955733E+00 0.27598771E+02</pdfrwt>
<totfact> 0.40271776E+06</totfact>
</mgrwt>
<rwgt>
<wgt id='1001'> +1.5538000e-12 </wgt>
<wgt id='1002'> +1.5916640e-12 </wgt>
<wgt id='1003'> +1.5938248e-12 </wgt>
<wgt id='1004'> +1.5405422e-12 </wgt>
<wgt id='1005'> +1.6018311e-12 </wgt>
<wgt id='1006'> +1.3564398e-12 </wgt>
<wgt id='1007'> +1.4082290e-12 </wgt>
<wgt id='1008'> +1.4119028e-12 </wgt>
<wgt id='1009'> +1.3402859e-12 </wgt>
<wgt id='1010'> +1.4319971e-12 </wgt>
<wgt id='1011'> +1.8217877e-12 </wgt>
<wgt id='1012'> +1.8324966e-12 </wgt>
<wgt id='1013'> +1.8319631e-12 </wgt>
<wgt id='1014'> +1.8147950e-12 </wgt>
<wgt id='1015'> +1.8192281e-12 </wgt>
<wgt id='1016'> +1.8300269e-12 </wgt>
<wgt id='1017'> +1.8092874e-12 </wgt>
<wgt id='1018'> +1.8061991e-12 </wgt>
<wgt id='1019'> +1.8319631e-12 </wgt>
<wgt id='1020'> +1.7774386e-12 </wgt>
<wgt id='1021'> +1.5975810e-12 </wgt>
<wgt id='1022'> +1.6007719e-12 </wgt>
<wgt id='1023'> +1.6000363e-12 </wgt>
<wgt id='1024'> +1.5938248e-12 </wgt>
<wgt id='1025'> +1.5889858e-12 </wgt>
<wgt id='1026'> +2.1456561e-12 </wgt>
<wgt id='1027'> +2.0830484e-12 </wgt>
<wgt id='1028'> +2.0760689e-12 </wgt>
<wgt id='1029'> +2.1580957e-12 </wgt>
<wgt id='1030'> +2.0186686e-12 </wgt>
<wgt id='1031'> +1.2276132e-12 </wgt>
<wgt id='1032'> +1.3321849e-12 </wgt>
<wgt id='1033'> +1.3402859e-12 </wgt>
<wgt id='1034'> +1.1969601e-12 </wgt>
<wgt id='1035'> +1.3922268e-12 </wgt>
<wgt id='1036'> +1.0716845e-12 </wgt>
<wgt id='1037'> +1.1786542e-12 </wgt>
<wgt id='1038'> +1.1873033e-12 </wgt>
<wgt id='1039'> +1.0413664e-12 </wgt>
<wgt id='1040'> +1.2446161e-12 </wgt>
<wgt id='1041'> +1.4393426e-12 </wgt>
<wgt id='1042'> +1.5337561e-12 </wgt>
<wgt id='1043'> +1.5405422e-12 </wgt>
<wgt id='1044'> +1.4100473e-12 </wgt>
<wgt id='1045'> +1.5811767e-12 </wgt>
<wgt id='1046'> +1.5538000e-12 </wgt>
<wgt id='1047'> +1.5428702e-12 </wgt>
<wgt id='1048'> +1.6062003e-12 </wgt>
<wgt id='1049'> +1.5167500e-12 </wgt>
<wgt id='1050'> +1.4820668e-12 </wgt>
<wgt id='1051'> +1.5190549e-12 </wgt>
<wgt id='1052'> +1.5670879e-12 </wgt>
<wgt id='1053'> +1.5876832e-12 </wgt>
<wgt id='1054'> +1.5871573e-12 </wgt>
<wgt id='1055'> +1.5874775e-12 </wgt>
<wgt id='1056'> +1.4343251e-12 </wgt>
<wgt id='1057'> +1.5033270e-12 </wgt>
<wgt id='1058'> +1.5202180e-12 </wgt>
<wgt id='1059'> +1.5290637e-12 </wgt>
<wgt id='1060'> +1.5556451e-12 </wgt>
<wgt id='1061'> +1.6252529e-12 </wgt>
<wgt id='1062'> +1.5270347e-12 </wgt>
<wgt id='1063'> +1.4746387e-12 </wgt>
<wgt id='1064'> +1.5821019e-12 </wgt>
<wgt id='1065'> +1.5822069e-12 </wgt>
<wgt id='1066'> +1.5666954e-12 </wgt>
<wgt id='1067'> +1.6029073e-12 </wgt>
<wgt id='1068'> +1.6546433e-12 </wgt>
<wgt id='1069'> +1.6364336e-12 </wgt>
<wgt id='1070'> +1.5257824e-12 </wgt>
<wgt id='1071'> +1.5777378e-12 </wgt>
<wgt id='1072'> +1.5498198e-12 </wgt>
<wgt id='1073'> +1.4935901e-12 </wgt>
<wgt id='1074'> +1.5690615e-12 </wgt>
<wgt id='1075'> +1.4837191e-12 </wgt>
<wgt id='1076'> +1.5459227e-12 </wgt>
<wgt id='1077'> +1.5864951e-12 </wgt>
<wgt id='1078'> +1.5565834e-12 </wgt>
<wgt id='1079'> +1.6268412e-12 </wgt>
<wgt id='1080'> +1.5491944e-12 </wgt>
<wgt id='1081'> +1.5311376e-12 </wgt>
<wgt id='1082'> +1.6007900e-12 </wgt>
<wgt id='1083'> +1.5331066e-12 </wgt>
<wgt id='1084'> +1.5197821e-12 </wgt>
<wgt id='1085'> +1.5507252e-12 </wgt>
<wgt id='1086'> +1.6194199e-12 </wgt>
<wgt id='1087'> +1.4997776e-12 </wgt>
<wgt id='1088'> +1.5564072e-12 </wgt>
<wgt id='1089'> +1.5241462e-12 </wgt>
<wgt id='1090'> +1.5143171e-12 </wgt>
<wgt id='1091'> +1.4676190e-12 </wgt>
<wgt id='1092'> +1.5514764e-12 </wgt>
<wgt id='1093'> +1.6380190e-12 </wgt>
<wgt id='1094'> +1.5443035e-12 </wgt>
<wgt id='1095'> +1.5942730e-12 </wgt>
<wgt id='1096'> +1.5187263e-12 </wgt>
<wgt id='1097'> +1.5549866e-12 </wgt>
<wgt id='1098'> +1.6158484e-12 </wgt>
<wgt id='1099'> +1.5520452e-12 </wgt>
<wgt id='1100'> +1.6010781e-12 </wgt>
<wgt id='1101'> +1.5523586e-12 </wgt>
<wgt id='1102'> +1.5174559e-12 </wgt>
<wgt id='1103'> +1.5522820e-12 </wgt>
<wgt id='1104'> +1.6060559e-12 </wgt>
<wgt id='1105'> +1.4628163e-12 </wgt>
<wgt id='1106'> +1.5750360e-12 </wgt>
<wgt id='1107'> +1.6554418e-12 </wgt>
<wgt id='1108'> +1.5854519e-12 </wgt>
<wgt id='1109'> +1.5396584e-12 </wgt>
<wgt id='1110'> +1.5449285e-12 </wgt>
<wgt id='1111'> +1.5739796e-12 </wgt>
<wgt id='1112'> +1.4975431e-12 </wgt>
<wgt id='1113'> +1.6098628e-12 </wgt>
<wgt id='1114'> +1.5935498e-12 </wgt>
<wgt id='1115'> +1.5815950e-12 </wgt>
<wgt id='1116'> +1.6451452e-12 </wgt>
<wgt id='1117'> +1.5735485e-12 </wgt>
<wgt id='1118'> +1.5014665e-12 </wgt>
<wgt id='1119'> +1.5443249e-12 </wgt>
<wgt id='1120'> +1.5455696e-12 </wgt>
<wgt id='1121'> +1.5104929e-12 </wgt>
<wgt id='1122'> +1.5011030e-12 </wgt>
<wgt id='1123'> +1.6398820e-12 </wgt>
<wgt id='1124'> +1.6344330e-12 </wgt>
<wgt id='1125'> +1.5376908e-12 </wgt>
<wgt id='1126'> +1.4892244e-12 </wgt>
<wgt id='1127'> +1.5994358e-12 </wgt>
<wgt id='1128'> +1.5270347e-12 </wgt>
<wgt id='1129'> +1.4688268e-12 </wgt>
<wgt id='1130'> +1.5338298e-12 </wgt>
<wgt id='1131'> +1.6119204e-12 </wgt>
<wgt id='1132'> +1.5736211e-12 </wgt>
<wgt id='1133'> +1.5774955e-12 </wgt>
<wgt id='1134'> +1.5430454e-12 </wgt>
<wgt id='1135'> +1.4275216e-12 </wgt>
<wgt id='1136'> +1.5332858e-12 </wgt>
<wgt id='1137'> +1.5663522e-12 </wgt>
<wgt id='1138'> +1.5266044e-12 </wgt>
<wgt id='1139'> +1.5202459e-12 </wgt>
<wgt id='1140'> +1.5765794e-12 </wgt>
<wgt id='1141'> +1.5441143e-12 </wgt>
<wgt id='1142'> +1.6156866e-12 </wgt>
<wgt id='1143'> +1.4504925e-12 </wgt>
<wgt id='1144'> +1.5302720e-12 </wgt>
<wgt id='1145'> +1.6048591e-12 </wgt>
<wgt id='1146'> +1.5330558e-12 </wgt>
<wgt id='1147'> +1.4294497e-12 </wgt>
<wgt id='1148'> +1.4519172e-12 </wgt>
<wgt id='1149'> +1.3440002e-12 </wgt>
<wgt id='1150'> +1.4345144e-12 </wgt>
<wgt id='1151'> +1.7771381e-12 </wgt>
<wgt id='1152'> +2.4303135e-12 </wgt>
<wgt id='1153'> +2.4233358e-12 </wgt>
<wgt id='1154'> +2.4343449e-12 </wgt>
<wgt id='1155'> +2.4392738e-12 </wgt>
<wgt id='1156'> +2.4258043e-12 </wgt>
<wgt id='1157'> +2.4290268e-12 </wgt>
<wgt id='1158'> +2.4319959e-12 </wgt>
<wgt id='1159'> +2.4306701e-12 </wgt>
<wgt id='1160'> +2.4301117e-12 </wgt>
<wgt id='1161'> +2.4569590e-12 </wgt>
<wgt id='1162'> +2.4118760e-12 </wgt>
<wgt id='1163'> +2.4268516e-12 </wgt>
<wgt id='1164'> +2.4337512e-12 </wgt>
<wgt id='1165'> +2.4203230e-12 </wgt>
<wgt id='1166'> +2.4403051e-12 </wgt>
<wgt id='1167'> +2.4651901e-12 </wgt>
<wgt id='1168'> +2.3886220e-12 </wgt>
<wgt id='1169'> +2.4541321e-12 </wgt>
<wgt id='1170'> +2.4103388e-12 </wgt>
<wgt id='1171'> +2.4152294e-12 </wgt>
<wgt id='1172'> +2.4485642e-12 </wgt>
<wgt id='1173'> +2.4012803e-12 </wgt>
<wgt id='1174'> +2.4596684e-12 </wgt>
<wgt id='1175'> +2.4249139e-12 </wgt>
<wgt id='1176'> +2.4341773e-12 </wgt>
<wgt id='1177'> +2.4337512e-12 </wgt>
<wgt id='1178'> +2.4135384e-12 </wgt>
<wgt id='1179'> +2.4282411e-12 </wgt>
<wgt id='1180'> +2.4240599e-12 </wgt>
<wgt id='1181'> +2.4332058e-12 </wgt>
<wgt id='1182'> +2.4168369e-12 </wgt>
<wgt id='1183'> +2.4151939e-12 </wgt>
<wgt id='1184'> +2.4309819e-12 </wgt>
<wgt id='1185'> +2.4225208e-12 </wgt>
<wgt id='1186'> +2.4325218e-12 </wgt>
<wgt id='1187'> +2.4370259e-12 </wgt>
<wgt id='1188'> +2.4278824e-12 </wgt>
<wgt id='1189'> +2.4223429e-12 </wgt>
<wgt id='1190'> +2.4041585e-12 </wgt>
<wgt id='1191'> +2.4335006e-12 </wgt>
<wgt id='1192'> +2.4416486e-12 </wgt>
<wgt id='1193'> +1.4279528e-12 </wgt>
<wgt id='1194'> +1.4081231e-12 </wgt>
<wgt id='1195'> +1.4442470e-12 </wgt>
<wgt id='1196'> +1.4289502e-12 </wgt>
<wgt id='1197'> +1.4268613e-12 </wgt>
<wgt id='1198'> +1.4291157e-12 </wgt>
<wgt id='1199'> +1.4262897e-12 </wgt>
<wgt id='1200'> +1.4333495e-12 </wgt>
<wgt id='1201'> +1.4243877e-12 </wgt>
<wgt id='1202'> +1.4260452e-12 </wgt>
<wgt id='1203'> +1.4307048e-12 </wgt>
<wgt id='1204'> +1.4173735e-12 </wgt>
<wgt id='1205'> +1.4343556e-12 </wgt>
<wgt id='1206'> +1.4185641e-12 </wgt>
<wgt id='1207'> +1.4405673e-12 </wgt>
<wgt id='1208'> +1.4274283e-12 </wgt>
<wgt id='1209'> +1.4283060e-12 </wgt>
<wgt id='1210'> +1.4316069e-12 </wgt>
<wgt id='1211'> +1.4231163e-12 </wgt>
<wgt id='1212'> +1.4168806e-12 </wgt>
<wgt id='1213'> +1.4373272e-12 </wgt>
<wgt id='1214'> +1.4071808e-12 </wgt>
<wgt id='1215'> +1.4577673e-12 </wgt>
<wgt id='1216'> +1.4328826e-12 </wgt>
<wgt id='1217'> +1.4234414e-12 </wgt>
<wgt id='1218'> +1.4267683e-12 </wgt>
<wgt id='1219'> +1.4278257e-12 </wgt>
<wgt id='1220'> +1.4274889e-12 </wgt>
<wgt id='1221'> +1.4115138e-12 </wgt>
<wgt id='1222'> +1.4523854e-12 </wgt>
<wgt id='1223'> +1.3909650e-12 </wgt>
<wgt id='1224'> +1.4261945e-12 </wgt>
<wgt id='1225'> +1.4284105e-12 </wgt>
<wgt id='1226'> +1.4226397e-12 </wgt>
<wgt id='1227'> +1.4312294e-12 </wgt>
<wgt id='1228'> +1.4266869e-12 </wgt>
<wgt id='1229'> +1.4256013e-12 </wgt>
<wgt id='1230'> +1.4315617e-12 </wgt>
<wgt id='1231'> +1.4388833e-12 </wgt>
<wgt id='1232'> +1.4354935e-12 </wgt>
<wgt id='1233'> +1.4251608e-12 </wgt>
<wgt id='1234'> +1.4279528e-12 </wgt>
<wgt id='1235'> +1.4222986e-12 </wgt>
<wgt id='1236'> +1.4244930e-12 </wgt>
<wgt id='1237'> +1.4265140e-12 </wgt>
<wgt id='1238'> +1.4296055e-12 </wgt>
<wgt id='1239'> +1.4309318e-12 </wgt>
<wgt id='1240'> +1.4321843e-12 </wgt>
<wgt id='1241'> +1.3649718e-12 </wgt>
<wgt id='1242'> +1.3450095e-12 </wgt>
<wgt id='1243'> +1.3846988e-12 </wgt>
<wgt id='1244'> +1.3661197e-12 </wgt>
<wgt id='1245'> +1.3640757e-12 </wgt>
<wgt id='1246'> +1.3683449e-12 </wgt>
<wgt id='1247'> +1.3620835e-12 </wgt>
<wgt id='1248'> +1.3647598e-12 </wgt>
<wgt id='1249'> +1.3652946e-12 </wgt>
<wgt id='1250'> +1.3646590e-12 </wgt>
<wgt id='1251'> +1.3651510e-12 </wgt>
<wgt id='1252'> +1.3786430e-12 </wgt>
<wgt id='1253'> +1.3542625e-12 </wgt>
<wgt id='1254'> +1.3664108e-12 </wgt>
<wgt id='1255'> +1.3639638e-12 </wgt>
<wgt id='1256'> +1.3647504e-12 </wgt>
<wgt id='1257'> +1.3659691e-12 </wgt>
<wgt id='1258'> +1.3751986e-12 </wgt>
<wgt id='1259'> +1.3533014e-12 </wgt>
<wgt id='1260'> +1.3763803e-12 </wgt>
<wgt id='1261'> +1.3484083e-12 </wgt>
<wgt id='1262'> +1.3598061e-12 </wgt>
<wgt id='1263'> +1.3668686e-12 </wgt>
<wgt id='1264'> +1.3645054e-12 </wgt>
<wgt id='1265'> +1.3649206e-12 </wgt>
<wgt id='1266'> +1.3377577e-12 </wgt>
<wgt id='1267'> +1.3890760e-12 </wgt>
<wgt id='1268'> +1.3683364e-12 </wgt>
<wgt id='1269'> +1.3433777e-12 </wgt>
<wgt id='1270'> +1.3781371e-12 </wgt>
<wgt id='1271'> +1.3676195e-12 </wgt>
<wgt id='1272'> +1.3603226e-12 </wgt>
<wgt id='1273'> +1.3664614e-12 </wgt>
<wgt id='1274'> +1.3666653e-12 </wgt>
<wgt id='1275'> +1.3626814e-12 </wgt>
<wgt id='1276'> +1.3592135e-12 </wgt>
<wgt id='1277'> +1.3653666e-12 </wgt>
<wgt id='1278'> +1.3783587e-12 </wgt>
<wgt id='1279'> +1.3722098e-12 </wgt>
<wgt id='1280'> +1.3626820e-12 </wgt>
<wgt id='1281'> +1.3744936e-12 </wgt>
<wgt id='1282'> +1.3649718e-12 </wgt>
<wgt id='1283'> +1.3595941e-12 </wgt>
<wgt id='1284'> +1.3618030e-12 </wgt>
<wgt id='1285'> +1.3636401e-12 </wgt>
<wgt id='1286'> +1.3664200e-12 </wgt>
<wgt id='1287'> +1.3673367e-12 </wgt>
<wgt id='1288'> +1.3680594e-12 </wgt>
<wgt id='1289'> +1.4964395e-12 </wgt>
<wgt id='1290'> +1.5014608e-12 </wgt>
<wgt id='1291'> +1.4910776e-12 </wgt>
<wgt id='1292'> +1.4980288e-12 </wgt>
<wgt id='1293'> +1.4953214e-12 </wgt>
<wgt id='1294'> +1.4776444e-12 </wgt>
<wgt id='1295'> +1.5145075e-12 </wgt>
<wgt id='1296'> +1.5008256e-12 </wgt>
<wgt id='1297'> +1.4908815e-12 </wgt>
<wgt id='1298'> +1.5107450e-12 </wgt>
<wgt id='1299'> +1.4787094e-12 </wgt>
<wgt id='1300'> +1.4968813e-12 </wgt>
<wgt id='1301'> +1.4954263e-12 </wgt>
<wgt id='1302'> +1.5001643e-12 </wgt>
<wgt id='1303'> +1.4912429e-12 </wgt>
<wgt id='1304'> +1.5020504e-12 </wgt>
<wgt id='1305'> +1.4924902e-12 </wgt>
<wgt id='1306'> +1.4956845e-12 </wgt>
<wgt id='1307'> +1.4973258e-12 </wgt>
<wgt id='1308'> +1.4866135e-12 </wgt>
<wgt id='1309'> +1.5039878e-12 </wgt>
<wgt id='1310'> +1.5080263e-12 </wgt>
<wgt id='1311'> +1.4843138e-12 </wgt>
<wgt id='1312'> +1.5054530e-12 </wgt>
<wgt id='1313'> +1.4884837e-12 </wgt>
<wgt id='1314'> +1.4748495e-12 </wgt>
<wgt id='1315'> +1.5168194e-12 </wgt>
<wgt id='1316'> +1.4936846e-12 </wgt>
<wgt id='1317'> +1.4944924e-12 </wgt>
<wgt id='1318'> +1.5076666e-12 </wgt>
<wgt id='1319'> +1.4811929e-12 </wgt>
<wgt id='1320'> +1.5280754e-12 </wgt>
<wgt id='1321'> +1.4700053e-12 </wgt>
<wgt id='1322'> +1.4937321e-12 </wgt>
<wgt id='1323'> +1.4994068e-12 </wgt>
<wgt id='1324'> +1.4971470e-12 </wgt>
<wgt id='1325'> +1.5001368e-12 </wgt>
<wgt id='1326'> +1.5003703e-12 </wgt>
<wgt id='1327'> +1.4951016e-12 </wgt>
<wgt id='1328'> +1.4914834e-12 </wgt>
<wgt id='1329'> +1.5002378e-12 </wgt>
<wgt id='1330'> +1.4879024e-12 </wgt>
<wgt id='1331'> +1.5063181e-12 </wgt>
<wgt id='1332'> +1.5061195e-12 </wgt>
<wgt id='1333'> +1.5013745e-12 </wgt>
<wgt id='1334'> +1.4913327e-12 </wgt>
<wgt id='1335'> +1.5109223e-12 </wgt>
<wgt id='1336'> +1.4987261e-12 </wgt>
<wgt id='1337'> +1.5049780e-12 </wgt>
<wgt id='1338'> +1.4978006e-12 </wgt>
<wgt id='1339'> +1.4901679e-12 </wgt>
<wgt id='1340'> +1.4764354e-12 </wgt>
<wgt id='1341'> +1.4812644e-12 </wgt>
<wgt id='1342'> +1.4712753e-12 </wgt>
<wgt id='1343'> +1.4782046e-12 </wgt>
<wgt id='1344'> +1.4752613e-12 </wgt>
<wgt id='1345'> +1.4566366e-12 </wgt>
<wgt id='1346'> +1.4947333e-12 </wgt>
<wgt id='1347'> +1.4815826e-12 </wgt>
<wgt id='1348'> +1.4706044e-12 </wgt>
<wgt id='1349'> +1.4908260e-12 </wgt>
<wgt id='1350'> +1.4624137e-12 </wgt>
<wgt id='1351'> +1.4777938e-12 </wgt>
<wgt id='1352'> +1.4733601e-12 </wgt>
<wgt id='1353'> +1.4811341e-12 </wgt>
<wgt id='1354'> +1.4679466e-12 </wgt>
<wgt id='1355'> +1.4818093e-12 </wgt>
<wgt id='1356'> +1.4733289e-12 </wgt>
<wgt id='1357'> +1.4737842e-12 </wgt>
<wgt id='1358'> +1.4795420e-12 </wgt>
<wgt id='1359'> +1.4674235e-12 </wgt>
<wgt id='1360'> +1.4842570e-12 </wgt>
<wgt id='1361'> +1.4867446e-12 </wgt>
<wgt id='1362'> +1.4629859e-12 </wgt>
<wgt id='1363'> +1.4918416e-12 </wgt>
<wgt id='1364'> +1.4674794e-12 </wgt>
<wgt id='1365'> +1.4855196e-12 </wgt>
<wgt id='1366'> +1.4595010e-12 </wgt>
<wgt id='1367'> +1.4741003e-12 </wgt>
<wgt id='1368'> +1.4743653e-12 </wgt>
<wgt id='1369'> +1.4845733e-12 </wgt>
<wgt id='1370'> +1.4653182e-12 </wgt>
<wgt id='1371'> +1.5007743e-12 </wgt>
<wgt id='1372'> +1.4471186e-12 </wgt>
<wgt id='1373'> +1.4670961e-12 </wgt>
<wgt id='1374'> +1.4846662e-12 </wgt>
<wgt id='1375'> +1.4770230e-12 </wgt>
<wgt id='1376'> +1.4801756e-12 </wgt>
<wgt id='1377'> +1.4812859e-12 </wgt>
<wgt id='1378'> +1.4762299e-12 </wgt>
<wgt id='1379'> +1.4718103e-12 </wgt>
<wgt id='1380'> +1.4804881e-12 </wgt>
<wgt id='1381'> +1.4682867e-12 </wgt>
<wgt id='1382'> +1.4855204e-12 </wgt>
<wgt id='1383'> +1.4879161e-12 </wgt>
<wgt id='1384'> +1.4808623e-12 </wgt>
<wgt id='1385'> +1.4709299e-12 </wgt>
<wgt id='1386'> +1.4907021e-12 </wgt>
<wgt id='1387'> +1.4750619e-12 </wgt>
<wgt id='1388'> +1.4861908e-12 </wgt>
<wgt id='1389'> +1.4766618e-12 </wgt>
<wgt id='1390'> +1.4694846e-12 </wgt>
<wgt id='1391'> +1.4467149e-12 </wgt>
<wgt id='1392'> +1.4169120e-12 </wgt>
<wgt id='1393'> +1.4285706e-12 </wgt>
<wgt id='1394'> +1.4380546e-12 </wgt>
<wgt id='1395'> +1.4578522e-12 </wgt>
<wgt id='1396'> +1.4478462e-12 </wgt>
<wgt id='1397'> +1.4137874e-12 </wgt>
<wgt id='1398'> +1.4193769e-12 </wgt>
<wgt id='1399'> +1.4257079e-12 </wgt>
<wgt id='1400'> +1.4324922e-12 </wgt>
<wgt id='1401'> +1.4400805e-12 </wgt>
<wgt id='1402'> +1.4559079e-12 </wgt>
<wgt id='1403'> +1.4643355e-12 </wgt>
<wgt id='1404'> +1.4729219e-12 </wgt>
<wgt id='1405'> +1.4478462e-12 </wgt>
<wgt id='1406'> +1.4447154e-12 </wgt>
<wgt id='1407'> +1.4463157e-12 </wgt>
<wgt id='1408'> +1.4491851e-12 </wgt>
<wgt id='1409'> +1.4501938e-12 </wgt>
<wgt id='1410'> +1.3582075e-12 </wgt>
<wgt id='1411'> +1.3668156e-12 </wgt>
<wgt id='1412'> +1.3471580e-12 </wgt>
<wgt id='1413'> +1.3480422e-12 </wgt>
<wgt id='1414'> +1.3682957e-12 </wgt>
<wgt id='1415'> +1.3551895e-12 </wgt>
<wgt id='1416'> +1.3594327e-12 </wgt>
<wgt id='1417'> +1.3532569e-12 </wgt>
<wgt id='1418'> +1.3631256e-12 </wgt>
<wgt id='1419'> +1.3653553e-12 </wgt>
<wgt id='1420'> +1.3513287e-12 </wgt>
<wgt id='1421'> +1.3431388e-12 </wgt>
<wgt id='1422'> +1.3645509e-12 </wgt>
<wgt id='1423'> +1.3588203e-12 </wgt>
<wgt id='1424'> +1.3574478e-12 </wgt>
<wgt id='1425'> +1.3608534e-12 </wgt>
<wgt id='1426'> +1.3551324e-12 </wgt>
<wgt id='1427'> +1.3374995e-12 </wgt>
<wgt id='1428'> +1.3694051e-12 </wgt>
<wgt id='1429'> +1.3559660e-12 </wgt>
<wgt id='1430'> +1.3615015e-12 </wgt>
<wgt id='1431'> +1.3485906e-12 </wgt>
<wgt id='1432'> +1.3647402e-12 </wgt>
<wgt id='1433'> +1.3311234e-12 </wgt>
<wgt id='1434'> +1.3812571e-12 </wgt>
<wgt id='1435'> +1.3512684e-12 </wgt>
<wgt id='1436'> +1.3768177e-12 </wgt>
<wgt id='1437'> +1.3609909e-12 </wgt>
<wgt id='1438'> +1.3555546e-12 </wgt>
<wgt id='1439'> +1.3497809e-12 </wgt>
<wgt id='1440'> +1.3728820e-12 </wgt>
<wgt id='1441'> +1.3696883e-12 </wgt>
<wgt id='1442'> +1.3337403e-12 </wgt>
<wgt id='1443'> +1.3572783e-12 </wgt>
<wgt id='1444'> +1.3622726e-12 </wgt>
<wgt id='1445'> +1.3669749e-12 </wgt>
<wgt id='1446'> +1.3557176e-12 </wgt>
<wgt id='1447'> +1.3585125e-12 </wgt>
<wgt id='1448'> +1.3527061e-12 </wgt>
<wgt id='1449'> +1.3538052e-12 </wgt>
<wgt id='1450'> +1.3600424e-12 </wgt>
<wgt id='1451'> +1.3661877e-12 </wgt>
<wgt id='1452'> +1.3484542e-12 </wgt>
<wgt id='1453'> +1.3549922e-12 </wgt>
<wgt id='1454'> +1.3597802e-12 </wgt>
<wgt id='1455'> +1.3659777e-12 </wgt>
<wgt id='1456'> +1.3721349e-12 </wgt>
<wgt id='1457'> +1.3710577e-12 </wgt>
<wgt id='1458'> +1.3549931e-12 </wgt>
<wgt id='1459'> +1.3658407e-12 </wgt>
<wgt id='1460'> +1.3711468e-12 </wgt>
<wgt id='1461'> +1.3582075e-12 </wgt>
<wgt id='1462'> +1.3547701e-12 </wgt>
<wgt id='1463'> +1.3597038e-12 </wgt>
<wgt id='1464'> +1.3566445e-12 </wgt>
<wgt id='1465'> +1.3205701e-12 </wgt>
<wgt id='1466'> +1.3268731e-12 </wgt>
<wgt id='1467'> +1.3335076e-12 </wgt>
<wgt id='1468'> +1.3431063e-12 </wgt>
<wgt id='1469'> +1.3492678e-12 </wgt>
<wgt id='1470'> +1.3645006e-12 </wgt>
<wgt id='1471'> +1.3714651e-12 </wgt>
<wgt id='1472'> +1.3790264e-12 </wgt>
<wgt id='1473'> +1.3566445e-12 </wgt>
<wgt id='1474'> +1.3545335e-12 </wgt>
<wgt id='1475'> +1.3564074e-12 </wgt>
<wgt id='1476'> +1.3572407e-12 </wgt>
<wgt id='1477'> +1.3578313e-12 </wgt>
<wgt id='1478'> +1.4075782e-12 </wgt>
<wgt id='1479'> +1.4078391e-12 </wgt>
<wgt id='1480'> +1.4087615e-12 </wgt>
<wgt id='1481'> +1.4335648e-12 </wgt>
<wgt id='1482'> +1.4098167e-12 </wgt>
<wgt id='1483'> +1.3956649e-12 </wgt>
<wgt id='1484'> +1.3978090e-12 </wgt>
<wgt id='1485'> +1.4104141e-12 </wgt>
<wgt id='1486'> +1.4058001e-12 </wgt>
<wgt id='1487'> +1.4040750e-12 </wgt>
<wgt id='1488'> +1.4034349e-12 </wgt>
<wgt id='1489'> +1.4119337e-12 </wgt>
<wgt id='1490'> +1.4028753e-12 </wgt>
<wgt id='1491'> +1.4168282e-12 </wgt>
<wgt id='1492'> +1.4090321e-12 </wgt>
<wgt id='1493'> +1.3820077e-12 </wgt>
<wgt id='1494'> +1.3960573e-12 </wgt>
<wgt id='1495'> +1.4061639e-12 </wgt>
<wgt id='1496'> +1.4316973e-12 </wgt>
<wgt id='1497'> +1.4067041e-12 </wgt>
<wgt id='1498'> +1.4086332e-12 </wgt>
<wgt id='1499'> +1.4110258e-12 </wgt>
<wgt id='1500'> +1.4065293e-12 </wgt>
<wgt id='1501'> +1.4123306e-12 </wgt>
<wgt id='1502'> +1.4071219e-12 </wgt>
<wgt id='1503'> +1.4119359e-12 </wgt>
<wgt id='1504'> +1.4036006e-12 </wgt>
<wgt id='1505'> +1.4178467e-12 </wgt>
<wgt id='1506'> +1.4078296e-12 </wgt>
<wgt id='1507'> +1.4063725e-12 </wgt>
<wgt id='1508'> +1.4100871e-12 </wgt>
<wgt id='1509'> +1.3451844e-12 </wgt>
<wgt id='1510'> +1.3489111e-12 </wgt>
<wgt id='1511'> +1.3230468e-12 </wgt>
<wgt id='1512'> +1.3324455e-12 </wgt>
<wgt id='1513'> +1.3436765e-12 </wgt>
<wgt id='1514'> +1.3493294e-12 </wgt>
<wgt id='1515'> +1.3489562e-12 </wgt>
<wgt id='1516'> +1.3477075e-12 </wgt>
<wgt id='1517'> +1.3447187e-12 </wgt>
<wgt id='1518'> +1.3419731e-12 </wgt>
<wgt id='1519'> +1.3469020e-12 </wgt>
<wgt id='1520'> +1.3436691e-12 </wgt>
<wgt id='1521'> +1.3428626e-12 </wgt>
<wgt id='1522'> +1.3463316e-12 </wgt>
<wgt id='1523'> +1.3428991e-12 </wgt>
<wgt id='1524'> +1.3463121e-12 </wgt>
<wgt id='1525'> +1.3455504e-12 </wgt>
<wgt id='1526'> +1.3448340e-12 </wgt>
<wgt id='1527'> +1.3456975e-12 </wgt>
<wgt id='1528'> +1.3418236e-12 </wgt>
<wgt id='1529'> +1.3434837e-12 </wgt>
<wgt id='1530'> +1.3432617e-12 </wgt>
<wgt id='1531'> +1.3471240e-12 </wgt>
<wgt id='1532'> +1.3406720e-12 </wgt>
<wgt id='1533'> +1.3528728e-12 </wgt>
<wgt id='1534'> +1.3453973e-12 </wgt>
<wgt id='1535'> +1.3453407e-12 </wgt>
<wgt id='1536'> +1.3529640e-12 </wgt>
<wgt id='1537'> +1.3503394e-12 </wgt>
<wgt id='1538'> +1.3240443e-12 </wgt>
<wgt id='1539'> +1.3360228e-12 </wgt>
<wgt id='1540'> +1.3419116e-12 </wgt>
<wgt id='1541'> +1.3392938e-12 </wgt>
<wgt id='1542'> +1.3437927e-12 </wgt>
<wgt id='1543'> +1.3456774e-12 </wgt>
<wgt id='1544'> +1.3454108e-12 </wgt>
<wgt id='1545'> +1.3455032e-12 </wgt>
<wgt id='1546'> +1.3488079e-12 </wgt>
<wgt id='1547'> +1.3453784e-12 </wgt>
<wgt id='1548'> +1.3453262e-12 </wgt>
<wgt id='1549'> +1.3452597e-12 </wgt>
<wgt id='1550'> +1.3450641e-12 </wgt>
<wgt id='1551'> +1.3440010e-12 </wgt>
<wgt id='1552'> +1.3461502e-12 </wgt>
<wgt id='1553'> +1.3483514e-12 </wgt>
<wgt id='1554'> +1.3422877e-12 </wgt>
<wgt id='1555'> +1.3438345e-12 </wgt>
<wgt id='1556'> +1.3459943e-12 </wgt>
<wgt id='1557'> +1.3407021e-12 </wgt>
<wgt id='1558'> +1.3485575e-12 </wgt>
<wgt id='1559'> +1.3515525e-12 </wgt>
<wgt id='1560'> +1.3524092e-12 </wgt>
<wgt id='1561'> +1.3435500e-12 </wgt>
<wgt id='1562'> +1.3460071e-12 </wgt>
<wgt id='1563'> +1.3477558e-12 </wgt>
<wgt id='1564'> +1.3451008e-12 </wgt>
<wgt id='1565'> +1.3426319e-12 </wgt>
<wgt id='1566'> +1.3426317e-12 </wgt>
<wgt id='1567'> +1.3448553e-12 </wgt>
<wgt id='1568'> +1.3430150e-12 </wgt>
<wgt id='1569'> +1.3422273e-12 </wgt>
<wgt id='1570'> +1.3451312e-12 </wgt>
<wgt id='1571'> +1.3395758e-12 </wgt>
<wgt id='1572'> +1.3446655e-12 </wgt>
<wgt id='1573'> +1.3489063e-12 </wgt>
<wgt id='1574'> +1.3435256e-12 </wgt>
<wgt id='1575'> +1.3467325e-12 </wgt>
<wgt id='1576'> +1.3441496e-12 </wgt>
<wgt id='1577'> +1.3433419e-12 </wgt>
<wgt id='1578'> +1.3462142e-12 </wgt>
<wgt id='1579'> +1.3447075e-12 </wgt>
<wgt id='1580'> +1.3432534e-12 </wgt>
<wgt id='1581'> +1.3443048e-12 </wgt>
<wgt id='1582'> +1.3476618e-12 </wgt>
<wgt id='1583'> +1.3461885e-12 </wgt>
<wgt id='1584'> +1.3463418e-12 </wgt>
<wgt id='1585'> +1.3462372e-12 </wgt>
<wgt id='1586'> +1.3444053e-12 </wgt>
<wgt id='1587'> +1.3448172e-12 </wgt>
<wgt id='1588'> +1.3492832e-12 </wgt>
<wgt id='1589'> +1.3431678e-12 </wgt>
<wgt id='1590'> +1.3441589e-12 </wgt>
<wgt id='1591'> +1.3430084e-12 </wgt>
<wgt id='1592'> +1.3445233e-12 </wgt>
<wgt id='1593'> +1.3435898e-12 </wgt>
<wgt id='1594'> +1.3455218e-12 </wgt>
<wgt id='1595'> +1.3456175e-12 </wgt>
<wgt id='1596'> +1.3455923e-12 </wgt>
<wgt id='1597'> +1.3464237e-12 </wgt>
<wgt id='1598'> +1.3443447e-12 </wgt>
<wgt id='1599'> +1.3443982e-12 </wgt>
<wgt id='1600'> +1.3462501e-12 </wgt>
<wgt id='1601'> +1.3477413e-12 </wgt>
<wgt id='1602'> +1.3442979e-12 </wgt>
<wgt id='1603'> +1.3462189e-12 </wgt>
<wgt id='1604'> +1.3453610e-12 </wgt>
<wgt id='1605'> +1.3461785e-12 </wgt>
<wgt id='1606'> +1.3457060e-12 </wgt>
<wgt id='1607'> +1.3440336e-12 </wgt>
<wgt id='1608'> +1.3449626e-12 </wgt>
<wgt id='1609'> +1.3455115e-12 </wgt>
<wgt id='1610'> +1.3340332e-12 </wgt>
<wgt id='1611'> +1.3514088e-12 </wgt>
<wgt id='1612'> +1.5508199e-12 </wgt>
<wgt id='1613'> +1.5339041e-12 </wgt>
<wgt id='1614'> +1.4961200e-12 </wgt>
<wgt id='1615'> +1.5209994e-12 </wgt>
<wgt id='1616'> +1.4927191e-12 </wgt>
<wgt id='1617'> +1.5280833e-12 </wgt>
<wgt id='1618'> +1.5168380e-12 </wgt>
<wgt id='1619'> +1.5452708e-12 </wgt>
<wgt id='1620'> +1.5331516e-12 </wgt>
<wgt id='1621'> +1.6177403e-12 </wgt>
<wgt id='1622'> +1.5458355e-12 </wgt>
<wgt id='1623'> +1.5915351e-12 </wgt>
<wgt id='1624'> +1.6025897e-12 </wgt>
<wgt id='1625'> +1.5074275e-12 </wgt>
<wgt id='1626'> +1.5316160e-12 </wgt>
<wgt id='1627'> +1.5388215e-12 </wgt>
<wgt id='1628'> +1.4321896e-12 </wgt>
<wgt id='1629'> +1.5547072e-12 </wgt>
<wgt id='1630'> +1.5181419e-12 </wgt>
<wgt id='1631'> +1.5719836e-12 </wgt>
<wgt id='1632'> +1.4908660e-12 </wgt>
<wgt id='1633'> +1.5144997e-12 </wgt>
<wgt id='1634'> +1.5177500e-12 </wgt>
<wgt id='1635'> +1.5721773e-12 </wgt>
<wgt id='1636'> +1.5723605e-12 </wgt>
<wgt id='1637'> +1.5878067e-12 </wgt>
<wgt id='1638'> +1.5469821e-12 </wgt>
<wgt id='1639'> +1.5597992e-12 </wgt>
<wgt id='1640'> +1.5118897e-12 </wgt>
<wgt id='1641'> +1.5675422e-12 </wgt>
<wgt id='1642'> +1.4699041e-12 </wgt>
<wgt id='1643'> +1.4857432e-12 </wgt>
<wgt id='1644'> +1.6015988e-12 </wgt>
<wgt id='1645'> +1.5215505e-12 </wgt>
<wgt id='1646'> +1.5850196e-12 </wgt>
<wgt id='1647'> +1.5767319e-12 </wgt>
<wgt id='1648'> +1.5398867e-12 </wgt>
<wgt id='1649'> +1.6224709e-12 </wgt>
<wgt id='1650'> +1.5906421e-12 </wgt>
<wgt id='1651'> +1.6365736e-12 </wgt>
<wgt id='1652'> +1.5372206e-12 </wgt>
<wgt id='1653'> +1.5652280e-12 </wgt>
<wgt id='1654'> +1.6228819e-12 </wgt>
<wgt id='1655'> +1.6321897e-12 </wgt>
<wgt id='1656'> +1.5332423e-12 </wgt>
<wgt id='1657'> +1.6158275e-12 </wgt>
<wgt id='1658'> +1.5283009e-12 </wgt>
<wgt id='1659'> +1.6025897e-12 </wgt>
<wgt id='1660'> +1.5354703e-12 </wgt>
<wgt id='1661'> +1.6134346e-12 </wgt>
<wgt id='1662'> +1.5877349e-12 </wgt>
<wgt id='1663'> +1.5423325e-12 </wgt>
<wgt id='1664'> +1.5977983e-12 </wgt>
<wgt id='1665'> +1.4416356e-12 </wgt>
<wgt id='1666'> +1.5581046e-12 </wgt>
<wgt id='1667'> +1.5907087e-12 </wgt>
<wgt id='1668'> +1.5992318e-12 </wgt>
<wgt id='1669'> +1.6310416e-12 </wgt>
<wgt id='1670'> +1.5211306e-12 </wgt>
<wgt id='1671'> +1.4684499e-12 </wgt>
<wgt id='1672'> +1.5507368e-12 </wgt>
<wgt id='1673'> +1.6077550e-12 </wgt>
<wgt id='1674'> +1.5434628e-12 </wgt>
<wgt id='1675'> +1.5141086e-12 </wgt>
<wgt id='1676'> +1.5167101e-12 </wgt>
<wgt id='1677'> +1.4705129e-12 </wgt>
<wgt id='1678'> +1.5323451e-12 </wgt>
<wgt id='1679'> +1.6040649e-12 </wgt>
<wgt id='1680'> +1.6120490e-12 </wgt>
<wgt id='1681'> +1.5657521e-12 </wgt>
<wgt id='1682'> +1.5169226e-12 </wgt>
<wgt id='1683'> +1.5844775e-12 </wgt>
<wgt id='1684'> +1.5789432e-12 </wgt>
<wgt id='1685'> +1.5807589e-12 </wgt>
<wgt id='1686'> +1.5254470e-12 </wgt>
<wgt id='1687'> +1.5365615e-12 </wgt>
<wgt id='1688'> +1.4341236e-12 </wgt>
<wgt id='1689'> +1.5562167e-12 </wgt>
<wgt id='1690'> +1.5731180e-12 </wgt>
<wgt id='1691'> +1.4611822e-12 </wgt>
<wgt id='1692'> +1.5035928e-12 </wgt>
<wgt id='1693'> +1.5186521e-12 </wgt>
<wgt id='1694'> +1.5099804e-12 </wgt>
<wgt id='1695'> +1.5376261e-12 </wgt>
<wgt id='1696'> +1.5531569e-12 </wgt>
<wgt id='1697'> +1.5746153e-12 </wgt>
<wgt id='1698'> +1.5327418e-12 </wgt>
<wgt id='1699'> +1.5902875e-12 </wgt>
<wgt id='1700'> +1.5183551e-12 </wgt>
<wgt id='1701'> +1.6269346e-12 </wgt>
<wgt id='1702'> +1.5442410e-12 </wgt>
<wgt id='1703'> +1.5099952e-12 </wgt>
<wgt id='1704'> +1.5308789e-12 </wgt>
<wgt id='1705'> +1.4662171e-12 </wgt>
<wgt id='1706'> +1.5903274e-12 </wgt>
<wgt id='1707'> +1.5660260e-12 </wgt>
<wgt id='1708'> +1.6458355e-12 </wgt>
<wgt id='1709'> +1.6149037e-12 </wgt>
<wgt id='1710'> +1.5671735e-12 </wgt>
<wgt id='1711'> +1.5147199e-12 </wgt>
<wgt id='1712'> +1.6137281e-12 </wgt>
<wgt id='1713'> +1.3713956e-12 </wgt>
<wgt id='1714'> +1.3488980e-12 </wgt>
<wgt id='1715'> +1.3467085e-12 </wgt>
<wgt id='1716'> +1.3972786e-12 </wgt>
<wgt id='1717'> +1.4032065e-12 </wgt>
<wgt id='1718'> +1.3822467e-12 </wgt>
<wgt id='1719'> +1.3713845e-12 </wgt>
<wgt id='1720'> +1.3313023e-12 </wgt>
<wgt id='1721'> +1.4218811e-12 </wgt>
<wgt id='1722'> +1.3623304e-12 </wgt>
<wgt id='1723'> +1.4712986e-12 </wgt>
<wgt id='1724'> +1.3591626e-12 </wgt>
<wgt id='1725'> +1.3624289e-12 </wgt>
<wgt id='1726'> +1.2848217e-12 </wgt>
<wgt id='1727'> +1.4125922e-12 </wgt>
<wgt id='1728'> +1.3564875e-12 </wgt>
<wgt id='1729'> +1.3551062e-12 </wgt>
<wgt id='1730'> +1.3143059e-12 </wgt>
<wgt id='1731'> +1.2333879e-12 </wgt>
<wgt id='1732'> +1.3911847e-12 </wgt>
<wgt id='1733'> +1.3822567e-12 </wgt>
<wgt id='1734'> +1.4454428e-12 </wgt>
<wgt id='1735'> +1.3873260e-12 </wgt>
<wgt id='1736'> +1.3993272e-12 </wgt>
<wgt id='1737'> +1.4003340e-12 </wgt>
<wgt id='1738'> +1.3307151e-12 </wgt>
<wgt id='1739'> +1.3425622e-12 </wgt>
<wgt id='1740'> +1.2827579e-12 </wgt>
<wgt id='1741'> +1.3783815e-12 </wgt>
<wgt id='1742'> +1.3620497e-12 </wgt>
<wgt id='1743'> +1.3540287e-12 </wgt>
<wgt id='1744'> +1.4163087e-12 </wgt>
<wgt id='1745'> +1.3997171e-12 </wgt>
<wgt id='1746'> +1.3909787e-12 </wgt>
<wgt id='1747'> +1.4234171e-12 </wgt>
<wgt id='1748'> +1.4068997e-12 </wgt>
<wgt id='1749'> +1.3692966e-12 </wgt>
<wgt id='1750'> +1.3404663e-12 </wgt>
<wgt id='1751'> +1.3583069e-12 </wgt>
<wgt id='1752'> +1.3757233e-12 </wgt>
<wgt id='1753'> +1.4035394e-12 </wgt>
<wgt id='1754'> +1.3805539e-12 </wgt>
<wgt id='1755'> +1.3759834e-12 </wgt>
<wgt id='1756'> +1.3961704e-12 </wgt>
<wgt id='1757'> +1.4073994e-12 </wgt>
<wgt id='1758'> +1.4513910e-12 </wgt>
<wgt id='1759'> +1.3525956e-12 </wgt>
<wgt id='1760'> +1.3998744e-12 </wgt>
<wgt id='1761'> +1.3729748e-12 </wgt>
<wgt id='1762'> +1.3746267e-12 </wgt>
<wgt id='1763'> +1.3864256e-12 </wgt>
<wgt id='1764'> +1.4266259e-12 </wgt>
<wgt id='1765'> +1.3545901e-12 </wgt>
<wgt id='1766'> +1.3947385e-12 </wgt>
<wgt id='1767'> +1.3435618e-12 </wgt>
<wgt id='1768'> +1.3741786e-12 </wgt>
<wgt id='1769'> +1.3124438e-12 </wgt>
<wgt id='1770'> +1.3042833e-12 </wgt>
<wgt id='1771'> +1.3920539e-12 </wgt>
<wgt id='1772'> +1.3852278e-12 </wgt>
<wgt id='1773'> +1.4109014e-12 </wgt>
<wgt id='1774'> +1.2736166e-12 </wgt>
<wgt id='1775'> +1.3728606e-12 </wgt>
<wgt id='1776'> +1.3663407e-12 </wgt>
<wgt id='1777'> +1.2413829e-12 </wgt>
<wgt id='1778'> +1.3908331e-12 </wgt>
<wgt id='1779'> +1.3203649e-12 </wgt>
<wgt id='1780'> +1.4886708e-12 </wgt>
<wgt id='1781'> +1.3642193e-12 </wgt>
<wgt id='1782'> +1.4109882e-12 </wgt>
<wgt id='1783'> +1.3758233e-12 </wgt>
<wgt id='1784'> +1.3462348e-12 </wgt>
<wgt id='1785'> +1.3848236e-12 </wgt>
<wgt id='1786'> +1.3806570e-12 </wgt>
<wgt id='1787'> +1.4590021e-12 </wgt>
<wgt id='1788'> +1.3492294e-12 </wgt>
<wgt id='1789'> +1.4989616e-12 </wgt>
<wgt id='1790'> +1.3718629e-12 </wgt>
<wgt id='1791'> +1.3825398e-12 </wgt>
<wgt id='1792'> +1.3424360e-12 </wgt>
<wgt id='1793'> +1.3639639e-12 </wgt>
<wgt id='1794'> +1.4175024e-12 </wgt>
<wgt id='1795'> +1.4151912e-12 </wgt>
<wgt id='1796'> +1.3703143e-12 </wgt>
<wgt id='1797'> +1.3821133e-12 </wgt>
<wgt id='1798'> +1.3422387e-12 </wgt>
<wgt id='1799'> +1.3838162e-12 </wgt>
<wgt id='1800'> +1.3724724e-12 </wgt>
<wgt id='1801'> +1.3353874e-12 </wgt>
<wgt id='1802'> +1.2901372e-12 </wgt>
<wgt id='1803'> +1.4012364e-12 </wgt>
<wgt id='1804'> +1.4485236e-12 </wgt>
<wgt id='1805'> +1.3844593e-12 </wgt>
<wgt id='1806'> +1.3328125e-12 </wgt>
<wgt id='1807'> +1.3788152e-12 </wgt>
<wgt id='1808'> +1.3278580e-12 </wgt>
<wgt id='1809'> +1.3804345e-12 </wgt>
<wgt id='1810'> +1.3065265e-12 </wgt>
<wgt id='1811'> +1.3555772e-12 </wgt>
<wgt id='1812'> +1.3212960e-12 </wgt>
<wgt id='1813'> +1.2589514e-12 </wgt>
<wgt id='1814'> +1.7911594e-12 </wgt>
<wgt id='1815'> +2.2064176e-12 </wgt>
<wgt id='1816'> +1.3713956e-12 </wgt>
<wgt id='1817'> +1.3488980e-12 </wgt>
<wgt id='1818'> +1.3467085e-12 </wgt>
<wgt id='1819'> +1.3972786e-12 </wgt>
<wgt id='1820'> +1.4032065e-12 </wgt>
<wgt id='1821'> +1.3822467e-12 </wgt>
<wgt id='1822'> +1.3713845e-12 </wgt>
<wgt id='1823'> +1.3313023e-12 </wgt>
<wgt id='1824'> +1.4218811e-12 </wgt>
<wgt id='1825'> +1.3623304e-12 </wgt>
<wgt id='1826'> +1.4712986e-12 </wgt>
<wgt id='1827'> +1.3591626e-12 </wgt>
<wgt id='1828'> +1.3624289e-12 </wgt>
<wgt id='1829'> +1.2848217e-12 </wgt>
<wgt id='1830'> +1.4125922e-12 </wgt>
<wgt id='1831'> +1.3564875e-12 </wgt>
<wgt id='1832'> +1.3551062e-12 </wgt>
<wgt id='1833'> +1.3143059e-12 </wgt>
<wgt id='1834'> +1.2333879e-12 </wgt>
<wgt id='1835'> +1.3911847e-12 </wgt>
<wgt id='1836'> +1.3822567e-12 </wgt>
<wgt id='1837'> +1.4454428e-12 </wgt>
<wgt id='1838'> +1.3873260e-12 </wgt>
<wgt id='1839'> +1.3993272e-12 </wgt>
<wgt id='1840'> +1.4003340e-12 </wgt>
<wgt id='1841'> +1.3307151e-12 </wgt>
<wgt id='1842'> +1.3425622e-12 </wgt>
<wgt id='1843'> +1.2827579e-12 </wgt>
<wgt id='1844'> +1.3783815e-12 </wgt>
<wgt id='1845'> +1.3620497e-12 </wgt>
<wgt id='1846'> +1.3540287e-12 </wgt>
<wgt id='1847'> +1.4163087e-12 </wgt>
<wgt id='1848'> +1.3997171e-12 </wgt>
<wgt id='1849'> +1.3909787e-12 </wgt>
<wgt id='1850'> +1.4234171e-12 </wgt>
<wgt id='1851'> +1.4068997e-12 </wgt>
<wgt id='1852'> +1.3692966e-12 </wgt>
<wgt id='1853'> +1.3404663e-12 </wgt>
<wgt id='1854'> +1.3583069e-12 </wgt>
<wgt id='1855'> +1.3757233e-12 </wgt>
<wgt id='1856'> +1.4035394e-12 </wgt>
<wgt id='1857'> +1.3805539e-12 </wgt>
<wgt id='1858'> +1.3759834e-12 </wgt>
<wgt id='1859'> +1.3961704e-12 </wgt>
<wgt id='1860'> +1.4073994e-12 </wgt>
<wgt id='1861'> +1.4513910e-12 </wgt>
<wgt id='1862'> +1.3525956e-12 </wgt>
<wgt id='1863'> +1.3998744e-12 </wgt>
<wgt id='1864'> +1.3729748e-12 </wgt>
<wgt id='1865'> +1.3746267e-12 </wgt>
<wgt id='1866'> +1.3864256e-12 </wgt>
<wgt id='1867'> +1.4266259e-12 </wgt>
<wgt id='1868'> +1.3545901e-12 </wgt>
<wgt id='1869'> +1.3947385e-12 </wgt>
<wgt id='1870'> +1.3435618e-12 </wgt>
<wgt id='1871'> +1.3741786e-12 </wgt>
<wgt id='1872'> +1.3124438e-12 </wgt>
<wgt id='1873'> +1.3042833e-12 </wgt>
<wgt id='1874'> +1.3920539e-12 </wgt>
<wgt id='1875'> +1.3852278e-12 </wgt>
<wgt id='1876'> +1.4109014e-12 </wgt>
<wgt id='1877'> +1.2736166e-12 </wgt>
<wgt id='1878'> +1.3728606e-12 </wgt>
<wgt id='1879'> +1.3663407e-12 </wgt>
<wgt id='1880'> +1.2413829e-12 </wgt>
<wgt id='1881'> +1.3908331e-12 </wgt>
<wgt id='1882'> +1.3203649e-12 </wgt>
<wgt id='1883'> +1.4886708e-12 </wgt>
<wgt id='1884'> +1.3642193e-12 </wgt>
<wgt id='1885'> +1.4109882e-12 </wgt>
<wgt id='1886'> +1.3758233e-12 </wgt>
<wgt id='1887'> +1.3462348e-12 </wgt>
<wgt id='1888'> +1.3848236e-12 </wgt>
<wgt id='1889'> +1.3806570e-12 </wgt>
<wgt id='1890'> +1.4590021e-12 </wgt>
<wgt id='1891'> +1.3492294e-12 </wgt>
<wgt id='1892'> +1.4989616e-12 </wgt>
<wgt id='1893'> +1.3718629e-12 </wgt>
<wgt id='1894'> +1.3825398e-12 </wgt>
<wgt id='1895'> +1.3424360e-12 </wgt>
<wgt id='1896'> +1.3639639e-12 </wgt>
<wgt id='1897'> +1.4175024e-12 </wgt>
<wgt id='1898'> +1.4151912e-12 </wgt>
<wgt id='1899'> +1.3703143e-12 </wgt>
<wgt id='1900'> +1.3821133e-12 </wgt>
<wgt id='1901'> +1.3422387e-12 </wgt>
<wgt id='1902'> +1.3838162e-12 </wgt>
<wgt id='1903'> +1.3724724e-12 </wgt>
<wgt id='1904'> +1.3353874e-12 </wgt>
<wgt id='1905'> +1.2901372e-12 </wgt>
<wgt id='1906'> +1.4012364e-12 </wgt>
<wgt id='1907'> +1.4485236e-12 </wgt>
<wgt id='1908'> +1.3844593e-12 </wgt>
<wgt id='1909'> +1.3328125e-12 </wgt>
<wgt id='1910'> +1.3788152e-12 </wgt>
<wgt id='1911'> +1.3278580e-12 </wgt>
<wgt id='1912'> +1.3804345e-12 </wgt>
<wgt id='1913'> +1.3065265e-12 </wgt>
<wgt id='1914'> +1.3555772e-12 </wgt>
<wgt id='1915'> +1.3212960e-12 </wgt>
<wgt id='1916'> +1.2589514e-12 </wgt>
<wgt id='1917'> +1.3639877e-12 </wgt>
<wgt id='1918'> +1.3847505e-12 </wgt>
<wgt id='1919'> +1.3218124e-12 </wgt>
</rwgt>
</event>
<event>
 9      1 +1.5538000e-12 8.99475600e+01 7.81860800e-03 1.18271900e-01
       21 -1    0    0  501  502 +0.0000000000e+00 +0.0000000000e+00 +1.9825756539e+01 1.9825756539e+01 0.0000000000e+00 0.0000e+00 -1.0000e+00
       -2 -1    0    0    0  501 -0.0000000000e+00 -0.0000000000e+00 -1.0202087334e+02 1.0202087334e+02 0.0000000000e+00 0.0000e+00 1.0000e+00
     1023  2    1    2    0    0 -2.3586069950e+01 +9.4203941119e+00 +5.9713621965e+00 3.0094929406e+01 1.5000036284e+01 0.0000e+00 0.0000e+00
  1000023  2    3    3    0    0 -1.5428799148e+01 +4.7197217198e-01 +3.6868354040e+00 1.6797020366e+01 5.5024119264e+00 0.0000e+00 0.0000e+00
       -2  1    1    2    0  502 +2.3586069950e+01 -9.4203941119e+00 -8.8166479000e+01 9.1751700476e+01 0.0000000000e+00 0.0000e+00 1.0000e+00
  1000022  1    4    4    0    0 -1.4049226315e+01 +6.9913363647e-01 +3.2483821958e+00 1.5278139113e+01 5.0000000000e+00 0.0000e+00 -1.0000e+00
      -13  1    4    4    0    0 -5.0338581358e-01 +4.8731948247e-03 +3.0120286612e-01 5.9608445870e-01 1.0570000000e-01 0.0000e+00 1.0000e+00
       13  1    4    4    0    0 -8.7618701959e-01 -2.3203465932e-01 +1.3725034210e-01 9.2279679390e-01 1.0570000000e-01 0.0000e+00 -1.0000e+00
  1000022  1    3    3    0    0 -8.1572708025e+00 +8.9484219399e+00 +2.2845267925e+00 1.3297909040e+01 5.0000000000e+00 0.0000e+00 -1.0000e+00
<mgrwt>
<rscale>  1 0.89947562E+02</rscale>
<asrwt>0</asrwt>
<pdfrwt beam="1">  1       21 0.30501163E-02 0.89947562E+02</pdfrwt>
<pdfrwt beam="2">  1       -2 0.15695520E-01 0.89947562E+02</pdfrwt>
<totfact> 0.17400073E+06</totfact>
</mgrwt>
<rwgt>
<wgt id='1001'> +1.5538000e-12 </wgt>
<wgt id='1002'> +1.5566015e-12 </wgt>
<wgt id='1003'> +1.5566157e-12 </wgt>
<wgt id='1004'> +1.5299735e-12 </wgt>
<wgt id='1005'> +1.5538000e-12 </wgt>
<wgt id='1006'> +1.3933922e-12 </wgt>
<wgt id='1007'> +1.3822388e-12 </wgt>
<wgt id='1008'> +1.3822941e-12 </wgt>
<wgt id='1009'> +1.3354013e-12 </wgt>
<wgt id='1010'> +1.3933922e-12 </wgt>
<wgt id='1011'> +1.7575894e-12 </wgt>
<wgt id='1012'> +1.7834764e-12 </wgt>
<wgt id='1013'> +1.7834196e-12 </wgt>
<wgt id='1014'> +1.7942957e-12 </wgt>
<wgt id='1015'> +1.7575894e-12 </wgt>
<wgt id='1016'> +1.7070560e-12 </wgt>
<wgt id='1017'> +1.7445269e-12 </wgt>
<wgt id='1018'> +1.7444280e-12 </wgt>
<wgt id='1019'> +1.7834196e-12 </wgt>
<wgt id='1020'> +1.7070560e-12 </wgt>
<wgt id='1021'> +1.5308267e-12 </wgt>
<wgt id='1022'> +1.5491137e-12 </wgt>
<wgt id='1023'> +1.5490738e-12 </wgt>
<wgt id='1024'> +1.5566157e-12 </wgt>
<wgt id='1025'> +1.5308267e-12 </wgt>
<wgt id='1026'> +1.9309458e-12 </wgt>
<wgt id='1027'> +1.9987919e-12 </wgt>
<wgt id='1028'> +1.9985968e-12 </wgt>
<wgt id='1029'> +2.0915278e-12 </wgt>
<wgt id='1030'> +1.9309458e-12 </wgt>
<wgt id='1031'> +1.3731600e-12 </wgt>
<wgt id='1032'> +1.3352549e-12 </wgt>
<wgt id='1033'> +1.3354013e-12 </wgt>
<wgt id='1034'> +1.2345104e-12 </wgt>
<wgt id='1035'> +1.3731600e-12 </wgt>
<wgt id='1036'> +1.2314007e-12 </wgt>
<wgt id='1037'> +1.1856864e-12 </wgt>
<wgt id='1038'> +1.1858529e-12 </wgt>
<wgt id='1039'> +1.0775132e-12 </wgt>
<wgt id='1040'> +1.2314007e-12 </wgt>
<wgt id='1041'> +1.5532575e-12 </wgt>
<wgt id='1042'> +1.5298684e-12 </wgt>
<wgt id='1043'> +1.5299735e-12 </wgt>
<wgt id='1044'> +1.4477876e-12 </wgt>
<wgt id='1045'> +1.5532575e-12 </wgt>
<wgt id='1046'> +1.5538000e-12 </wgt>
<wgt id='1047'> +1.6801998e-12 </wgt>
<wgt id='1048'> +1.5678488e-12 </wgt>
<wgt id='1049'> +1.5472331e-12 </wgt>
<wgt id='1050'> +1.5540782e-12 </wgt>
<wgt id='1051'> +1.5055440e-12 </wgt>
<wgt id='1052'> +1.5940704e-12 </wgt>
<wgt id='1053'> +1.5564532e-12 </wgt>
<wgt id='1054'> +1.5098203e-12 </wgt>
<wgt id='1055'> +1.5086226e-12 </wgt>
<wgt id='1056'> +1.5185328e-12 </wgt>
<wgt id='1057'> +1.5635696e-12 </wgt>
<wgt id='1058'> +1.4991216e-12 </wgt>
<wgt id='1059'> +1.5359983e-12 </wgt>
<wgt id='1060'> +1.5545829e-12 </wgt>
<wgt id='1061'> +1.5682074e-12 </wgt>
<wgt id='1062'> +1.5643187e-12 </wgt>
<wgt id='1063'> +1.5779160e-12 </wgt>
<wgt id='1064'> +1.5162971e-12 </wgt>
<wgt id='1065'> +1.5555608e-12 </wgt>
<wgt id='1066'> +1.4865408e-12 </wgt>
<wgt id='1067'> +1.5334108e-12 </wgt>
<wgt id='1068'> +1.6011964e-12 </wgt>
<wgt id='1069'> +1.5692890e-12 </wgt>
<wgt id='1070'> +1.5174700e-12 </wgt>
<wgt id='1071'> +1.5394032e-12 </wgt>
<wgt id='1072'> +1.6132722e-12 </wgt>
<wgt id='1073'> +1.5938639e-12 </wgt>
<wgt id='1074'> +1.5221728e-12 </wgt>
<wgt id='1075'> +1.5561899e-12 </wgt>
<wgt id='1076'> +1.5736595e-12 </wgt>
<wgt id='1077'> +1.6052113e-12 </wgt>
<wgt id='1078'> +1.5393081e-12 </wgt>
<wgt id='1079'> +1.5850780e-12 </wgt>
<wgt id='1080'> +1.4908746e-12 </wgt>
<wgt id='1081'> +1.5801668e-12 </wgt>
<wgt id='1082'> +1.5788977e-12 </wgt>
<wgt id='1083'> +1.5600427e-12 </wgt>
<wgt id='1084'> +1.5391972e-12 </wgt>
<wgt id='1085'> +1.5341148e-12 </wgt>
<wgt id='1086'> +1.5936052e-12 </wgt>
<wgt id='1087'> +1.5688385e-12 </wgt>
<wgt id='1088'> +1.5538125e-12 </wgt>
<wgt id='1089'> +1.5763025e-12 </wgt>
<wgt id='1090'> +1.5653928e-12 </wgt>
<wgt id='1091'> +1.5721527e-12 </wgt>
<wgt id='1092'> +1.5984935e-12 </wgt>
<wgt id='1093'> +1.5562282e-12 </wgt>
<wgt id='1094'> +1.5297249e-12 </wgt>
<wgt id='1095'> +1.5695869e-12 </wgt>
<wgt id='1096'> +1.5401291e-12 </wgt>
<wgt id='1097'> +1.5058038e-12 </wgt>
<wgt id='1098'> +1.5350061e-12 </wgt>
<wgt id='1099'> +1.5335981e-12 </wgt>
<wgt id='1100'> +1.5707472e-12 </wgt>
<wgt id='1101'> +1.5976947e-12 </wgt>
<wgt id='1102'> +1.5545779e-12 </wgt>
<wgt id='1103'> +1.5891973e-12 </wgt>
<wgt id='1104'> +1.5499271e-12 </wgt>
<wgt id='1105'> +1.5601483e-12 </wgt>
<wgt id='1106'> +1.5959231e-12 </wgt>
<wgt id='1107'> +1.5804148e-12 </wgt>
<wgt id='1108'> +1.5360759e-12 </wgt>
<wgt id='1109'> +1.5463708e-12 </wgt>
<wgt id='1110'> +1.4992126e-12 </wgt>
<wgt id='1111'> +1.5896742e-12 </wgt>
<wgt id='1112'> +1.5812550e-12 </wgt>
<wgt id='1113'> +1.5476617e-12 </wgt>
<wgt id='1114'> +1.5917380e-12 </wgt>
<wgt id='1115'> +1.5614715e-12 </wgt>
<wgt id='1116'> +1.5237320e-12 </wgt>
<wgt id='1117'> +1.5313897e-12 </wgt>
<wgt id='1118'> +1.5426861e-12 </wgt>
<wgt id='1119'> +1.4952112e-12 </wgt>
<wgt id='1120'> +1.5097963e-12 </wgt>
<wgt id='1121'> +1.5175911e-12 </wgt>
<wgt id='1122'> +1.6216448e-12 </wgt>
<wgt id='1123'> +1.5247741e-12 </wgt>
<wgt id='1124'> +1.5452941e-12 </wgt>
<wgt id='1125'> +1.5444317e-12 </wgt>
<wgt id='1126'> +1.5487325e-12 </wgt>
<wgt id='1127'> +1.5513639e-12 </wgt>
<wgt id='1128'> +1.5643187e-12 </wgt>
<wgt id='1129'> +1.5541654e-12 </wgt>
<wgt id='1130'> +1.5326823e-12 </wgt>
<wgt id='1131'> +1.5671643e-12 </wgt>
<wgt id='1132'> +1.5735652e-12 </wgt>
<wgt id='1133'> +1.5048842e-12 </wgt>
<wgt id='1134'> +1.5790103e-12 </wgt>
<wgt id='1135'> +1.4942669e-12 </wgt>
<wgt id='1136'> +1.5208995e-12 </wgt>
<wgt id='1137'> +1.5494994e-12 </wgt>
<wgt id='1138'> +1.5045256e-12 </wgt>
<wgt id='1139'> +1.5345782e-12 </wgt>
<wgt id='1140'> +1.5324724e-12 </wgt>
<wgt id='1141'> +1.5598160e-12 </wgt>
<wgt id='1142'> +1.5633673e-12 </wgt>
<wgt id='1143'> +1.5871394e-12 </wgt>
<wgt id='1144'> +1.5839694e-12 </wgt>
<wgt id='1145'> +1.5891183e-12 </wgt>
<wgt id='1146'> +1.5718726e-12 </wgt>
<wgt id='1147'> +1.2520066e-12 </wgt>
<wgt id='1148'> +1.2741514e-12 </wgt>
<wgt id='1149'> +1.2963827e-12 </wgt>
<wgt id='1150'> +1.2931695e-12 </wgt>
<wgt id='1151'> +1.2662026e-12 </wgt>
<wgt id='1152'> +1.5735512e-12 </wgt>
<wgt id='1153'> +1.5654327e-12 </wgt>
<wgt id='1154'> +1.5782218e-12 </wgt>
<wgt id='1155'> +1.5709691e-12 </wgt>
<wgt id='1156'> +1.5748157e-12 </wgt>
<wgt id='1157'> +1.5781092e-12 </wgt>
<wgt id='1158'> +1.5674018e-12 </wgt>
<wgt id='1159'> +1.5774292e-12 </wgt>
<wgt id='1160'> +1.5710474e-12 </wgt>
<wgt id='1161'> +1.5718645e-12 </wgt>
<wgt id='1162'> +1.5746477e-12 </wgt>
<wgt id='1163'> +1.5773354e-12 </wgt>
<wgt id='1164'> +1.5697780e-12 </wgt>
<wgt id='1165'> +1.5673421e-12 </wgt>
<wgt id='1166'> +1.5794474e-12 </wgt>
<wgt id='1167'> +1.5736494e-12 </wgt>
<wgt id='1168'> +1.5710857e-12 </wgt>
<wgt id='1169'> +1.5742849e-12 </wgt>
<wgt id='1170'> +1.5728739e-12 </wgt>
<wgt id='1171'> +1.5666261e-12 </wgt>
<wgt id='1172'> +1.5817432e-12 </wgt>
<wgt id='1173'> +1.5625899e-12 </wgt>
<wgt id='1174'> +1.5832984e-12 </wgt>
<wgt id='1175'> +1.5741458e-12 </wgt>
<wgt id='1176'> +1.5719803e-12 </wgt>
<wgt id='1177'> +1.5753741e-12 </wgt>
<wgt id='1178'> +1.5682462e-12 </wgt>
<wgt id='1179'> +1.5801569e-12 </wgt>
<wgt id='1180'> +1.5597781e-12 </wgt>
<wgt id='1181'> +1.5675593e-12 </wgt>
<wgt id='1182'> +1.5791763e-12 </wgt>
<wgt id='1183'> +1.5722985e-12 </wgt>
<wgt id='1184'> +1.5736159e-12 </wgt>
<wgt id='1185'> +1.5679907e-12 </wgt>
<wgt id='1186'> +1.5772686e-12 </wgt>
<wgt id='1187'> +1.5733607e-12 </wgt>
<wgt id='1188'> +1.5735793e-12 </wgt>
<wgt id='1189'> +1.5726222e-12 </wgt>
<wgt id='1190'> +1.5620595e-12 </wgt>
<wgt id='1191'> +1.5630225e-12 </wgt>
<wgt id='1192'> +1.5765113e-12 </wgt>
<wgt id='1193'> +1.3249056e-12 </wgt>
<wgt id='1194'> +1.3258667e-12 </wgt>
<wgt id='1195'> +1.3241563e-12 </wgt>
<wgt id='1196'> +1.3330995e-12 </wgt>
<wgt id='1197'> +1.3158641e-12 </wgt>
<wgt id='1198'> +1.3236917e-12 </wgt>
<wgt id='1199'> +1.3268040e-12 </wgt>
<wgt id='1200'> +1.3254716e-12 </wgt>
<wgt id='1201'> +1.3245920e-12 </wgt>
<wgt id='1202'> +1.3241081e-12 </wgt>
<wgt id='1203'> +1.3260816e-12 </wgt>
<wgt id='1204'> +1.3199908e-12 </wgt>
<wgt id='1205'> +1.3279767e-12 </wgt>
<wgt id='1206'> +1.3282641e-12 </wgt>
<wgt id='1207'> +1.3204012e-12 </wgt>
<wgt id='1208'> +1.3173173e-12 </wgt>
<wgt id='1209'> +1.3277209e-12 </wgt>
<wgt id='1210'> +1.3310429e-12 </wgt>
<wgt id='1211'> +1.3116557e-12 </wgt>
<wgt id='1212'> +1.3251782e-12 </wgt>
<wgt id='1213'> +1.3246970e-12 </wgt>
<wgt id='1214'> +1.3101269e-12 </wgt>
<wgt id='1215'> +1.3499086e-12 </wgt>
<wgt id='1216'> +1.3280051e-12 </wgt>
<wgt id='1217'> +1.3222920e-12 </wgt>
<wgt id='1218'> +1.3294801e-12 </wgt>
<wgt id='1219'> +1.3225733e-12 </wgt>
<wgt id='1220'> +1.3298223e-12 </wgt>
<wgt id='1221'> +1.3226583e-12 </wgt>
<wgt id='1222'> +1.3263488e-12 </wgt>
<wgt id='1223'> +1.3196214e-12 </wgt>
<wgt id='1224'> +1.3262370e-12 </wgt>
<wgt id='1225'> +1.3244572e-12 </wgt>
<wgt id='1226'> +1.3210977e-12 </wgt>
<wgt id='1227'> +1.3275984e-12 </wgt>
<wgt id='1228'> +1.3271288e-12 </wgt>
<wgt id='1229'> +1.3229328e-12 </wgt>
<wgt id='1230'> +1.3226952e-12 </wgt>
<wgt id='1231'> +1.3145340e-12 </wgt>
<wgt id='1232'> +1.3273174e-12 </wgt>
<wgt id='1233'> +1.3242552e-12 </wgt>
<wgt id='1234'> +1.3249056e-12 </wgt>
<wgt id='1235'> +1.3176648e-12 </wgt>
<wgt id='1236'> +1.3204681e-12 </wgt>
<wgt id='1237'> +1.3228643e-12 </wgt>
<wgt id='1238'> +1.3271365e-12 </wgt>
<wgt id='1239'> +1.3288411e-12 </wgt>
<wgt id='1240'> +1.3304521e-12 </wgt>
<wgt id='1241'> +1.3040021e-12 </wgt>
<wgt id='1242'> +1.3016557e-12 </wgt>
<wgt id='1243'> +1.3063892e-12 </wgt>
<wgt id='1244'> +1.2958715e-12 </wgt>
<wgt id='1245'> +1.3100152e-12 </wgt>
<wgt id='1246'> +1.3030083e-12 </wgt>
<wgt id='1247'> +1.3049174e-12 </wgt>
<wgt id='1248'> +1.3039099e-12 </wgt>
<wgt id='1249'> +1.3040739e-12 </wgt>
<wgt id='1250'> +1.3080333e-12 </wgt>
<wgt id='1251'> +1.3011756e-12 </wgt>
<wgt id='1252'> +1.3013135e-12 </wgt>
<wgt id='1253'> +1.3060948e-12 </wgt>
<wgt id='1254'> +1.2981033e-12 </wgt>
<wgt id='1255'> +1.3075225e-12 </wgt>
<wgt id='1256'> +1.3077005e-12 </wgt>
<wgt id='1257'> +1.2948329e-12 </wgt>
<wgt id='1258'> +1.3238667e-12 </wgt>
<wgt id='1259'> +1.2864630e-12 </wgt>
<wgt id='1260'> +1.3072553e-12 </wgt>
<wgt id='1261'> +1.3003430e-12 </wgt>
<wgt id='1262'> +1.3008998e-12 </wgt>
<wgt id='1263'> +1.3048852e-12 </wgt>
<wgt id='1264'> +1.3077759e-12 </wgt>
<wgt id='1265'> +1.3020260e-12 </wgt>
<wgt id='1266'> +1.2957745e-12 </wgt>
<wgt id='1267'> +1.3104696e-12 </wgt>
<wgt id='1268'> +1.3055725e-12 </wgt>
<wgt id='1269'> +1.3047740e-12 </wgt>
<wgt id='1270'> +1.2981354e-12 </wgt>
<wgt id='1271'> +1.2988770e-12 </wgt>
<wgt id='1272'> +1.3023901e-12 </wgt>
<wgt id='1273'> +1.3039464e-12 </wgt>
<wgt id='1274'> +1.3064379e-12 </wgt>
<wgt id='1275'> +1.2995421e-12 </wgt>
<wgt id='1276'> +1.2996785e-12 </wgt>
<wgt id='1277'> +1.3070222e-12 </wgt>
<wgt id='1278'> +1.2999347e-12 </wgt>
<wgt id='1279'> +1.2998181e-12 </wgt>
<wgt id='1280'> +1.3030770e-12 </wgt>
<wgt id='1281'> +1.3075594e-12 </wgt>
<wgt id='1282'> +1.3040021e-12 </wgt>
<wgt id='1283'> +1.2963422e-12 </wgt>
<wgt id='1284'> +1.2992459e-12 </wgt>
<wgt id='1285'> +1.3018304e-12 </wgt>
<wgt id='1286'> +1.3061154e-12 </wgt>
<wgt id='1287'> +1.3078109e-12 </wgt>
<wgt id='1288'> +1.3093323e-12 </wgt>
<wgt id='1289'> +1.3514643e-12 </wgt>
<wgt id='1290'> +1.3474923e-12 </wgt>
<wgt id='1291'> +1.3557424e-12 </wgt>
<wgt id='1292'> +1.3460486e-12 </wgt>
<wgt id='1293'> +1.3553947e-12 </wgt>
<wgt id='1294'> +1.3464438e-12 </wgt>
<wgt id='1295'> +1.3563515e-12 </wgt>
<wgt id='1296'> +1.3488127e-12 </wgt>
<wgt id='1297'> +1.3547102e-12 </wgt>
<wgt id='1298'> +1.3515109e-12 </wgt>
<wgt id='1299'> +1.3514139e-12 </wgt>
<wgt id='1300'> +1.3525492e-12 </wgt>
<wgt id='1301'> +1.3493798e-12 </wgt>
<wgt id='1302'> +1.3492979e-12 </wgt>
<wgt id='1303'> +1.3545049e-12 </wgt>
<wgt id='1304'> +1.3494273e-12 </wgt>
<wgt id='1305'> +1.3529098e-12 </wgt>
<wgt id='1306'> +1.3488108e-12 </wgt>
<wgt id='1307'> +1.3545901e-12 </wgt>
<wgt id='1308'> +1.3479524e-12 </wgt>
<wgt id='1309'> +1.3541775e-12 </wgt>
<wgt id='1310'> +1.3547147e-12 </wgt>
<wgt id='1311'> +1.3481927e-12 </wgt>
<wgt id='1312'> +1.3505350e-12 </wgt>
<wgt id='1313'> +1.3526858e-12 </wgt>
<wgt id='1314'> +1.3522444e-12 </wgt>
<wgt id='1315'> +1.3474303e-12 </wgt>
<wgt id='1316'> +1.3562925e-12 </wgt>
<wgt id='1317'> +1.3515334e-12 </wgt>
<wgt id='1318'> +1.3622851e-12 </wgt>
<wgt id='1319'> +1.3388705e-12 </wgt>
<wgt id='1320'> +1.3691324e-12 </wgt>
<wgt id='1321'> +1.3379342e-12 </wgt>
<wgt id='1322'> +1.3491095e-12 </wgt>
<wgt id='1323'> +1.3542360e-12 </wgt>
<wgt id='1324'> +1.3521011e-12 </wgt>
<wgt id='1325'> +1.3531086e-12 </wgt>
<wgt id='1326'> +1.3500464e-12 </wgt>
<wgt id='1327'> +1.3541542e-12 </wgt>
<wgt id='1328'> +1.3507903e-12 </wgt>
<wgt id='1329'> +1.3519616e-12 </wgt>
<wgt id='1330'> +1.3357570e-12 </wgt>
<wgt id='1331'> +1.3698227e-12 </wgt>
<wgt id='1332'> +1.3718741e-12 </wgt>
<wgt id='1333'> +1.3362362e-12 </wgt>
<wgt id='1334'> +1.3451013e-12 </wgt>
<wgt id='1335'> +1.3686911e-12 </wgt>
<wgt id='1336'> +1.3494305e-12 </wgt>
<wgt id='1337'> +1.3434645e-12 </wgt>
<wgt id='1338'> +1.3474477e-12 </wgt>
<wgt id='1339'> +1.3520322e-12 </wgt>
<wgt id='1340'> +1.3343622e-12 </wgt>
<wgt id='1341'> +1.3305112e-12 </wgt>
<wgt id='1342'> +1.3384491e-12 </wgt>
<wgt id='1343'> +1.3286902e-12 </wgt>
<wgt id='1344'> +1.3381333e-12 </wgt>
<wgt id='1345'> +1.3295643e-12 </wgt>
<wgt id='1346'> +1.3388972e-12 </wgt>
<wgt id='1347'> +1.3318696e-12 </wgt>
<wgt id='1348'> +1.3370787e-12 </wgt>
<wgt id='1349'> +1.3342943e-12 </wgt>
<wgt id='1350'> +1.3343883e-12 </wgt>
<wgt id='1351'> +1.3351802e-12 </wgt>
<wgt id='1352'> +1.3324990e-12 </wgt>
<wgt id='1353'> +1.3315873e-12 </wgt>
<wgt id='1354'> +1.3392709e-12 </wgt>
<wgt id='1355'> +1.3326036e-12 </wgt>
<wgt id='1356'> +1.3352970e-12 </wgt>
<wgt id='1357'> +1.3305307e-12 </wgt>
<wgt id='1358'> +1.3389289e-12 </wgt>
<wgt id='1359'> +1.3319715e-12 </wgt>
<wgt id='1360'> +1.3364016e-12 </wgt>
<wgt id='1361'> +1.3368835e-12 </wgt>
<wgt id='1362'> +1.3311254e-12 </wgt>
<wgt id='1363'> +1.3327971e-12 </wgt>
<wgt id='1364'> +1.3357602e-12 </wgt>
<wgt id='1365'> +1.3277222e-12 </wgt>
<wgt id='1366'> +1.3373327e-12 </wgt>
<wgt id='1367'> +1.3391501e-12 </wgt>
<wgt id='1368'> +1.3339437e-12 </wgt>
<wgt id='1369'> +1.3430282e-12 </wgt>
<wgt id='1370'> +1.3240601e-12 </wgt>
<wgt id='1371'> +1.3469523e-12 </wgt>
<wgt id='1372'> +1.3199920e-12 </wgt>
<wgt id='1373'> +1.3285061e-12 </wgt>
<wgt id='1374'> +1.3395134e-12 </wgt>
<wgt id='1375'> +1.3348325e-12 </wgt>
<wgt id='1376'> +1.3360366e-12 </wgt>
<wgt id='1377'> +1.3334996e-12 </wgt>
<wgt id='1378'> +1.3368456e-12 </wgt>
<wgt id='1379'> +1.3333937e-12 </wgt>
<wgt id='1380'> +1.3352069e-12 </wgt>
<wgt id='1381'> +1.3190974e-12 </wgt>
<wgt id='1382'> +1.3503577e-12 </wgt>
<wgt id='1383'> +1.3564792e-12 </wgt>
<wgt id='1384'> +1.3184679e-12 </wgt>
<wgt id='1385'> +1.3282209e-12 </wgt>
<wgt id='1386'> +1.3500653e-12 </wgt>
<wgt id='1387'> +1.3316656e-12 </wgt>
<wgt id='1388'> +1.3251006e-12 </wgt>
<wgt id='1389'> +1.3281787e-12 </wgt>
<wgt id='1390'> +1.3351765e-12 </wgt>
<wgt id='1391'> +1.2923851e-12 </wgt>
<wgt id='1392'> +1.2681334e-12 </wgt>
<wgt id='1393'> +1.2771662e-12 </wgt>
<wgt id='1394'> +1.2854779e-12 </wgt>
<wgt id='1395'> +1.3017144e-12 </wgt>
<wgt id='1396'> +1.2938246e-12 </wgt>
<wgt id='1397'> +1.2582480e-12 </wgt>
<wgt id='1398'> +1.2660906e-12 </wgt>
<wgt id='1399'> +1.2728205e-12 </wgt>
<wgt id='1400'> +1.2794743e-12 </wgt>
<wgt id='1401'> +1.2867855e-12 </wgt>
<wgt id='1402'> +1.3008821e-12 </wgt>
<wgt id='1403'> +1.3074436e-12 </wgt>
<wgt id='1404'> +1.3136405e-12 </wgt>
<wgt id='1405'> +1.2938246e-12 </wgt>
<wgt id='1406'> +1.2905883e-12 </wgt>
<wgt id='1407'> +1.2924413e-12 </wgt>
<wgt id='1408'> +1.2952096e-12 </wgt>
<wgt id='1409'> +1.2971899e-12 </wgt>
<wgt id='1410'> +1.2823839e-12 </wgt>
<wgt id='1411'> +1.2786211e-12 </wgt>
<wgt id='1412'> +1.2872126e-12 </wgt>
<wgt id='1413'> +1.2831977e-12 </wgt>
<wgt id='1414'> +1.2816247e-12 </wgt>
<wgt id='1415'> +1.2749279e-12 </wgt>
<wgt id='1416'> +1.2853906e-12 </wgt>
<wgt id='1417'> +1.2760943e-12 </wgt>
<wgt id='1418'> +1.2886319e-12 </wgt>
<wgt id='1419'> +1.2821100e-12 </wgt>
<wgt id='1420'> +1.2826374e-12 </wgt>
<wgt id='1421'> +1.2779542e-12 </wgt>
<wgt id='1422'> +1.2842964e-12 </wgt>
<wgt id='1423'> +1.2821613e-12 </wgt>
<wgt id='1424'> +1.2826877e-12 </wgt>
<wgt id='1425'> +1.2775868e-12 </wgt>
<wgt id='1426'> +1.2876097e-12 </wgt>
<wgt id='1427'> +1.2754124e-12 </wgt>
<wgt id='1428'> +1.2861538e-12 </wgt>
<wgt id='1429'> +1.2828539e-12 </wgt>
<wgt id='1430'> +1.2817874e-12 </wgt>
<wgt id='1431'> +1.2787489e-12 </wgt>
<wgt id='1432'> +1.2848537e-12 </wgt>
<wgt id='1433'> +1.2796014e-12 </wgt>
<wgt id='1434'> +1.2844793e-12 </wgt>
<wgt id='1435'> +1.2833559e-12 </wgt>
<wgt id='1436'> +1.2801863e-12 </wgt>
<wgt id='1437'> +1.2868001e-12 </wgt>
<wgt id='1438'> +1.2817016e-12 </wgt>
<wgt id='1439'> +1.2754217e-12 </wgt>
<wgt id='1440'> +1.3001457e-12 </wgt>
<wgt id='1441'> +1.2886232e-12 </wgt>
<wgt id='1442'> +1.2702812e-12 </wgt>
<wgt id='1443'> +1.2821506e-12 </wgt>
<wgt id='1444'> +1.2832760e-12 </wgt>
<wgt id='1445'> +1.2873281e-12 </wgt>
<wgt id='1446'> +1.2809454e-12 </wgt>
<wgt id='1447'> +1.2829022e-12 </wgt>
<wgt id='1448'> +1.2830881e-12 </wgt>
<wgt id='1449'> +1.2820889e-12 </wgt>
<wgt id='1450'> +1.2824331e-12 </wgt>
<wgt id='1451'> +1.2921215e-12 </wgt>
<wgt id='1452'> +1.2616530e-12 </wgt>
<wgt id='1453'> +1.2846973e-12 </wgt>
<wgt id='1454'> +1.2653461e-12 </wgt>
<wgt id='1455'> +1.2717280e-12 </wgt>
<wgt id='1456'> +1.2866831e-12 </wgt>
<wgt id='1457'> +1.2922517e-12 </wgt>
<wgt id='1458'> +1.2775815e-12 </wgt>
<wgt id='1459'> +1.2844077e-12 </wgt>
<wgt id='1460'> +1.2763945e-12 </wgt>
<wgt id='1461'> +1.2823839e-12 </wgt>
<wgt id='1462'> +1.2767511e-12 </wgt>
<wgt id='1463'> +1.2914913e-12 </wgt>
<wgt id='1464'> +1.2840345e-12 </wgt>
<wgt id='1465'> +1.2521909e-12 </wgt>
<wgt id='1466'> +1.2595925e-12 </wgt>
<wgt id='1467'> +1.2667812e-12 </wgt>
<wgt id='1468'> +1.2714293e-12 </wgt>
<wgt id='1469'> +1.2783139e-12 </wgt>
<wgt id='1470'> +1.2900192e-12 </wgt>
<wgt id='1471'> +1.2937379e-12 </wgt>
<wgt id='1472'> +1.2993037e-12 </wgt>
<wgt id='1473'> +1.2840345e-12 </wgt>
<wgt id='1474'> +1.2804492e-12 </wgt>
<wgt id='1475'> +1.2813700e-12 </wgt>
<wgt id='1476'> +1.2855936e-12 </wgt>
<wgt id='1477'> +1.2871818e-12 </wgt>
<wgt id='1478'> +1.2773498e-12 </wgt>
<wgt id='1479'> +1.2761661e-12 </wgt>
<wgt id='1480'> +1.2814970e-12 </wgt>
<wgt id='1481'> +1.2734772e-12 </wgt>
<wgt id='1482'> +1.2773611e-12 </wgt>
<wgt id='1483'> +1.2580295e-12 </wgt>
<wgt id='1484'> +1.2756808e-12 </wgt>
<wgt id='1485'> +1.2819701e-12 </wgt>
<wgt id='1486'> +1.2777081e-12 </wgt>
<wgt id='1487'> +1.2743687e-12 </wgt>
<wgt id='1488'> +1.2754116e-12 </wgt>
<wgt id='1489'> +1.2901451e-12 </wgt>
<wgt id='1490'> +1.2741226e-12 </wgt>
<wgt id='1491'> +1.2796347e-12 </wgt>
<wgt id='1492'> +1.2779946e-12 </wgt>
<wgt id='1493'> +1.2626884e-12 </wgt>
<wgt id='1494'> +1.2849988e-12 </wgt>
<wgt id='1495'> +1.2727177e-12 </wgt>
<wgt id='1496'> +1.2780409e-12 </wgt>
<wgt id='1497'> +1.2702831e-12 </wgt>
<wgt id='1498'> +1.2764485e-12 </wgt>
<wgt id='1499'> +1.2789163e-12 </wgt>
<wgt id='1500'> +1.2788347e-12 </wgt>
<wgt id='1501'> +1.2774077e-12 </wgt>
<wgt id='1502'> +1.2804810e-12 </wgt>
<wgt id='1503'> +1.2768884e-12 </wgt>
<wgt id='1504'> +1.2713133e-12 </wgt>
<wgt id='1505'> +1.2775539e-12 </wgt>
<wgt id='1506'> +1.2778695e-12 </wgt>
<wgt id='1507'> +1.2750238e-12 </wgt>
<wgt id='1508'> +1.2841878e-12 </wgt>
<wgt id='1509'> +1.3452438e-12 </wgt>
<wgt id='1510'> +1.3439597e-12 </wgt>
<wgt id='1511'> +1.3488460e-12 </wgt>
<wgt id='1512'> +1.3461538e-12 </wgt>
<wgt id='1513'> +1.3493046e-12 </wgt>
<wgt id='1514'> +1.3456927e-12 </wgt>
<wgt id='1515'> +1.3427915e-12 </wgt>
<wgt id='1516'> +1.3454490e-12 </wgt>
<wgt id='1517'> +1.3478980e-12 </wgt>
<wgt id='1518'> +1.3501476e-12 </wgt>
<wgt id='1519'> +1.3374644e-12 </wgt>
<wgt id='1520'> +1.3458923e-12 </wgt>
<wgt id='1521'> +1.3541142e-12 </wgt>
<wgt id='1522'> +1.3469015e-12 </wgt>
<wgt id='1523'> +1.3561112e-12 </wgt>
<wgt id='1524'> +1.3505525e-12 </wgt>
<wgt id='1525'> +1.3539430e-12 </wgt>
<wgt id='1526'> +1.3399885e-12 </wgt>
<wgt id='1527'> +1.3413048e-12 </wgt>
<wgt id='1528'> +1.3456074e-12 </wgt>
<wgt id='1529'> +1.3465702e-12 </wgt>
<wgt id='1530'> +1.3519222e-12 </wgt>
<wgt id='1531'> +1.3488345e-12 </wgt>
<wgt id='1532'> +1.3379131e-12 </wgt>
<wgt id='1533'> +1.3442837e-12 </wgt>
<wgt id='1534'> +1.3487654e-12 </wgt>
<wgt id='1535'> +1.3387808e-12 </wgt>
<wgt id='1536'> +1.3466301e-12 </wgt>
<wgt id='1537'> +1.3478350e-12 </wgt>
<wgt id='1538'> +1.3415668e-12 </wgt>
<wgt id='1539'> +1.3323144e-12 </wgt>
<wgt id='1540'> +1.3496241e-12 </wgt>
<wgt id='1541'> +1.3499535e-12 </wgt>
<wgt id='1542'> +1.3499909e-12 </wgt>
<wgt id='1543'> +1.3452249e-12 </wgt>
<wgt id='1544'> +1.3457638e-12 </wgt>
<wgt id='1545'> +1.3467511e-12 </wgt>
<wgt id='1546'> +1.3458153e-12 </wgt>
<wgt id='1547'> +1.3466549e-12 </wgt>
<wgt id='1548'> +1.3432553e-12 </wgt>
<wgt id='1549'> +1.3446258e-12 </wgt>
<wgt id='1550'> +1.3457595e-12 </wgt>
<wgt id='1551'> +1.3433605e-12 </wgt>
<wgt id='1552'> +1.3448373e-12 </wgt>
<wgt id='1553'> +1.3448908e-12 </wgt>
<wgt id='1554'> +1.3496272e-12 </wgt>
<wgt id='1555'> +1.3481482e-12 </wgt>
<wgt id='1556'> +1.3439618e-12 </wgt>
<wgt id='1557'> +1.3483211e-12 </wgt>
<wgt id='1558'> +1.3432948e-12 </wgt>
<wgt id='1559'> +1.3460057e-12 </wgt>
<wgt id='1560'> +1.3472766e-12 </wgt>
<wgt id='1561'> +1.3448611e-12 </wgt>
<wgt id='1562'> +1.3455044e-12 </wgt>
<wgt id='1563'> +1.3453420e-12 </wgt>
<wgt id='1564'> +1.3436603e-12 </wgt>
<wgt id='1565'> +1.3439226e-12 </wgt>
<wgt id='1566'> +1.3471415e-12 </wgt>
<wgt id='1567'> +1.3466796e-12 </wgt>
<wgt id='1568'> +1.3449114e-12 </wgt>
<wgt id='1569'> +1.3469352e-12 </wgt>
<wgt id='1570'> +1.3437988e-12 </wgt>
<wgt id='1571'> +1.3458821e-12 </wgt>
<wgt id='1572'> +1.3435068e-12 </wgt>
<wgt id='1573'> +1.3430424e-12 </wgt>
<wgt id='1574'> +1.3456059e-12 </wgt>
<wgt id='1575'> +1.3453810e-12 </wgt>
<wgt id='1576'> +1.3446261e-12 </wgt>
<wgt id='1577'> +1.3453892e-12 </wgt>
<wgt id='1578'> +1.3469870e-12 </wgt>
<wgt id='1579'> +1.3442742e-12 </wgt>
<wgt id='1580'> +1.3439024e-12 </wgt>
<wgt id='1581'> +1.3469243e-12 </wgt>
<wgt id='1582'> +1.3469538e-12 </wgt>
<wgt id='1583'> +1.3445993e-12 </wgt>
<wgt id='1584'> +1.3450725e-12 </wgt>
<wgt id='1585'> +1.3453420e-12 </wgt>
<wgt id='1586'> +1.3438982e-12 </wgt>
<wgt id='1587'> +1.3467176e-12 </wgt>
<wgt id='1588'> +1.3440044e-12 </wgt>
<wgt id='1589'> +1.3448097e-12 </wgt>
<wgt id='1590'> +1.3449529e-12 </wgt>
<wgt id='1591'> +1.3442988e-12 </wgt>
<wgt id='1592'> +1.3457552e-12 </wgt>
<wgt id='1593'> +1.3443759e-12 </wgt>
<wgt id='1594'> +1.3446668e-12 </wgt>
<wgt id='1595'> +1.3463169e-12 </wgt>
<wgt id='1596'> +1.3455351e-12 </wgt>
<wgt id='1597'> +1.3454911e-12 </wgt>
<wgt id='1598'> +1.3445592e-12 </wgt>
<wgt id='1599'> +1.3446521e-12 </wgt>
<wgt id='1600'> +1.3461908e-12 </wgt>
<wgt id='1601'> +1.3457670e-12 </wgt>
<wgt id='1602'> +1.3465239e-12 </wgt>
<wgt id='1603'> +1.3444700e-12 </wgt>
<wgt id='1604'> +1.3453856e-12 </wgt>
<wgt id='1605'> +1.3451482e-12 </wgt>
<wgt id='1606'> +1.3442969e-12 </wgt>
<wgt id='1607'> +1.3455054e-12 </wgt>
<wgt id='1608'> +1.3451357e-12 </wgt>
<wgt id='1609'> +1.3442797e-12 </wgt>
<wgt id='1610'> +1.3395126e-12 </wgt>
<wgt id='1611'> +1.3526112e-12 </wgt>
<wgt id='1612'> +1.5337234e-12 </wgt>
<wgt id='1613'> +1.5282999e-12 </wgt>
<wgt id='1614'> +1.5499124e-12 </wgt>
<wgt id='1615'> +1.5144472e-12 </wgt>
<wgt id='1616'> +1.5702246e-12 </wgt>
<wgt id='1617'> +1.5708820e-12 </wgt>
<wgt id='1618'> +1.5695552e-12 </wgt>
<wgt id='1619'> +1.5443653e-12 </wgt>
<wgt id='1620'> +1.5022044e-12 </wgt>
<wgt id='1621'> +1.5410476e-12 </wgt>
<wgt id='1622'> +1.5496265e-12 </wgt>
<wgt id='1623'> +1.5242176e-12 </wgt>
<wgt id='1624'> +1.5126200e-12 </wgt>
<wgt id='1625'> +1.5308261e-12 </wgt>
<wgt id='1626'> +1.5055921e-12 </wgt>
<wgt id='1627'> +1.4991639e-12 </wgt>
<wgt id='1628'> +1.5272452e-12 </wgt>
<wgt id='1629'> +1.6244535e-12 </wgt>
<wgt id='1630'> +1.5345870e-12 </wgt>
<wgt id='1631'> +1.5253394e-12 </wgt>
<wgt id='1632'> +1.4917829e-12 </wgt>
<wgt id='1633'> +1.4787902e-12 </wgt>
<wgt id='1634'> +1.5426776e-12 </wgt>
<wgt id='1635'> +1.5379431e-12 </wgt>
<wgt id='1636'> +1.5682695e-12 </wgt>
<wgt id='1637'> +1.4916449e-12 </wgt>
<wgt id='1638'> +1.5280166e-12 </wgt>
<wgt id='1639'> +1.5249460e-12 </wgt>
<wgt id='1640'> +1.4774437e-12 </wgt>
<wgt id='1641'> +1.5166978e-12 </wgt>
<wgt id='1642'> +1.5025961e-12 </wgt>
<wgt id='1643'> +1.5920420e-12 </wgt>
<wgt id='1644'> +1.4710549e-12 </wgt>
<wgt id='1645'> +1.5217652e-12 </wgt>
<wgt id='1646'> +1.5262891e-12 </wgt>
<wgt id='1647'> +1.5105570e-12 </wgt>
<wgt id='1648'> +1.5143791e-12 </wgt>
<wgt id='1649'> +1.5971130e-12 </wgt>
<wgt id='1650'> +1.5179405e-12 </wgt>
<wgt id='1651'> +1.5048968e-12 </wgt>
<wgt id='1652'> +1.5218690e-12 </wgt>
<wgt id='1653'> +1.5825133e-12 </wgt>
<wgt id='1654'> +1.5534750e-12 </wgt>
<wgt id='1655'> +1.5241596e-12 </wgt>
<wgt id='1656'> +1.5013461e-12 </wgt>
<wgt id='1657'> +1.5044997e-12 </wgt>
<wgt id='1658'> +1.4795424e-12 </wgt>
<wgt id='1659'> +1.5126200e-12 </wgt>
<wgt id='1660'> +1.5508449e-12 </wgt>
<wgt id='1661'> +1.5377114e-12 </wgt>
<wgt id='1662'> +1.5053359e-12 </wgt>
<wgt id='1663'> +1.5626451e-12 </wgt>
<wgt id='1664'> +1.5173919e-12 </wgt>
<wgt id='1665'> +1.4596952e-12 </wgt>
<wgt id='1666'> +1.5314347e-12 </wgt>
<wgt id='1667'> +1.5835764e-12 </wgt>
<wgt id='1668'> +1.5480807e-12 </wgt>
<wgt id='1669'> +1.5075199e-12 </wgt>
<wgt id='1670'> +1.5185595e-12 </wgt>
<wgt id='1671'> +1.5125109e-12 </wgt>
<wgt id='1672'> +1.5410488e-12 </wgt>
<wgt id='1673'> +1.5733523e-12 </wgt>
<wgt id='1674'> +1.5405662e-12 </wgt>
<wgt id='1675'> +1.5688848e-12 </wgt>
<wgt id='1676'> +1.5782400e-12 </wgt>
<wgt id='1677'> +1.5770069e-12 </wgt>
<wgt id='1678'> +1.4947732e-12 </wgt>
<wgt id='1679'> +1.5814577e-12 </wgt>
<wgt id='1680'> +1.5251739e-12 </wgt>
<wgt id='1681'> +1.5674579e-12 </wgt>
<wgt id='1682'> +1.5368469e-12 </wgt>
<wgt id='1683'> +1.5335675e-12 </wgt>
<wgt id='1684'> +1.5162220e-12 </wgt>
<wgt id='1685'> +1.5177608e-12 </wgt>
<wgt id='1686'> +1.5208386e-12 </wgt>
<wgt id='1687'> +1.5784056e-12 </wgt>
<wgt id='1688'> +1.5067102e-12 </wgt>
<wgt id='1689'> +1.5132591e-12 </wgt>
<wgt id='1690'> +1.5423416e-12 </wgt>
<wgt id='1691'> +1.5477355e-12 </wgt>
<wgt id='1692'> +1.5780145e-12 </wgt>
<wgt id='1693'> +1.5646245e-12 </wgt>
<wgt id='1694'> +1.5183114e-12 </wgt>
<wgt id='1695'> +1.5036305e-12 </wgt>
<wgt id='1696'> +1.5598175e-12 </wgt>
<wgt id='1697'> +1.5787392e-12 </wgt>
<wgt id='1698'> +1.5112664e-12 </wgt>
<wgt id='1699'> +1.5512562e-12 </wgt>
<wgt id='1700'> +1.5274218e-12 </wgt>
<wgt id='1701'> +1.5381598e-12 </wgt>
<wgt id='1702'> +1.5742849e-12 </wgt>
<wgt id='1703'> +1.5654118e-12 </wgt>
<wgt id='1704'> +1.5145728e-12 </wgt>
<wgt id='1705'> +1.4757106e-12 </wgt>
<wgt id='1706'> +1.5537001e-12 </wgt>
<wgt id='1707'> +1.5305237e-12 </wgt>
<wgt id='1708'> +1.5567490e-12 </wgt>
<wgt id='1709'> +1.5156913e-12 </wgt>
<wgt id='1710'> +1.5254791e-12 </wgt>
<wgt id='1711'> +1.5483149e-12 </wgt>
<wgt id='1712'> +1.5562788e-12 </wgt>
<wgt id='1713'> +1.2664780e-12 </wgt>
<wgt id='1714'> +1.2129699e-12 </wgt>
<wgt id='1715'> +1.2620843e-12 </wgt>
<wgt id='1716'> +1.3105214e-12 </wgt>
<wgt id='1717'> +1.2814720e-12 </wgt>
<wgt id='1718'> +1.2701646e-12 </wgt>
<wgt id='1719'> +1.2541976e-12 </wgt>
<wgt id='1720'> +1.2986570e-12 </wgt>
<wgt id='1721'> +1.2554515e-12 </wgt>
<wgt id='1722'> +1.2667233e-12 </wgt>
<wgt id='1723'> +1.2456755e-12 </wgt>
<wgt id='1724'> +1.2378474e-12 </wgt>
<wgt id='1725'> +1.2805650e-12 </wgt>
<wgt id='1726'> +1.3058779e-12 </wgt>
<wgt id='1727'> +1.2583841e-12 </wgt>
<wgt id='1728'> +1.2663036e-12 </wgt>
<wgt id='1729'> +1.2571498e-12 </wgt>
<wgt id='1730'> +1.2461944e-12 </wgt>
<wgt id='1731'> +1.2215727e-12 </wgt>
<wgt id='1732'> +1.2466902e-12 </wgt>
<wgt id='1733'> +1.2798405e-12 </wgt>
<wgt id='1734'> +1.2898702e-12 </wgt>
<wgt id='1735'> +1.2765711e-12 </wgt>
<wgt id='1736'> +1.3288423e-12 </wgt>
<wgt id='1737'> +1.3104073e-12 </wgt>
<wgt id='1738'> +1.2834852e-12 </wgt>
<wgt id='1739'> +1.2610307e-12 </wgt>
<wgt id='1740'> +1.2375273e-12 </wgt>
<wgt id='1741'> +1.2628281e-12 </wgt>
<wgt id='1742'> +1.2655143e-12 </wgt>
<wgt id='1743'> +1.2893849e-12 </wgt>
<wgt id='1744'> +1.3032114e-12 </wgt>
<wgt id='1745'> +1.2441973e-12 </wgt>
<wgt id='1746'> +1.2763714e-12 </wgt>
<wgt id='1747'> +1.2806485e-12 </wgt>
<wgt id='1748'> +1.2872191e-12 </wgt>
<wgt id='1749'> +1.2662700e-12 </wgt>
<wgt id='1750'> +1.2741485e-12 </wgt>
<wgt id='1751'> +1.2134610e-12 </wgt>
<wgt id='1752'> +1.2418591e-12 </wgt>
<wgt id='1753'> +1.2929032e-12 </wgt>
<wgt id='1754'> +1.2350246e-12 </wgt>
<wgt id='1755'> +1.2528267e-12 </wgt>
<wgt id='1756'> +1.2893036e-12 </wgt>
<wgt id='1757'> +1.2553996e-12 </wgt>
<wgt id='1758'> +1.2862584e-12 </wgt>
<wgt id='1759'> +1.2364206e-12 </wgt>
<wgt id='1760'> +1.2119614e-12 </wgt>
<wgt id='1761'> +1.2493867e-12 </wgt>
<wgt id='1762'> +1.2911238e-12 </wgt>
<wgt id='1763'> +1.2924531e-12 </wgt>
<wgt id='1764'> +1.2772951e-12 </wgt>
<wgt id='1765'> +1.2773216e-12 </wgt>
<wgt id='1766'> +1.2754694e-12 </wgt>
<wgt id='1767'> +1.2753731e-12 </wgt>
<wgt id='1768'> +1.2714020e-12 </wgt>
<wgt id='1769'> +1.2395746e-12 </wgt>
<wgt id='1770'> +1.3024396e-12 </wgt>
<wgt id='1771'> +1.2761115e-12 </wgt>
<wgt id='1772'> +1.2730926e-12 </wgt>
<wgt id='1773'> +1.2692175e-12 </wgt>
<wgt id='1774'> +1.2602490e-12 </wgt>
<wgt id='1775'> +1.2642064e-12 </wgt>
<wgt id='1776'> +1.2379685e-12 </wgt>
<wgt id='1777'> +1.2033271e-12 </wgt>
<wgt id='1778'> +1.2406139e-12 </wgt>
<wgt id='1779'> +1.3023838e-12 </wgt>
<wgt id='1780'> +1.3162935e-12 </wgt>
<wgt id='1781'> +1.2518073e-12 </wgt>
<wgt id='1782'> +1.2464708e-12 </wgt>
<wgt id='1783'> +1.2765061e-12 </wgt>
<wgt id='1784'> +1.2749087e-12 </wgt>
<wgt id='1785'> +1.2392057e-12 </wgt>
<wgt id='1786'> +1.2263840e-12 </wgt>
<wgt id='1787'> +1.3072614e-12 </wgt>
<wgt id='1788'> +1.2355637e-12 </wgt>
<wgt id='1789'> +1.2713784e-12 </wgt>
<wgt id='1790'> +1.2959741e-12 </wgt>
<wgt id='1791'> +1.2700823e-12 </wgt>
<wgt id='1792'> +1.2382562e-12 </wgt>
<wgt id='1793'> +1.3068457e-12 </wgt>
<wgt id='1794'> +1.2696019e-12 </wgt>
<wgt id='1795'> +1.2872712e-12 </wgt>
<wgt id='1796'> +1.2468049e-12 </wgt>
<wgt id='1797'> +1.2835078e-12 </wgt>
<wgt id='1798'> +1.2582192e-12 </wgt>
<wgt id='1799'> +1.2528084e-12 </wgt>
<wgt id='1800'> +1.2657606e-12 </wgt>
<wgt id='1801'> +1.2673641e-12 </wgt>
<wgt id='1802'> +1.2550483e-12 </wgt>
<wgt id='1803'> +1.2903416e-12 </wgt>
<wgt id='1804'> +1.2476529e-12 </wgt>
<wgt id='1805'> +1.2965043e-12 </wgt>
<wgt id='1806'> +1.2546035e-12 </wgt>
<wgt id='1807'> +1.2444025e-12 </wgt>
<wgt id='1808'> +1.2446495e-12 </wgt>
<wgt id='1809'> +1.2512596e-12 </wgt>
<wgt id='1810'> +1.2610699e-12 </wgt>
<wgt id='1811'> +1.2957920e-12 </wgt>
<wgt id='1812'> +1.2794525e-12 </wgt>
<wgt id='1813'> +1.2526746e-12 </wgt>
<wgt id='1814'> +1.4410871e-12 </wgt>
<wgt id='1815'> +1.5958336e-12 </wgt>
<wgt id='1816'> +1.2664780e-12 </wgt>
<wgt id='1817'> +1.2129699e-12 </wgt>
<wgt id='1818'> +1.2620843e-12 </wgt>
<wgt id='1819'> +1.3105214e-12 </wgt>
<wgt id='1820'> +1.2814720e-12 </wgt>
<wgt id='1821'> +1.2701646e-12 </wgt>
<wgt id='1822'> +1.2541976e-12 </wgt>
<wgt id='1823'> +1.2986570e-12 </wgt>
<wgt id='1824'> +1.2554515e-12 </wgt>
<wgt id='1825'> +1.2667233e-12 </wgt>
<wgt id='1826'> +1.2456755e-12 </wgt>
<wgt id='1827'> +1.2378474e-12 </wgt>
<wgt id='1828'> +1.2805650e-12 </wgt>
<wgt id='1829'> +1.3058779e-12 </wgt>
<wgt id='1830'> +1.2583841e-12 </wgt>
<wgt id='1831'> +1.2663036e-12 </wgt>
<wgt id='1832'> +1.2571498e-12 </wgt>
<wgt id='1833'> +1.2461944e-12 </wgt>
<wgt id='1834'> +1.2215727e-12 </wgt>
<wgt id='1835'> +1.2466902e-12 </wgt>
<wgt id='1836'> +1.2798405e-12 </wgt>
<wgt id='1837'> +1.2898702e-12 </wgt>
<wgt id='1838'> +1.2765711e-12 </wgt>
<wgt id='1839'> +1.3288423e-12 </wgt>
<wgt id='1840'> +1.3104073e-12 </wgt>
<wgt id='1841'> +1.2834852e-12 </wgt>
<wgt id='1842'> +1.2610307e-12 </wgt>
<wgt id='1843'> +1.2375273e-12 </wgt>
<wgt id='1844'> +1.2628281e-12 </wgt>
<wgt id='1845'> +1.2655143e-12 </wgt>
<wgt id='1846'> +1.2893849e-12 </wgt>
<wgt id='1847'> +1.3032114e-12 </wgt>
<wgt id='1848'> +1.2441973e-12 </wgt>
<wgt id='1849'> +1.2763714e-12 </wgt>
<wgt id='1850'> +1.2806485e-12 </wgt>
<wgt id='1851'> +1.2872191e-12 </wgt>
<wgt id='1852'> +1.2662700e-12 </wgt>
<wgt id='1853'> +1.2741485e-12 </wgt>
<wgt id='1854'> +1.2134610e-12 </wgt>
<wgt id='1855'> +1.2418591e-12 </wgt>
<wgt id='1856'> +1.2929032e-12 </wgt>
<wgt id='1857'> +1.2350246e-12 </wgt>
<wgt id='1858'> +1.2528267e-12 </wgt>
<wgt id='1859'> +1.2893036e-12 </wgt>
<wgt id='1860'> +1.2553996e-12 </wgt>
<wgt id='1861'> +1.2862584e-12 </wgt>
<wgt id='1862'> +1.2364206e-12 </wgt>
<wgt id='1863'> +1.2119614e-12 </wgt>
<wgt id='1864'> +1.2493867e-12 </wgt>
<wgt id='1865'> +1.2911238e-12 </wgt>
<wgt id='1866'> +1.2924531e-12 </wgt>
<wgt id='1867'> +1.2772951e-12 </wgt>
<wgt id='1868'> +1.2773216e-12 </wgt>
<wgt id='1869'> +1.2754694e-12 </wgt>
<wgt id='1870'> +1.2753731e-12 </wgt>
<wgt id='1871'> +1.2714020e-12 </wgt>
<wgt id='1872'> +1.2395746e-12 </wgt>
<wgt id='1873'> +1.3024396e-12 </wgt>
<wgt id='1874'> +1.2761115e-12 </wgt>
<wgt id='1875'> +1.2730926e-12 </wgt>
<wgt id='1876'> +1.2692175e-12 </wgt>
<wgt id='1877'> +1.2602490e-12 </wgt>
<wgt id='1878'> +1.2642064e-12 </wgt>
<wgt id='1879'> +1.2379685e-12 </wgt>
<wgt id='1880'> +1.2033271e-12 </wgt>
<wgt id='1881'> +1.2406139e-12 </wgt>
<wgt id='1882'> +1.3023838e-12 </wgt>
<wgt id='1883'> +1.3162935e-12 </wgt>
<wgt id='1884'> +1.2518073e-12 </wgt>
<wgt id='1885'> +1.2464708e-12 </wgt>
<wgt id='1886'> +1.2765061e-12 </wgt>
<wgt id='1887'> +1.2749087e-12 </wgt>
<wgt id='1888'> +1.2392057e-12 </wgt>
<wgt id='1889'> +1.2263840e-12 </wgt>
<wgt id='1890'> +1.3072614e-12 </wgt>
<wgt id='1891'> +1.2355637e-12 </wgt>
<wgt id='1892'> +1.2713784e-12 </wgt>
<wgt id='1893'> +1.2959741e-12 </wgt>
<wgt id='1894'> +1.2700823e-12 </wgt>
<wgt id='1895'> +1.2382562e-12 </wgt>
<wgt id='1896'> +1.3068457e-12 </wgt>
<wgt id='1897'> +1.2696019e-12 </wgt>
<wgt id='1898'> +1.2872712e-12 </wgt>
<wgt id='1899'> +1.2468049e-12 </wgt>
<wgt id='1900'> +1.2835078e-12 </wgt>
<wgt id='1901'> +1.2582192e-12 </wgt>
<wgt id='1902'> +1.2528084e-12 </wgt>
<wgt id='1903'> +1.2657606e-12 </wgt>
<wgt id='1904'> +1.2673641e-12 </wgt>
<wgt id='1905'> +1.2550483e-12 </wgt>
<wgt id='1906'> +1.2903416e-12 </wgt>
<wgt id='1907'> +1.2476529e-12 </wgt>
<wgt id='1908'> +1.2965043e-12 </wgt>
<wgt id='1909'> +1.2546035e-12 </wgt>
<wgt id='1910'> +1.2444025e-12 </wgt>
<wgt id='1911'> +1.2446495e-12 </wgt>
<wgt id='1912'> +1.2512596e-12 </wgt>
<wgt id='1913'> +1.2610699e-12 </wgt>
<wgt id='1914'> +1.2957920e-12 </wgt>
<wgt id='1915'> +1.2794525e-12 </wgt>
<wgt id='1916'> +1.2526746e-12 </wgt>
<wgt id='1917'> +1.2581213e-12 </wgt>
<wgt id='1918'> +1.2701702e-12 </wgt>
<wgt id='1919'> +1.2785884e-12 </wgt>
</rwgt>
</event>
<event>
 9      1 +1.5538000e-12 2.92109700e+01 7.81860800e-03 1.45771000e-01
        2 -1    0    0  502    0 -0.0000000000e+00 +0.0000000000e+00 +5.5943405295e+02 5.5943405295e+02 0.0000000000e+00 0.0000e+00 1.0000e+00
       21 -1    0    0  501  502 +0.0000000000e+00 -0.0000000000e+00 -1.3295135178e+00 1.3295135178e+00 0.0000000000e+00 0.0000e+00 1.0000e+00
     1023  2    1    2    0    0 +2.2927690629e+01 -1.0136964146e+01 +2.7262360328e+02 2.7418408020e+02 1.4994790209e+01 0.0000e+00 0.0000e+00
  1000023  2    3    3    0    0 +3.1553537476e+00 -9.9108319007e-02 +7.1237267400e+01 7.1518937336e+01 5.4994591849e+00 0.0000e+00 0.0000e+00
        2  1    1    2  501    0 -2.2927690629e+01 +1.0136964146e+01 +2.8548093616e+02 2.8657948627e+02 0.0000000000e+00 0.0000e+00 1.0000e+00
  1000022  1    4    4    0    0 +2.9175815070e+00 -1.5949935055e-01 +6.2958758434e+01 6.3224544170e+01 5.0000000000e+00 0.0000e+00 1.0000e+00
      -13  1    4    4    0    0 +1.3719270787e-01 +5.2860598803e-02 +1.1320136515e+00 1.1464045879e+00 1.0570000000e-01 0.0000e+00 -1.0000e+00
       13  1    4    4    0    0 +1.0057953278e-01 +7.5304327352e-03 +7.1464953139e+00 7.1479885780e+00 1.0570000000e-01 0.0000e+00 1.0000e+00
  1000022  1    3    3    0    0 +1.9772336881e+01 -1.0037855827e+01 +2.0138633588e+02 2.0266514287e+02 5.0000000000e+00 0.0000e+00 1.0000e+00
<mgrwt>
<rscale>  1 0.29210970E+02</rscale>
<asrwt>0</asrwt>
<pdfrwt beam="1">  1       21 0.20454099E-03 0.29210970E+02</pdfrwt>
<pdfrwt beam="2">  1        2 0.86066590E-01 0.29210970E+02</pdfrwt>
<totfact> 0.17220986E+07</totfact>
</mgrwt>
<rwgt>
<wgt id='1001'> +1.5538000e-12 </wgt>
<wgt id='1002'> +1.6463486e-12 </wgt>
<wgt id='1003'> +1.6553106e-12 </wgt>
<wgt id='1004'> +1.5365714e-12 </wgt>
<wgt id='1005'> +1.6568090e-12 </wgt>
<wgt id='1006'> +1.3586011e-12 </wgt>
<wgt id='1007'> +1.4592779e-12 </wgt>
<wgt id='1008'> +1.4693881e-12 </wgt>
<wgt id='1009'> +1.3404961e-12 </wgt>
<wgt id='1010'> +1.4710871e-12 </wgt>
<wgt id='1011'> +1.8177664e-12 </wgt>
<wgt id='1012'> +1.8908787e-12 </wgt>
<wgt id='1013'> +1.8974340e-12 </wgt>
<wgt id='1014'> +1.8032697e-12 </wgt>
<wgt id='1015'> +1.8985192e-12 </wgt>
<wgt id='1016'> +1.9046779e-12 </wgt>
<wgt id='1017'> +1.9383568e-12 </wgt>
<wgt id='1018'> +1.9408978e-12 </wgt>
<wgt id='1019'> +1.8974340e-12 </wgt>
<wgt id='1020'> +1.9413088e-12 </wgt>
<wgt id='1021'> +1.6653994e-12 </wgt>
<wgt id='1022'> +1.7181059e-12 </wgt>
<wgt id='1023'> +1.7228985e-12 </wgt>
<wgt id='1024'> +1.6553106e-12 </wgt>
<wgt id='1025'> +1.7236955e-12 </wgt>
<wgt id='1026'> +2.2282530e-12 </wgt>
<wgt id='1027'> +2.2262585e-12 </wgt>
<wgt id='1028'> +2.2247941e-12 </wgt>
<wgt id='1029'> +2.2267662e-12 </wgt>
<wgt id='1030'> +2.2245244e-12 </wgt>
<wgt id='1031'> +1.1729883e-12 </wgt>
<wgt id='1032'> +1.3249249e-12 </wgt>
<wgt id='1033'> +1.3404961e-12 </wgt>
<wgt id='1034'> +1.1463706e-12 </wgt>
<wgt id='1035'> +1.3431467e-12 </wgt>
<wgt id='1036'> +1.0256296e-12 </wgt>
<wgt id='1037'> +1.1743768e-12 </wgt>
<wgt id='1038'> +1.1899332e-12 </wgt>
<wgt id='1039'> +1.0000872e-12 </wgt>
<wgt id='1040'> +1.1925851e-12 </wgt>
<wgt id='1041'> +1.3722607e-12 </wgt>
<wgt id='1042'> +1.5217144e-12 </wgt>
<wgt id='1043'> +1.5365714e-12 </wgt>
<wgt id='1044'> +1.3453429e-12 </wgt>
<wgt id='1045'> +1.5390970e-12 </wgt>
<wgt id='1046'> +1.5538000e-12 </wgt>
<wgt id='1047'> +1.5538840e-12 </wgt>
<wgt id='1048'> +1.6176104e-12 </wgt>
<wgt id='1049'> +1.4882893e-12 </wgt>
<wgt id='1050'> +1.5281853e-12 </wgt>
<wgt id='1051'> +1.5134551e-12 </wgt>
<wgt id='1052'> +1.5201638e-12 </wgt>
<wgt id='1053'> +1.6231320e-12 </wgt>
<wgt id='1054'> +1.5880579e-12 </wgt>
<wgt id='1055'> +1.5314075e-12 </wgt>
<wgt id='1056'> +1.4931134e-12 </wgt>
<wgt id='1057'> +1.5339809e-12 </wgt>
<wgt id='1058'> +1.5107230e-12 </wgt>
<wgt id='1059'> +1.5702262e-12 </wgt>
<wgt id='1060'> +1.5640723e-12 </wgt>
<wgt id='1061'> +1.5856396e-12 </wgt>
<wgt id='1062'> +1.5419123e-12 </wgt>
<wgt id='1063'> +1.4937671e-12 </wgt>
<wgt id='1064'> +1.5426495e-12 </wgt>
<wgt id='1065'> +1.6016176e-12 </wgt>
<wgt id='1066'> +1.5608927e-12 </wgt>
<wgt id='1067'> +1.5847305e-12 </wgt>
<wgt id='1068'> +1.5995957e-12 </wgt>
<wgt id='1069'> +1.6204763e-12 </wgt>
<wgt id='1070'> +1.5470084e-12 </wgt>
<wgt id='1071'> +1.5583224e-12 </wgt>
<wgt id='1072'> +1.5596948e-12 </wgt>
<wgt id='1073'> +1.5492694e-12 </wgt>
<wgt id='1074'> +1.5573843e-12 </wgt>
<wgt id='1075'> +1.5455721e-12 </wgt>
<wgt id='1076'> +1.5716851e-12 </wgt>
<wgt id='1077'> +1.5785867e-12 </wgt>
<wgt id='1078'> +1.5167586e-12 </wgt>
<wgt id='1079'> +1.5593578e-12 </wgt>
<wgt id='1080'> +1.5454059e-12 </wgt>
<wgt id='1081'> +1.5012139e-12 </wgt>
<wgt id='1082'> +1.5427671e-12 </wgt>
<wgt id='1083'> +1.5209633e-12 </wgt>
<wgt id='1084'> +1.5385681e-12 </wgt>
<wgt id='1085'> +1.5892552e-12 </wgt>
<wgt id='1086'> +1.6091297e-12 </wgt>
<wgt id='1087'> +1.5352823e-12 </wgt>
<wgt id='1088'> +1.5467184e-12 </wgt>
<wgt id='1089'> +1.5282605e-12 </wgt>
<wgt id='1090'> +1.5674155e-12 </wgt>
<wgt id='1091'> +1.5577523e-12 </wgt>
<wgt id='1092'> +1.5403905e-12 </wgt>
<wgt id='1093'> +1.5918100e-12 </wgt>
<wgt id='1094'> +1.6016298e-12 </wgt>
<wgt id='1095'> +1.6055865e-12 </wgt>
<wgt id='1096'> +1.5186922e-12 </wgt>
<wgt id='1097'> +1.5588725e-12 </wgt>
<wgt id='1098'> +1.5810946e-12 </wgt>
<wgt id='1099'> +1.5436250e-12 </wgt>
<wgt id='1100'> +1.5859978e-12 </wgt>
<wgt id='1101'> +1.5601438e-12 </wgt>
<wgt id='1102'> +1.5245810e-12 </wgt>
<wgt id='1103'> +1.5342574e-12 </wgt>
<wgt id='1104'> +1.5538695e-12 </wgt>
<wgt id='1105'> +1.4936680e-12 </wgt>
<wgt id='1106'> +1.5456266e-12 </wgt>
<wgt id='1107'> +1.6110097e-12 </wgt>
<wgt id='1108'> +1.5402490e-12 </wgt>
<wgt id='1109'> +1.5460304e-12 </wgt>
<wgt id='1110'> +1.5396854e-12 </wgt>
<wgt id='1111'> +1.5559745e-12 </wgt>
<wgt id='1112'> +1.5730054e-12 </wgt>
<wgt id='1113'> +1.6297051e-12 </wgt>
<wgt id='1114'> +1.5886991e-12 </wgt>
<wgt id='1115'> +1.5986981e-12 </wgt>
<wgt id='1116'> +1.6385854e-12 </wgt>
<wgt id='1117'> +1.5461808e-12 </wgt>
<wgt id='1118'> +1.6114652e-12 </wgt>
<wgt id='1119'> +1.4993579e-12 </wgt>
<wgt id='1120'> +1.5473748e-12 </wgt>
<wgt id='1121'> +1.5182854e-12 </wgt>
<wgt id='1122'> +1.5380310e-12 </wgt>
<wgt id='1123'> +1.5927786e-12 </wgt>
<wgt id='1124'> +1.5895078e-12 </wgt>
<wgt id='1125'> +1.4921769e-12 </wgt>
<wgt id='1126'> +1.5322925e-12 </wgt>
<wgt id='1127'> +1.5567925e-12 </wgt>
<wgt id='1128'> +1.5419123e-12 </wgt>
<wgt id='1129'> +1.5201089e-12 </wgt>
<wgt id='1130'> +1.5356002e-12 </wgt>
<wgt id='1131'> +1.5707425e-12 </wgt>
<wgt id='1132'> +1.5709462e-12 </wgt>
<wgt id='1133'> +1.5221591e-12 </wgt>
<wgt id='1134'> +1.5265108e-12 </wgt>
<wgt id='1135'> +1.4917472e-12 </wgt>
<wgt id='1136'> +1.5125654e-12 </wgt>
<wgt id='1137'> +1.5563743e-12 </wgt>
<wgt id='1138'> +1.5392890e-12 </wgt>
<wgt id='1139'> +1.5448243e-12 </wgt>
<wgt id='1140'> +1.5802708e-12 </wgt>
<wgt id='1141'> +1.5442959e-12 </wgt>
<wgt id='1142'> +1.5946783e-12 </wgt>
<wgt id='1143'> +1.4833009e-12 </wgt>
<wgt id='1144'> +1.5480410e-12 </wgt>
<wgt id='1145'> +1.5647815e-12 </wgt>
<wgt id='1146'> +1.5517218e-12 </wgt>
<wgt id='1147'> +1.4036800e-12 </wgt>
<wgt id='1148'> +1.4330847e-12 </wgt>
<wgt id='1149'> +1.3421130e-12 </wgt>
<wgt id='1150'> +1.4078900e-12 </wgt>
<wgt id='1151'> +1.6832394e-12 </wgt>
<wgt id='1152'> +2.3279965e-12 </wgt>
<wgt id='1153'> +2.3281779e-12 </wgt>
<wgt id='1154'> +2.3278168e-12 </wgt>
<wgt id='1155'> +2.3216999e-12 </wgt>
<wgt id='1156'> +2.3312155e-12 </wgt>
<wgt id='1157'> +2.3318652e-12 </wgt>
<wgt id='1158'> +2.3227551e-12 </wgt>
<wgt id='1159'> +2.3313379e-12 </wgt>
<wgt id='1160'> +2.3258653e-12 </wgt>
<wgt id='1161'> +2.3237217e-12 </wgt>
<wgt id='1162'> +2.3309716e-12 </wgt>
<wgt id='1163'> +2.3277518e-12 </wgt>
<wgt id='1164'> +2.3282513e-12 </wgt>
<wgt id='1165'> +2.3286120e-12 </wgt>
<wgt id='1166'> +2.3272575e-12 </wgt>
<wgt id='1167'> +2.3575981e-12 </wgt>
<wgt id='1168'> +2.2924847e-12 </wgt>
<wgt id='1169'> +2.3369170e-12 </wgt>
<wgt id='1170'> +2.3213786e-12 </wgt>
<wgt id='1171'> +2.3195663e-12 </wgt>
<wgt id='1172'> +2.3390372e-12 </wgt>
<wgt id='1173'> +2.3010056e-12 </wgt>
<wgt id='1174'> +2.3562134e-12 </wgt>
<wgt id='1175'> +2.3334168e-12 </wgt>
<wgt id='1176'> +2.3231857e-12 </wgt>
<wgt id='1177'> +2.3217796e-12 </wgt>
<wgt id='1178'> +2.3441643e-12 </wgt>
<wgt id='1179'> +2.3233227e-12 </wgt>
<wgt id='1180'> +2.3265384e-12 </wgt>
<wgt id='1181'> +2.3358219e-12 </wgt>
<wgt id='1182'> +2.3184457e-12 </wgt>
<wgt id='1183'> +2.3198519e-12 </wgt>
<wgt id='1184'> +2.3284730e-12 </wgt>
<wgt id='1185'> +2.3230563e-12 </wgt>
<wgt id='1186'> +2.3306150e-12 </wgt>
<wgt id='1187'> +2.3314940e-12 </wgt>
<wgt id='1188'> +2.3267900e-12 </wgt>
<wgt id='1189'> +2.3205427e-12 </wgt>
<wgt id='1190'> +2.3029959e-12 </wgt>
<wgt id='1191'> +2.3321515e-12 </wgt>
<wgt id='1192'> +2.3366250e-12 </wgt>
<wgt id='1193'> +1.4013154e-12 </wgt>
<wgt id='1194'> +1.3826315e-12 </wgt>
<wgt id='1195'> +1.4166290e-12 </wgt>
<wgt id='1196'> +1.4007926e-12 </wgt>
<wgt id='1197'> +1.4018976e-12 </wgt>
<wgt id='1198'> +1.4005455e-12 </wgt>
<wgt id='1199'> +1.4024854e-12 </wgt>
<wgt id='1200'> +1.3975759e-12 </wgt>
<wgt id='1201'> +1.4038782e-12 </wgt>
<wgt id='1202'> +1.4001484e-12 </wgt>
<wgt id='1203'> +1.4029668e-12 </wgt>
<wgt id='1204'> +1.3943135e-12 </wgt>
<wgt id='1205'> +1.4054153e-12 </wgt>
<wgt id='1206'> +1.4043265e-12 </wgt>
<wgt id='1207'> +1.3972033e-12 </wgt>
<wgt id='1208'> +1.4076373e-12 </wgt>
<wgt id='1209'> +1.3991240e-12 </wgt>
<wgt id='1210'> +1.4041878e-12 </wgt>
<wgt id='1211'> +1.3970205e-12 </wgt>
<wgt id='1212'> +1.4009482e-12 </wgt>
<wgt id='1213'> +1.4022532e-12 </wgt>
<wgt id='1214'> +1.3891932e-12 </wgt>
<wgt id='1215'> +1.4160545e-12 </wgt>
<wgt id='1216'> +1.4070712e-12 </wgt>
<wgt id='1217'> +1.3974428e-12 </wgt>
<wgt id='1218'> +1.4063967e-12 </wgt>
<wgt id='1219'> +1.3984802e-12 </wgt>
<wgt id='1220'> +1.4104866e-12 </wgt>
<wgt id='1221'> +1.3993248e-12 </wgt>
<wgt id='1222'> +1.4241845e-12 </wgt>
<wgt id='1223'> +1.3689101e-12 </wgt>
<wgt id='1224'> +1.4056205e-12 </wgt>
<wgt id='1225'> +1.3995833e-12 </wgt>
<wgt id='1226'> +1.3993438e-12 </wgt>
<wgt id='1227'> +1.4029785e-12 </wgt>
<wgt id='1228'> +1.3926077e-12 </wgt>
<wgt id='1229'> +1.4046832e-12 </wgt>
<wgt id='1230'> +1.4030658e-12 </wgt>
<wgt id='1231'> +1.4132253e-12 </wgt>
<wgt id='1232'> +1.4019501e-12 </wgt>
<wgt id='1233'> +1.4011209e-12 </wgt>
<wgt id='1234'> +1.4013154e-12 </wgt>
<wgt id='1235'> +1.3940252e-12 </wgt>
<wgt id='1236'> +1.3968859e-12 </wgt>
<wgt id='1237'> +1.3994231e-12 </wgt>
<wgt id='1238'> +1.4035235e-12 </wgt>
<wgt id='1239'> +1.4051493e-12 </wgt>
<wgt id='1240'> +1.4068587e-12 </wgt>
<wgt id='1241'> +1.3236774e-12 </wgt>
<wgt id='1242'> +1.3055359e-12 </wgt>
<wgt id='1243'> +1.3415776e-12 </wgt>
<wgt id='1244'> +1.3279907e-12 </wgt>
<wgt id='1245'> +1.3204254e-12 </wgt>
<wgt id='1246'> +1.3192028e-12 </wgt>
<wgt id='1247'> +1.3274699e-12 </wgt>
<wgt id='1248'> +1.3236505e-12 </wgt>
<wgt id='1249'> +1.3236917e-12 </wgt>
<wgt id='1250'> +1.3244592e-12 </wgt>
<wgt id='1251'> +1.3231241e-12 </wgt>
<wgt id='1252'> +1.3214630e-12 </wgt>
<wgt id='1253'> +1.3253723e-12 </wgt>
<wgt id='1254'> +1.3189871e-12 </wgt>
<wgt id='1255'> +1.3263652e-12 </wgt>
<wgt id='1256'> +1.3214148e-12 </wgt>
<wgt id='1257'> +1.3293541e-12 </wgt>
<wgt id='1258'> +1.3316429e-12 </wgt>
<wgt id='1259'> +1.3138354e-12 </wgt>
<wgt id='1260'> +1.3255304e-12 </wgt>
<wgt id='1261'> +1.3219837e-12 </wgt>
<wgt id='1262'> +1.3238171e-12 </wgt>
<wgt id='1263'> +1.3239919e-12 </wgt>
<wgt id='1264'> +1.3303645e-12 </wgt>
<wgt id='1265'> +1.3207542e-12 </wgt>
<wgt id='1266'> +1.3015883e-12 </wgt>
<wgt id='1267'> +1.3444033e-12 </wgt>
<wgt id='1268'> +1.3319733e-12 </wgt>
<wgt id='1269'> +1.3166406e-12 </wgt>
<wgt id='1270'> +1.3331821e-12 </wgt>
<wgt id='1271'> +1.3275424e-12 </wgt>
<wgt id='1272'> +1.3280488e-12 </wgt>
<wgt id='1273'> +1.3233762e-12 </wgt>
<wgt id='1274'> +1.3255014e-12 </wgt>
<wgt id='1275'> +1.3213703e-12 </wgt>
<wgt id='1276'> +1.3293960e-12 </wgt>
<wgt id='1277'> +1.3156249e-12 </wgt>
<wgt id='1278'> +1.3392306e-12 </wgt>
<wgt id='1279'> +1.3288120e-12 </wgt>
<wgt id='1280'> +1.3243415e-12 </wgt>
<wgt id='1281'> +1.3258720e-12 </wgt>
<wgt id='1282'> +1.3236774e-12 </wgt>
<wgt id='1283'> +1.3170190e-12 </wgt>
<wgt id='1284'> +1.3198089e-12 </wgt>
<wgt id='1285'> +1.3219450e-12 </wgt>
<wgt id='1286'> +1.3255273e-12 </wgt>
<wgt id='1287'> +1.3267305e-12 </wgt>
<wgt id='1288'> +1.3276920e-12 </wgt>
<wgt id='1289'> +1.4377010e-12 </wgt>
<wgt id='1290'> +1.4414115e-12 </wgt>
<wgt id='1291'> +1.4337238e-12 </wgt>
<wgt id='1292'> +1.4389490e-12 </wgt>
<wgt id='1293'> +1.4368183e-12 </wgt>
<wgt id='1294'> +1.4191133e-12 </wgt>
<wgt id='1295'> +1.4556149e-12 </wgt>
<wgt id='1296'> +1.4435348e-12 </wgt>
<wgt id='1297'> +1.4303266e-12 </wgt>
<wgt id='1298'> +1.4459070e-12 </wgt>
<wgt id='1299'> +1.4273480e-12 </wgt>
<wgt id='1300'> +1.4412262e-12 </wgt>
<wgt id='1301'> +1.4306245e-12 </wgt>
<wgt id='1302'> +1.4332185e-12 </wgt>
<wgt id='1303'> +1.4439342e-12 </wgt>
<wgt id='1304'> +1.4364895e-12 </wgt>
<wgt id='1305'> +1.4384929e-12 </wgt>
<wgt id='1306'> +1.4392728e-12 </wgt>
<wgt id='1307'> +1.4357263e-12 </wgt>
<wgt id='1308'> +1.4299670e-12 </wgt>
<wgt id='1309'> +1.4436378e-12 </wgt>
<wgt id='1310'> +1.4369505e-12 </wgt>
<wgt id='1311'> +1.4387467e-12 </wgt>
<wgt id='1312'> +1.4472094e-12 </wgt>
<wgt id='1313'> +1.4288724e-12 </wgt>
<wgt id='1314'> +1.4175837e-12 </wgt>
<wgt id='1315'> +1.4562925e-12 </wgt>
<wgt id='1316'> +1.4466464e-12 </wgt>
<wgt id='1317'> +1.4385576e-12 </wgt>
<wgt id='1318'> +1.4473541e-12 </wgt>
<wgt id='1319'> +1.4249019e-12 </wgt>
<wgt id='1320'> +1.4534248e-12 </wgt>
<wgt id='1321'> +1.4233943e-12 </wgt>
<wgt id='1322'> +1.4373689e-12 </wgt>
<wgt id='1323'> +1.4387164e-12 </wgt>
<wgt id='1324'> +1.4347146e-12 </wgt>
<wgt id='1325'> +1.4469080e-12 </wgt>
<wgt id='1326'> +1.4364839e-12 </wgt>
<wgt id='1327'> +1.4418303e-12 </wgt>
<wgt id='1328'> +1.4371468e-12 </wgt>
<wgt id='1329'> +1.4377288e-12 </wgt>
<wgt id='1330'> +1.4458236e-12 </wgt>
<wgt id='1331'> +1.4315051e-12 </wgt>
<wgt id='1332'> +1.4504618e-12 </wgt>
<wgt id='1333'> +1.4428479e-12 </wgt>
<wgt id='1334'> +1.4357201e-12 </wgt>
<wgt id='1335'> +1.4438692e-12 </wgt>
<wgt id='1336'> +1.4411681e-12 </wgt>
<wgt id='1337'> +1.4469307e-12 </wgt>
<wgt id='1338'> +1.4376117e-12 </wgt>
<wgt id='1339'> +1.4386377e-12 </wgt>
<wgt id='1340'> +1.4036130e-12 </wgt>
<wgt id='1341'> +1.4070756e-12 </wgt>
<wgt id='1342'> +1.3998774e-12 </wgt>
<wgt id='1343'> +1.4049847e-12 </wgt>
<wgt id='1344'> +1.4026810e-12 </wgt>
<wgt id='1345'> +1.3843675e-12 </wgt>
<wgt id='1346'> +1.4214310e-12 </wgt>
<wgt id='1347'> +1.4103211e-12 </wgt>
<wgt id='1348'> +1.3960106e-12 </wgt>
<wgt id='1349'> +1.4112817e-12 </wgt>
<wgt id='1350'> +1.3960271e-12 </wgt>
<wgt id='1351'> +1.4069572e-12 </wgt>
<wgt id='1352'> +1.3963148e-12 </wgt>
<wgt id='1353'> +1.3980877e-12 </wgt>
<wgt id='1354'> +1.4134634e-12 </wgt>
<wgt id='1355'> +1.4034662e-12 </wgt>
<wgt id='1356'> +1.4036621e-12 </wgt>
<wgt id='1357'> +1.4038856e-12 </wgt>
<wgt id='1358'> +1.4030130e-12 </wgt>
<wgt id='1359'> +1.3958533e-12 </wgt>
<wgt id='1360'> +1.4103234e-12 </wgt>
<wgt id='1361'> +1.4037656e-12 </wgt>
<wgt id='1362'> +1.4036451e-12 </wgt>
<wgt id='1363'> +1.4200706e-12 </wgt>
<wgt id='1364'> +1.3935326e-12 </wgt>
<wgt id='1365'> +1.4132089e-12 </wgt>
<wgt id='1366'> +1.3864369e-12 </wgt>
<wgt id='1367'> +1.4124609e-12 </wgt>
<wgt id='1368'> +1.4031603e-12 </wgt>
<wgt id='1369'> +1.4114568e-12 </wgt>
<wgt id='1370'> +1.3935880e-12 </wgt>
<wgt id='1371'> +1.4166692e-12 </wgt>
<wgt id='1372'> +1.3873481e-12 </wgt>
<wgt id='1373'> +1.4000544e-12 </wgt>
<wgt id='1374'> +1.4073740e-12 </wgt>
<wgt id='1375'> +1.4006725e-12 </wgt>
<wgt id='1376'> +1.4128800e-12 </wgt>
<wgt id='1377'> +1.4022895e-12 </wgt>
<wgt id='1378'> +1.4079941e-12 </wgt>
<wgt id='1379'> +1.4032957e-12 </wgt>
<wgt id='1380'> +1.4033863e-12 </wgt>
<wgt id='1381'> +1.4119138e-12 </wgt>
<wgt id='1382'> +1.3975477e-12 </wgt>
<wgt id='1383'> +1.4143472e-12 </wgt>
<wgt id='1384'> +1.4097400e-12 </wgt>
<wgt id='1385'> +1.4018848e-12 </wgt>
<wgt id='1386'> +1.4084809e-12 </wgt>
<wgt id='1387'> +1.4069053e-12 </wgt>
<wgt id='1388'> +1.4128521e-12 </wgt>
<wgt id='1389'> +1.4036014e-12 </wgt>
<wgt id='1390'> +1.4051723e-12 </wgt>
<wgt id='1391'> +1.3890195e-12 </wgt>
<wgt id='1392'> +1.3405404e-12 </wgt>
<wgt id='1393'> +1.3572294e-12 </wgt>
<wgt id='1394'> +1.3735073e-12 </wgt>
<wgt id='1395'> +1.4059258e-12 </wgt>
<wgt id='1396'> +1.3897286e-12 </wgt>
<wgt id='1397'> +1.3659482e-12 </wgt>
<wgt id='1398'> +1.3694598e-12 </wgt>
<wgt id='1399'> +1.3733820e-12 </wgt>
<wgt id='1400'> +1.3782491e-12 </wgt>
<wgt id='1401'> +1.3839359e-12 </wgt>
<wgt id='1402'> +1.3954206e-12 </wgt>
<wgt id='1403'> +1.4016291e-12 </wgt>
<wgt id='1404'> +1.4079477e-12 </wgt>
<wgt id='1405'> +1.3897286e-12 </wgt>
<wgt id='1406'> +1.3853958e-12 </wgt>
<wgt id='1407'> +1.3876150e-12 </wgt>
<wgt id='1408'> +1.3916551e-12 </wgt>
<wgt id='1409'> +1.3930764e-12 </wgt>
<wgt id='1410'> +1.2963925e-12 </wgt>
<wgt id='1411'> +1.3035559e-12 </wgt>
<wgt id='1412'> +1.2871944e-12 </wgt>
<wgt id='1413'> +1.2862894e-12 </wgt>
<wgt id='1414'> +1.3064694e-12 </wgt>
<wgt id='1415'> +1.2932141e-12 </wgt>
<wgt id='1416'> +1.2976731e-12 </wgt>
<wgt id='1417'> +1.2923203e-12 </wgt>
<wgt id='1418'> +1.3004071e-12 </wgt>
<wgt id='1419'> +1.2984406e-12 </wgt>
<wgt id='1420'> +1.2943914e-12 </wgt>
<wgt id='1421'> +1.2817368e-12 </wgt>
<wgt id='1422'> +1.3025966e-12 </wgt>
<wgt id='1423'> +1.2947935e-12 </wgt>
<wgt id='1424'> +1.2983455e-12 </wgt>
<wgt id='1425'> +1.2880029e-12 </wgt>
<wgt id='1426'> +1.3054144e-12 </wgt>
<wgt id='1427'> +1.2786862e-12 </wgt>
<wgt id='1428'> +1.3058442e-12 </wgt>
<wgt id='1429'> +1.3001456e-12 </wgt>
<wgt id='1430'> +1.2913963e-12 </wgt>
<wgt id='1431'> +1.2976513e-12 </wgt>
<wgt id='1432'> +1.2954644e-12 </wgt>
<wgt id='1433'> +1.2810855e-12 </wgt>
<wgt id='1434'> +1.3083164e-12 </wgt>
<wgt id='1435'> +1.2882029e-12 </wgt>
<wgt id='1436'> +1.3174897e-12 </wgt>
<wgt id='1437'> +1.3044283e-12 </wgt>
<wgt id='1438'> +1.2995465e-12 </wgt>
<wgt id='1439'> +1.2903588e-12 </wgt>
<wgt id='1440'> +1.3052973e-12 </wgt>
<wgt id='1441'> +1.3009437e-12 </wgt>
<wgt id='1442'> +1.2872129e-12 </wgt>
<wgt id='1443'> +1.2932008e-12 </wgt>
<wgt id='1444'> +1.3058052e-12 </wgt>
<wgt id='1445'> +1.3113287e-12 </wgt>
<wgt id='1446'> +1.2916129e-12 </wgt>
<wgt id='1447'> +1.2977709e-12 </wgt>
<wgt id='1448'> +1.2999073e-12 </wgt>
<wgt id='1449'> +1.2965476e-12 </wgt>
<wgt id='1450'> +1.2955301e-12 </wgt>
<wgt id='1451'> +1.2948681e-12 </wgt>
<wgt id='1452'> +1.3044968e-12 </wgt>
<wgt id='1453'> +1.2965117e-12 </wgt>
<wgt id='1454'> +1.2952736e-12 </wgt>
<wgt id='1455'> +1.3077919e-12 </wgt>
<wgt id='1456'> +1.3057997e-12 </wgt>
<wgt id='1457'> +1.3042757e-12 </wgt>
<wgt id='1458'> +1.2950591e-12 </wgt>
<wgt id='1459'> +1.3029826e-12 </wgt>
<wgt id='1460'> +1.3085956e-12 </wgt>
<wgt id='1461'> +1.2963925e-12 </wgt>
<wgt id='1462'> +1.2849129e-12 </wgt>
<wgt id='1463'> +1.3033557e-12 </wgt>
<wgt id='1464'> +1.2936724e-12 </wgt>
<wgt id='1465'> +1.2662056e-12 </wgt>
<wgt id='1466'> +1.2706969e-12 </wgt>
<wgt id='1467'> +1.2757830e-12 </wgt>
<wgt id='1468'> +1.2834753e-12 </wgt>
<wgt id='1469'> +1.2879240e-12 </wgt>
<wgt id='1470'> +1.2997337e-12 </wgt>
<wgt id='1471'> +1.3053908e-12 </wgt>
<wgt id='1472'> +1.3112278e-12 </wgt>
<wgt id='1473'> +1.2936724e-12 </wgt>
<wgt id='1474'> +1.2902716e-12 </wgt>
<wgt id='1475'> +1.2926584e-12 </wgt>
<wgt id='1476'> +1.2948236e-12 </wgt>
<wgt id='1477'> +1.2958483e-12 </wgt>
<wgt id='1478'> +1.3579941e-12 </wgt>
<wgt id='1479'> +1.3577328e-12 </wgt>
<wgt id='1480'> +1.3424117e-12 </wgt>
<wgt id='1481'> +1.3846629e-12 </wgt>
<wgt id='1482'> +1.3590228e-12 </wgt>
<wgt id='1483'> +1.3412574e-12 </wgt>
<wgt id='1484'> +1.3491030e-12 </wgt>
<wgt id='1485'> +1.3656411e-12 </wgt>
<wgt id='1486'> +1.3577850e-12 </wgt>
<wgt id='1487'> +1.3695635e-12 </wgt>
<wgt id='1488'> +1.3553286e-12 </wgt>
<wgt id='1489'> +1.3591724e-12 </wgt>
<wgt id='1490'> +1.3539709e-12 </wgt>
<wgt id='1491'> +1.3643155e-12 </wgt>
<wgt id='1492'> +1.3595095e-12 </wgt>
<wgt id='1493'> +1.3379670e-12 </wgt>
<wgt id='1494'> +1.3546633e-12 </wgt>
<wgt id='1495'> +1.3440840e-12 </wgt>
<wgt id='1496'> +1.3584773e-12 </wgt>
<wgt id='1497'> +1.3587575e-12 </wgt>
<wgt id='1498'> +1.3580237e-12 </wgt>
<wgt id='1499'> +1.3609183e-12 </wgt>
<wgt id='1500'> +1.3580633e-12 </wgt>
<wgt id='1501'> +1.3586355e-12 </wgt>
<wgt id='1502'> +1.3577248e-12 </wgt>
<wgt id='1503'> +1.3628736e-12 </wgt>
<wgt id='1504'> +1.3533134e-12 </wgt>
<wgt id='1505'> +1.3612213e-12 </wgt>
<wgt id='1506'> +1.3591659e-12 </wgt>
<wgt id='1507'> +1.3579259e-12 </wgt>
<wgt id='1508'> +1.3615157e-12 </wgt>
<wgt id='1509'> +1.3076369e-12 </wgt>
<wgt id='1510'> +1.3130788e-12 </wgt>
<wgt id='1511'> +1.2869945e-12 </wgt>
<wgt id='1512'> +1.2941312e-12 </wgt>
<wgt id='1513'> +1.3069270e-12 </wgt>
<wgt id='1514'> +1.3134364e-12 </wgt>
<wgt id='1515'> +1.3109660e-12 </wgt>
<wgt id='1516'> +1.3114120e-12 </wgt>
<wgt id='1517'> +1.3079825e-12 </wgt>
<wgt id='1518'> +1.3077445e-12 </wgt>
<wgt id='1519'> +1.3080947e-12 </wgt>
<wgt id='1520'> +1.3079408e-12 </wgt>
<wgt id='1521'> +1.3077471e-12 </wgt>
<wgt id='1522'> +1.3098407e-12 </wgt>
<wgt id='1523'> +1.3098681e-12 </wgt>
<wgt id='1524'> +1.3062465e-12 </wgt>
<wgt id='1525'> +1.3084764e-12 </wgt>
<wgt id='1526'> +1.3081620e-12 </wgt>
<wgt id='1527'> +1.3068224e-12 </wgt>
<wgt id='1528'> +1.3081143e-12 </wgt>
<wgt id='1529'> +1.3080493e-12 </wgt>
<wgt id='1530'> +1.3090475e-12 </wgt>
<wgt id='1531'> +1.3091476e-12 </wgt>
<wgt id='1532'> +1.3031951e-12 </wgt>
<wgt id='1533'> +1.3085746e-12 </wgt>
<wgt id='1534'> +1.3074535e-12 </wgt>
<wgt id='1535'> +1.3023366e-12 </wgt>
<wgt id='1536'> +1.3099658e-12 </wgt>
<wgt id='1537'> +1.3096925e-12 </wgt>
<wgt id='1538'> +1.2971815e-12 </wgt>
<wgt id='1539'> +1.3089970e-12 </wgt>
<wgt id='1540'> +1.3074493e-12 </wgt>
<wgt id='1541'> +1.3055978e-12 </wgt>
<wgt id='1542'> +1.3057473e-12 </wgt>
<wgt id='1543'> +1.3083095e-12 </wgt>
<wgt id='1544'> +1.3068894e-12 </wgt>
<wgt id='1545'> +1.3056117e-12 </wgt>
<wgt id='1546'> +1.3067640e-12 </wgt>
<wgt id='1547'> +1.3063612e-12 </wgt>
<wgt id='1548'> +1.3083607e-12 </wgt>
<wgt id='1549'> +1.3062585e-12 </wgt>
<wgt id='1550'> +1.3074739e-12 </wgt>
<wgt id='1551'> +1.3085041e-12 </wgt>
<wgt id='1552'> +1.3091341e-12 </wgt>
<wgt id='1553'> +1.3073365e-12 </wgt>
<wgt id='1554'> +1.3062788e-12 </wgt>
<wgt id='1555'> +1.3101362e-12 </wgt>
<wgt id='1556'> +1.3114507e-12 </wgt>
<wgt id='1557'> +1.3073885e-12 </wgt>
<wgt id='1558'> +1.3070534e-12 </wgt>
<wgt id='1559'> +1.3049970e-12 </wgt>
<wgt id='1560'> +1.3071002e-12 </wgt>
<wgt id='1561'> +1.3071167e-12 </wgt>
<wgt id='1562'> +1.3073147e-12 </wgt>
<wgt id='1563'> +1.3073280e-12 </wgt>
<wgt id='1564'> +1.3066443e-12 </wgt>
<wgt id='1565'> +1.3081782e-12 </wgt>
<wgt id='1566'> +1.3079388e-12 </wgt>
<wgt id='1567'> +1.3082760e-12 </wgt>
<wgt id='1568'> +1.3064964e-12 </wgt>
<wgt id='1569'> +1.3103477e-12 </wgt>
<wgt id='1570'> +1.3082999e-12 </wgt>
<wgt id='1571'> +1.3085180e-12 </wgt>
<wgt id='1572'> +1.3084971e-12 </wgt>
<wgt id='1573'> +1.3078836e-12 </wgt>
<wgt id='1574'> +1.3086614e-12 </wgt>
<wgt id='1575'> +1.3065007e-12 </wgt>
<wgt id='1576'> +1.3077264e-12 </wgt>
<wgt id='1577'> +1.3083015e-12 </wgt>
<wgt id='1578'> +1.3093587e-12 </wgt>
<wgt id='1579'> +1.3066401e-12 </wgt>
<wgt id='1580'> +1.3067995e-12 </wgt>
<wgt id='1581'> +1.3080142e-12 </wgt>
<wgt id='1582'> +1.3092300e-12 </wgt>
<wgt id='1583'> +1.3068316e-12 </wgt>
<wgt id='1584'> +1.3083531e-12 </wgt>
<wgt id='1585'> +1.3082115e-12 </wgt>
<wgt id='1586'> +1.3076430e-12 </wgt>
<wgt id='1587'> +1.3072017e-12 </wgt>
<wgt id='1588'> +1.3066018e-12 </wgt>
<wgt id='1589'> +1.3087223e-12 </wgt>
<wgt id='1590'> +1.3074115e-12 </wgt>
<wgt id='1591'> +1.3077691e-12 </wgt>
<wgt id='1592'> +1.3067823e-12 </wgt>
<wgt id='1593'> +1.3089572e-12 </wgt>
<wgt id='1594'> +1.3072425e-12 </wgt>
<wgt id='1595'> +1.3079010e-12 </wgt>
<wgt id='1596'> +1.3063728e-12 </wgt>
<wgt id='1597'> +1.3085555e-12 </wgt>
<wgt id='1598'> +1.3072899e-12 </wgt>
<wgt id='1599'> +1.3077636e-12 </wgt>
<wgt id='1600'> +1.3064000e-12 </wgt>
<wgt id='1601'> +1.3077606e-12 </wgt>
<wgt id='1602'> +1.3078370e-12 </wgt>
<wgt id='1603'> +1.3085904e-12 </wgt>
<wgt id='1604'> +1.3082916e-12 </wgt>
<wgt id='1605'> +1.3080812e-12 </wgt>
<wgt id='1606'> +1.3073420e-12 </wgt>
<wgt id='1607'> +1.3072580e-12 </wgt>
<wgt id='1608'> +1.3082364e-12 </wgt>
<wgt id='1609'> +1.3081527e-12 </wgt>
<wgt id='1610'> +1.2932650e-12 </wgt>
<wgt id='1611'> +1.3208439e-12 </wgt>
<wgt id='1612'> +1.5403945e-12 </wgt>
<wgt id='1613'> +1.5105038e-12 </wgt>
<wgt id='1614'> +1.4759333e-12 </wgt>
<wgt id='1615'> +1.5235846e-12 </wgt>
<wgt id='1616'> +1.4825525e-12 </wgt>
<wgt id='1617'> +1.5024070e-12 </wgt>
<wgt id='1618'> +1.5613124e-12 </wgt>
<wgt id='1619'> +1.5167926e-12 </wgt>
<wgt id='1620'> +1.5155034e-12 </wgt>
<wgt id='1621'> +1.5471669e-12 </wgt>
<wgt id='1622'> +1.5535462e-12 </wgt>
<wgt id='1623'> +1.5346165e-12 </wgt>
<wgt id='1624'> +1.5871874e-12 </wgt>
<wgt id='1625'> +1.4775877e-12 </wgt>
<wgt id='1626'> +1.5114590e-12 </wgt>
<wgt id='1627'> +1.5745872e-12 </wgt>
<wgt id='1628'> +1.4844720e-12 </wgt>
<wgt id='1629'> +1.5674377e-12 </wgt>
<wgt id='1630'> +1.4888968e-12 </wgt>
<wgt id='1631'> +1.5040908e-12 </wgt>
<wgt id='1632'> +1.4620997e-12 </wgt>
<wgt id='1633'> +1.4685757e-12 </wgt>
<wgt id='1634'> +1.5284322e-12 </wgt>
<wgt id='1635'> +1.5659405e-12 </wgt>
<wgt id='1636'> +1.5543548e-12 </wgt>
<wgt id='1637'> +1.5800813e-12 </wgt>
<wgt id='1638'> +1.5570836e-12 </wgt>
<wgt id='1639'> +1.5139822e-12 </wgt>
<wgt id='1640'> +1.5376665e-12 </wgt>
<wgt id='1641'> +1.5358174e-12 </wgt>
<wgt id='1642'> +1.4747259e-12 </wgt>
<wgt id='1643'> +1.5087231e-12 </wgt>
<wgt id='1644'> +1.5682580e-12 </wgt>
<wgt id='1645'> +1.5081609e-12 </wgt>
<wgt id='1646'> +1.5395764e-12 </wgt>
<wgt id='1647'> +1.5772862e-12 </wgt>
<wgt id='1648'> +1.5430879e-12 </wgt>
<wgt id='1649'> +1.6387610e-12 </wgt>
<wgt id='1650'> +1.5028537e-12 </wgt>
<wgt id='1651'> +1.5590013e-12 </wgt>
<wgt id='1652'> +1.5000343e-12 </wgt>
<wgt id='1653'> +1.5537629e-12 </wgt>
<wgt id='1654'> +1.5489657e-12 </wgt>
<wgt id='1655'> +1.5911978e-12 </wgt>
<wgt id='1656'> +1.5177092e-12 </wgt>
<wgt id='1657'> +1.5585808e-12 </wgt>
<wgt id='1658'> +1.5078582e-12 </wgt>
<wgt id='1659'> +1.5871874e-12 </wgt>
<wgt id='1660'> +1.5640307e-12 </wgt>
<wgt id='1661'> +1.5690738e-12 </wgt>
<wgt id='1662'> +1.6192679e-12 </wgt>
<wgt id='1663'> +1.5316945e-12 </wgt>
<wgt id='1664'> +1.5162734e-12 </wgt>
<wgt id='1665'> +1.5125492e-12 </wgt>
<wgt id='1666'> +1.5680892e-12 </wgt>
<wgt id='1667'> +1.5363944e-12 </wgt>
<wgt id='1668'> +1.5687314e-12 </wgt>
<wgt id='1669'> +1.5616244e-12 </wgt>
<wgt id='1670'> +1.5106285e-12 </wgt>
<wgt id='1671'> +1.5155739e-12 </wgt>
<wgt id='1672'> +1.5669726e-12 </wgt>
<wgt id='1673'> +1.5419562e-12 </wgt>
<wgt id='1674'> +1.5119374e-12 </wgt>
<wgt id='1675'> +1.5319580e-12 </wgt>
<wgt id='1676'> +1.5180939e-12 </wgt>
<wgt id='1677'> +1.5374522e-12 </wgt>
<wgt id='1678'> +1.5164002e-12 </wgt>
<wgt id='1679'> +1.5417789e-12 </wgt>
<wgt id='1680'> +1.6020784e-12 </wgt>
<wgt id='1681'> +1.5754030e-12 </wgt>
<wgt id='1682'> +1.5291980e-12 </wgt>
<wgt id='1683'> +1.5487630e-12 </wgt>
<wgt id='1684'> +1.6020078e-12 </wgt>
<wgt id='1685'> +1.5402710e-12 </wgt>
<wgt id='1686'> +1.5249933e-12 </wgt>
<wgt id='1687'> +1.5596720e-12 </wgt>
<wgt id='1688'> +1.5195757e-12 </wgt>
<wgt id='1689'> +1.6143749e-12 </wgt>
<wgt id='1690'> +1.5350953e-12 </wgt>
<wgt id='1691'> +1.4766682e-12 </wgt>
<wgt id='1692'> +1.5700240e-12 </wgt>
<wgt id='1693'> +1.5323556e-12 </wgt>
<wgt id='1694'> +1.5230920e-12 </wgt>
<wgt id='1695'> +1.5500918e-12 </wgt>
<wgt id='1696'> +1.5286601e-12 </wgt>
<wgt id='1697'> +1.5414898e-12 </wgt>
<wgt id='1698'> +1.5595691e-12 </wgt>
<wgt id='1699'> +1.5644262e-12 </wgt>
<wgt id='1700'> +1.5148061e-12 </wgt>
<wgt id='1701'> +1.6153415e-12 </wgt>
<wgt id='1702'> +1.4943915e-12 </wgt>
<wgt id='1703'> +1.5156323e-12 </wgt>
<wgt id='1704'> +1.5130806e-12 </wgt>
<wgt id='1705'> +1.4651842e-12 </wgt>
<wgt id='1706'> +1.5926667e-12 </wgt>
<wgt id='1707'> +1.5692652e-12 </wgt>
<wgt id='1708'> +1.6244728e-12 </wgt>
<wgt id='1709'> +1.6052668e-12 </wgt>
<wgt id='1710'> +1.5333735e-12 </wgt>
<wgt id='1711'> +1.5427186e-12 </wgt>
<wgt id='1712'> +1.6032995e-12 </wgt>
<wgt id='1713'> +1.3166135e-12 </wgt>
<wgt id='1714'> +1.3145765e-12 </wgt>
<wgt id='1715'> +1.2816660e-12 </wgt>
<wgt id='1716'> +1.3461125e-12 </wgt>
<wgt id='1717'> +1.3295590e-12 </wgt>
<wgt id='1718'> +1.3449539e-12 </wgt>
<wgt id='1719'> +1.3401585e-12 </wgt>
<wgt id='1720'> +1.2652010e-12 </wgt>
<wgt id='1721'> +1.2869474e-12 </wgt>
<wgt id='1722'> +1.3081159e-12 </wgt>
<wgt id='1723'> +1.3711671e-12 </wgt>
<wgt id='1724'> +1.3078953e-12 </wgt>
<wgt id='1725'> +1.3201325e-12 </wgt>
<wgt id='1726'> +1.3188132e-12 </wgt>
<wgt id='1727'> +1.3705392e-12 </wgt>
<wgt id='1728'> +1.3020019e-12 </wgt>
<wgt id='1729'> +1.2557069e-12 </wgt>
<wgt id='1730'> +1.2939058e-12 </wgt>
<wgt id='1731'> +1.2463868e-12 </wgt>
<wgt id='1732'> +1.3208746e-12 </wgt>
<wgt id='1733'> +1.2509196e-12 </wgt>
<wgt id='1734'> +1.3913537e-12 </wgt>
<wgt id='1735'> +1.2890910e-12 </wgt>
<wgt id='1736'> +1.3357664e-12 </wgt>
<wgt id='1737'> +1.3701709e-12 </wgt>
<wgt id='1738'> +1.3046967e-12 </wgt>
<wgt id='1739'> +1.3216563e-12 </wgt>
<wgt id='1740'> +1.2329594e-12 </wgt>
<wgt id='1741'> +1.3680785e-12 </wgt>
<wgt id='1742'> +1.3001488e-12 </wgt>
<wgt id='1743'> +1.2849075e-12 </wgt>
<wgt id='1744'> +1.3407130e-12 </wgt>
<wgt id='1745'> +1.3386790e-12 </wgt>
<wgt id='1746'> +1.2915121e-12 </wgt>
<wgt id='1747'> +1.3811306e-12 </wgt>
<wgt id='1748'> +1.3101257e-12 </wgt>
<wgt id='1749'> +1.3062968e-12 </wgt>
<wgt id='1750'> +1.2900589e-12 </wgt>
<wgt id='1751'> +1.2970077e-12 </wgt>
<wgt id='1752'> +1.3113672e-12 </wgt>
<wgt id='1753'> +1.3306204e-12 </wgt>
<wgt id='1754'> +1.3374970e-12 </wgt>
<wgt id='1755'> +1.3254298e-12 </wgt>
<wgt id='1756'> +1.3409345e-12 </wgt>
<wgt id='1757'> +1.3438968e-12 </wgt>
<wgt id='1758'> +1.3782576e-12 </wgt>
<wgt id='1759'> +1.3469807e-12 </wgt>
<wgt id='1760'> +1.3127576e-12 </wgt>
<wgt id='1761'> +1.3222328e-12 </wgt>
<wgt id='1762'> +1.2916136e-12 </wgt>
<wgt id='1763'> +1.3408610e-12 </wgt>
<wgt id='1764'> +1.3607912e-12 </wgt>
<wgt id='1765'> +1.3030603e-12 </wgt>
<wgt id='1766'> +1.3520274e-12 </wgt>
<wgt id='1767'> +1.3165525e-12 </wgt>
<wgt id='1768'> +1.3376104e-12 </wgt>
<wgt id='1769'> +1.3337894e-12 </wgt>
<wgt id='1770'> +1.3063499e-12 </wgt>
<wgt id='1771'> +1.3741749e-12 </wgt>
<wgt id='1772'> +1.3088263e-12 </wgt>
<wgt id='1773'> +1.3216012e-12 </wgt>
<wgt id='1774'> +1.2968081e-12 </wgt>
<wgt id='1775'> +1.3147783e-12 </wgt>
<wgt id='1776'> +1.3725701e-12 </wgt>
<wgt id='1777'> +1.2559604e-12 </wgt>
<wgt id='1778'> +1.3228452e-12 </wgt>
<wgt id='1779'> +1.3033624e-12 </wgt>
<wgt id='1780'> +1.3050314e-12 </wgt>
<wgt id='1781'> +1.3491639e-12 </wgt>
<wgt id='1782'> +1.3067832e-12 </wgt>
<wgt id='1783'> +1.3299201e-12 </wgt>
<wgt id='1784'> +1.3049879e-12 </wgt>
<wgt id='1785'> +1.3191816e-12 </wgt>
<wgt id='1786'> +1.3049768e-12 </wgt>
<wgt id='1787'> +1.4070459e-12 </wgt>
<wgt id='1788'> +1.3030313e-12 </wgt>
<wgt id='1789'> +1.3963591e-12 </wgt>
<wgt id='1790'> +1.3233650e-12 </wgt>
<wgt id='1791'> +1.2955599e-12 </wgt>
<wgt id='1792'> +1.2897302e-12 </wgt>
<wgt id='1793'> +1.2946647e-12 </wgt>
<wgt id='1794'> +1.3567222e-12 </wgt>
<wgt id='1795'> +1.3272220e-12 </wgt>
<wgt id='1796'> +1.2837435e-12 </wgt>
<wgt id='1797'> +1.3228774e-12 </wgt>
<wgt id='1798'> +1.3060598e-12 </wgt>
<wgt id='1799'> +1.2976085e-12 </wgt>
<wgt id='1800'> +1.3330841e-12 </wgt>
<wgt id='1801'> +1.3123573e-12 </wgt>
<wgt id='1802'> +1.2825893e-12 </wgt>
<wgt id='1803'> +1.3303105e-12 </wgt>
<wgt id='1804'> +1.3336968e-12 </wgt>
<wgt id='1805'> +1.2771851e-12 </wgt>
<wgt id='1806'> +1.2900860e-12 </wgt>
<wgt id='1807'> +1.2911894e-12 </wgt>
<wgt id='1808'> +1.2819600e-12 </wgt>
<wgt id='1809'> +1.2957399e-12 </wgt>
<wgt id='1810'> +1.2865567e-12 </wgt>
<wgt id='1811'> +1.3212935e-12 </wgt>
<wgt id='1812'> +1.2858626e-12 </wgt>
<wgt id='1813'> +1.2329883e-12 </wgt>
<wgt id='1814'> +1.6830688e-12 </wgt>
<wgt id='1815'> +2.0617621e-12 </wgt>
<wgt id='1816'> +1.3166135e-12 </wgt>
<wgt id='1817'> +1.3145765e-12 </wgt>
<wgt id='1818'> +1.2816660e-12 </wgt>
<wgt id='1819'> +1.3461125e-12 </wgt>
<wgt id='1820'> +1.3295590e-12 </wgt>
<wgt id='1821'> +1.3449539e-12 </wgt>
<wgt id='1822'> +1.3401585e-12 </wgt>
<wgt id='1823'> +1.2652010e-12 </wgt>
<wgt id='1824'> +1.2869474e-12 </wgt>
<wgt id='1825'> +1.3081159e-12 </wgt>
<wgt id='1826'> +1.3711671e-12 </wgt>
<wgt id='1827'> +1.3078953e-12 </wgt>
<wgt id='1828'> +1.3201325e-12 </wgt>
<wgt id='1829'> +1.3188132e-12 </wgt>
<wgt id='1830'> +1.3705392e-12 </wgt>
<wgt id='1831'> +1.3020019e-12 </wgt>
<wgt id='1832'> +1.2557069e-12 </wgt>
<wgt id='1833'> +1.2939058e-12 </wgt>
<wgt id='1834'> +1.2463868e-12 </wgt>
<wgt id='1835'> +1.3208746e-12 </wgt>
<wgt id='1836'> +1.2509196e-12 </wgt>
<wgt id='1837'> +1.3913537e-12 </wgt>
<wgt id='1838'> +1.2890910e-12 </wgt>
<wgt id='1839'> +1.3357664e-12 </wgt>
<wgt id='1840'> +1.3701709e-12 </wgt>
<wgt id='1841'> +1.3046967e-12 </wgt>
<wgt id='1842'> +1.3216563e-12 </wgt>
<wgt id='1843'> +1.2329594e-12 </wgt>
<wgt id='1844'> +1.3680785e-12 </wgt>
<wgt id='1845'> +1.3001488e-12 </wgt>
<wgt id='1846'> +1.2849075e-12 </wgt>
<wgt id='1847'> +1.3407130e-12 </wgt>
<wgt id='1848'> +1.3386790e-12 </wgt>
<wgt id='1849'> +1.2915121e-12 </wgt>
<wgt id='1850'> +1.3811306e-12 </wgt>
<wgt id='1851'> +1.3101257e-12 </wgt>
<wgt id='1852'> +1.3062968e-12 </wgt>
<wgt id='1853'> +1.2900589e-12 </wgt>
<wgt id='1854'> +1.2970077e-12 </wgt>
<wgt id='1855'> +1.3113672e-12 </wgt>
<wgt id='1856'> +1.3306204e-12 </wgt>
<wgt id='1857'> +1.3374970e-12 </wgt>
<wgt id='1858'> +1.3254298e-12 </wgt>
<wgt id='1859'> +1.3409345e-12 </wgt>
<wgt id='1860'> +1.3438968e-12 </wgt>
<wgt id='1861'> +1.3782576e-12 </wgt>
<wgt id='1862'> +1.3469807e-12 </wgt>
<wgt id='1863'> +1.3127576e-12 </wgt>
<wgt id='1864'> +1.3222328e-12 </wgt>
<wgt id='1865'> +1.2916136e-12 </wgt>
<wgt id='1866'> +1.3408610e-12 </wgt>
<wgt id='1867'> +1.3607912e-12 </wgt>
<wgt id='1868'> +1.3030603e-12 </wgt>
<wgt id='1869'> +1.3520274e-12 </wgt>
<wgt id='1870'> +1.3165525e-12 </wgt>
<wgt id='1871'> +1.3376104e-12 </wgt>
<wgt id='1872'> +1.3337894e-12 </wgt>
<wgt id='1873'> +1.3063499e-12 </wgt>
<wgt id='1874'> +1.3741749e-12 </wgt>
<wgt id='1875'> +1.3088263e-12 </wgt>
<wgt id='1876'> +1.3216012e-12 </wgt>
<wgt id='1877'> +1.2968081e-12 </wgt>
<wgt id='1878'> +1.3147783e-12 </wgt>
<wgt id='1879'> +1.3725701e-12 </wgt>
<wgt id='1880'> +1.2559604e-12 </wgt>
<wgt id='1881'> +1.3228452e-12 </wgt>
<wgt id='1882'> +1.3033624e-12 </wgt>
<wgt id='1883'> +1.3050314e-12 </wgt>
<wgt id='1884'> +1.3491639e-12 </wgt>
<wgt id='1885'> +1.3067832e-12 </wgt>
<wgt id='1886'> +1.3299201e-12 </wgt>
<wgt id='1887'> +1.3049879e-12 </wgt>
<wgt id='1888'> +1.3191816e-12 </wgt>
<wgt id='1889'> +1.3049768e-12 </wgt>
<wgt id='1890'> +1.4070459e-12 </wgt>
<wgt id='1891'> +1.3030313e-12 </wgt>
<wgt id='1892'> +1.3963591e-12 </wgt>
<wgt id='1893'> +1.3233650e-12 </wgt>
<wgt id='1894'> +1.2955599e-12 </wgt>
<wgt id='1895'> +1.2897302e-12 </wgt>
<wgt id='1896'> +1.2946647e-12 </wgt>
<wgt id='1897'> +1.3567222e-12 </wgt>
<wgt id='1898'> +1.3272220e-12 </wgt>
<wgt id='1899'> +1.2837435e-12 </wgt>
<wgt id='1900'> +1.3228774e-12 </wgt>
<wgt id='1901'> +1.3060598e-12 </wgt>
<wgt id='1902'> +1.2976085e-12 </wgt>
<wgt id='1903'> +1.3330841e-12 </wgt>
<wgt id='1904'> +1.3123573e-12 </wgt>
<wgt id='1905'> +1.2825893e-12 </wgt>
<wgt id='1906'> +1.3303105e-12 </wgt>
<wgt id='1907'> +1.3336968e-12 </wgt>
<wgt id='1908'> +1.2771851e-12 </wgt>
<wgt id='1909'> +1.2900860e-12 </wgt>
<wgt id='1910'> +1.2911894e-12 </wgt>
<wgt id='1911'> +1.2819600e-12 </wgt>
<wgt id='1912'> +1.2957399e-12 </wgt>
<wgt id='1913'> +1.2865567e-12 </wgt>
<wgt id='1914'> +1.3212935e-12 </wgt>
<wgt id='1915'> +1.2858626e-12 </wgt>
<wgt id='1916'> +1.2329883e-12 </wgt>
<wgt id='1917'> +1.3093031e-12 </wgt>
<wgt id='1918'> +1.3346096e-12 </wgt>
<wgt id='1919'> +1.2698985e-12 </wgt>
</rwgt>
</event>
<event>
 9      1 +1.5538000e-12 5.84735800e+01 7.81860800e-03 1.27437900e-01
        4 -1    0    0  502    0 -0.0000000000e+00 +0.0000000000e+00 +1.3169374112e+00 1.9366786375e+00 0.0000000000e+00 0.0000e+00 -1.0000e+00
       21 -1    0    0  501  502 +0.0000000000e+00 -0.0000000000e+00 -5.2513002004e+02 5.2513002004e+02 1.4200000000e+00 0.0000e+00 -1.0000e+00
     1023  2    1    2    0    0 +2.5357869344e+01 -4.6164782818e-01 -3.6988063521e+02 3.7105243835e+02 1.4999768259e+01 0.0000e+00 0.0000e+00
  1000023  2    3    3    0    0 +1.7373547804e+01 -2.6300049684e+00 -2.9094169290e+02 2.9152377826e+02 5.5034111243e+00 0.0000e+00 0.0000e+00
        4  1    1    2  501    0 -2.5357869344e+01 +4.6164782818e-01 -1.5393244742e+02 1.5601426033e+02 1.4200000000e+00 0.0000e+00 -1.0000e+00
  1000022  1    4    4    0    0 +1.6409565340e+01 -2.5785737792e+00 -2.6960933460e+02 2.7016683028e+02 5.0000000000e+00 0.0000e+00 -1.0000e+00
      -11  1    4    4    0    0 +7.3291874538e-01 -1.4310093679e-02 -1.8649572198e+01 1.8663973802e+01 5.1100000000e-04 0.0000e+00 1.0000e+00
       11  1    4    4    0    0 +2.3106371853e-01 -3.7121095526e-02 -2.6827860974e+00 2.6929741780e+00 5.1100000000e-04 0.0000e+00 -1.0000e+00
  1000022  1    3    3    0    0 +7.9843215397e+00 +2.1683571402e+00 -7.8938942307e+01 7.9528660090e+01 5.0000000000e+00 0.0000e+00 1.0000e+00
<mgrwt>
<rscale>  1 0.58473578E+02</rscale>
<asrwt>0</asrwt>
<pdfrwt beam="1">  1       21 0.80789314E-01 0.58473578E+02</pdfrwt>
<pdfrwt beam="2">  1        4 0.25042559E-03 0.58473578E+02</pdfrwt>
<totfact> 0.13629279E+06</totfact>
</mgrwt>
<rwgt>
<wgt id='1001'> +1.5538000e-12 </wgt>
<wgt id='1002'> +1.5551227e-12 </wgt>
<wgt id='1003'> +1.5548456e-12 </wgt>
<wgt id='1004'> +1.5407147e-12 </wgt>
<wgt id='1005'> +1.5538000e-12 </wgt>
<wgt id='1006'> +1.3816812e-12 </wgt>
<wgt id='1007'> +1.3789042e-12 </wgt>
<wgt id='1008'> +1.3799071e-12 </wgt>
<wgt id='1009'> +1.3437217e-12 </wgt>
<wgt id='1010'> +1.3816812e-12 </wgt>
<wgt id='1011'> +1.7770009e-12 </wgt>
<wgt id='1012'> +1.7852646e-12 </wgt>
<wgt id='1013'> +1.7827899e-12 </wgt>
<wgt id='1014'> +1.8088569e-12 </wgt>
<wgt id='1015'> +1.7770009e-12 </wgt>
<wgt id='1016'> +1.7219771e-12 </wgt>
<wgt id='1017'> +1.7336091e-12 </wgt>
<wgt id='1018'> +1.7300361e-12 </wgt>
<wgt id='1019'> +1.7827899e-12 </wgt>
<wgt id='1020'> +1.7219771e-12 </wgt>
<wgt id='1021'> +1.5312288e-12 </wgt>
<wgt id='1022'> +1.5371655e-12 </wgt>
<wgt id='1023'> +1.5353866e-12 </wgt>
<wgt id='1024'> +1.5548456e-12 </wgt>
<wgt id='1025'> +1.5312288e-12 </wgt>
<wgt id='1026'> +1.9693364e-12 </wgt>
<wgt id='1027'> +1.9901652e-12 </wgt>
<wgt id='1028'> +1.9836637e-12 </wgt>
<wgt id='1029'> +2.0930623e-12 </wgt>
<wgt id='1030'> +1.9693364e-12 </wgt>
<wgt id='1031'> +1.3512238e-12 </wgt>
<wgt id='1032'> +1.3400360e-12 </wgt>
<wgt id='1033'> +1.3437217e-12 </wgt>
<wgt id='1034'> +1.2491578e-12 </wgt>
<wgt id='1035'> +1.3512238e-12 </wgt>
<wgt id='1036'> +1.2015449e-12 </wgt>
<wgt id='1037'> +1.1881901e-12 </wgt>
<wgt id='1038'> +1.1925371e-12 </wgt>
<wgt id='1039'> +1.0894428e-12 </wgt>
<wgt id='1040'> +1.2015449e-12 </wgt>
<wgt id='1041'> +1.5453250e-12 </wgt>
<wgt id='1042'> +1.5383474e-12 </wgt>
<wgt id='1043'> +1.5407147e-12 </wgt>
<wgt id='1044'> +1.4665582e-12 </wgt>
<wgt id='1045'> +1.5453250e-12 </wgt>
<wgt id='1046'> +1.5538000e-12 </wgt>
<wgt id='1047'> +1.5557526e-12 </wgt>
<wgt id='1048'> +1.5767319e-12 </wgt>
<wgt id='1049'> +1.4805380e-12 </wgt>
<wgt id='1050'> +1.5642181e-12 </wgt>
<wgt id='1051'> +1.5176703e-12 </wgt>
<wgt id='1052'> +1.5570523e-12 </wgt>
<wgt id='1053'> +1.5910473e-12 </wgt>
<wgt id='1054'> +1.5787308e-12 </wgt>
<wgt id='1055'> +1.5241777e-12 </wgt>
<wgt id='1056'> +1.5648731e-12 </wgt>
<wgt id='1057'> +1.5391326e-12 </wgt>
<wgt id='1058'> +1.5309194e-12 </wgt>
<wgt id='1059'> +1.5494362e-12 </wgt>
<wgt id='1060'> +1.5606186e-12 </wgt>
<wgt id='1061'> +1.5220115e-12 </wgt>
<wgt id='1062'> +1.5292869e-12 </wgt>
<wgt id='1063'> +1.5445706e-12 </wgt>
<wgt id='1064'> +1.5773386e-12 </wgt>
<wgt id='1065'> +1.5401036e-12 </wgt>
<wgt id='1066'> +1.5473522e-12 </wgt>
<wgt id='1067'> +1.5632130e-12 </wgt>
<wgt id='1068'> +1.5581060e-12 </wgt>
<wgt id='1069'> +1.5875302e-12 </wgt>
<wgt id='1070'> +1.5695798e-12 </wgt>
<wgt id='1071'> +1.5317544e-12 </wgt>
<wgt id='1072'> +1.5207366e-12 </wgt>
<wgt id='1073'> +1.5486910e-12 </wgt>
<wgt id='1074'> +1.5437110e-12 </wgt>
<wgt id='1075'> +1.5359747e-12 </wgt>
<wgt id='1076'> +1.5665477e-12 </wgt>
<wgt id='1077'> +1.5874590e-12 </wgt>
<wgt id='1078'> +1.5659058e-12 </wgt>
<wgt id='1079'> +1.5328121e-12 </wgt>
<wgt id='1080'> +1.5862562e-12 </wgt>
<wgt id='1081'> +1.5271687e-12 </wgt>
<wgt id='1082'> +1.5366331e-12 </wgt>
<wgt id='1083'> +1.5127608e-12 </wgt>
<wgt id='1084'> +1.5373636e-12 </wgt>
<wgt id='1085'> +1.5547857e-12 </wgt>
<wgt id='1086'> +1.5998795e-12 </wgt>
<wgt id='1087'> +1.5240528e-12 </wgt>
<wgt id='1088'> +1.5696900e-12 </wgt>
<wgt id='1089'> +1.5539281e-12 </wgt>
<wgt id='1090'> +1.5699365e-12 </wgt>
<wgt id='1091'> +1.5519332e-12 </wgt>
<wgt id='1092'> +1.5517697e-12 </wgt>
<wgt id='1093'> +1.5910255e-12 </wgt>
<wgt id='1094'> +1.5987287e-12 </wgt>
<wgt id='1095'> +1.5450807e-12 </wgt>
<wgt id='1096'> +1.5278190e-12 </wgt>
<wgt id='1097'> +1.5575847e-12 </wgt>
<wgt id='1098'> +1.5733431e-12 </wgt>
<wgt id='1099'> +1.5333010e-12 </wgt>
<wgt id='1100'> +1.5657523e-12 </wgt>
<wgt id='1101'> +1.5343007e-12 </wgt>
<wgt id='1102'> +1.5445351e-12 </wgt>
<wgt id='1103'> +1.5277411e-12 </wgt>
<wgt id='1104'> +1.5489661e-12 </wgt>
<wgt id='1105'> +1.4826651e-12 </wgt>
<wgt id='1106'> +1.5360247e-12 </wgt>
<wgt id='1107'> +1.6066714e-12 </wgt>
<wgt id='1108'> +1.5532109e-12 </wgt>
<wgt id='1109'> +1.5248682e-12 </wgt>
<wgt id='1110'> +1.5596659e-12 </wgt>
<wgt id='1111'> +1.5268432e-12 </wgt>
<wgt id='1112'> +1.5423402e-12 </wgt>
<wgt id='1113'> +1.5918826e-12 </wgt>
<wgt id='1114'> +1.5750821e-12 </wgt>
<wgt id='1115'> +1.5726904e-12 </wgt>
<wgt id='1116'> +1.6766993e-12 </wgt>
<wgt id='1117'> +1.5417866e-12 </wgt>
<wgt id='1118'> +1.5214604e-12 </wgt>
<wgt id='1119'> +1.5521241e-12 </wgt>
<wgt id='1120'> +1.5035037e-12 </wgt>
<wgt id='1121'> +1.5365371e-12 </wgt>
<wgt id='1122'> +1.4985072e-12 </wgt>
<wgt id='1123'> +1.6247762e-12 </wgt>
<wgt id='1124'> +1.5337701e-12 </wgt>
<wgt id='1125'> +1.5198620e-12 </wgt>
<wgt id='1126'> +1.6103828e-12 </wgt>
<wgt id='1127'> +1.5956302e-12 </wgt>
<wgt id='1128'> +1.5292869e-12 </wgt>
<wgt id='1129'> +1.5766187e-12 </wgt>
<wgt id='1130'> +1.5407700e-12 </wgt>
<wgt id='1131'> +1.5205439e-12 </wgt>
<wgt id='1132'> +1.5978430e-12 </wgt>
<wgt id='1133'> +1.5187264e-12 </wgt>
<wgt id='1134'> +1.5880086e-12 </wgt>
<wgt id='1135'> +1.5878986e-12 </wgt>
<wgt id='1136'> +1.5513582e-12 </wgt>
<wgt id='1137'> +1.5370931e-12 </wgt>
<wgt id='1138'> +1.5318314e-12 </wgt>
<wgt id='1139'> +1.5533055e-12 </wgt>
<wgt id='1140'> +1.5872850e-12 </wgt>
<wgt id='1141'> +1.5792415e-12 </wgt>
<wgt id='1142'> +1.5550964e-12 </wgt>
<wgt id='1143'> +1.5675648e-12 </wgt>
<wgt id='1144'> +1.5695101e-12 </wgt>
<wgt id='1145'> +1.5653931e-12 </wgt>
<wgt id='1146'> +1.5430940e-12 </wgt>
<wgt id='1147'> +1.2518826e-12 </wgt>
<wgt id='1148'> +1.2818063e-12 </wgt>
<wgt id='1149'> +1.2979190e-12 </wgt>
<wgt id='1150'> +1.2871919e-12 </wgt>
<wgt id='1151'> +1.1051598e-12 </wgt>
<wgt id='1152'> +1.6348625e-12 </wgt>
<wgt id='1153'> +1.6291362e-12 </wgt>
<wgt id='1154'> +1.6382235e-12 </wgt>
<wgt id='1155'> +1.6355587e-12 </wgt>
<wgt id='1156'> +1.6345949e-12 </wgt>
<wgt id='1157'> +1.6314302e-12 </wgt>
<wgt id='1158'> +1.6395453e-12 </wgt>
<wgt id='1159'> +1.6320940e-12 </wgt>
<wgt id='1160'> +1.6367290e-12 </wgt>
<wgt id='1161'> +1.6275557e-12 </wgt>
<wgt id='1162'> +1.6399491e-12 </wgt>
<wgt id='1163'> +1.6393691e-12 </wgt>
<wgt id='1164'> +1.6303830e-12 </wgt>
<wgt id='1165'> +1.6221115e-12 </wgt>
<wgt id='1166'> +1.6473629e-12 </wgt>
<wgt id='1167'> +1.6428422e-12 </wgt>
<wgt id='1168'> +1.6238792e-12 </wgt>
<wgt id='1169'> +1.6369467e-12 </wgt>
<wgt id='1170'> +1.6333615e-12 </wgt>
<wgt id='1171'> +1.6360349e-12 </wgt>
<wgt id='1172'> +1.6334281e-12 </wgt>
<wgt id='1173'> +1.6360031e-12 </wgt>
<wgt id='1174'> +1.6329750e-12 </wgt>
<wgt id='1175'> +1.6357342e-12 </wgt>
<wgt id='1176'> +1.6334354e-12 </wgt>
<wgt id='1177'> +1.6355615e-12 </wgt>
<wgt id='1178'> +1.6335802e-12 </wgt>
<wgt id='1179'> +1.6380889e-12 </wgt>
<wgt id='1180'> +1.6270715e-12 </wgt>
<wgt id='1181'> +1.6328734e-12 </wgt>
<wgt id='1182'> +1.6374736e-12 </wgt>
<wgt id='1183'> +1.6354411e-12 </wgt>
<wgt id='1184'> +1.6349398e-12 </wgt>
<wgt id='1185'> +1.6383823e-12 </wgt>
<wgt id='1186'> +1.6333211e-12 </wgt>
<wgt id='1187'> +1.6344687e-12 </wgt>
<wgt id='1188'> +1.6350134e-12 </wgt>
<wgt id='1189'> +1.6407154e-12 </wgt>
<wgt id='1190'> +1.6010287e-12 </wgt>
<wgt id='1191'> +1.6232523e-12 </wgt>
<wgt id='1192'> +1.6513138e-12 </wgt>
<wgt id='1193'> +1.3191112e-12 </wgt>
<wgt id='1194'> +1.3054317e-12 </wgt>
<wgt id='1195'> +1.3302185e-12 </wgt>
<wgt id='1196'> +1.3186283e-12 </wgt>
<wgt id='1197'> +1.3195121e-12 </wgt>
<wgt id='1198'> +1.3214513e-12 </wgt>
<wgt id='1199'> +1.3155274e-12 </wgt>
<wgt id='1200'> +1.3200223e-12 </wgt>
<wgt id='1201'> +1.3184945e-12 </wgt>
<wgt id='1202'> +1.3152571e-12 </wgt>
<wgt id='1203'> +1.3243243e-12 </wgt>
<wgt id='1204'> +1.2972609e-12 </wgt>
<wgt id='1205'> +1.3325255e-12 </wgt>
<wgt id='1206'> +1.3237834e-12 </wgt>
<wgt id='1207'> +1.3126736e-12 </wgt>
<wgt id='1208'> +1.3145084e-12 </wgt>
<wgt id='1209'> +1.3208459e-12 </wgt>
<wgt id='1210'> +1.3076305e-12 </wgt>
<wgt id='1211'> +1.3285674e-12 </wgt>
<wgt id='1212'> +1.3183910e-12 </wgt>
<wgt id='1213'> +1.3199825e-12 </wgt>
<wgt id='1214'> +1.3237993e-12 </wgt>
<wgt id='1215'> +1.3046304e-12 </wgt>
<wgt id='1216'> +1.3133763e-12 </wgt>
<wgt id='1217'> +1.3216590e-12 </wgt>
<wgt id='1218'> +1.3212813e-12 </wgt>
<wgt id='1219'> +1.3176459e-12 </wgt>
<wgt id='1220'> +1.3246287e-12 </wgt>
<wgt id='1221'> +1.3197748e-12 </wgt>
<wgt id='1222'> +1.3301040e-12 </wgt>
<wgt id='1223'> +1.3066978e-12 </wgt>
<wgt id='1224'> +1.3185243e-12 </wgt>
<wgt id='1225'> +1.3192709e-12 </wgt>
<wgt id='1226'> +1.3179579e-12 </wgt>
<wgt id='1227'> +1.3199689e-12 </wgt>
<wgt id='1228'> +1.3209200e-12 </wgt>
<wgt id='1229'> +1.3173425e-12 </wgt>
<wgt id='1230'> +1.3397127e-12 </wgt>
<wgt id='1231'> +1.3124179e-12 </wgt>
<wgt id='1232'> +1.3206900e-12 </wgt>
<wgt id='1233'> +1.3186591e-12 </wgt>
<wgt id='1234'> +1.3191112e-12 </wgt>
<wgt id='1235'> +1.3120431e-12 </wgt>
<wgt id='1236'> +1.3147392e-12 </wgt>
<wgt id='1237'> +1.3169743e-12 </wgt>
<wgt id='1238'> +1.3210071e-12 </wgt>
<wgt id='1239'> +1.3224280e-12 </wgt>
<wgt id='1240'> +1.3240647e-12 </wgt>
<wgt id='1241'> +1.2641138e-12 </wgt>
<wgt id='1242'> +1.2500507e-12 </wgt>
<wgt id='1243'> +1.2780472e-12 </wgt>
<wgt id='1244'> +1.2629985e-12 </wgt>
<wgt id='1245'> +1.2650858e-12 </wgt>
<wgt id='1246'> +1.2647135e-12 </wgt>
<wgt id='1247'> +1.2637186e-12 </wgt>
<wgt id='1248'> +1.2640905e-12 </wgt>
<wgt id='1249'> +1.2642601e-12 </wgt>
<wgt id='1250'> +1.2606345e-12 </wgt>
<wgt id='1251'> +1.2667073e-12 </wgt>
<wgt id='1252'> +1.2627274e-12 </wgt>
<wgt id='1253'> +1.2652050e-12 </wgt>
<wgt id='1254'> +1.2483203e-12 </wgt>
<wgt id='1255'> +1.2736606e-12 </wgt>
<wgt id='1256'> +1.2672717e-12 </wgt>
<wgt id='1257'> +1.2563290e-12 </wgt>
<wgt id='1258'> +1.2480042e-12 </wgt>
<wgt id='1259'> +1.2751050e-12 </wgt>
<wgt id='1260'> +1.2633267e-12 </wgt>
<wgt id='1261'> +1.2656596e-12 </wgt>
<wgt id='1262'> +1.2612469e-12 </wgt>
<wgt id='1263'> +1.2652534e-12 </wgt>
<wgt id='1264'> +1.2705874e-12 </wgt>
<wgt id='1265'> +1.2613406e-12 </wgt>
<wgt id='1266'> +1.2603839e-12 </wgt>
<wgt id='1267'> +1.2693661e-12 </wgt>
<wgt id='1268'> +1.2673950e-12 </wgt>
<wgt id='1269'> +1.2640503e-12 </wgt>
<wgt id='1270'> +1.2749993e-12 </wgt>
<wgt id='1271'> +1.2670097e-12 </wgt>
<wgt id='1272'> +1.2665359e-12 </wgt>
<wgt id='1273'> +1.2644447e-12 </wgt>
<wgt id='1274'> +1.2649283e-12 </wgt>
<wgt id='1275'> +1.2633022e-12 </wgt>
<wgt id='1276'> +1.2602187e-12 </wgt>
<wgt id='1277'> +1.2672032e-12 </wgt>
<wgt id='1278'> +1.2640227e-12 </wgt>
<wgt id='1279'> +1.2791415e-12 </wgt>
<wgt id='1280'> +1.2633015e-12 </wgt>
<wgt id='1281'> +1.2733863e-12 </wgt>
<wgt id='1282'> +1.2641138e-12 </wgt>
<wgt id='1283'> +1.2574087e-12 </wgt>
<wgt id='1284'> +1.2602520e-12 </wgt>
<wgt id='1285'> +1.2623016e-12 </wgt>
<wgt id='1286'> +1.2660354e-12 </wgt>
<wgt id='1287'> +1.2670684e-12 </wgt>
<wgt id='1288'> +1.2682164e-12 </wgt>
<wgt id='1289'> +1.3636271e-12 </wgt>
<wgt id='1290'> +1.3686327e-12 </wgt>
<wgt id='1291'> +1.3582278e-12 </wgt>
<wgt id='1292'> +1.3652002e-12 </wgt>
<wgt id='1293'> +1.3624889e-12 </wgt>
<wgt id='1294'> +1.3531443e-12 </wgt>
<wgt id='1295'> +1.3736254e-12 </wgt>
<wgt id='1296'> +1.3651077e-12 </wgt>
<wgt id='1297'> +1.3617307e-12 </wgt>
<wgt id='1298'> +1.3772402e-12 </wgt>
<wgt id='1299'> +1.3467843e-12 </wgt>
<wgt id='1300'> +1.3684580e-12 </wgt>
<wgt id='1301'> +1.3540031e-12 </wgt>
<wgt id='1302'> +1.3617700e-12 </wgt>
<wgt id='1303'> +1.3662914e-12 </wgt>
<wgt id='1304'> +1.3606569e-12 </wgt>
<wgt id='1305'> +1.3657487e-12 </wgt>
<wgt id='1306'> +1.3549288e-12 </wgt>
<wgt id='1307'> +1.3734340e-12 </wgt>
<wgt id='1308'> +1.3600170e-12 </wgt>
<wgt id='1309'> +1.3662855e-12 </wgt>
<wgt id='1310'> +1.3615358e-12 </wgt>
<wgt id='1311'> +1.3661245e-12 </wgt>
<wgt id='1312'> +1.3553323e-12 </wgt>
<wgt id='1313'> +1.3725895e-12 </wgt>
<wgt id='1314'> +1.3468701e-12 </wgt>
<wgt id='1315'> +1.3766808e-12 </wgt>
<wgt id='1316'> +1.3696980e-12 </wgt>
<wgt id='1317'> +1.3660638e-12 </wgt>
<wgt id='1318'> +1.3609093e-12 </wgt>
<wgt id='1319'> +1.3652198e-12 </wgt>
<wgt id='1320'> +1.3571184e-12 </wgt>
<wgt id='1321'> +1.3661126e-12 </wgt>
<wgt id='1322'> +1.3652342e-12 </wgt>
<wgt id='1323'> +1.3613538e-12 </wgt>
<wgt id='1324'> +1.3660108e-12 </wgt>
<wgt id='1325'> +1.3637546e-12 </wgt>
<wgt id='1326'> +1.3657060e-12 </wgt>
<wgt id='1327'> +1.3648403e-12 </wgt>
<wgt id='1328'> +1.3602477e-12 </wgt>
<wgt id='1329'> +1.3667055e-12 </wgt>
<wgt id='1330'> +1.3613504e-12 </wgt>
<wgt id='1331'> +1.3672007e-12 </wgt>
<wgt id='1332'> +1.3897462e-12 </wgt>
<wgt id='1333'> +1.3615274e-12 </wgt>
<wgt id='1334'> +1.3625683e-12 </wgt>
<wgt id='1335'> +1.3673784e-12 </wgt>
<wgt id='1336'> +1.3774115e-12 </wgt>
<wgt id='1337'> +1.3578535e-12 </wgt>
<wgt id='1338'> +1.3674100e-12 </wgt>
<wgt id='1339'> +1.3622159e-12 </wgt>
<wgt id='1340'> +1.3285173e-12 </wgt>
<wgt id='1341'> +1.3333746e-12 </wgt>
<wgt id='1342'> +1.3233369e-12 </wgt>
<wgt id='1343'> +1.3301321e-12 </wgt>
<wgt id='1344'> +1.3273858e-12 </wgt>
<wgt id='1345'> +1.3176468e-12 </wgt>
<wgt id='1346'> +1.3383920e-12 </wgt>
<wgt id='1347'> +1.3301826e-12 </wgt>
<wgt id='1348'> +1.3266027e-12 </wgt>
<wgt id='1349'> +1.3413053e-12 </wgt>
<wgt id='1350'> +1.3160334e-12 </wgt>
<wgt id='1351'> +1.3335217e-12 </wgt>
<wgt id='1352'> +1.3177221e-12 </wgt>
<wgt id='1353'> +1.3258121e-12 </wgt>
<wgt id='1354'> +1.3333192e-12 </wgt>
<wgt id='1355'> +1.3256980e-12 </wgt>
<wgt id='1356'> +1.3301430e-12 </wgt>
<wgt id='1357'> +1.3188040e-12 </wgt>
<wgt id='1358'> +1.3399556e-12 </wgt>
<wgt id='1359'> +1.3272680e-12 </wgt>
<wgt id='1360'> +1.3296493e-12 </wgt>
<wgt id='1361'> +1.3267129e-12 </wgt>
<wgt id='1362'> +1.3311615e-12 </wgt>
<wgt id='1363'> +1.3202879e-12 </wgt>
<wgt id='1364'> +1.3350246e-12 </wgt>
<wgt id='1365'> +1.3431442e-12 </wgt>
<wgt id='1366'> +1.3049879e-12 </wgt>
<wgt id='1367'> +1.3346591e-12 </wgt>
<wgt id='1368'> +1.3294864e-12 </wgt>
<wgt id='1369'> +1.3269321e-12 </wgt>
<wgt id='1370'> +1.3298736e-12 </wgt>
<wgt id='1371'> +1.3256803e-12 </wgt>
<wgt id='1372'> +1.3299581e-12 </wgt>
<wgt id='1373'> +1.3308350e-12 </wgt>
<wgt id='1374'> +1.3256858e-12 </wgt>
<wgt id='1375'> +1.3305014e-12 </wgt>
<wgt id='1376'> +1.3287587e-12 </wgt>
<wgt id='1377'> +1.3309855e-12 </wgt>
<wgt id='1378'> +1.3297959e-12 </wgt>
<wgt id='1379'> +1.3255874e-12 </wgt>
<wgt id='1380'> +1.3317165e-12 </wgt>
<wgt id='1381'> +1.3269303e-12 </wgt>
<wgt id='1382'> +1.3309219e-12 </wgt>
<wgt id='1383'> +1.3524922e-12 </wgt>
<wgt id='1384'> +1.3264855e-12 </wgt>
<wgt id='1385'> +1.3273622e-12 </wgt>
<wgt id='1386'> +1.3319568e-12 </wgt>
<wgt id='1387'> +1.3428869e-12 </wgt>
<wgt id='1388'> +1.3234085e-12 </wgt>
<wgt id='1389'> +1.3340847e-12 </wgt>
<wgt id='1390'> +1.3266672e-12 </wgt>
<wgt id='1391'> +1.3084596e-12 </wgt>
<wgt id='1392'> +1.2591988e-12 </wgt>
<wgt id='1393'> +1.2758986e-12 </wgt>
<wgt id='1394'> +1.2924794e-12 </wgt>
<wgt id='1395'> +1.3262634e-12 </wgt>
<wgt id='1396'> +1.3089535e-12 </wgt>
<wgt id='1397'> +1.3111520e-12 </wgt>
<wgt id='1398'> +1.3105089e-12 </wgt>
<wgt id='1399'> +1.3101457e-12 </wgt>
<wgt id='1400'> +1.3099051e-12 </wgt>
<wgt id='1401'> +1.3095803e-12 </wgt>
<wgt id='1402'> +1.3084549e-12 </wgt>
<wgt id='1403'> +1.3080341e-12 </wgt>
<wgt id='1404'> +1.3073610e-12 </wgt>
<wgt id='1405'> +1.3089535e-12 </wgt>
<wgt id='1406'> +1.3036441e-12 </wgt>
<wgt id='1407'> +1.3063468e-12 </wgt>
<wgt id='1408'> +1.3114405e-12 </wgt>
<wgt id='1409'> +1.3134772e-12 </wgt>
<wgt id='1410'> +1.2318399e-12 </wgt>
<wgt id='1411'> +1.2388905e-12 </wgt>
<wgt id='1412'> +1.2229888e-12 </wgt>
<wgt id='1413'> +1.2273571e-12 </wgt>
<wgt id='1414'> +1.2363720e-12 </wgt>
<wgt id='1415'> +1.2312211e-12 </wgt>
<wgt id='1416'> +1.2322068e-12 </wgt>
<wgt id='1417'> +1.2273382e-12 </wgt>
<wgt id='1418'> +1.2364353e-12 </wgt>
<wgt id='1419'> +1.2369743e-12 </wgt>
<wgt id='1420'> +1.2269981e-12 </wgt>
<wgt id='1421'> +1.2097305e-12 </wgt>
<wgt id='1422'> +1.2413928e-12 </wgt>
<wgt id='1423'> +1.2313972e-12 </wgt>
<wgt id='1424'> +1.2325012e-12 </wgt>
<wgt id='1425'> +1.2253665e-12 </wgt>
<wgt id='1426'> +1.2389252e-12 </wgt>
<wgt id='1427'> +1.2109048e-12 </wgt>
<wgt id='1428'> +1.2433268e-12 </wgt>
<wgt id='1429'> +1.2292624e-12 </wgt>
<wgt id='1430'> +1.2356703e-12 </wgt>
<wgt id='1431'> +1.2347037e-12 </wgt>
<wgt id='1432'> +1.2299431e-12 </wgt>
<wgt id='1433'> +1.2244632e-12 </wgt>
<wgt id='1434'> +1.2361746e-12 </wgt>
<wgt id='1435'> +1.2321701e-12 </wgt>
<wgt id='1436'> +1.2319007e-12 </wgt>
<wgt id='1437'> +1.2378788e-12 </wgt>
<wgt id='1438'> +1.2348853e-12 </wgt>
<wgt id='1439'> +1.2329591e-12 </wgt>
<wgt id='1440'> +1.2230516e-12 </wgt>
<wgt id='1441'> +1.2312766e-12 </wgt>
<wgt id='1442'> +1.2336978e-12 </wgt>
<wgt id='1443'> +1.2328653e-12 </wgt>
<wgt id='1444'> +1.2330270e-12 </wgt>
<wgt id='1445'> +1.2321640e-12 </wgt>
<wgt id='1446'> +1.2340785e-12 </wgt>
<wgt id='1447'> +1.2325733e-12 </wgt>
<wgt id='1448'> +1.2354592e-12 </wgt>
<wgt id='1449'> +1.2284421e-12 </wgt>
<wgt id='1450'> +1.2341398e-12 </wgt>
<wgt id='1451'> +1.2321455e-12 </wgt>
<wgt id='1452'> +1.2367137e-12 </wgt>
<wgt id='1453'> +1.2324978e-12 </wgt>
<wgt id='1454'> +1.2283882e-12 </wgt>
<wgt id='1455'> +1.2287232e-12 </wgt>
<wgt id='1456'> +1.2495868e-12 </wgt>
<wgt id='1457'> +1.2410559e-12 </wgt>
<wgt id='1458'> +1.2298649e-12 </wgt>
<wgt id='1459'> +1.2341748e-12 </wgt>
<wgt id='1460'> +1.2457229e-12 </wgt>
<wgt id='1461'> +1.2318399e-12 </wgt>
<wgt id='1462'> +1.2174525e-12 </wgt>
<wgt id='1463'> +1.2429974e-12 </wgt>
<wgt id='1464'> +1.2298895e-12 </wgt>
<wgt id='1465'> +1.2454392e-12 </wgt>
<wgt id='1466'> +1.2411083e-12 </wgt>
<wgt id='1467'> +1.2374326e-12 </wgt>
<wgt id='1468'> +1.2370093e-12 </wgt>
<wgt id='1469'> +1.2327784e-12 </wgt>
<wgt id='1470'> +1.2270941e-12 </wgt>
<wgt id='1471'> +1.2236690e-12 </wgt>
<wgt id='1472'> +1.2209820e-12 </wgt>
<wgt id='1473'> +1.2298895e-12 </wgt>
<wgt id='1474'> +1.2247373e-12 </wgt>
<wgt id='1475'> +1.2280523e-12 </wgt>
<wgt id='1476'> +1.2319259e-12 </wgt>
<wgt id='1477'> +1.2338400e-12 </wgt>
<wgt id='1478'> +1.3008573e-12 </wgt>
<wgt id='1479'> +1.3031243e-12 </wgt>
<wgt id='1480'> +1.3028652e-12 </wgt>
<wgt id='1481'> +1.3163618e-12 </wgt>
<wgt id='1482'> +1.3085992e-12 </wgt>
<wgt id='1483'> +1.2861721e-12 </wgt>
<wgt id='1484'> +1.3048191e-12 </wgt>
<wgt id='1485'> +1.3228032e-12 </wgt>
<wgt id='1486'> +1.3001856e-12 </wgt>
<wgt id='1487'> +1.3103369e-12 </wgt>
<wgt id='1488'> +1.2955637e-12 </wgt>
<wgt id='1489'> +1.2887184e-12 </wgt>
<wgt id='1490'> +1.3032637e-12 </wgt>
<wgt id='1491'> +1.2995009e-12 </wgt>
<wgt id='1492'> +1.2966546e-12 </wgt>
<wgt id='1493'> +1.2897568e-12 </wgt>
<wgt id='1494'> +1.3023591e-12 </wgt>
<wgt id='1495'> +1.3154005e-12 </wgt>
<wgt id='1496'> +1.2989315e-12 </wgt>
<wgt id='1497'> +1.3072921e-12 </wgt>
<wgt id='1498'> +1.2971234e-12 </wgt>
<wgt id='1499'> +1.3056923e-12 </wgt>
<wgt id='1500'> +1.2987137e-12 </wgt>
<wgt id='1501'> +1.2989169e-12 </wgt>
<wgt id='1502'> +1.3033034e-12 </wgt>
<wgt id='1503'> +1.3071534e-12 </wgt>
<wgt id='1504'> +1.3017115e-12 </wgt>
<wgt id='1505'> +1.2988311e-12 </wgt>
<wgt id='1506'> +1.3028095e-12 </wgt>
<wgt id='1507'> +1.3002663e-12 </wgt>
<wgt id='1508'> +1.3148502e-12 </wgt>
<wgt id='1509'> +1.2850015e-12 </wgt>
<wgt id='1510'> +1.2871086e-12 </wgt>
<wgt id='1511'> +1.2702396e-12 </wgt>
<wgt id='1512'> +1.2702522e-12 </wgt>
<wgt id='1513'> +1.2897629e-12 </wgt>
<wgt id='1514'> +1.2919179e-12 </wgt>
<wgt id='1515'> +1.2874207e-12 </wgt>
<wgt id='1516'> +1.2948782e-12 </wgt>
<wgt id='1517'> +1.2880748e-12 </wgt>
<wgt id='1518'> +1.2854625e-12 </wgt>
<wgt id='1519'> +1.2797962e-12 </wgt>
<wgt id='1520'> +1.2828417e-12 </wgt>
<wgt id='1521'> +1.2801249e-12 </wgt>
<wgt id='1522'> +1.2809248e-12 </wgt>
<wgt id='1523'> +1.2842742e-12 </wgt>
<wgt id='1524'> +1.2829861e-12 </wgt>
<wgt id='1525'> +1.2869355e-12 </wgt>
<wgt id='1526'> +1.2886750e-12 </wgt>
<wgt id='1527'> +1.2806437e-12 </wgt>
<wgt id='1528'> +1.2818350e-12 </wgt>
<wgt id='1529'> +1.2789543e-12 </wgt>
<wgt id='1530'> +1.2808355e-12 </wgt>
<wgt id='1531'> +1.2821537e-12 </wgt>
<wgt id='1532'> +1.2838722e-12 </wgt>
<wgt id='1533'> +1.2809503e-12 </wgt>
<wgt id='1534'> +1.2824772e-12 </wgt>
<wgt id='1535'> +1.2881021e-12 </wgt>
<wgt id='1536'> +1.2842364e-12 </wgt>
<wgt id='1537'> +1.2831148e-12 </wgt>
<wgt id='1538'> +1.2913060e-12 </wgt>
<wgt id='1539'> +1.2858898e-12 </wgt>
<wgt id='1540'> +1.2867829e-12 </wgt>
<wgt id='1541'> +1.2849214e-12 </wgt>
<wgt id='1542'> +1.2854551e-12 </wgt>
<wgt id='1543'> +1.2888187e-12 </wgt>
<wgt id='1544'> +1.2842270e-12 </wgt>
<wgt id='1545'> +1.2847739e-12 </wgt>
<wgt id='1546'> +1.2876607e-12 </wgt>
<wgt id='1547'> +1.2844717e-12 </wgt>
<wgt id='1548'> +1.2810925e-12 </wgt>
<wgt id='1549'> +1.2829252e-12 </wgt>
<wgt id='1550'> +1.2844709e-12 </wgt>
<wgt id='1551'> +1.2842660e-12 </wgt>
<wgt id='1552'> +1.2844818e-12 </wgt>
<wgt id='1553'> +1.2869080e-12 </wgt>
<wgt id='1554'> +1.2844734e-12 </wgt>
<wgt id='1555'> +1.2874538e-12 </wgt>
<wgt id='1556'> +1.2869120e-12 </wgt>
<wgt id='1557'> +1.2837237e-12 </wgt>
<wgt id='1558'> +1.2846872e-12 </wgt>
<wgt id='1559'> +1.2854193e-12 </wgt>
<wgt id='1560'> +1.2865778e-12 </wgt>
<wgt id='1561'> +1.2853710e-12 </wgt>
<wgt id='1562'> +1.2857466e-12 </wgt>
<wgt id='1563'> +1.2861746e-12 </wgt>
<wgt id='1564'> +1.2849414e-12 </wgt>
<wgt id='1565'> +1.2852021e-12 </wgt>
<wgt id='1566'> +1.2851838e-12 </wgt>
<wgt id='1567'> +1.2847210e-12 </wgt>
<wgt id='1568'> +1.2845438e-12 </wgt>
<wgt id='1569'> +1.2846571e-12 </wgt>
<wgt id='1570'> +1.2857366e-12 </wgt>
<wgt id='1571'> +1.2854044e-12 </wgt>
<wgt id='1572'> +1.2845810e-12 </wgt>
<wgt id='1573'> +1.2848580e-12 </wgt>
<wgt id='1574'> +1.2855008e-12 </wgt>
<wgt id='1575'> +1.2846023e-12 </wgt>
<wgt id='1576'> +1.2853847e-12 </wgt>
<wgt id='1577'> +1.2854338e-12 </wgt>
<wgt id='1578'> +1.2846849e-12 </wgt>
<wgt id='1579'> +1.2846573e-12 </wgt>
<wgt id='1580'> +1.2846288e-12 </wgt>
<wgt id='1581'> +1.2854712e-12 </wgt>
<wgt id='1582'> +1.2851794e-12 </wgt>
<wgt id='1583'> +1.2842208e-12 </wgt>
<wgt id='1584'> +1.2853735e-12 </wgt>
<wgt id='1585'> +1.2846359e-12 </wgt>
<wgt id='1586'> +1.2856363e-12 </wgt>
<wgt id='1587'> +1.2851742e-12 </wgt>
<wgt id='1588'> +1.2852377e-12 </wgt>
<wgt id='1589'> +1.2848038e-12 </wgt>
<wgt id='1590'> +1.2851500e-12 </wgt>
<wgt id='1591'> +1.2850484e-12 </wgt>
<wgt id='1592'> +1.2852674e-12 </wgt>
<wgt id='1593'> +1.2852256e-12 </wgt>
<wgt id='1594'> +1.2846081e-12 </wgt>
<wgt id='1595'> +1.2851119e-12 </wgt>
<wgt id='1596'> +1.2848325e-12 </wgt>
<wgt id='1597'> +1.2849744e-12 </wgt>
<wgt id='1598'> +1.2851312e-12 </wgt>
<wgt id='1599'> +1.2849486e-12 </wgt>
<wgt id='1600'> +1.2847391e-12 </wgt>
<wgt id='1601'> +1.2852392e-12 </wgt>
<wgt id='1602'> +1.2851809e-12 </wgt>
<wgt id='1603'> +1.2852361e-12 </wgt>
<wgt id='1604'> +1.2850981e-12 </wgt>
<wgt id='1605'> +1.2850269e-12 </wgt>
<wgt id='1606'> +1.2846208e-12 </wgt>
<wgt id='1607'> +1.2850329e-12 </wgt>
<wgt id='1608'> +1.2853675e-12 </wgt>
<wgt id='1609'> +1.2849013e-12 </wgt>
<wgt id='1610'> +1.2512232e-12 </wgt>
<wgt id='1611'> +1.3247533e-12 </wgt>
<wgt id='1612'> +1.5093033e-12 </wgt>
<wgt id='1613'> +1.4833649e-12 </wgt>
<wgt id='1614'> +1.5228830e-12 </wgt>
<wgt id='1615'> +1.5324299e-12 </wgt>
<wgt id='1616'> +1.4772411e-12 </wgt>
<wgt id='1617'> +1.4951960e-12 </wgt>
<wgt id='1618'> +1.5613527e-12 </wgt>
<wgt id='1619'> +1.5027554e-12 </wgt>
<wgt id='1620'> +1.4880919e-12 </wgt>
<wgt id='1621'> +1.5156425e-12 </wgt>
<wgt id='1622'> +1.5020538e-12 </wgt>
<wgt id='1623'> +1.5008479e-12 </wgt>
<wgt id='1624'> +1.5632351e-12 </wgt>
<wgt id='1625'> +1.4704245e-12 </wgt>
<wgt id='1626'> +1.5001924e-12 </wgt>
<wgt id='1627'> +1.5250252e-12 </wgt>
<wgt id='1628'> +1.5754351e-12 </wgt>
<wgt id='1629'> +1.4544516e-12 </wgt>
<wgt id='1630'> +1.4527652e-12 </wgt>
<wgt id='1631'> +1.5466472e-12 </wgt>
<wgt id='1632'> +1.4960391e-12 </wgt>
<wgt id='1633'> +1.5221121e-12 </wgt>
<wgt id='1634'> +1.4718682e-12 </wgt>
<wgt id='1635'> +1.4906460e-12 </wgt>
<wgt id='1636'> +1.5366906e-12 </wgt>
<wgt id='1637'> +1.5112433e-12 </wgt>
<wgt id='1638'> +1.4885471e-12 </wgt>
<wgt id='1639'> +1.4792298e-12 </wgt>
<wgt id='1640'> +1.5072437e-12 </wgt>
<wgt id='1641'> +1.4990726e-12 </wgt>
<wgt id='1642'> +1.5033013e-12 </wgt>
<wgt id='1643'> +1.5109730e-12 </wgt>
<wgt id='1644'> +1.5003190e-12 </wgt>
<wgt id='1645'> +1.5023473e-12 </wgt>
<wgt id='1646'> +1.4954612e-12 </wgt>
<wgt id='1647'> +1.4795126e-12 </wgt>
<wgt id='1648'> +1.5139070e-12 </wgt>
<wgt id='1649'> +1.5864827e-12 </wgt>
<wgt id='1650'> +1.5206816e-12 </wgt>
<wgt id='1651'> +1.5276985e-12 </wgt>
<wgt id='1652'> +1.4941625e-12 </wgt>
<wgt id='1653'> +1.5647597e-12 </wgt>
<wgt id='1654'> +1.5208659e-12 </wgt>
<wgt id='1655'> +1.5942428e-12 </wgt>
<wgt id='1656'> +1.5752166e-12 </wgt>
<wgt id='1657'> +1.5286307e-12 </wgt>
<wgt id='1658'> +1.5114721e-12 </wgt>
<wgt id='1659'> +1.5632351e-12 </wgt>
<wgt id='1660'> +1.5390546e-12 </wgt>
<wgt id='1661'> +1.5177237e-12 </wgt>
<wgt id='1662'> +1.5347810e-12 </wgt>
<wgt id='1663'> +1.4468442e-12 </wgt>
<wgt id='1664'> +1.5140385e-12 </wgt>
<wgt id='1665'> +1.4763440e-12 </wgt>
<wgt id='1666'> +1.5058699e-12 </wgt>
<wgt id='1667'> +1.4670704e-12 </wgt>
<wgt id='1668'> +1.5027206e-12 </wgt>
<wgt id='1669'> +1.5048589e-12 </wgt>
<wgt id='1670'> +1.4749329e-12 </wgt>
<wgt id='1671'> +1.5028315e-12 </wgt>
<wgt id='1672'> +1.5295480e-12 </wgt>
<wgt id='1673'> +1.5272541e-12 </wgt>
<wgt id='1674'> +1.4583546e-12 </wgt>
<wgt id='1675'> +1.5029923e-12 </wgt>
<wgt id='1676'> +1.5248968e-12 </wgt>
<wgt id='1677'> +1.4756957e-12 </wgt>
<wgt id='1678'> +1.4931595e-12 </wgt>
<wgt id='1679'> +1.4282834e-12 </wgt>
<wgt id='1680'> +1.5569952e-12 </wgt>
<wgt id='1681'> +1.4724459e-12 </wgt>
<wgt id='1682'> +1.4655446e-12 </wgt>
<wgt id='1683'> +1.4861410e-12 </wgt>
<wgt id='1684'> +1.5185930e-12 </wgt>
<wgt id='1685'> +1.5405036e-12 </wgt>
<wgt id='1686'> +1.4799511e-12 </wgt>
<wgt id='1687'> +1.4836772e-12 </wgt>
<wgt id='1688'> +1.5584385e-12 </wgt>
<wgt id='1689'> +1.5420056e-12 </wgt>
<wgt id='1690'> +1.4511222e-12 </wgt>
<wgt id='1691'> +1.4534852e-12 </wgt>
<wgt id='1692'> +1.5307330e-12 </wgt>
<wgt id='1693'> +1.4735816e-12 </wgt>
<wgt id='1694'> +1.5376760e-12 </wgt>
<wgt id='1695'> +1.4776530e-12 </wgt>
<wgt id='1696'> +1.4841951e-12 </wgt>
<wgt id='1697'> +1.5145498e-12 </wgt>
<wgt id='1698'> +1.5336874e-12 </wgt>
<wgt id='1699'> +1.5324681e-12 </wgt>
<wgt id='1700'> +1.5019723e-12 </wgt>
<wgt id='1701'> +1.5707252e-12 </wgt>
<wgt id='1702'> +1.4662620e-12 </wgt>
<wgt id='1703'> +1.5035726e-12 </wgt>
<wgt id='1704'> +1.5381825e-12 </wgt>
<wgt id='1705'> +1.4854178e-12 </wgt>
<wgt id='1706'> +1.5498752e-12 </wgt>
<wgt id='1707'> +1.5205843e-12 </wgt>
<wgt id='1708'> +1.5471900e-12 </wgt>
<wgt id='1709'> +1.5491944e-12 </wgt>
<wgt id='1710'> +1.4757924e-12 </wgt>
<wgt id='1711'> +1.4761153e-12 </wgt>
<wgt id='1712'> +1.5581283e-12 </wgt>
<wgt id='1713'> +1.3510129e-12 </wgt>
<wgt id='1714'> +1.3539634e-12 </wgt>
<wgt id='1715'> +1.3271256e-12 </wgt>
<wgt id='1716'> +1.3951028e-12 </wgt>
<wgt id='1717'> +1.3177740e-12 </wgt>
<wgt id='1718'> +1.3869385e-12 </wgt>
<wgt id='1719'> +1.3866691e-12 </wgt>
<wgt id='1720'> +1.3119311e-12 </wgt>
<wgt id='1721'> +1.3507857e-12 </wgt>
<wgt id='1722'> +1.3644344e-12 </wgt>
<wgt id='1723'> +1.3872168e-12 </wgt>
<wgt id='1724'> +1.2800788e-12 </wgt>
<wgt id='1725'> +1.3648302e-12 </wgt>
<wgt id='1726'> +1.3270859e-12 </wgt>
<wgt id='1727'> +1.3939412e-12 </wgt>
<wgt id='1728'> +1.3645034e-12 </wgt>
<wgt id='1729'> +1.3264751e-12 </wgt>
<wgt id='1730'> +1.3607535e-12 </wgt>
<wgt id='1731'> +1.3380647e-12 </wgt>
<wgt id='1732'> +1.3651805e-12 </wgt>
<wgt id='1733'> +1.3727768e-12 </wgt>
<wgt id='1734'> +1.4011908e-12 </wgt>
<wgt id='1735'> +1.3279636e-12 </wgt>
<wgt id='1736'> +1.3720659e-12 </wgt>
<wgt id='1737'> +1.4027740e-12 </wgt>
<wgt id='1738'> +1.3326133e-12 </wgt>
<wgt id='1739'> +1.3575690e-12 </wgt>
<wgt id='1740'> +1.3045239e-12 </wgt>
<wgt id='1741'> +1.3932429e-12 </wgt>
<wgt id='1742'> +1.3911822e-12 </wgt>
<wgt id='1743'> +1.3644075e-12 </wgt>
<wgt id='1744'> +1.3706444e-12 </wgt>
<wgt id='1745'> +1.3186042e-12 </wgt>
<wgt id='1746'> +1.3127360e-12 </wgt>
<wgt id='1747'> +1.3862306e-12 </wgt>
<wgt id='1748'> +1.3455747e-12 </wgt>
<wgt id='1749'> +1.3281332e-12 </wgt>
<wgt id='1750'> +1.3719002e-12 </wgt>
<wgt id='1751'> +1.3237694e-12 </wgt>
<wgt id='1752'> +1.3360946e-12 </wgt>
<wgt id='1753'> +1.3421371e-12 </wgt>
<wgt id='1754'> +1.3500449e-12 </wgt>
<wgt id='1755'> +1.3341202e-12 </wgt>
<wgt id='1756'> +1.3481872e-12 </wgt>
<wgt id='1757'> +1.3881327e-12 </wgt>
<wgt id='1758'> +1.4017835e-12 </wgt>
<wgt id='1759'> +1.3782999e-12 </wgt>
<wgt id='1760'> +1.3482161e-12 </wgt>
<wgt id='1761'> +1.3589138e-12 </wgt>
<wgt id='1762'> +1.3423259e-12 </wgt>
<wgt id='1763'> +1.3531953e-12 </wgt>
<wgt id='1764'> +1.3774810e-12 </wgt>
<wgt id='1765'> +1.3354021e-12 </wgt>
<wgt id='1766'> +1.3857102e-12 </wgt>
<wgt id='1767'> +1.3171628e-12 </wgt>
<wgt id='1768'> +1.3393701e-12 </wgt>
<wgt id='1769'> +1.3811061e-12 </wgt>
<wgt id='1770'> +1.3237009e-12 </wgt>
<wgt id='1771'> +1.3773246e-12 </wgt>
<wgt id='1772'> +1.3954533e-12 </wgt>
<wgt id='1773'> +1.3488837e-12 </wgt>
<wgt id='1774'> +1.3362450e-12 </wgt>
<wgt id='1775'> +1.3839125e-12 </wgt>
<wgt id='1776'> +1.3430756e-12 </wgt>
<wgt id='1777'> +1.3471791e-12 </wgt>
<wgt id='1778'> +1.3047135e-12 </wgt>
<wgt id='1779'> +1.3512174e-12 </wgt>
<wgt id='1780'> +1.3879626e-12 </wgt>
<wgt id='1781'> +1.3555018e-12 </wgt>
<wgt id='1782'> +1.2997749e-12 </wgt>
<wgt id='1783'> +1.3471595e-12 </wgt>
<wgt id='1784'> +1.3063636e-12 </wgt>
<wgt id='1785'> +1.3576654e-12 </wgt>
<wgt id='1786'> +1.2984498e-12 </wgt>
<wgt id='1787'> +1.4260244e-12 </wgt>
<wgt id='1788'> +1.3312493e-12 </wgt>
<wgt id='1789'> +1.3764588e-12 </wgt>
<wgt id='1790'> +1.3334973e-12 </wgt>
<wgt id='1791'> +1.3209074e-12 </wgt>
<wgt id='1792'> +1.3193300e-12 </wgt>
<wgt id='1793'> +1.3267998e-12 </wgt>
<wgt id='1794'> +1.3525680e-12 </wgt>
<wgt id='1795'> +1.3230746e-12 </wgt>
<wgt id='1796'> +1.3862972e-12 </wgt>
<wgt id='1797'> +1.3515601e-12 </wgt>
<wgt id='1798'> +1.3636926e-12 </wgt>
<wgt id='1799'> +1.3417496e-12 </wgt>
<wgt id='1800'> +1.3655951e-12 </wgt>
<wgt id='1801'> +1.3262244e-12 </wgt>
<wgt id='1802'> +1.3621048e-12 </wgt>
<wgt id='1803'> +1.3530045e-12 </wgt>
<wgt id='1804'> +1.3633239e-12 </wgt>
<wgt id='1805'> +1.3060072e-12 </wgt>
<wgt id='1806'> +1.3498117e-12 </wgt>
<wgt id='1807'> +1.3522156e-12 </wgt>
<wgt id='1808'> +1.3711197e-12 </wgt>
<wgt id='1809'> +1.3115196e-12 </wgt>
<wgt id='1810'> +1.3310216e-12 </wgt>
<wgt id='1811'> +1.3248259e-12 </wgt>
<wgt id='1812'> +1.3307139e-12 </wgt>
<wgt id='1813'> +1.3325722e-12 </wgt>
<wgt id='1814'> +1.2142343e-12 </wgt>
<wgt id='1815'> +1.3567899e-12 </wgt>
<wgt id='1816'> +1.3510129e-12 </wgt>
<wgt id='1817'> +1.3539634e-12 </wgt>
<wgt id='1818'> +1.3271256e-12 </wgt>
<wgt id='1819'> +1.3951028e-12 </wgt>
<wgt id='1820'> +1.3177740e-12 </wgt>
<wgt id='1821'> +1.3869385e-12 </wgt>
<wgt id='1822'> +1.3866691e-12 </wgt>
<wgt id='1823'> +1.3119311e-12 </wgt>
<wgt id='1824'> +1.3507857e-12 </wgt>
<wgt id='1825'> +1.3644344e-12 </wgt>
<wgt id='1826'> +1.3872168e-12 </wgt>
<wgt id='1827'> +1.2800788e-12 </wgt>
<wgt id='1828'> +1.3648302e-12 </wgt>
<wgt id='1829'> +1.3270859e-12 </wgt>
<wgt id='1830'> +1.3939412e-12 </wgt>
<wgt id='1831'> +1.3645034e-12 </wgt>
<wgt id='1832'> +1.3264751e-12 </wgt>
<wgt id='1833'> +1.3607535e-12 </wgt>
<wgt id='1834'> +1.3380647e-12 </wgt>
<wgt id='1835'> +1.3651805e-12 </wgt>
<wgt id='1836'> +1.3727768e-12 </wgt>
<wgt id='1837'> +1.4011908e-12 </wgt>
<wgt id='1838'> +1.3279636e-12 </wgt>
<wgt id='1839'> +1.3720659e-12 </wgt>
<wgt id='1840'> +1.4027740e-12 </wgt>
<wgt id='1841'> +1.3326133e-12 </wgt>
<wgt id='1842'> +1.3575690e-12 </wgt>
<wgt id='1843'> +1.3045239e-12 </wgt>
<wgt id='1844'> +1.3932429e-12 </wgt>
<wgt id='1845'> +1.3911822e-12 </wgt>
<wgt id='1846'> +1.3644075e-12 </wgt>
<wgt id='1847'> +1.3706444e-12 </wgt>
<wgt id='1848'> +1.3186042e-12 </wgt>
<wgt id='1849'> +1.3127360e-12 </wgt>
<wgt id='1850'> +1.3862306e-12 </wgt>
<wgt id='1851'> +1.3455747e-12 </wgt>
<wgt id='1852'> +1.3281332e-12 </wgt>
<wgt id='1853'> +1.3719002e-12 </wgt>
<wgt id='1854'> +1.3237694e-12 </wgt>
<wgt id='1855'> +1.3360946e-12 </wgt>
<wgt id='1856'> +1.3421371e-12 </wgt>
<wgt id='1857'> +1.3500449e-12 </wgt>
<wgt id='1858'> +1.3341202e-12 </wgt>
<wgt id='1859'> +1.3481872e-12 </wgt>
<wgt id='1860'> +1.3881327e-12 </wgt>
<wgt id='1861'> +1.4017835e-12 </wgt>
<wgt id='1862'> +1.3782999e-12 </wgt>
<wgt id='1863'> +1.3482161e-12 </wgt>
<wgt id='1864'> +1.3589138e-12 </wgt>
<wgt id='1865'> +1.3423259e-12 </wgt>
<wgt id='1866'> +1.3531953e-12 </wgt>
<wgt id='1867'> +1.3774810e-12 </wgt>
<wgt id='1868'> +1.3354021e-12 </wgt>
<wgt id='1869'> +1.3857102e-12 </wgt>
<wgt id='1870'> +1.3171628e-12 </wgt>
<wgt id='1871'> +1.3393701e-12 </wgt>
<wgt id='1872'> +1.3811061e-12 </wgt>
<wgt id='1873'> +1.3237009e-12 </wgt>
<wgt id='1874'> +1.3773246e-12 </wgt>
<wgt id='1875'> +1.3954533e-12 </wgt>
<wgt id='1876'> +1.3488837e-12 </wgt>
<wgt id='1877'> +1.3362450e-12 </wgt>
<wgt id='1878'> +1.3839125e-12 </wgt>
<wgt id='1879'> +1.3430756e-12 </wgt>
<wgt id='1880'> +1.3471791e-12 </wgt>
<wgt id='1881'> +1.3047135e-12 </wgt>
<wgt id='1882'> +1.3512174e-12 </wgt>
<wgt id='1883'> +1.3879626e-12 </wgt>
<wgt id='1884'> +1.3555018e-12 </wgt>
<wgt id='1885'> +1.2997749e-12 </wgt>
<wgt id='1886'> +1.3471595e-12 </wgt>
<wgt id='1887'> +1.3063636e-12 </wgt>
<wgt id='1888'> +1.3576654e-12 </wgt>
<wgt id='1889'> +1.2984498e-12 </wgt>
<wgt id='1890'> +1.4260244e-12 </wgt>
<wgt id='1891'> +1.3312493e-12 </wgt>
<wgt id='1892'> +1.3764588e-12 </wgt>
<wgt id='1893'> +1.3334973e-12 </wgt>
<wgt id='1894'> +1.3209074e-12 </wgt>
<wgt id='1895'> +1.3193300e-12 </wgt>
<wgt id='1896'> +1.3267998e-12 </wgt>
<wgt id='1897'> +1.3525680e-12 </wgt>
<wgt id='1898'> +1.3230746e-12 </wgt>
<wgt id='1899'> +1.3862972e-12 </wgt>
<wgt id='1900'> +1.3515601e-12 </wgt>
<wgt id='1901'> +1.3636926e-12 </wgt>
<wgt id='1902'> +1.3417496e-12 </wgt>
<wgt id='1903'> +1.3655951e-12 </wgt>
<wgt id='1904'> +1.3262244e-12 </wgt>
<wgt id='1905'> +1.3621048e-12 </wgt>
<wgt id='1906'> +1.3530045e-12 </wgt>
<wgt id='1907'> +1.3633239e-12 </wgt>
<wgt id='1908'> +1.3060072e-12 </wgt>
<wgt id='1909'> +1.3498117e-12 </wgt>
<wgt id='1910'> +1.3522156e-12 </wgt>
<wgt id='1911'> +1.3711197e-12 </wgt>
<wgt id='1912'> +1.3115196e-12 </wgt>
<wgt id='1913'> +1.3310216e-12 </wgt>
<wgt id='1914'> +1.3248259e-12 </wgt>
<wgt id='1915'> +1.3307139e-12 </wgt>
<wgt id='1916'> +1.3325722e-12 </wgt>
<wgt id='1917'> +1.3354582e-12 </wgt>
<wgt id='1918'> +1.3713692e-12 </wgt>
<wgt id='1919'> +1.2803412e-12 </wgt>
</rwgt>
</event>
<event>
 9      1 +1.5538000e-12 2.76284200e+01 7.81860800e-03 1.47482100e-01
       21 -1    0    0  501  502 +0.0000000000e+00 +0.0000000000e+00 +3.8544126752e+01 3.8544126752e+01 0.0000000000e+00 0.0000e+00 1.0000e+00
       -4 -1    0    0    0  501 -0.0000000000e+00 -0.0000000000e+00 -1.6743547286e+01 1.6803653642e+01 1.4200000000e+00 0.0000e+00 1.0000e+00
     1023  2    1    2    0    0 +2.1307831006e+01 +9.1810839001e+00 +1.1817507368e+01 3.0049675875e+01 1.5000452529e+01 0.0000e+00 0.0000e+00
  1000023  2    3    3    0    0 +1.5417112026e+01 +1.0062494877e+01 +5.3777112352e+00 1.9952724373e+01 5.5000259449e+00 0.0000e+00 0.0000e+00
       -4  1    1    2    0  502 -2.1307831006e+01 -9.1810839001e+00 +9.9830720978e+00 2.5298104519e+01 1.4200000000e+00 0.0000e+00 1.0000e+00
  1000022  1    4    4    0    0 +1.3628908443e+01 +8.6734525391e+00 +5.1064041164e+00 1.7664973459e+01 5.0000000000e+00 0.0000e+00 1.0000e+00
      -11  1    4    4    0    0 +3.0150989902e-01 +2.4536301748e-01 -2.1531718644e-02 3.8932647685e-01 5.1100000000e-04 0.0000e+00 1.0000e+00
       11  1    4    4    0    0 +1.4866936839e+00 +1.1436793207e+00 +2.9283883739e-01 1.8984244373e+00 5.1100000000e-04 0.0000e+00 -1.0000e+00
  1000022  1    3    3    0    0 +5.8907189798e+00 -8.8141097710e-01 +6.4397961326e+00 1.0096951502e+01 5.0000000000e+00 0.0000e+00 -1.0000e+00
<mgrwt>
<rscale>  1 0.27628419E+02</rscale>
<asrwt>0</asrwt>
<pdfrwt beam="1">  1       21 0.59298656E-02 0.27628419E+02</pdfrwt>
<pdfrwt beam="2">  1       -4 0.25825660E-02 0.27628419E+02</pdfrwt>
<totfact> 0.47197320E+06</totfact>
</mgrwt>
<rwgt>
<wgt id='1001'> +1.5538000e-12 </wgt>
<wgt id='1002'> +1.6928723e-12 </wgt>
<wgt id='1003'> +1.6968642e-12 </wgt>
<wgt id='1004'> +1.5256703e-12 </wgt>
<wgt id='1005'> +1.6995067e-12 </wgt>
<wgt id='1006'> +1.3564813e-12 </wgt>
<wgt id='1007'> +1.4996840e-12 </wgt>
<wgt id='1008'> +1.5038980e-12 </wgt>
<wgt id='1009'> +1.3281867e-12 </wgt>
<wgt id='1010'> +1.5066906e-12 </wgt>
<wgt id='1011'> +1.8217104e-12 </wgt>
<wgt id='1012'> +1.9457422e-12 </wgt>
<wgt id='1013'> +1.9491651e-12 </wgt>
<wgt id='1014'> +1.7956918e-12 </wgt>
<wgt id='1015'> +1.9514241e-12 </wgt>
<wgt id='1016'> +1.9648493e-12 </wgt>
<wgt id='1017'> +2.0364212e-12 </wgt>
<wgt id='1018'> +2.0382890e-12 </wgt>
<wgt id='1019'> +1.9491651e-12 </wgt>
<wgt id='1020'> +2.0395189e-12 </wgt>
<wgt id='1021'> +1.7153311e-12 </wgt>
<wgt id='1022'> +1.8040275e-12 </wgt>
<wgt id='1023'> +1.8064962e-12 </wgt>
<wgt id='1024'> +1.6968642e-12 </wgt>
<wgt id='1025'> +1.8081271e-12 </wgt>
<wgt id='1026'> +2.3036340e-12 </wgt>
<wgt id='1027'> +2.3406081e-12 </wgt>
<wgt id='1028'> +2.3413553e-12 </wgt>
<wgt id='1029'> +2.2941390e-12 </wgt>
<wgt id='1030'> +2.3418363e-12 </wgt>
<wgt id='1031'> +1.1200198e-12 </wgt>
<wgt id='1032'> +1.3221641e-12 </wgt>
<wgt id='1033'> +1.3281867e-12 </wgt>
<wgt id='1034'> +1.0807291e-12 </wgt>
<wgt id='1035'> +1.3321879e-12 </wgt>
<wgt id='1036'> +9.7778728e-13 </wgt>
<wgt id='1037'> +1.1712805e-12 </wgt>
<wgt id='1038'> +1.1771462e-12 </wgt>
<wgt id='1039'> +9.4083899e-13 </wgt>
<wgt id='1040'> +1.1810457e-12 </wgt>
<wgt id='1041'> +1.3131366e-12 </wgt>
<wgt id='1042'> +1.5196601e-12 </wgt>
<wgt id='1043'> +1.5256703e-12 </wgt>
<wgt id='1044'> +1.2720025e-12 </wgt>
<wgt id='1045'> +1.5296578e-12 </wgt>
<wgt id='1046'> +1.5538000e-12 </wgt>
<wgt id='1047'> +1.5019258e-12 </wgt>
<wgt id='1048'> +1.5758649e-12 </wgt>
<wgt id='1049'> +1.5430013e-12 </wgt>
<wgt id='1050'> +1.5396692e-12 </wgt>
<wgt id='1051'> +1.5747662e-12 </wgt>
<wgt id='1052'> +1.4767593e-12 </wgt>
<wgt id='1053'> +1.5750185e-12 </wgt>
<wgt id='1054'> +1.5923642e-12 </wgt>
<wgt id='1055'> +1.5857064e-12 </wgt>
<wgt id='1056'> +1.5798681e-12 </wgt>
<wgt id='1057'> +1.5509824e-12 </wgt>
<wgt id='1058'> +1.5183622e-12 </wgt>
<wgt id='1059'> +1.5583207e-12 </wgt>
<wgt id='1060'> +1.5320723e-12 </wgt>
<wgt id='1061'> +1.5727787e-12 </wgt>
<wgt id='1062'> +1.5666707e-12 </wgt>
<wgt id='1063'> +1.6036799e-12 </wgt>
<wgt id='1064'> +1.5528989e-12 </wgt>
<wgt id='1065'> +1.5557031e-12 </wgt>
<wgt id='1066'> +1.6086049e-12 </wgt>
<wgt id='1067'> +1.5683010e-12 </wgt>
<wgt id='1068'> +1.5944375e-12 </wgt>
<wgt id='1069'> +1.5704486e-12 </wgt>
<wgt id='1070'> +1.5719158e-12 </wgt>
<wgt id='1071'> +1.5624389e-12 </wgt>
<wgt id='1072'> +1.6070086e-12 </wgt>
<wgt id='1073'> +1.5593076e-12 </wgt>
<wgt id='1074'> +1.5093794e-12 </wgt>
<wgt id='1075'> +1.5445824e-12 </wgt>
<wgt id='1076'> +1.5438402e-12 </wgt>
<wgt id='1077'> +1.5542182e-12 </wgt>
<wgt id='1078'> +1.5373925e-12 </wgt>
<wgt id='1079'> +1.5084265e-12 </wgt>
<wgt id='1080'> +1.5193200e-12 </wgt>
<wgt id='1081'> +1.5867905e-12 </wgt>
<wgt id='1082'> +1.5456692e-12 </wgt>
<wgt id='1083'> +1.6124617e-12 </wgt>
<wgt id='1084'> +1.5710225e-12 </wgt>
<wgt id='1085'> +1.5045058e-12 </wgt>
<wgt id='1086'> +1.5328321e-12 </wgt>
<wgt id='1087'> +1.5378796e-12 </wgt>
<wgt id='1088'> +1.4685675e-12 </wgt>
<wgt id='1089'> +1.5217137e-12 </wgt>
<wgt id='1090'> +1.4818739e-12 </wgt>
<wgt id='1091'> +1.5349781e-12 </wgt>
<wgt id='1092'> +1.5528066e-12 </wgt>
<wgt id='1093'> +1.4813131e-12 </wgt>
<wgt id='1094'> +1.5720988e-12 </wgt>
<wgt id='1095'> +1.5300853e-12 </wgt>
<wgt id='1096'> +1.5763280e-12 </wgt>
<wgt id='1097'> +1.5091421e-12 </wgt>
<wgt id='1098'> +1.6077715e-12 </wgt>
<wgt id='1099'> +1.5334938e-12 </wgt>
<wgt id='1100'> +1.5227988e-12 </wgt>
<wgt id='1101'> +1.5517840e-12 </wgt>
<wgt id='1102'> +1.5436380e-12 </wgt>
<wgt id='1103'> +1.5649726e-12 </wgt>
<wgt id='1104'> +1.5831049e-12 </wgt>
<wgt id='1105'> +1.5854056e-12 </wgt>
<wgt id='1106'> +1.5893403e-12 </wgt>
<wgt id='1107'> +1.5414554e-12 </wgt>
<wgt id='1108'> +1.5747070e-12 </wgt>
<wgt id='1109'> +1.5806636e-12 </wgt>
<wgt id='1110'> +1.5456467e-12 </wgt>
<wgt id='1111'> +1.5568848e-12 </wgt>
<wgt id='1112'> +1.4997718e-12 </wgt>
<wgt id='1113'> +1.4760468e-12 </wgt>
<wgt id='1114'> +1.6050409e-12 </wgt>
<wgt id='1115'> +1.5330040e-12 </wgt>
<wgt id='1116'> +1.5624228e-12 </wgt>
<wgt id='1117'> +1.5962261e-12 </wgt>
<wgt id='1118'> +1.5694332e-12 </wgt>
<wgt id='1119'> +1.6091387e-12 </wgt>
<wgt id='1120'> +1.5992861e-12 </wgt>
<wgt id='1121'> +1.5427463e-12 </wgt>
<wgt id='1122'> +1.4999888e-12 </wgt>
<wgt id='1123'> +1.6035490e-12 </wgt>
<wgt id='1124'> +1.5200359e-12 </wgt>
<wgt id='1125'> +1.5621507e-12 </wgt>
<wgt id='1126'> +1.5032123e-12 </wgt>
<wgt id='1127'> +1.5266550e-12 </wgt>
<wgt id='1128'> +1.5666707e-12 </wgt>
<wgt id='1129'> +1.5057983e-12 </wgt>
<wgt id='1130'> +1.5859019e-12 </wgt>
<wgt id='1131'> +1.5839485e-12 </wgt>
<wgt id='1132'> +1.4757118e-12 </wgt>
<wgt id='1133'> +1.5143133e-12 </wgt>
<wgt id='1134'> +1.5367234e-12 </wgt>
<wgt id='1135'> +1.6227237e-12 </wgt>
<wgt id='1136'> +1.5204839e-12 </wgt>
<wgt id='1137'> +1.5256813e-12 </wgt>
<wgt id='1138'> +1.5719247e-12 </wgt>
<wgt id='1139'> +1.5804148e-12 </wgt>
<wgt id='1140'> +1.5616169e-12 </wgt>
<wgt id='1141'> +1.5687745e-12 </wgt>
<wgt id='1142'> +1.5242137e-12 </wgt>
<wgt id='1143'> +1.5275590e-12 </wgt>
<wgt id='1144'> +1.6132145e-12 </wgt>
<wgt id='1145'> +1.6174518e-12 </wgt>
<wgt id='1146'> +1.6642378e-12 </wgt>
<wgt id='1147'> +1.2238383e-12 </wgt>
<wgt id='1148'> +1.2654514e-12 </wgt>
<wgt id='1149'> +1.2003996e-12 </wgt>
<wgt id='1150'> +1.2386381e-12 </wgt>
<wgt id='1151'> +1.0380839e-12 </wgt>
<wgt id='1152'> +1.4752386e-12 </wgt>
<wgt id='1153'> +1.4680920e-12 </wgt>
<wgt id='1154'> +1.4793261e-12 </wgt>
<wgt id='1155'> +1.4758898e-12 </wgt>
<wgt id='1156'> +1.4749160e-12 </wgt>
<wgt id='1157'> +1.4721889e-12 </wgt>
<wgt id='1158'> +1.4792055e-12 </wgt>
<wgt id='1159'> +1.4727153e-12 </wgt>
<wgt id='1160'> +1.4767386e-12 </wgt>
<wgt id='1161'> +1.4666465e-12 </wgt>
<wgt id='1162'> +1.4810568e-12 </wgt>
<wgt id='1163'> +1.4789878e-12 </wgt>
<wgt id='1164'> +1.4714746e-12 </wgt>
<wgt id='1165'> +1.4579700e-12 </wgt>
<wgt id='1166'> +1.4921084e-12 </wgt>
<wgt id='1167'> +1.4950558e-12 </wgt>
<wgt id='1168'> +1.4495597e-12 </wgt>
<wgt id='1169'> +1.4820500e-12 </wgt>
<wgt id='1170'> +1.4701219e-12 </wgt>
<wgt id='1171'> +1.4711964e-12 </wgt>
<wgt id='1172'> +1.4801352e-12 </wgt>
<wgt id='1173'> +1.4602562e-12 </wgt>
<wgt id='1174'> +1.4900047e-12 </wgt>
<wgt id='1175'> +1.4801977e-12 </wgt>
<wgt id='1176'> +1.4700716e-12 </wgt>
<wgt id='1177'> +1.4759414e-12 </wgt>
<wgt id='1178'> +1.4734933e-12 </wgt>
<wgt id='1179'> +1.4827392e-12 </wgt>
<wgt id='1180'> +1.4612004e-12 </wgt>
<wgt id='1181'> +1.4713899e-12 </wgt>
<wgt id='1182'> +1.4787691e-12 </wgt>
<wgt id='1183'> +1.4744327e-12 </wgt>
<wgt id='1184'> +1.4752796e-12 </wgt>
<wgt id='1185'> +1.4736054e-12 </wgt>
<wgt id='1186'> +1.4759980e-12 </wgt>
<wgt id='1187'> +1.4745781e-12 </wgt>
<wgt id='1188'> +1.4754213e-12 </wgt>
<wgt id='1189'> +1.4669488e-12 </wgt>
<wgt id='1190'> +1.4632029e-12 </wgt>
<wgt id='1191'> +1.4696368e-12 </wgt>
<wgt id='1192'> +1.4780846e-12 </wgt>
<wgt id='1193'> +1.2537523e-12 </wgt>
<wgt id='1194'> +1.2512359e-12 </wgt>
<wgt id='1195'> +1.2558634e-12 </wgt>
<wgt id='1196'> +1.2562671e-12 </wgt>
<wgt id='1197'> +1.2509936e-12 </wgt>
<wgt id='1198'> +1.2567431e-12 </wgt>
<wgt id='1199'> +1.2494408e-12 </wgt>
<wgt id='1200'> +1.2554790e-12 </wgt>
<wgt id='1201'> +1.2526549e-12 </wgt>
<wgt id='1202'> +1.2498543e-12 </wgt>
<wgt id='1203'> +1.2594755e-12 </wgt>
<wgt id='1204'> +1.2307934e-12 </wgt>
<wgt id='1205'> +1.2680653e-12 </wgt>
<wgt id='1206'> +1.2604590e-12 </wgt>
<wgt id='1207'> +1.2446026e-12 </wgt>
<wgt id='1208'> +1.2448969e-12 </wgt>
<wgt id='1209'> +1.2570023e-12 </wgt>
<wgt id='1210'> +1.2544475e-12 </wgt>
<wgt id='1211'> +1.2422160e-12 </wgt>
<wgt id='1212'> +1.2519340e-12 </wgt>
<wgt id='1213'> +1.2554750e-12 </wgt>
<wgt id='1214'> +1.2377138e-12 </wgt>
<wgt id='1215'> +1.2791328e-12 </wgt>
<wgt id='1216'> +1.2643870e-12 </wgt>
<wgt id='1217'> +1.2466182e-12 </wgt>
<wgt id='1218'> +1.2632151e-12 </wgt>
<wgt id='1219'> +1.2490127e-12 </wgt>
<wgt id='1220'> +1.2603241e-12 </wgt>
<wgt id='1221'> +1.2520094e-12 </wgt>
<wgt id='1222'> +1.2559775e-12 </wgt>
<wgt id='1223'> +1.2537030e-12 </wgt>
<wgt id='1224'> +1.2556944e-12 </wgt>
<wgt id='1225'> +1.2530667e-12 </wgt>
<wgt id='1226'> +1.2539464e-12 </wgt>
<wgt id='1227'> +1.2538693e-12 </wgt>
<wgt id='1228'> +1.2482762e-12 </wgt>
<wgt id='1229'> +1.2563863e-12 </wgt>
<wgt id='1230'> +1.2475413e-12 </wgt>
<wgt id='1231'> +1.2483164e-12 </wgt>
<wgt id='1232'> +1.2499588e-12 </wgt>
<wgt id='1233'> +1.2548929e-12 </wgt>
<wgt id='1234'> +1.2537523e-12 </wgt>
<wgt id='1235'> +1.2410246e-12 </wgt>
<wgt id='1236'> +1.2457447e-12 </wgt>
<wgt id='1237'> +1.2499351e-12 </wgt>
<wgt id='1238'> +1.2572281e-12 </wgt>
<wgt id='1239'> +1.2602162e-12 </wgt>
<wgt id='1240'> +1.2630840e-12 </wgt>
<wgt id='1241'> +1.1849578e-12 </wgt>
<wgt id='1242'> +1.1768097e-12 </wgt>
<wgt id='1243'> +1.1932243e-12 </wgt>
<wgt id='1244'> +1.1791489e-12 </wgt>
<wgt id='1245'> +1.1893859e-12 </wgt>
<wgt id='1246'> +1.1865160e-12 </wgt>
<wgt id='1247'> +1.1837842e-12 </wgt>
<wgt id='1248'> +1.1849074e-12 </wgt>
<wgt id='1249'> +1.1851571e-12 </wgt>
<wgt id='1250'> +1.1808553e-12 </wgt>
<wgt id='1251'> +1.1880645e-12 </wgt>
<wgt id='1252'> +1.1815661e-12 </wgt>
<wgt id='1253'> +1.1877701e-12 </wgt>
<wgt id='1254'> +1.1640418e-12 </wgt>
<wgt id='1255'> +1.1977505e-12 </wgt>
<wgt id='1256'> +1.1907589e-12 </wgt>
<wgt id='1257'> +1.1705669e-12 </wgt>
<wgt id='1258'> +1.2038203e-12 </wgt>
<wgt id='1259'> +1.1658522e-12 </wgt>
<wgt id='1260'> +1.1907278e-12 </wgt>
<wgt id='1261'> +1.1784925e-12 </wgt>
<wgt id='1262'> +1.1891943e-12 </wgt>
<wgt id='1263'> +1.1830917e-12 </wgt>
<wgt id='1264'> +1.1982076e-12 </wgt>
<wgt id='1265'> +1.1787594e-12 </wgt>
<wgt id='1266'> +1.1760547e-12 </wgt>
<wgt id='1267'> +1.1946176e-12 </wgt>
<wgt id='1268'> +1.1866376e-12 </wgt>
<wgt id='1269'> +1.1877112e-12 </wgt>
<wgt id='1270'> +1.1734581e-12 </wgt>
<wgt id='1271'> +1.1768186e-12 </wgt>
<wgt id='1272'> +1.1850933e-12 </wgt>
<wgt id='1273'> +1.1841574e-12 </wgt>
<wgt id='1274'> +1.1856457e-12 </wgt>
<wgt id='1275'> +1.1823315e-12 </wgt>
<wgt id='1276'> +1.1872642e-12 </wgt>
<wgt id='1277'> +1.1819348e-12 </wgt>
<wgt id='1278'> +1.1840401e-12 </wgt>
<wgt id='1279'> +1.1849194e-12 </wgt>
<wgt id='1280'> +1.1860706e-12 </wgt>
<wgt id='1281'> +1.1810304e-12 </wgt>
<wgt id='1282'> +1.1849578e-12 </wgt>
<wgt id='1283'> +1.1729946e-12 </wgt>
<wgt id='1284'> +1.1776728e-12 </wgt>
<wgt id='1285'> +1.1817963e-12 </wgt>
<wgt id='1286'> +1.1885999e-12 </wgt>
<wgt id='1287'> +1.1913847e-12 </wgt>
<wgt id='1288'> +1.1937163e-12 </wgt>
<wgt id='1289'> +1.2891881e-12 </wgt>
<wgt id='1290'> +1.2909711e-12 </wgt>
<wgt id='1291'> +1.2872869e-12 </wgt>
<wgt id='1292'> +1.2897621e-12 </wgt>
<wgt id='1293'> +1.2887509e-12 </wgt>
<wgt id='1294'> +1.2881836e-12 </wgt>
<wgt id='1295'> +1.2902452e-12 </wgt>
<wgt id='1296'> +1.2842632e-12 </wgt>
<wgt id='1297'> +1.2953696e-12 </wgt>
<wgt id='1298'> +1.2986827e-12 </wgt>
<wgt id='1299'> +1.2773991e-12 </wgt>
<wgt id='1300'> +1.2938550e-12 </wgt>
<wgt id='1301'> +1.2798016e-12 </wgt>
<wgt id='1302'> +1.2876440e-12 </wgt>
<wgt id='1303'> +1.2913111e-12 </wgt>
<wgt id='1304'> +1.2838424e-12 </wgt>
<wgt id='1305'> +1.2928439e-12 </wgt>
<wgt id='1306'> +1.2790001e-12 </wgt>
<wgt id='1307'> +1.3007416e-12 </wgt>
<wgt id='1308'> +1.2887952e-12 </wgt>
<wgt id='1309'> +1.2895042e-12 </wgt>
<wgt id='1310'> +1.2854914e-12 </wgt>
<wgt id='1311'> +1.2932338e-12 </wgt>
<wgt id='1312'> +1.2802643e-12 </wgt>
<wgt id='1313'> +1.2983765e-12 </wgt>
<wgt id='1314'> +1.2968017e-12 </wgt>
<wgt id='1315'> +1.2738974e-12 </wgt>
<wgt id='1316'> +1.2959513e-12 </wgt>
<wgt id='1317'> +1.2900304e-12 </wgt>
<wgt id='1318'> +1.3055846e-12 </wgt>
<wgt id='1319'> +1.2701773e-12 </wgt>
<wgt id='1320'> +1.3019676e-12 </wgt>
<wgt id='1321'> +1.2782221e-12 </wgt>
<wgt id='1322'> +1.2905375e-12 </wgt>
<wgt id='1323'> +1.2873140e-12 </wgt>
<wgt id='1324'> +1.2873799e-12 </wgt>
<wgt id='1325'> +1.2980998e-12 </wgt>
<wgt id='1326'> +1.2928948e-12 </wgt>
<wgt id='1327'> +1.2886087e-12 </wgt>
<wgt id='1328'> +1.2886123e-12 </wgt>
<wgt id='1329'> +1.2896710e-12 </wgt>
<wgt id='1330'> +1.2895631e-12 </wgt>
<wgt id='1331'> +1.2893127e-12 </wgt>
<wgt id='1332'> +1.3185740e-12 </wgt>
<wgt id='1333'> +1.2776572e-12 </wgt>
<wgt id='1334'> +1.2871420e-12 </wgt>
<wgt id='1335'> +1.2948670e-12 </wgt>
<wgt id='1336'> +1.2788205e-12 </wgt>
<wgt id='1337'> +1.2960361e-12 </wgt>
<wgt id='1338'> +1.2860426e-12 </wgt>
<wgt id='1339'> +1.2905869e-12 </wgt>
<wgt id='1340'> +1.2615292e-12 </wgt>
<wgt id='1341'> +1.2633334e-12 </wgt>
<wgt id='1342'> +1.2595450e-12 </wgt>
<wgt id='1343'> +1.2621199e-12 </wgt>
<wgt id='1344'> +1.2610762e-12 </wgt>
<wgt id='1345'> +1.2603224e-12 </wgt>
<wgt id='1346'> +1.2626429e-12 </wgt>
<wgt id='1347'> +1.2566419e-12 </wgt>
<wgt id='1348'> +1.2669451e-12 </wgt>
<wgt id='1349'> +1.2703459e-12 </wgt>
<wgt id='1350'> +1.2529150e-12 </wgt>
<wgt id='1351'> +1.2662359e-12 </wgt>
<wgt id='1352'> +1.2513290e-12 </wgt>
<wgt id='1353'> +1.2590417e-12 </wgt>
<wgt id='1354'> +1.2659265e-12 </wgt>
<wgt id='1355'> +1.2561539e-12 </wgt>
<wgt id='1356'> +1.2645272e-12 </wgt>
<wgt id='1357'> +1.2507072e-12 </wgt>
<wgt id='1358'> +1.2742727e-12 </wgt>
<wgt id='1359'> +1.2635054e-12 </wgt>
<wgt id='1360'> +1.2598510e-12 </wgt>
<wgt id='1361'> +1.2578784e-12 </wgt>
<wgt id='1362'> +1.2664741e-12 </wgt>
<wgt id='1363'> +1.2493627e-12 </wgt>
<wgt id='1364'> +1.2702347e-12 </wgt>
<wgt id='1365'> +1.2473203e-12 </wgt>
<wgt id='1366'> +1.2687797e-12 </wgt>
<wgt id='1367'> +1.2675364e-12 </wgt>
<wgt id='1368'> +1.2618937e-12 </wgt>
<wgt id='1369'> +1.2752329e-12 </wgt>
<wgt id='1370'> +1.2454402e-12 </wgt>
<wgt id='1371'> +1.2717704e-12 </wgt>
<wgt id='1372'> +1.2490353e-12 </wgt>
<wgt id='1373'> +1.2616156e-12 </wgt>
<wgt id='1374'> +1.2609690e-12 </wgt>
<wgt id='1375'> +1.2595376e-12 </wgt>
<wgt id='1376'> +1.2709329e-12 </wgt>
<wgt id='1377'> +1.2649134e-12 </wgt>
<wgt id='1378'> +1.2616288e-12 </wgt>
<wgt id='1379'> +1.2607946e-12 </wgt>
<wgt id='1380'> +1.2621238e-12 </wgt>
<wgt id='1381'> +1.2631637e-12 </wgt>
<wgt id='1382'> +1.2601234e-12 </wgt>
<wgt id='1383'> +1.2883211e-12 </wgt>
<wgt id='1384'> +1.2511303e-12 </wgt>
<wgt id='1385'> +1.2600163e-12 </wgt>
<wgt id='1386'> +1.2655295e-12 </wgt>
<wgt id='1387'> +1.2485092e-12 </wgt>
<wgt id='1388'> +1.2693136e-12 </wgt>
<wgt id='1389'> +1.2552813e-12 </wgt>
<wgt id='1390'> +1.2639920e-12 </wgt>
<wgt id='1391'> +1.2463345e-12 </wgt>
<wgt id='1392'> +1.2070751e-12 </wgt>
<wgt id='1393'> +1.2206162e-12 </wgt>
<wgt id='1394'> +1.2336754e-12 </wgt>
<wgt id='1395'> +1.2592332e-12 </wgt>
<wgt id='1396'> +1.2464057e-12 </wgt>
<wgt id='1397'> +1.2850311e-12 </wgt>
<wgt id='1398'> +1.2760510e-12 </wgt>
<wgt id='1399'> +1.2678827e-12 </wgt>
<wgt id='1400'> +1.2603606e-12 </wgt>
<wgt id='1401'> +1.2532176e-12 </wgt>
<wgt id='1402'> +1.2401405e-12 </wgt>
<wgt id='1403'> +1.2346171e-12 </wgt>
<wgt id='1404'> +1.2295218e-12 </wgt>
<wgt id='1405'> +1.2464057e-12 </wgt>
<wgt id='1406'> +1.2374775e-12 </wgt>
<wgt id='1407'> +1.2421060e-12 </wgt>
<wgt id='1408'> +1.2503574e-12 </wgt>
<wgt id='1409'> +1.2535763e-12 </wgt>
<wgt id='1410'> +1.1575930e-12 </wgt>
<wgt id='1411'> +1.1590987e-12 </wgt>
<wgt id='1412'> +1.1555782e-12 </wgt>
<wgt id='1413'> +1.1608457e-12 </wgt>
<wgt id='1414'> +1.1543159e-12 </wgt>
<wgt id='1415'> +1.1593869e-12 </wgt>
<wgt id='1416'> +1.1568604e-12 </wgt>
<wgt id='1417'> +1.1497251e-12 </wgt>
<wgt id='1418'> +1.1654171e-12 </wgt>
<wgt id='1419'> +1.1617595e-12 </wgt>
<wgt id='1420'> +1.1535778e-12 </wgt>
<wgt id='1421'> +1.1358325e-12 </wgt>
<wgt id='1422'> +1.1670461e-12 </wgt>
<wgt id='1423'> +1.1575512e-12 </wgt>
<wgt id='1424'> +1.1575932e-12 </wgt>
<wgt id='1425'> +1.1508245e-12 </wgt>
<wgt id='1426'> +1.1648872e-12 </wgt>
<wgt id='1427'> +1.1431104e-12 </wgt>
<wgt id='1428'> +1.1654156e-12 </wgt>
<wgt id='1429'> +1.1540610e-12 </wgt>
<wgt id='1430'> +1.1624441e-12 </wgt>
<wgt id='1431'> +1.1602274e-12 </wgt>
<wgt id='1432'> +1.1556414e-12 </wgt>
<wgt id='1433'> +1.1646278e-12 </wgt>
<wgt id='1434'> +1.1492597e-12 </wgt>
<wgt id='1435'> +1.1623515e-12 </wgt>
<wgt id='1436'> +1.1461921e-12 </wgt>
<wgt id='1437'> +1.1657167e-12 </wgt>
<wgt id='1438'> +1.1562277e-12 </wgt>
<wgt id='1439'> +1.1489284e-12 </wgt>
<wgt id='1440'> +1.1780996e-12 </wgt>
<wgt id='1441'> +1.1605989e-12 </wgt>
<wgt id='1442'> +1.1519687e-12 </wgt>
<wgt id='1443'> +1.1548193e-12 </wgt>
<wgt id='1444'> +1.1646446e-12 </wgt>
<wgt id='1445'> +1.1659979e-12 </wgt>
<wgt id='1446'> +1.1553463e-12 </wgt>
<wgt id='1447'> +1.1585159e-12 </wgt>
<wgt id='1448'> +1.1591021e-12 </wgt>
<wgt id='1449'> +1.1575429e-12 </wgt>
<wgt id='1450'> +1.1573653e-12 </wgt>
<wgt id='1451'> +1.1556854e-12 </wgt>
<wgt id='1452'> +1.1589852e-12 </wgt>
<wgt id='1453'> +1.1585368e-12 </wgt>
<wgt id='1454'> +1.1520758e-12 </wgt>
<wgt id='1455'> +1.1563181e-12 </wgt>
<wgt id='1456'> +1.1555822e-12 </wgt>
<wgt id='1457'> +1.1554560e-12 </wgt>
<wgt id='1458'> +1.1583532e-12 </wgt>
<wgt id='1459'> +1.1650135e-12 </wgt>
<wgt id='1460'> +1.1514782e-12 </wgt>
<wgt id='1461'> +1.1575930e-12 </wgt>
<wgt id='1462'> +1.1520210e-12 </wgt>
<wgt id='1463'> +1.1651331e-12 </wgt>
<wgt id='1464'> +1.1596404e-12 </wgt>
<wgt id='1465'> +1.1960546e-12 </wgt>
<wgt id='1466'> +1.1870436e-12 </wgt>
<wgt id='1467'> +1.1792385e-12 </wgt>
<wgt id='1468'> +1.1735045e-12 </wgt>
<wgt id='1469'> +1.1656440e-12 </wgt>
<wgt id='1470'> +1.1549171e-12 </wgt>
<wgt id='1471'> +1.1487617e-12 </wgt>
<wgt id='1472'> +1.1435066e-12 </wgt>
<wgt id='1473'> +1.1596404e-12 </wgt>
<wgt id='1474'> +1.1513003e-12 </wgt>
<wgt id='1475'> +1.1560091e-12 </wgt>
<wgt id='1476'> +1.1630732e-12 </wgt>
<wgt id='1477'> +1.1659498e-12 </wgt>
<wgt id='1478'> +1.2259513e-12 </wgt>
<wgt id='1479'> +1.2253253e-12 </wgt>
<wgt id='1480'> +1.2156717e-12 </wgt>
<wgt id='1481'> +1.2137764e-12 </wgt>
<wgt id='1482'> +1.2299282e-12 </wgt>
<wgt id='1483'> +1.2167978e-12 </wgt>
<wgt id='1484'> +1.2262929e-12 </wgt>
<wgt id='1485'> +1.2382313e-12 </wgt>
<wgt id='1486'> +1.2260701e-12 </wgt>
<wgt id='1487'> +1.2287563e-12 </wgt>
<wgt id='1488'> +1.2219239e-12 </wgt>
<wgt id='1489'> +1.2533578e-12 </wgt>
<wgt id='1490'> +1.2261355e-12 </wgt>
<wgt id='1491'> +1.2307228e-12 </wgt>
<wgt id='1492'> +1.2247449e-12 </wgt>
<wgt id='1493'> +1.2007940e-12 </wgt>
<wgt id='1494'> +1.2273711e-12 </wgt>
<wgt id='1495'> +1.2318388e-12 </wgt>
<wgt id='1496'> +1.2254445e-12 </wgt>
<wgt id='1497'> +1.2286964e-12 </wgt>
<wgt id='1498'> +1.2251031e-12 </wgt>
<wgt id='1499'> +1.2294415e-12 </wgt>
<wgt id='1500'> +1.2257340e-12 </wgt>
<wgt id='1501'> +1.2250437e-12 </wgt>
<wgt id='1502'> +1.2262036e-12 </wgt>
<wgt id='1503'> +1.2274122e-12 </wgt>
<wgt id='1504'> +1.2260168e-12 </wgt>
<wgt id='1505'> +1.2272055e-12 </wgt>
<wgt id='1506'> +1.2275182e-12 </wgt>
<wgt id='1507'> +1.2256031e-12 </wgt>
<wgt id='1508'> +1.2317498e-12 </wgt>
<wgt id='1509'> +1.1949000e-12 </wgt>
<wgt id='1510'> +1.1919224e-12 </wgt>
<wgt id='1511'> +1.1997561e-12 </wgt>
<wgt id='1512'> +1.1986980e-12 </wgt>
<wgt id='1513'> +1.1948992e-12 </wgt>
<wgt id='1514'> +1.1943124e-12 </wgt>
<wgt id='1515'> +1.1955623e-12 </wgt>
<wgt id='1516'> +1.1978136e-12 </wgt>
<wgt id='1517'> +1.2049635e-12 </wgt>
<wgt id='1518'> +1.1915922e-12 </wgt>
<wgt id='1519'> +1.1891824e-12 </wgt>
<wgt id='1520'> +1.2097871e-12 </wgt>
<wgt id='1521'> +1.2033802e-12 </wgt>
<wgt id='1522'> +1.2079926e-12 </wgt>
<wgt id='1523'> +1.1970448e-12 </wgt>
<wgt id='1524'> +1.1959065e-12 </wgt>
<wgt id='1525'> +1.1920089e-12 </wgt>
<wgt id='1526'> +1.1978407e-12 </wgt>
<wgt id='1527'> +1.1964751e-12 </wgt>
<wgt id='1528'> +1.1916209e-12 </wgt>
<wgt id='1529'> +1.1932177e-12 </wgt>
<wgt id='1530'> +1.1895168e-12 </wgt>
<wgt id='1531'> +1.1940822e-12 </wgt>
<wgt id='1532'> +1.1937316e-12 </wgt>
<wgt id='1533'> +1.1919611e-12 </wgt>
<wgt id='1534'> +1.1909096e-12 </wgt>
<wgt id='1535'> +1.2033106e-12 </wgt>
<wgt id='1536'> +1.1988738e-12 </wgt>
<wgt id='1537'> +1.1938888e-12 </wgt>
<wgt id='1538'> +1.1945897e-12 </wgt>
<wgt id='1539'> +1.1927441e-12 </wgt>
<wgt id='1540'> +1.1930435e-12 </wgt>
<wgt id='1541'> +1.1943208e-12 </wgt>
<wgt id='1542'> +1.1926568e-12 </wgt>
<wgt id='1543'> +1.1958699e-12 </wgt>
<wgt id='1544'> +1.1972637e-12 </wgt>
<wgt id='1545'> +1.1931566e-12 </wgt>
<wgt id='1546'> +1.1944110e-12 </wgt>
<wgt id='1547'> +1.1935570e-12 </wgt>
<wgt id='1548'> +1.1978009e-12 </wgt>
<wgt id='1549'> +1.1963356e-12 </wgt>
<wgt id='1550'> +1.1926600e-12 </wgt>
<wgt id='1551'> +1.1968362e-12 </wgt>
<wgt id='1552'> +1.1948355e-12 </wgt>
<wgt id='1553'> +1.1920898e-12 </wgt>
<wgt id='1554'> +1.1919925e-12 </wgt>
<wgt id='1555'> +1.1935705e-12 </wgt>
<wgt id='1556'> +1.1958779e-12 </wgt>
<wgt id='1557'> +1.1951201e-12 </wgt>
<wgt id='1558'> +1.1959710e-12 </wgt>
<wgt id='1559'> +1.1940812e-12 </wgt>
<wgt id='1560'> +1.1942681e-12 </wgt>
<wgt id='1561'> +1.1955063e-12 </wgt>
<wgt id='1562'> +1.1949054e-12 </wgt>
<wgt id='1563'> +1.1958061e-12 </wgt>
<wgt id='1564'> +1.1957345e-12 </wgt>
<wgt id='1565'> +1.1947417e-12 </wgt>
<wgt id='1566'> +1.1945500e-12 </wgt>
<wgt id='1567'> +1.1951671e-12 </wgt>
<wgt id='1568'> +1.1943380e-12 </wgt>
<wgt id='1569'> +1.1945659e-12 </wgt>
<wgt id='1570'> +1.1955201e-12 </wgt>
<wgt id='1571'> +1.1947140e-12 </wgt>
<wgt id='1572'> +1.1948839e-12 </wgt>
<wgt id='1573'> +1.1948793e-12 </wgt>
<wgt id='1574'> +1.1950127e-12 </wgt>
<wgt id='1575'> +1.1946717e-12 </wgt>
<wgt id='1576'> +1.1950281e-12 </wgt>
<wgt id='1577'> +1.1958512e-12 </wgt>
<wgt id='1578'> +1.1944424e-12 </wgt>
<wgt id='1579'> +1.1946914e-12 </wgt>
<wgt id='1580'> +1.1955244e-12 </wgt>
<wgt id='1581'> +1.1956091e-12 </wgt>
<wgt id='1582'> +1.1956126e-12 </wgt>
<wgt id='1583'> +1.1955052e-12 </wgt>
<wgt id='1584'> +1.1950169e-12 </wgt>
<wgt id='1585'> +1.1947302e-12 </wgt>
<wgt id='1586'> +1.1958704e-12 </wgt>
<wgt id='1587'> +1.1957119e-12 </wgt>
<wgt id='1588'> +1.1940640e-12 </wgt>
<wgt id='1589'> +1.1950950e-12 </wgt>
<wgt id='1590'> +1.1948852e-12 </wgt>
<wgt id='1591'> +1.1944164e-12 </wgt>
<wgt id='1592'> +1.1947932e-12 </wgt>
<wgt id='1593'> +1.1958648e-12 </wgt>
<wgt id='1594'> +1.1946599e-12 </wgt>
<wgt id='1595'> +1.1954815e-12 </wgt>
<wgt id='1596'> +1.1945540e-12 </wgt>
<wgt id='1597'> +1.1946964e-12 </wgt>
<wgt id='1598'> +1.1953841e-12 </wgt>
<wgt id='1599'> +1.1946311e-12 </wgt>
<wgt id='1600'> +1.1948570e-12 </wgt>
<wgt id='1601'> +1.1952866e-12 </wgt>
<wgt id='1602'> +1.1951935e-12 </wgt>
<wgt id='1603'> +1.1952951e-12 </wgt>
<wgt id='1604'> +1.1949842e-12 </wgt>
<wgt id='1605'> +1.1953817e-12 </wgt>
<wgt id='1606'> +1.1934257e-12 </wgt>
<wgt id='1607'> +1.1954047e-12 </wgt>
<wgt id='1608'> +1.1948489e-12 </wgt>
<wgt id='1609'> +1.1945688e-12 </wgt>
<wgt id='1610'> +1.1720411e-12 </wgt>
<wgt id='1611'> +1.2175855e-12 </wgt>
<wgt id='1612'> +1.4434664e-12 </wgt>
<wgt id='1613'> +1.4947764e-12 </wgt>
<wgt id='1614'> +1.4583181e-12 </wgt>
<wgt id='1615'> +1.4425508e-12 </wgt>
<wgt id='1616'> +1.4767796e-12 </wgt>
<wgt id='1617'> +1.3735892e-12 </wgt>
<wgt id='1618'> +1.3330609e-12 </wgt>
<wgt id='1619'> +1.4376691e-12 </wgt>
<wgt id='1620'> +1.4601289e-12 </wgt>
<wgt id='1621'> +1.4368783e-12 </wgt>
<wgt id='1622'> +1.4418038e-12 </wgt>
<wgt id='1623'> +1.4067463e-12 </wgt>
<wgt id='1624'> +1.4098932e-12 </wgt>
<wgt id='1625'> +1.4570258e-12 </wgt>
<wgt id='1626'> +1.4741997e-12 </wgt>
<wgt id='1627'> +1.4278409e-12 </wgt>
<wgt id='1628'> +1.4553554e-12 </wgt>
<wgt id='1629'> +1.4937732e-12 </wgt>
<wgt id='1630'> +1.4420987e-12 </wgt>
<wgt id='1631'> +1.4471193e-12 </wgt>
<wgt id='1632'> +1.5159793e-12 </wgt>
<wgt id='1633'> +1.4329643e-12 </wgt>
<wgt id='1634'> +1.4749558e-12 </wgt>
<wgt id='1635'> +1.4218104e-12 </wgt>
<wgt id='1636'> +1.4001246e-12 </wgt>
<wgt id='1637'> +1.4039581e-12 </wgt>
<wgt id='1638'> +1.4636377e-12 </wgt>
<wgt id='1639'> +1.4537231e-12 </wgt>
<wgt id='1640'> +1.4977562e-12 </wgt>
<wgt id='1641'> +1.4161196e-12 </wgt>
<wgt id='1642'> +1.4844084e-12 </wgt>
<wgt id='1643'> +1.5060038e-12 </wgt>
<wgt id='1644'> +1.4132964e-12 </wgt>
<wgt id='1645'> +1.4769956e-12 </wgt>
<wgt id='1646'> +1.4866650e-12 </wgt>
<wgt id='1647'> +1.4893315e-12 </wgt>
<wgt id='1648'> +1.4470563e-12 </wgt>
<wgt id='1649'> +1.3499423e-12 </wgt>
<wgt id='1650'> +1.4702970e-12 </wgt>
<wgt id='1651'> +1.3845740e-12 </wgt>
<wgt id='1652'> +1.4915184e-12 </wgt>
<wgt id='1653'> +1.3949208e-12 </wgt>
<wgt id='1654'> +1.3806652e-12 </wgt>
<wgt id='1655'> +1.3895365e-12 </wgt>
<wgt id='1656'> +1.4724069e-12 </wgt>
<wgt id='1657'> +1.4131976e-12 </wgt>
<wgt id='1658'> +1.4458890e-12 </wgt>
<wgt id='1659'> +1.4098932e-12 </wgt>
<wgt id='1660'> +1.4001980e-12 </wgt>
<wgt id='1661'> +1.4137701e-12 </wgt>
<wgt id='1662'> +1.4581356e-12 </wgt>
<wgt id='1663'> +1.4399284e-12 </wgt>
<wgt id='1664'> +1.5280816e-12 </wgt>
<wgt id='1665'> +1.4839152e-12 </wgt>
<wgt id='1666'> +1.4172666e-12 </wgt>
<wgt id='1667'> +1.4164775e-12 </wgt>
<wgt id='1668'> +1.4108057e-12 </wgt>
<wgt id='1669'> +1.4463996e-12 </wgt>
<wgt id='1670'> +1.4663569e-12 </wgt>
<wgt id='1671'> +1.5073323e-12 </wgt>
<wgt id='1672'> +1.4684461e-12 </wgt>
<wgt id='1673'> +1.3854586e-12 </wgt>
<wgt id='1674'> +1.4581813e-12 </wgt>
<wgt id='1675'> +1.5541131e-12 </wgt>
<wgt id='1676'> +1.4336433e-12 </wgt>
<wgt id='1677'> +1.4707475e-12 </wgt>
<wgt id='1678'> +1.4205943e-12 </wgt>
<wgt id='1679'> +1.4607176e-12 </wgt>
<wgt id='1680'> +1.4541498e-12 </wgt>
<wgt id='1681'> +1.4730441e-12 </wgt>
<wgt id='1682'> +1.4366603e-12 </wgt>
<wgt id='1683'> +1.4174736e-12 </wgt>
<wgt id='1684'> +1.4399549e-12 </wgt>
<wgt id='1685'> +1.4476042e-12 </wgt>
<wgt id='1686'> +1.4703459e-12 </wgt>
<wgt id='1687'> +1.4844454e-12 </wgt>
<wgt id='1688'> +1.4725946e-12 </wgt>
<wgt id='1689'> +1.4115392e-12 </wgt>
<wgt id='1690'> +1.4371668e-12 </wgt>
<wgt id='1691'> +1.4674230e-12 </wgt>
<wgt id='1692'> +1.4658708e-12 </wgt>
<wgt id='1693'> +1.4859974e-12 </wgt>
<wgt id='1694'> +1.3835634e-12 </wgt>
<wgt id='1695'> +1.4652203e-12 </wgt>
<wgt id='1696'> +1.4914797e-12 </wgt>
<wgt id='1697'> +1.3878684e-12 </wgt>
<wgt id='1698'> +1.4202190e-12 </wgt>
<wgt id='1699'> +1.4076119e-12 </wgt>
<wgt id='1700'> +1.4424370e-12 </wgt>
<wgt id='1701'> +1.4348050e-12 </wgt>
<wgt id='1702'> +1.3861319e-12 </wgt>
<wgt id='1703'> +1.4796361e-12 </wgt>
<wgt id='1704'> +1.4432698e-12 </wgt>
<wgt id='1705'> +1.4731098e-12 </wgt>
<wgt id='1706'> +1.4309840e-12 </wgt>
<wgt id='1707'> +1.3905271e-12 </wgt>
<wgt id='1708'> +1.4208191e-12 </wgt>
<wgt id='1709'> +1.4448544e-12 </wgt>
<wgt id='1710'> +1.4158401e-12 </wgt>
<wgt id='1711'> +1.4279314e-12 </wgt>
<wgt id='1712'> +1.4554870e-12 </wgt>
<wgt id='1713'> +1.2297595e-12 </wgt>
<wgt id='1714'> +1.1733439e-12 </wgt>
<wgt id='1715'> +1.2501459e-12 </wgt>
<wgt id='1716'> +1.2257970e-12 </wgt>
<wgt id='1717'> +1.2002919e-12 </wgt>
<wgt id='1718'> +1.2208118e-12 </wgt>
<wgt id='1719'> +1.2272026e-12 </wgt>
<wgt id='1720'> +1.2604600e-12 </wgt>
<wgt id='1721'> +1.2180375e-12 </wgt>
<wgt id='1722'> +1.2163637e-12 </wgt>
<wgt id='1723'> +1.2123473e-12 </wgt>
<wgt id='1724'> +1.2816403e-12 </wgt>
<wgt id='1725'> +1.2481146e-12 </wgt>
<wgt id='1726'> +1.2519248e-12 </wgt>
<wgt id='1727'> +1.2115711e-12 </wgt>
<wgt id='1728'> +1.2465799e-12 </wgt>
<wgt id='1729'> +1.2421287e-12 </wgt>
<wgt id='1730'> +1.1991046e-12 </wgt>
<wgt id='1731'> +1.1899740e-12 </wgt>
<wgt id='1732'> +1.2245362e-12 </wgt>
<wgt id='1733'> +1.2230751e-12 </wgt>
<wgt id='1734'> +1.2381705e-12 </wgt>
<wgt id='1735'> +1.2475225e-12 </wgt>
<wgt id='1736'> +1.3377802e-12 </wgt>
<wgt id='1737'> +1.2266219e-12 </wgt>
<wgt id='1738'> +1.2522092e-12 </wgt>
<wgt id='1739'> +1.1842539e-12 </wgt>
<wgt id='1740'> +1.1907609e-12 </wgt>
<wgt id='1741'> +1.2177478e-12 </wgt>
<wgt id='1742'> +1.2155176e-12 </wgt>
<wgt id='1743'> +1.2551908e-12 </wgt>
<wgt id='1744'> +1.2410062e-12 </wgt>
<wgt id='1745'> +1.1901291e-12 </wgt>
<wgt id='1746'> +1.2555594e-12 </wgt>
<wgt id='1747'> +1.2517503e-12 </wgt>
<wgt id='1748'> +1.2447489e-12 </wgt>
<wgt id='1749'> +1.2348109e-12 </wgt>
<wgt id='1750'> +1.2497051e-12 </wgt>
<wgt id='1751'> +1.2173502e-12 </wgt>
<wgt id='1752'> +1.1798475e-12 </wgt>
<wgt id='1753'> +1.2602086e-12 </wgt>
<wgt id='1754'> +1.1983877e-12 </wgt>
<wgt id='1755'> +1.2552510e-12 </wgt>
<wgt id='1756'> +1.2578835e-12 </wgt>
<wgt id='1757'> +1.2291172e-12 </wgt>
<wgt id='1758'> +1.2616917e-12 </wgt>
<wgt id='1759'> +1.2268526e-12 </wgt>
<wgt id='1760'> +1.1939851e-12 </wgt>
<wgt id='1761'> +1.1885613e-12 </wgt>
<wgt id='1762'> +1.2331352e-12 </wgt>
<wgt id='1763'> +1.2368619e-12 </wgt>
<wgt id='1764'> +1.2328815e-12 </wgt>
<wgt id='1765'> +1.2392062e-12 </wgt>
<wgt id='1766'> +1.2544972e-12 </wgt>
<wgt id='1767'> +1.2278230e-12 </wgt>
<wgt id='1768'> +1.2180163e-12 </wgt>
<wgt id='1769'> +1.1935882e-12 </wgt>
<wgt id='1770'> +1.2498537e-12 </wgt>
<wgt id='1771'> +1.2306476e-12 </wgt>
<wgt id='1772'> +1.2545248e-12 </wgt>
<wgt id='1773'> +1.2127874e-12 </wgt>
<wgt id='1774'> +1.2218992e-12 </wgt>
<wgt id='1775'> +1.2366511e-12 </wgt>
<wgt id='1776'> +1.2412613e-12 </wgt>
<wgt id='1777'> +1.2176404e-12 </wgt>
<wgt id='1778'> +1.1919742e-12 </wgt>
<wgt id='1779'> +1.2626700e-12 </wgt>
<wgt id='1780'> +1.2696012e-12 </wgt>
<wgt id='1781'> +1.2017767e-12 </wgt>
<wgt id='1782'> +1.1961415e-12 </wgt>
<wgt id='1783'> +1.2431546e-12 </wgt>
<wgt id='1784'> +1.2511309e-12 </wgt>
<wgt id='1785'> +1.2121718e-12 </wgt>
<wgt id='1786'> +1.1921028e-12 </wgt>
<wgt id='1787'> +1.2495679e-12 </wgt>
<wgt id='1788'> +1.2065203e-12 </wgt>
<wgt id='1789'> +1.2291446e-12 </wgt>
<wgt id='1790'> +1.2723630e-12 </wgt>
<wgt id='1791'> +1.2797270e-12 </wgt>
<wgt id='1792'> +1.2052078e-12 </wgt>
<wgt id='1793'> +1.2516941e-12 </wgt>
<wgt id='1794'> +1.2357085e-12 </wgt>
<wgt id='1795'> +1.2258958e-12 </wgt>
<wgt id='1796'> +1.2017492e-12 </wgt>
<wgt id='1797'> +1.2255474e-12 </wgt>
<wgt id='1798'> +1.1971500e-12 </wgt>
<wgt id='1799'> +1.2329299e-12 </wgt>
<wgt id='1800'> +1.2337939e-12 </wgt>
<wgt id='1801'> +1.2189931e-12 </wgt>
<wgt id='1802'> +1.2243891e-12 </wgt>
<wgt id='1803'> +1.2442977e-12 </wgt>
<wgt id='1804'> +1.1717207e-12 </wgt>
<wgt id='1805'> +1.2457787e-12 </wgt>
<wgt id='1806'> +1.2014935e-12 </wgt>
<wgt id='1807'> +1.2775442e-12 </wgt>
<wgt id='1808'> +1.2305823e-12 </wgt>
<wgt id='1809'> +1.2185301e-12 </wgt>
<wgt id='1810'> +1.2180599e-12 </wgt>
<wgt id='1811'> +1.2677132e-12 </wgt>
<wgt id='1812'> +1.2354393e-12 </wgt>
<wgt id='1813'> +1.2403892e-12 </wgt>
<wgt id='1814'> +1.1196325e-12 </wgt>
<wgt id='1815'> +1.3117391e-12 </wgt>
<wgt id='1816'> +1.2297595e-12 </wgt>
<wgt id='1817'> +1.1733439e-12 </wgt>
<wgt id='1818'> +1.2501459e-12 </wgt>
<wgt id='1819'> +1.2257970e-12 </wgt>
<wgt id='1820'> +1.2002919e-12 </wgt>
<wgt id='1821'> +1.2208118e-12 </wgt>
<wgt id='1822'> +1.2272026e-12 </wgt>
<wgt id='1823'> +1.2604600e-12 </wgt>
<wgt id='1824'> +1.2180375e-12 </wgt>
<wgt id='1825'> +1.2163637e-12 </wgt>
<wgt id='1826'> +1.2123473e-12 </wgt>
<wgt id='1827'> +1.2816403e-12 </wgt>
<wgt id='1828'> +1.2481146e-12 </wgt>
<wgt id='1829'> +1.2519248e-12 </wgt>
<wgt id='1830'> +1.2115711e-12 </wgt>
<wgt id='1831'> +1.2465799e-12 </wgt>
<wgt id='1832'> +1.2421287e-12 </wgt>
<wgt id='1833'> +1.1991046e-12 </wgt>
<wgt id='1834'> +1.1899740e-12 </wgt>
<wgt id='1835'> +1.2245362e-12 </wgt>
<wgt id='1836'> +1.2230751e-12 </wgt>
<wgt id='1837'> +1.2381705e-12 </wgt>
<wgt id='1838'> +1.2475225e-12 </wgt>
<wgt id='1839'> +1.3377802e-12 </wgt>
<wgt id='1840'> +1.2266219e-12 </wgt>
<wgt id='1841'> +1.2522092e-12 </wgt>
<wgt id='1842'> +1.1842539e-12 </wgt>
<wgt id='1843'> +1.1907609e-12 </wgt>
<wgt id='1844'> +1.2177478e-12 </wgt>
<wgt id='1845'> +1.2155176e-12 </wgt>
<wgt id='1846'> +1.2551908e-12 </wgt>
<wgt id='1847'> +1.2410062e-12 </wgt>
<wgt id='1848'> +1.1901291e-12 </wgt>
<wgt id='1849'> +1.2555594e-12 </wgt>
<wgt id='1850'> +1.2517503e-12 </wgt>
<wgt id='1851'> +1.2447489e-12 </wgt>
<wgt id='1852'> +1.2348109e-12 </wgt>
<wgt id='1853'> +1.2497051e-12 </wgt>
<wgt id='1854'> +1.2173502e-12 </wgt>
<wgt id='1855'> +1.1798475e-12 </wgt>
<wgt id='1856'> +1.2602086e-12 </wgt>
<wgt id='1857'> +1.1983877e-12 </wgt>
<wgt id='1858'> +1.2552510e-12 </wgt>
<wgt id='1859'> +1.2578835e-12 </wgt>
<wgt id='1860'> +1.2291172e-12 </wgt>
<wgt id='1861'> +1.2616917e-12 </wgt>
<wgt id='1862'> +1.2268526e-12 </wgt>
<wgt id='1863'> +1.1939851e-12 </wgt>
<wgt id='1864'> +1.1885613e-12 </wgt>
<wgt id='1865'> +1.2331352e-12 </wgt>
<wgt id='1866'> +1.2368619e-12 </wgt>
<wgt id='1867'> +1.2328815e-12 </wgt>
<wgt id='1868'> +1.2392062e-12 </wgt>
<wgt id='1869'> +1.2544972e-12 </wgt>
<wgt id='1870'> +1.2278230e-12 </wgt>
<wgt id='1871'> +1.2180163e-12 </wgt>
<wgt id='1872'> +1.1935882e-12 </wgt>
<wgt id='1873'> +1.2498537e-12 </wgt>
<wgt id='1874'> +1.2306476e-12 </wgt>
<wgt id='1875'> +1.2545248e-12 </wgt>
<wgt id='1876'> +1.2127874e-12 </wgt>
<wgt id='1877'> +1.2218992e-12 </wgt>
<wgt id='1878'> +1.2366511e-12 </wgt>
<wgt id='1879'> +1.2412613e-12 </wgt>
<wgt id='1880'> +1.2176404e-12 </wgt>
<wgt id='1881'> +1.1919742e-12 </wgt>
<wgt id='1882'> +1.2626700e-12 </wgt>
<wgt id='1883'> +1.2696012e-12 </wgt>
<wgt id='1884'> +1.2017767e-12 </wgt>
<wgt id='1885'> +1.1961415e-12 </wgt>
<wgt id='1886'> +1.2431546e-12 </wgt>
<wgt id='1887'> +1.2511309e-12 </wgt>
<wgt id='1888'> +1.2121718e-12 </wgt>
<wgt id='1889'> +1.1921028e-12 </wgt>
<wgt id='1890'> +1.2495679e-12 </wgt>
<wgt id='1891'> +1.2065203e-12 </wgt>
<wgt id='1892'> +1.2291446e-12 </wgt>
<wgt id='1893'> +1.2723630e-12 </wgt>
<wgt id='1894'> +1.2797270e-12 </wgt>
<wgt id='1895'> +1.2052078e-12 </wgt>
<wgt id='1896'> +1.2516941e-12 </wgt>
<wgt id='1897'> +1.2357085e-12 </wgt>
<wgt id='1898'> +1.2258958e-12 </wgt>
<wgt id='1899'> +1.2017492e-12 </wgt>
<wgt id='1900'> +1.2255474e-12 </wgt>
<wgt id='1901'> +1.1971500e-12 </wgt>
<wgt id='1902'> +1.2329299e-12 </wgt>
<wgt id='1903'> +1.2337939e-12 </wgt>
<wgt id='1904'> +1.2189931e-12 </wgt>
<wgt id='1905'> +1.2243891e-12 </wgt>
<wgt id='1906'> +1.2442977e-12 </wgt>
<wgt id='1907'> +1.1717207e-12 </wgt>
<wgt id='1908'> +1.2457787e-12 </wgt>
<wgt id='1909'> +1.2014935e-12 </wgt>
<wgt id='1910'> +1.2775442e-12 </wgt>
<wgt id='1911'> +1.2305823e-12 </wgt>
<wgt id='1912'> +1.2185301e-12 </wgt>
<wgt id='1913'> +1.2180599e-12 </wgt>
<wgt id='1914'> +1.2677132e-12 </wgt>
<wgt id='1915'> +1.2354393e-12 </wgt>
<wgt id='1916'> +1.2403892e-12 </wgt>
<wgt id='1917'> +1.2101289e-12 </wgt>
<wgt id='1918'> +1.2369724e-12 </wgt>
<wgt id='1919'> +1.2011329e-12 </wgt>
</rwgt>
</event>
<event>
 9      1 +1.5538000e-12 3.65678700e+01 7.81860800e-03 1.39266400e-01
        2 -1    0    0  502    0 -0.0000000000e+00 +0.0000000000e+00 +1.8319673973e+01 1.8319673973e+01 0.0000000000e+00 0.0000e+00 -1.0000e+00
       21 -1    0    0  501  502 +0.0000000000e+00 -0.0000000000e+00 -7.0321472958e+01 7.0321472958e+01 0.0000000000e+00 0.0000e+00 -1.0000e+00
     1023  2    1    2    0    0 +6.7003313093e+00 -3.2669775250e+01 -3.7168934452e+01 5.2141523306e+01 1.5000003662e+01 0.0000e+00 0.0000e+00
  1000023  2    3    3    0    0 +6.6558673249e+00 -2.9060729186e+01 -3.2162834164e+01 4.4198713310e+01 5.5001641936e+00 0.0000e+00 0.0000e+00
        2  1    1    2  501    0 -6.7003313093e+00 +3.2669775250e+01 -1.4832864532e+01 3.6499623625e+01 0.0000000000e+00 0.0000e+00 -1.0000e+00
  1000022  1    4    4    0    0 +5.9331736191e+00 -2.6099849591e+01 -2.9476668055e+01 4.0128277530e+01 5.0000000000e+00 0.0000e+00 -1.0000e+00
      -11  1    4    4    0    0 +3.7912954864e-01 -1.9956892406e+00 -1.8604734377e+00 2.7546100328e+00 5.1100000000e-04 0.0000e+00 1.0000e+00
       11  1    4    4    0    0 +3.4356415720e-01 -9.6519035362e-01 -8.2569267152e-01 1.3158257475e+00 5.1100000000e-04 0.0000e+00 -1.0000e+00
  1000022  1    3    3    0    0 +4.4463984344e-02 -3.6090460644e+00 -5.0061002880e+00 7.9428099961e+00 5.0000000000e+00 0.0000e+00 -1.0000e+00
<mgrwt>
<rscale>  1 0.36567865E+02</rscale>
<asrwt>0</asrwt>
<pdfrwt beam="1">  1       21 0.10818688E-01 0.36567865E+02</pdfrwt>
<pdfrwt beam="2">  1        2 0.28184115E-02 0.36567865E+02</pdfrwt>
<totfact> 0.28039521E+06</totfact>
</mgrwt>
<rwgt>
<wgt id='1001'> +1.5538000e-12 </wgt>
<wgt id='1002'> +1.5568692e-12 </wgt>
<wgt id='1003'> +1.5565163e-12 </wgt>
<wgt id='1004'> +1.5525147e-12 </wgt>
<wgt id='1005'> +1.5560943e-12 </wgt>
<wgt id='1006'> +1.3667343e-12 </wgt>
<wgt id='1007'> +1.3887282e-12 </wgt>
<wgt id='1008'> +1.3891263e-12 </wgt>
<wgt id='1009'> +1.3639829e-12 </wgt>
<wgt id='1010'> +1.3895196e-12 </wgt>
<wgt id='1011'> +1.8029923e-12 </wgt>
<wgt id='1012'> +1.7732444e-12 </wgt>
<wgt id='1013'> +1.7716603e-12 </wgt>
<wgt id='1014'> +1.8044333e-12 </wgt>
<wgt id='1015'> +1.7699128e-12 </wgt>
<wgt id='1016'> +1.7687354e-12 </wgt>
<wgt id='1017'> +1.7240404e-12 </wgt>
<wgt id='1018'> +1.7220087e-12 </wgt>
<wgt id='1019'> +1.7716603e-12 </wgt>
<wgt id='1020'> +1.7197775e-12 </wgt>
<wgt id='1021'> +1.5557931e-12 </wgt>
<wgt id='1022'> +1.5378449e-12 </wgt>
<wgt id='1023'> +1.5368215e-12 </wgt>
<wgt id='1024'> +1.5565163e-12 </wgt>
<wgt id='1025'> +1.5356810e-12 </wgt>
<wgt id='1026'> +2.0523981e-12 </wgt>
<wgt id='1027'> +1.9636491e-12 </wgt>
<wgt id='1028'> +1.9600274e-12 </wgt>
<wgt id='1029'> +2.0591385e-12 </wgt>
<wgt id='1030'> +1.9560871e-12 </wgt>
<wgt id='1031'> +1.3043832e-12 </wgt>
<wgt id='1032'> +1.3623830e-12 </wgt>
<wgt id='1033'> +1.3639829e-12 </wgt>
<wgt id='1034'> +1.2982870e-12 </wgt>
<wgt id='1035'> +1.3656568e-12 </wgt>
<wgt id='1036'> +1.1473454e-12 </wgt>
<wgt id='1037'> +1.2152464e-12 </wgt>
<wgt id='1038'> +1.2172983e-12 </wgt>
<wgt id='1039'> +1.1406277e-12 </wgt>
<wgt id='1040'> +1.2194678e-12 </wgt>
<wgt id='1041'> +1.5135750e-12 </wgt>
<wgt id='1042'> +1.5517282e-12 </wgt>
<wgt id='1043'> +1.5525147e-12 </wgt>
<wgt id='1044'> +1.5089534e-12 </wgt>
<wgt id='1045'> +1.5533078e-12 </wgt>
<wgt id='1046'> +1.5538000e-12 </wgt>
<wgt id='1047'> +1.5605855e-12 </wgt>
<wgt id='1048'> +1.5255496e-12 </wgt>
<wgt id='1049'> +1.5651837e-12 </wgt>
<wgt id='1050'> +1.5467800e-12 </wgt>
<wgt id='1051'> +1.5719533e-12 </wgt>
<wgt id='1052'> +1.5665115e-12 </wgt>
<wgt id='1053'> +1.5322677e-12 </wgt>
<wgt id='1054'> +1.5321999e-12 </wgt>
<wgt id='1055'> +1.5337067e-12 </wgt>
<wgt id='1056'> +1.5727682e-12 </wgt>
<wgt id='1057'> +1.5903120e-12 </wgt>
<wgt id='1058'> +1.5032835e-12 </wgt>
<wgt id='1059'> +1.5508124e-12 </wgt>
<wgt id='1060'> +1.5513824e-12 </wgt>
<wgt id='1061'> +1.5755100e-12 </wgt>
<wgt id='1062'> +1.5662957e-12 </wgt>
<wgt id='1063'> +1.5906558e-12 </wgt>
<wgt id='1064'> +1.5383139e-12 </wgt>
<wgt id='1065'> +1.5508384e-12 </wgt>
<wgt id='1066'> +1.5536225e-12 </wgt>
<wgt id='1067'> +1.4984456e-12 </wgt>
<wgt id='1068'> +1.5588072e-12 </wgt>
<wgt id='1069'> +1.5448234e-12 </wgt>
<wgt id='1070'> +1.5303055e-12 </wgt>
<wgt id='1071'> +1.5112979e-12 </wgt>
<wgt id='1072'> +1.5775765e-12 </wgt>
<wgt id='1073'> +1.5986356e-12 </wgt>
<wgt id='1074'> +1.5224265e-12 </wgt>
<wgt id='1075'> +1.5686545e-12 </wgt>
<wgt id='1076'> +1.5791692e-12 </wgt>
<wgt id='1077'> +1.5591351e-12 </wgt>
<wgt id='1078'> +1.5361686e-12 </wgt>
<wgt id='1079'> +1.5445802e-12 </wgt>
<wgt id='1080'> +1.5143034e-12 </wgt>
<wgt id='1081'> +1.6174816e-12 </wgt>
<wgt id='1082'> +1.5468041e-12 </wgt>
<wgt id='1083'> +1.5659791e-12 </wgt>
<wgt id='1084'> +1.5592209e-12 </wgt>
<wgt id='1085'> +1.5369790e-12 </wgt>
<wgt id='1086'> +1.5498610e-12 </wgt>
<wgt id='1087'> +1.5839564e-12 </wgt>
<wgt id='1088'> +1.5218294e-12 </wgt>
<wgt id='1089'> +1.5698801e-12 </wgt>
<wgt id='1090'> +1.5440326e-12 </wgt>
<wgt id='1091'> +1.5505266e-12 </wgt>
<wgt id='1092'> +1.5716885e-12 </wgt>
<wgt id='1093'> +1.5340549e-12 </wgt>
<wgt id='1094'> +1.5494938e-12 </wgt>
<wgt id='1095'> +1.5835938e-12 </wgt>
<wgt id='1096'> +1.5947690e-12 </wgt>
<wgt id='1097'> +1.5311531e-12 </wgt>
<wgt id='1098'> +1.5201210e-12 </wgt>
<wgt id='1099'> +1.5736904e-12 </wgt>
<wgt id='1100'> +1.5239404e-12 </wgt>
<wgt id='1101'> +1.5567849e-12 </wgt>
<wgt id='1102'> +1.5501110e-12 </wgt>
<wgt id='1103'> +1.5587661e-12 </wgt>
<wgt id='1104'> +1.5285725e-12 </wgt>
<wgt id='1105'> +1.6002239e-12 </wgt>
<wgt id='1106'> +1.5596647e-12 </wgt>
<wgt id='1107'> +1.5573567e-12 </wgt>
<wgt id='1108'> +1.5394453e-12 </wgt>
<wgt id='1109'> +1.5805543e-12 </wgt>
<wgt id='1110'> +1.5452667e-12 </wgt>
<wgt id='1111'> +1.5513122e-12 </wgt>
<wgt id='1112'> +1.5672355e-12 </wgt>
<wgt id='1113'> +1.5416635e-12 </wgt>
<wgt id='1114'> +1.5708831e-12 </wgt>
<wgt id='1115'> +1.5282002e-12 </wgt>
<wgt id='1116'> +1.5012425e-12 </wgt>
<wgt id='1117'> +1.5727648e-12 </wgt>
<wgt id='1118'> +1.6010869e-12 </wgt>
<wgt id='1119'> +1.5299384e-12 </wgt>
<wgt id='1120'> +1.5720666e-12 </wgt>
<wgt id='1121'> +1.5622538e-12 </wgt>
<wgt id='1122'> +1.6160680e-12 </wgt>
<wgt id='1123'> +1.5210079e-12 </wgt>
<wgt id='1124'> +1.5431906e-12 </wgt>
<wgt id='1125'> +1.5597970e-12 </wgt>
<wgt id='1126'> +1.5765162e-12 </wgt>
<wgt id='1127'> +1.5213901e-12 </wgt>
<wgt id='1128'> +1.5662957e-12 </wgt>
<wgt id='1129'> +1.5541918e-12 </wgt>
<wgt id='1130'> +1.5551764e-12 </wgt>
<wgt id='1131'> +1.5515972e-12 </wgt>
<wgt id='1132'> +1.5318299e-12 </wgt>
<wgt id='1133'> +1.5671562e-12 </wgt>
<wgt id='1134'> +1.5893245e-12 </wgt>
<wgt id='1135'> +1.5590911e-12 </wgt>
<wgt id='1136'> +1.5198611e-12 </wgt>
<wgt id='1137'> +1.5286496e-12 </wgt>
<wgt id='1138'> +1.5755333e-12 </wgt>
<wgt id='1139'> +1.5740008e-12 </wgt>
<wgt id='1140'> +1.5659594e-12 </wgt>
<wgt id='1141'> +1.5073554e-12 </wgt>
<wgt id='1142'> +1.5369548e-12 </wgt>
<wgt id='1143'> +1.5647891e-12 </wgt>
<wgt id='1144'> +1.5682580e-12 </wgt>
<wgt id='1145'> +1.5568250e-12 </wgt>
<wgt id='1146'> +1.5416015e-12 </wgt>
<wgt id='1147'> +1.2242179e-12 </wgt>
<wgt id='1148'> +1.2501393e-12 </wgt>
<wgt id='1149'> +1.3087696e-12 </wgt>
<wgt id='1150'> +1.2573801e-12 </wgt>
<wgt id='1151'> +1.1879590e-12 </wgt>
<wgt id='1152'> +1.5008735e-12 </wgt>
<wgt id='1153'> +1.4926443e-12 </wgt>
<wgt id='1154'> +1.5056538e-12 </wgt>
<wgt id='1155'> +1.5007223e-12 </wgt>
<wgt id='1156'> +1.5009609e-12 </wgt>
<wgt id='1157'> +1.5028895e-12 </wgt>
<wgt id='1158'> +1.4981638e-12 </wgt>
<wgt id='1159'> +1.5026003e-12 </wgt>
<wgt id='1160'> +1.4998024e-12 </wgt>
<wgt id='1161'> +1.4973246e-12 </wgt>
<wgt id='1162'> +1.5032783e-12 </wgt>
<wgt id='1163'> +1.5049673e-12 </wgt>
<wgt id='1164'> +1.4968439e-12 </wgt>
<wgt id='1165'> +1.4907280e-12 </wgt>
<wgt id='1166'> +1.5107100e-12 </wgt>
<wgt id='1167'> +1.5066915e-12 </wgt>
<wgt id='1168'> +1.4921861e-12 </wgt>
<wgt id='1169'> +1.5023542e-12 </wgt>
<wgt id='1170'> +1.4997432e-12 </wgt>
<wgt id='1171'> +1.4989582e-12 </wgt>
<wgt id='1172'> +1.5030649e-12 </wgt>
<wgt id='1173'> +1.4948477e-12 </wgt>
<wgt id='1174'> +1.5061301e-12 </wgt>
<wgt id='1175'> +1.5003406e-12 </wgt>
<wgt id='1176'> +1.5005047e-12 </wgt>
<wgt id='1177'> +1.5027316e-12 </wgt>
<wgt id='1178'> +1.4959272e-12 </wgt>
<wgt id='1179'> +1.5117723e-12 </wgt>
<wgt id='1180'> +1.4850950e-12 </wgt>
<wgt id='1181'> +1.4931551e-12 </wgt>
<wgt id='1182'> +1.5085322e-12 </wgt>
<wgt id='1183'> +1.5021260e-12 </wgt>
<wgt id='1184'> +1.5008193e-12 </wgt>
<wgt id='1185'> +1.4951895e-12 </wgt>
<wgt id='1186'> +1.5038894e-12 </wgt>
<wgt id='1187'> +1.4995029e-12 </wgt>
<wgt id='1188'> +1.5013695e-12 </wgt>
<wgt id='1189'> +1.4971561e-12 </wgt>
<wgt id='1190'> +1.4905146e-12 </wgt>
<wgt id='1191'> +1.4942764e-12 </wgt>
<wgt id='1192'> +1.5032279e-12 </wgt>
<wgt id='1193'> +1.2747725e-12 </wgt>
<wgt id='1194'> +1.2742156e-12 </wgt>
<wgt id='1195'> +1.2751731e-12 </wgt>
<wgt id='1196'> +1.2807908e-12 </wgt>
<wgt id='1197'> +1.2681658e-12 </wgt>
<wgt id='1198'> +1.2753967e-12 </wgt>
<wgt id='1199'> +1.2738051e-12 </wgt>
<wgt id='1200'> +1.2767867e-12 </wgt>
<wgt id='1201'> +1.2734624e-12 </wgt>
<wgt id='1202'> +1.2727723e-12 </wgt>
<wgt id='1203'> +1.2776150e-12 </wgt>
<wgt id='1204'> +1.2629639e-12 </wgt>
<wgt id='1205'> +1.2820783e-12 </wgt>
<wgt id='1206'> +1.2791701e-12 </wgt>
<wgt id='1207'> +1.2687769e-12 </wgt>
<wgt id='1208'> +1.2663814e-12 </wgt>
<wgt id='1209'> +1.2778253e-12 </wgt>
<wgt id='1210'> +1.2785946e-12 </wgt>
<wgt id='1211'> +1.2628668e-12 </wgt>
<wgt id='1212'> +1.2746503e-12 </wgt>
<wgt id='1213'> +1.2748220e-12 </wgt>
<wgt id='1214'> +1.2609592e-12 </wgt>
<wgt id='1215'> +1.2972838e-12 </wgt>
<wgt id='1216'> +1.2822393e-12 </wgt>
<wgt id='1217'> +1.2696278e-12 </wgt>
<wgt id='1218'> +1.2791908e-12 </wgt>
<wgt id='1219'> +1.2724726e-12 </wgt>
<wgt id='1220'> +1.2782986e-12 </wgt>
<wgt id='1221'> +1.2744734e-12 </wgt>
<wgt id='1222'> +1.2708150e-12 </wgt>
<wgt id='1223'> +1.2811105e-12 </wgt>
<wgt id='1224'> +1.2760824e-12 </wgt>
<wgt id='1225'> +1.2742854e-12 </wgt>
<wgt id='1226'> +1.2729689e-12 </wgt>
<wgt id='1227'> +1.2760586e-12 </wgt>
<wgt id='1228'> +1.2714585e-12 </wgt>
<wgt id='1229'> +1.2760593e-12 </wgt>
<wgt id='1230'> +1.2697564e-12 </wgt>
<wgt id='1231'> +1.2681129e-12 </wgt>
<wgt id='1232'> +1.2729235e-12 </wgt>
<wgt id='1233'> +1.2752648e-12 </wgt>
<wgt id='1234'> +1.2747725e-12 </wgt>
<wgt id='1235'> +1.2662042e-12 </wgt>
<wgt id='1236'> +1.2693230e-12 </wgt>
<wgt id='1237'> +1.2721981e-12 </wgt>
<wgt id='1238'> +1.2770267e-12 </wgt>
<wgt id='1239'> +1.2790404e-12 </wgt>
<wgt id='1240'> +1.2809272e-12 </wgt>
<wgt id='1241'> +1.2829477e-12 </wgt>
<wgt id='1242'> +1.2787463e-12 </wgt>
<wgt id='1243'> +1.2871290e-12 </wgt>
<wgt id='1244'> +1.2749940e-12 </wgt>
<wgt id='1245'> +1.2887991e-12 </wgt>
<wgt id='1246'> +1.2839065e-12 </wgt>
<wgt id='1247'> +1.2821540e-12 </wgt>
<wgt id='1248'> +1.2828096e-12 </wgt>
<wgt id='1249'> +1.2830158e-12 </wgt>
<wgt id='1250'> +1.2836521e-12 </wgt>
<wgt id='1251'> +1.2824147e-12 </wgt>
<wgt id='1252'> +1.2800971e-12 </wgt>
<wgt id='1253'> +1.2851446e-12 </wgt>
<wgt id='1254'> +1.2712364e-12 </wgt>
<wgt id='1255'> +1.2899253e-12 </wgt>
<wgt id='1256'> +1.2876391e-12 </wgt>
<wgt id='1257'> +1.2711079e-12 </wgt>
<wgt id='1258'> +1.3018269e-12 </wgt>
<wgt id='1259'> +1.2652652e-12 </wgt>
<wgt id='1260'> +1.2866036e-12 </wgt>
<wgt id='1261'> +1.2787815e-12 </wgt>
<wgt id='1262'> +1.2847590e-12 </wgt>
<wgt id='1263'> +1.2819882e-12 </wgt>
<wgt id='1264'> +1.2870978e-12 </wgt>
<wgt id='1265'> +1.2807849e-12 </wgt>
<wgt id='1266'> +1.2820801e-12 </wgt>
<wgt id='1267'> +1.2841011e-12 </wgt>
<wgt id='1268'> +1.2821932e-12 </wgt>
<wgt id='1269'> +1.2874921e-12 </wgt>
<wgt id='1270'> +1.2767896e-12 </wgt>
<wgt id='1271'> +1.2752706e-12 </wgt>
<wgt id='1272'> +1.2835660e-12 </wgt>
<wgt id='1273'> +1.2821018e-12 </wgt>
<wgt id='1274'> +1.2848298e-12 </wgt>
<wgt id='1275'> +1.2787593e-12 </wgt>
<wgt id='1276'> +1.2842789e-12 </wgt>
<wgt id='1277'> +1.2802911e-12 </wgt>
<wgt id='1278'> +1.2818674e-12 </wgt>
<wgt id='1279'> +1.2783418e-12 </wgt>
<wgt id='1280'> +1.2836597e-12 </wgt>
<wgt id='1281'> +1.2787729e-12 </wgt>
<wgt id='1282'> +1.2829477e-12 </wgt>
<wgt id='1283'> +1.2736786e-12 </wgt>
<wgt id='1284'> +1.2771464e-12 </wgt>
<wgt id='1285'> +1.2803567e-12 </wgt>
<wgt id='1286'> +1.2854922e-12 </wgt>
<wgt id='1287'> +1.2875798e-12 </wgt>
<wgt id='1288'> +1.2893558e-12 </wgt>
<wgt id='1289'> +1.3140024e-12 </wgt>
<wgt id='1290'> +1.3168362e-12 </wgt>
<wgt id='1291'> +1.3109845e-12 </wgt>
<wgt id='1292'> +1.3089984e-12 </wgt>
<wgt id='1293'> +1.3176539e-12 </wgt>
<wgt id='1294'> +1.3151208e-12 </wgt>
<wgt id='1295'> +1.3129629e-12 </wgt>
<wgt id='1296'> +1.3079398e-12 </wgt>
<wgt id='1297'> +1.3215755e-12 </wgt>
<wgt id='1298'> +1.3190991e-12 </wgt>
<wgt id='1299'> +1.3076665e-12 </wgt>
<wgt id='1300'> +1.3169852e-12 </wgt>
<wgt id='1301'> +1.3080754e-12 </wgt>
<wgt id='1302'> +1.3131795e-12 </wgt>
<wgt id='1303'> +1.3151696e-12 </wgt>
<wgt id='1304'> +1.3118675e-12 </wgt>
<wgt id='1305'> +1.3154888e-12 </wgt>
<wgt id='1306'> +1.3086927e-12 </wgt>
<wgt id='1307'> +1.3202148e-12 </wgt>
<wgt id='1308'> +1.3228395e-12 </wgt>
<wgt id='1309'> +1.3072874e-12 </wgt>
<wgt id='1310'> +1.3135135e-12 </wgt>
<wgt id='1311'> +1.3146515e-12 </wgt>
<wgt id='1312'> +1.3096434e-12 </wgt>
<wgt id='1313'> +1.3186593e-12 </wgt>
<wgt id='1314'> +1.3231307e-12 </wgt>
<wgt id='1315'> +1.2990046e-12 </wgt>
<wgt id='1316'> +1.3192128e-12 </wgt>
<wgt id='1317'> +1.3143673e-12 </wgt>
<wgt id='1318'> +1.3215934e-12 </wgt>
<wgt id='1319'> +1.3048565e-12 </wgt>
<wgt id='1320'> +1.3212332e-12 </wgt>
<wgt id='1321'> +1.3075487e-12 </wgt>
<wgt id='1322'> +1.3134009e-12 </wgt>
<wgt id='1323'> +1.3145743e-12 </wgt>
<wgt id='1324'> +1.3125854e-12 </wgt>
<wgt id='1325'> +1.3212538e-12 </wgt>
<wgt id='1326'> +1.3140414e-12 </wgt>
<wgt id='1327'> +1.3156570e-12 </wgt>
<wgt id='1328'> +1.3144399e-12 </wgt>
<wgt id='1329'> +1.3134675e-12 </wgt>
<wgt id='1330'> +1.2917328e-12 </wgt>
<wgt id='1331'> +1.3288840e-12 </wgt>
<wgt id='1332'> +1.3343932e-12 </wgt>
<wgt id='1333'> +1.2995774e-12 </wgt>
<wgt id='1334'> +1.3095834e-12 </wgt>
<wgt id='1335'> +1.3248968e-12 </wgt>
<wgt id='1336'> +1.3105046e-12 </wgt>
<wgt id='1337'> +1.3092624e-12 </wgt>
<wgt id='1338'> +1.3130637e-12 </wgt>
<wgt id='1339'> +1.3140036e-12 </wgt>
<wgt id='1340'> +1.2954963e-12 </wgt>
<wgt id='1341'> +1.2985061e-12 </wgt>
<wgt id='1342'> +1.2922411e-12 </wgt>
<wgt id='1343'> +1.2903132e-12 </wgt>
<wgt id='1344'> +1.2989931e-12 </wgt>
<wgt id='1345'> +1.2965435e-12 </wgt>
<wgt id='1346'> +1.2944502e-12 </wgt>
<wgt id='1347'> +1.2893059e-12 </wgt>
<wgt id='1348'> +1.3023213e-12 </wgt>
<wgt id='1349'> +1.3000183e-12 </wgt>
<wgt id='1350'> +1.2910237e-12 </wgt>
<wgt id='1351'> +1.2984985e-12 </wgt>
<wgt id='1352'> +1.2888777e-12 </wgt>
<wgt id='1353'> +1.2942274e-12 </wgt>
<wgt id='1354'> +1.2977119e-12 </wgt>
<wgt id='1355'> +1.2934168e-12 </wgt>
<wgt id='1356'> +1.2965746e-12 </wgt>
<wgt id='1357'> +1.2923024e-12 </wgt>
<wgt id='1358'> +1.2993964e-12 </wgt>
<wgt id='1359'> +1.3057740e-12 </wgt>
<wgt id='1360'> +1.2865253e-12 </wgt>
<wgt id='1361'> +1.2945864e-12 </wgt>
<wgt id='1362'> +1.2967365e-12 </wgt>
<wgt id='1363'> +1.2884946e-12 </wgt>
<wgt id='1364'> +1.3005415e-12 </wgt>
<wgt id='1365'> +1.2819657e-12 </wgt>
<wgt id='1366'> +1.3045524e-12 </wgt>
<wgt id='1367'> +1.3000547e-12 </wgt>
<wgt id='1368'> +1.2956362e-12 </wgt>
<wgt id='1369'> +1.3019798e-12 </wgt>
<wgt id='1370'> +1.2876507e-12 </wgt>
<wgt id='1371'> +1.3004301e-12 </wgt>
<wgt id='1372'> +1.2891004e-12 </wgt>
<wgt id='1373'> +1.2938201e-12 </wgt>
<wgt id='1374'> +1.2965671e-12 </wgt>
<wgt id='1375'> +1.2939984e-12 </wgt>
<wgt id='1376'> +1.3028831e-12 </wgt>
<wgt id='1377'> +1.2956724e-12 </wgt>
<wgt id='1378'> +1.2973443e-12 </wgt>
<wgt id='1379'> +1.2955068e-12 </wgt>
<wgt id='1380'> +1.2953033e-12 </wgt>
<wgt id='1381'> +1.2724882e-12 </wgt>
<wgt id='1382'> +1.3090591e-12 </wgt>
<wgt id='1383'> +1.3164246e-12 </wgt>
<wgt id='1384'> +1.2789230e-12 </wgt>
<wgt id='1385'> +1.2909574e-12 </wgt>
<wgt id='1386'> +1.3057837e-12 </wgt>
<wgt id='1387'> +1.2910261e-12 </wgt>
<wgt id='1388'> +1.2896962e-12 </wgt>
<wgt id='1389'> +1.2930949e-12 </wgt>
<wgt id='1390'> +1.2955531e-12 </wgt>
<wgt id='1391'> +1.2664320e-12 </wgt>
<wgt id='1392'> +1.2418986e-12 </wgt>
<wgt id='1393'> +1.2496733e-12 </wgt>
<wgt id='1394'> +1.2580155e-12 </wgt>
<wgt id='1395'> +1.2730738e-12 </wgt>
<wgt id='1396'> +1.2661795e-12 </wgt>
<wgt id='1397'> +1.2311321e-12 </wgt>
<wgt id='1398'> +1.2385594e-12 </wgt>
<wgt id='1399'> +1.2454277e-12 </wgt>
<wgt id='1400'> +1.2521014e-12 </wgt>
<wgt id='1401'> +1.2591647e-12 </wgt>
<wgt id='1402'> +1.2722809e-12 </wgt>
<wgt id='1403'> +1.2786672e-12 </wgt>
<wgt id='1404'> +1.2844858e-12 </wgt>
<wgt id='1405'> +1.2661795e-12 </wgt>
<wgt id='1406'> +1.2619878e-12 </wgt>
<wgt id='1407'> +1.2643572e-12 </wgt>
<wgt id='1408'> +1.2679250e-12 </wgt>
<wgt id='1409'> +1.2694430e-12 </wgt>
<wgt id='1410'> +1.2753496e-12 </wgt>
<wgt id='1411'> +1.2767488e-12 </wgt>
<wgt id='1412'> +1.2735862e-12 </wgt>
<wgt id='1413'> +1.2816660e-12 </wgt>
<wgt id='1414'> +1.2691482e-12 </wgt>
<wgt id='1415'> +1.2698919e-12 </wgt>
<wgt id='1416'> +1.2775816e-12 </wgt>
<wgt id='1417'> +1.2674430e-12 </wgt>
<wgt id='1418'> +1.2833509e-12 </wgt>
<wgt id='1419'> +1.2771110e-12 </wgt>
<wgt id='1420'> +1.2737359e-12 </wgt>
<wgt id='1421'> +1.2637823e-12 </wgt>
<wgt id='1422'> +1.2804006e-12 </wgt>
<wgt id='1423'> +1.2751304e-12 </wgt>
<wgt id='1424'> +1.2757630e-12 </wgt>
<wgt id='1425'> +1.2724276e-12 </wgt>
<wgt id='1426'> +1.2786170e-12 </wgt>
<wgt id='1427'> +1.2788384e-12 </wgt>
<wgt id='1428'> +1.2733475e-12 </wgt>
<wgt id='1429'> +1.2680940e-12 </wgt>
<wgt id='1430'> +1.2852536e-12 </wgt>
<wgt id='1431'> +1.2796438e-12 </wgt>
<wgt id='1432'> +1.2723712e-12 </wgt>
<wgt id='1433'> +1.2839753e-12 </wgt>
<wgt id='1434'> +1.2663866e-12 </wgt>
<wgt id='1435'> +1.2799138e-12 </wgt>
<wgt id='1436'> +1.2644324e-12 </wgt>
<wgt id='1437'> +1.2810782e-12 </wgt>
<wgt id='1438'> +1.2742509e-12 </wgt>
<wgt id='1439'> +1.2696828e-12 </wgt>
<wgt id='1440'> +1.2890291e-12 </wgt>
<wgt id='1441'> +1.2774584e-12 </wgt>
<wgt id='1442'> +1.2716435e-12 </wgt>
<wgt id='1443'> +1.2737714e-12 </wgt>
<wgt id='1444'> +1.2796643e-12 </wgt>
<wgt id='1445'> +1.2835127e-12 </wgt>
<wgt id='1446'> +1.2728024e-12 </wgt>
<wgt id='1447'> +1.2761409e-12 </wgt>
<wgt id='1448'> +1.2761124e-12 </wgt>
<wgt id='1449'> +1.2760280e-12 </wgt>
<wgt id='1450'> +1.2747377e-12 </wgt>
<wgt id='1451'> +1.2841587e-12 </wgt>
<wgt id='1452'> +1.2508670e-12 </wgt>
<wgt id='1453'> +1.2773976e-12 </wgt>
<wgt id='1454'> +1.2622670e-12 </wgt>
<wgt id='1455'> +1.2602304e-12 </wgt>
<wgt id='1456'> +1.2817617e-12 </wgt>
<wgt id='1457'> +1.2815941e-12 </wgt>
<wgt id='1458'> +1.2723701e-12 </wgt>
<wgt id='1459'> +1.2780752e-12 </wgt>
<wgt id='1460'> +1.2698749e-12 </wgt>
<wgt id='1461'> +1.2753496e-12 </wgt>
<wgt id='1462'> +1.2694834e-12 </wgt>
<wgt id='1463'> +1.2839499e-12 </wgt>
<wgt id='1464'> +1.2770519e-12 </wgt>
<wgt id='1465'> +1.2504644e-12 </wgt>
<wgt id='1466'> +1.2562044e-12 </wgt>
<wgt id='1467'> +1.2621661e-12 </wgt>
<wgt id='1468'> +1.2665460e-12 </wgt>
<wgt id='1469'> +1.2719937e-12 </wgt>
<wgt id='1470'> +1.2826445e-12 </wgt>
<wgt id='1471'> +1.2867091e-12 </wgt>
<wgt id='1472'> +1.2918237e-12 </wgt>
<wgt id='1473'> +1.2770519e-12 </wgt>
<wgt id='1474'> +1.2724204e-12 </wgt>
<wgt id='1475'> +1.2740868e-12 </wgt>
<wgt id='1476'> +1.2790694e-12 </wgt>
<wgt id='1477'> +1.2810091e-12 </wgt>
<wgt id='1478'> +1.2422246e-12 </wgt>
<wgt id='1479'> +1.2397348e-12 </wgt>
<wgt id='1480'> +1.2446251e-12 </wgt>
<wgt id='1481'> +1.2355132e-12 </wgt>
<wgt id='1482'> +1.2397041e-12 </wgt>
<wgt id='1483'> +1.2275194e-12 </wgt>
<wgt id='1484'> +1.2446097e-12 </wgt>
<wgt id='1485'> +1.2389483e-12 </wgt>
<wgt id='1486'> +1.2430988e-12 </wgt>
<wgt id='1487'> +1.2417668e-12 </wgt>
<wgt id='1488'> +1.2391739e-12 </wgt>
<wgt id='1489'> +1.2665548e-12 </wgt>
<wgt id='1490'> +1.2403940e-12 </wgt>
<wgt id='1491'> +1.2401876e-12 </wgt>
<wgt id='1492'> +1.2436354e-12 </wgt>
<wgt id='1493'> +1.2347967e-12 </wgt>
<wgt id='1494'> +1.2574401e-12 </wgt>
<wgt id='1495'> +1.2390571e-12 </wgt>
<wgt id='1496'> +1.2409389e-12 </wgt>
<wgt id='1497'> +1.2408156e-12 </wgt>
<wgt id='1498'> +1.2414876e-12 </wgt>
<wgt id='1499'> +1.2436379e-12 </wgt>
<wgt id='1500'> +1.2429353e-12 </wgt>
<wgt id='1501'> +1.2417342e-12 </wgt>
<wgt id='1502'> +1.2416759e-12 </wgt>
<wgt id='1503'> +1.2425606e-12 </wgt>
<wgt id='1504'> +1.2400180e-12 </wgt>
<wgt id='1505'> +1.2420153e-12 </wgt>
<wgt id='1506'> +1.2399757e-12 </wgt>
<wgt id='1507'> +1.2404272e-12 </wgt>
<wgt id='1508'> +1.2461756e-12 </wgt>
<wgt id='1509'> +1.3031244e-12 </wgt>
<wgt id='1510'> +1.3018526e-12 </wgt>
<wgt id='1511'> +1.3079264e-12 </wgt>
<wgt id='1512'> +1.3062425e-12 </wgt>
<wgt id='1513'> +1.3095862e-12 </wgt>
<wgt id='1514'> +1.3008427e-12 </wgt>
<wgt id='1515'> +1.2978899e-12 </wgt>
<wgt id='1516'> +1.2994111e-12 </wgt>
<wgt id='1517'> +1.2999471e-12 </wgt>
<wgt id='1518'> +1.3084045e-12 </wgt>
<wgt id='1519'> +1.2985523e-12 </wgt>
<wgt id='1520'> +1.3061786e-12 </wgt>
<wgt id='1521'> +1.3114904e-12 </wgt>
<wgt id='1522'> +1.3104880e-12 </wgt>
<wgt id='1523'> +1.3108778e-12 </wgt>
<wgt id='1524'> +1.3052064e-12 </wgt>
<wgt id='1525'> +1.3037074e-12 </wgt>
<wgt id='1526'> +1.3004720e-12 </wgt>
<wgt id='1527'> +1.3044833e-12 </wgt>
<wgt id='1528'> +1.3055475e-12 </wgt>
<wgt id='1529'> +1.3054608e-12 </wgt>
<wgt id='1530'> +1.3070748e-12 </wgt>
<wgt id='1531'> +1.3039743e-12 </wgt>
<wgt id='1532'> +1.3029569e-12 </wgt>
<wgt id='1533'> +1.3024518e-12 </wgt>
<wgt id='1534'> +1.3054274e-12 </wgt>
<wgt id='1535'> +1.2960514e-12 </wgt>
<wgt id='1536'> +1.2994771e-12 </wgt>
<wgt id='1537'> +1.3022678e-12 </wgt>
<wgt id='1538'> +1.3047175e-12 </wgt>
<wgt id='1539'> +1.3066849e-12 </wgt>
<wgt id='1540'> +1.3038084e-12 </wgt>
<wgt id='1541'> +1.3036458e-12 </wgt>
<wgt id='1542'> +1.3029184e-12 </wgt>
<wgt id='1543'> +1.3015000e-12 </wgt>
<wgt id='1544'> +1.3021231e-12 </wgt>
<wgt id='1545'> +1.3053908e-12 </wgt>
<wgt id='1546'> +1.3032792e-12 </wgt>
<wgt id='1547'> +1.3042182e-12 </wgt>
<wgt id='1548'> +1.3018666e-12 </wgt>
<wgt id='1549'> +1.3019205e-12 </wgt>
<wgt id='1550'> +1.3059386e-12 </wgt>
<wgt id='1551'> +1.3034533e-12 </wgt>
<wgt id='1552'> +1.3035166e-12 </wgt>
<wgt id='1553'> +1.3056906e-12 </wgt>
<wgt id='1554'> +1.3046288e-12 </wgt>
<wgt id='1555'> +1.3038067e-12 </wgt>
<wgt id='1556'> +1.3025707e-12 </wgt>
<wgt id='1557'> +1.3030548e-12 </wgt>
<wgt id='1558'> +1.3041481e-12 </wgt>
<wgt id='1559'> +1.3036377e-12 </wgt>
<wgt id='1560'> +1.3045471e-12 </wgt>
<wgt id='1561'> +1.3032711e-12 </wgt>
<wgt id='1562'> +1.3033156e-12 </wgt>
<wgt id='1563'> +1.3032738e-12 </wgt>
<wgt id='1564'> +1.3014855e-12 </wgt>
<wgt id='1565'> +1.3028623e-12 </wgt>
<wgt id='1566'> +1.3023826e-12 </wgt>
<wgt id='1567'> +1.3014042e-12 </wgt>
<wgt id='1568'> +1.3052266e-12 </wgt>
<wgt id='1569'> +1.3040381e-12 </wgt>
<wgt id='1570'> +1.3022278e-12 </wgt>
<wgt id='1571'> +1.3033038e-12 </wgt>
<wgt id='1572'> +1.3024775e-12 </wgt>
<wgt id='1573'> +1.3024373e-12 </wgt>
<wgt id='1574'> +1.3032710e-12 </wgt>
<wgt id='1575'> +1.3031758e-12 </wgt>
<wgt id='1576'> +1.3024992e-12 </wgt>
<wgt id='1577'> +1.3020813e-12 </wgt>
<wgt id='1578'> +1.3035329e-12 </wgt>
<wgt id='1579'> +1.3029983e-12 </wgt>
<wgt id='1580'> +1.3035083e-12 </wgt>
<wgt id='1581'> +1.3027119e-12 </wgt>
<wgt id='1582'> +1.3028650e-12 </wgt>
<wgt id='1583'> +1.3026157e-12 </wgt>
<wgt id='1584'> +1.3029385e-12 </wgt>
<wgt id='1585'> +1.3033277e-12 </wgt>
<wgt id='1586'> +1.3028585e-12 </wgt>
<wgt id='1587'> +1.3025153e-12 </wgt>
<wgt id='1588'> +1.3034495e-12 </wgt>
<wgt id='1589'> +1.3025359e-12 </wgt>
<wgt id='1590'> +1.3027969e-12 </wgt>
<wgt id='1591'> +1.3027449e-12 </wgt>
<wgt id='1592'> +1.3033945e-12 </wgt>
<wgt id='1593'> +1.3029907e-12 </wgt>
<wgt id='1594'> +1.3030987e-12 </wgt>
<wgt id='1595'> +1.3030721e-12 </wgt>
<wgt id='1596'> +1.3030390e-12 </wgt>
<wgt id='1597'> +1.3033771e-12 </wgt>
<wgt id='1598'> +1.3032597e-12 </wgt>
<wgt id='1599'> +1.3032478e-12 </wgt>
<wgt id='1600'> +1.3027235e-12 </wgt>
<wgt id='1601'> +1.3033930e-12 </wgt>
<wgt id='1602'> +1.3031691e-12 </wgt>
<wgt id='1603'> +1.3033184e-12 </wgt>
<wgt id='1604'> +1.3032041e-12 </wgt>
<wgt id='1605'> +1.3033614e-12 </wgt>
<wgt id='1606'> +1.3032121e-12 </wgt>
<wgt id='1607'> +1.3029662e-12 </wgt>
<wgt id='1608'> +1.3031786e-12 </wgt>
<wgt id='1609'> +1.3036222e-12 </wgt>
<wgt id='1610'> +1.2880508e-12 </wgt>
<wgt id='1611'> +1.3159247e-12 </wgt>
<wgt id='1612'> +1.4992686e-12 </wgt>
<wgt id='1613'> +1.4923667e-12 </wgt>
<wgt id='1614'> +1.5135049e-12 </wgt>
<wgt id='1615'> +1.4760356e-12 </wgt>
<wgt id='1616'> +1.5482609e-12 </wgt>
<wgt id='1617'> +1.5283967e-12 </wgt>
<wgt id='1618'> +1.4773176e-12 </wgt>
<wgt id='1619'> +1.5116333e-12 </wgt>
<wgt id='1620'> +1.4662872e-12 </wgt>
<wgt id='1621'> +1.4997081e-12 </wgt>
<wgt id='1622'> +1.4955961e-12 </wgt>
<wgt id='1623'> +1.5156933e-12 </wgt>
<wgt id='1624'> +1.4687666e-12 </wgt>
<wgt id='1625'> +1.4824088e-12 </wgt>
<wgt id='1626'> +1.4874054e-12 </wgt>
<wgt id='1627'> +1.4885098e-12 </wgt>
<wgt id='1628'> +1.5192566e-12 </wgt>
<wgt id='1629'> +1.5339140e-12 </wgt>
<wgt id='1630'> +1.5123129e-12 </wgt>
<wgt id='1631'> +1.4717609e-12 </wgt>
<wgt id='1632'> +1.4689125e-12 </wgt>
<wgt id='1633'> +1.4638135e-12 </wgt>
<wgt id='1634'> +1.5626188e-12 </wgt>
<wgt id='1635'> +1.5013290e-12 </wgt>
<wgt id='1636'> +1.5382807e-12 </wgt>
<wgt id='1637'> +1.4551957e-12 </wgt>
<wgt id='1638'> +1.5167477e-12 </wgt>
<wgt id='1639'> +1.5202161e-12 </wgt>
<wgt id='1640'> +1.5289976e-12 </wgt>
<wgt id='1641'> +1.4812419e-12 </wgt>
<wgt id='1642'> +1.4930600e-12 </wgt>
<wgt id='1643'> +1.5485328e-12 </wgt>
<wgt id='1644'> +1.4248560e-12 </wgt>
<wgt id='1645'> +1.5062187e-12 </wgt>
<wgt id='1646'> +1.5021830e-12 </wgt>
<wgt id='1647'> +1.5043271e-12 </wgt>
<wgt id='1648'> +1.4962495e-12 </wgt>
<wgt id='1649'> +1.5063182e-12 </wgt>
<wgt id='1650'> +1.4869337e-12 </wgt>
<wgt id='1651'> +1.4538068e-12 </wgt>
<wgt id='1652'> +1.4997103e-12 </wgt>
<wgt id='1653'> +1.5399097e-12 </wgt>
<wgt id='1654'> +1.5019300e-12 </wgt>
<wgt id='1655'> +1.4684793e-12 </wgt>
<wgt id='1656'> +1.4406758e-12 </wgt>
<wgt id='1657'> +1.4913981e-12 </wgt>
<wgt id='1658'> +1.4588178e-12 </wgt>
<wgt id='1659'> +1.4687666e-12 </wgt>
<wgt id='1660'> +1.4954745e-12 </wgt>
<wgt id='1661'> +1.4807017e-12 </wgt>
<wgt id='1662'> +1.4926842e-12 </wgt>
<wgt id='1663'> +1.4883554e-12 </wgt>
<wgt id='1664'> +1.4994403e-12 </wgt>
<wgt id='1665'> +1.4598917e-12 </wgt>
<wgt id='1666'> +1.5145516e-12 </wgt>
<wgt id='1667'> +1.4887903e-12 </wgt>
<wgt id='1668'> +1.5511349e-12 </wgt>
<wgt id='1669'> +1.4436040e-12 </wgt>
<wgt id='1670'> +1.5114653e-12 </wgt>
<wgt id='1671'> +1.4775946e-12 </wgt>
<wgt id='1672'> +1.4981609e-12 </wgt>
<wgt id='1673'> +1.4700873e-12 </wgt>
<wgt id='1674'> +1.4807167e-12 </wgt>
<wgt id='1675'> +1.5387788e-12 </wgt>
<wgt id='1676'> +1.5331886e-12 </wgt>
<wgt id='1677'> +1.5626976e-12 </wgt>
<wgt id='1678'> +1.5048387e-12 </wgt>
<wgt id='1679'> +1.5350632e-12 </wgt>
<wgt id='1680'> +1.5077923e-12 </wgt>
<wgt id='1681'> +1.5256326e-12 </wgt>
<wgt id='1682'> +1.5032050e-12 </wgt>
<wgt id='1683'> +1.4771133e-12 </wgt>
<wgt id='1684'> +1.4816754e-12 </wgt>
<wgt id='1685'> +1.4899536e-12 </wgt>
<wgt id='1686'> +1.5038765e-12 </wgt>
<wgt id='1687'> +1.5499139e-12 </wgt>
<wgt id='1688'> +1.5125434e-12 </wgt>
<wgt id='1689'> +1.4701684e-12 </wgt>
<wgt id='1690'> +1.5365901e-12 </wgt>
<wgt id='1691'> +1.5480685e-12 </wgt>
<wgt id='1692'> +1.5194737e-12 </wgt>
<wgt id='1693'> +1.5346312e-12 </wgt>
<wgt id='1694'> +1.4320692e-12 </wgt>
<wgt id='1695'> +1.4971112e-12 </wgt>
<wgt id='1696'> +1.5555747e-12 </wgt>
<wgt id='1697'> +1.4903177e-12 </wgt>
<wgt id='1698'> +1.4912992e-12 </wgt>
<wgt id='1699'> +1.5143344e-12 </wgt>
<wgt id='1700'> +1.4855792e-12 </wgt>
<wgt id='1701'> +1.4859960e-12 </wgt>
<wgt id='1702'> +1.4997914e-12 </wgt>
<wgt id='1703'> +1.5224099e-12 </wgt>
<wgt id='1704'> +1.4725955e-12 </wgt>
<wgt id='1705'> +1.4816266e-12 </wgt>
<wgt id='1706'> +1.5048724e-12 </wgt>
<wgt id='1707'> +1.4959930e-12 </wgt>
<wgt id='1708'> +1.4619951e-12 </wgt>
<wgt id='1709'> +1.4928283e-12 </wgt>
<wgt id='1710'> +1.4785844e-12 </wgt>
<wgt id='1711'> +1.5634040e-12 </wgt>
<wgt id='1712'> +1.4979509e-12 </wgt>
<wgt id='1713'> +1.2241609e-12 </wgt>
<wgt id='1714'> +1.1939571e-12 </wgt>
<wgt id='1715'> +1.2437439e-12 </wgt>
<wgt id='1716'> +1.2420339e-12 </wgt>
<wgt id='1717'> +1.2233424e-12 </wgt>
<wgt id='1718'> +1.2137996e-12 </wgt>
<wgt id='1719'> +1.2320909e-12 </wgt>
<wgt id='1720'> +1.2458401e-12 </wgt>
<wgt id='1721'> +1.1999772e-12 </wgt>
<wgt id='1722'> +1.2106659e-12 </wgt>
<wgt id='1723'> +1.1686845e-12 </wgt>
<wgt id='1724'> +1.1432744e-12 </wgt>
<wgt id='1725'> +1.2479112e-12 </wgt>
<wgt id='1726'> +1.2909626e-12 </wgt>
<wgt id='1727'> +1.1834496e-12 </wgt>
<wgt id='1728'> +1.2218083e-12 </wgt>
<wgt id='1729'> +1.2301517e-12 </wgt>
<wgt id='1730'> +1.1968433e-12 </wgt>
<wgt id='1731'> +1.1911441e-12 </wgt>
<wgt id='1732'> +1.2436426e-12 </wgt>
<wgt id='1733'> +1.2509449e-12 </wgt>
<wgt id='1734'> +1.2386417e-12 </wgt>
<wgt id='1735'> +1.1830895e-12 </wgt>
<wgt id='1736'> +1.2962693e-12 </wgt>
<wgt id='1737'> +1.2459839e-12 </wgt>
<wgt id='1738'> +1.2500296e-12 </wgt>
<wgt id='1739'> +1.1872457e-12 </wgt>
<wgt id='1740'> +1.2217341e-12 </wgt>
<wgt id='1741'> +1.2307784e-12 </wgt>
<wgt id='1742'> +1.2240800e-12 </wgt>
<wgt id='1743'> +1.2559876e-12 </wgt>
<wgt id='1744'> +1.2616671e-12 </wgt>
<wgt id='1745'> +1.1369555e-12 </wgt>
<wgt id='1746'> +1.2572706e-12 </wgt>
<wgt id='1747'> +1.2367598e-12 </wgt>
<wgt id='1748'> +1.2370435e-12 </wgt>
<wgt id='1749'> +1.2618607e-12 </wgt>
<wgt id='1750'> +1.2424310e-12 </wgt>
<wgt id='1751'> +1.1708671e-12 </wgt>
<wgt id='1752'> +1.2031012e-12 </wgt>
<wgt id='1753'> +1.2442859e-12 </wgt>
<wgt id='1754'> +1.2291344e-12 </wgt>
<wgt id='1755'> +1.2562446e-12 </wgt>
<wgt id='1756'> +1.2382342e-12 </wgt>
<wgt id='1757'> +1.2077174e-12 </wgt>
<wgt id='1758'> +1.2449798e-12 </wgt>
<wgt id='1759'> +1.2408287e-12 </wgt>
<wgt id='1760'> +1.1898280e-12 </wgt>
<wgt id='1761'> +1.2006136e-12 </wgt>
<wgt id='1762'> +1.2426433e-12 </wgt>
<wgt id='1763'> +1.2481751e-12 </wgt>
<wgt id='1764'> +1.2220432e-12 </wgt>
<wgt id='1765'> +1.2267538e-12 </wgt>
<wgt id='1766'> +1.2300215e-12 </wgt>
<wgt id='1767'> +1.2273590e-12 </wgt>
<wgt id='1768'> +1.2273571e-12 </wgt>
<wgt id='1769'> +1.1905199e-12 </wgt>
<wgt id='1770'> +1.2861656e-12 </wgt>
<wgt id='1771'> +1.2242203e-12 </wgt>
<wgt id='1772'> +1.2663537e-12 </wgt>
<wgt id='1773'> +1.2221682e-12 </wgt>
<wgt id='1774'> +1.2396006e-12 </wgt>
<wgt id='1775'> +1.2321415e-12 </wgt>
<wgt id='1776'> +1.2595176e-12 </wgt>
<wgt id='1777'> +1.1652209e-12 </wgt>
<wgt id='1778'> +1.2155341e-12 </wgt>
<wgt id='1779'> +1.2401905e-12 </wgt>
<wgt id='1780'> +1.2162841e-12 </wgt>
<wgt id='1781'> +1.2205080e-12 </wgt>
<wgt id='1782'> +1.1935322e-12 </wgt>
<wgt id='1783'> +1.2256968e-12 </wgt>
<wgt id='1784'> +1.2390556e-12 </wgt>
<wgt id='1785'> +1.1890909e-12 </wgt>
<wgt id='1786'> +1.1167789e-12 </wgt>
<wgt id='1787'> +1.2529427e-12 </wgt>
<wgt id='1788'> +1.2310717e-12 </wgt>
<wgt id='1789'> +1.1345934e-12 </wgt>
<wgt id='1790'> +1.2202308e-12 </wgt>
<wgt id='1791'> +1.2495323e-12 </wgt>
<wgt id='1792'> +1.1936776e-12 </wgt>
<wgt id='1793'> +1.2289121e-12 </wgt>
<wgt id='1794'> +1.2243413e-12 </wgt>
<wgt id='1795'> +1.2353844e-12 </wgt>
<wgt id='1796'> +1.2170722e-12 </wgt>
<wgt id='1797'> +1.2340260e-12 </wgt>
<wgt id='1798'> +1.2113531e-12 </wgt>
<wgt id='1799'> +1.2185164e-12 </wgt>
<wgt id='1800'> +1.2110870e-12 </wgt>
<wgt id='1801'> +1.2243234e-12 </wgt>
<wgt id='1802'> +1.2162258e-12 </wgt>
<wgt id='1803'> +1.2359920e-12 </wgt>
<wgt id='1804'> +1.2048204e-12 </wgt>
<wgt id='1805'> +1.2423823e-12 </wgt>
<wgt id='1806'> +1.2187507e-12 </wgt>
<wgt id='1807'> +1.2333652e-12 </wgt>
<wgt id='1808'> +1.2270389e-12 </wgt>
<wgt id='1809'> +1.2137767e-12 </wgt>
<wgt id='1810'> +1.2318337e-12 </wgt>
<wgt id='1811'> +1.2793627e-12 </wgt>
<wgt id='1812'> +1.2605343e-12 </wgt>
<wgt id='1813'> +1.2407744e-12 </wgt>
<wgt id='1814'> +1.2893260e-12 </wgt>
<wgt id='1815'> +1.4339361e-12 </wgt>
<wgt id='1816'> +1.2241609e-12 </wgt>
<wgt id='1817'> +1.1939571e-12 </wgt>
<wgt id='1818'> +1.2437439e-12 </wgt>
<wgt id='1819'> +1.2420339e-12 </wgt>
<wgt id='1820'> +1.2233424e-12 </wgt>
<wgt id='1821'> +1.2137996e-12 </wgt>
<wgt id='1822'> +1.2320909e-12 </wgt>
<wgt id='1823'> +1.2458401e-12 </wgt>
<wgt id='1824'> +1.1999772e-12 </wgt>
<wgt id='1825'> +1.2106659e-12 </wgt>
<wgt id='1826'> +1.1686845e-12 </wgt>
<wgt id='1827'> +1.1432744e-12 </wgt>
<wgt id='1828'> +1.2479112e-12 </wgt>
<wgt id='1829'> +1.2909626e-12 </wgt>
<wgt id='1830'> +1.1834496e-12 </wgt>
<wgt id='1831'> +1.2218083e-12 </wgt>
<wgt id='1832'> +1.2301517e-12 </wgt>
<wgt id='1833'> +1.1968433e-12 </wgt>
<wgt id='1834'> +1.1911441e-12 </wgt>
<wgt id='1835'> +1.2436426e-12 </wgt>
<wgt id='1836'> +1.2509449e-12 </wgt>
<wgt id='1837'> +1.2386417e-12 </wgt>
<wgt id='1838'> +1.1830895e-12 </wgt>
<wgt id='1839'> +1.2962693e-12 </wgt>
<wgt id='1840'> +1.2459839e-12 </wgt>
<wgt id='1841'> +1.2500296e-12 </wgt>
<wgt id='1842'> +1.1872457e-12 </wgt>
<wgt id='1843'> +1.2217341e-12 </wgt>
<wgt id='1844'> +1.2307784e-12 </wgt>
<wgt id='1845'> +1.2240800e-12 </wgt>
<wgt id='1846'> +1.2559876e-12 </wgt>
<wgt id='1847'> +1.2616671e-12 </wgt>
<wgt id='1848'> +1.1369555e-12 </wgt>
<wgt id='1849'> +1.2572706e-12 </wgt>
<wgt id='1850'> +1.2367598e-12 </wgt>
<wgt id='1851'> +1.2370435e-12 </wgt>
<wgt id='1852'> +1.2618607e-12 </wgt>
<wgt id='1853'> +1.2424310e-12 </wgt>
<wgt id='1854'> +1.1708671e-12 </wgt>
<wgt id='1855'> +1.2031012e-12 </wgt>
<wgt id='1856'> +1.2442859e-12 </wgt>
<wgt id='1857'> +1.2291344e-12 </wgt>
<wgt id='1858'> +1.2562446e-12 </wgt>
<wgt id='1859'> +1.2382342e-12 </wgt>
<wgt id='1860'> +1.2077174e-12 </wgt>
<wgt id='1861'> +1.2449798e-12 </wgt>
<wgt id='1862'> +1.2408287e-12 </wgt>
<wgt id='1863'> +1.1898280e-12 </wgt>
<wgt id='1864'> +1.2006136e-12 </wgt>
<wgt id='1865'> +1.2426433e-12 </wgt>
<wgt id='1866'> +1.2481751e-12 </wgt>
<wgt id='1867'> +1.2220432e-12 </wgt>
<wgt id='1868'> +1.2267538e-12 </wgt>
<wgt id='1869'> +1.2300215e-12 </wgt>
<wgt id='1870'> +1.2273590e-12 </wgt>
<wgt id='1871'> +1.2273571e-12 </wgt>
<wgt id='1872'> +1.1905199e-12 </wgt>
<wgt id='1873'> +1.2861656e-12 </wgt>
<wgt id='1874'> +1.2242203e-12 </wgt>
<wgt id='1875'> +1.2663537e-12 </wgt>
<wgt id='1876'> +1.2221682e-12 </wgt>
<wgt id='1877'> +1.2396006e-12 </wgt>
<wgt id='1878'> +1.2321415e-12 </wgt>
<wgt id='1879'> +1.2595176e-12 </wgt>
<wgt id='1880'> +1.1652209e-12 </wgt>
<wgt id='1881'> +1.2155341e-12 </wgt>
<wgt id='1882'> +1.2401905e-12 </wgt>
<wgt id='1883'> +1.2162841e-12 </wgt>
<wgt id='1884'> +1.2205080e-12 </wgt>
<wgt id='1885'> +1.1935322e-12 </wgt>
<wgt id='1886'> +1.2256968e-12 </wgt>
<wgt id='1887'> +1.2390556e-12 </wgt>
<wgt id='1888'> +1.1890909e-12 </wgt>
<wgt id='1889'> +1.1167789e-12 </wgt>
<wgt id='1890'> +1.2529427e-12 </wgt>
<wgt id='1891'> +1.2310717e-12 </wgt>
<wgt id='1892'> +1.1345934e-12 </wgt>
<wgt id='1893'> +1.2202308e-12 </wgt>
<wgt id='1894'> +1.2495323e-12 </wgt>
<wgt id='1895'> +1.1936776e-12 </wgt>
<wgt id='1896'> +1.2289121e-12 </wgt>
<wgt id='1897'> +1.2243413e-12 </wgt>
<wgt id='1898'> +1.2353844e-12 </wgt>
<wgt id='1899'> +1.2170722e-12 </wgt>
<wgt id='1900'> +1.2340260e-12 </wgt>
<wgt id='1901'> +1.2113531e-12 </wgt>
<wgt id='1902'> +1.2185164e-12 </wgt>
<wgt id='1903'> +1.2110870e-12 </wgt>
<wgt id='1904'> +1.2243234e-12 </wgt>
<wgt id='1905'> +1.2162258e-12 </wgt>
<wgt id='1906'> +1.2359920e-12 </wgt>
<wgt id='1907'> +1.2048204e-12 </wgt>
<wgt id='1908'> +1.2423823e-12 </wgt>
<wgt id='1909'> +1.2187507e-12 </wgt>
<wgt id='1910'> +1.2333652e-12 </wgt>
<wgt id='1911'> +1.2270389e-12 </wgt>
<wgt id='1912'> +1.2137767e-12 </wgt>
<wgt id='1913'> +1.2318337e-12 </wgt>
<wgt id='1914'> +1.2793627e-12 </wgt>
<wgt id='1915'> +1.2605343e-12 </wgt>
<wgt id='1916'> +1.2407744e-12 </wgt>
<wgt id='1917'> +1.2165158e-12 </wgt>
<wgt id='1918'> +1.2293410e-12 </wgt>
<wgt id='1919'> +1.2676023e-12 </wgt>
</rwgt>
</event>
<event>
 9      1 +1.5538000e-12 2.66305700e+01 7.81860800e-03 1.48635800e-01
        3 -1    0    0  502    0 -0.0000000000e+00 +0.0000000000e+00 +4.6663783217e+00 4.6663783217e+00 0.0000000000e+00 0.0000e+00 1.0000e+00
       21 -1    0    0  501  502 +0.0000000000e+00 -0.0000000000e+00 -4.7963617228e+02 4.7963617228e+02 0.0000000000e+00 0.0000e+00 -1.0000e+00
     1023  2    1    2    0    0 +2.0841871524e+01 +7.0563721865e+00 -4.5091920533e+02 4.5170490022e+02 1.5000371720e+01 0.0000e+00 0.0000e+00
  1000023  2    3    3    0    0 +1.1247804778e+01 -1.7336105647e+00 -2.2775046060e+02 2.2810123625e+02 5.5120922630e+00 0.0000e+00 0.0000e+00
        3  1    1    2  501    0 -2.0841871524e+01 -7.0563721865e+00 -2.4050588635e+01 3.2597650387e+01 0.0000000000e+00 0.0000e+00 1.0000e+00
  1000022  1    4    4    0    0 +9.5962833397e+00 -1.3830304603e+00 -2.0283440470e+02 2.0312753914e+02 5.0000000000e+00 0.0000e+00 1.0000e+00
      -11  1    4    4    0    0 +6.0905256751e-01 -1.0533063433e-01 -8.0705523883e+00 8.0941865364e+00 5.1100000000e-04 0.0000e+00 1.0000e+00
       11  1    4    4    0    0 +1.0424688707e+00 -2.4524947007e-01 -1.6845503508e+01 1.6879510578e+01 5.1100000000e-04 0.0000e+00 -1.0000e+00
  1000022  1    3    3    0    0 +9.5940667459e+00 +8.7899827511e+00 -2.2316874473e+02 2.2360366396e+02 5.0000000000e+00 0.0000e+00 -1.0000e+00
<mgrwt>
<rscale>  1 0.26630568E+02</rscale>
<asrwt>0</asrwt>
<pdfrwt beam="1">  1       21 0.73790180E-01 0.26630568E+02</pdfrwt>
<pdfrwt beam="2">  1        3 0.71790436E-03 0.26630568E+02</pdfrwt>
<totfact> 0.41183350E+05</totfact>
</mgrwt>
<rwgt>
<wgt id='1001'> +1.5538000e-12 </wgt>
<wgt id='1002'> +1.4964907e-12 </wgt>
<wgt id='1003'> +1.4915124e-12 </wgt>
<wgt id='1004'> +1.5624064e-12 </wgt>
<wgt id='1005'> +1.4150518e-12 </wgt>
<wgt id='1006'> +1.3550437e-12 </wgt>
<wgt id='1007'> +1.3239375e-12 </wgt>
<wgt id='1008'> +1.3208977e-12 </wgt>
<wgt id='1009'> +1.3588036e-12 </wgt>
<wgt id='1010'> +1.2701240e-12 </wgt>
<wgt id='1011'> +1.8243878e-12 </wgt>
<wgt id='1012'> +1.7230721e-12 </wgt>
<wgt id='1013'> +1.7150002e-12 </wgt>
<wgt id='1014'> +1.8415090e-12 </wgt>
<wgt id='1015'> +1.5987683e-12 </wgt>
<wgt id='1016'> +1.6984315e-12 </wgt>
<wgt id='1017'> +1.6020222e-12 </wgt>
<wgt id='1018'> +1.5944389e-12 </wgt>
<wgt id='1019'> +1.7150002e-12 </wgt>
<wgt id='1020'> +1.4868242e-12 </wgt>
<wgt id='1021'> +1.4811745e-12 </wgt>
<wgt id='1022'> +1.4173006e-12 </wgt>
<wgt id='1023'> +1.4120504e-12 </wgt>
<wgt id='1024'> +1.4915124e-12 </wgt>
<wgt id='1025'> +1.3345456e-12 </wgt>
<wgt id='1026'> +1.9942062e-12 </wgt>
<wgt id='1027'> +1.8445819e-12 </wgt>
<wgt id='1028'> +1.8333492e-12 </wgt>
<wgt id='1029'> +2.0213617e-12 </wgt>
<wgt id='1030'> +1.6798590e-12 </wgt>
<wgt id='1031'> +1.3674517e-12 </wgt>
<wgt id='1032'> +1.3604701e-12 </wgt>
<wgt id='1033'> +1.3588036e-12 </wgt>
<wgt id='1034'> +1.3656172e-12 </wgt>
<wgt id='1035'> +1.3226414e-12 </wgt>
<wgt id='1036'> +1.1925323e-12 </wgt>
<wgt id='1037'> +1.2036007e-12 </wgt>
<wgt id='1038'> +1.2033695e-12 </wgt>
<wgt id='1039'> +1.1876587e-12 </wgt>
<wgt id='1040'> +1.1871782e-12 </wgt>
<wgt id='1041'> +1.6055876e-12 </wgt>
<wgt id='1042'> +1.5664568e-12 </wgt>
<wgt id='1043'> +1.5624064e-12 </wgt>
<wgt id='1044'> +1.6095661e-12 </wgt>
<wgt id='1045'> +1.4943604e-12 </wgt>
<wgt id='1046'> +1.5538000e-12 </wgt>
<wgt id='1047'> +1.5062628e-12 </wgt>
<wgt id='1048'> +1.5754626e-12 </wgt>
<wgt id='1049'> +1.5052018e-12 </wgt>
<wgt id='1050'> +1.5812413e-12 </wgt>
<wgt id='1051'> +1.5503008e-12 </wgt>
<wgt id='1052'> +1.4793500e-12 </wgt>
<wgt id='1053'> +1.5801808e-12 </wgt>
<wgt id='1054'> +1.6224543e-12 </wgt>
<wgt id='1055'> +1.5597045e-12 </wgt>
<wgt id='1056'> +1.4463735e-12 </wgt>
<wgt id='1057'> +1.5159278e-12 </wgt>
<wgt id='1058'> +1.6261284e-12 </wgt>
<wgt id='1059'> +1.6091756e-12 </wgt>
<wgt id='1060'> +1.5138270e-12 </wgt>
<wgt id='1061'> +1.5942138e-12 </wgt>
<wgt id='1062'> +1.5839994e-12 </wgt>
<wgt id='1063'> +1.2919904e-12 </wgt>
<wgt id='1064'> +1.6360456e-12 </wgt>
<wgt id='1065'> +1.5813345e-12 </wgt>
<wgt id='1066'> +1.6029709e-12 </wgt>
<wgt id='1067'> +1.5680046e-12 </wgt>
<wgt id='1068'> +1.5617947e-12 </wgt>
<wgt id='1069'> +1.5349445e-12 </wgt>
<wgt id='1070'> +1.6204139e-12 </wgt>
<wgt id='1071'> +1.5796707e-12 </wgt>
<wgt id='1072'> +1.5157266e-12 </wgt>
<wgt id='1073'> +1.2051062e-12 </wgt>
<wgt id='1074'> +1.6158577e-12 </wgt>
<wgt id='1075'> +1.4593639e-12 </wgt>
<wgt id='1076'> +1.3577619e-12 </wgt>
<wgt id='1077'> +1.4557660e-12 </wgt>
<wgt id='1078'> +1.6310714e-12 </wgt>
<wgt id='1079'> +1.5431896e-12 </wgt>
<wgt id='1080'> +1.6404641e-12 </wgt>
<wgt id='1081'> +1.4371404e-12 </wgt>
<wgt id='1082'> +1.5788014e-12 </wgt>
<wgt id='1083'> +1.6643609e-12 </wgt>
<wgt id='1084'> +1.4497374e-12 </wgt>
<wgt id='1085'> +1.6357546e-12 </wgt>
<wgt id='1086'> +1.5998264e-12 </wgt>
<wgt id='1087'> +1.5395433e-12 </wgt>
<wgt id='1088'> +1.6346315e-12 </wgt>
<wgt id='1089'> +1.4630754e-12 </wgt>
<wgt id='1090'> +1.5013555e-12 </wgt>
<wgt id='1091'> +1.7836538e-12 </wgt>
<wgt id='1092'> +1.5415021e-12 </wgt>
<wgt id='1093'> +1.5609230e-12 </wgt>
<wgt id='1094'> +1.6132321e-12 </wgt>
<wgt id='1095'> +1.4505649e-12 </wgt>
<wgt id='1096'> +1.4896142e-12 </wgt>
<wgt id='1097'> +1.6040809e-12 </wgt>
<wgt id='1098'> +1.5713326e-12 </wgt>
<wgt id='1099'> +1.3684142e-12 </wgt>
<wgt id='1100'> +1.5726082e-12 </wgt>
<wgt id='1101'> +1.5916759e-12 </wgt>
<wgt id='1102'> +1.6222918e-12 </wgt>
<wgt id='1103'> +1.5820724e-12 </wgt>
<wgt id='1104'> +1.6024399e-12 </wgt>
<wgt id='1105'> +1.2921118e-12 </wgt>
<wgt id='1106'> +1.5334199e-12 </wgt>
<wgt id='1107'> +1.5774804e-12 </wgt>
<wgt id='1108'> +1.6095632e-12 </wgt>
<wgt id='1109'> +1.3899761e-12 </wgt>
<wgt id='1110'> +1.5932801e-12 </wgt>
<wgt id='1111'> +1.5525717e-12 </wgt>
<wgt id='1112'> +1.5919736e-12 </wgt>
<wgt id='1113'> +1.7918268e-12 </wgt>
<wgt id='1114'> +1.4516095e-12 </wgt>
<wgt id='1115'> +1.5769749e-12 </wgt>
<wgt id='1116'> +1.5858700e-12 </wgt>
<wgt id='1117'> +1.4285856e-12 </wgt>
<wgt id='1118'> +1.5978467e-12 </wgt>
<wgt id='1119'> +1.6077181e-12 </wgt>
<wgt id='1120'> +1.5959271e-12 </wgt>
<wgt id='1121'> +1.5863227e-12 </wgt>
<wgt id='1122'> +1.4491732e-12 </wgt>
<wgt id='1123'> +1.6046570e-12 </wgt>
<wgt id='1124'> +1.5730160e-12 </wgt>
<wgt id='1125'> +1.5209842e-12 </wgt>
<wgt id='1126'> +1.3955086e-12 </wgt>
<wgt id='1127'> +1.5830615e-12 </wgt>
<wgt id='1128'> +1.5839994e-12 </wgt>
<wgt id='1129'> +1.5672497e-12 </wgt>
<wgt id='1130'> +1.5982649e-12 </wgt>
<wgt id='1131'> +1.5634548e-12 </wgt>
<wgt id='1132'> +1.5984629e-12 </wgt>
<wgt id='1133'> +1.6477115e-12 </wgt>
<wgt id='1134'> +1.4203168e-12 </wgt>
<wgt id='1135'> +1.6553854e-12 </wgt>
<wgt id='1136'> +1.6361746e-12 </wgt>
<wgt id='1137'> +1.6278635e-12 </wgt>
<wgt id='1138'> +1.6301411e-12 </wgt>
<wgt id='1139'> +1.5834824e-12 </wgt>
<wgt id='1140'> +1.5310576e-12 </wgt>
<wgt id='1141'> +1.8163322e-12 </wgt>
<wgt id='1142'> +1.5957333e-12 </wgt>
<wgt id='1143'> +1.4768504e-12 </wgt>
<wgt id='1144'> +1.4307869e-12 </wgt>
<wgt id='1145'> +1.5993928e-12 </wgt>
<wgt id='1146'> +1.6087239e-12 </wgt>
<wgt id='1147'> +1.2448967e-12 </wgt>
<wgt id='1148'> +1.2670708e-12 </wgt>
<wgt id='1149'> +1.2620887e-12 </wgt>
<wgt id='1150'> +1.2114718e-12 </wgt>
<wgt id='1151'> +1.0185489e-12 </wgt>
<wgt id='1152'> +1.3648974e-12 </wgt>
<wgt id='1153'> +1.3608678e-12 </wgt>
<wgt id='1154'> +1.3673626e-12 </wgt>
<wgt id='1155'> +1.3661682e-12 </wgt>
<wgt id='1156'> +1.3643913e-12 </wgt>
<wgt id='1157'> +1.3576432e-12 </wgt>
<wgt id='1158'> +1.3748861e-12 </wgt>
<wgt id='1159'> +1.3573346e-12 </wgt>
<wgt id='1160'> +1.3698956e-12 </wgt>
<wgt id='1161'> +1.3546841e-12 </wgt>
<wgt id='1162'> +1.3720529e-12 </wgt>
<wgt id='1163'> +1.3581452e-12 </wgt>
<wgt id='1164'> +1.3717132e-12 </wgt>
<wgt id='1165'> +1.3542283e-12 </wgt>
<wgt id='1166'> +1.3753386e-12 </wgt>
<wgt id='1167'> +1.3754962e-12 </wgt>
<wgt id='1168'> +1.3505805e-12 </wgt>
<wgt id='1169'> +1.3663982e-12 </wgt>
<wgt id='1170'> +1.3639987e-12 </wgt>
<wgt id='1171'> +1.3637114e-12 </wgt>
<wgt id='1172'> +1.3665768e-12 </wgt>
<wgt id='1173'> +1.3657302e-12 </wgt>
<wgt id='1174'> +1.3633781e-12 </wgt>
<wgt id='1175'> +1.3611963e-12 </wgt>
<wgt id='1176'> +1.3673993e-12 </wgt>
<wgt id='1177'> +1.3657077e-12 </wgt>
<wgt id='1178'> +1.3633839e-12 </wgt>
<wgt id='1179'> +1.3749365e-12 </wgt>
<wgt id='1180'> +1.3515091e-12 </wgt>
<wgt id='1181'> +1.3625699e-12 </wgt>
<wgt id='1182'> +1.3676310e-12 </wgt>
<wgt id='1183'> +1.3659302e-12 </wgt>
<wgt id='1184'> +1.3649081e-12 </wgt>
<wgt id='1185'> +1.4031386e-12 </wgt>
<wgt id='1186'> +1.3462237e-12 </wgt>
<wgt id='1187'> +1.3697471e-12 </wgt>
<wgt id='1188'> +1.3634565e-12 </wgt>
<wgt id='1189'> +1.3672458e-12 </wgt>
<wgt id='1190'> +1.3418010e-12 </wgt>
<wgt id='1191'> +1.3600841e-12 </wgt>
<wgt id='1192'> +1.3713601e-12 </wgt>
<wgt id='1193'> +1.2028471e-12 </wgt>
<wgt id='1194'> +1.1955231e-12 </wgt>
<wgt id='1195'> +1.2088277e-12 </wgt>
<wgt id='1196'> +1.1996837e-12 </wgt>
<wgt id='1197'> +1.2064440e-12 </wgt>
<wgt id='1198'> +1.2091324e-12 </wgt>
<wgt id='1199'> +1.1935435e-12 </wgt>
<wgt id='1200'> +1.2009987e-12 </wgt>
<wgt id='1201'> +1.2041644e-12 </wgt>
<wgt id='1202'> +1.2008197e-12 </wgt>
<wgt id='1203'> +1.2057657e-12 </wgt>
<wgt id='1204'> +1.1887680e-12 </wgt>
<wgt id='1205'> +1.2116070e-12 </wgt>
<wgt id='1206'> +1.2074106e-12 </wgt>
<wgt id='1207'> +1.1966317e-12 </wgt>
<wgt id='1208'> +1.1979267e-12 </wgt>
<wgt id='1209'> +1.2047197e-12 </wgt>
<wgt id='1210'> +1.1908834e-12 </wgt>
<wgt id='1211'> +1.2093515e-12 </wgt>
<wgt id='1212'> +1.2025513e-12 </wgt>
<wgt id='1213'> +1.2032269e-12 </wgt>
<wgt id='1214'> +1.1982680e-12 </wgt>
<wgt id='1215'> +1.2068159e-12 </wgt>
<wgt id='1216'> +1.2027424e-12 </wgt>
<wgt id='1217'> +1.2021974e-12 </wgt>
<wgt id='1218'> +1.2059339e-12 </wgt>
<wgt id='1219'> +1.2011337e-12 </wgt>
<wgt id='1220'> +1.2077617e-12 </wgt>
<wgt id='1221'> +1.2028217e-12 </wgt>
<wgt id='1222'> +1.2086573e-12 </wgt>
<wgt id='1223'> +1.1973947e-12 </wgt>
<wgt id='1224'> +1.1969921e-12 </wgt>
<wgt id='1225'> +1.2052483e-12 </wgt>
<wgt id='1226'> +1.2138697e-12 </wgt>
<wgt id='1227'> +1.1961167e-12 </wgt>
<wgt id='1228'> +1.2013232e-12 </wgt>
<wgt id='1229'> +1.2032766e-12 </wgt>
<wgt id='1230'> +1.2194762e-12 </wgt>
<wgt id='1231'> +1.1926779e-12 </wgt>
<wgt id='1232'> +1.2016005e-12 </wgt>
<wgt id='1233'> +1.2034708e-12 </wgt>
<wgt id='1234'> +1.2028471e-12 </wgt>
<wgt id='1235'> +1.1965717e-12 </wgt>
<wgt id='1236'> +1.1989804e-12 </wgt>
<wgt id='1237'> +1.2009870e-12 </wgt>
<wgt id='1238'> +1.2046053e-12 </wgt>
<wgt id='1239'> +1.2059460e-12 </wgt>
<wgt id='1240'> +1.2073044e-12 </wgt>
<wgt id='1241'> +1.2606326e-12 </wgt>
<wgt id='1242'> +1.2521532e-12 </wgt>
<wgt id='1243'> +1.2690748e-12 </wgt>
<wgt id='1244'> +1.2580511e-12 </wgt>
<wgt id='1245'> +1.2626244e-12 </wgt>
<wgt id='1246'> +1.2624096e-12 </wgt>
<wgt id='1247'> +1.2592887e-12 </wgt>
<wgt id='1248'> +1.2611804e-12 </wgt>
<wgt id='1249'> +1.2599015e-12 </wgt>
<wgt id='1250'> +1.2503547e-12 </wgt>
<wgt id='1251'> +1.2679681e-12 </wgt>
<wgt id='1252'> +1.2565575e-12 </wgt>
<wgt id='1253'> +1.2638649e-12 </wgt>
<wgt id='1254'> +1.2508861e-12 </wgt>
<wgt id='1255'> +1.2665630e-12 </wgt>
<wgt id='1256'> +1.2640854e-12 </wgt>
<wgt id='1257'> +1.2520309e-12 </wgt>
<wgt id='1258'> +1.2603836e-12 </wgt>
<wgt id='1259'> +1.2587524e-12 </wgt>
<wgt id='1260'> +1.2629811e-12 </wgt>
<wgt id='1261'> +1.2583039e-12 </wgt>
<wgt id='1262'> +1.2606824e-12 </wgt>
<wgt id='1263'> +1.2605909e-12 </wgt>
<wgt id='1264'> +1.2671386e-12 </wgt>
<wgt id='1265'> +1.2577253e-12 </wgt>
<wgt id='1266'> +1.2612820e-12 </wgt>
<wgt id='1267'> +1.2617423e-12 </wgt>
<wgt id='1268'> +1.2609150e-12 </wgt>
<wgt id='1269'> +1.2643155e-12 </wgt>
<wgt id='1270'> +1.2661334e-12 </wgt>
<wgt id='1271'> +1.2570612e-12 </wgt>
<wgt id='1272'> +1.2638880e-12 </wgt>
<wgt id='1273'> +1.2598819e-12 </wgt>
<wgt id='1274'> +1.2534493e-12 </wgt>
<wgt id='1275'> +1.2721931e-12 </wgt>
<wgt id='1276'> +1.2608859e-12 </wgt>
<wgt id='1277'> +1.2598422e-12 </wgt>
<wgt id='1278'> +1.2548743e-12 </wgt>
<wgt id='1279'> +1.2722160e-12 </wgt>
<wgt id='1280'> +1.2617710e-12 </wgt>
<wgt id='1281'> +1.2593559e-12 </wgt>
<wgt id='1282'> +1.2606326e-12 </wgt>
<wgt id='1283'> +1.2529694e-12 </wgt>
<wgt id='1284'> +1.2561852e-12 </wgt>
<wgt id='1285'> +1.2586649e-12 </wgt>
<wgt id='1286'> +1.2630101e-12 </wgt>
<wgt id='1287'> +1.2645473e-12 </wgt>
<wgt id='1288'> +1.2658502e-12 </wgt>
<wgt id='1289'> +1.2971539e-12 </wgt>
<wgt id='1290'> +1.3012749e-12 </wgt>
<wgt id='1291'> +1.2927029e-12 </wgt>
<wgt id='1292'> +1.2997763e-12 </wgt>
<wgt id='1293'> +1.2953078e-12 </wgt>
<wgt id='1294'> +1.2929739e-12 </wgt>
<wgt id='1295'> +1.3011322e-12 </wgt>
<wgt id='1296'> +1.2925008e-12 </wgt>
<wgt id='1297'> +1.3029115e-12 </wgt>
<wgt id='1298'> +1.3027442e-12 </wgt>
<wgt id='1299'> +1.2903275e-12 </wgt>
<wgt id='1300'> +1.2980586e-12 </wgt>
<wgt id='1301'> +1.2955669e-12 </wgt>
<wgt id='1302'> +1.2932716e-12 </wgt>
<wgt id='1303'> +1.3025103e-12 </wgt>
<wgt id='1304'> +1.2890361e-12 </wgt>
<wgt id='1305'> +1.3027466e-12 </wgt>
<wgt id='1306'> +1.2770702e-12 </wgt>
<wgt id='1307'> +1.3196952e-12 </wgt>
<wgt id='1308'> +1.2227031e-12 </wgt>
<wgt id='1309'> +1.3541072e-12 </wgt>
<wgt id='1310'> +1.2961441e-12 </wgt>
<wgt id='1311'> +1.2984431e-12 </wgt>
<wgt id='1312'> +1.2901263e-12 </wgt>
<wgt id='1313'> +1.3044778e-12 </wgt>
<wgt id='1314'> +1.2819852e-12 </wgt>
<wgt id='1315'> +1.3077375e-12 </wgt>
<wgt id='1316'> +1.2971617e-12 </wgt>
<wgt id='1317'> +1.3031818e-12 </wgt>
<wgt id='1318'> +1.3038361e-12 </wgt>
<wgt id='1319'> +1.2887623e-12 </wgt>
<wgt id='1320'> +1.3018637e-12 </wgt>
<wgt id='1321'> +1.2920912e-12 </wgt>
<wgt id='1322'> +1.3042662e-12 </wgt>
<wgt id='1323'> +1.2876883e-12 </wgt>
<wgt id='1324'> +1.3016718e-12 </wgt>
<wgt id='1325'> +1.2916141e-12 </wgt>
<wgt id='1326'> +1.3086697e-12 </wgt>
<wgt id='1327'> +1.2905229e-12 </wgt>
<wgt id='1328'> +1.2892206e-12 </wgt>
<wgt id='1329'> +1.3048759e-12 </wgt>
<wgt id='1330'> +1.4035457e-12 </wgt>
<wgt id='1331'> +1.2098548e-12 </wgt>
<wgt id='1332'> +1.2485712e-12 </wgt>
<wgt id='1333'> +1.3559709e-12 </wgt>
<wgt id='1334'> +1.3162439e-12 </wgt>
<wgt id='1335'> +1.2518071e-12 </wgt>
<wgt id='1336'> +1.3003989e-12 </wgt>
<wgt id='1337'> +1.3004166e-12 </wgt>
<wgt id='1338'> +1.2943883e-12 </wgt>
<wgt id='1339'> +1.2988584e-12 </wgt>
<wgt id='1340'> +1.2707910e-12 </wgt>
<wgt id='1341'> +1.2748440e-12 </wgt>
<wgt id='1342'> +1.2663483e-12 </wgt>
<wgt id='1343'> +1.2737364e-12 </wgt>
<wgt id='1344'> +1.2688009e-12 </wgt>
<wgt id='1345'> +1.2664491e-12 </wgt>
<wgt id='1346'> +1.2745865e-12 </wgt>
<wgt id='1347'> +1.2661646e-12 </wgt>
<wgt id='1348'> +1.2758508e-12 </wgt>
<wgt id='1349'> +1.2764522e-12 </wgt>
<wgt id='1350'> +1.2652163e-12 </wgt>
<wgt id='1351'> +1.2711087e-12 </wgt>
<wgt id='1352'> +1.2702915e-12 </wgt>
<wgt id='1353'> +1.2650619e-12 </wgt>
<wgt id='1354'> +1.2808038e-12 </wgt>
<wgt id='1355'> +1.2622042e-12 </wgt>
<wgt id='1356'> +1.2755707e-12 </wgt>
<wgt id='1357'> +1.2287858e-12 </wgt>
<wgt id='1358'> +1.3196985e-12 </wgt>
<wgt id='1359'> +1.2018760e-12 </wgt>
<wgt id='1360'> +1.3304289e-12 </wgt>
<wgt id='1361'> +1.2693861e-12 </wgt>
<wgt id='1362'> +1.2727394e-12 </wgt>
<wgt id='1363'> +1.2635561e-12 </wgt>
<wgt id='1364'> +1.2762314e-12 </wgt>
<wgt id='1365'> +1.2815000e-12 </wgt>
<wgt id='1366'> +1.2511712e-12 </wgt>
<wgt id='1367'> +1.2720488e-12 </wgt>
<wgt id='1368'> +1.2742370e-12 </wgt>
<wgt id='1369'> +1.2747836e-12 </wgt>
<wgt id='1370'> +1.2655803e-12 </wgt>
<wgt id='1371'> +1.2784049e-12 </wgt>
<wgt id='1372'> +1.2611392e-12 </wgt>
<wgt id='1373'> +1.2786165e-12 </wgt>
<wgt id='1374'> +1.2627570e-12 </wgt>
<wgt id='1375'> +1.2741070e-12 </wgt>
<wgt id='1376'> +1.2666306e-12 </wgt>
<wgt id='1377'> +1.2807095e-12 </wgt>
<wgt id='1378'> +1.2659486e-12 </wgt>
<wgt id='1379'> +1.2646168e-12 </wgt>
<wgt id='1380'> +1.2776436e-12 </wgt>
<wgt id='1381'> +1.3848689e-12 </wgt>
<wgt id='1382'> +1.1831724e-12 </wgt>
<wgt id='1383'> +1.2111336e-12 </wgt>
<wgt id='1384'> +1.3437138e-12 </wgt>
<wgt id='1385'> +1.2916444e-12 </wgt>
<wgt id='1386'> +1.2230271e-12 </wgt>
<wgt id='1387'> +1.2713558e-12 </wgt>
<wgt id='1388'> +1.2792863e-12 </wgt>
<wgt id='1389'> +1.2683235e-12 </wgt>
<wgt id='1390'> +1.2726394e-12 </wgt>
<wgt id='1391'> +1.2545801e-12 </wgt>
<wgt id='1392'> +1.2113801e-12 </wgt>
<wgt id='1393'> +1.2301062e-12 </wgt>
<wgt id='1394'> +1.2455734e-12 </wgt>
<wgt id='1395'> +1.2816406e-12 </wgt>
<wgt id='1396'> +1.2614961e-12 </wgt>
<wgt id='1397'> +1.2192566e-12 </wgt>
<wgt id='1398'> +1.2262733e-12 </wgt>
<wgt id='1399'> +1.2322267e-12 </wgt>
<wgt id='1400'> +1.2413218e-12 </wgt>
<wgt id='1401'> +1.2507108e-12 </wgt>
<wgt id='1402'> +1.2768266e-12 </wgt>
<wgt id='1403'> +1.2893380e-12 </wgt>
<wgt id='1404'> +1.3031776e-12 </wgt>
<wgt id='1405'> +1.2614961e-12 </wgt>
<wgt id='1406'> +1.2516375e-12 </wgt>
<wgt id='1407'> +1.2564826e-12 </wgt>
<wgt id='1408'> +1.2657067e-12 </wgt>
<wgt id='1409'> +1.2733342e-12 </wgt>
<wgt id='1410'> +1.3123424e-12 </wgt>
<wgt id='1411'> +1.3164541e-12 </wgt>
<wgt id='1412'> +1.3068313e-12 </wgt>
<wgt id='1413'> +1.3133974e-12 </wgt>
<wgt id='1414'> +1.3111464e-12 </wgt>
<wgt id='1415'> +1.3157189e-12 </wgt>
<wgt id='1416'> +1.3108822e-12 </wgt>
<wgt id='1417'> +1.3023910e-12 </wgt>
<wgt id='1418'> +1.3221573e-12 </wgt>
<wgt id='1419'> +1.3145310e-12 </wgt>
<wgt id='1420'> +1.3100301e-12 </wgt>
<wgt id='1421'> +1.3069922e-12 </wgt>
<wgt id='1422'> +1.3147765e-12 </wgt>
<wgt id='1423'> +1.3131441e-12 </wgt>
<wgt id='1424'> +1.3112559e-12 </wgt>
<wgt id='1425'> +1.3024491e-12 </wgt>
<wgt id='1426'> +1.3227407e-12 </wgt>
<wgt id='1427'> +1.2427496e-12 </wgt>
<wgt id='1428'> +1.3504830e-12 </wgt>
<wgt id='1429'> +1.3457043e-12 </wgt>
<wgt id='1430'> +1.2681574e-12 </wgt>
<wgt id='1431'> +1.2683744e-12 </wgt>
<wgt id='1432'> +1.3431992e-12 </wgt>
<wgt id='1433'> +1.3186729e-12 </wgt>
<wgt id='1434'> +1.3038977e-12 </wgt>
<wgt id='1435'> +1.3147803e-12 </wgt>
<wgt id='1436'> +1.3064830e-12 </wgt>
<wgt id='1437'> +1.3156170e-12 </wgt>
<wgt id='1438'> +1.3151355e-12 </wgt>
<wgt id='1439'> +1.3092236e-12 </wgt>
<wgt id='1440'> +1.3168943e-12 </wgt>
<wgt id='1441'> +1.3142227e-12 </wgt>
<wgt id='1442'> +1.3087710e-12 </wgt>
<wgt id='1443'> +1.3103525e-12 </wgt>
<wgt id='1444'> +1.3177808e-12 </wgt>
<wgt id='1445'> +1.3048248e-12 </wgt>
<wgt id='1446'> +1.3172558e-12 </wgt>
<wgt id='1447'> +1.3133571e-12 </wgt>
<wgt id='1448'> +1.3137598e-12 </wgt>
<wgt id='1449'> +1.3042505e-12 </wgt>
<wgt id='1450'> +1.3180663e-12 </wgt>
<wgt id='1451'> +1.2520749e-12 </wgt>
<wgt id='1452'> +1.4327973e-12 </wgt>
<wgt id='1453'> +1.3057689e-12 </wgt>
<wgt id='1454'> +1.3519372e-12 </wgt>
<wgt id='1455'> +1.3596172e-12 </wgt>
<wgt id='1456'> +1.2828394e-12 </wgt>
<wgt id='1457'> +1.2855987e-12 </wgt>
<wgt id='1458'> +1.3241763e-12 </wgt>
<wgt id='1459'> +1.2872486e-12 </wgt>
<wgt id='1460'> +1.3389955e-12 </wgt>
<wgt id='1461'> +1.3123424e-12 </wgt>
<wgt id='1462'> +1.2863926e-12 </wgt>
<wgt id='1463'> +1.3150758e-12 </wgt>
<wgt id='1464'> +1.3000322e-12 </wgt>
<wgt id='1465'> +1.2559074e-12 </wgt>
<wgt id='1466'> +1.2622952e-12 </wgt>
<wgt id='1467'> +1.2703669e-12 </wgt>
<wgt id='1468'> +1.2816170e-12 </wgt>
<wgt id='1469'> +1.2905236e-12 </wgt>
<wgt id='1470'> +1.3093387e-12 </wgt>
<wgt id='1471'> +1.3199023e-12 </wgt>
<wgt id='1472'> +1.3309157e-12 </wgt>
<wgt id='1473'> +1.3000322e-12 </wgt>
<wgt id='1474'> +1.2902844e-12 </wgt>
<wgt id='1475'> +1.2966868e-12 </wgt>
<wgt id='1476'> +1.3043508e-12 </wgt>
<wgt id='1477'> +1.3078560e-12 </wgt>
<wgt id='1478'> +1.2361624e-12 </wgt>
<wgt id='1479'> +1.2388693e-12 </wgt>
<wgt id='1480'> +1.1863868e-12 </wgt>
<wgt id='1481'> +1.2280548e-12 </wgt>
<wgt id='1482'> +1.2474046e-12 </wgt>
<wgt id='1483'> +1.2737533e-12 </wgt>
<wgt id='1484'> +1.2289607e-12 </wgt>
<wgt id='1485'> +1.2663984e-12 </wgt>
<wgt id='1486'> +1.2304060e-12 </wgt>
<wgt id='1487'> +1.2451840e-12 </wgt>
<wgt id='1488'> +1.2351415e-12 </wgt>
<wgt id='1489'> +1.2086174e-12 </wgt>
<wgt id='1490'> +1.2367250e-12 </wgt>
<wgt id='1491'> +1.2540553e-12 </wgt>
<wgt id='1492'> +1.2289697e-12 </wgt>
<wgt id='1493'> +1.2457908e-12 </wgt>
<wgt id='1494'> +1.1413964e-12 </wgt>
<wgt id='1495'> +1.2455852e-12 </wgt>
<wgt id='1496'> +1.2403570e-12 </wgt>
<wgt id='1497'> +1.2460514e-12 </wgt>
<wgt id='1498'> +1.2366063e-12 </wgt>
<wgt id='1499'> +1.2391102e-12 </wgt>
<wgt id='1500'> +1.2308398e-12 </wgt>
<wgt id='1501'> +1.2381959e-12 </wgt>
<wgt id='1502'> +1.2438885e-12 </wgt>
<wgt id='1503'> +1.2348116e-12 </wgt>
<wgt id='1504'> +1.2393816e-12 </wgt>
<wgt id='1505'> +1.2371864e-12 </wgt>
<wgt id='1506'> +1.2412158e-12 </wgt>
<wgt id='1507'> +1.2334411e-12 </wgt>
<wgt id='1508'> +1.2498960e-12 </wgt>
<wgt id='1509'> +1.3114494e-12 </wgt>
<wgt id='1510'> +1.3205515e-12 </wgt>
<wgt id='1511'> +1.2967954e-12 </wgt>
<wgt id='1512'> +1.3061903e-12 </wgt>
<wgt id='1513'> +1.2516993e-12 </wgt>
<wgt id='1514'> +1.3239760e-12 </wgt>
<wgt id='1515'> +1.3390397e-12 </wgt>
<wgt id='1516'> +1.3150384e-12 </wgt>
<wgt id='1517'> +1.3297254e-12 </wgt>
<wgt id='1518'> +1.2783819e-12 </wgt>
<wgt id='1519'> +1.3410033e-12 </wgt>
<wgt id='1520'> +1.3171021e-12 </wgt>
<wgt id='1521'> +1.2908587e-12 </wgt>
<wgt id='1522'> +1.3039391e-12 </wgt>
<wgt id='1523'> +1.2992732e-12 </wgt>
<wgt id='1524'> +1.3073974e-12 </wgt>
<wgt id='1525'> +1.3065914e-12 </wgt>
<wgt id='1526'> +1.3137596e-12 </wgt>
<wgt id='1527'> +1.3150965e-12 </wgt>
<wgt id='1528'> +1.3129393e-12 </wgt>
<wgt id='1529'> +1.3168684e-12 </wgt>
<wgt id='1530'> +1.3129080e-12 </wgt>
<wgt id='1531'> +1.3143924e-12 </wgt>
<wgt id='1532'> +1.3062053e-12 </wgt>
<wgt id='1533'> +1.3114643e-12 </wgt>
<wgt id='1534'> +1.3146069e-12 </wgt>
<wgt id='1535'> +1.3122976e-12 </wgt>
<wgt id='1536'> +1.3117965e-12 </wgt>
<wgt id='1537'> +1.3068201e-12 </wgt>
<wgt id='1538'> +1.3190221e-12 </wgt>
<wgt id='1539'> +1.3107508e-12 </wgt>
<wgt id='1540'> +1.3139846e-12 </wgt>
<wgt id='1541'> +1.3107419e-12 </wgt>
<wgt id='1542'> +1.3116709e-12 </wgt>
<wgt id='1543'> +1.3166025e-12 </wgt>
<wgt id='1544'> +1.3098845e-12 </wgt>
<wgt id='1545'> +1.3122568e-12 </wgt>
<wgt id='1546'> +1.3170679e-12 </wgt>
<wgt id='1547'> +1.3098147e-12 </wgt>
<wgt id='1548'> +1.3079362e-12 </wgt>
<wgt id='1549'> +1.3110684e-12 </wgt>
<wgt id='1550'> +1.3133999e-12 </wgt>
<wgt id='1551'> +1.3117724e-12 </wgt>
<wgt id='1552'> +1.3090995e-12 </wgt>
<wgt id='1553'> +1.3143965e-12 </wgt>
<wgt id='1554'> +1.3100224e-12 </wgt>
<wgt id='1555'> +1.3123031e-12 </wgt>
<wgt id='1556'> +1.3120799e-12 </wgt>
<wgt id='1557'> +1.3104588e-12 </wgt>
<wgt id='1558'> +1.3119826e-12 </wgt>
<wgt id='1559'> +1.3109628e-12 </wgt>
<wgt id='1560'> +1.3135189e-12 </wgt>
<wgt id='1561'> +1.3117289e-12 </wgt>
<wgt id='1562'> +1.3128860e-12 </wgt>
<wgt id='1563'> +1.3134870e-12 </wgt>
<wgt id='1564'> +1.3116949e-12 </wgt>
<wgt id='1565'> +1.3108128e-12 </wgt>
<wgt id='1566'> +1.3128810e-12 </wgt>
<wgt id='1567'> +1.3114124e-12 </wgt>
<wgt id='1568'> +1.3106632e-12 </wgt>
<wgt id='1569'> +1.3118279e-12 </wgt>
<wgt id='1570'> +1.3121145e-12 </wgt>
<wgt id='1571'> +1.3125391e-12 </wgt>
<wgt id='1572'> +1.3115599e-12 </wgt>
<wgt id='1573'> +1.3112329e-12 </wgt>
<wgt id='1574'> +1.3126530e-12 </wgt>
<wgt id='1575'> +1.3110422e-12 </wgt>
<wgt id='1576'> +1.3108425e-12 </wgt>
<wgt id='1577'> +1.3113601e-12 </wgt>
<wgt id='1578'> +1.3113795e-12 </wgt>
<wgt id='1579'> +1.3107627e-12 </wgt>
<wgt id='1580'> +1.3107305e-12 </wgt>
<wgt id='1581'> +1.3125037e-12 </wgt>
<wgt id='1582'> +1.3117664e-12 </wgt>
<wgt id='1583'> +1.3115979e-12 </wgt>
<wgt id='1584'> +1.3120292e-12 </wgt>
<wgt id='1585'> +1.3109555e-12 </wgt>
<wgt id='1586'> +1.3114224e-12 </wgt>
<wgt id='1587'> +1.3113324e-12 </wgt>
<wgt id='1588'> +1.3113679e-12 </wgt>
<wgt id='1589'> +1.3113691e-12 </wgt>
<wgt id='1590'> +1.3120225e-12 </wgt>
<wgt id='1591'> +1.3118864e-12 </wgt>
<wgt id='1592'> +1.3121832e-12 </wgt>
<wgt id='1593'> +1.3116238e-12 </wgt>
<wgt id='1594'> +1.3115938e-12 </wgt>
<wgt id='1595'> +1.3107838e-12 </wgt>
<wgt id='1596'> +1.3115742e-12 </wgt>
<wgt id='1597'> +1.3118383e-12 </wgt>
<wgt id='1598'> +1.3112530e-12 </wgt>
<wgt id='1599'> +1.3114508e-12 </wgt>
<wgt id='1600'> +1.3114760e-12 </wgt>
<wgt id='1601'> +1.3117902e-12 </wgt>
<wgt id='1602'> +1.3114495e-12 </wgt>
<wgt id='1603'> +1.3119075e-12 </wgt>
<wgt id='1604'> +1.3119719e-12 </wgt>
<wgt id='1605'> +1.3111371e-12 </wgt>
<wgt id='1606'> +1.3115766e-12 </wgt>
<wgt id='1607'> +1.3116271e-12 </wgt>
<wgt id='1608'> +1.3116510e-12 </wgt>
<wgt id='1609'> +1.3114184e-12 </wgt>
<wgt id='1610'> +1.2630094e-12 </wgt>
<wgt id='1611'> +1.3423742e-12 </wgt>
<wgt id='1612'> +1.4863554e-12 </wgt>
<wgt id='1613'> +1.4063009e-12 </wgt>
<wgt id='1614'> +1.3545658e-12 </wgt>
<wgt id='1615'> +1.5509517e-12 </wgt>
<wgt id='1616'> +1.2449034e-12 </wgt>
<wgt id='1617'> +1.3904885e-12 </wgt>
<wgt id='1618'> +1.5063410e-12 </wgt>
<wgt id='1619'> +1.3471824e-12 </wgt>
<wgt id='1620'> +1.5122736e-12 </wgt>
<wgt id='1621'> +1.5551758e-12 </wgt>
<wgt id='1622'> +1.5125582e-12 </wgt>
<wgt id='1623'> +1.4554178e-12 </wgt>
<wgt id='1624'> +1.5505908e-12 </wgt>
<wgt id='1625'> +1.6530039e-12 </wgt>
<wgt id='1626'> +1.5510229e-12 </wgt>
<wgt id='1627'> +1.5391990e-12 </wgt>
<wgt id='1628'> +1.4316904e-12 </wgt>
<wgt id='1629'> +1.4588971e-12 </wgt>
<wgt id='1630'> +1.4286050e-12 </wgt>
<wgt id='1631'> +1.6034188e-12 </wgt>
<wgt id='1632'> +1.5633326e-12 </wgt>
<wgt id='1633'> +1.5815273e-12 </wgt>
<wgt id='1634'> +1.4639825e-12 </wgt>
<wgt id='1635'> +1.4932180e-12 </wgt>
<wgt id='1636'> +1.4483023e-12 </wgt>
<wgt id='1637'> +1.5223279e-12 </wgt>
<wgt id='1638'> +1.5040822e-12 </wgt>
<wgt id='1639'> +1.4133970e-12 </wgt>
<wgt id='1640'> +1.5309531e-12 </wgt>
<wgt id='1641'> +1.4971909e-12 </wgt>
<wgt id='1642'> +1.5509851e-12 </wgt>
<wgt id='1643'> +1.3247726e-12 </wgt>
<wgt id='1644'> +1.7710960e-12 </wgt>
<wgt id='1645'> +1.4982677e-12 </wgt>
<wgt id='1646'> +1.4738266e-12 </wgt>
<wgt id='1647'> +1.4340583e-12 </wgt>
<wgt id='1648'> +1.3422303e-12 </wgt>
<wgt id='1649'> +1.3790716e-12 </wgt>
<wgt id='1650'> +1.5098345e-12 </wgt>
<wgt id='1651'> +1.5715447e-12 </wgt>
<wgt id='1652'> +1.5165656e-12 </wgt>
<wgt id='1653'> +1.3807757e-12 </wgt>
<wgt id='1654'> +1.5529758e-12 </wgt>
<wgt id='1655'> +1.5564953e-12 </wgt>
<wgt id='1656'> +1.5769426e-12 </wgt>
<wgt id='1657'> +1.4795701e-12 </wgt>
<wgt id='1658'> +1.5790242e-12 </wgt>
<wgt id='1659'> +1.5505908e-12 </wgt>
<wgt id='1660'> +1.5064799e-12 </wgt>
<wgt id='1661'> +1.6039177e-12 </wgt>
<wgt id='1662'> +1.4707527e-12 </wgt>
<wgt id='1663'> +1.5134032e-12 </wgt>
<wgt id='1664'> +1.5165761e-12 </wgt>
<wgt id='1665'> +1.5829966e-12 </wgt>
<wgt id='1666'> +1.4719313e-12 </wgt>
<wgt id='1667'> +1.4675838e-12 </wgt>
<wgt id='1668'> +1.4086316e-12 </wgt>
<wgt id='1669'> +1.7898305e-12 </wgt>
<wgt id='1670'> +1.4339209e-12 </wgt>
<wgt id='1671'> +1.5100858e-12 </wgt>
<wgt id='1672'> +1.5746191e-12 </wgt>
<wgt id='1673'> +1.5206217e-12 </wgt>
<wgt id='1674'> +1.4138932e-12 </wgt>
<wgt id='1675'> +1.5046376e-12 </wgt>
<wgt id='1676'> +1.4889431e-12 </wgt>
<wgt id='1677'> +1.3054180e-12 </wgt>
<wgt id='1678'> +1.4912458e-12 </wgt>
<wgt id='1679'> +1.4285183e-12 </wgt>
<wgt id='1680'> +1.3085872e-12 </wgt>
<wgt id='1681'> +1.4743886e-12 </wgt>
<wgt id='1682'> +1.4946727e-12 </wgt>
<wgt id='1683'> +1.4915065e-12 </wgt>
<wgt id='1684'> +1.5894395e-12 </wgt>
<wgt id='1685'> +1.5541936e-12 </wgt>
<wgt id='1686'> +1.5050240e-12 </wgt>
<wgt id='1687'> +1.3851351e-12 </wgt>
<wgt id='1688'> +1.4545951e-12 </wgt>
<wgt id='1689'> +1.4913584e-12 </wgt>
<wgt id='1690'> +1.4277830e-12 </wgt>
<wgt id='1691'> +1.3317538e-12 </wgt>
<wgt id='1692'> +1.4616517e-12 </wgt>
<wgt id='1693'> +1.4286363e-12 </wgt>
<wgt id='1694'> +1.7755693e-12 </wgt>
<wgt id='1695'> +1.4548913e-12 </wgt>
<wgt id='1696'> +1.4150768e-12 </wgt>
<wgt id='1697'> +1.3465250e-12 </wgt>
<wgt id='1698'> +1.5327587e-12 </wgt>
<wgt id='1699'> +1.4151634e-12 </wgt>
<wgt id='1700'> +1.5029138e-12 </wgt>
<wgt id='1701'> +1.4273481e-12 </wgt>
<wgt id='1702'> +1.4043452e-12 </wgt>
<wgt id='1703'> +1.3965989e-12 </wgt>
<wgt id='1704'> +1.5302687e-12 </wgt>
<wgt id='1705'> +1.5430512e-12 </wgt>
<wgt id='1706'> +1.4574281e-12 </wgt>
<wgt id='1707'> +1.4722655e-12 </wgt>
<wgt id='1708'> +1.5596073e-12 </wgt>
<wgt id='1709'> +1.5157131e-12 </wgt>
<wgt id='1710'> +1.4896961e-12 </wgt>
<wgt id='1711'> +1.3509613e-12 </wgt>
<wgt id='1712'> +1.5077211e-12 </wgt>
<wgt id='1713'> +1.2927615e-12 </wgt>
<wgt id='1714'> +1.3010675e-12 </wgt>
<wgt id='1715'> +1.1679027e-12 </wgt>
<wgt id='1716'> +1.2198894e-12 </wgt>
<wgt id='1717'> +1.2181684e-12 </wgt>
<wgt id='1718'> +1.3288798e-12 </wgt>
<wgt id='1719'> +1.3456393e-12 </wgt>
<wgt id='1720'> +1.3022251e-12 </wgt>
<wgt id='1721'> +1.2846324e-12 </wgt>
<wgt id='1722'> +1.3277867e-12 </wgt>
<wgt id='1723'> +1.3543500e-12 </wgt>
<wgt id='1724'> +1.9245259e-12 </wgt>
<wgt id='1725'> +1.2639153e-12 </wgt>
<wgt id='1726'> +1.0697934e-12 </wgt>
<wgt id='1727'> +1.3668004e-12 </wgt>
<wgt id='1728'> +1.3361332e-12 </wgt>
<wgt id='1729'> +1.3315058e-12 </wgt>
<wgt id='1730'> +1.3208178e-12 </wgt>
<wgt id='1731'> +1.3223304e-12 </wgt>
<wgt id='1732'> +1.2741185e-12 </wgt>
<wgt id='1733'> +1.2301147e-12 </wgt>
<wgt id='1734'> +1.2555445e-12 </wgt>
<wgt id='1735'> +1.4541144e-12 </wgt>
<wgt id='1736'> +1.3030921e-12 </wgt>
<wgt id='1737'> +1.2474114e-12 </wgt>
<wgt id='1738'> +1.2548368e-12 </wgt>
<wgt id='1739'> +1.2773474e-12 </wgt>
<wgt id='1740'> +1.2560931e-12 </wgt>
<wgt id='1741'> +1.3179943e-12 </wgt>
<wgt id='1742'> +1.1923599e-12 </wgt>
<wgt id='1743'> +1.2306946e-12 </wgt>
<wgt id='1744'> +1.1002513e-12 </wgt>
<wgt id='1745'> +1.6343533e-12 </wgt>
<wgt id='1746'> +1.1016111e-12 </wgt>
<wgt id='1747'> +1.3119687e-12 </wgt>
<wgt id='1748'> +1.2108768e-12 </wgt>
<wgt id='1749'> +1.2054644e-12 </wgt>
<wgt id='1750'> +1.2804244e-12 </wgt>
<wgt id='1751'> +1.5438905e-12 </wgt>
<wgt id='1752'> +1.2792863e-12 </wgt>
<wgt id='1753'> +1.2451966e-12 </wgt>
<wgt id='1754'> +1.2615095e-12 </wgt>
<wgt id='1755'> +1.2659977e-12 </wgt>
<wgt id='1756'> +1.3399131e-12 </wgt>
<wgt id='1757'> +1.3428991e-12 </wgt>
<wgt id='1758'> +1.2339743e-12 </wgt>
<wgt id='1759'> +1.2445591e-12 </wgt>
<wgt id='1760'> +1.3191674e-12 </wgt>
<wgt id='1761'> +1.2639694e-12 </wgt>
<wgt id='1762'> +1.1579775e-12 </wgt>
<wgt id='1763'> +1.1974178e-12 </wgt>
<wgt id='1764'> +1.2681583e-12 </wgt>
<wgt id='1765'> +1.2492194e-12 </wgt>
<wgt id='1766'> +1.4143766e-12 </wgt>
<wgt id='1767'> +1.2835210e-12 </wgt>
<wgt id='1768'> +1.2597632e-12 </wgt>
<wgt id='1769'> +1.3095001e-12 </wgt>
<wgt id='1770'> +1.1103714e-12 </wgt>
<wgt id='1771'> +1.2832364e-12 </wgt>
<wgt id='1772'> +1.1528316e-12 </wgt>
<wgt id='1773'> +1.2790708e-12 </wgt>
<wgt id='1774'> +1.2072720e-12 </wgt>
<wgt id='1775'> +1.2794121e-12 </wgt>
<wgt id='1776'> +1.2573595e-12 </wgt>
<wgt id='1777'> +1.3649540e-12 </wgt>
<wgt id='1778'> +1.2424914e-12 </wgt>
<wgt id='1779'> +1.2209596e-12 </wgt>
<wgt id='1780'> +1.5711875e-12 </wgt>
<wgt id='1781'> +1.1833030e-12 </wgt>
<wgt id='1782'> +1.2977260e-12 </wgt>
<wgt id='1783'> +1.2723211e-12 </wgt>
<wgt id='1784'> +1.3185264e-12 </wgt>
<wgt id='1785'> +1.5848329e-12 </wgt>
<wgt id='1786'> +1.5089898e-12 </wgt>
<wgt id='1787'> +1.3151994e-12 </wgt>
<wgt id='1788'> +1.2599889e-12 </wgt>
<wgt id='1789'> +1.8268297e-12 </wgt>
<wgt id='1790'> +1.4542599e-12 </wgt>
<wgt id='1791'> +1.3100198e-12 </wgt>
<wgt id='1792'> +1.3667225e-12 </wgt>
<wgt id='1793'> +1.2407716e-12 </wgt>
<wgt id='1794'> +1.3042636e-12 </wgt>
<wgt id='1795'> +1.1534925e-12 </wgt>
<wgt id='1796'> +1.3639242e-12 </wgt>
<wgt id='1797'> +1.2310152e-12 </wgt>
<wgt id='1798'> +1.2780573e-12 </wgt>
<wgt id='1799'> +1.3167286e-12 </wgt>
<wgt id='1800'> +1.3018179e-12 </wgt>
<wgt id='1801'> +1.2442155e-12 </wgt>
<wgt id='1802'> +1.4381767e-12 </wgt>
<wgt id='1803'> +1.2018125e-12 </wgt>
<wgt id='1804'> +1.2476107e-12 </wgt>
<wgt id='1805'> +1.2866946e-12 </wgt>
<wgt id='1806'> +1.2794583e-12 </wgt>
<wgt id='1807'> +1.3199391e-12 </wgt>
<wgt id='1808'> +1.1924684e-12 </wgt>
<wgt id='1809'> +1.3209742e-12 </wgt>
<wgt id='1810'> +1.1450547e-12 </wgt>
<wgt id='1811'> +1.0773834e-12 </wgt>
<wgt id='1812'> +1.1424829e-12 </wgt>
<wgt id='1813'> +1.0535087e-12 </wgt>
<wgt id='1814'> +1.1584518e-12 </wgt>
<wgt id='1815'> +1.3002395e-12 </wgt>
<wgt id='1816'> +1.2927615e-12 </wgt>
<wgt id='1817'> +1.3010675e-12 </wgt>
<wgt id='1818'> +1.1679027e-12 </wgt>
<wgt id='1819'> +1.2198894e-12 </wgt>
<wgt id='1820'> +1.2181684e-12 </wgt>
<wgt id='1821'> +1.3288798e-12 </wgt>
<wgt id='1822'> +1.3456393e-12 </wgt>
<wgt id='1823'> +1.3022251e-12 </wgt>
<wgt id='1824'> +1.2846324e-12 </wgt>
<wgt id='1825'> +1.3277867e-12 </wgt>
<wgt id='1826'> +1.3543500e-12 </wgt>
<wgt id='1827'> +1.9245259e-12 </wgt>
<wgt id='1828'> +1.2639153e-12 </wgt>
<wgt id='1829'> +1.0697934e-12 </wgt>
<wgt id='1830'> +1.3668004e-12 </wgt>
<wgt id='1831'> +1.3361332e-12 </wgt>
<wgt id='1832'> +1.3315058e-12 </wgt>
<wgt id='1833'> +1.3208178e-12 </wgt>
<wgt id='1834'> +1.3223304e-12 </wgt>
<wgt id='1835'> +1.2741185e-12 </wgt>
<wgt id='1836'> +1.2301147e-12 </wgt>
<wgt id='1837'> +1.2555445e-12 </wgt>
<wgt id='1838'> +1.4541144e-12 </wgt>
<wgt id='1839'> +1.3030921e-12 </wgt>
<wgt id='1840'> +1.2474114e-12 </wgt>
<wgt id='1841'> +1.2548368e-12 </wgt>
<wgt id='1842'> +1.2773474e-12 </wgt>
<wgt id='1843'> +1.2560931e-12 </wgt>
<wgt id='1844'> +1.3179943e-12 </wgt>
<wgt id='1845'> +1.1923599e-12 </wgt>
<wgt id='1846'> +1.2306946e-12 </wgt>
<wgt id='1847'> +1.1002513e-12 </wgt>
<wgt id='1848'> +1.6343533e-12 </wgt>
<wgt id='1849'> +1.1016111e-12 </wgt>
<wgt id='1850'> +1.3119687e-12 </wgt>
<wgt id='1851'> +1.2108768e-12 </wgt>
<wgt id='1852'> +1.2054644e-12 </wgt>
<wgt id='1853'> +1.2804244e-12 </wgt>
<wgt id='1854'> +1.5438905e-12 </wgt>
<wgt id='1855'> +1.2792863e-12 </wgt>
<wgt id='1856'> +1.2451966e-12 </wgt>
<wgt id='1857'> +1.2615095e-12 </wgt>
<wgt id='1858'> +1.2659977e-12 </wgt>
<wgt id='1859'> +1.3399131e-12 </wgt>
<wgt id='1860'> +1.3428991e-12 </wgt>
<wgt id='1861'> +1.2339743e-12 </wgt>
<wgt id='1862'> +1.2445591e-12 </wgt>
<wgt id='1863'> +1.3191674e-12 </wgt>
<wgt id='1864'> +1.2639694e-12 </wgt>
<wgt id='1865'> +1.1579775e-12 </wgt>
<wgt id='1866'> +1.1974178e-12 </wgt>
<wgt id='1867'> +1.2681583e-12 </wgt>
<wgt id='1868'> +1.2492194e-12 </wgt>
<wgt id='1869'> +1.4143766e-12 </wgt>
<wgt id='1870'> +1.2835210e-12 </wgt>
<wgt id='1871'> +1.2597632e-12 </wgt>
<wgt id='1872'> +1.3095001e-12 </wgt>
<wgt id='1873'> +1.1103714e-12 </wgt>
<wgt id='1874'> +1.2832364e-12 </wgt>
<wgt id='1875'> +1.1528316e-12 </wgt>
<wgt id='1876'> +1.2790708e-12 </wgt>
<wgt id='1877'> +1.2072720e-12 </wgt>
<wgt id='1878'> +1.2794121e-12 </wgt>
<wgt id='1879'> +1.2573595e-12 </wgt>
<wgt id='1880'> +1.3649540e-12 </wgt>
<wgt id='1881'> +1.2424914e-12 </wgt>
<wgt id='1882'> +1.2209596e-12 </wgt>
<wgt id='1883'> +1.5711875e-12 </wgt>
<wgt id='1884'> +1.1833030e-12 </wgt>
<wgt id='1885'> +1.2977260e-12 </wgt>
<wgt id='1886'> +1.2723211e-12 </wgt>
<wgt id='1887'> +1.3185264e-12 </wgt>
<wgt id='1888'> +1.5848329e-12 </wgt>
<wgt id='1889'> +1.5089898e-12 </wgt>
<wgt id='1890'> +1.3151994e-12 </wgt>
<wgt id='1891'> +1.2599889e-12 </wgt>
<wgt id='1892'> +1.8268297e-12 </wgt>
<wgt id='1893'> +1.4542599e-12 </wgt>
<wgt id='1894'> +1.3100198e-12 </wgt>
<wgt id='1895'> +1.3667225e-12 </wgt>
<wgt id='1896'> +1.2407716e-12 </wgt>
<wgt id='1897'> +1.3042636e-12 </wgt>
<wgt id='1898'> +1.1534925e-12 </wgt>
<wgt id='1899'> +1.3639242e-12 </wgt>
<wgt id='1900'> +1.2310152e-12 </wgt>
<wgt id='1901'> +1.2780573e-12 </wgt>
<wgt id='1902'> +1.3167286e-12 </wgt>
<wgt id='1903'> +1.3018179e-12 </wgt>
<wgt id='1904'> +1.2442155e-12 </wgt>
<wgt id='1905'> +1.4381767e-12 </wgt>
<wgt id='1906'> +1.2018125e-12 </wgt>
<wgt id='1907'> +1.2476107e-12 </wgt>
<wgt id='1908'> +1.2866946e-12 </wgt>
<wgt id='1909'> +1.2794583e-12 </wgt>
<wgt id='1910'> +1.3199391e-12 </wgt>
<wgt id='1911'> +1.1924684e-12 </wgt>
<wgt id='1912'> +1.3209742e-12 </wgt>
<wgt id='1913'> +1.1450547e-12 </wgt>
<wgt id='1914'> +1.0773834e-12 </wgt>
<wgt id='1915'> +1.1424829e-12 </wgt>
<wgt id='1916'> +1.0535087e-12 </wgt>
<wgt id='1917'> +1.2518110e-12 </wgt>
<wgt id='1918'> +1.2989802e-12 </wgt>
<wgt id='1919'> +1.3015352e-12 </wgt>
</rwgt>
</event>
<event>
 9      1 +1.5538000e-12 4.65024900e+01 7.81860800e-03 1.32939500e-01
        2 -1    0    0  502    0 -0.0000000000e+00 +0.0000000000e+00 +2.7112121378e+01 2.7112121378e+01 0.0000000000e+00 0.0000e+00 -1.0000e+00
       21 -1    0    0  501  502 +0.0000000000e+00 -0.0000000000e+00 -1.9940174727e+01 1.9940174727e+01 0.0000000000e+00 0.0000e+00 -1.0000e+00
     1023  2    1    2    0    0 +1.7193843710e+01 -1.1143494853e+01 +7.7631117744e+00 2.6554608058e+01 1.5002518644e+01 0.0000e+00 0.0000e+00
  1000023  2    3    3    0    0 +1.0881897994e+01 -1.0265519070e+01 +9.0868516585e+00 1.8347063512e+01 5.4997527883e+00 0.0000e+00 0.0000e+00
        2  1    1    2  501    0 -1.7193843710e+01 +1.1143494853e+01 -5.9116512331e-01 2.0497688046e+01 0.0000000000e+00 0.0000e+00 -1.0000e+00
  1000022  1    4    4    0    0 +9.4204452215e+00 -9.1426851818e+00 +7.7175211254e+00 1.6027901074e+01 5.0000000000e+00 0.0000e+00 -1.0000e+00
      -13  1    4    4    0    0 +5.0298997689e-01 -2.5679892532e-01 +4.5766232945e-01 7.3455558176e-01 1.0570000000e-01 0.0000e+00 -1.0000e+00
       13  1    4    4    0    0 +9.5846279524e-01 -8.6603496295e-01 +9.1166820362e-01 1.5846068567e+00 1.0570000000e-01 0.0000e+00 1.0000e+00
  1000022  1    3    3    0    0 +6.3119457160e+00 -8.7797578285e-01 -1.3237398842e+00 8.2075445462e+00 5.0000000000e+00 0.0000e+00 -1.0000e+00
<mgrwt>
<rscale>  1 0.46502492E+02</rscale>
<asrwt>0</asrwt>
<pdfrwt beam="1">  1       21 0.30677192E-02 0.46502492E+02</pdfrwt>
<pdfrwt beam="2">  1        2 0.41710956E-02 0.46502492E+02</pdfrwt>
<totfact> 0.13093335E+07</totfact>
</mgrwt>
<rwgt>
<wgt id='1001'> +1.5538000e-12 </wgt>
<wgt id='1002'> +1.5481565e-12 </wgt>
<wgt id='1003'> +1.5489235e-12 </wgt>
<wgt id='1004'> +1.4453003e-12 </wgt>
<wgt id='1005'> +1.5538000e-12 </wgt>
<wgt id='1006'> +1.3747044e-12 </wgt>
<wgt id='1007'> +1.3681022e-12 </wgt>
<wgt id='1008'> +1.3689962e-12 </wgt>
<wgt id='1009'> +1.2536164e-12 </wgt>
<wgt id='1010'> +1.3747044e-12 </wgt>
<wgt id='1011'> +1.7889454e-12 </wgt>
<wgt id='1012'> +1.7852582e-12 </wgt>
<wgt id='1013'> +1.7857611e-12 </wgt>
<wgt id='1014'> +1.7098944e-12 </wgt>
<wgt id='1015'> +1.7889454e-12 </wgt>
<wgt id='1016'> +1.8204937e-12 </wgt>
<wgt id='1017'> +1.8192562e-12 </wgt>
<wgt id='1018'> +1.8194312e-12 </wgt>
<wgt id='1019'> +1.7857611e-12 </wgt>
<wgt id='1020'> +1.8204937e-12 </wgt>
<wgt id='1021'> +1.6106582e-12 </wgt>
<wgt id='1022'> +1.6076724e-12 </wgt>
<wgt id='1023'> +1.6080811e-12 </wgt>
<wgt id='1024'> +1.5489235e-12 </wgt>
<wgt id='1025'> +1.6106582e-12 </wgt>
<wgt id='1026'> +2.0959993e-12 </wgt>
<wgt id='1027'> +2.0978771e-12 </wgt>
<wgt id='1028'> +2.0976308e-12 </wgt>
<wgt id='1029'> +2.1126841e-12 </wgt>
<wgt id='1030'> +2.0959993e-12 </wgt>
<wgt id='1031'> +1.2623763e-12 </wgt>
<wgt id='1032'> +1.2522414e-12 </wgt>
<wgt id='1033'> +1.2536164e-12 </wgt>
<wgt id='1034'> +1.0797942e-12 </wgt>
<wgt id='1035'> +1.2623763e-12 </wgt>
<wgt id='1036'> +1.1168710e-12 </wgt>
<wgt id='1037'> +1.1066027e-12 </wgt>
<wgt id='1038'> +1.1079929e-12 </wgt>
<wgt id='1039'> +9.3658582e-13 </wgt>
<wgt id='1040'> +1.1168710e-12 </wgt>
<wgt id='1041'> +1.4534188e-12 </wgt>
<wgt id='1042'> +1.4440234e-12 </wgt>
<wgt id='1043'> +1.4453003e-12 </wgt>
<wgt id='1044'> +1.2774743e-12 </wgt>
<wgt id='1045'> +1.4534188e-12 </wgt>
<wgt id='1046'> +1.5538000e-12 </wgt>
<wgt id='1047'> +1.5762134e-12 </wgt>
<wgt id='1048'> +1.5344775e-12 </wgt>
<wgt id='1049'> +1.5400456e-12 </wgt>
<wgt id='1050'> +1.5351672e-12 </wgt>
<wgt id='1051'> +1.5686732e-12 </wgt>
<wgt id='1052'> +1.5454346e-12 </wgt>
<wgt id='1053'> +1.5412074e-12 </wgt>
<wgt id='1054'> +1.5357905e-12 </wgt>
<wgt id='1055'> +1.5213996e-12 </wgt>
<wgt id='1056'> +1.5595888e-12 </wgt>
<wgt id='1057'> +1.5870085e-12 </wgt>
<wgt id='1058'> +1.5103934e-12 </wgt>
<wgt id='1059'> +1.5590911e-12 </wgt>
<wgt id='1060'> +1.5608090e-12 </wgt>
<wgt id='1061'> +1.5527023e-12 </wgt>
<wgt id='1062'> +1.5593174e-12 </wgt>
<wgt id='1063'> +1.5763095e-12 </wgt>
<wgt id='1064'> +1.5527664e-12 </wgt>
<wgt id='1065'> +1.5456985e-12 </wgt>
<wgt id='1066'> +1.5436687e-12 </wgt>
<wgt id='1067'> +1.5025694e-12 </wgt>
<wgt id='1068'> +1.5693699e-12 </wgt>
<wgt id='1069'> +1.5548759e-12 </wgt>
<wgt id='1070'> +1.5474287e-12 </wgt>
<wgt id='1071'> +1.5118846e-12 </wgt>
<wgt id='1072'> +1.5831678e-12 </wgt>
<wgt id='1073'> +1.5802697e-12 </wgt>
<wgt id='1074'> +1.5279355e-12 </wgt>
<wgt id='1075'> +1.5507385e-12 </wgt>
<wgt id='1076'> +1.5588499e-12 </wgt>
<wgt id='1077'> +1.5626123e-12 </wgt>
<wgt id='1078'> +1.5329658e-12 </wgt>
<wgt id='1079'> +1.5369510e-12 </wgt>
<wgt id='1080'> +1.5201216e-12 </wgt>
<wgt id='1081'> +1.6032346e-12 </wgt>
<wgt id='1082'> +1.5412389e-12 </wgt>
<wgt id='1083'> +1.5792493e-12 </wgt>
<wgt id='1084'> +1.5447428e-12 </wgt>
<wgt id='1085'> +1.5398902e-12 </wgt>
<wgt id='1086'> +1.5503277e-12 </wgt>
<wgt id='1087'> +1.5625293e-12 </wgt>
<wgt id='1088'> +1.5384476e-12 </wgt>
<wgt id='1089'> +1.5739666e-12 </wgt>
<wgt id='1090'> +1.5402939e-12 </wgt>
<wgt id='1091'> +1.5544656e-12 </wgt>
<wgt id='1092'> +1.5760290e-12 </wgt>
<wgt id='1093'> +1.5458028e-12 </wgt>
<wgt id='1094'> +1.5757871e-12 </wgt>
<wgt id='1095'> +1.5683691e-12 </wgt>
<wgt id='1096'> +1.5854527e-12 </wgt>
<wgt id='1097'> +1.5318528e-12 </wgt>
<wgt id='1098'> +1.5303740e-12 </wgt>
<wgt id='1099'> +1.5568431e-12 </wgt>
<wgt id='1100'> +1.5469869e-12 </wgt>
<wgt id='1101'> +1.5722285e-12 </wgt>
<wgt id='1102'> +1.5573146e-12 </wgt>
<wgt id='1103'> +1.5827780e-12 </wgt>
<wgt id='1104'> +1.5365102e-12 </wgt>
<wgt id='1105'> +1.5649809e-12 </wgt>
<wgt id='1106'> +1.5700576e-12 </wgt>
<wgt id='1107'> +1.5577037e-12 </wgt>
<wgt id='1108'> +1.5526728e-12 </wgt>
<wgt id='1109'> +1.5964874e-12 </wgt>
<wgt id='1110'> +1.5495628e-12 </wgt>
<wgt id='1111'> +1.5569642e-12 </wgt>
<wgt id='1112'> +1.5761527e-12 </wgt>
<wgt id='1113'> +1.5572181e-12 </wgt>
<wgt id='1114'> +1.5622378e-12 </wgt>
<wgt id='1115'> +1.5254525e-12 </wgt>
<wgt id='1116'> +1.5190019e-12 </wgt>
<wgt id='1117'> +1.5488074e-12 </wgt>
<wgt id='1118'> +1.6070815e-12 </wgt>
<wgt id='1119'> +1.5205378e-12 </wgt>
<wgt id='1120'> +1.5492174e-12 </wgt>
<wgt id='1121'> +1.5554857e-12 </wgt>
<wgt id='1122'> +1.5933431e-12 </wgt>
<wgt id='1123'> +1.5246771e-12 </wgt>
<wgt id='1124'> +1.5270713e-12 </wgt>
<wgt id='1125'> +1.5412694e-12 </wgt>
<wgt id='1126'> +1.5871218e-12 </wgt>
<wgt id='1127'> +1.5377107e-12 </wgt>
<wgt id='1128'> +1.5593174e-12 </wgt>
<wgt id='1129'> +1.5533718e-12 </wgt>
<wgt id='1130'> +1.5563559e-12 </wgt>
<wgt id='1131'> +1.5632006e-12 </wgt>
<wgt id='1132'> +1.5582085e-12 </wgt>
<wgt id='1133'> +1.5595614e-12 </wgt>
<wgt id='1134'> +1.5904224e-12 </wgt>
<wgt id='1135'> +1.5245445e-12 </wgt>
<wgt id='1136'> +1.5308937e-12 </wgt>
<wgt id='1137'> +1.5262937e-12 </wgt>
<wgt id='1138'> +1.5591396e-12 </wgt>
<wgt id='1139'> +1.5633981e-12 </wgt>
<wgt id='1140'> +1.5732010e-12 </wgt>
<wgt id='1141'> +1.5343693e-12 </wgt>
<wgt id='1142'> +1.5332868e-12 </wgt>
<wgt id='1143'> +1.5773247e-12 </wgt>
<wgt id='1144'> +1.5692341e-12 </wgt>
<wgt id='1145'> +1.5682987e-12 </wgt>
<wgt id='1146'> +1.5567718e-12 </wgt>
<wgt id='1147'> +1.2227719e-12 </wgt>
<wgt id='1148'> +1.2532792e-12 </wgt>
<wgt id='1149'> +1.2802682e-12 </wgt>
<wgt id='1150'> +1.2522587e-12 </wgt>
<wgt id='1151'> +1.2853365e-12 </wgt>
<wgt id='1152'> +1.6448420e-12 </wgt>
<wgt id='1153'> +1.6355799e-12 </wgt>
<wgt id='1154'> +1.6501874e-12 </wgt>
<wgt id='1155'> +1.6445730e-12 </wgt>
<wgt id='1156'> +1.6449884e-12 </wgt>
<wgt id='1157'> +1.6472157e-12 </wgt>
<wgt id='1158'> +1.6416166e-12 </wgt>
<wgt id='1159'> +1.6468738e-12 </wgt>
<wgt id='1160'> +1.6435612e-12 </wgt>
<wgt id='1161'> +1.6406697e-12 </wgt>
<wgt id='1162'> +1.6476570e-12 </wgt>
<wgt id='1163'> +1.6487348e-12 </wgt>
<wgt id='1164'> +1.6409198e-12 </wgt>
<wgt id='1165'> +1.6328834e-12 </wgt>
<wgt id='1166'> +1.6564481e-12 </wgt>
<wgt id='1167'> +1.6543117e-12 </wgt>
<wgt id='1168'> +1.6318638e-12 </wgt>
<wgt id='1169'> +1.6471551e-12 </wgt>
<wgt id='1170'> +1.6431322e-12 </wgt>
<wgt id='1171'> +1.6414626e-12 </wgt>
<wgt id='1172'> +1.6487830e-12 </wgt>
<wgt id='1173'> +1.6352155e-12 </wgt>
<wgt id='1174'> +1.6537061e-12 </wgt>
<wgt id='1175'> +1.6460074e-12 </wgt>
<wgt id='1176'> +1.6429804e-12 </wgt>
<wgt id='1177'> +1.6470706e-12 </wgt>
<wgt id='1178'> +1.6386784e-12 </wgt>
<wgt id='1179'> +1.6525954e-12 </wgt>
<wgt id='1180'> +1.6309611e-12 </wgt>
<wgt id='1181'> +1.6376490e-12 </wgt>
<wgt id='1182'> +1.6520376e-12 </wgt>
<wgt id='1183'> +1.6462939e-12 </wgt>
<wgt id='1184'> +1.6447201e-12 </wgt>
<wgt id='1185'> +1.6383268e-12 </wgt>
<wgt id='1186'> +1.6483151e-12 </wgt>
<wgt id='1187'> +1.6436603e-12 </wgt>
<wgt id='1188'> +1.6452057e-12 </wgt>
<wgt id='1189'> +1.6392333e-12 </wgt>
<wgt id='1190'> +1.6339620e-12 </wgt>
<wgt id='1191'> +1.6402622e-12 </wgt>
<wgt id='1192'> +1.6464023e-12 </wgt>
<wgt id='1193'> +1.2583966e-12 </wgt>
<wgt id='1194'> +1.2565101e-12 </wgt>
<wgt id='1195'> +1.2599266e-12 </wgt>
<wgt id='1196'> +1.2642904e-12 </wgt>
<wgt id='1197'> +1.2518013e-12 </wgt>
<wgt id='1198'> +1.2591537e-12 </wgt>
<wgt id='1199'> +1.2571962e-12 </wgt>
<wgt id='1200'> +1.2602013e-12 </wgt>
<wgt id='1201'> +1.2571926e-12 </wgt>
<wgt id='1202'> +1.2562958e-12 </wgt>
<wgt id='1203'> +1.2613484e-12 </wgt>
<wgt id='1204'> +1.2461189e-12 </wgt>
<wgt id='1205'> +1.2659534e-12 </wgt>
<wgt id='1206'> +1.2629428e-12 </wgt>
<wgt id='1207'> +1.2522171e-12 </wgt>
<wgt id='1208'> +1.2500996e-12 </wgt>
<wgt id='1209'> +1.2613973e-12 </wgt>
<wgt id='1210'> +1.2593330e-12 </wgt>
<wgt id='1211'> +1.2487343e-12 </wgt>
<wgt id='1212'> +1.2589071e-12 </wgt>
<wgt id='1213'> +1.2578477e-12 </wgt>
<wgt id='1214'> +1.2428986e-12 </wgt>
<wgt id='1215'> +1.2835631e-12 </wgt>
<wgt id='1216'> +1.2656781e-12 </wgt>
<wgt id='1217'> +1.2532874e-12 </wgt>
<wgt id='1218'> +1.2634986e-12 </wgt>
<wgt id='1219'> +1.2556688e-12 </wgt>
<wgt id='1220'> +1.2631515e-12 </wgt>
<wgt id='1221'> +1.2573678e-12 </wgt>
<wgt id='1222'> +1.2587839e-12 </wgt>
<wgt id='1223'> +1.2578456e-12 </wgt>
<wgt id='1224'> +1.2597309e-12 </wgt>
<wgt id='1225'> +1.2578747e-12 </wgt>
<wgt id='1226'> +1.2560020e-12 </wgt>
<wgt id='1227'> +1.2600299e-12 </wgt>
<wgt id='1228'> +1.2544299e-12 </wgt>
<wgt id='1229'> +1.2598403e-12 </wgt>
<wgt id='1230'> +1.2518322e-12 </wgt>
<wgt id='1231'> +1.2553117e-12 </wgt>
<wgt id='1232'> +1.2567983e-12 </wgt>
<wgt id='1233'> +1.2588391e-12 </wgt>
<wgt id='1234'> +1.2583966e-12 </wgt>
<wgt id='1235'> +1.2491242e-12 </wgt>
<wgt id='1236'> +1.2524448e-12 </wgt>
<wgt id='1237'> +1.2555463e-12 </wgt>
<wgt id='1238'> +1.2607261e-12 </wgt>
<wgt id='1239'> +1.2628649e-12 </wgt>
<wgt id='1240'> +1.2648261e-12 </wgt>
<wgt id='1241'> +1.2588663e-12 </wgt>
<wgt id='1242'> +1.2526331e-12 </wgt>
<wgt id='1243'> +1.2651023e-12 </wgt>
<wgt id='1244'> +1.2514538e-12 </wgt>
<wgt id='1245'> +1.2643334e-12 </wgt>
<wgt id='1246'> +1.2596169e-12 </wgt>
<wgt id='1247'> +1.2582277e-12 </wgt>
<wgt id='1248'> +1.2588301e-12 </wgt>
<wgt id='1249'> +1.2589838e-12 </wgt>
<wgt id='1250'> +1.2595294e-12 </wgt>
<wgt id='1251'> +1.2584663e-12 </wgt>
<wgt id='1252'> +1.2559723e-12 </wgt>
<wgt id='1253'> +1.2611326e-12 </wgt>
<wgt id='1254'> +1.2475142e-12 </wgt>
<wgt id='1255'> +1.2656744e-12 </wgt>
<wgt id='1256'> +1.2634643e-12 </wgt>
<wgt id='1257'> +1.2472751e-12 </wgt>
<wgt id='1258'> +1.2785432e-12 </wgt>
<wgt id='1259'> +1.2399558e-12 </wgt>
<wgt id='1260'> +1.2626543e-12 </wgt>
<wgt id='1261'> +1.2545803e-12 </wgt>
<wgt id='1262'> +1.2603838e-12 </wgt>
<wgt id='1263'> +1.2580232e-12 </wgt>
<wgt id='1264'> +1.2645230e-12 </wgt>
<wgt id='1265'> +1.2560715e-12 </wgt>
<wgt id='1266'> +1.2541914e-12 </wgt>
<wgt id='1267'> +1.2634626e-12 </wgt>
<wgt id='1268'> +1.2595107e-12 </wgt>
<wgt id='1269'> +1.2618158e-12 </wgt>
<wgt id='1270'> +1.2512721e-12 </wgt>
<wgt id='1271'> +1.2510640e-12 </wgt>
<wgt id='1272'> +1.2585798e-12 </wgt>
<wgt id='1273'> +1.2582269e-12 </wgt>
<wgt id='1274'> +1.2607595e-12 </wgt>
<wgt id='1275'> +1.2545524e-12 </wgt>
<wgt id='1276'> +1.2607961e-12 </wgt>
<wgt id='1277'> +1.2553705e-12 </wgt>
<wgt id='1278'> +1.2580279e-12 </wgt>
<wgt id='1279'> +1.2573722e-12 </wgt>
<wgt id='1280'> +1.2593970e-12 </wgt>
<wgt id='1281'> +1.2566191e-12 </wgt>
<wgt id='1282'> +1.2588663e-12 </wgt>
<wgt id='1283'> +1.2494277e-12 </wgt>
<wgt id='1284'> +1.2529890e-12 </wgt>
<wgt id='1285'> +1.2562730e-12 </wgt>
<wgt id='1286'> +1.2615709e-12 </wgt>
<wgt id='1287'> +1.2636942e-12 </wgt>
<wgt id='1288'> +1.2654883e-12 </wgt>
<wgt id='1289'> +1.3047010e-12 </wgt>
<wgt id='1290'> +1.3065341e-12 </wgt>
<wgt id='1291'> +1.3026663e-12 </wgt>
<wgt id='1292'> +1.2995369e-12 </wgt>
<wgt id='1293'> +1.3083677e-12 </wgt>
<wgt id='1294'> +1.3029715e-12 </wgt>
<wgt id='1295'> +1.3063359e-12 </wgt>
<wgt id='1296'> +1.2997326e-12 </wgt>
<wgt id='1297'> +1.3107639e-12 </wgt>
<wgt id='1298'> +1.3107749e-12 </wgt>
<wgt id='1299'> +1.2970297e-12 </wgt>
<wgt id='1300'> +1.3078167e-12 </wgt>
<wgt id='1301'> +1.2984430e-12 </wgt>
<wgt id='1302'> +1.3035708e-12 </wgt>
<wgt id='1303'> +1.3062565e-12 </wgt>
<wgt id='1304'> +1.3023375e-12 </wgt>
<wgt id='1305'> +1.3062532e-12 </wgt>
<wgt id='1306'> +1.2988503e-12 </wgt>
<wgt id='1307'> +1.3114172e-12 </wgt>
<wgt id='1308'> +1.3106011e-12 </wgt>
<wgt id='1309'> +1.3001394e-12 </wgt>
<wgt id='1310'> +1.3045144e-12 </wgt>
<wgt id='1311'> +1.3050373e-12 </wgt>
<wgt id='1312'> +1.2998435e-12 </wgt>
<wgt id='1313'> +1.3097036e-12 </wgt>
<wgt id='1314'> +1.3078393e-12 </wgt>
<wgt id='1315'> +1.2957051e-12 </wgt>
<wgt id='1316'> +1.3103120e-12 </wgt>
<wgt id='1317'> +1.3051710e-12 </wgt>
<wgt id='1318'> +1.3127590e-12 </wgt>
<wgt id='1319'> +1.2948273e-12 </wgt>
<wgt id='1320'> +1.3148553e-12 </wgt>
<wgt id='1321'> +1.2960219e-12 </wgt>
<wgt id='1322'> +1.3040379e-12 </wgt>
<wgt id='1323'> +1.3052500e-12 </wgt>
<wgt id='1324'> +1.3028075e-12 </wgt>
<wgt id='1325'> +1.3134632e-12 </wgt>
<wgt id='1326'> +1.3049414e-12 </wgt>
<wgt id='1327'> +1.3063638e-12 </wgt>
<wgt id='1328'> +1.3051188e-12 </wgt>
<wgt id='1329'> +1.3041063e-12 </wgt>
<wgt id='1330'> +1.2882041e-12 </wgt>
<wgt id='1331'> +1.3152407e-12 </wgt>
<wgt id='1332'> +1.3263569e-12 </wgt>
<wgt id='1333'> +1.2908992e-12 </wgt>
<wgt id='1334'> +1.3007158e-12 </wgt>
<wgt id='1335'> +1.3146536e-12 </wgt>
<wgt id='1336'> +1.2997229e-12 </wgt>
<wgt id='1337'> +1.3041424e-12 </wgt>
<wgt id='1338'> +1.3032615e-12 </wgt>
<wgt id='1339'> +1.3048791e-12 </wgt>
<wgt id='1340'> +1.2845122e-12 </wgt>
<wgt id='1341'> +1.2866052e-12 </wgt>
<wgt id='1342'> +1.2823233e-12 </wgt>
<wgt id='1343'> +1.2792781e-12 </wgt>
<wgt id='1344'> +1.2880838e-12 </wgt>
<wgt id='1345'> +1.2827537e-12 </wgt>
<wgt id='1346'> +1.2862401e-12 </wgt>
<wgt id='1347'> +1.2796665e-12 </wgt>
<wgt id='1348'> +1.2899121e-12 </wgt>
<wgt id='1349'> +1.2900675e-12 </wgt>
<wgt id='1350'> +1.2790543e-12 </wgt>
<wgt id='1351'> +1.2876737e-12 </wgt>
<wgt id='1352'> +1.2776414e-12 </wgt>
<wgt id='1353'> +1.2829368e-12 </wgt>
<wgt id='1354'> +1.2874365e-12 </wgt>
<wgt id='1355'> +1.2823757e-12 </wgt>
<wgt id='1356'> +1.2857231e-12 </wgt>
<wgt id='1357'> +1.2801168e-12 </wgt>
<wgt id='1358'> +1.2898482e-12 </wgt>
<wgt id='1359'> +1.2920929e-12 </wgt>
<wgt id='1360'> +1.2780240e-12 </wgt>
<wgt id='1361'> +1.2840346e-12 </wgt>
<wgt id='1362'> +1.2853762e-12 </wgt>
<wgt id='1363'> +1.2779871e-12 </wgt>
<wgt id='1364'> +1.2893227e-12 </wgt>
<wgt id='1365'> +1.2756644e-12 </wgt>
<wgt id='1366'> +1.2875752e-12 </wgt>
<wgt id='1367'> +1.2897866e-12 </wgt>
<wgt id='1368'> +1.2846065e-12 </wgt>
<wgt id='1369'> +1.2914530e-12 </wgt>
<wgt id='1370'> +1.2761539e-12 </wgt>
<wgt id='1371'> +1.2919577e-12 </wgt>
<wgt id='1372'> +1.2754476e-12 </wgt>
<wgt id='1373'> +1.2822539e-12 </wgt>
<wgt id='1374'> +1.2862502e-12 </wgt>
<wgt id='1375'> +1.2824901e-12 </wgt>
<wgt id='1376'> +1.2938363e-12 </wgt>
<wgt id='1377'> +1.2849401e-12 </wgt>
<wgt id='1378'> +1.2864482e-12 </wgt>
<wgt id='1379'> +1.2847054e-12 </wgt>
<wgt id='1380'> +1.2842326e-12 </wgt>
<wgt id='1381'> +1.2677421e-12 </wgt>
<wgt id='1382'> +1.2937442e-12 </wgt>
<wgt id='1383'> +1.3059720e-12 </wgt>
<wgt id='1384'> +1.2696887e-12 </wgt>
<wgt id='1385'> +1.2806681e-12 </wgt>
<wgt id='1386'> +1.2935897e-12 </wgt>
<wgt id='1387'> +1.2779579e-12 </wgt>
<wgt id='1388'> +1.2839711e-12 </wgt>
<wgt id='1389'> +1.2811772e-12 </wgt>
<wgt id='1390'> +1.2851903e-12 </wgt>
<wgt id='1391'> +1.2544858e-12 </wgt>
<wgt id='1392'> +1.2273475e-12 </wgt>
<wgt id='1393'> +1.2361575e-12 </wgt>
<wgt id='1394'> +1.2454664e-12 </wgt>
<wgt id='1395'> +1.2631077e-12 </wgt>
<wgt id='1396'> +1.2547977e-12 </wgt>
<wgt id='1397'> +1.2170747e-12 </wgt>
<wgt id='1398'> +1.2248672e-12 </wgt>
<wgt id='1399'> +1.2320282e-12 </wgt>
<wgt id='1400'> +1.2392609e-12 </wgt>
<wgt id='1401'> +1.2469983e-12 </wgt>
<wgt id='1402'> +1.2619502e-12 </wgt>
<wgt id='1403'> +1.2693544e-12 </wgt>
<wgt id='1404'> +1.2763005e-12 </wgt>
<wgt id='1405'> +1.2547977e-12 </wgt>
<wgt id='1406'> +1.2500273e-12 </wgt>
<wgt id='1407'> +1.2526853e-12 </wgt>
<wgt id='1408'> +1.2568145e-12 </wgt>
<wgt id='1409'> +1.2587351e-12 </wgt>
<wgt id='1410'> +1.2461632e-12 </wgt>
<wgt id='1411'> +1.2472662e-12 </wgt>
<wgt id='1412'> +1.2447442e-12 </wgt>
<wgt id='1413'> +1.2509986e-12 </wgt>
<wgt id='1414'> +1.2413214e-12 </wgt>
<wgt id='1415'> +1.2398957e-12 </wgt>
<wgt id='1416'> +1.2486393e-12 </wgt>
<wgt id='1417'> +1.2379679e-12 </wgt>
<wgt id='1418'> +1.2543438e-12 </wgt>
<wgt id='1419'> +1.2483805e-12 </wgt>
<wgt id='1420'> +1.2440094e-12 </wgt>
<wgt id='1421'> +1.2326217e-12 </wgt>
<wgt id='1422'> +1.2519905e-12 </wgt>
<wgt id='1423'> +1.2458176e-12 </wgt>
<wgt id='1424'> +1.2464714e-12 </wgt>
<wgt id='1425'> +1.2420894e-12 </wgt>
<wgt id='1426'> +1.2505103e-12 </wgt>
<wgt id='1427'> +1.2434841e-12 </wgt>
<wgt id='1428'> +1.2474958e-12 </wgt>
<wgt id='1429'> +1.2396808e-12 </wgt>
<wgt id='1430'> +1.2549281e-12 </wgt>
<wgt id='1431'> +1.2500593e-12 </wgt>
<wgt id='1432'> +1.2433663e-12 </wgt>
<wgt id='1433'> +1.2495066e-12 </wgt>
<wgt id='1434'> +1.2417807e-12 </wgt>
<wgt id='1435'> +1.2493320e-12 </wgt>
<wgt id='1436'> +1.2385001e-12 </wgt>
<wgt id='1437'> +1.2520196e-12 </wgt>
<wgt id='1438'> +1.2455454e-12 </wgt>
<wgt id='1439'> +1.2405483e-12 </wgt>
<wgt id='1440'> +1.2588733e-12 </wgt>
<wgt id='1441'> +1.2491237e-12 </wgt>
<wgt id='1442'> +1.2406875e-12 </wgt>
<wgt id='1443'> +1.2440676e-12 </wgt>
<wgt id='1444'> +1.2514905e-12 </wgt>
<wgt id='1445'> +1.2558000e-12 </wgt>
<wgt id='1446'> +1.2430969e-12 </wgt>
<wgt id='1447'> +1.2466499e-12 </wgt>
<wgt id='1448'> +1.2476880e-12 </wgt>
<wgt id='1449'> +1.2470189e-12 </wgt>
<wgt id='1450'> +1.2452693e-12 </wgt>
<wgt id='1451'> +1.2530895e-12 </wgt>
<wgt id='1452'> +1.2264153e-12 </wgt>
<wgt id='1453'> +1.2476941e-12 </wgt>
<wgt id='1454'> +1.2357134e-12 </wgt>
<wgt id='1455'> +1.2358427e-12 </wgt>
<wgt id='1456'> +1.2502828e-12 </wgt>
<wgt id='1457'> +1.2505137e-12 </wgt>
<wgt id='1458'> +1.2440217e-12 </wgt>
<wgt id='1459'> +1.2504222e-12 </wgt>
<wgt id='1460'> +1.2407413e-12 </wgt>
<wgt id='1461'> +1.2461632e-12 </wgt>
<wgt id='1462'> +1.2394301e-12 </wgt>
<wgt id='1463'> +1.2554404e-12 </wgt>
<wgt id='1464'> +1.2478448e-12 </wgt>
<wgt id='1465'> +1.2177369e-12 </wgt>
<wgt id='1466'> +1.2238645e-12 </wgt>
<wgt id='1467'> +1.2305131e-12 </wgt>
<wgt id='1468'> +1.2358018e-12 </wgt>
<wgt id='1469'> +1.2419022e-12 </wgt>
<wgt id='1470'> +1.2543090e-12 </wgt>
<wgt id='1471'> +1.2594304e-12 </wgt>
<wgt id='1472'> +1.2655515e-12 </wgt>
<wgt id='1473'> +1.2478448e-12 </wgt>
<wgt id='1474'> +1.2427051e-12 </wgt>
<wgt id='1475'> +1.2447119e-12 </wgt>
<wgt id='1476'> +1.2500615e-12 </wgt>
<wgt id='1477'> +1.2521515e-12 </wgt>
<wgt id='1478'> +1.2276309e-12 </wgt>
<wgt id='1479'> +1.2251042e-12 </wgt>
<wgt id='1480'> +1.2253881e-12 </wgt>
<wgt id='1481'> +1.2240057e-12 </wgt>
<wgt id='1482'> +1.2252363e-12 </wgt>
<wgt id='1483'> +1.2129598e-12 </wgt>
<wgt id='1484'> +1.2301102e-12 </wgt>
<wgt id='1485'> +1.2245682e-12 </wgt>
<wgt id='1486'> +1.2284380e-12 </wgt>
<wgt id='1487'> +1.2287327e-12 </wgt>
<wgt id='1488'> +1.2253758e-12 </wgt>
<wgt id='1489'> +1.2455232e-12 </wgt>
<wgt id='1490'> +1.2244505e-12 </wgt>
<wgt id='1491'> +1.2274016e-12 </wgt>
<wgt id='1492'> +1.2297666e-12 </wgt>
<wgt id='1493'> +1.2123905e-12 </wgt>
<wgt id='1494'> +1.2389819e-12 </wgt>
<wgt id='1495'> +1.2224530e-12 </wgt>
<wgt id='1496'> +1.2264158e-12 </wgt>
<wgt id='1497'> +1.2261996e-12 </wgt>
<wgt id='1498'> +1.2274000e-12 </wgt>
<wgt id='1499'> +1.2286412e-12 </wgt>
<wgt id='1500'> +1.2278231e-12 </wgt>
<wgt id='1501'> +1.2274830e-12 </wgt>
<wgt id='1502'> +1.2281031e-12 </wgt>
<wgt id='1503'> +1.2276952e-12 </wgt>
<wgt id='1504'> +1.2246026e-12 </wgt>
<wgt id='1505'> +1.2276113e-12 </wgt>
<wgt id='1506'> +1.2255078e-12 </wgt>
<wgt id='1507'> +1.2263732e-12 </wgt>
<wgt id='1508'> +1.2311521e-12 </wgt>
<wgt id='1509'> +1.2812817e-12 </wgt>
<wgt id='1510'> +1.2797553e-12 </wgt>
<wgt id='1511'> +1.2852164e-12 </wgt>
<wgt id='1512'> +1.2829038e-12 </wgt>
<wgt id='1513'> +1.2851265e-12 </wgt>
<wgt id='1514'> +1.2810131e-12 </wgt>
<wgt id='1515'> +1.2790521e-12 </wgt>
<wgt id='1516'> +1.2817170e-12 </wgt>
<wgt id='1517'> +1.2840811e-12 </wgt>
<wgt id='1518'> +1.2833038e-12 </wgt>
<wgt id='1519'> +1.2754531e-12 </wgt>
<wgt id='1520'> +1.2857133e-12 </wgt>
<wgt id='1521'> +1.2879021e-12 </wgt>
<wgt id='1522'> +1.2846476e-12 </wgt>
<wgt id='1523'> +1.2860760e-12 </wgt>
<wgt id='1524'> +1.2822961e-12 </wgt>
<wgt id='1525'> +1.2838920e-12 </wgt>
<wgt id='1526'> +1.2783509e-12 </wgt>
<wgt id='1527'> +1.2789558e-12 </wgt>
<wgt id='1528'> +1.2831029e-12 </wgt>
<wgt id='1529'> +1.2809463e-12 </wgt>
<wgt id='1530'> +1.2865786e-12 </wgt>
<wgt id='1531'> +1.2826514e-12 </wgt>
<wgt id='1532'> +1.2794999e-12 </wgt>
<wgt id='1533'> +1.2804535e-12 </wgt>
<wgt id='1534'> +1.2853033e-12 </wgt>
<wgt id='1535'> +1.2747673e-12 </wgt>
<wgt id='1536'> +1.2778973e-12 </wgt>
<wgt id='1537'> +1.2794630e-12 </wgt>
<wgt id='1538'> +1.2825798e-12 </wgt>
<wgt id='1539'> +1.2860662e-12 </wgt>
<wgt id='1540'> +1.2821051e-12 </wgt>
<wgt id='1541'> +1.2820664e-12 </wgt>
<wgt id='1542'> +1.2804489e-12 </wgt>
<wgt id='1543'> +1.2794027e-12 </wgt>
<wgt id='1544'> +1.2802867e-12 </wgt>
<wgt id='1545'> +1.2825402e-12 </wgt>
<wgt id='1546'> +1.2806884e-12 </wgt>
<wgt id='1547'> +1.2819714e-12 </wgt>
<wgt id='1548'> +1.2806041e-12 </wgt>
<wgt id='1549'> +1.2797306e-12 </wgt>
<wgt id='1550'> +1.2835924e-12 </wgt>
<wgt id='1551'> +1.2821727e-12 </wgt>
<wgt id='1552'> +1.2812894e-12 </wgt>
<wgt id='1553'> +1.2834507e-12 </wgt>
<wgt id='1554'> +1.2832529e-12 </wgt>
<wgt id='1555'> +1.2826592e-12 </wgt>
<wgt id='1556'> +1.2806500e-12 </wgt>
<wgt id='1557'> +1.2815705e-12 </wgt>
<wgt id='1558'> +1.2820816e-12 </wgt>
<wgt id='1559'> +1.2817008e-12 </wgt>
<wgt id='1560'> +1.2829166e-12 </wgt>
<wgt id='1561'> +1.2809414e-12 </wgt>
<wgt id='1562'> +1.2811685e-12 </wgt>
<wgt id='1563'> +1.2816820e-12 </wgt>
<wgt id='1564'> +1.2790834e-12 </wgt>
<wgt id='1565'> +1.2813422e-12 </wgt>
<wgt id='1566'> +1.2809003e-12 </wgt>
<wgt id='1567'> +1.2802635e-12 </wgt>
<wgt id='1568'> +1.2829291e-12 </wgt>
<wgt id='1569'> +1.2817642e-12 </wgt>
<wgt id='1570'> +1.2802036e-12 </wgt>
<wgt id='1571'> +1.2813872e-12 </wgt>
<wgt id='1572'> +1.2798892e-12 </wgt>
<wgt id='1573'> +1.2799894e-12 </wgt>
<wgt id='1574'> +1.2815097e-12 </wgt>
<wgt id='1575'> +1.2817712e-12 </wgt>
<wgt id='1576'> +1.2804830e-12 </wgt>
<wgt id='1577'> +1.2802281e-12 </wgt>
<wgt id='1578'> +1.2816475e-12 </wgt>
<wgt id='1579'> +1.2812886e-12 </wgt>
<wgt id='1580'> +1.2822996e-12 </wgt>
<wgt id='1581'> +1.2808978e-12 </wgt>
<wgt id='1582'> +1.2808603e-12 </wgt>
<wgt id='1583'> +1.2808780e-12 </wgt>
<wgt id='1584'> +1.2813429e-12 </wgt>
<wgt id='1585'> +1.2810126e-12 </wgt>
<wgt id='1586'> +1.2809324e-12 </wgt>
<wgt id='1587'> +1.2812771e-12 </wgt>
<wgt id='1588'> +1.2820303e-12 </wgt>
<wgt id='1589'> +1.2810133e-12 </wgt>
<wgt id='1590'> +1.2808656e-12 </wgt>
<wgt id='1591'> +1.2811743e-12 </wgt>
<wgt id='1592'> +1.2811263e-12 </wgt>
<wgt id='1593'> +1.2817141e-12 </wgt>
<wgt id='1594'> +1.2814369e-12 </wgt>
<wgt id='1595'> +1.2813107e-12 </wgt>
<wgt id='1596'> +1.2812670e-12 </wgt>
<wgt id='1597'> +1.2813429e-12 </wgt>
<wgt id='1598'> +1.2813688e-12 </wgt>
<wgt id='1599'> +1.2818599e-12 </wgt>
<wgt id='1600'> +1.2808223e-12 </wgt>
<wgt id='1601'> +1.2813973e-12 </wgt>
<wgt id='1602'> +1.2813965e-12 </wgt>
<wgt id='1603'> +1.2814833e-12 </wgt>
<wgt id='1604'> +1.2812579e-12 </wgt>
<wgt id='1605'> +1.2813568e-12 </wgt>
<wgt id='1606'> +1.2809224e-12 </wgt>
<wgt id='1607'> +1.2811084e-12 </wgt>
<wgt id='1608'> +1.2808526e-12 </wgt>
<wgt id='1609'> +1.2814992e-12 </wgt>
<wgt id='1610'> +1.2699860e-12 </wgt>
<wgt id='1611'> +1.2919699e-12 </wgt>
<wgt id='1612'> +1.5008286e-12 </wgt>
<wgt id='1613'> +1.4832956e-12 </wgt>
<wgt id='1614'> +1.5145628e-12 </wgt>
<wgt id='1615'> +1.4954417e-12 </wgt>
<wgt id='1616'> +1.5379350e-12 </wgt>
<wgt id='1617'> +1.5271140e-12 </wgt>
<wgt id='1618'> +1.5084492e-12 </wgt>
<wgt id='1619'> +1.4923930e-12 </wgt>
<wgt id='1620'> +1.4571230e-12 </wgt>
<wgt id='1621'> +1.5130147e-12 </wgt>
<wgt id='1622'> +1.5073626e-12 </wgt>
<wgt id='1623'> +1.4996714e-12 </wgt>
<wgt id='1624'> +1.4716992e-12 </wgt>
<wgt id='1625'> +1.4848641e-12 </wgt>
<wgt id='1626'> +1.4870234e-12 </wgt>
<wgt id='1627'> +1.4972722e-12 </wgt>
<wgt id='1628'> +1.5173130e-12 </wgt>
<wgt id='1629'> +1.5381351e-12 </wgt>
<wgt id='1630'> +1.5004972e-12 </wgt>
<wgt id='1631'> +1.4864994e-12 </wgt>
<wgt id='1632'> +1.4522047e-12 </wgt>
<wgt id='1633'> +1.4700376e-12 </wgt>
<wgt id='1634'> +1.5705376e-12 </wgt>
<wgt id='1635'> +1.4997973e-12 </wgt>
<wgt id='1636'> +1.5376254e-12 </wgt>
<wgt id='1637'> +1.4753974e-12 </wgt>
<wgt id='1638'> +1.5240876e-12 </wgt>
<wgt id='1639'> +1.4927839e-12 </wgt>
<wgt id='1640'> +1.5254947e-12 </wgt>
<wgt id='1641'> +1.4761649e-12 </wgt>
<wgt id='1642'> +1.5097761e-12 </wgt>
<wgt id='1643'> +1.5443994e-12 </wgt>
<wgt id='1644'> +1.4567484e-12 </wgt>
<wgt id='1645'> +1.5146420e-12 </wgt>
<wgt id='1646'> +1.4901967e-12 </wgt>
<wgt id='1647'> +1.4899576e-12 </wgt>
<wgt id='1648'> +1.5150873e-12 </wgt>
<wgt id='1649'> +1.5163173e-12 </wgt>
<wgt id='1650'> +1.4904574e-12 </wgt>
<wgt id='1651'> +1.4584951e-12 </wgt>
<wgt id='1652'> +1.4883939e-12 </wgt>
<wgt id='1653'> +1.5382389e-12 </wgt>
<wgt id='1654'> +1.5059623e-12 </wgt>
<wgt id='1655'> +1.4724795e-12 </wgt>
<wgt id='1656'> +1.4671266e-12 </wgt>
<wgt id='1657'> +1.4889590e-12 </wgt>
<wgt id='1658'> +1.4647705e-12 </wgt>
<wgt id='1659'> +1.4716992e-12 </wgt>
<wgt id='1660'> +1.5013410e-12 </wgt>
<wgt id='1661'> +1.5019502e-12 </wgt>
<wgt id='1662'> +1.4958876e-12 </wgt>
<wgt id='1663'> +1.4898063e-12 </wgt>
<wgt id='1664'> +1.5011526e-12 </wgt>
<wgt id='1665'> +1.4825910e-12 </wgt>
<wgt id='1666'> +1.5113555e-12 </wgt>
<wgt id='1667'> +1.4800684e-12 </wgt>
<wgt id='1668'> +1.5318175e-12 </wgt>
<wgt id='1669'> +1.4790198e-12 </wgt>
<wgt id='1670'> +1.5137868e-12 </wgt>
<wgt id='1671'> +1.4808993e-12 </wgt>
<wgt id='1672'> +1.5179505e-12 </wgt>
<wgt id='1673'> +1.4669218e-12 </wgt>
<wgt id='1674'> +1.4768004e-12 </wgt>
<wgt id='1675'> +1.5408548e-12 </wgt>
<wgt id='1676'> +1.5347069e-12 </wgt>
<wgt id='1677'> +1.5696319e-12 </wgt>
<wgt id='1678'> +1.4996827e-12 </wgt>
<wgt id='1679'> +1.5177621e-12 </wgt>
<wgt id='1680'> +1.5125362e-12 </wgt>
<wgt id='1681'> +1.5167178e-12 </wgt>
<wgt id='1682'> +1.4967469e-12 </wgt>
<wgt id='1683'> +1.4639320e-12 </wgt>
<wgt id='1684'> +1.4811185e-12 </wgt>
<wgt id='1685'> +1.4917873e-12 </wgt>
<wgt id='1686'> +1.5092271e-12 </wgt>
<wgt id='1687'> +1.5365585e-12 </wgt>
<wgt id='1688'> +1.5177919e-12 </wgt>
<wgt id='1689'> +1.4723131e-12 </wgt>
<wgt id='1690'> +1.5383111e-12 </wgt>
<wgt id='1691'> +1.5431472e-12 </wgt>
<wgt id='1692'> +1.5176724e-12 </wgt>
<wgt id='1693'> +1.5352039e-12 </wgt>
<wgt id='1694'> +1.4694569e-12 </wgt>
<wgt id='1695'> +1.5218548e-12 </wgt>
<wgt id='1696'> +1.5420439e-12 </wgt>
<wgt id='1697'> +1.4844491e-12 </wgt>
<wgt id='1698'> +1.4891911e-12 </wgt>
<wgt id='1699'> +1.5103651e-12 </wgt>
<wgt id='1700'> +1.4949222e-12 </wgt>
<wgt id='1701'> +1.4748209e-12 </wgt>
<wgt id='1702'> +1.4924305e-12 </wgt>
<wgt id='1703'> +1.5336052e-12 </wgt>
<wgt id='1704'> +1.4842786e-12 </wgt>
<wgt id='1705'> +1.4730780e-12 </wgt>
<wgt id='1706'> +1.5059923e-12 </wgt>
<wgt id='1707'> +1.4733007e-12 </wgt>
<wgt id='1708'> +1.4664290e-12 </wgt>
<wgt id='1709'> +1.4947094e-12 </wgt>
<wgt id='1710'> +1.4689182e-12 </wgt>
<wgt id='1711'> +1.5458197e-12 </wgt>
<wgt id='1712'> +1.5045317e-12 </wgt>
<wgt id='1713'> +1.2001011e-12 </wgt>
<wgt id='1714'> +1.1649595e-12 </wgt>
<wgt id='1715'> +1.2175591e-12 </wgt>
<wgt id='1716'> +1.2361731e-12 </wgt>
<wgt id='1717'> +1.1927803e-12 </wgt>
<wgt id='1718'> +1.2087560e-12 </wgt>
<wgt id='1719'> +1.2065982e-12 </wgt>
<wgt id='1720'> +1.2211560e-12 </wgt>
<wgt id='1721'> +1.1765551e-12 </wgt>
<wgt id='1722'> +1.1879837e-12 </wgt>
<wgt id='1723'> +1.1609552e-12 </wgt>
<wgt id='1724'> +1.1787196e-12 </wgt>
<wgt id='1725'> +1.2099948e-12 </wgt>
<wgt id='1726'> +1.2572745e-12 </wgt>
<wgt id='1727'> +1.1826392e-12 </wgt>
<wgt id='1728'> +1.2088369e-12 </wgt>
<wgt id='1729'> +1.1988543e-12 </wgt>
<wgt id='1730'> +1.1783437e-12 </wgt>
<wgt id='1731'> +1.1596202e-12 </wgt>
<wgt id='1732'> +1.2117878e-12 </wgt>
<wgt id='1733'> +1.2168749e-12 </wgt>
<wgt id='1734'> +1.2160264e-12 </wgt>
<wgt id='1735'> +1.1809664e-12 </wgt>
<wgt id='1736'> +1.2631875e-12 </wgt>
<wgt id='1737'> +1.2269653e-12 </wgt>
<wgt id='1738'> +1.2226840e-12 </wgt>
<wgt id='1739'> +1.1599965e-12 </wgt>
<wgt id='1740'> +1.1922608e-12 </wgt>
<wgt id='1741'> +1.2101558e-12 </wgt>
<wgt id='1742'> +1.2059667e-12 </wgt>
<wgt id='1743'> +1.2266342e-12 </wgt>
<wgt id='1744'> +1.2379822e-12 </wgt>
<wgt id='1745'> +1.1309803e-12 </wgt>
<wgt id='1746'> +1.2156460e-12 </wgt>
<wgt id='1747'> +1.2089088e-12 </wgt>
<wgt id='1748'> +1.2123862e-12 </wgt>
<wgt id='1749'> +1.2114665e-12 </wgt>
<wgt id='1750'> +1.2208129e-12 </wgt>
<wgt id='1751'> +1.1640876e-12 </wgt>
<wgt id='1752'> +1.1822899e-12 </wgt>
<wgt id='1753'> +1.2181750e-12 </wgt>
<wgt id='1754'> +1.2003549e-12 </wgt>
<wgt id='1755'> +1.2289502e-12 </wgt>
<wgt id='1756'> +1.2168469e-12 </wgt>
<wgt id='1757'> +1.1879760e-12 </wgt>
<wgt id='1758'> +1.2146482e-12 </wgt>
<wgt id='1759'> +1.2149500e-12 </wgt>
<wgt id='1760'> +1.1630018e-12 </wgt>
<wgt id='1761'> +1.1761105e-12 </wgt>
<wgt id='1762'> +1.2008965e-12 </wgt>
<wgt id='1763'> +1.2206580e-12 </wgt>
<wgt id='1764'> +1.1940394e-12 </wgt>
<wgt id='1765'> +1.2033716e-12 </wgt>
<wgt id='1766'> +1.1981595e-12 </wgt>
<wgt id='1767'> +1.2049606e-12 </wgt>
<wgt id='1768'> +1.1973342e-12 </wgt>
<wgt id='1769'> +1.1736478e-12 </wgt>
<wgt id='1770'> +1.2240781e-12 </wgt>
<wgt id='1771'> +1.2040775e-12 </wgt>
<wgt id='1772'> +1.2405946e-12 </wgt>
<wgt id='1773'> +1.1925241e-12 </wgt>
<wgt id='1774'> +1.1958550e-12 </wgt>
<wgt id='1775'> +1.2112674e-12 </wgt>
<wgt id='1776'> +1.2226584e-12 </wgt>
<wgt id='1777'> +1.1442747e-12 </wgt>
<wgt id='1778'> +1.1826609e-12 </wgt>
<wgt id='1779'> +1.2256514e-12 </wgt>
<wgt id='1780'> +1.1922407e-12 </wgt>
<wgt id='1781'> +1.1957346e-12 </wgt>
<wgt id='1782'> +1.1763993e-12 </wgt>
<wgt id='1783'> +1.1993417e-12 </wgt>
<wgt id='1784'> +1.2034034e-12 </wgt>
<wgt id='1785'> +1.1784917e-12 </wgt>
<wgt id='1786'> +1.1147952e-12 </wgt>
<wgt id='1787'> +1.2348412e-12 </wgt>
<wgt id='1788'> +1.2074019e-12 </wgt>
<wgt id='1789'> +1.1497004e-12 </wgt>
<wgt id='1790'> +1.2139053e-12 </wgt>
<wgt id='1791'> +1.2179479e-12 </wgt>
<wgt id='1792'> +1.1680163e-12 </wgt>
<wgt id='1793'> +1.2055608e-12 </wgt>
<wgt id='1794'> +1.2057993e-12 </wgt>
<wgt id='1795'> +1.2105724e-12 </wgt>
<wgt id='1796'> +1.1875349e-12 </wgt>
<wgt id='1797'> +1.2030691e-12 </wgt>
<wgt id='1798'> +1.1961721e-12 </wgt>
<wgt id='1799'> +1.2012883e-12 </wgt>
<wgt id='1800'> +1.1943755e-12 </wgt>
<wgt id='1801'> +1.1944894e-12 </wgt>
<wgt id='1802'> +1.1869957e-12 </wgt>
<wgt id='1803'> +1.2173591e-12 </wgt>
<wgt id='1804'> +1.1814783e-12 </wgt>
<wgt id='1805'> +1.2002274e-12 </wgt>
<wgt id='1806'> +1.1903559e-12 </wgt>
<wgt id='1807'> +1.2153339e-12 </wgt>
<wgt id='1808'> +1.2035927e-12 </wgt>
<wgt id='1809'> +1.1812559e-12 </wgt>
<wgt id='1810'> +1.1949909e-12 </wgt>
<wgt id='1811'> +1.2354593e-12 </wgt>
<wgt id='1812'> +1.2143278e-12 </wgt>
<wgt id='1813'> +1.2182176e-12 </wgt>
<wgt id='1814'> +1.3566393e-12 </wgt>
<wgt id='1815'> +1.5375241e-12 </wgt>
<wgt id='1816'> +1.2001011e-12 </wgt>
<wgt id='1817'> +1.1649595e-12 </wgt>
<wgt id='1818'> +1.2175591e-12 </wgt>
<wgt id='1819'> +1.2361731e-12 </wgt>
<wgt id='1820'> +1.1927803e-12 </wgt>
<wgt id='1821'> +1.2087560e-12 </wgt>
<wgt id='1822'> +1.2065982e-12 </wgt>
<wgt id='1823'> +1.2211560e-12 </wgt>
<wgt id='1824'> +1.1765551e-12 </wgt>
<wgt id='1825'> +1.1879837e-12 </wgt>
<wgt id='1826'> +1.1609552e-12 </wgt>
<wgt id='1827'> +1.1787196e-12 </wgt>
<wgt id='1828'> +1.2099948e-12 </wgt>
<wgt id='1829'> +1.2572745e-12 </wgt>
<wgt id='1830'> +1.1826392e-12 </wgt>
<wgt id='1831'> +1.2088369e-12 </wgt>
<wgt id='1832'> +1.1988543e-12 </wgt>
<wgt id='1833'> +1.1783437e-12 </wgt>
<wgt id='1834'> +1.1596202e-12 </wgt>
<wgt id='1835'> +1.2117878e-12 </wgt>
<wgt id='1836'> +1.2168749e-12 </wgt>
<wgt id='1837'> +1.2160264e-12 </wgt>
<wgt id='1838'> +1.1809664e-12 </wgt>
<wgt id='1839'> +1.2631875e-12 </wgt>
<wgt id='1840'> +1.2269653e-12 </wgt>
<wgt id='1841'> +1.2226840e-12 </wgt>
<wgt id='1842'> +1.1599965e-12 </wgt>
<wgt id='1843'> +1.1922608e-12 </wgt>
<wgt id='1844'> +1.2101558e-12 </wgt>
<wgt id='1845'> +1.2059667e-12 </wgt>
<wgt id='1846'> +1.2266342e-12 </wgt>
<wgt id='1847'> +1.2379822e-12 </wgt>
<wgt id='1848'> +1.1309803e-12 </wgt>
<wgt id='1849'> +1.2156460e-12 </wgt>
<wgt id='1850'> +1.2089088e-12 </wgt>
<wgt id='1851'> +1.2123862e-12 </wgt>
<wgt id='1852'> +1.2114665e-12 </wgt>
<wgt id='1853'> +1.2208129e-12 </wgt>
<wgt id='1854'> +1.1640876e-12 </wgt>
<wgt id='1855'> +1.1822899e-12 </wgt>
<wgt id='1856'> +1.2181750e-12 </wgt>
<wgt id='1857'> +1.2003549e-12 </wgt>
<wgt id='1858'> +1.2289502e-12 </wgt>
<wgt id='1859'> +1.2168469e-12 </wgt>
<wgt id='1860'> +1.1879760e-12 </wgt>
<wgt id='1861'> +1.2146482e-12 </wgt>
<wgt id='1862'> +1.2149500e-12 </wgt>
<wgt id='1863'> +1.1630018e-12 </wgt>
<wgt id='1864'> +1.1761105e-12 </wgt>
<wgt id='1865'> +1.2008965e-12 </wgt>
<wgt id='1866'> +1.2206580e-12 </wgt>
<wgt id='1867'> +1.1940394e-12 </wgt>
<wgt id='1868'> +1.2033716e-12 </wgt>
<wgt id='1869'> +1.1981595e-12 </wgt>
<wgt id='1870'> +1.2049606e-12 </wgt>
<wgt id='1871'> +1.1973342e-12 </wgt>
<wgt id='1872'> +1.1736478e-12 </wgt>
<wgt id='1873'> +1.2240781e-12 </wgt>
<wgt id='1874'> +1.2040775e-12 </wgt>
<wgt id='1875'> +1.2405946e-12 </wgt>
<wgt id='1876'> +1.1925241e-12 </wgt>
<wgt id='1877'> +1.1958550e-12 </wgt>
<wgt id='1878'> +1.2112674e-12 </wgt>
<wgt id='1879'> +1.2226584e-12 </wgt>
<wgt id='1880'> +1.1442747e-12 </wgt>
<wgt id='1881'> +1.1826609e-12 </wgt>
<wgt id='1882'> +1.2256514e-12 </wgt>
<wgt id='1883'> +1.1922407e-12 </wgt>
<wgt id='1884'> +1.1957346e-12 </wgt>
<wgt id='1885'> +1.1763993e-12 </wgt>
<wgt id='1886'> +1.1993417e-12 </wgt>
<wgt id='1887'> +1.2034034e-12 </wgt>
<wgt id='1888'> +1.1784917e-12 </wgt>
<wgt id='1889'> +1.1147952e-12 </wgt>
<wgt id='1890'> +1.2348412e-12 </wgt>
<wgt id='1891'> +1.2074019e-12 </wgt>
<wgt id='1892'> +1.1497004e-12 </wgt>
<wgt id='1893'> +1.2139053e-12 </wgt>
<wgt id='1894'> +1.2179479e-12 </wgt>
<wgt id='1895'> +1.1680163e-12 </wgt>
<wgt id='1896'> +1.2055608e-12 </wgt>
<wgt id='1897'> +1.2057993e-12 </wgt>
<wgt id='1898'> +1.2105724e-12 </wgt>
<wgt id='1899'> +1.1875349e-12 </wgt>
<wgt id='1900'> +1.2030691e-12 </wgt>
<wgt id='1901'> +1.1961721e-12 </wgt>
<wgt id='1902'> +1.2012883e-12 </wgt>
<wgt id='1903'> +1.1943755e-12 </wgt>
<wgt id='1904'> +1.1944894e-12 </wgt>
<wgt id='1905'> +1.1869957e-12 </wgt>
<wgt id='1906'> +1.2173591e-12 </wgt>
<wgt id='1907'> +1.1814783e-12 </wgt>
<wgt id='1908'> +1.2002274e-12 </wgt>
<wgt id='1909'> +1.1903559e-12 </wgt>
<wgt id='1910'> +1.2153339e-12 </wgt>
<wgt id='1911'> +1.2035927e-12 </wgt>
<wgt id='1912'> +1.1812559e-12 </wgt>
<wgt id='1913'> +1.1949909e-12 </wgt>
<wgt id='1914'> +1.2354593e-12 </wgt>
<wgt id='1915'> +1.2143278e-12 </wgt>
<wgt id='1916'> +1.2182176e-12 </wgt>
<wgt id='1917'> +1.1913852e-12 </wgt>
<wgt id='1918'> +1.2052441e-12 </wgt>
<wgt id='1919'> +1.2360386e-12 </wgt>
</rwgt>
</event>
<event>
 9      1 +1.5538000e-12 1.10019600e+02 7.81860800e-03 1.14435000e-01
       21 -1    0    0  501  502 +0.0000000000e+00 +0.0000000000e+00 +3.3961986638e+00 3.3961986638e+00 0.0000000000e+00 0.0000e+00 -1.0000e+00
        2 -1    0    0  502    0 -0.0000000000e+00 -0.0000000000e+00 -8.9101870289e+02 8.9101870289e+02 0.0000000000e+00 0.0000e+00 -1.0000e+00
     1023  2    1    2    0    0 -5.1624528001e+01 -8.2510668294e+00 -5.6156932939e+02 5.6419702679e+02 1.5000044259e+01 0.0000e+00 0.0000e+00
  1000023  2    3    3    0    0 -3.4017090383e+01 -5.9634529250e+00 -4.1515866997e+02 4.1662895358e+02 5.4989548353e+00 0.0000e+00 0.0000e+00
        2  1    1    2  501    0 +5.1624528001e+01 +8.2510668294e+00 -3.2605317483e+02 3.3021787476e+02 0.0000000000e+00 0.0000e+00 -1.0000e+00
  1000022  1    4    4    0    0 -3.0334358279e+01 -4.9862654450e+00 -3.6687166040e+02 3.6819132437e+02 5.0000000000e+00 0.0000e+00 -1.0000e+00
      -13  1    4    4    0    0 -1.2923342720e+00 -3.5746598338e-01 -1.7242431688e+01 1.7294812309e+01 1.0570000000e-01 0.0000e+00 -1.0000e+00
       13  1    4    4    0    0 -2.3903978318e+00 -6.1972149655e-01 -3.1044577876e+01 3.1142816901e+01 1.0570000000e-01 0.0000e+00 1.0000e+00
  1000022  1    3    3    0    0 -1.7607437618e+01 -2.2876139044e+00 -1.4641065943e+02 1.4756807321e+02 5.0000000000e+00 0.0000e+00 -1.0000e+00
<mgrwt>
<rscale>  1 0.11001957E+03</rscale>
<asrwt>0</asrwt>
<pdfrwt beam="1">  1       21 0.52249233E-03 0.11001957E+03</pdfrwt>
<pdfrwt beam="2">  1        2 0.13707974E+00 0.11001957E+03</pdfrwt>
<totfact> 0.35963092E+06</totfact>
</mgrwt>
<rwgt>
<wgt id='1001'> +1.5538000e-12 </wgt>
<wgt id='1002'> +1.5556090e-12 </wgt>
<wgt id='1003'> +1.5552468e-12 </wgt>
<wgt id='1004'> +1.5667583e-12 </wgt>
<wgt id='1005'> +1.5538000e-12 </wgt>
<wgt id='1006'> +1.3983192e-12 </wgt>
<wgt id='1007'> +1.3987357e-12 </wgt>
<wgt id='1008'> +1.3986593e-12 </wgt>
<wgt id='1009'> +1.3901705e-12 </wgt>
<wgt id='1010'> +1.3983192e-12 </wgt>
<wgt id='1011'> +1.7496428e-12 </wgt>
<wgt id='1012'> +1.7536105e-12 </wgt>
<wgt id='1013'> +1.7528035e-12 </wgt>
<wgt id='1014'> +1.7969816e-12 </wgt>
<wgt id='1015'> +1.7496428e-12 </wgt>
<wgt id='1016'> +1.6888886e-12 </wgt>
<wgt id='1017'> +1.6936328e-12 </wgt>
<wgt id='1018'> +1.6926645e-12 </wgt>
<wgt id='1019'> +1.7528035e-12 </wgt>
<wgt id='1020'> +1.6888886e-12 </wgt>
<wgt id='1021'> +1.5198902e-12 </wgt>
<wgt id='1022'> +1.5228407e-12 </wgt>
<wgt id='1023'> +1.5222412e-12 </wgt>
<wgt id='1024'> +1.5552468e-12 </wgt>
<wgt id='1025'> +1.5198902e-12 </wgt>
<wgt id='1026'> +1.9017581e-12 </wgt>
<wgt id='1027'> +1.9092022e-12 </wgt>
<wgt id='1028'> +1.9076768e-12 </wgt>
<wgt id='1029'> +2.0103649e-12 </wgt>
<wgt id='1030'> +1.9017581e-12 </wgt>
<wgt id='1031'> +1.3915605e-12 </wgt>
<wgt id='1032'> +1.3897910e-12 </wgt>
<wgt id='1033'> +1.3901705e-12 </wgt>
<wgt id='1034'> +1.3426706e-12 </wgt>
<wgt id='1035'> +1.3915605e-12 </wgt>
<wgt id='1036'> +1.2523142e-12 </wgt>
<wgt id='1037'> +1.2496394e-12 </wgt>
<wgt id='1038'> +1.2502034e-12 </wgt>
<wgt id='1039'> +1.1913396e-12 </wgt>
<wgt id='1040'> +1.2523142e-12 </wgt>
<wgt id='1041'> +1.5669545e-12 </wgt>
<wgt id='1042'> +1.5666867e-12 </wgt>
<wgt id='1043'> +1.5667583e-12 </wgt>
<wgt id='1044'> +1.5399660e-12 </wgt>
<wgt id='1045'> +1.5669545e-12 </wgt>
<wgt id='1046'> +1.5538000e-12 </wgt>
<wgt id='1047'> +1.5524828e-12 </wgt>
<wgt id='1048'> +1.5941347e-12 </wgt>
<wgt id='1049'> +1.5329720e-12 </wgt>
<wgt id='1050'> +1.5201591e-12 </wgt>
<wgt id='1051'> +1.5264889e-12 </wgt>
<wgt id='1052'> +1.5190373e-12 </wgt>
<wgt id='1053'> +1.5956700e-12 </wgt>
<wgt id='1054'> +1.5843907e-12 </wgt>
<wgt id='1055'> +1.5468973e-12 </wgt>
<wgt id='1056'> +1.4723130e-12 </wgt>
<wgt id='1057'> +1.5477320e-12 </wgt>
<wgt id='1058'> +1.5302638e-12 </wgt>
<wgt id='1059'> +1.5567543e-12 </wgt>
<wgt id='1060'> +1.5831111e-12 </wgt>
<wgt id='1061'> +1.5719642e-12 </wgt>
<wgt id='1062'> +1.5447579e-12 </wgt>
<wgt id='1063'> +1.5268735e-12 </wgt>
<wgt id='1064'> +1.5615359e-12 </wgt>
<wgt id='1065'> +1.5799959e-12 </wgt>
<wgt id='1066'> +1.5506618e-12 </wgt>
<wgt id='1067'> +1.5623958e-12 </wgt>
<wgt id='1068'> +1.5927337e-12 </wgt>
<wgt id='1069'> +1.5930866e-12 </wgt>
<wgt id='1070'> +1.5444879e-12 </wgt>
<wgt id='1071'> +1.5823464e-12 </wgt>
<wgt id='1072'> +1.5942861e-12 </wgt>
<wgt id='1073'> +1.5065362e-12 </wgt>
<wgt id='1074'> +1.5620044e-12 </wgt>
<wgt id='1075'> +1.5316243e-12 </wgt>
<wgt id='1076'> +1.5504397e-12 </wgt>
<wgt id='1077'> +1.5531642e-12 </wgt>
<wgt id='1078'> +1.5474997e-12 </wgt>
<wgt id='1079'> +1.5575596e-12 </wgt>
<wgt id='1080'> +1.5286269e-12 </wgt>
<wgt id='1081'> +1.5214497e-12 </wgt>
<wgt id='1082'> +1.5691651e-12 </wgt>
<wgt id='1083'> +1.5620276e-12 </wgt>
<wgt id='1084'> +1.5349283e-12 </wgt>
<wgt id='1085'> +1.5584696e-12 </wgt>
<wgt id='1086'> +1.5789092e-12 </wgt>
<wgt id='1087'> +1.5494582e-12 </wgt>
<wgt id='1088'> +1.5594276e-12 </wgt>
<wgt id='1089'> +1.5246898e-12 </wgt>
<wgt id='1090'> +1.5287537e-12 </wgt>
<wgt id='1091'> +1.5770700e-12 </wgt>
<wgt id='1092'> +1.5514036e-12 </wgt>
<wgt id='1093'> +1.5626831e-12 </wgt>
<wgt id='1094'> +1.5938456e-12 </wgt>
<wgt id='1095'> +1.5739149e-12 </wgt>
<wgt id='1096'> +1.5240247e-12 </wgt>
<wgt id='1097'> +1.5474015e-12 </wgt>
<wgt id='1098'> +1.5794494e-12 </wgt>
<wgt id='1099'> +1.5507288e-12 </wgt>
<wgt id='1100'> +1.5662614e-12 </wgt>
<wgt id='1101'> +1.5816854e-12 </wgt>
<wgt id='1102'> +1.5459127e-12 </wgt>
<wgt id='1103'> +1.5741745e-12 </wgt>
<wgt id='1104'> +1.5829913e-12 </wgt>
<wgt id='1105'> +1.5440512e-12 </wgt>
<wgt id='1106'> +1.5798117e-12 </wgt>
<wgt id='1107'> +1.5511784e-12 </wgt>
<wgt id='1108'> +1.5514506e-12 </wgt>
<wgt id='1109'> +1.5332407e-12 </wgt>
<wgt id='1110'> +1.5771779e-12 </wgt>
<wgt id='1111'> +1.5601965e-12 </wgt>
<wgt id='1112'> +1.5755253e-12 </wgt>
<wgt id='1113'> +1.5757609e-12 </wgt>
<wgt id='1114'> +1.5615586e-12 </wgt>
<wgt id='1115'> +1.5677359e-12 </wgt>
<wgt id='1116'> +1.5627580e-12 </wgt>
<wgt id='1117'> +1.5480694e-12 </wgt>
<wgt id='1118'> +1.5504301e-12 </wgt>
<wgt id='1119'> +1.5420025e-12 </wgt>
<wgt id='1120'> +1.5437051e-12 </wgt>
<wgt id='1121'> +1.5347442e-12 </wgt>
<wgt id='1122'> +1.5440736e-12 </wgt>
<wgt id='1123'> +1.5455907e-12 </wgt>
<wgt id='1124'> +1.5796940e-12 </wgt>
<wgt id='1125'> +1.5392713e-12 </wgt>
<wgt id='1126'> +1.5178662e-12 </wgt>
<wgt id='1127'> +1.5577153e-12 </wgt>
<wgt id='1128'> +1.5447579e-12 </wgt>
<wgt id='1129'> +1.5086868e-12 </wgt>
<wgt id='1130'> +1.5540642e-12 </wgt>
<wgt id='1131'> +1.5722305e-12 </wgt>
<wgt id='1132'> +1.5523600e-12 </wgt>
<wgt id='1133'> +1.5578134e-12 </wgt>
<wgt id='1134'> +1.5062102e-12 </wgt>
<wgt id='1135'> +1.4900445e-12 </wgt>
<wgt id='1136'> +1.5413802e-12 </wgt>
<wgt id='1137'> +1.5606782e-12 </wgt>
<wgt id='1138'> +1.5453983e-12 </wgt>
<wgt id='1139'> +1.5519034e-12 </wgt>
<wgt id='1140'> +1.5495148e-12 </wgt>
<wgt id='1141'> +1.5527599e-12 </wgt>
<wgt id='1142'> +1.5739876e-12 </wgt>
<wgt id='1143'> +1.5346996e-12 </wgt>
<wgt id='1144'> +1.5553552e-12 </wgt>
<wgt id='1145'> +1.6030027e-12 </wgt>
<wgt id='1146'> +1.5773333e-12 </wgt>
<wgt id='1147'> +1.4152789e-12 </wgt>
<wgt id='1148'> +1.4326980e-12 </wgt>
<wgt id='1149'> +1.3890819e-12 </wgt>
<wgt id='1150'> +1.4244008e-12 </wgt>
<wgt id='1151'> +1.5368069e-12 </wgt>
<wgt id='1152'> +1.9775535e-12 </wgt>
<wgt id='1153'> +1.9829954e-12 </wgt>
<wgt id='1154'> +1.9743378e-12 </wgt>
<wgt id='1155'> +1.9731333e-12 </wgt>
<wgt id='1156'> +1.9798244e-12 </wgt>
<wgt id='1157'> +1.9810868e-12 </wgt>
<wgt id='1158'> +1.9727971e-12 </wgt>
<wgt id='1159'> +1.9803698e-12 </wgt>
<wgt id='1160'> +1.9757670e-12 </wgt>
<wgt id='1161'> +1.9737761e-12 </wgt>
<wgt id='1162'> +1.9801383e-12 </wgt>
<wgt id='1163'> +1.9770638e-12 </wgt>
<wgt id='1164'> +1.9780510e-12 </wgt>
<wgt id='1165'> +1.9845722e-12 </wgt>
<wgt id='1166'> +1.9704519e-12 </wgt>
<wgt id='1167'> +1.9964078e-12 </wgt>
<wgt id='1168'> +1.9538410e-12 </wgt>
<wgt id='1169'> +1.9839976e-12 </wgt>
<wgt id='1170'> +1.9727061e-12 </wgt>
<wgt id='1171'> +1.9720944e-12 </wgt>
<wgt id='1172'> +1.9845562e-12 </wgt>
<wgt id='1173'> +1.9570197e-12 </wgt>
<wgt id='1174'> +1.9990412e-12 </wgt>
<wgt id='1175'> +1.9761258e-12 </wgt>
<wgt id='1176'> +1.9783003e-12 </wgt>
<wgt id='1177'> +1.9741968e-12 </wgt>
<wgt id='1178'> +1.9856101e-12 </wgt>
<wgt id='1179'> +1.9796118e-12 </wgt>
<wgt id='1180'> +1.9707892e-12 </wgt>
<wgt id='1181'> +1.9778482e-12 </wgt>
<wgt id='1182'> +1.9758440e-12 </wgt>
<wgt id='1183'> +1.9776921e-12 </wgt>
<wgt id='1184'> +1.9775214e-12 </wgt>
<wgt id='1185'> +1.9735717e-12 </wgt>
<wgt id='1186'> +1.9791054e-12 </wgt>
<wgt id='1187'> +1.9809195e-12 </wgt>
<wgt id='1188'> +1.9763656e-12 </wgt>
<wgt id='1189'> +1.9735681e-12 </wgt>
<wgt id='1190'> +1.9642343e-12 </wgt>
<wgt id='1191'> +1.9785343e-12 </wgt>
<wgt id='1192'> +1.9782520e-12 </wgt>
<wgt id='1193'> +1.4189242e-12 </wgt>
<wgt id='1194'> +1.4125470e-12 </wgt>
<wgt id='1195'> +1.4241508e-12 </wgt>
<wgt id='1196'> +1.4173067e-12 </wgt>
<wgt id='1197'> +1.4206980e-12 </wgt>
<wgt id='1198'> +1.4173910e-12 </wgt>
<wgt id='1199'> +1.4211752e-12 </wgt>
<wgt id='1200'> +1.4161784e-12 </wgt>
<wgt id='1201'> +1.4207772e-12 </wgt>
<wgt id='1202'> +1.4185510e-12 </wgt>
<wgt id='1203'> +1.4194213e-12 </wgt>
<wgt id='1204'> +1.4162416e-12 </wgt>
<wgt id='1205'> +1.4204072e-12 </wgt>
<wgt id='1206'> +1.4222611e-12 </wgt>
<wgt id='1207'> +1.4143557e-12 </wgt>
<wgt id='1208'> +1.4277086e-12 </wgt>
<wgt id='1209'> +1.4157739e-12 </wgt>
<wgt id='1210'> +1.4162807e-12 </wgt>
<wgt id='1211'> +1.4157374e-12 </wgt>
<wgt id='1212'> +1.4197205e-12 </wgt>
<wgt id='1213'> +1.4182600e-12 </wgt>
<wgt id='1214'> +1.4015200e-12 </wgt>
<wgt id='1215'> +1.4471122e-12 </wgt>
<wgt id='1216'> +1.4301257e-12 </wgt>
<wgt id='1217'> +1.4118511e-12 </wgt>
<wgt id='1218'> +1.4206087e-12 </wgt>
<wgt id='1219'> +1.4179037e-12 </wgt>
<wgt id='1220'> +1.4244185e-12 </wgt>
<wgt id='1221'> +1.4175795e-12 </wgt>
<wgt id='1222'> +1.4328113e-12 </wgt>
<wgt id='1223'> +1.3990395e-12 </wgt>
<wgt id='1224'> +1.4219136e-12 </wgt>
<wgt id='1225'> +1.4177580e-12 </wgt>
<wgt id='1226'> +1.4182127e-12 </wgt>
<wgt id='1227'> +1.4195492e-12 </wgt>
<wgt id='1228'> +1.4139442e-12 </wgt>
<wgt id='1229'> +1.4215667e-12 </wgt>
<wgt id='1230'> +1.4181915e-12 </wgt>
<wgt id='1231'> +1.4220100e-12 </wgt>
<wgt id='1232'> +1.4212413e-12 </wgt>
<wgt id='1233'> +1.4183339e-12 </wgt>
<wgt id='1234'> +1.4189242e-12 </wgt>
<wgt id='1235'> +1.4129621e-12 </wgt>
<wgt id='1236'> +1.4152393e-12 </wgt>
<wgt id='1237'> +1.4172936e-12 </wgt>
<wgt id='1238'> +1.4205654e-12 </wgt>
<wgt id='1239'> +1.4219236e-12 </wgt>
<wgt id='1240'> +1.4231884e-12 </wgt>
<wgt id='1241'> +1.3889572e-12 </wgt>
<wgt id='1242'> +1.3810144e-12 </wgt>
<wgt id='1243'> +1.3968357e-12 </wgt>
<wgt id='1244'> +1.3941895e-12 </wgt>
<wgt id='1245'> +1.3850878e-12 </wgt>
<wgt id='1246'> +1.3853119e-12 </wgt>
<wgt id='1247'> +1.3920661e-12 </wgt>
<wgt id='1248'> +1.3889639e-12 </wgt>
<wgt id='1249'> +1.3889611e-12 </wgt>
<wgt id='1250'> +1.3903923e-12 </wgt>
<wgt id='1251'> +1.3879589e-12 </wgt>
<wgt id='1252'> +1.3855632e-12 </wgt>
<wgt id='1253'> +1.3916264e-12 </wgt>
<wgt id='1254'> +1.3847105e-12 </wgt>
<wgt id='1255'> +1.3914688e-12 </wgt>
<wgt id='1256'> +1.3858713e-12 </wgt>
<wgt id='1257'> +1.3967243e-12 </wgt>
<wgt id='1258'> +1.4084565e-12 </wgt>
<wgt id='1259'> +1.3710629e-12 </wgt>
<wgt id='1260'> +1.3927945e-12 </wgt>
<wgt id='1261'> +1.3847290e-12 </wgt>
<wgt id='1262'> +1.3943378e-12 </wgt>
<wgt id='1263'> +1.3868794e-12 </wgt>
<wgt id='1264'> +1.3915419e-12 </wgt>
<wgt id='1265'> +1.3878289e-12 </wgt>
<wgt id='1266'> +1.3724974e-12 </wgt>
<wgt id='1267'> +1.4044077e-12 </wgt>
<wgt id='1268'> +1.3940656e-12 </wgt>
<wgt id='1269'> +1.3852207e-12 </wgt>
<wgt id='1270'> +1.3874809e-12 </wgt>
<wgt id='1271'> +1.3873616e-12 </wgt>
<wgt id='1272'> +1.3906224e-12 </wgt>
<wgt id='1273'> +1.3885550e-12 </wgt>
<wgt id='1274'> +1.3895107e-12 </wgt>
<wgt id='1275'> +1.3876479e-12 </wgt>
<wgt id='1276'> +1.3945885e-12 </wgt>
<wgt id='1277'> +1.3834088e-12 </wgt>
<wgt id='1278'> +1.3926033e-12 </wgt>
<wgt id='1279'> +1.3931013e-12 </wgt>
<wgt id='1280'> +1.3888076e-12 </wgt>
<wgt id='1281'> +1.3929752e-12 </wgt>
<wgt id='1282'> +1.3889572e-12 </wgt>
<wgt id='1283'> +1.3827172e-12 </wgt>
<wgt id='1284'> +1.3852836e-12 </wgt>
<wgt id='1285'> +1.3872827e-12 </wgt>
<wgt id='1286'> +1.3906890e-12 </wgt>
<wgt id='1287'> +1.3919150e-12 </wgt>
<wgt id='1288'> +1.3928600e-12 </wgt>
<wgt id='1289'> +1.4677947e-12 </wgt>
<wgt id='1290'> +1.4696863e-12 </wgt>
<wgt id='1291'> +1.4657241e-12 </wgt>
<wgt id='1292'> +1.4683257e-12 </wgt>
<wgt id='1293'> +1.4673989e-12 </wgt>
<wgt id='1294'> +1.4622116e-12 </wgt>
<wgt id='1295'> +1.4731400e-12 </wgt>
<wgt id='1296'> +1.4714643e-12 </wgt>
<wgt id='1297'> +1.4631802e-12 </wgt>
<wgt id='1298'> +1.4700610e-12 </wgt>
<wgt id='1299'> +1.4648432e-12 </wgt>
<wgt id='1300'> +1.4697640e-12 </wgt>
<wgt id='1301'> +1.4638161e-12 </wgt>
<wgt id='1302'> +1.4641187e-12 </wgt>
<wgt id='1303'> +1.4728654e-12 </wgt>
<wgt id='1304'> +1.4656023e-12 </wgt>
<wgt id='1305'> +1.4692840e-12 </wgt>
<wgt id='1306'> +1.4715087e-12 </wgt>
<wgt id='1307'> +1.4634335e-12 </wgt>
<wgt id='1308'> +1.4632315e-12 </wgt>
<wgt id='1309'> +1.4712450e-12 </wgt>
<wgt id='1310'> +1.4691955e-12 </wgt>
<wgt id='1311'> +1.4664452e-12 </wgt>
<wgt id='1312'> +1.4746901e-12 </wgt>
<wgt id='1313'> +1.4609941e-12 </wgt>
<wgt id='1314'> +1.4536699e-12 </wgt>
<wgt id='1315'> +1.4792551e-12 </wgt>
<wgt id='1316'> +1.4731602e-12 </wgt>
<wgt id='1317'> +1.4682403e-12 </wgt>
<wgt id='1318'> +1.4799650e-12 </wgt>
<wgt id='1319'> +1.4532213e-12 </wgt>
<wgt id='1320'> +1.4848985e-12 </wgt>
<wgt id='1321'> +1.4531004e-12 </wgt>
<wgt id='1322'> +1.4682964e-12 </wgt>
<wgt id='1323'> +1.4673287e-12 </wgt>
<wgt id='1324'> +1.4649032e-12 </wgt>
<wgt id='1325'> +1.4707404e-12 </wgt>
<wgt id='1326'> +1.4669316e-12 </wgt>
<wgt id='1327'> +1.4703681e-12 </wgt>
<wgt id='1328'> +1.4670701e-12 </wgt>
<wgt id='1329'> +1.4679016e-12 </wgt>
<wgt id='1330'> +1.4714907e-12 </wgt>
<wgt id='1331'> +1.4639337e-12 </wgt>
<wgt id='1332'> +1.4771876e-12 </wgt>
<wgt id='1333'> +1.4680483e-12 </wgt>
<wgt id='1334'> +1.4655621e-12 </wgt>
<wgt id='1335'> +1.4736357e-12 </wgt>
<wgt id='1336'> +1.4670539e-12 </wgt>
<wgt id='1337'> +1.4720761e-12 </wgt>
<wgt id='1338'> +1.4681027e-12 </wgt>
<wgt id='1339'> +1.4702155e-12 </wgt>
<wgt id='1340'> +1.4412032e-12 </wgt>
<wgt id='1341'> +1.4431091e-12 </wgt>
<wgt id='1342'> +1.4391941e-12 </wgt>
<wgt id='1343'> +1.4418432e-12 </wgt>
<wgt id='1344'> +1.4408123e-12 </wgt>
<wgt id='1345'> +1.4353708e-12 </wgt>
<wgt id='1346'> +1.4466180e-12 </wgt>
<wgt id='1347'> +1.4452494e-12 </wgt>
<wgt id='1348'> +1.4366792e-12 </wgt>
<wgt id='1349'> +1.4431819e-12 </wgt>
<wgt id='1350'> +1.4392083e-12 </wgt>
<wgt id='1351'> +1.4429165e-12 </wgt>
<wgt id='1352'> +1.4375263e-12 </wgt>
<wgt id='1353'> +1.4366680e-12 </wgt>
<wgt id='1354'> +1.4493461e-12 </wgt>
<wgt id='1355'> +1.4397998e-12 </wgt>
<wgt id='1356'> +1.4420091e-12 </wgt>
<wgt id='1357'> +1.4441871e-12 </wgt>
<wgt id='1358'> +1.4375542e-12 </wgt>
<wgt id='1359'> +1.4359470e-12 </wgt>
<wgt id='1360'> +1.4457521e-12 </wgt>
<wgt id='1361'> +1.4430314e-12 </wgt>
<wgt id='1362'> +1.4390154e-12 </wgt>
<wgt id='1363'> +1.4529260e-12 </wgt>
<wgt id='1364'> +1.4337428e-12 </wgt>
<wgt id='1365'> +1.4456682e-12 </wgt>
<wgt id='1366'> +1.4299393e-12 </wgt>
<wgt id='1367'> +1.4467972e-12 </wgt>
<wgt id='1368'> +1.4408345e-12 </wgt>
<wgt id='1369'> +1.4511472e-12 </wgt>
<wgt id='1370'> +1.4293270e-12 </wgt>
<wgt id='1371'> +1.4551347e-12 </wgt>
<wgt id='1372'> +1.4242357e-12 </wgt>
<wgt id='1373'> +1.4390024e-12 </wgt>
<wgt id='1374'> +1.4433178e-12 </wgt>
<wgt id='1375'> +1.4383718e-12 </wgt>
<wgt id='1376'> +1.4446799e-12 </wgt>
<wgt id='1377'> +1.4405837e-12 </wgt>
<wgt id='1378'> +1.4438438e-12 </wgt>
<wgt id='1379'> +1.4406247e-12 </wgt>
<wgt id='1380'> +1.4412306e-12 </wgt>
<wgt id='1381'> +1.4453219e-12 </wgt>
<wgt id='1382'> +1.4373853e-12 </wgt>
<wgt id='1383'> +1.4491663e-12 </wgt>
<wgt id='1384'> +1.4421866e-12 </wgt>
<wgt id='1385'> +1.4392350e-12 </wgt>
<wgt id='1386'> +1.4460167e-12 </wgt>
<wgt id='1387'> +1.4404234e-12 </wgt>
<wgt id='1388'> +1.4461549e-12 </wgt>
<wgt id='1389'> +1.4409970e-12 </wgt>
<wgt id='1390'> +1.4447147e-12 </wgt>
<wgt id='1391'> +1.4016493e-12 </wgt>
<wgt id='1392'> +1.3645578e-12 </wgt>
<wgt id='1393'> +1.3774791e-12 </wgt>
<wgt id='1394'> +1.3898390e-12 </wgt>
<wgt id='1395'> +1.4141624e-12 </wgt>
<wgt id='1396'> +1.4019245e-12 </wgt>
<wgt id='1397'> +1.3924085e-12 </wgt>
<wgt id='1398'> +1.3935154e-12 </wgt>
<wgt id='1399'> +1.3947902e-12 </wgt>
<wgt id='1400'> +1.3967531e-12 </wgt>
<wgt id='1401'> +1.3992805e-12 </wgt>
<wgt id='1402'> +1.4048262e-12 </wgt>
<wgt id='1403'> +1.4081692e-12 </wgt>
<wgt id='1404'> +1.4117242e-12 </wgt>
<wgt id='1405'> +1.4019245e-12 </wgt>
<wgt id='1406'> +1.3984972e-12 </wgt>
<wgt id='1407'> +1.4002716e-12 </wgt>
<wgt id='1408'> +1.4034403e-12 </wgt>
<wgt id='1409'> +1.4046173e-12 </wgt>
<wgt id='1410'> +1.3588225e-12 </wgt>
<wgt id='1411'> +1.3615501e-12 </wgt>
<wgt id='1412'> +1.3553319e-12 </wgt>
<wgt id='1413'> +1.3575960e-12 </wgt>
<wgt id='1414'> +1.3600299e-12 </wgt>
<wgt id='1415'> +1.3587138e-12 </wgt>
<wgt id='1416'> +1.3588581e-12 </wgt>
<wgt id='1417'> +1.3580989e-12 </wgt>
<wgt id='1418'> +1.3594534e-12 </wgt>
<wgt id='1419'> +1.3589795e-12 </wgt>
<wgt id='1420'> +1.3586384e-12 </wgt>
<wgt id='1421'> +1.3512652e-12 </wgt>
<wgt id='1422'> +1.3620166e-12 </wgt>
<wgt id='1423'> +1.3578959e-12 </wgt>
<wgt id='1424'> +1.3599578e-12 </wgt>
<wgt id='1425'> +1.3519982e-12 </wgt>
<wgt id='1426'> +1.3661746e-12 </wgt>
<wgt id='1427'> +1.3522387e-12 </wgt>
<wgt id='1428'> +1.3620768e-12 </wgt>
<wgt id='1429'> +1.3626944e-12 </wgt>
<wgt id='1430'> +1.3535304e-12 </wgt>
<wgt id='1431'> +1.3588577e-12 </wgt>
<wgt id='1432'> +1.3587344e-12 </wgt>
<wgt id='1433'> +1.3471159e-12 </wgt>
<wgt id='1434'> +1.3683013e-12 </wgt>
<wgt id='1435'> +1.3531284e-12 </wgt>
<wgt id='1436'> +1.3730599e-12 </wgt>
<wgt id='1437'> +1.3629246e-12 </wgt>
<wgt id='1438'> +1.3605400e-12 </wgt>
<wgt id='1439'> +1.3519933e-12 </wgt>
<wgt id='1440'> +1.3739112e-12 </wgt>
<wgt id='1441'> +1.3630576e-12 </wgt>
<wgt id='1442'> +1.3485685e-12 </wgt>
<wgt id='1443'> +1.3547495e-12 </wgt>
<wgt id='1444'> +1.3663550e-12 </wgt>
<wgt id='1445'> +1.3658154e-12 </wgt>
<wgt id='1446'> +1.3549168e-12 </wgt>
<wgt id='1447'> +1.3599766e-12 </wgt>
<wgt id='1448'> +1.3597325e-12 </wgt>
<wgt id='1449'> +1.3586567e-12 </wgt>
<wgt id='1450'> +1.3581795e-12 </wgt>
<wgt id='1451'> +1.3582615e-12 </wgt>
<wgt id='1452'> +1.3589477e-12 </wgt>
<wgt id='1453'> +1.3596563e-12 </wgt>
<wgt id='1454'> +1.3597431e-12 </wgt>
<wgt id='1455'> +1.3641509e-12 </wgt>
<wgt id='1456'> +1.3595983e-12 </wgt>
<wgt id='1457'> +1.3628278e-12 </wgt>
<wgt id='1458'> +1.3575964e-12 </wgt>
<wgt id='1459'> +1.3617276e-12 </wgt>
<wgt id='1460'> +1.3618735e-12 </wgt>
<wgt id='1461'> +1.3588225e-12 </wgt>
<wgt id='1462'> +1.3489146e-12 </wgt>
<wgt id='1463'> +1.3663781e-12 </wgt>
<wgt id='1464'> +1.3576345e-12 </wgt>
<wgt id='1465'> +1.3454905e-12 </wgt>
<wgt id='1466'> +1.3470829e-12 </wgt>
<wgt id='1467'> +1.3492522e-12 </wgt>
<wgt id='1468'> +1.3526893e-12 </wgt>
<wgt id='1469'> +1.3547096e-12 </wgt>
<wgt id='1470'> +1.3610055e-12 </wgt>
<wgt id='1471'> +1.3638650e-12 </wgt>
<wgt id='1472'> +1.3670902e-12 </wgt>
<wgt id='1473'> +1.3576345e-12 </wgt>
<wgt id='1474'> +1.3541739e-12 </wgt>
<wgt id='1475'> +1.3562397e-12 </wgt>
<wgt id='1476'> +1.3589705e-12 </wgt>
<wgt id='1477'> +1.3600825e-12 </wgt>
<wgt id='1478'> +1.3871998e-12 </wgt>
<wgt id='1479'> +1.3877215e-12 </wgt>
<wgt id='1480'> +1.3758236e-12 </wgt>
<wgt id='1481'> +1.3924361e-12 </wgt>
<wgt id='1482'> +1.3893477e-12 </wgt>
<wgt id='1483'> +1.3734716e-12 </wgt>
<wgt id='1484'> +1.3761442e-12 </wgt>
<wgt id='1485'> +1.3960413e-12 </wgt>
<wgt id='1486'> +1.3868067e-12 </wgt>
<wgt id='1487'> +1.3964247e-12 </wgt>
<wgt id='1488'> +1.3848998e-12 </wgt>
<wgt id='1489'> +1.3916948e-12 </wgt>
<wgt id='1490'> +1.3847455e-12 </wgt>
<wgt id='1491'> +1.3918101e-12 </wgt>
<wgt id='1492'> +1.3876429e-12 </wgt>
<wgt id='1493'> +1.3717574e-12 </wgt>
<wgt id='1494'> +1.3859481e-12 </wgt>
<wgt id='1495'> +1.3788195e-12 </wgt>
<wgt id='1496'> +1.3883245e-12 </wgt>
<wgt id='1497'> +1.3875854e-12 </wgt>
<wgt id='1498'> +1.3872387e-12 </wgt>
<wgt id='1499'> +1.3900637e-12 </wgt>
<wgt id='1500'> +1.3896688e-12 </wgt>
<wgt id='1501'> +1.3883110e-12 </wgt>
<wgt id='1502'> +1.3855796e-12 </wgt>
<wgt id='1503'> +1.3911177e-12 </wgt>
<wgt id='1504'> +1.3829258e-12 </wgt>
<wgt id='1505'> +1.3913824e-12 </wgt>
<wgt id='1506'> +1.3889800e-12 </wgt>
<wgt id='1507'> +1.3872988e-12 </wgt>
<wgt id='1508'> +1.3901489e-12 </wgt>
<wgt id='1509'> +1.3931580e-12 </wgt>
<wgt id='1510'> +1.3937616e-12 </wgt>
<wgt id='1511'> +1.3895691e-12 </wgt>
<wgt id='1512'> +1.3886517e-12 </wgt>
<wgt id='1513'> +1.3907020e-12 </wgt>
<wgt id='1514'> +1.3967753e-12 </wgt>
<wgt id='1515'> +1.3980549e-12 </wgt>
<wgt id='1516'> +1.3970037e-12 </wgt>
<wgt id='1517'> +1.3976801e-12 </wgt>
<wgt id='1518'> +1.3910025e-12 </wgt>
<wgt id='1519'> +1.3936294e-12 </wgt>
<wgt id='1520'> +1.3950303e-12 </wgt>
<wgt id='1521'> +1.3934583e-12 </wgt>
<wgt id='1522'> +1.3958765e-12 </wgt>
<wgt id='1523'> +1.3966425e-12 </wgt>
<wgt id='1524'> +1.3917814e-12 </wgt>
<wgt id='1525'> +1.3921983e-12 </wgt>
<wgt id='1526'> +1.3944944e-12 </wgt>
<wgt id='1527'> +1.3939473e-12 </wgt>
<wgt id='1528'> +1.3941429e-12 </wgt>
<wgt id='1529'> +1.3944769e-12 </wgt>
<wgt id='1530'> +1.3936937e-12 </wgt>
<wgt id='1531'> +1.3952754e-12 </wgt>
<wgt id='1532'> +1.3896979e-12 </wgt>
<wgt id='1533'> +1.3934194e-12 </wgt>
<wgt id='1534'> +1.3939411e-12 </wgt>
<wgt id='1535'> +1.3891873e-12 </wgt>
<wgt id='1536'> +1.3972834e-12 </wgt>
<wgt id='1537'> +1.3963171e-12 </wgt>
<wgt id='1538'> +1.3792343e-12 </wgt>
<wgt id='1539'> +1.3907388e-12 </wgt>
<wgt id='1540'> +1.3920535e-12 </wgt>
<wgt id='1541'> +1.3902782e-12 </wgt>
<wgt id='1542'> +1.3912597e-12 </wgt>
<wgt id='1543'> +1.3939924e-12 </wgt>
<wgt id='1544'> +1.3911517e-12 </wgt>
<wgt id='1545'> +1.3918428e-12 </wgt>
<wgt id='1546'> +1.3941820e-12 </wgt>
<wgt id='1547'> +1.3919234e-12 </wgt>
<wgt id='1548'> +1.3938787e-12 </wgt>
<wgt id='1549'> +1.3920844e-12 </wgt>
<wgt id='1550'> +1.3932767e-12 </wgt>
<wgt id='1551'> +1.3927137e-12 </wgt>
<wgt id='1552'> +1.3949840e-12 </wgt>
<wgt id='1553'> +1.3933246e-12 </wgt>
<wgt id='1554'> +1.3923620e-12 </wgt>
<wgt id='1555'> +1.3949768e-12 </wgt>
<wgt id='1556'> +1.3962219e-12 </wgt>
<wgt id='1557'> +1.3929352e-12 </wgt>
<wgt id='1558'> +1.3932616e-12 </wgt>
<wgt id='1559'> +1.3920603e-12 </wgt>
<wgt id='1560'> +1.3937005e-12 </wgt>
<wgt id='1561'> +1.3935064e-12 </wgt>
<wgt id='1562'> +1.3932345e-12 </wgt>
<wgt id='1563'> +1.3936487e-12 </wgt>
<wgt id='1564'> +1.3919096e-12 </wgt>
<wgt id='1565'> +1.3929724e-12 </wgt>
<wgt id='1566'> +1.3931023e-12 </wgt>
<wgt id='1567'> +1.3918168e-12 </wgt>
<wgt id='1568'> +1.3932459e-12 </wgt>
<wgt id='1569'> +1.3960244e-12 </wgt>
<wgt id='1570'> +1.3937889e-12 </wgt>
<wgt id='1571'> +1.3936221e-12 </wgt>
<wgt id='1572'> +1.3929627e-12 </wgt>
<wgt id='1573'> +1.3923948e-12 </wgt>
<wgt id='1574'> +1.3937887e-12 </wgt>
<wgt id='1575'> +1.3932085e-12 </wgt>
<wgt id='1576'> +1.3940486e-12 </wgt>
<wgt id='1577'> +1.3952408e-12 </wgt>
<wgt id='1578'> +1.3933444e-12 </wgt>
<wgt id='1579'> +1.3924550e-12 </wgt>
<wgt id='1580'> +1.3930397e-12 </wgt>
<wgt id='1581'> +1.3933515e-12 </wgt>
<wgt id='1582'> +1.3934949e-12 </wgt>
<wgt id='1583'> +1.3923488e-12 </wgt>
<wgt id='1584'> +1.3920477e-12 </wgt>
<wgt id='1585'> +1.3928535e-12 </wgt>
<wgt id='1586'> +1.3932658e-12 </wgt>
<wgt id='1587'> +1.3940104e-12 </wgt>
<wgt id='1588'> +1.3919816e-12 </wgt>
<wgt id='1589'> +1.3943190e-12 </wgt>
<wgt id='1590'> +1.3938200e-12 </wgt>
<wgt id='1591'> +1.3935881e-12 </wgt>
<wgt id='1592'> +1.3937964e-12 </wgt>
<wgt id='1593'> +1.3936755e-12 </wgt>
<wgt id='1594'> +1.3930541e-12 </wgt>
<wgt id='1595'> +1.3922000e-12 </wgt>
<wgt id='1596'> +1.3926083e-12 </wgt>
<wgt id='1597'> +1.3922207e-12 </wgt>
<wgt id='1598'> +1.3936914e-12 </wgt>
<wgt id='1599'> +1.3937848e-12 </wgt>
<wgt id='1600'> +1.3922172e-12 </wgt>
<wgt id='1601'> +1.3934887e-12 </wgt>
<wgt id='1602'> +1.3925553e-12 </wgt>
<wgt id='1603'> +1.3937767e-12 </wgt>
<wgt id='1604'> +1.3931242e-12 </wgt>
<wgt id='1605'> +1.3936938e-12 </wgt>
<wgt id='1606'> +1.3934447e-12 </wgt>
<wgt id='1607'> +1.3934308e-12 </wgt>
<wgt id='1608'> +1.3934359e-12 </wgt>
<wgt id='1609'> +1.3932552e-12 </wgt>
<wgt id='1610'> +1.3775005e-12 </wgt>
<wgt id='1611'> +1.4081463e-12 </wgt>
<wgt id='1612'> +1.5336790e-12 </wgt>
<wgt id='1613'> +1.5085021e-12 </wgt>
<wgt id='1614'> +1.4944993e-12 </wgt>
<wgt id='1615'> +1.5212171e-12 </wgt>
<wgt id='1616'> +1.4764027e-12 </wgt>
<wgt id='1617'> +1.5470586e-12 </wgt>
<wgt id='1618'> +1.4928310e-12 </wgt>
<wgt id='1619'> +1.4978417e-12 </wgt>
<wgt id='1620'> +1.5194924e-12 </wgt>
<wgt id='1621'> +1.5382564e-12 </wgt>
<wgt id='1622'> +1.5510013e-12 </wgt>
<wgt id='1623'> +1.5410550e-12 </wgt>
<wgt id='1624'> +1.5344574e-12 </wgt>
<wgt id='1625'> +1.5351013e-12 </wgt>
<wgt id='1626'> +1.5439479e-12 </wgt>
<wgt id='1627'> +1.5287975e-12 </wgt>
<wgt id='1628'> +1.4299751e-12 </wgt>
<wgt id='1629'> +1.5722796e-12 </wgt>
<wgt id='1630'> +1.5277602e-12 </wgt>
<wgt id='1631'> +1.5280288e-12 </wgt>
<wgt id='1632'> +1.4749119e-12 </wgt>
<wgt id='1633'> +1.5075134e-12 </wgt>
<wgt id='1634'> +1.5491884e-12 </wgt>
<wgt id='1635'> +1.5506395e-12 </wgt>
<wgt id='1636'> +1.5315067e-12 </wgt>
<wgt id='1637'> +1.5501268e-12 </wgt>
<wgt id='1638'> +1.5269957e-12 </wgt>
<wgt id='1639'> +1.5414940e-12 </wgt>
<wgt id='1640'> +1.5306520e-12 </wgt>
<wgt id='1641'> +1.5360032e-12 </wgt>
<wgt id='1642'> +1.4971510e-12 </wgt>
<wgt id='1643'> +1.5245783e-12 </wgt>
<wgt id='1644'> +1.5696940e-12 </wgt>
<wgt id='1645'> +1.5150182e-12 </wgt>
<wgt id='1646'> +1.5706872e-12 </wgt>
<wgt id='1647'> +1.5560447e-12 </wgt>
<wgt id='1648'> +1.5403377e-12 </wgt>
<wgt id='1649'> +1.5274078e-12 </wgt>
<wgt id='1650'> +1.5205852e-12 </wgt>
<wgt id='1651'> +1.5254025e-12 </wgt>
<wgt id='1652'> +1.5426058e-12 </wgt>
<wgt id='1653'> +1.5161242e-12 </wgt>
<wgt id='1654'> +1.5134193e-12 </wgt>
<wgt id='1655'> +1.5293946e-12 </wgt>
<wgt id='1656'> +1.5545396e-12 </wgt>
<wgt id='1657'> +1.5101874e-12 </wgt>
<wgt id='1658'> +1.5333358e-12 </wgt>
<wgt id='1659'> +1.5344574e-12 </wgt>
<wgt id='1660'> +1.5313242e-12 </wgt>
<wgt id='1661'> +1.5786957e-12 </wgt>
<wgt id='1662'> +1.5759852e-12 </wgt>
<wgt id='1663'> +1.5589159e-12 </wgt>
<wgt id='1664'> +1.5333440e-12 </wgt>
<wgt id='1665'> +1.5197255e-12 </wgt>
<wgt id='1666'> +1.5490906e-12 </wgt>
<wgt id='1667'> +1.5505888e-12 </wgt>
<wgt id='1668'> +1.5228478e-12 </wgt>
<wgt id='1669'> +1.5392223e-12 </wgt>
<wgt id='1670'> +1.5389702e-12 </wgt>
<wgt id='1671'> +1.5172722e-12 </wgt>
<wgt id='1672'> +1.5654763e-12 </wgt>
<wgt id='1673'> +1.5293318e-12 </wgt>
<wgt id='1674'> +1.5261168e-12 </wgt>
<wgt id='1675'> +1.5323390e-12 </wgt>
<wgt id='1676'> +1.5261091e-12 </wgt>
<wgt id='1677'> +1.5727461e-12 </wgt>
<wgt id='1678'> +1.5272685e-12 </wgt>
<wgt id='1679'> +1.5498892e-12 </wgt>
<wgt id='1680'> +1.5269339e-12 </wgt>
<wgt id='1681'> +1.5632498e-12 </wgt>
<wgt id='1682'> +1.5367104e-12 </wgt>
<wgt id='1683'> +1.5397517e-12 </wgt>
<wgt id='1684'> +1.5774106e-12 </wgt>
<wgt id='1685'> +1.5157536e-12 </wgt>
<wgt id='1686'> +1.5512175e-12 </wgt>
<wgt id='1687'> +1.5679208e-12 </wgt>
<wgt id='1688'> +1.4903412e-12 </wgt>
<wgt id='1689'> +1.5691222e-12 </wgt>
<wgt id='1690'> +1.5413116e-12 </wgt>
<wgt id='1691'> +1.5105280e-12 </wgt>
<wgt id='1692'> +1.5173320e-12 </wgt>
<wgt id='1693'> +1.5600293e-12 </wgt>
<wgt id='1694'> +1.5465049e-12 </wgt>
<wgt id='1695'> +1.5604288e-12 </wgt>
<wgt id='1696'> +1.5356663e-12 </wgt>
<wgt id='1697'> +1.5055663e-12 </wgt>
<wgt id='1698'> +1.5248913e-12 </wgt>
<wgt id='1699'> +1.5291967e-12 </wgt>
<wgt id='1700'> +1.5247827e-12 </wgt>
<wgt id='1701'> +1.5602814e-12 </wgt>
<wgt id='1702'> +1.5045350e-12 </wgt>
<wgt id='1703'> +1.5271994e-12 </wgt>
<wgt id='1704'> +1.5288287e-12 </wgt>
<wgt id='1705'> +1.4989575e-12 </wgt>
<wgt id='1706'> +1.5358666e-12 </wgt>
<wgt id='1707'> +1.5139990e-12 </wgt>
<wgt id='1708'> +1.5691420e-12 </wgt>
<wgt id='1709'> +1.5548540e-12 </wgt>
<wgt id='1710'> +1.5355881e-12 </wgt>
<wgt id='1711'> +1.5413018e-12 </wgt>
<wgt id='1712'> +1.5868924e-12 </wgt>
<wgt id='1713'> +1.3658458e-12 </wgt>
<wgt id='1714'> +1.3460129e-12 </wgt>
<wgt id='1715'> +1.3382506e-12 </wgt>
<wgt id='1716'> +1.3910208e-12 </wgt>
<wgt id='1717'> +1.3735376e-12 </wgt>
<wgt id='1718'> +1.4091611e-12 </wgt>
<wgt id='1719'> +1.3808183e-12 </wgt>
<wgt id='1720'> +1.3529244e-12 </wgt>
<wgt id='1721'> +1.3415697e-12 </wgt>
<wgt id='1722'> +1.3605416e-12 </wgt>
<wgt id='1723'> +1.3880457e-12 </wgt>
<wgt id='1724'> +1.3955177e-12 </wgt>
<wgt id='1725'> +1.3840852e-12 </wgt>
<wgt id='1726'> +1.3824780e-12 </wgt>
<wgt id='1727'> +1.3826484e-12 </wgt>
<wgt id='1728'> +1.3561119e-12 </wgt>
<wgt id='1729'> +1.3289166e-12 </wgt>
<wgt id='1730'> +1.3430410e-12 </wgt>
<wgt id='1731'> +1.3148258e-12 </wgt>
<wgt id='1732'> +1.3613782e-12 </wgt>
<wgt id='1733'> +1.3199910e-12 </wgt>
<wgt id='1734'> +1.4054134e-12 </wgt>
<wgt id='1735'> +1.3587586e-12 </wgt>
<wgt id='1736'> +1.4154560e-12 </wgt>
<wgt id='1737'> +1.3814571e-12 </wgt>
<wgt id='1738'> +1.3693325e-12 </wgt>
<wgt id='1739'> +1.3677652e-12 </wgt>
<wgt id='1740'> +1.3075951e-12 </wgt>
<wgt id='1741'> +1.3811062e-12 </wgt>
<wgt id='1742'> +1.3451145e-12 </wgt>
<wgt id='1743'> +1.3616108e-12 </wgt>
<wgt id='1744'> +1.3782754e-12 </wgt>
<wgt id='1745'> +1.3814956e-12 </wgt>
<wgt id='1746'> +1.3647222e-12 </wgt>
<wgt id='1747'> +1.4023716e-12 </wgt>
<wgt id='1748'> +1.3676496e-12 </wgt>
<wgt id='1749'> +1.3650611e-12 </wgt>
<wgt id='1750'> +1.3433468e-12 </wgt>
<wgt id='1751'> +1.3531021e-12 </wgt>
<wgt id='1752'> +1.3411920e-12 </wgt>
<wgt id='1753'> +1.3714670e-12 </wgt>
<wgt id='1754'> +1.3761928e-12 </wgt>
<wgt id='1755'> +1.3811196e-12 </wgt>
<wgt id='1756'> +1.3876369e-12 </wgt>
<wgt id='1757'> +1.3742385e-12 </wgt>
<wgt id='1758'> +1.3876514e-12 </wgt>
<wgt id='1759'> +1.3806860e-12 </wgt>
<wgt id='1760'> +1.3546160e-12 </wgt>
<wgt id='1761'> +1.3504458e-12 </wgt>
<wgt id='1762'> +1.3585112e-12 </wgt>
<wgt id='1763'> +1.3781054e-12 </wgt>
<wgt id='1764'> +1.3953571e-12 </wgt>
<wgt id='1765'> +1.3760966e-12 </wgt>
<wgt id='1766'> +1.3988209e-12 </wgt>
<wgt id='1767'> +1.3631834e-12 </wgt>
<wgt id='1768'> +1.3815820e-12 </wgt>
<wgt id='1769'> +1.3458090e-12 </wgt>
<wgt id='1770'> +1.3646352e-12 </wgt>
<wgt id='1771'> +1.3980551e-12 </wgt>
<wgt id='1772'> +1.3432007e-12 </wgt>
<wgt id='1773'> +1.3684043e-12 </wgt>
<wgt id='1774'> +1.3640408e-12 </wgt>
<wgt id='1775'> +1.3629918e-12 </wgt>
<wgt id='1776'> +1.4087222e-12 </wgt>
<wgt id='1777'> +1.3090678e-12 </wgt>
<wgt id='1778'> +1.3701836e-12 </wgt>
<wgt id='1779'> +1.3630195e-12 </wgt>
<wgt id='1780'> +1.3807594e-12 </wgt>
<wgt id='1781'> +1.3744700e-12 </wgt>
<wgt id='1782'> +1.3540161e-12 </wgt>
<wgt id='1783'> +1.3580782e-12 </wgt>
<wgt id='1784'> +1.3799540e-12 </wgt>
<wgt id='1785'> +1.3855218e-12 </wgt>
<wgt id='1786'> +1.3596323e-12 </wgt>
<wgt id='1787'> +1.4220109e-12 </wgt>
<wgt id='1788'> +1.3541540e-12 </wgt>
<wgt id='1789'> +1.4273869e-12 </wgt>
<wgt id='1790'> +1.3724953e-12 </wgt>
<wgt id='1791'> +1.3748518e-12 </wgt>
<wgt id='1792'> +1.3581032e-12 </wgt>
<wgt id='1793'> +1.3566877e-12 </wgt>
<wgt id='1794'> +1.3795675e-12 </wgt>
<wgt id='1795'> +1.3757424e-12 </wgt>
<wgt id='1796'> +1.3234600e-12 </wgt>
<wgt id='1797'> +1.3595861e-12 </wgt>
<wgt id='1798'> +1.3561814e-12 </wgt>
<wgt id='1799'> +1.3522070e-12 </wgt>
<wgt id='1800'> +1.3825762e-12 </wgt>
<wgt id='1801'> +1.3710582e-12 </wgt>
<wgt id='1802'> +1.3321996e-12 </wgt>
<wgt id='1803'> +1.3640977e-12 </wgt>
<wgt id='1804'> +1.3569067e-12 </wgt>
<wgt id='1805'> +1.3472161e-12 </wgt>
<wgt id='1806'> +1.3337771e-12 </wgt>
<wgt id='1807'> +1.3659072e-12 </wgt>
<wgt id='1808'> +1.3372418e-12 </wgt>
<wgt id='1809'> +1.3530245e-12 </wgt>
<wgt id='1810'> +1.3393946e-12 </wgt>
<wgt id='1811'> +1.3878331e-12 </wgt>
<wgt id='1812'> +1.3546801e-12 </wgt>
<wgt id='1813'> +1.3035816e-12 </wgt>
<wgt id='1814'> +1.6081983e-12 </wgt>
<wgt id='1815'> +1.8795778e-12 </wgt>
<wgt id='1816'> +1.3658458e-12 </wgt>
<wgt id='1817'> +1.3460129e-12 </wgt>
<wgt id='1818'> +1.3382506e-12 </wgt>
<wgt id='1819'> +1.3910208e-12 </wgt>
<wgt id='1820'> +1.3735376e-12 </wgt>
<wgt id='1821'> +1.4091611e-12 </wgt>
<wgt id='1822'> +1.3808183e-12 </wgt>
<wgt id='1823'> +1.3529244e-12 </wgt>
<wgt id='1824'> +1.3415697e-12 </wgt>
<wgt id='1825'> +1.3605416e-12 </wgt>
<wgt id='1826'> +1.3880457e-12 </wgt>
<wgt id='1827'> +1.3955177e-12 </wgt>
<wgt id='1828'> +1.3840852e-12 </wgt>
<wgt id='1829'> +1.3824780e-12 </wgt>
<wgt id='1830'> +1.3826484e-12 </wgt>
<wgt id='1831'> +1.3561119e-12 </wgt>
<wgt id='1832'> +1.3289166e-12 </wgt>
<wgt id='1833'> +1.3430410e-12 </wgt>
<wgt id='1834'> +1.3148258e-12 </wgt>
<wgt id='1835'> +1.3613782e-12 </wgt>
<wgt id='1836'> +1.3199910e-12 </wgt>
<wgt id='1837'> +1.4054134e-12 </wgt>
<wgt id='1838'> +1.3587586e-12 </wgt>
<wgt id='1839'> +1.4154560e-12 </wgt>
<wgt id='1840'> +1.3814571e-12 </wgt>
<wgt id='1841'> +1.3693325e-12 </wgt>
<wgt id='1842'> +1.3677652e-12 </wgt>
<wgt id='1843'> +1.3075951e-12 </wgt>
<wgt id='1844'> +1.3811062e-12 </wgt>
<wgt id='1845'> +1.3451145e-12 </wgt>
<wgt id='1846'> +1.3616108e-12 </wgt>
<wgt id='1847'> +1.3782754e-12 </wgt>
<wgt id='1848'> +1.3814956e-12 </wgt>
<wgt id='1849'> +1.3647222e-12 </wgt>
<wgt id='1850'> +1.4023716e-12 </wgt>
<wgt id='1851'> +1.3676496e-12 </wgt>
<wgt id='1852'> +1.3650611e-12 </wgt>
<wgt id='1853'> +1.3433468e-12 </wgt>
<wgt id='1854'> +1.3531021e-12 </wgt>
<wgt id='1855'> +1.3411920e-12 </wgt>
<wgt id='1856'> +1.3714670e-12 </wgt>
<wgt id='1857'> +1.3761928e-12 </wgt>
<wgt id='1858'> +1.3811196e-12 </wgt>
<wgt id='1859'> +1.3876369e-12 </wgt>
<wgt id='1860'> +1.3742385e-12 </wgt>
<wgt id='1861'> +1.3876514e-12 </wgt>
<wgt id='1862'> +1.3806860e-12 </wgt>
<wgt id='1863'> +1.3546160e-12 </wgt>
<wgt id='1864'> +1.3504458e-12 </wgt>
<wgt id='1865'> +1.3585112e-12 </wgt>
<wgt id='1866'> +1.3781054e-12 </wgt>
<wgt id='1867'> +1.3953571e-12 </wgt>
<wgt id='1868'> +1.3760966e-12 </wgt>
<wgt id='1869'> +1.3988209e-12 </wgt>
<wgt id='1870'> +1.3631834e-12 </wgt>
<wgt id='1871'> +1.3815820e-12 </wgt>
<wgt id='1872'> +1.3458090e-12 </wgt>
<wgt id='1873'> +1.3646352e-12 </wgt>
<wgt id='1874'> +1.3980551e-12 </wgt>
<wgt id='1875'> +1.3432007e-12 </wgt>
<wgt id='1876'> +1.3684043e-12 </wgt>
<wgt id='1877'> +1.3640408e-12 </wgt>
<wgt id='1878'> +1.3629918e-12 </wgt>
<wgt id='1879'> +1.4087222e-12 </wgt>
<wgt id='1880'> +1.3090678e-12 </wgt>
<wgt id='1881'> +1.3701836e-12 </wgt>
<wgt id='1882'> +1.3630195e-12 </wgt>
<wgt id='1883'> +1.3807594e-12 </wgt>
<wgt id='1884'> +1.3744700e-12 </wgt>
<wgt id='1885'> +1.3540161e-12 </wgt>
<wgt id='1886'> +1.3580782e-12 </wgt>
<wgt id='1887'> +1.3799540e-12 </wgt>
<wgt id='1888'> +1.3855218e-12 </wgt>
<wgt id='1889'> +1.3596323e-12 </wgt>
<wgt id='1890'> +1.4220109e-12 </wgt>
<wgt id='1891'> +1.3541540e-12 </wgt>
<wgt id='1892'> +1.4273869e-12 </wgt>
<wgt id='1893'> +1.3724953e-12 </wgt>
<wgt id='1894'> +1.3748518e-12 </wgt>
<wgt id='1895'> +1.3581032e-12 </wgt>
<wgt id='1896'> +1.3566877e-12 </wgt>
<wgt id='1897'> +1.3795675e-12 </wgt>
<wgt id='1898'> +1.3757424e-12 </wgt>
<wgt id='1899'> +1.3234600e-12 </wgt>
<wgt id='1900'> +1.3595861e-12 </wgt>
<wgt id='1901'> +1.3561814e-12 </wgt>
<wgt id='1902'> +1.3522070e-12 </wgt>
<wgt id='1903'> +1.3825762e-12 </wgt>
<wgt id='1904'> +1.3710582e-12 </wgt>
<wgt id='1905'> +1.3321996e-12 </wgt>
<wgt id='1906'> +1.3640977e-12 </wgt>
<wgt id='1907'> +1.3569067e-12 </wgt>
<wgt id='1908'> +1.3472161e-12 </wgt>
<wgt id='1909'> +1.3337771e-12 </wgt>
<wgt id='1910'> +1.3659072e-12 </wgt>
<wgt id='1911'> +1.3372418e-12 </wgt>
<wgt id='1912'> +1.3530245e-12 </wgt>
<wgt id='1913'> +1.3393946e-12 </wgt>
<wgt id='1914'> +1.3878331e-12 </wgt>
<wgt id='1915'> +1.3546801e-12 </wgt>
<wgt id='1916'> +1.3035816e-12 </wgt>
<wgt id='1917'> +1.3570965e-12 </wgt>
<wgt id='1918'> +1.3764973e-12 </wgt>
<wgt id='1919'> +1.3595135e-12 </wgt>
</rwgt>
</event>
<event>
 9      1 +1.5538000e-12 2.90337700e+01 7.81860800e-03 1.45955900e-01
       21 -1    0    0  501  502 +0.0000000000e+00 +0.0000000000e+00 +5.3452912662e+00 5.3452912662e+00 0.0000000000e+00 0.0000e+00 1.0000e+00
       -3 -1    0    0    0  501 -0.0000000000e+00 -0.0000000000e+00 -1.9528548817e+02 1.9528548817e+02 0.0000000000e+00 0.0000e+00 -1.0000e+00
     1023  2    1    2    0    0 +1.9645283056e+01 +1.5232363212e+01 -1.5531884611e+02 1.5800918906e+02 1.4999927835e+01 0.0000e+00 0.0000e+00
  1000023  2    3    3    0    0 +1.7557275242e+00 +5.6691261329e+00 -4.7635224885e+01 4.8317557745e+01 5.5000151158e+00 0.0000e+00 0.0000e+00
       -3  1    1    2    0  502 -1.9645283056e+01 -1.5232363212e+01 -3.4621350794e+01 4.2621590377e+01 0.0000000000e+00 0.0000e+00 -1.0000e+00
  1000022  1    4    4    0    0 +1.4737611471e+00 +4.6159023236e+00 -4.0423191157e+01 4.1018445966e+01 5.0000000000e+00 0.0000e+00 1.0000e+00
      -11  1    4    4    0    0 +1.4188403263e-01 +4.8960605575e-01 -4.2686801649e+00 4.2990086973e+00 5.1100000000e-04 0.0000e+00 -1.0000e+00
       11  1    4    4    0    0 +1.4008234445e-01 +5.6361775354e-01 -2.9433535639e+00 3.0001030813e+00 5.1100000000e-04 0.0000e+00 1.0000e+00
  1000022  1    3    3    0    0 +1.7889555532e+01 +9.5632370795e+00 -1.0768362122e+02 1.0969163131e+02 5.0000000000e+00 0.0000e+00 1.0000e+00
<mgrwt>
<rscale>  1 0.29033771E+02</rscale>
<asrwt>0</asrwt>
<pdfrwt beam="1">  1       21 0.82235273E-03 0.29033771E+02</pdfrwt>
<pdfrwt beam="2">  1       -3 0.30043913E-01 0.29033771E+02</pdfrwt>
<totfact> 0.25276117E+06</totfact>
</mgrwt>
<rwgt>
<wgt id='1001'> +1.5538000e-12 </wgt>
<wgt id='1002'> +1.6353786e-12 </wgt>
<wgt id='1003'> +1.6408987e-12 </wgt>
<wgt id='1004'> +1.5393527e-12 </wgt>
<wgt id='1005'> +1.6585280e-12 </wgt>
<wgt id='1006'> +1.3583723e-12 </wgt>
<wgt id='1007'> +1.4500053e-12 </wgt>
<wgt id='1008'> +1.4565280e-12 </wgt>
<wgt id='1009'> +1.3428405e-12 </wgt>
<wgt id='1010'> +1.4778725e-12 </wgt>
<wgt id='1011'> +1.8181912e-12 </wgt>
<wgt id='1012'> +1.8775022e-12 </wgt>
<wgt id='1013'> +1.8810290e-12 </wgt>
<wgt id='1014'> +1.8066867e-12 </wgt>
<wgt id='1015'> +1.8916034e-12 </wgt>
<wgt id='1016'> +1.8858457e-12 </wgt>
<wgt id='1017'> +1.9056940e-12 </wgt>
<wgt id='1018'> +1.9063223e-12 </wgt>
<wgt id='1019'> +1.8810290e-12 </wgt>
<wgt id='1020'> +1.9074263e-12 </wgt>
<wgt id='1021'> +1.6486552e-12 </wgt>
<wgt id='1022'> +1.6896800e-12 </wgt>
<wgt id='1023'> +1.6921287e-12 </wgt>
<wgt id='1024'> +1.6408987e-12 </wgt>
<wgt id='1025'> +1.6996594e-12 </wgt>
<wgt id='1026'> +2.2067371e-12 </wgt>
<wgt id='1027'> +2.1878388e-12 </wgt>
<wgt id='1028'> +2.1852949e-12 </wgt>
<wgt id='1029'> +2.2077007e-12 </wgt>
<wgt id='1030'> +2.1754797e-12 </wgt>
<wgt id='1031'> +1.1871522e-12 </wgt>
<wgt id='1032'> +1.3321541e-12 </wgt>
<wgt id='1033'> +1.3428405e-12 </wgt>
<wgt id='1034'> +1.1634034e-12 </wgt>
<wgt id='1035'> +1.3787976e-12 </wgt>
<wgt id='1036'> +1.0378393e-12 </wgt>
<wgt id='1037'> +1.1811519e-12 </wgt>
<wgt id='1038'> +1.1919595e-12 </wgt>
<wgt id='1039'> +1.0148845e-12 </wgt>
<wgt id='1040'> +1.2286118e-12 </wgt>
<wgt id='1041'> +1.3891554e-12 </wgt>
<wgt id='1042'> +1.5293842e-12 </wgt>
<wgt id='1043'> +1.5393527e-12 </wgt>
<wgt id='1044'> +1.3654476e-12 </wgt>
<wgt id='1045'> +1.5725621e-12 </wgt>
<wgt id='1046'> +1.5538000e-12 </wgt>
<wgt id='1047'> +1.2878032e-12 </wgt>
<wgt id='1048'> +1.5808133e-12 </wgt>
<wgt id='1049'> +1.6441687e-12 </wgt>
<wgt id='1050'> +1.5263961e-12 </wgt>
<wgt id='1051'> +1.6176020e-12 </wgt>
<wgt id='1052'> +1.4483406e-12 </wgt>
<wgt id='1053'> +1.3436435e-12 </wgt>
<wgt id='1054'> +1.7148941e-12 </wgt>
<wgt id='1055'> +1.6553029e-12 </wgt>
<wgt id='1056'> +1.4869537e-12 </wgt>
<wgt id='1057'> +1.6085023e-12 </wgt>
<wgt id='1058'> +1.6130452e-12 </wgt>
<wgt id='1059'> +1.5743668e-12 </wgt>
<wgt id='1060'> +1.5902882e-12 </wgt>
<wgt id='1061'> +1.5908762e-12 </wgt>
<wgt id='1062'> +1.4233423e-12 </wgt>
<wgt id='1063'> +1.4601393e-12 </wgt>
<wgt id='1064'> +1.4785079e-12 </wgt>
<wgt id='1065'> +1.5910419e-12 </wgt>
<wgt id='1066'> +1.7014711e-12 </wgt>
<wgt id='1067'> +1.5916401e-12 </wgt>
<wgt id='1068'> +1.5956765e-12 </wgt>
<wgt id='1069'> +1.4902573e-12 </wgt>
<wgt id='1070'> +1.5760247e-12 </wgt>
<wgt id='1071'> +1.5682307e-12 </wgt>
<wgt id='1072'> +1.5526674e-12 </wgt>
<wgt id='1073'> +1.5155872e-12 </wgt>
<wgt id='1074'> +1.6524903e-12 </wgt>
<wgt id='1075'> +1.4000943e-12 </wgt>
<wgt id='1076'> +1.5308959e-12 </wgt>
<wgt id='1077'> +1.4868858e-12 </wgt>
<wgt id='1078'> +1.6095114e-12 </wgt>
<wgt id='1079'> +1.4001643e-12 </wgt>
<wgt id='1080'> +1.6833978e-12 </wgt>
<wgt id='1081'> +1.4692048e-12 </wgt>
<wgt id='1082'> +1.5928919e-12 </wgt>
<wgt id='1083'> +1.4798483e-12 </wgt>
<wgt id='1084'> +1.5646926e-12 </wgt>
<wgt id='1085'> +1.6565080e-12 </wgt>
<wgt id='1086'> +1.5078651e-12 </wgt>
<wgt id='1087'> +1.5187016e-12 </wgt>
<wgt id='1088'> +1.5357997e-12 </wgt>
<wgt id='1089'> +1.5289077e-12 </wgt>
<wgt id='1090'> +1.4435298e-12 </wgt>
<wgt id='1091'> +1.6075833e-12 </wgt>
<wgt id='1092'> +1.4622029e-12 </wgt>
<wgt id='1093'> +1.6101702e-12 </wgt>
<wgt id='1094'> +1.7388072e-12 </wgt>
<wgt id='1095'> +1.5801563e-12 </wgt>
<wgt id='1096'> +1.5128372e-12 </wgt>
<wgt id='1097'> +1.6201488e-12 </wgt>
<wgt id='1098'> +1.5085513e-12 </wgt>
<wgt id='1099'> +1.6250911e-12 </wgt>
<wgt id='1100'> +1.4964984e-12 </wgt>
<wgt id='1101'> +1.5093493e-12 </wgt>
<wgt id='1102'> +1.6087476e-12 </wgt>
<wgt id='1103'> +1.5519714e-12 </wgt>
<wgt id='1104'> +1.6371491e-12 </wgt>
<wgt id='1105'> +1.4901102e-12 </wgt>
<wgt id='1106'> +1.5411063e-12 </wgt>
<wgt id='1107'> +1.4591344e-12 </wgt>
<wgt id='1108'> +1.6087117e-12 </wgt>
<wgt id='1109'> +1.4970927e-12 </wgt>
<wgt id='1110'> +1.5547571e-12 </wgt>
<wgt id='1111'> +1.3774507e-12 </wgt>
<wgt id='1112'> +1.5400599e-12 </wgt>
<wgt id='1113'> +1.4643007e-12 </wgt>
<wgt id='1114'> +1.5529368e-12 </wgt>
<wgt id='1115'> +1.5288419e-12 </wgt>
<wgt id='1116'> +1.6648679e-12 </wgt>
<wgt id='1117'> +1.5367370e-12 </wgt>
<wgt id='1118'> +1.5410277e-12 </wgt>
<wgt id='1119'> +1.6889429e-12 </wgt>
<wgt id='1120'> +1.5545148e-12 </wgt>
<wgt id='1121'> +1.7144109e-12 </wgt>
<wgt id='1122'> +1.4439846e-12 </wgt>
<wgt id='1123'> +1.4646914e-12 </wgt>
<wgt id='1124'> +1.5159619e-12 </wgt>
<wgt id='1125'> +1.6337565e-12 </wgt>
<wgt id='1126'> +1.4714589e-12 </wgt>
<wgt id='1127'> +1.5920494e-12 </wgt>
<wgt id='1128'> +1.4233423e-12 </wgt>
<wgt id='1129'> +1.6449059e-12 </wgt>
<wgt id='1130'> +1.6701747e-12 </wgt>
<wgt id='1131'> +1.5537924e-12 </wgt>
<wgt id='1132'> +1.6199265e-12 </wgt>
<wgt id='1133'> +1.6777071e-12 </wgt>
<wgt id='1134'> +1.4717622e-12 </wgt>
<wgt id='1135'> +1.9060282e-12 </wgt>
<wgt id='1136'> +1.5714872e-12 </wgt>
<wgt id='1137'> +1.4934125e-12 </wgt>
<wgt id='1138'> +1.6169862e-12 </wgt>
<wgt id='1139'> +1.6861713e-12 </wgt>
<wgt id='1140'> +1.4607393e-12 </wgt>
<wgt id='1141'> +1.4824808e-12 </wgt>
<wgt id='1142'> +1.6030320e-12 </wgt>
<wgt id='1143'> +1.5062606e-12 </wgt>
<wgt id='1144'> +1.4812192e-12 </wgt>
<wgt id='1145'> +1.6252365e-12 </wgt>
<wgt id='1146'> +1.4905496e-12 </wgt>
<wgt id='1147'> +1.4170076e-12 </wgt>
<wgt id='1148'> +1.4493892e-12 </wgt>
<wgt id='1149'> +1.2655200e-12 </wgt>
<wgt id='1150'> +1.2464649e-12 </wgt>
<wgt id='1151'> +1.2150402e-12 </wgt>
<wgt id='1152'> +1.7066028e-12 </wgt>
<wgt id='1153'> +1.7010535e-12 </wgt>
<wgt id='1154'> +1.7097885e-12 </wgt>
<wgt id='1155'> +1.7085858e-12 </wgt>
<wgt id='1156'> +1.7055408e-12 </wgt>
<wgt id='1157'> +1.7042653e-12 </wgt>
<wgt id='1158'> +1.7096283e-12 </wgt>
<wgt id='1159'> +1.6779963e-12 </wgt>
<wgt id='1160'> +1.7249323e-12 </wgt>
<wgt id='1161'> +1.6885454e-12 </wgt>
<wgt id='1162'> +1.7189094e-12 </wgt>
<wgt id='1163'> +1.6824487e-12 </wgt>
<wgt id='1164'> +1.7304948e-12 </wgt>
<wgt id='1165'> +1.6897521e-12 </wgt>
<wgt id='1166'> +1.7229558e-12 </wgt>
<wgt id='1167'> +1.7329461e-12 </wgt>
<wgt id='1168'> +1.6722755e-12 </wgt>
<wgt id='1169'> +1.7112584e-12 </wgt>
<wgt id='1170'> +1.7030345e-12 </wgt>
<wgt id='1171'> +1.6954852e-12 </wgt>
<wgt id='1172'> +1.7205831e-12 </wgt>
<wgt id='1173'> +1.6917666e-12 </wgt>
<wgt id='1174'> +1.7205280e-12 </wgt>
<wgt id='1175'> +1.6896207e-12 </wgt>
<wgt id='1176'> +1.7191923e-12 </wgt>
<wgt id='1177'> +1.7082216e-12 </wgt>
<wgt id='1178'> +1.7022136e-12 </wgt>
<wgt id='1179'> +1.7172991e-12 </wgt>
<wgt id='1180'> +1.6883934e-12 </wgt>
<wgt id='1181'> +1.7053652e-12 </wgt>
<wgt id='1182'> +1.7079162e-12 </wgt>
<wgt id='1183'> +1.7041356e-12 </wgt>
<wgt id='1184'> +1.7069008e-12 </wgt>
<wgt id='1185'> +1.7355398e-12 </wgt>
<wgt id='1186'> +1.6856228e-12 </wgt>
<wgt id='1187'> +1.6580858e-12 </wgt>
<wgt id='1188'> +1.7273546e-12 </wgt>
<wgt id='1189'> +1.6990225e-12 </wgt>
<wgt id='1190'> +1.6920230e-12 </wgt>
<wgt id='1191'> +1.7005541e-12 </wgt>
<wgt id='1192'> +1.7084910e-12 </wgt>
<wgt id='1193'> +1.2591769e-12 </wgt>
<wgt id='1194'> +1.2544186e-12 </wgt>
<wgt id='1195'> +1.2630453e-12 </wgt>
<wgt id='1196'> +1.2497450e-12 </wgt>
<wgt id='1197'> +1.2697840e-12 </wgt>
<wgt id='1198'> +1.2737374e-12 </wgt>
<wgt id='1199'> +1.2377148e-12 </wgt>
<wgt id='1200'> +1.2509903e-12 </wgt>
<wgt id='1201'> +1.2647039e-12 </wgt>
<wgt id='1202'> +1.2650610e-12 </wgt>
<wgt id='1203'> +1.2507233e-12 </wgt>
<wgt id='1204'> +1.2444924e-12 </wgt>
<wgt id='1205'> +1.2682126e-12 </wgt>
<wgt id='1206'> +1.2631997e-12 </wgt>
<wgt id='1207'> +1.2537375e-12 </wgt>
<wgt id='1208'> +1.2529480e-12 </wgt>
<wgt id='1209'> +1.2615095e-12 </wgt>
<wgt id='1210'> +1.2612430e-12 </wgt>
<wgt id='1211'> +1.2486551e-12 </wgt>
<wgt id='1212'> +1.2559731e-12 </wgt>
<wgt id='1213'> +1.2622336e-12 </wgt>
<wgt id='1214'> +1.2419160e-12 </wgt>
<wgt id='1215'> +1.2870152e-12 </wgt>
<wgt id='1216'> +1.2681665e-12 </wgt>
<wgt id='1217'> +1.2529135e-12 </wgt>
<wgt id='1218'> +1.2619525e-12 </wgt>
<wgt id='1219'> +1.2575017e-12 </wgt>
<wgt id='1220'> +1.2676323e-12 </wgt>
<wgt id='1221'> +1.2556025e-12 </wgt>
<wgt id='1222'> +1.2690789e-12 </wgt>
<wgt id='1223'> +1.2452411e-12 </wgt>
<wgt id='1224'> +1.2482306e-12 </wgt>
<wgt id='1225'> +1.2633882e-12 </wgt>
<wgt id='1226'> +1.2758889e-12 </wgt>
<wgt id='1227'> +1.2470926e-12 </wgt>
<wgt id='1228'> +1.2543285e-12 </wgt>
<wgt id='1229'> +1.2614027e-12 </wgt>
<wgt id='1230'> +1.2623545e-12 </wgt>
<wgt id='1231'> +1.2518191e-12 </wgt>
<wgt id='1232'> +1.2189994e-12 </wgt>
<wgt id='1233'> +1.2741204e-12 </wgt>
<wgt id='1234'> +1.2591769e-12 </wgt>
<wgt id='1235'> +1.2504100e-12 </wgt>
<wgt id='1236'> +1.2537920e-12 </wgt>
<wgt id='1237'> +1.2567460e-12 </wgt>
<wgt id='1238'> +1.2618647e-12 </wgt>
<wgt id='1239'> +1.2638886e-12 </wgt>
<wgt id='1240'> +1.2659078e-12 </wgt>
<wgt id='1241'> +1.2257227e-12 </wgt>
<wgt id='1242'> +1.2178724e-12 </wgt>
<wgt id='1243'> +1.2334304e-12 </wgt>
<wgt id='1244'> +1.2238942e-12 </wgt>
<wgt id='1245'> +1.2270804e-12 </wgt>
<wgt id='1246'> +1.2286702e-12 </wgt>
<wgt id='1247'> +1.2232622e-12 </wgt>
<wgt id='1248'> +1.2319814e-12 </wgt>
<wgt id='1249'> +1.2165275e-12 </wgt>
<wgt id='1250'> +1.2026035e-12 </wgt>
<wgt id='1251'> +1.2420663e-12 </wgt>
<wgt id='1252'> +1.2179839e-12 </wgt>
<wgt id='1253'> +1.2317320e-12 </wgt>
<wgt id='1254'> +1.2290654e-12 </wgt>
<wgt id='1255'> +1.2235869e-12 </wgt>
<wgt id='1256'> +1.2288207e-12 </wgt>
<wgt id='1257'> +1.2179964e-12 </wgt>
<wgt id='1258'> +1.2480903e-12 </wgt>
<wgt id='1259'> +1.2059269e-12 </wgt>
<wgt id='1260'> +1.2324696e-12 </wgt>
<wgt id='1261'> +1.2180598e-12 </wgt>
<wgt id='1262'> +1.2271557e-12 </wgt>
<wgt id='1263'> +1.2250007e-12 </wgt>
<wgt id='1264'> +1.2333231e-12 </wgt>
<wgt id='1265'> +1.2221513e-12 </wgt>
<wgt id='1266'> +1.2118676e-12 </wgt>
<wgt id='1267'> +1.2385558e-12 </wgt>
<wgt id='1268'> +1.2276072e-12 </wgt>
<wgt id='1269'> +1.2272190e-12 </wgt>
<wgt id='1270'> +1.2264449e-12 </wgt>
<wgt id='1271'> +1.2218676e-12 </wgt>
<wgt id='1272'> +1.2248923e-12 </wgt>
<wgt id='1273'> +1.2258012e-12 </wgt>
<wgt id='1274'> +1.2127749e-12 </wgt>
<wgt id='1275'> +1.2441620e-12 </wgt>
<wgt id='1276'> +1.2269812e-12 </wgt>
<wgt id='1277'> +1.2234331e-12 </wgt>
<wgt id='1278'> +1.2263502e-12 </wgt>
<wgt id='1279'> +1.2258771e-12 </wgt>
<wgt id='1280'> +1.2385378e-12 </wgt>
<wgt id='1281'> +1.1749735e-12 </wgt>
<wgt id='1282'> +1.2257227e-12 </wgt>
<wgt id='1283'> +1.2161977e-12 </wgt>
<wgt id='1284'> +1.2203064e-12 </wgt>
<wgt id='1285'> +1.2231883e-12 </wgt>
<wgt id='1286'> +1.2285911e-12 </wgt>
<wgt id='1287'> +1.2307134e-12 </wgt>
<wgt id='1288'> +1.2325592e-12 </wgt>
<wgt id='1289'> +1.3868631e-12 </wgt>
<wgt id='1290'> +1.3872926e-12 </wgt>
<wgt id='1291'> +1.3864750e-12 </wgt>
<wgt id='1292'> +1.3827254e-12 </wgt>
<wgt id='1293'> +1.3898392e-12 </wgt>
<wgt id='1294'> +1.3793796e-12 </wgt>
<wgt id='1295'> +1.3941646e-12 </wgt>
<wgt id='1296'> +1.3859797e-12 </wgt>
<wgt id='1297'> +1.3878972e-12 </wgt>
<wgt id='1298'> +1.3899669e-12 </wgt>
<wgt id='1299'> +1.3829516e-12 </wgt>
<wgt id='1300'> +1.3954106e-12 </wgt>
<wgt id='1301'> +1.3698067e-12 </wgt>
<wgt id='1302'> +1.3899291e-12 </wgt>
<wgt id='1303'> +1.3826138e-12 </wgt>
<wgt id='1304'> +1.3890395e-12 </wgt>
<wgt id='1305'> +1.3852912e-12 </wgt>
<wgt id='1306'> +1.3891882e-12 </wgt>
<wgt id='1307'> +1.3843807e-12 </wgt>
<wgt id='1308'> +1.4400489e-12 </wgt>
<wgt id='1309'> +1.3462432e-12 </wgt>
<wgt id='1310'> +1.3876161e-12 </wgt>
<wgt id='1311'> +1.3862787e-12 </wgt>
<wgt id='1312'> +1.3795097e-12 </wgt>
<wgt id='1313'> +1.3946334e-12 </wgt>
<wgt id='1314'> +1.3868183e-12 </wgt>
<wgt id='1315'> +1.3802229e-12 </wgt>
<wgt id='1316'> +1.3967876e-12 </wgt>
<wgt id='1317'> +1.3851953e-12 </wgt>
<wgt id='1318'> +1.3991826e-12 </wgt>
<wgt id='1319'> +1.3719959e-12 </wgt>
<wgt id='1320'> +1.3925683e-12 </wgt>
<wgt id='1321'> +1.3808440e-12 </wgt>
<wgt id='1322'> +1.3881095e-12 </wgt>
<wgt id='1323'> +1.3849980e-12 </wgt>
<wgt id='1324'> +1.3879534e-12 </wgt>
<wgt id='1325'> +1.3894305e-12 </wgt>
<wgt id='1326'> +1.3961944e-12 </wgt>
<wgt id='1327'> +1.3817857e-12 </wgt>
<wgt id='1328'> +1.3915490e-12 </wgt>
<wgt id='1329'> +1.3825922e-12 </wgt>
<wgt id='1330'> +1.4646730e-12 </wgt>
<wgt id='1331'> +1.2801901e-12 </wgt>
<wgt id='1332'> +1.3587928e-12 </wgt>
<wgt id='1333'> +1.3868731e-12 </wgt>
<wgt id='1334'> +1.4253200e-12 </wgt>
<wgt id='1335'> +1.2851224e-12 </wgt>
<wgt id='1336'> +1.3779092e-12 </wgt>
<wgt id='1337'> +1.3992514e-12 </wgt>
<wgt id='1338'> +1.3851589e-12 </wgt>
<wgt id='1339'> +1.3876304e-12 </wgt>
<wgt id='1340'> +1.3224992e-12 </wgt>
<wgt id='1341'> +1.3225032e-12 </wgt>
<wgt id='1342'> +1.3224541e-12 </wgt>
<wgt id='1343'> +1.3177540e-12 </wgt>
<wgt id='1344'> +1.3256452e-12 </wgt>
<wgt id='1345'> +1.3145448e-12 </wgt>
<wgt id='1346'> +1.3298869e-12 </wgt>
<wgt id='1347'> +1.3223925e-12 </wgt>
<wgt id='1348'> +1.3225118e-12 </wgt>
<wgt id='1349'> +1.3243511e-12 </wgt>
<wgt id='1350'> +1.3205438e-12 </wgt>
<wgt id='1351'> +1.3307818e-12 </wgt>
<wgt id='1352'> +1.3044451e-12 </wgt>
<wgt id='1353'> +1.3258168e-12 </wgt>
<wgt id='1354'> +1.3164800e-12 </wgt>
<wgt id='1355'> +1.3245916e-12 </wgt>
<wgt id='1356'> +1.3212378e-12 </wgt>
<wgt id='1357'> +1.3392315e-12 </wgt>
<wgt id='1358'> +1.3029082e-12 </wgt>
<wgt id='1359'> +1.3717068e-12 </wgt>
<wgt id='1360'> +1.2798896e-12 </wgt>
<wgt id='1361'> +1.3232351e-12 </wgt>
<wgt id='1362'> +1.3216452e-12 </wgt>
<wgt id='1363'> +1.3146177e-12 </wgt>
<wgt id='1364'> +1.3284200e-12 </wgt>
<wgt id='1365'> +1.3182246e-12 </wgt>
<wgt id='1366'> +1.3189812e-12 </wgt>
<wgt id='1367'> +1.3309716e-12 </wgt>
<wgt id='1368'> +1.3210598e-12 </wgt>
<wgt id='1369'> +1.3330283e-12 </wgt>
<wgt id='1370'> +1.3098203e-12 </wgt>
<wgt id='1371'> +1.3277296e-12 </wgt>
<wgt id='1372'> +1.3153890e-12 </wgt>
<wgt id='1373'> +1.3236874e-12 </wgt>
<wgt id='1374'> +1.3208123e-12 </wgt>
<wgt id='1375'> +1.3232013e-12 </wgt>
<wgt id='1376'> +1.3252766e-12 </wgt>
<wgt id='1377'> +1.3305498e-12 </wgt>
<wgt id='1378'> +1.3190236e-12 </wgt>
<wgt id='1379'> +1.3285460e-12 </wgt>
<wgt id='1380'> +1.3161252e-12 </wgt>
<wgt id='1381'> +1.3991403e-12 </wgt>
<wgt id='1382'> +1.2235703e-12 </wgt>
<wgt id='1383'> +1.2808685e-12 </wgt>
<wgt id='1384'> +1.3271682e-12 </wgt>
<wgt id='1385'> +1.3615149e-12 </wgt>
<wgt id='1386'> +1.2244025e-12 </wgt>
<wgt id='1387'> +1.3140034e-12 </wgt>
<wgt id='1388'> +1.3329587e-12 </wgt>
<wgt id='1389'> +1.3219133e-12 </wgt>
<wgt id='1390'> +1.3224849e-12 </wgt>
<wgt id='1391'> +1.3399958e-12 </wgt>
<wgt id='1392'> +1.2523332e-12 </wgt>
<wgt id='1393'> +1.2788837e-12 </wgt>
<wgt id='1394'> +1.3045606e-12 </wgt>
<wgt id='1395'> +1.3560100e-12 </wgt>
<wgt id='1396'> +1.3327896e-12 </wgt>
<wgt id='1397'> +1.3177559e-12 </wgt>
<wgt id='1398'> +1.3182017e-12 </wgt>
<wgt id='1399'> +1.3215854e-12 </wgt>
<wgt id='1400'> +1.3252003e-12 </wgt>
<wgt id='1401'> +1.3284128e-12 </wgt>
<wgt id='1402'> +1.3343749e-12 </wgt>
<wgt id='1403'> +1.3382933e-12 </wgt>
<wgt id='1404'> +1.3431944e-12 </wgt>
<wgt id='1405'> +1.3327896e-12 </wgt>
<wgt id='1406'> +1.3189487e-12 </wgt>
<wgt id='1407'> +1.3258360e-12 </wgt>
<wgt id='1408'> +1.3386604e-12 </wgt>
<wgt id='1409'> +1.3409225e-12 </wgt>
<wgt id='1410'> +1.2150179e-12 </wgt>
<wgt id='1411'> +1.2152910e-12 </wgt>
<wgt id='1412'> +1.2145731e-12 </wgt>
<wgt id='1413'> +1.2149875e-12 </wgt>
<wgt id='1414'> +1.2150398e-12 </wgt>
<wgt id='1415'> +1.2063185e-12 </wgt>
<wgt id='1416'> +1.2185208e-12 </wgt>
<wgt id='1417'> +1.2102695e-12 </wgt>
<wgt id='1418'> +1.2196808e-12 </wgt>
<wgt id='1419'> +1.2132128e-12 </wgt>
<wgt id='1420'> +1.2167057e-12 </wgt>
<wgt id='1421'> +1.1885878e-12 </wgt>
<wgt id='1422'> +1.2264543e-12 </wgt>
<wgt id='1423'> +1.2145397e-12 </wgt>
<wgt id='1424'> +1.2155866e-12 </wgt>
<wgt id='1425'> +1.2172205e-12 </wgt>
<wgt id='1426'> +1.2125775e-12 </wgt>
<wgt id='1427'> +1.2518747e-12 </wgt>
<wgt id='1428'> +1.1936085e-12 </wgt>
<wgt id='1429'> +1.1798446e-12 </wgt>
<wgt id='1430'> +1.2624730e-12 </wgt>
<wgt id='1431'> +1.2569119e-12 </wgt>
<wgt id='1432'> +1.1856801e-12 </wgt>
<wgt id='1433'> +1.2026916e-12 </wgt>
<wgt id='1434'> +1.2250616e-12 </wgt>
<wgt id='1435'> +1.2159211e-12 </wgt>
<wgt id='1436'> +1.2131394e-12 </wgt>
<wgt id='1437'> +1.2235366e-12 </wgt>
<wgt id='1438'> +1.2135019e-12 </wgt>
<wgt id='1439'> +1.2092808e-12 </wgt>
<wgt id='1440'> +1.2268189e-12 </wgt>
<wgt id='1441'> +1.2155199e-12 </wgt>
<wgt id='1442'> +1.2144558e-12 </wgt>
<wgt id='1443'> +1.2147834e-12 </wgt>
<wgt id='1444'> +1.2173662e-12 </wgt>
<wgt id='1445'> +1.2179681e-12 </wgt>
<wgt id='1446'> +1.2152957e-12 </wgt>
<wgt id='1447'> +1.2167069e-12 </wgt>
<wgt id='1448'> +1.2156563e-12 </wgt>
<wgt id='1449'> +1.2224259e-12 </wgt>
<wgt id='1450'> +1.2098445e-12 </wgt>
<wgt id='1451'> +1.1531707e-12 </wgt>
<wgt id='1452'> +1.3109432e-12 </wgt>
<wgt id='1453'> +1.2109463e-12 </wgt>
<wgt id='1454'> +1.2359367e-12 </wgt>
<wgt id='1455'> +1.2403056e-12 </wgt>
<wgt id='1456'> +1.1914629e-12 </wgt>
<wgt id='1457'> +1.1437170e-12 </wgt>
<wgt id='1458'> +1.2464594e-12 </wgt>
<wgt id='1459'> +1.2026560e-12 </wgt>
<wgt id='1460'> +1.2239499e-12 </wgt>
<wgt id='1461'> +1.2150179e-12 </wgt>
<wgt id='1462'> +1.1941950e-12 </wgt>
<wgt id='1463'> +1.2268879e-12 </wgt>
<wgt id='1464'> +1.2104821e-12 </wgt>
<wgt id='1465'> +1.1618379e-12 </wgt>
<wgt id='1466'> +1.1698848e-12 </wgt>
<wgt id='1467'> +1.1789986e-12 </wgt>
<wgt id='1468'> +1.1902141e-12 </wgt>
<wgt id='1469'> +1.2001896e-12 </wgt>
<wgt id='1470'> +1.2226411e-12 </wgt>
<wgt id='1471'> +1.2444631e-12 </wgt>
<wgt id='1472'> +1.2557405e-12 </wgt>
<wgt id='1473'> +1.2104821e-12 </wgt>
<wgt id='1474'> +1.1998418e-12 </wgt>
<wgt id='1475'> +1.2062201e-12 </wgt>
<wgt id='1476'> +1.2158880e-12 </wgt>
<wgt id='1477'> +1.2197341e-12 </wgt>
<wgt id='1478'> +1.2022747e-12 </wgt>
<wgt id='1479'> +1.1959239e-12 </wgt>
<wgt id='1480'> +1.1590150e-12 </wgt>
<wgt id='1481'> +1.2053212e-12 </wgt>
<wgt id='1482'> +1.1881964e-12 </wgt>
<wgt id='1483'> +1.2948529e-12 </wgt>
<wgt id='1484'> +1.2060802e-12 </wgt>
<wgt id='1485'> +1.1702803e-12 </wgt>
<wgt id='1486'> +1.2057743e-12 </wgt>
<wgt id='1487'> +1.2197857e-12 </wgt>
<wgt id='1488'> +1.2030207e-12 </wgt>
<wgt id='1489'> +1.2104829e-12 </wgt>
<wgt id='1490'> +1.1920940e-12 </wgt>
<wgt id='1491'> +1.2056403e-12 </wgt>
<wgt id='1492'> +1.2149448e-12 </wgt>
<wgt id='1493'> +1.1856108e-12 </wgt>
<wgt id='1494'> +1.1916572e-12 </wgt>
<wgt id='1495'> +1.1886271e-12 </wgt>
<wgt id='1496'> +1.2039992e-12 </wgt>
<wgt id='1497'> +1.2001041e-12 </wgt>
<wgt id='1498'> +1.2231177e-12 </wgt>
<wgt id='1499'> +1.1992686e-12 </wgt>
<wgt id='1500'> +1.1993734e-12 </wgt>
<wgt id='1501'> +1.2144011e-12 </wgt>
<wgt id='1502'> +1.2018529e-12 </wgt>
<wgt id='1503'> +1.2001980e-12 </wgt>
<wgt id='1504'> +1.2052338e-12 </wgt>
<wgt id='1505'> +1.2159094e-12 </wgt>
<wgt id='1506'> +1.1914458e-12 </wgt>
<wgt id='1507'> +1.2011120e-12 </wgt>
<wgt id='1508'> +1.1810746e-12 </wgt>
<wgt id='1509'> +1.2873003e-12 </wgt>
<wgt id='1510'> +1.2864440e-12 </wgt>
<wgt id='1511'> +1.2842658e-12 </wgt>
<wgt id='1512'> +1.2791010e-12 </wgt>
<wgt id='1513'> +1.2847301e-12 </wgt>
<wgt id='1514'> +1.2896561e-12 </wgt>
<wgt id='1515'> +1.2935283e-12 </wgt>
<wgt id='1516'> +1.2985442e-12 </wgt>
<wgt id='1517'> +1.3010255e-12 </wgt>
<wgt id='1518'> +1.2747907e-12 </wgt>
<wgt id='1519'> +1.2955691e-12 </wgt>
<wgt id='1520'> +1.2956956e-12 </wgt>
<wgt id='1521'> +1.2787190e-12 </wgt>
<wgt id='1522'> +1.2903676e-12 </wgt>
<wgt id='1523'> +1.2691469e-12 </wgt>
<wgt id='1524'> +1.2745318e-12 </wgt>
<wgt id='1525'> +1.2658646e-12 </wgt>
<wgt id='1526'> +1.2952811e-12 </wgt>
<wgt id='1527'> +1.2944901e-12 </wgt>
<wgt id='1528'> +1.2921111e-12 </wgt>
<wgt id='1529'> +1.2874036e-12 </wgt>
<wgt id='1530'> +1.2760532e-12 </wgt>
<wgt id='1531'> +1.2802893e-12 </wgt>
<wgt id='1532'> +1.3099398e-12 </wgt>
<wgt id='1533'> +1.2845255e-12 </wgt>
<wgt id='1534'> +1.2828637e-12 </wgt>
<wgt id='1535'> +1.3010378e-12 </wgt>
<wgt id='1536'> +1.2849895e-12 </wgt>
<wgt id='1537'> +1.2951906e-12 </wgt>
<wgt id='1538'> +1.2901504e-12 </wgt>
<wgt id='1539'> +1.2932291e-12 </wgt>
<wgt id='1540'> +1.2676685e-12 </wgt>
<wgt id='1541'> +1.2893332e-12 </wgt>
<wgt id='1542'> +1.2747856e-12 </wgt>
<wgt id='1543'> +1.2760582e-12 </wgt>
<wgt id='1544'> +1.2664387e-12 </wgt>
<wgt id='1545'> +1.2944092e-12 </wgt>
<wgt id='1546'> +1.3137673e-12 </wgt>
<wgt id='1547'> +1.2813370e-12 </wgt>
<wgt id='1548'> +1.2960775e-12 </wgt>
<wgt id='1549'> +1.2909486e-12 </wgt>
<wgt id='1550'> +1.3018265e-12 </wgt>
<wgt id='1551'> +1.2838130e-12 </wgt>
<wgt id='1552'> +1.2764152e-12 </wgt>
<wgt id='1553'> +1.2808760e-12 </wgt>
<wgt id='1554'> +1.2988278e-12 </wgt>
<wgt id='1555'> +1.2884662e-12 </wgt>
<wgt id='1556'> +1.2767006e-12 </wgt>
<wgt id='1557'> +1.2975596e-12 </wgt>
<wgt id='1558'> +1.2953304e-12 </wgt>
<wgt id='1559'> +1.2914926e-12 </wgt>
<wgt id='1560'> +1.2886320e-12 </wgt>
<wgt id='1561'> +1.2851753e-12 </wgt>
<wgt id='1562'> +1.2834765e-12 </wgt>
<wgt id='1563'> +1.2850004e-12 </wgt>
<wgt id='1564'> +1.2846994e-12 </wgt>
<wgt id='1565'> +1.2909856e-12 </wgt>
<wgt id='1566'> +1.2838765e-12 </wgt>
<wgt id='1567'> +1.2942290e-12 </wgt>
<wgt id='1568'> +1.2867676e-12 </wgt>
<wgt id='1569'> +1.2766904e-12 </wgt>
<wgt id='1570'> +1.2816447e-12 </wgt>
<wgt id='1571'> +1.2860401e-12 </wgt>
<wgt id='1572'> +1.2845599e-12 </wgt>
<wgt id='1573'> +1.2852326e-12 </wgt>
<wgt id='1574'> +1.2890107e-12 </wgt>
<wgt id='1575'> +1.2846106e-12 </wgt>
<wgt id='1576'> +1.2960345e-12 </wgt>
<wgt id='1577'> +1.2914135e-12 </wgt>
<wgt id='1578'> +1.2850063e-12 </wgt>
<wgt id='1579'> +1.2855315e-12 </wgt>
<wgt id='1580'> +1.2817966e-12 </wgt>
<wgt id='1581'> +1.2900259e-12 </wgt>
<wgt id='1582'> +1.2903809e-12 </wgt>
<wgt id='1583'> +1.2864852e-12 </wgt>
<wgt id='1584'> +1.2843653e-12 </wgt>
<wgt id='1585'> +1.2894377e-12 </wgt>
<wgt id='1586'> +1.2875359e-12 </wgt>
<wgt id='1587'> +1.2881639e-12 </wgt>
<wgt id='1588'> +1.2840701e-12 </wgt>
<wgt id='1589'> +1.2848391e-12 </wgt>
<wgt id='1590'> +1.2879609e-12 </wgt>
<wgt id='1591'> +1.2860883e-12 </wgt>
<wgt id='1592'> +1.2894938e-12 </wgt>
<wgt id='1593'> +1.2861168e-12 </wgt>
<wgt id='1594'> +1.2870151e-12 </wgt>
<wgt id='1595'> +1.2848605e-12 </wgt>
<wgt id='1596'> +1.2858009e-12 </wgt>
<wgt id='1597'> +1.2874316e-12 </wgt>
<wgt id='1598'> +1.2869229e-12 </wgt>
<wgt id='1599'> +1.2885813e-12 </wgt>
<wgt id='1600'> +1.2842765e-12 </wgt>
<wgt id='1601'> +1.2897761e-12 </wgt>
<wgt id='1602'> +1.2893040e-12 </wgt>
<wgt id='1603'> +1.2858147e-12 </wgt>
<wgt id='1604'> +1.2888767e-12 </wgt>
<wgt id='1605'> +1.2890662e-12 </wgt>
<wgt id='1606'> +1.2847270e-12 </wgt>
<wgt id='1607'> +1.2868633e-12 </wgt>
<wgt id='1608'> +1.2876873e-12 </wgt>
<wgt id='1609'> +1.2886606e-12 </wgt>
<wgt id='1610'> +1.2638463e-12 </wgt>
<wgt id='1611'> +1.3038313e-12 </wgt>
<wgt id='1612'> +1.4620492e-12 </wgt>
<wgt id='1613'> +1.3246110e-12 </wgt>
<wgt id='1614'> +1.3966040e-12 </wgt>
<wgt id='1615'> +1.5145095e-12 </wgt>
<wgt id='1616'> +1.4316479e-12 </wgt>
<wgt id='1617'> +1.4317725e-12 </wgt>
<wgt id='1618'> +1.3565030e-12 </wgt>
<wgt id='1619'> +1.2725161e-12 </wgt>
<wgt id='1620'> +1.3980004e-12 </wgt>
<wgt id='1621'> +1.4809009e-12 </wgt>
<wgt id='1622'> +1.4345300e-12 </wgt>
<wgt id='1623'> +1.5075278e-12 </wgt>
<wgt id='1624'> +1.4161491e-12 </wgt>
<wgt id='1625'> +1.3872053e-12 </wgt>
<wgt id='1626'> +1.5617958e-12 </wgt>
<wgt id='1627'> +1.4744132e-12 </wgt>
<wgt id='1628'> +1.5087087e-12 </wgt>
<wgt id='1629'> +1.3005660e-12 </wgt>
<wgt id='1630'> +1.4335252e-12 </wgt>
<wgt id='1631'> +1.3547882e-12 </wgt>
<wgt id='1632'> +1.5522039e-12 </wgt>
<wgt id='1633'> +1.6574165e-12 </wgt>
<wgt id='1634'> +1.4705553e-12 </wgt>
<wgt id='1635'> +1.5052935e-12 </wgt>
<wgt id='1636'> +1.3060528e-12 </wgt>
<wgt id='1637'> +1.5035544e-12 </wgt>
<wgt id='1638'> +1.5529067e-12 </wgt>
<wgt id='1639'> +1.4740271e-12 </wgt>
<wgt id='1640'> +1.5418145e-12 </wgt>
<wgt id='1641'> +1.4680309e-12 </wgt>
<wgt id='1642'> +1.5884700e-12 </wgt>
<wgt id='1643'> +1.4529393e-12 </wgt>
<wgt id='1644'> +1.5794883e-12 </wgt>
<wgt id='1645'> +1.4620130e-12 </wgt>
<wgt id='1646'> +1.5032395e-12 </wgt>
<wgt id='1647'> +1.5951138e-12 </wgt>
<wgt id='1648'> +1.4565830e-12 </wgt>
<wgt id='1649'> +1.5370220e-12 </wgt>
<wgt id='1650'> +1.5655157e-12 </wgt>
<wgt id='1651'> +1.4328979e-12 </wgt>
<wgt id='1652'> +1.3812754e-12 </wgt>
<wgt id='1653'> +1.3649253e-12 </wgt>
<wgt id='1654'> +1.4179104e-12 </wgt>
<wgt id='1655'> +1.4346961e-12 </wgt>
<wgt id='1656'> +1.6446269e-12 </wgt>
<wgt id='1657'> +1.3469285e-12 </wgt>
<wgt id='1658'> +1.7107276e-12 </wgt>
<wgt id='1659'> +1.4161491e-12 </wgt>
<wgt id='1660'> +1.3277890e-12 </wgt>
<wgt id='1661'> +1.6100015e-12 </wgt>
<wgt id='1662'> +1.5415846e-12 </wgt>
<wgt id='1663'> +1.4776922e-12 </wgt>
<wgt id='1664'> +1.5319540e-12 </wgt>
<wgt id='1665'> +1.7742701e-12 </wgt>
<wgt id='1666'> +1.4335461e-12 </wgt>
<wgt id='1667'> +1.3751426e-12 </wgt>
<wgt id='1668'> +1.3286024e-12 </wgt>
<wgt id='1669'> +1.3697256e-12 </wgt>
<wgt id='1670'> +1.3965150e-12 </wgt>
<wgt id='1671'> +1.4984869e-12 </wgt>
<wgt id='1672'> +1.4680855e-12 </wgt>
<wgt id='1673'> +1.4655489e-12 </wgt>
<wgt id='1674'> +1.4533488e-12 </wgt>
<wgt id='1675'> +1.4743624e-12 </wgt>
<wgt id='1676'> +1.4126782e-12 </wgt>
<wgt id='1677'> +1.4052705e-12 </wgt>
<wgt id='1678'> +1.3573173e-12 </wgt>
<wgt id='1679'> +1.4342960e-12 </wgt>
<wgt id='1680'> +1.4550233e-12 </wgt>
<wgt id='1681'> +1.4559220e-12 </wgt>
<wgt id='1682'> +1.4826288e-12 </wgt>
<wgt id='1683'> +1.5723537e-12 </wgt>
<wgt id='1684'> +1.5380933e-12 </wgt>
<wgt id='1685'> +1.4962110e-12 </wgt>
<wgt id='1686'> +1.4840795e-12 </wgt>
<wgt id='1687'> +1.4233673e-12 </wgt>
<wgt id='1688'> +1.6028775e-12 </wgt>
<wgt id='1689'> +1.3989652e-12 </wgt>
<wgt id='1690'> +1.4182394e-12 </wgt>
<wgt id='1691'> +1.4251880e-12 </wgt>
<wgt id='1692'> +1.3268047e-12 </wgt>
<wgt id='1693'> +1.4531835e-12 </wgt>
<wgt id='1694'> +1.5018659e-12 </wgt>
<wgt id='1695'> +1.6029521e-12 </wgt>
<wgt id='1696'> +1.3775970e-12 </wgt>
<wgt id='1697'> +1.3251000e-12 </wgt>
<wgt id='1698'> +1.4813775e-12 </wgt>
<wgt id='1699'> +1.3186487e-12 </wgt>
<wgt id='1700'> +1.4638623e-12 </wgt>
<wgt id='1701'> +1.3304938e-12 </wgt>
<wgt id='1702'> +1.3858866e-12 </wgt>
<wgt id='1703'> +1.4078417e-12 </wgt>
<wgt id='1704'> +1.5108202e-12 </wgt>
<wgt id='1705'> +1.5014262e-12 </wgt>
<wgt id='1706'> +1.4024425e-12 </wgt>
<wgt id='1707'> +1.4697270e-12 </wgt>
<wgt id='1708'> +1.5188982e-12 </wgt>
<wgt id='1709'> +1.5592601e-12 </wgt>
<wgt id='1710'> +1.4423734e-12 </wgt>
<wgt id='1711'> +1.6348491e-12 </wgt>
<wgt id='1712'> +1.4083788e-12 </wgt>
<wgt id='1713'> +1.0900064e-12 </wgt>
<wgt id='1714'> +1.0161656e-12 </wgt>
<wgt id='1715'> +1.0987649e-12 </wgt>
<wgt id='1716'> +1.0780028e-12 </wgt>
<wgt id='1717'> +1.0332630e-12 </wgt>
<wgt id='1718'> +1.0719418e-12 </wgt>
<wgt id='1719'> +1.2101971e-12 </wgt>
<wgt id='1720'> +1.0392517e-12 </wgt>
<wgt id='1721'> +1.1040806e-12 </wgt>
<wgt id='1722'> +1.1280312e-12 </wgt>
<wgt id='1723'> +1.1636035e-12 </wgt>
<wgt id='1724'> +1.0302707e-12 </wgt>
<wgt id='1725'> +1.0517737e-12 </wgt>
<wgt id='1726'> +1.1201404e-12 </wgt>
<wgt id='1727'> +1.0450950e-12 </wgt>
<wgt id='1728'> +1.2158067e-12 </wgt>
<wgt id='1729'> +1.0659055e-12 </wgt>
<wgt id='1730'> +1.0968927e-12 </wgt>
<wgt id='1731'> +1.2159113e-12 </wgt>
<wgt id='1732'> +1.0164179e-12 </wgt>
<wgt id='1733'> +1.0135376e-12 </wgt>
<wgt id='1734'> +1.0634290e-12 </wgt>
<wgt id='1735'> +1.0459298e-12 </wgt>
<wgt id='1736'> +1.1372794e-12 </wgt>
<wgt id='1737'> +9.9998611e-13 </wgt>
<wgt id='1738'> +1.0473175e-12 </wgt>
<wgt id='1739'> +1.1552963e-12 </wgt>
<wgt id='1740'> +1.0659385e-12 </wgt>
<wgt id='1741'> +9.9074745e-13 </wgt>
<wgt id='1742'> +1.1008908e-12 </wgt>
<wgt id='1743'> +1.0871339e-12 </wgt>
<wgt id='1744'> +1.1584386e-12 </wgt>
<wgt id='1745'> +1.1788331e-12 </wgt>
<wgt id='1746'> +1.0285669e-12 </wgt>
<wgt id='1747'> +1.1638440e-12 </wgt>
<wgt id='1748'> +1.1054634e-12 </wgt>
<wgt id='1749'> +1.0538056e-12 </wgt>
<wgt id='1750'> +1.1290120e-12 </wgt>
<wgt id='1751'> +1.0189838e-12 </wgt>
<wgt id='1752'> +1.0563745e-12 </wgt>
<wgt id='1753'> +1.0608097e-12 </wgt>
<wgt id='1754'> +1.0490749e-12 </wgt>
<wgt id='1755'> +1.1157090e-12 </wgt>
<wgt id='1756'> +1.0990912e-12 </wgt>
<wgt id='1757'> +1.1904578e-12 </wgt>
<wgt id='1758'> +1.1509548e-12 </wgt>
<wgt id='1759'> +1.1338328e-12 </wgt>
<wgt id='1760'> +1.1553069e-12 </wgt>
<wgt id='1761'> +1.1020816e-12 </wgt>
<wgt id='1762'> +1.0765765e-12 </wgt>
<wgt id='1763'> +1.0983598e-12 </wgt>
<wgt id='1764'> +9.8285191e-13 </wgt>
<wgt id='1765'> +1.1081201e-12 </wgt>
<wgt id='1766'> +1.1751580e-12 </wgt>
<wgt id='1767'> +1.1598119e-12 </wgt>
<wgt id='1768'> +1.0838268e-12 </wgt>
<wgt id='1769'> +1.1128654e-12 </wgt>
<wgt id='1770'> +1.1232003e-12 </wgt>
<wgt id='1771'> +1.0604331e-12 </wgt>
<wgt id='1772'> +1.0798671e-12 </wgt>
<wgt id='1773'> +1.0906555e-12 </wgt>
<wgt id='1774'> +1.1441016e-12 </wgt>
<wgt id='1775'> +1.0684020e-12 </wgt>
<wgt id='1776'> +1.0856658e-12 </wgt>
<wgt id='1777'> +1.1655672e-12 </wgt>
<wgt id='1778'> +1.0635204e-12 </wgt>
<wgt id='1779'> +1.1712601e-12 </wgt>
<wgt id='1780'> +1.1395189e-12 </wgt>
<wgt id='1781'> +1.1133996e-12 </wgt>
<wgt id='1782'> +9.8620727e-13 </wgt>
<wgt id='1783'> +1.0584560e-12 </wgt>
<wgt id='1784'> +1.1357242e-12 </wgt>
<wgt id='1785'> +1.1249389e-12 </wgt>
<wgt id='1786'> +9.7704061e-13 </wgt>
<wgt id='1787'> +1.1462969e-12 </wgt>
<wgt id='1788'> +1.0306023e-12 </wgt>
<wgt id='1789'> +1.0506961e-12 </wgt>
<wgt id='1790'> +1.0986584e-12 </wgt>
<wgt id='1791'> +1.0967119e-12 </wgt>
<wgt id='1792'> +1.0323611e-12 </wgt>
<wgt id='1793'> +1.0871592e-12 </wgt>
<wgt id='1794'> +1.0904112e-12 </wgt>
<wgt id='1795'> +1.0227449e-12 </wgt>
<wgt id='1796'> +1.1051085e-12 </wgt>
<wgt id='1797'> +1.0504155e-12 </wgt>
<wgt id='1798'> +1.0526009e-12 </wgt>
<wgt id='1799'> +1.0954985e-12 </wgt>
<wgt id='1800'> +1.0334987e-12 </wgt>
<wgt id='1801'> +1.0229234e-12 </wgt>
<wgt id='1802'> +1.0549475e-12 </wgt>
<wgt id='1803'> +1.0143647e-12 </wgt>
<wgt id='1804'> +1.0789469e-12 </wgt>
<wgt id='1805'> +1.1165648e-12 </wgt>
<wgt id='1806'> +1.1126267e-12 </wgt>
<wgt id='1807'> +1.0763596e-12 </wgt>
<wgt id='1808'> +1.2216749e-12 </wgt>
<wgt id='1809'> +1.0990953e-12 </wgt>
<wgt id='1810'> +9.8870866e-13 </wgt>
<wgt id='1811'> +1.1637280e-12 </wgt>
<wgt id='1812'> +1.1028592e-12 </wgt>
<wgt id='1813'> +1.1076625e-12 </wgt>
<wgt id='1814'> +1.1151223e-12 </wgt>
<wgt id='1815'> +1.3605458e-12 </wgt>
<wgt id='1816'> +1.0900064e-12 </wgt>
<wgt id='1817'> +1.0161656e-12 </wgt>
<wgt id='1818'> +1.0987649e-12 </wgt>
<wgt id='1819'> +1.0780028e-12 </wgt>
<wgt id='1820'> +1.0332630e-12 </wgt>
<wgt id='1821'> +1.0719418e-12 </wgt>
<wgt id='1822'> +1.2101971e-12 </wgt>
<wgt id='1823'> +1.0392517e-12 </wgt>
<wgt id='1824'> +1.1040806e-12 </wgt>
<wgt id='1825'> +1.1280312e-12 </wgt>
<wgt id='1826'> +1.1636035e-12 </wgt>
<wgt id='1827'> +1.0302707e-12 </wgt>
<wgt id='1828'> +1.0517737e-12 </wgt>
<wgt id='1829'> +1.1201404e-12 </wgt>
<wgt id='1830'> +1.0450950e-12 </wgt>
<wgt id='1831'> +1.2158067e-12 </wgt>
<wgt id='1832'> +1.0659055e-12 </wgt>
<wgt id='1833'> +1.0968927e-12 </wgt>
<wgt id='1834'> +1.2159113e-12 </wgt>
<wgt id='1835'> +1.0164179e-12 </wgt>
<wgt id='1836'> +1.0135376e-12 </wgt>
<wgt id='1837'> +1.0634290e-12 </wgt>
<wgt id='1838'> +1.0459298e-12 </wgt>
<wgt id='1839'> +1.1372794e-12 </wgt>
<wgt id='1840'> +9.9998611e-13 </wgt>
<wgt id='1841'> +1.0473175e-12 </wgt>
<wgt id='1842'> +1.1552963e-12 </wgt>
<wgt id='1843'> +1.0659385e-12 </wgt>
<wgt id='1844'> +9.9074745e-13 </wgt>
<wgt id='1845'> +1.1008908e-12 </wgt>
<wgt id='1846'> +1.0871339e-12 </wgt>
<wgt id='1847'> +1.1584386e-12 </wgt>
<wgt id='1848'> +1.1788331e-12 </wgt>
<wgt id='1849'> +1.0285669e-12 </wgt>
<wgt id='1850'> +1.1638440e-12 </wgt>
<wgt id='1851'> +1.1054634e-12 </wgt>
<wgt id='1852'> +1.0538056e-12 </wgt>
<wgt id='1853'> +1.1290120e-12 </wgt>
<wgt id='1854'> +1.0189838e-12 </wgt>
<wgt id='1855'> +1.0563745e-12 </wgt>
<wgt id='1856'> +1.0608097e-12 </wgt>
<wgt id='1857'> +1.0490749e-12 </wgt>
<wgt id='1858'> +1.1157090e-12 </wgt>
<wgt id='1859'> +1.0990912e-12 </wgt>
<wgt id='1860'> +1.1904578e-12 </wgt>
<wgt id='1861'> +1.1509548e-12 </wgt>
<wgt id='1862'> +1.1338328e-12 </wgt>
<wgt id='1863'> +1.1553069e-12 </wgt>
<wgt id='1864'> +1.1020816e-12 </wgt>
<wgt id='1865'> +1.0765765e-12 </wgt>
<wgt id='1866'> +1.0983598e-12 </wgt>
<wgt id='1867'> +9.8285191e-13 </wgt>
<wgt id='1868'> +1.1081201e-12 </wgt>
<wgt id='1869'> +1.1751580e-12 </wgt>
<wgt id='1870'> +1.1598119e-12 </wgt>
<wgt id='1871'> +1.0838268e-12 </wgt>
<wgt id='1872'> +1.1128654e-12 </wgt>
<wgt id='1873'> +1.1232003e-12 </wgt>
<wgt id='1874'> +1.0604331e-12 </wgt>
<wgt id='1875'> +1.0798671e-12 </wgt>
<wgt id='1876'> +1.0906555e-12 </wgt>
<wgt id='1877'> +1.1441016e-12 </wgt>
<wgt id='1878'> +1.0684020e-12 </wgt>
<wgt id='1879'> +1.0856658e-12 </wgt>
<wgt id='1880'> +1.1655672e-12 </wgt>
<wgt id='1881'> +1.0635204e-12 </wgt>
<wgt id='1882'> +1.1712601e-12 </wgt>
<wgt id='1883'> +1.1395189e-12 </wgt>
<wgt id='1884'> +1.1133996e-12 </wgt>
<wgt id='1885'> +9.8620727e-13 </wgt>
<wgt id='1886'> +1.0584560e-12 </wgt>
<wgt id='1887'> +1.1357242e-12 </wgt>
<wgt id='1888'> +1.1249389e-12 </wgt>
<wgt id='1889'> +9.7704061e-13 </wgt>
<wgt id='1890'> +1.1462969e-12 </wgt>
<wgt id='1891'> +1.0306023e-12 </wgt>
<wgt id='1892'> +1.0506961e-12 </wgt>
<wgt id='1893'> +1.0986584e-12 </wgt>
<wgt id='1894'> +1.0967119e-12 </wgt>
<wgt id='1895'> +1.0323611e-12 </wgt>
<wgt id='1896'> +1.0871592e-12 </wgt>
<wgt id='1897'> +1.0904112e-12 </wgt>
<wgt id='1898'> +1.0227449e-12 </wgt>
<wgt id='1899'> +1.1051085e-12 </wgt>
<wgt id='1900'> +1.0504155e-12 </wgt>
<wgt id='1901'> +1.0526009e-12 </wgt>
<wgt id='1902'> +1.0954985e-12 </wgt>
<wgt id='1903'> +1.0334987e-12 </wgt>
<wgt id='1904'> +1.0229234e-12 </wgt>
<wgt id='1905'> +1.0549475e-12 </wgt>
<wgt id='1906'> +1.0143647e-12 </wgt>
<wgt id='1907'> +1.0789469e-12 </wgt>
<wgt id='1908'> +1.1165648e-12 </wgt>
<wgt id='1909'> +1.1126267e-12 </wgt>
<wgt id='1910'> +1.0763596e-12 </wgt>
<wgt id='1911'> +1.2216749e-12 </wgt>
<wgt id='1912'> +1.0990953e-12 </wgt>
<wgt id='1913'> +9.8870866e-13 </wgt>
<wgt id='1914'> +1.1637280e-12 </wgt>
<wgt id='1915'> +1.1028592e-12 </wgt>
<wgt id='1916'> +1.1076625e-12 </wgt>
<wgt id='1917'> +1.0813247e-12 </wgt>
<wgt id='1918'> +1.1162929e-12 </wgt>
<wgt id='1919'> +1.1271607e-12 </wgt>
</rwgt>
</event>
<event>
 9      1 +1.5538000e-12 3.43203000e+01 7.81860800e-03 1.41041000e-01
       21 -1    0    0  501  502 +0.0000000000e+00 +0.0000000000e+00 +1.9923673279e+02 1.9923673279e+02 0.0000000000e+00 0.0000e+00 1.0000e+00
        4 -1    0    0  502    0 -0.0000000000e+00 -0.0000000000e+00 -7.3109033294e+00 7.4475302948e+00 1.4200000000e+00 0.0000e+00 -1.0000e+00
     1023  2    1    2    0    0 -1.7796495016e+01 +2.5222364980e+01 +1.5392653448e+02 1.5770625017e+02 1.5000013203e+01 0.0000e+00 0.0000e+00
  1000023  2    3    3    0    0 -1.4237148300e+01 +2.0880689168e+01 +1.3245770639e+02 1.3495916954e+02 5.4985350545e+00 0.0000e+00 0.0000e+00
        4  1    1    2  501    0 +1.7796495016e+01 -2.5222364980e+01 +3.7999294986e+01 4.8978012918e+01 1.4200000000e+00 0.0000e+00 -1.0000e+00
  1000022  1    4    4    0    0 -1.2105965066e+01 +1.8376788646e+01 +1.1648389672e+02 1.1864973218e+02 5.0000000000e+00 0.0000e+00 1.0000e+00
      -11  1    4    4    0    0 -4.1146054280e-01 +5.1066354391e-01 +3.4873518127e+00 3.5484785416e+00 5.1100000000e-04 0.0000e+00 -1.0000e+00
       11  1    4    4    0    0 -1.7197226918e+00 +1.9932369784e+00 +1.2486457856e+01 1.2760958813e+01 5.1100000000e-04 0.0000e+00 1.0000e+00
  1000022  1    3    3    0    0 -3.5593467151e+00 +4.3416758116e+00 +2.1468828085e+01 2.2747080631e+01 5.0000000000e+00 0.0000e+00 -1.0000e+00
<mgrwt>
<rscale>  1 0.34320305E+02</rscale>
<asrwt>0</asrwt>
<pdfrwt beam="1">  1       21 0.30651801E-01 0.34320305E+02</pdfrwt>
<pdfrwt beam="2">  1        4 0.11356535E-02 0.34320305E+02</pdfrwt>
<totfact> 0.10743837E+06</totfact>
</mgrwt>
<rwgt>
<wgt id='1001'> +1.5538000e-12 </wgt>
<wgt id='1002'> +1.5851612e-12 </wgt>
<wgt id='1003'> +1.5860502e-12 </wgt>
<wgt id='1004'> +1.5479493e-12 </wgt>
<wgt id='1005'> +1.5888835e-12 </wgt>
<wgt id='1006'> +1.3645208e-12 </wgt>
<wgt id='1007'> +1.4112749e-12 </wgt>
<wgt id='1008'> +1.4131359e-12 </wgt>
<wgt id='1009'> +1.3570234e-12 </wgt>
<wgt id='1010'> +1.4206211e-12 </wgt>
<wgt id='1011'> +1.8069961e-12 </wgt>
<wgt id='1012'> +1.8099939e-12 </wgt>
<wgt id='1013'> +1.8091990e-12 </wgt>
<wgt id='1014'> +1.8044525e-12 </wgt>
<wgt id='1015'> +1.8041928e-12 </wgt>
<wgt id='1016'> +1.8075658e-12 </wgt>
<wgt id='1017'> +1.7820040e-12 </wgt>
<wgt id='1018'> +1.7799044e-12 </wgt>
<wgt id='1019'> +1.8091990e-12 </wgt>
<wgt id='1020'> +1.7690466e-12 </wgt>
<wgt id='1021'> +1.5873736e-12 </wgt>
<wgt id='1022'> +1.5865247e-12 </wgt>
<wgt id='1023'> +1.5858557e-12 </wgt>
<wgt id='1024'> +1.5860502e-12 </wgt>
<wgt id='1025'> +1.5817049e-12 </wgt>
<wgt id='1026'> +2.1021137e-12 </wgt>
<wgt id='1027'> +2.0347561e-12 </wgt>
<wgt id='1028'> +2.0303274e-12 </wgt>
<wgt id='1029'> +2.1089926e-12 </wgt>
<wgt id='1030'> +2.0087697e-12 </wgt>
<wgt id='1031'> +1.2552528e-12 </wgt>
<wgt id='1032'> +1.3525709e-12 </wgt>
<wgt id='1033'> +1.3570234e-12 </wgt>
<wgt id='1034'> +1.2408724e-12 </wgt>
<wgt id='1035'> +1.3759937e-12 </wgt>
<wgt id='1036'> +1.1023417e-12 </wgt>
<wgt id='1037'> +1.2041988e-12 </wgt>
<wgt id='1038'> +1.2090780e-12 </wgt>
<wgt id='1039'> +1.0878217e-12 </wgt>
<wgt id='1040'> +1.2302762e-12 </wgt>
<wgt id='1041'> +1.4597998e-12 </wgt>
<wgt id='1042'> +1.5444140e-12 </wgt>
<wgt id='1043'> +1.5479493e-12 </wgt>
<wgt id='1044'> +1.4464913e-12 </wgt>
<wgt id='1045'> +1.5624543e-12 </wgt>
<wgt id='1046'> +1.5538000e-12 </wgt>
<wgt id='1047'> +1.5255423e-12 </wgt>
<wgt id='1048'> +1.5799245e-12 </wgt>
<wgt id='1049'> +1.5655449e-12 </wgt>
<wgt id='1050'> +1.5487416e-12 </wgt>
<wgt id='1051'> +1.5362970e-12 </wgt>
<wgt id='1052'> +1.5030415e-12 </wgt>
<wgt id='1053'> +1.5730622e-12 </wgt>
<wgt id='1054'> +1.5725120e-12 </wgt>
<wgt id='1055'> +1.5916123e-12 </wgt>
<wgt id='1056'> +1.5772201e-12 </wgt>
<wgt id='1057'> +1.5553388e-12 </wgt>
<wgt id='1058'> +1.5370912e-12 </wgt>
<wgt id='1059'> +1.5462376e-12 </wgt>
<wgt id='1060'> +1.5394193e-12 </wgt>
<wgt id='1061'> +1.5790683e-12 </wgt>
<wgt id='1062'> +1.5781184e-12 </wgt>
<wgt id='1063'> +1.5920991e-12 </wgt>
<wgt id='1064'> +1.5514253e-12 </wgt>
<wgt id='1065'> +1.5388724e-12 </wgt>
<wgt id='1066'> +1.5713160e-12 </wgt>
<wgt id='1067'> +1.5610975e-12 </wgt>
<wgt id='1068'> +1.5724656e-12 </wgt>
<wgt id='1069'> +1.5714175e-12 </wgt>
<wgt id='1070'> +1.5541313e-12 </wgt>
<wgt id='1071'> +1.5419809e-12 </wgt>
<wgt id='1072'> +1.5716615e-12 </wgt>
<wgt id='1073'> +1.5507857e-12 </wgt>
<wgt id='1074'> +1.5299947e-12 </wgt>
<wgt id='1075'> +1.5457904e-12 </wgt>
<wgt id='1076'> +1.5772351e-12 </wgt>
<wgt id='1077'> +1.5942158e-12 </wgt>
<wgt id='1078'> +1.5643931e-12 </wgt>
<wgt id='1079'> +1.5139003e-12 </wgt>
<wgt id='1080'> +1.5266485e-12 </wgt>
<wgt id='1081'> +1.5730961e-12 </wgt>
<wgt id='1082'> +1.5329620e-12 </wgt>
<wgt id='1083'> +1.5752882e-12 </wgt>
<wgt id='1084'> +1.5326325e-12 </wgt>
<wgt id='1085'> +1.5492548e-12 </wgt>
<wgt id='1086'> +1.5484118e-12 </wgt>
<wgt id='1087'> +1.5264487e-12 </wgt>
<wgt id='1088'> +1.5018938e-12 </wgt>
<wgt id='1089'> +1.5289604e-12 </wgt>
<wgt id='1090'> +1.5046353e-12 </wgt>
<wgt id='1091'> +1.5397292e-12 </wgt>
<wgt id='1092'> +1.5551499e-12 </wgt>
<wgt id='1093'> +1.5085517e-12 </wgt>
<wgt id='1094'> +1.5608536e-12 </wgt>
<wgt id='1095'> +1.5624732e-12 </wgt>
<wgt id='1096'> +1.5666700e-12 </wgt>
<wgt id='1097'> +1.5389019e-12 </wgt>
<wgt id='1098'> +1.5796462e-12 </wgt>
<wgt id='1099'> +1.5369854e-12 </wgt>
<wgt id='1100'> +1.5609937e-12 </wgt>
<wgt id='1101'> +1.5239627e-12 </wgt>
<wgt id='1102'> +1.5422240e-12 </wgt>
<wgt id='1103'> +1.5715860e-12 </wgt>
<wgt id='1104'> +1.5455861e-12 </wgt>
<wgt id='1105'> +1.5573691e-12 </wgt>
<wgt id='1106'> +1.5739848e-12 </wgt>
<wgt id='1107'> +1.5686514e-12 </wgt>
<wgt id='1108'> +1.5635171e-12 </wgt>
<wgt id='1109'> +1.5005113e-12 </wgt>
<wgt id='1110'> +1.5450135e-12 </wgt>
<wgt id='1111'> +1.5392306e-12 </wgt>
<wgt id='1112'> +1.5297889e-12 </wgt>
<wgt id='1113'> +1.5104585e-12 </wgt>
<wgt id='1114'> +1.6006440e-12 </wgt>
<wgt id='1115'> +1.5374088e-12 </wgt>
<wgt id='1116'> +1.5852930e-12 </wgt>
<wgt id='1117'> +1.5924492e-12 </wgt>
<wgt id='1118'> +1.5770212e-12 </wgt>
<wgt id='1119'> +1.5966922e-12 </wgt>
<wgt id='1120'> +1.5875387e-12 </wgt>
<wgt id='1121'> +1.5543706e-12 </wgt>
<wgt id='1122'> +1.5174377e-12 </wgt>
<wgt id='1123'> +1.5818745e-12 </wgt>
<wgt id='1124'> +1.5540216e-12 </wgt>
<wgt id='1125'> +1.5443478e-12 </wgt>
<wgt id='1126'> +1.5308138e-12 </wgt>
<wgt id='1127'> +1.5337599e-12 </wgt>
<wgt id='1128'> +1.5781184e-12 </wgt>
<wgt id='1129'> +1.5276783e-12 </wgt>
<wgt id='1130'> +1.5794494e-12 </wgt>
<wgt id='1131'> +1.6151442e-12 </wgt>
<wgt id='1132'> +1.5064662e-12 </wgt>
<wgt id='1133'> +1.5256652e-12 </wgt>
<wgt id='1134'> +1.5486737e-12 </wgt>
<wgt id='1135'> +1.5893901e-12 </wgt>
<wgt id='1136'> +1.5274990e-12 </wgt>
<wgt id='1137'> +1.5157395e-12 </wgt>
<wgt id='1138'> +1.5492928e-12 </wgt>
<wgt id='1139'> +1.5676693e-12 </wgt>
<wgt id='1140'> +1.5566046e-12 </wgt>
<wgt id='1141'> +1.5487997e-12 </wgt>
<wgt id='1142'> +1.5373578e-12 </wgt>
<wgt id='1143'> +1.5347364e-12 </wgt>
<wgt id='1144'> +1.5897795e-12 </wgt>
<wgt id='1145'> +1.5957671e-12 </wgt>
<wgt id='1146'> +1.5953204e-12 </wgt>
<wgt id='1147'> +1.2244188e-12 </wgt>
<wgt id='1148'> +1.2574567e-12 </wgt>
<wgt id='1149'> +1.2302505e-12 </wgt>
<wgt id='1150'> +1.2430173e-12 </wgt>
<wgt id='1151'> +9.5261526e-13 </wgt>
<wgt id='1152'> +1.3910517e-12 </wgt>
<wgt id='1153'> +1.3851934e-12 </wgt>
<wgt id='1154'> +1.3944352e-12 </wgt>
<wgt id='1155'> +1.3917058e-12 </wgt>
<wgt id='1156'> +1.3907294e-12 </wgt>
<wgt id='1157'> +1.3880612e-12 </wgt>
<wgt id='1158'> +1.3950166e-12 </wgt>
<wgt id='1159'> +1.3886162e-12 </wgt>
<wgt id='1160'> +1.3926585e-12 </wgt>
<wgt id='1161'> +1.3838983e-12 </wgt>
<wgt id='1162'> +1.3959856e-12 </wgt>
<wgt id='1163'> +1.3948606e-12 </wgt>
<wgt id='1164'> +1.3872496e-12 </wgt>
<wgt id='1165'> +1.3777700e-12 </wgt>
<wgt id='1166'> +1.4039508e-12 </wgt>
<wgt id='1167'> +1.4032399e-12 </wgt>
<wgt id='1168'> +1.3745043e-12 </wgt>
<wgt id='1169'> +1.3954430e-12 </wgt>
<wgt id='1170'> +1.3876911e-12 </wgt>
<wgt id='1171'> +1.3890483e-12 </wgt>
<wgt id='1172'> +1.3935089e-12 </wgt>
<wgt id='1173'> +1.3827873e-12 </wgt>
<wgt id='1174'> +1.3989017e-12 </wgt>
<wgt id='1175'> +1.3930724e-12 </wgt>
<wgt id='1176'> +1.3885441e-12 </wgt>
<wgt id='1177'> +1.3915384e-12 </wgt>
<wgt id='1178'> +1.3900471e-12 </wgt>
<wgt id='1179'> +1.4004665e-12 </wgt>
<wgt id='1180'> +1.3767775e-12 </wgt>
<wgt id='1181'> +1.3866144e-12 </wgt>
<wgt id='1182'> +1.3952463e-12 </wgt>
<wgt id='1183'> +1.3906030e-12 </wgt>
<wgt id='1184'> +1.3911417e-12 </wgt>
<wgt id='1185'> +1.3913407e-12 </wgt>
<wgt id='1186'> +1.3909535e-12 </wgt>
<wgt id='1187'> +1.3904185e-12 </wgt>
<wgt id='1188'> +1.3912526e-12 </wgt>
<wgt id='1189'> +1.3895507e-12 </wgt>
<wgt id='1190'> +1.3733844e-12 </wgt>
<wgt id='1191'> +1.3812353e-12 </wgt>
<wgt id='1192'> +1.3985764e-12 </wgt>
<wgt id='1193'> +1.2729180e-12 </wgt>
<wgt id='1194'> +1.2689720e-12 </wgt>
<wgt id='1195'> +1.2761324e-12 </wgt>
<wgt id='1196'> +1.2746652e-12 </wgt>
<wgt id='1197'> +1.2710395e-12 </wgt>
<wgt id='1198'> +1.2755071e-12 </wgt>
<wgt id='1199'> +1.2690890e-12 </wgt>
<wgt id='1200'> +1.2743897e-12 </wgt>
<wgt id='1201'> +1.2719675e-12 </wgt>
<wgt id='1202'> +1.2692480e-12 </wgt>
<wgt id='1203'> +1.2781973e-12 </wgt>
<wgt id='1204'> +1.2515111e-12 </wgt>
<wgt id='1205'> +1.2862006e-12 </wgt>
<wgt id='1206'> +1.2787230e-12 </wgt>
<wgt id='1207'> +1.2650608e-12 </wgt>
<wgt id='1208'> +1.2657788e-12 </wgt>
<wgt id='1209'> +1.2755495e-12 </wgt>
<wgt id='1210'> +1.2703218e-12 </wgt>
<wgt id='1211'> +1.2670748e-12 </wgt>
<wgt id='1212'> +1.2712460e-12 </wgt>
<wgt id='1213'> +1.2745188e-12 </wgt>
<wgt id='1214'> +1.2636623e-12 </wgt>
<wgt id='1215'> +1.2857746e-12 </wgt>
<wgt id='1216'> +1.2785705e-12 </wgt>
<wgt id='1217'> +1.2688421e-12 </wgt>
<wgt id='1218'> +1.2795205e-12 </wgt>
<wgt id='1219'> +1.2695157e-12 </wgt>
<wgt id='1220'> +1.2779717e-12 </wgt>
<wgt id='1221'> +1.2722025e-12 </wgt>
<wgt id='1222'> +1.2755416e-12 </wgt>
<wgt id='1223'> +1.2721538e-12 </wgt>
<wgt id='1224'> +1.2740714e-12 </wgt>
<wgt id='1225'> +1.2724749e-12 </wgt>
<wgt id='1226'> +1.2730069e-12 </wgt>
<wgt id='1227'> +1.2730018e-12 </wgt>
<wgt id='1228'> +1.2691363e-12 </wgt>
<wgt id='1229'> +1.2745716e-12 </wgt>
<wgt id='1230'> +1.2809653e-12 </wgt>
<wgt id='1231'> +1.2581814e-12 </wgt>
<wgt id='1232'> +1.2706638e-12 </wgt>
<wgt id='1233'> +1.2735585e-12 </wgt>
<wgt id='1234'> +1.2729180e-12 </wgt>
<wgt id='1235'> +1.2632758e-12 </wgt>
<wgt id='1236'> +1.2669305e-12 </wgt>
<wgt id='1237'> +1.2701814e-12 </wgt>
<wgt id='1238'> +1.2759216e-12 </wgt>
<wgt id='1239'> +1.2781672e-12 </wgt>
<wgt id='1240'> +1.2803372e-12 </wgt>
<wgt id='1241'> +1.2153829e-12 </wgt>
<wgt id='1242'> +1.2076019e-12 </wgt>
<wgt id='1243'> +1.2231164e-12 </wgt>
<wgt id='1244'> +1.2105705e-12 </wgt>
<wgt id='1245'> +1.2190042e-12 </wgt>
<wgt id='1246'> +1.2167026e-12 </wgt>
<wgt id='1247'> +1.2143302e-12 </wgt>
<wgt id='1248'> +1.2153107e-12 </wgt>
<wgt id='1249'> +1.2155399e-12 </wgt>
<wgt id='1250'> +1.2116307e-12 </wgt>
<wgt id='1251'> +1.2180833e-12 </wgt>
<wgt id='1252'> +1.2126203e-12 </wgt>
<wgt id='1253'> +1.2175818e-12 </wgt>
<wgt id='1254'> +1.1964288e-12 </wgt>
<wgt id='1255'> +1.2268587e-12 </wgt>
<wgt id='1256'> +1.2202314e-12 </wgt>
<wgt id='1257'> +1.2032769e-12 </wgt>
<wgt id='1258'> +1.2252594e-12 </wgt>
<wgt id='1259'> +1.2048744e-12 </wgt>
<wgt id='1260'> +1.2193966e-12 </wgt>
<wgt id='1261'> +1.2109796e-12 </wgt>
<wgt id='1262'> +1.2178150e-12 </wgt>
<wgt id='1263'> +1.2142518e-12 </wgt>
<wgt id='1264'> +1.2256989e-12 </wgt>
<wgt id='1265'> +1.2105297e-12 </wgt>
<wgt id='1266'> +1.2100088e-12 </wgt>
<wgt id='1267'> +1.2217020e-12 </wgt>
<wgt id='1268'> +1.2164944e-12 </wgt>
<wgt id='1269'> +1.2181290e-12 </wgt>
<wgt id='1270'> +1.2098664e-12 </wgt>
<wgt id='1271'> +1.2125831e-12 </wgt>
<wgt id='1272'> +1.2156298e-12 </wgt>
<wgt id='1273'> +1.2151218e-12 </wgt>
<wgt id='1274'> +1.2157596e-12 </wgt>
<wgt id='1275'> +1.2140307e-12 </wgt>
<wgt id='1276'> +1.2160669e-12 </wgt>
<wgt id='1277'> +1.2138674e-12 </wgt>
<wgt id='1278'> +1.2118743e-12 </wgt>
<wgt id='1279'> +1.2178153e-12 </wgt>
<wgt id='1280'> +1.2159044e-12 </wgt>
<wgt id='1281'> +1.2142075e-12 </wgt>
<wgt id='1282'> +1.2153829e-12 </wgt>
<wgt id='1283'> +1.2057220e-12 </wgt>
<wgt id='1284'> +1.2095293e-12 </wgt>
<wgt id='1285'> +1.2127975e-12 </wgt>
<wgt id='1286'> +1.2183136e-12 </wgt>
<wgt id='1287'> +1.2204240e-12 </wgt>
<wgt id='1288'> +1.2222950e-12 </wgt>
<wgt id='1289'> +1.3131096e-12 </wgt>
<wgt id='1290'> +1.3155187e-12 </wgt>
<wgt id='1291'> +1.3105474e-12 </wgt>
<wgt id='1292'> +1.3141864e-12 </wgt>
<wgt id='1293'> +1.3123419e-12 </wgt>
<wgt id='1294'> +1.3112532e-12 </wgt>
<wgt id='1295'> +1.3148850e-12 </wgt>
<wgt id='1296'> +1.3092493e-12 </wgt>
<wgt id='1297'> +1.3178278e-12 </wgt>
<wgt id='1298'> +1.3226652e-12 </wgt>
<wgt id='1299'> +1.3012225e-12 </wgt>
<wgt id='1300'> +1.3175404e-12 </wgt>
<wgt id='1301'> +1.3042616e-12 </wgt>
<wgt id='1302'> +1.3116563e-12 </wgt>
<wgt id='1303'> +1.3151250e-12 </wgt>
<wgt id='1304'> +1.3084919e-12 </wgt>
<wgt id='1305'> +1.3163003e-12 </wgt>
<wgt id='1306'> +1.3036800e-12 </wgt>
<wgt id='1307'> +1.3237991e-12 </wgt>
<wgt id='1308'> +1.3121944e-12 </wgt>
<wgt id='1309'> +1.3138216e-12 </wgt>
<wgt id='1310'> +1.3098139e-12 </wgt>
<wgt id='1311'> +1.3167485e-12 </wgt>
<wgt id='1312'> +1.3045789e-12 </wgt>
<wgt id='1313'> +1.3219604e-12 </wgt>
<wgt id='1314'> +1.3151877e-12 </wgt>
<wgt id='1315'> +1.3041916e-12 </wgt>
<wgt id='1316'> +1.3191851e-12 </wgt>
<wgt id='1317'> +1.3140112e-12 </wgt>
<wgt id='1318'> +1.3235724e-12 </wgt>
<wgt id='1319'> +1.3006031e-12 </wgt>
<wgt id='1320'> +1.3187021e-12 </wgt>
<wgt id='1321'> +1.3073655e-12 </wgt>
<wgt id='1322'> +1.3145480e-12 </wgt>
<wgt id='1323'> +1.3110572e-12 </wgt>
<wgt id='1324'> +1.3125409e-12 </wgt>
<wgt id='1325'> +1.3187688e-12 </wgt>
<wgt id='1326'> +1.3161522e-12 </wgt>
<wgt id='1327'> +1.3129415e-12 </wgt>
<wgt id='1328'> +1.3117283e-12 </wgt>
<wgt id='1329'> +1.3143270e-12 </wgt>
<wgt id='1330'> +1.3115238e-12 </wgt>
<wgt id='1331'> +1.3155181e-12 </wgt>
<wgt id='1332'> +1.3399790e-12 </wgt>
<wgt id='1333'> +1.3040010e-12 </wgt>
<wgt id='1334'> +1.3115195e-12 </wgt>
<wgt id='1335'> +1.3177668e-12 </wgt>
<wgt id='1336'> +1.3143955e-12 </wgt>
<wgt id='1337'> +1.3066181e-12 </wgt>
<wgt id='1338'> +1.3137610e-12 </wgt>
<wgt id='1339'> +1.3127051e-12 </wgt>
<wgt id='1340'> +1.2846589e-12 </wgt>
<wgt id='1341'> +1.2870731e-12 </wgt>
<wgt id='1342'> +1.2820297e-12 </wgt>
<wgt id='1343'> +1.2857871e-12 </wgt>
<wgt id='1344'> +1.2838726e-12 </wgt>
<wgt id='1345'> +1.2826612e-12 </wgt>
<wgt id='1346'> +1.2864366e-12 </wgt>
<wgt id='1347'> +1.2808224e-12 </wgt>
<wgt id='1348'> +1.2888757e-12 </wgt>
<wgt id='1349'> +1.2934890e-12 </wgt>
<wgt id='1350'> +1.2760016e-12 </wgt>
<wgt id='1351'> +1.2890802e-12 </wgt>
<wgt id='1352'> +1.2750016e-12 </wgt>
<wgt id='1353'> +1.2823631e-12 </wgt>
<wgt id='1354'> +1.2887218e-12 </wgt>
<wgt id='1355'> +1.2799894e-12 </wgt>
<wgt id='1356'> +1.2872582e-12 </wgt>
<wgt id='1357'> +1.2745607e-12 </wgt>
<wgt id='1358'> +1.2965574e-12 </wgt>
<wgt id='1359'> +1.2860236e-12 </wgt>
<wgt id='1360'> +1.2834558e-12 </wgt>
<wgt id='1361'> +1.2813899e-12 </wgt>
<wgt id='1362'> +1.2890910e-12 </wgt>
<wgt id='1363'> +1.2735307e-12 </wgt>
<wgt id='1364'> +1.2927012e-12 </wgt>
<wgt id='1365'> +1.2779125e-12 </wgt>
<wgt id='1366'> +1.2840245e-12 </wgt>
<wgt id='1367'> +1.2902821e-12 </wgt>
<wgt id='1368'> +1.2849910e-12 </wgt>
<wgt id='1369'> +1.2935956e-12 </wgt>
<wgt id='1370'> +1.2740270e-12 </wgt>
<wgt id='1371'> +1.2898728e-12 </wgt>
<wgt id='1372'> +1.2776570e-12 </wgt>
<wgt id='1373'> +1.2857851e-12 </wgt>
<wgt id='1374'> +1.2831211e-12 </wgt>
<wgt id='1375'> +1.2839112e-12 </wgt>
<wgt id='1376'> +1.2906567e-12 </wgt>
<wgt id='1377'> +1.2876048e-12 </wgt>
<wgt id='1378'> +1.2849607e-12 </wgt>
<wgt id='1379'> +1.2832176e-12 </wgt>
<wgt id='1380'> +1.2860890e-12 </wgt>
<wgt id='1381'> +1.2842317e-12 </wgt>
<wgt id='1382'> +1.2855778e-12 </wgt>
<wgt id='1383'> +1.3097039e-12 </wgt>
<wgt id='1384'> +1.2760439e-12 </wgt>
<wgt id='1385'> +1.2833234e-12 </wgt>
<wgt id='1386'> +1.2882277e-12 </wgt>
<wgt id='1387'> +1.2857709e-12 </wgt>
<wgt id='1388'> +1.2773882e-12 </wgt>
<wgt id='1389'> +1.2852524e-12 </wgt>
<wgt id='1390'> +1.2839398e-12 </wgt>
<wgt id='1391'> +1.2664109e-12 </wgt>
<wgt id='1392'> +1.2263879e-12 </wgt>
<wgt id='1393'> +1.2400353e-12 </wgt>
<wgt id='1394'> +1.2537455e-12 </wgt>
<wgt id='1395'> +1.2794358e-12 </wgt>
<wgt id='1396'> +1.2664793e-12 </wgt>
<wgt id='1397'> +1.2923613e-12 </wgt>
<wgt id='1398'> +1.2866229e-12 </wgt>
<wgt id='1399'> +1.2813134e-12 </wgt>
<wgt id='1400'> +1.2763957e-12 </wgt>
<wgt id='1401'> +1.2714472e-12 </wgt>
<wgt id='1402'> +1.2621334e-12 </wgt>
<wgt id='1403'> +1.2579395e-12 </wgt>
<wgt id='1404'> +1.2539032e-12 </wgt>
<wgt id='1405'> +1.2664793e-12 </wgt>
<wgt id='1406'> +1.2594840e-12 </wgt>
<wgt id='1407'> +1.2630828e-12 </wgt>
<wgt id='1408'> +1.2696665e-12 </wgt>
<wgt id='1409'> +1.2723197e-12 </wgt>
<wgt id='1410'> +1.1899001e-12 </wgt>
<wgt id='1411'> +1.1924062e-12 </wgt>
<wgt id='1412'> +1.1866721e-12 </wgt>
<wgt id='1413'> +1.1917143e-12 </wgt>
<wgt id='1414'> +1.1880676e-12 </wgt>
<wgt id='1415'> +1.1917910e-12 </wgt>
<wgt id='1416'> +1.1891152e-12 </wgt>
<wgt id='1417'> +1.1832568e-12 </wgt>
<wgt id='1418'> +1.1965124e-12 </wgt>
<wgt id='1419'> +1.1939168e-12 </wgt>
<wgt id='1420'> +1.1859857e-12 </wgt>
<wgt id='1421'> +1.1696323e-12 </wgt>
<wgt id='1422'> +1.1986544e-12 </wgt>
<wgt id='1423'> +1.1897839e-12 </wgt>
<wgt id='1424'> +1.1900233e-12 </wgt>
<wgt id='1425'> +1.1837927e-12 </wgt>
<wgt id='1426'> +1.1964655e-12 </wgt>
<wgt id='1427'> +1.1757168e-12 </wgt>
<wgt id='1428'> +1.1975135e-12 </wgt>
<wgt id='1429'> +1.1867834e-12 </wgt>
<wgt id='1430'> +1.1941893e-12 </wgt>
<wgt id='1431'> +1.1921527e-12 </wgt>
<wgt id='1432'> +1.1882159e-12 </wgt>
<wgt id='1433'> +1.1945443e-12 </wgt>
<wgt id='1434'> +1.1835710e-12 </wgt>
<wgt id='1435'> +1.1937280e-12 </wgt>
<wgt id='1436'> +1.1808072e-12 </wgt>
<wgt id='1437'> +1.1969735e-12 </wgt>
<wgt id='1438'> +1.1892975e-12 </wgt>
<wgt id='1439'> +1.1842417e-12 </wgt>
<wgt id='1440'> +1.2018734e-12 </wgt>
<wgt id='1441'> +1.1913521e-12 </wgt>
<wgt id='1442'> +1.1874174e-12 </wgt>
<wgt id='1443'> +1.1882940e-12 </wgt>
<wgt id='1444'> +1.1947103e-12 </wgt>
<wgt id='1445'> +1.1951650e-12 </wgt>
<wgt id='1446'> +1.1890251e-12 </wgt>
<wgt id='1447'> +1.1906514e-12 </wgt>
<wgt id='1448'> +1.1915824e-12 </wgt>
<wgt id='1449'> +1.1887257e-12 </wgt>
<wgt id='1450'> +1.1905598e-12 </wgt>
<wgt id='1451'> +1.1881026e-12 </wgt>
<wgt id='1452'> +1.1925747e-12 </wgt>
<wgt id='1453'> +1.1908272e-12 </wgt>
<wgt id='1454'> +1.1843863e-12 </wgt>
<wgt id='1455'> +1.1839902e-12 </wgt>
<wgt id='1456'> +1.1954757e-12 </wgt>
<wgt id='1457'> +1.1923432e-12 </wgt>
<wgt id='1458'> +1.1891354e-12 </wgt>
<wgt id='1459'> +1.1925404e-12 </wgt>
<wgt id='1460'> +1.1907121e-12 </wgt>
<wgt id='1461'> +1.1899001e-12 </wgt>
<wgt id='1462'> +1.1825911e-12 </wgt>
<wgt id='1463'> +1.1964166e-12 </wgt>
<wgt id='1464'> +1.1899210e-12 </wgt>
<wgt id='1465'> +1.2198367e-12 </wgt>
<wgt id='1466'> +1.2126436e-12 </wgt>
<wgt id='1467'> +1.2061455e-12 </wgt>
<wgt id='1468'> +1.2018048e-12 </wgt>
<wgt id='1469'> +1.1951768e-12 </wgt>
<wgt id='1470'> +1.1854508e-12 </wgt>
<wgt id='1471'> +1.1797500e-12 </wgt>
<wgt id='1472'> +1.1749277e-12 </wgt>
<wgt id='1473'> +1.1899210e-12 </wgt>
<wgt id='1474'> +1.1833097e-12 </wgt>
<wgt id='1475'> +1.1871456e-12 </wgt>
<wgt id='1476'> +1.1926339e-12 </wgt>
<wgt id='1477'> +1.1949352e-12 </wgt>
<wgt id='1478'> +1.2515795e-12 </wgt>
<wgt id='1479'> +1.2522432e-12 </wgt>
<wgt id='1480'> +1.2512903e-12 </wgt>
<wgt id='1481'> +1.2455292e-12 </wgt>
<wgt id='1482'> +1.2578019e-12 </wgt>
<wgt id='1483'> +1.2424853e-12 </wgt>
<wgt id='1484'> +1.2519337e-12 </wgt>
<wgt id='1485'> +1.2690742e-12 </wgt>
<wgt id='1486'> +1.2513027e-12 </wgt>
<wgt id='1487'> +1.2543280e-12 </wgt>
<wgt id='1488'> +1.2469641e-12 </wgt>
<wgt id='1489'> +1.2702910e-12 </wgt>
<wgt id='1490'> +1.2535412e-12 </wgt>
<wgt id='1491'> +1.2558744e-12 </wgt>
<wgt id='1492'> +1.2484940e-12 </wgt>
<wgt id='1493'> +1.2404054e-12 </wgt>
<wgt id='1494'> +1.2537715e-12 </wgt>
<wgt id='1495'> +1.2624383e-12 </wgt>
<wgt id='1496'> +1.2508521e-12 </wgt>
<wgt id='1497'> +1.2571034e-12 </wgt>
<wgt id='1498'> +1.2496493e-12 </wgt>
<wgt id='1499'> +1.2552327e-12 </wgt>
<wgt id='1500'> +1.2504842e-12 </wgt>
<wgt id='1501'> +1.2509155e-12 </wgt>
<wgt id='1502'> +1.2527337e-12 </wgt>
<wgt id='1503'> +1.2551117e-12 </wgt>
<wgt id='1504'> +1.2532498e-12 </wgt>
<wgt id='1505'> +1.2514399e-12 </wgt>
<wgt id='1506'> +1.2538287e-12 </wgt>
<wgt id='1507'> +1.2506472e-12 </wgt>
<wgt id='1508'> +1.2610395e-12 </wgt>
<wgt id='1509'> +1.2470219e-12 </wgt>
<wgt id='1510'> +1.2447229e-12 </wgt>
<wgt id='1511'> +1.2470521e-12 </wgt>
<wgt id='1512'> +1.2450912e-12 </wgt>
<wgt id='1513'> +1.2490702e-12 </wgt>
<wgt id='1514'> +1.2486366e-12 </wgt>
<wgt id='1515'> +1.2479317e-12 </wgt>
<wgt id='1516'> +1.2502986e-12 </wgt>
<wgt id='1517'> +1.2520708e-12 </wgt>
<wgt id='1518'> +1.2463502e-12 </wgt>
<wgt id='1519'> +1.2419545e-12 </wgt>
<wgt id='1520'> +1.2526169e-12 </wgt>
<wgt id='1521'> +1.2516228e-12 </wgt>
<wgt id='1522'> +1.2534856e-12 </wgt>
<wgt id='1523'> +1.2540136e-12 </wgt>
<wgt id='1524'> +1.2505102e-12 </wgt>
<wgt id='1525'> +1.2476392e-12 </wgt>
<wgt id='1526'> +1.2497242e-12 </wgt>
<wgt id='1527'> +1.2505625e-12 </wgt>
<wgt id='1528'> +1.2436061e-12 </wgt>
<wgt id='1529'> +1.2517410e-12 </wgt>
<wgt id='1530'> +1.2379972e-12 </wgt>
<wgt id='1531'> +1.2506288e-12 </wgt>
<wgt id='1532'> +1.2479669e-12 </wgt>
<wgt id='1533'> +1.2449346e-12 </wgt>
<wgt id='1534'> +1.2470792e-12 </wgt>
<wgt id='1535'> +1.2546167e-12 </wgt>
<wgt id='1536'> +1.2496184e-12 </wgt>
<wgt id='1537'> +1.2457656e-12 </wgt>
<wgt id='1538'> +1.2462823e-12 </wgt>
<wgt id='1539'> +1.2471750e-12 </wgt>
<wgt id='1540'> +1.2463175e-12 </wgt>
<wgt id='1541'> +1.2470458e-12 </wgt>
<wgt id='1542'> +1.2455780e-12 </wgt>
<wgt id='1543'> +1.2474391e-12 </wgt>
<wgt id='1544'> +1.2486146e-12 </wgt>
<wgt id='1545'> +1.2459826e-12 </wgt>
<wgt id='1546'> +1.2458625e-12 </wgt>
<wgt id='1547'> +1.2469414e-12 </wgt>
<wgt id='1548'> +1.2485962e-12 </wgt>
<wgt id='1549'> +1.2473797e-12 </wgt>
<wgt id='1550'> +1.2457484e-12 </wgt>
<wgt id='1551'> +1.2471386e-12 </wgt>
<wgt id='1552'> +1.2473029e-12 </wgt>
<wgt id='1553'> +1.2468445e-12 </wgt>
<wgt id='1554'> +1.2459438e-12 </wgt>
<wgt id='1555'> +1.2477477e-12 </wgt>
<wgt id='1556'> +1.2472823e-12 </wgt>
<wgt id='1557'> +1.2476764e-12 </wgt>
<wgt id='1558'> +1.2469293e-12 </wgt>
<wgt id='1559'> +1.2464161e-12 </wgt>
<wgt id='1560'> +1.2471331e-12 </wgt>
<wgt id='1561'> +1.2460995e-12 </wgt>
<wgt id='1562'> +1.2466329e-12 </wgt>
<wgt id='1563'> +1.2476175e-12 </wgt>
<wgt id='1564'> +1.2468978e-12 </wgt>
<wgt id='1565'> +1.2470570e-12 </wgt>
<wgt id='1566'> +1.2468486e-12 </wgt>
<wgt id='1567'> +1.2468167e-12 </wgt>
<wgt id='1568'> +1.2462445e-12 </wgt>
<wgt id='1569'> +1.2468980e-12 </wgt>
<wgt id='1570'> +1.2472215e-12 </wgt>
<wgt id='1571'> +1.2475047e-12 </wgt>
<wgt id='1572'> +1.2463924e-12 </wgt>
<wgt id='1573'> +1.2475163e-12 </wgt>
<wgt id='1574'> +1.2470942e-12 </wgt>
<wgt id='1575'> +1.2472964e-12 </wgt>
<wgt id='1576'> +1.2470093e-12 </wgt>
<wgt id='1577'> +1.2473392e-12 </wgt>
<wgt id='1578'> +1.2465683e-12 </wgt>
<wgt id='1579'> +1.2467886e-12 </wgt>
<wgt id='1580'> +1.2471371e-12 </wgt>
<wgt id='1581'> +1.2474026e-12 </wgt>
<wgt id='1582'> +1.2472327e-12 </wgt>
<wgt id='1583'> +1.2466343e-12 </wgt>
<wgt id='1584'> +1.2475140e-12 </wgt>
<wgt id='1585'> +1.2467026e-12 </wgt>
<wgt id='1586'> +1.2479421e-12 </wgt>
<wgt id='1587'> +1.2474994e-12 </wgt>
<wgt id='1588'> +1.2466222e-12 </wgt>
<wgt id='1589'> +1.2469578e-12 </wgt>
<wgt id='1590'> +1.2467984e-12 </wgt>
<wgt id='1591'> +1.2466130e-12 </wgt>
<wgt id='1592'> +1.2472517e-12 </wgt>
<wgt id='1593'> +1.2478724e-12 </wgt>
<wgt id='1594'> +1.2468094e-12 </wgt>
<wgt id='1595'> +1.2473389e-12 </wgt>
<wgt id='1596'> +1.2468317e-12 </wgt>
<wgt id='1597'> +1.2468452e-12 </wgt>
<wgt id='1598'> +1.2474869e-12 </wgt>
<wgt id='1599'> +1.2468309e-12 </wgt>
<wgt id='1600'> +1.2468485e-12 </wgt>
<wgt id='1601'> +1.2475762e-12 </wgt>
<wgt id='1602'> +1.2473059e-12 </wgt>
<wgt id='1603'> +1.2473580e-12 </wgt>
<wgt id='1604'> +1.2471165e-12 </wgt>
<wgt id='1605'> +1.2475038e-12 </wgt>
<wgt id='1606'> +1.2461456e-12 </wgt>
<wgt id='1607'> +1.2475253e-12 </wgt>
<wgt id='1608'> +1.2470030e-12 </wgt>
<wgt id='1609'> +1.2471139e-12 </wgt>
<wgt id='1610'> +1.2167316e-12 </wgt>
<wgt id='1611'> +1.2782251e-12 </wgt>
<wgt id='1612'> +1.4728455e-12 </wgt>
<wgt id='1613'> +1.4840428e-12 </wgt>
<wgt id='1614'> +1.4794489e-12 </wgt>
<wgt id='1615'> +1.4773422e-12 </wgt>
<wgt id='1616'> +1.4681043e-12 </wgt>
<wgt id='1617'> +1.4352968e-12 </wgt>
<wgt id='1618'> +1.4108364e-12 </wgt>
<wgt id='1619'> +1.4677593e-12 </wgt>
<wgt id='1620'> +1.4901649e-12 </wgt>
<wgt id='1621'> +1.4926097e-12 </wgt>
<wgt id='1622'> +1.4937204e-12 </wgt>
<wgt id='1623'> +1.4829150e-12 </wgt>
<wgt id='1624'> +1.4711451e-12 </wgt>
<wgt id='1625'> +1.4856929e-12 </wgt>
<wgt id='1626'> +1.4844706e-12 </wgt>
<wgt id='1627'> +1.4801759e-12 </wgt>
<wgt id='1628'> +1.5143489e-12 </wgt>
<wgt id='1629'> +1.5394954e-12 </wgt>
<wgt id='1630'> +1.4795115e-12 </wgt>
<wgt id='1631'> +1.4755724e-12 </wgt>
<wgt id='1632'> +1.4970001e-12 </wgt>
<wgt id='1633'> +1.4574226e-12 </wgt>
<wgt id='1634'> +1.4795640e-12 </wgt>
<wgt id='1635'> +1.4497078e-12 </wgt>
<wgt id='1636'> +1.4545124e-12 </wgt>
<wgt id='1637'> +1.4196693e-12 </wgt>
<wgt id='1638'> +1.4762172e-12 </wgt>
<wgt id='1639'> +1.4948226e-12 </wgt>
<wgt id='1640'> +1.4814584e-12 </wgt>
<wgt id='1641'> +1.4518373e-12 </wgt>
<wgt id='1642'> +1.4802108e-12 </wgt>
<wgt id='1643'> +1.4946859e-12 </wgt>
<wgt id='1644'> +1.4406004e-12 </wgt>
<wgt id='1645'> +1.4939149e-12 </wgt>
<wgt id='1646'> +1.5093141e-12 </wgt>
<wgt id='1647'> +1.4862680e-12 </wgt>
<wgt id='1648'> +1.5085578e-12 </wgt>
<wgt id='1649'> +1.4306886e-12 </wgt>
<wgt id='1650'> +1.4739370e-12 </wgt>
<wgt id='1651'> +1.4497841e-12 </wgt>
<wgt id='1652'> +1.4929303e-12 </wgt>
<wgt id='1653'> +1.4347846e-12 </wgt>
<wgt id='1654'> +1.4343258e-12 </wgt>
<wgt id='1655'> +1.4568027e-12 </wgt>
<wgt id='1656'> +1.4762904e-12 </wgt>
<wgt id='1657'> +1.4420633e-12 </wgt>
<wgt id='1658'> +1.4967319e-12 </wgt>
<wgt id='1659'> +1.4711451e-12 </wgt>
<wgt id='1660'> +1.4595094e-12 </wgt>
<wgt id='1661'> +1.4530136e-12 </wgt>
<wgt id='1662'> +1.4725495e-12 </wgt>
<wgt id='1663'> +1.4646469e-12 </wgt>
<wgt id='1664'> +1.5195818e-12 </wgt>
<wgt id='1665'> +1.4746312e-12 </wgt>
<wgt id='1666'> +1.4416388e-12 </wgt>
<wgt id='1667'> +1.4799263e-12 </wgt>
<wgt id='1668'> +1.4552505e-12 </wgt>
<wgt id='1669'> +1.4743687e-12 </wgt>
<wgt id='1670'> +1.4749742e-12 </wgt>
<wgt id='1671'> +1.4856523e-12 </wgt>
<wgt id='1672'> +1.5018848e-12 </wgt>
<wgt id='1673'> +1.4399667e-12 </wgt>
<wgt id='1674'> +1.4743391e-12 </wgt>
<wgt id='1675'> +1.4902891e-12 </wgt>
<wgt id='1676'> +1.4557780e-12 </wgt>
<wgt id='1677'> +1.4708486e-12 </wgt>
<wgt id='1678'> +1.4657723e-12 </wgt>
<wgt id='1679'> +1.4894733e-12 </wgt>
<wgt id='1680'> +1.4882395e-12 </wgt>
<wgt id='1681'> +1.4861772e-12 </wgt>
<wgt id='1682'> +1.4641269e-12 </wgt>
<wgt id='1683'> +1.4613995e-12 </wgt>
<wgt id='1684'> +1.4528901e-12 </wgt>
<wgt id='1685'> +1.4705971e-12 </wgt>
<wgt id='1686'> +1.4758417e-12 </wgt>
<wgt id='1687'> +1.4871850e-12 </wgt>
<wgt id='1688'> +1.4572076e-12 </wgt>
<wgt id='1689'> +1.4779646e-12 </wgt>
<wgt id='1690'> +1.4601074e-12 </wgt>
<wgt id='1691'> +1.5025325e-12 </wgt>
<wgt id='1692'> +1.4939221e-12 </wgt>
<wgt id='1693'> +1.4738252e-12 </wgt>
<wgt id='1694'> +1.4430637e-12 </wgt>
<wgt id='1695'> +1.5346413e-12 </wgt>
<wgt id='1696'> +1.4828745e-12 </wgt>
<wgt id='1697'> +1.4632138e-12 </wgt>
<wgt id='1698'> +1.4487305e-12 </wgt>
<wgt id='1699'> +1.4563897e-12 </wgt>
<wgt id='1700'> +1.4680158e-12 </wgt>
<wgt id='1701'> +1.4849993e-12 </wgt>
<wgt id='1702'> +1.4379167e-12 </wgt>
<wgt id='1703'> +1.5055194e-12 </wgt>
<wgt id='1704'> +1.4677947e-12 </wgt>
<wgt id='1705'> +1.4923695e-12 </wgt>
<wgt id='1706'> +1.4671552e-12 </wgt>
<wgt id='1707'> +1.4479221e-12 </wgt>
<wgt id='1708'> +1.4643903e-12 </wgt>
<wgt id='1709'> +1.4749657e-12 </wgt>
<wgt id='1710'> +1.4439530e-12 </wgt>
<wgt id='1711'> +1.4610293e-12 </wgt>
<wgt id='1712'> +1.4910218e-12 </wgt>
<wgt id='1713'> +1.2820913e-12 </wgt>
<wgt id='1714'> +1.2506012e-12 </wgt>
<wgt id='1715'> +1.2640446e-12 </wgt>
<wgt id='1716'> +1.2833867e-12 </wgt>
<wgt id='1717'> +1.2642009e-12 </wgt>
<wgt id='1718'> +1.2702433e-12 </wgt>
<wgt id='1719'> +1.3093997e-12 </wgt>
<wgt id='1720'> +1.2881726e-12 </wgt>
<wgt id='1721'> +1.2920432e-12 </wgt>
<wgt id='1722'> +1.2805138e-12 </wgt>
<wgt id='1723'> +1.2411878e-12 </wgt>
<wgt id='1724'> +1.2572489e-12 </wgt>
<wgt id='1725'> +1.3056622e-12 </wgt>
<wgt id='1726'> +1.3099470e-12 </wgt>
<wgt id='1727'> +1.2560330e-12 </wgt>
<wgt id='1728'> +1.2938958e-12 </wgt>
<wgt id='1729'> +1.2807978e-12 </wgt>
<wgt id='1730'> +1.2618278e-12 </wgt>
<wgt id='1731'> +1.2574127e-12 </wgt>
<wgt id='1732'> +1.3041731e-12 </wgt>
<wgt id='1733'> +1.2948957e-12 </wgt>
<wgt id='1734'> +1.3029874e-12 </wgt>
<wgt id='1735'> +1.2766570e-12 </wgt>
<wgt id='1736'> +1.3776913e-12 </wgt>
<wgt id='1737'> +1.2944315e-12 </wgt>
<wgt id='1738'> +1.2951518e-12 </wgt>
<wgt id='1739'> +1.2656389e-12 </wgt>
<wgt id='1740'> +1.2346078e-12 </wgt>
<wgt id='1741'> +1.2817554e-12 </wgt>
<wgt id='1742'> +1.2758858e-12 </wgt>
<wgt id='1743'> +1.3100980e-12 </wgt>
<wgt id='1744'> +1.2964373e-12 </wgt>
<wgt id='1745'> +1.2353014e-12 </wgt>
<wgt id='1746'> +1.2787285e-12 </wgt>
<wgt id='1747'> +1.3029039e-12 </wgt>
<wgt id='1748'> +1.2727376e-12 </wgt>
<wgt id='1749'> +1.2985993e-12 </wgt>
<wgt id='1750'> +1.3070623e-12 </wgt>
<wgt id='1751'> +1.2856215e-12 </wgt>
<wgt id='1752'> +1.2459682e-12 </wgt>
<wgt id='1753'> +1.3055938e-12 </wgt>
<wgt id='1754'> +1.2820109e-12 </wgt>
<wgt id='1755'> +1.2810051e-12 </wgt>
<wgt id='1756'> +1.3026132e-12 </wgt>
<wgt id='1757'> +1.2825508e-12 </wgt>
<wgt id='1758'> +1.2921186e-12 </wgt>
<wgt id='1759'> +1.3009402e-12 </wgt>
<wgt id='1760'> +1.2619464e-12 </wgt>
<wgt id='1761'> +1.2664523e-12 </wgt>
<wgt id='1762'> +1.2667961e-12 </wgt>
<wgt id='1763'> +1.2848855e-12 </wgt>
<wgt id='1764'> +1.2903436e-12 </wgt>
<wgt id='1765'> +1.2689316e-12 </wgt>
<wgt id='1766'> +1.3040671e-12 </wgt>
<wgt id='1767'> +1.2892796e-12 </wgt>
<wgt id='1768'> +1.2747719e-12 </wgt>
<wgt id='1769'> +1.2606987e-12 </wgt>
<wgt id='1770'> +1.3048712e-12 </wgt>
<wgt id='1771'> +1.2821819e-12 </wgt>
<wgt id='1772'> +1.2958045e-12 </wgt>
<wgt id='1773'> +1.2770093e-12 </wgt>
<wgt id='1774'> +1.2816822e-12 </wgt>
<wgt id='1775'> +1.2856057e-12 </wgt>
<wgt id='1776'> +1.3035354e-12 </wgt>
<wgt id='1777'> +1.2458542e-12 </wgt>
<wgt id='1778'> +1.2579646e-12 </wgt>
<wgt id='1779'> +1.3049692e-12 </wgt>
<wgt id='1780'> +1.3281176e-12 </wgt>
<wgt id='1781'> +1.2646845e-12 </wgt>
<wgt id='1782'> +1.2348562e-12 </wgt>
<wgt id='1783'> +1.2901369e-12 </wgt>
<wgt id='1784'> +1.2908332e-12 </wgt>
<wgt id='1785'> +1.2842121e-12 </wgt>
<wgt id='1786'> +1.1974259e-12 </wgt>
<wgt id='1787'> +1.3059227e-12 </wgt>
<wgt id='1788'> +1.2675000e-12 </wgt>
<wgt id='1789'> +1.2792616e-12 </wgt>
<wgt id='1790'> +1.3066712e-12 </wgt>
<wgt id='1791'> +1.3167860e-12 </wgt>
<wgt id='1792'> +1.2605909e-12 </wgt>
<wgt id='1793'> +1.2882662e-12 </wgt>
<wgt id='1794'> +1.2847794e-12 </wgt>
<wgt id='1795'> +1.2689085e-12 </wgt>
<wgt id='1796'> +1.2932712e-12 </wgt>
<wgt id='1797'> +1.2835073e-12 </wgt>
<wgt id='1798'> +1.2538926e-12 </wgt>
<wgt id='1799'> +1.2775510e-12 </wgt>
<wgt id='1800'> +1.2758538e-12 </wgt>
<wgt id='1801'> +1.2698072e-12 </wgt>
<wgt id='1802'> +1.3075840e-12 </wgt>
<wgt id='1803'> +1.2811977e-12 </wgt>
<wgt id='1804'> +1.2708194e-12 </wgt>
<wgt id='1805'> +1.2852405e-12 </wgt>
<wgt id='1806'> +1.2679143e-12 </wgt>
<wgt id='1807'> +1.3055528e-12 </wgt>
<wgt id='1808'> +1.2716610e-12 </wgt>
<wgt id='1809'> +1.2791957e-12 </wgt>
<wgt id='1810'> +1.2682081e-12 </wgt>
<wgt id='1811'> +1.3133551e-12 </wgt>
<wgt id='1812'> +1.3012936e-12 </wgt>
<wgt id='1813'> +1.2748791e-12 </wgt>
<wgt id='1814'> +1.0937129e-12 </wgt>
<wgt id='1815'> +1.2389154e-12 </wgt>
<wgt id='1816'> +1.2820913e-12 </wgt>
<wgt id='1817'> +1.2506012e-12 </wgt>
<wgt id='1818'> +1.2640446e-12 </wgt>
<wgt id='1819'> +1.2833867e-12 </wgt>
<wgt id='1820'> +1.2642009e-12 </wgt>
<wgt id='1821'> +1.2702433e-12 </wgt>
<wgt id='1822'> +1.3093997e-12 </wgt>
<wgt id='1823'> +1.2881726e-12 </wgt>
<wgt id='1824'> +1.2920432e-12 </wgt>
<wgt id='1825'> +1.2805138e-12 </wgt>
<wgt id='1826'> +1.2411878e-12 </wgt>
<wgt id='1827'> +1.2572489e-12 </wgt>
<wgt id='1828'> +1.3056622e-12 </wgt>
<wgt id='1829'> +1.3099470e-12 </wgt>
<wgt id='1830'> +1.2560330e-12 </wgt>
<wgt id='1831'> +1.2938958e-12 </wgt>
<wgt id='1832'> +1.2807978e-12 </wgt>
<wgt id='1833'> +1.2618278e-12 </wgt>
<wgt id='1834'> +1.2574127e-12 </wgt>
<wgt id='1835'> +1.3041731e-12 </wgt>
<wgt id='1836'> +1.2948957e-12 </wgt>
<wgt id='1837'> +1.3029874e-12 </wgt>
<wgt id='1838'> +1.2766570e-12 </wgt>
<wgt id='1839'> +1.3776913e-12 </wgt>
<wgt id='1840'> +1.2944315e-12 </wgt>
<wgt id='1841'> +1.2951518e-12 </wgt>
<wgt id='1842'> +1.2656389e-12 </wgt>
<wgt id='1843'> +1.2346078e-12 </wgt>
<wgt id='1844'> +1.2817554e-12 </wgt>
<wgt id='1845'> +1.2758858e-12 </wgt>
<wgt id='1846'> +1.3100980e-12 </wgt>
<wgt id='1847'> +1.2964373e-12 </wgt>
<wgt id='1848'> +1.2353014e-12 </wgt>
<wgt id='1849'> +1.2787285e-12 </wgt>
<wgt id='1850'> +1.3029039e-12 </wgt>
<wgt id='1851'> +1.2727376e-12 </wgt>
<wgt id='1852'> +1.2985993e-12 </wgt>
<wgt id='1853'> +1.3070623e-12 </wgt>
<wgt id='1854'> +1.2856215e-12 </wgt>
<wgt id='1855'> +1.2459682e-12 </wgt>
<wgt id='1856'> +1.3055938e-12 </wgt>
<wgt id='1857'> +1.2820109e-12 </wgt>
<wgt id='1858'> +1.2810051e-12 </wgt>
<wgt id='1859'> +1.3026132e-12 </wgt>
<wgt id='1860'> +1.2825508e-12 </wgt>
<wgt id='1861'> +1.2921186e-12 </wgt>
<wgt id='1862'> +1.3009402e-12 </wgt>
<wgt id='1863'> +1.2619464e-12 </wgt>
<wgt id='1864'> +1.2664523e-12 </wgt>
<wgt id='1865'> +1.2667961e-12 </wgt>
<wgt id='1866'> +1.2848855e-12 </wgt>
<wgt id='1867'> +1.2903436e-12 </wgt>
<wgt id='1868'> +1.2689316e-12 </wgt>
<wgt id='1869'> +1.3040671e-12 </wgt>
<wgt id='1870'> +1.2892796e-12 </wgt>
<wgt id='1871'> +1.2747719e-12 </wgt>
<wgt id='1872'> +1.2606987e-12 </wgt>
<wgt id='1873'> +1.3048712e-12 </wgt>
<wgt id='1874'> +1.2821819e-12 </wgt>
<wgt id='1875'> +1.2958045e-12 </wgt>
<wgt id='1876'> +1.2770093e-12 </wgt>
<wgt id='1877'> +1.2816822e-12 </wgt>
<wgt id='1878'> +1.2856057e-12 </wgt>
<wgt id='1879'> +1.3035354e-12 </wgt>
<wgt id='1880'> +1.2458542e-12 </wgt>
<wgt id='1881'> +1.2579646e-12 </wgt>
<wgt id='1882'> +1.3049692e-12 </wgt>
<wgt id='1883'> +1.3281176e-12 </wgt>
<wgt id='1884'> +1.2646845e-12 </wgt>
<wgt id='1885'> +1.2348562e-12 </wgt>
<wgt id='1886'> +1.2901369e-12 </wgt>
<wgt id='1887'> +1.2908332e-12 </wgt>
<wgt id='1888'> +1.2842121e-12 </wgt>
<wgt id='1889'> +1.1974259e-12 </wgt>
<wgt id='1890'> +1.3059227e-12 </wgt>
<wgt id='1891'> +1.2675000e-12 </wgt>
<wgt id='1892'> +1.2792616e-12 </wgt>
<wgt id='1893'> +1.3066712e-12 </wgt>
<wgt id='1894'> +1.3167860e-12 </wgt>
<wgt id='1895'> +1.2605909e-12 </wgt>
<wgt id='1896'> +1.2882662e-12 </wgt>
<wgt id='1897'> +1.2847794e-12 </wgt>
<wgt id='1898'> +1.2689085e-12 </wgt>
<wgt id='1899'> +1.2932712e-12 </wgt>
<wgt id='1900'> +1.2835073e-12 </wgt>
<wgt id='1901'> +1.2538926e-12 </wgt>
<wgt id='1902'> +1.2775510e-12 </wgt>
<wgt id='1903'> +1.2758538e-12 </wgt>
<wgt id='1904'> +1.2698072e-12 </wgt>
<wgt id='1905'> +1.3075840e-12 </wgt>
<wgt id='1906'> +1.2811977e-12 </wgt>
<wgt id='1907'> +1.2708194e-12 </wgt>
<wgt id='1908'> +1.2852405e-12 </wgt>
<wgt id='1909'> +1.2679143e-12 </wgt>
<wgt id='1910'> +1.3055528e-12 </wgt>
<wgt id='1911'> +1.2716610e-12 </wgt>
<wgt id='1912'> +1.2791957e-12 </wgt>
<wgt id='1913'> +1.2682081e-12 </wgt>
<wgt id='1914'> +1.3133551e-12 </wgt>
<wgt id='1915'> +1.3012936e-12 </wgt>
<wgt id='1916'> +1.2748791e-12 </wgt>
<wgt id='1917'> +1.2671012e-12 </wgt>
<wgt id='1918'> +1.2965828e-12 </wgt>
<wgt id='1919'> +1.2423840e-12 </wgt>
</rwgt>
</event>
<event>
 9      1 +1.5538000e-12 3.11472500e+01 7.81860800e-03 1.43849100e-01
       21 -1    0    0  501  502 +0.0000000000e+00 +0.0000000000e+00 +6.3229929840e+01 6.3229929840e+01 0.0000000000e+00 0.0000e+00 -1.0000e+00
        4 -1    0    0  502    0 -0.0000000000e+00 -0.0000000000e+00 -1.3515882383e+01 1.3590271395e+01 1.4200000000e+00 0.0000e+00 -1.0000e+00
     1023  2    1    2    0    0 -7.1346250522e+00 +2.6348423536e+01 +2.8519375662e+01 4.2231578684e+01 1.5000305080e+01 0.0000e+00 0.0000e+00
  1000023  2    3    3    0    0 -2.9235699853e+00 +1.9322310951e+01 +1.3403799342e+01 2.4326833773e+01 5.4985491414e+00 0.0000e+00 0.0000e+00
        4  1    1    2  501    0 +7.1346250522e+00 -2.6348423536e+01 +2.1194671795e+01 3.4588622551e+01 1.4200000000e+00 0.0000e+00 -1.0000e+00
  1000022  1    4    4    0    0 -2.9564834739e+00 +1.7061901639e+01 +1.1867668090e+01 2.1579870898e+01 5.0000000000e+00 0.0000e+00 -1.0000e+00
      -11  1    4    4    0    0 -5.9795058934e-03 +9.6950433596e-01 +4.9791937012e-01 1.0899075063e+00 5.1100000000e-04 0.0000e+00 1.0000e+00
       11  1    4    4    0    0 +3.8892994498e-02 +1.2909049766e+00 +1.0382118820e+00 1.6570553692e+00 5.1100000000e-04 0.0000e+00 -1.0000e+00
  1000022  1    3    3    0    0 -4.2110550669e+00 +7.0261125845e+00 +1.5115576320e+01 1.7904744911e+01 5.0000000000e+00 0.0000e+00 -1.0000e+00
<mgrwt>
<rscale>  1 0.31147254E+02</rscale>
<asrwt>0</asrwt>
<pdfrwt beam="1">  1       21 0.97276814E-02 0.31147254E+02</pdfrwt>
<pdfrwt beam="2">  1        4 0.20863153E-02 0.31147254E+02</pdfrwt>
<totfact> 0.30866021E+06</totfact>
</mgrwt>
<rwgt>
<wgt id='1001'> +1.5538000e-12 </wgt>
<wgt id='1002'> +1.6555131e-12 </wgt>
<wgt id='1003'> +1.6586595e-12 </wgt>
<wgt id='1004'> +1.5348413e-12 </wgt>
<wgt id='1005'> +1.6617789e-12 </wgt>
<wgt id='1006'> +1.3609965e-12 </wgt>
<wgt id='1007'> +1.4707218e-12 </wgt>
<wgt id='1008'> +1.4742428e-12 </wgt>
<wgt id='1009'> +1.3412471e-12 </wgt>
<wgt id='1010'> +1.4777479e-12 </wgt>
<wgt id='1011'> +1.8133641e-12 </wgt>
<wgt id='1012'> +1.8956948e-12 </wgt>
<wgt id='1013'> +1.8980687e-12 </wgt>
<wgt id='1014'> +1.7970318e-12 </wgt>
<wgt id='1015'> +1.9004088e-12 </wgt>
<wgt id='1016'> +1.9062976e-12 </wgt>
<wgt id='1017'> +1.9441688e-12 </wgt>
<wgt id='1018'> +1.9450901e-12 </wgt>
<wgt id='1019'> +1.8980687e-12 </wgt>
<wgt id='1020'> +1.9459868e-12 </wgt>
<wgt id='1021'> +1.6697544e-12 </wgt>
<wgt id='1022'> +1.7271573e-12 </wgt>
<wgt id='1023'> +1.7288268e-12 </wgt>
<wgt id='1024'> +1.6586595e-12 </wgt>
<wgt id='1025'> +1.7304816e-12 </wgt>
<wgt id='1026'> +2.2247468e-12 </wgt>
<wgt id='1027'> +2.2262286e-12 </wgt>
<wgt id='1028'> +2.2258424e-12 </wgt>
<wgt id='1029'> +2.2223079e-12 </wgt>
<wgt id='1030'> +2.2254286e-12 </wgt>
<wgt id='1031'> +1.1692619e-12 </wgt>
<wgt id='1032'> +1.3357193e-12 </wgt>
<wgt id='1033'> +1.3412471e-12 </wgt>
<wgt id='1034'> +1.1401644e-12 </wgt>
<wgt id='1035'> +1.3467650e-12 </wgt>
<wgt id='1036'> +1.0241739e-12 </wgt>
<wgt id='1037'> +1.1866239e-12 </wgt>
<wgt id='1038'> +1.1921216e-12 </wgt>
<wgt id='1039'> +9.9635202e-13 </wgt>
<wgt id='1040'> +1.1976197e-12 </wgt>
<wgt id='1041'> +1.3645884e-12 </wgt>
<wgt id='1042'> +1.5295053e-12 </wgt>
<wgt id='1043'> +1.5348413e-12 </wgt>
<wgt id='1044'> +1.3349340e-12 </wgt>
<wgt id='1045'> +1.5401592e-12 </wgt>
<wgt id='1046'> +1.5538000e-12 </wgt>
<wgt id='1047'> +1.5038134e-12 </wgt>
<wgt id='1048'> +1.5696247e-12 </wgt>
<wgt id='1049'> +1.5403506e-12 </wgt>
<wgt id='1050'> +1.5439741e-12 </wgt>
<wgt id='1051'> +1.5706756e-12 </wgt>
<wgt id='1052'> +1.4887454e-12 </wgt>
<wgt id='1053'> +1.5717327e-12 </wgt>
<wgt id='1054'> +1.5853794e-12 </wgt>
<wgt id='1055'> +1.5871283e-12 </wgt>
<wgt id='1056'> +1.5819115e-12 </wgt>
<wgt id='1057'> +1.5510814e-12 </wgt>
<wgt id='1058'> +1.5169513e-12 </wgt>
<wgt id='1059'> +1.5525434e-12 </wgt>
<wgt id='1060'> +1.5354979e-12 </wgt>
<wgt id='1061'> +1.5816127e-12 </wgt>
<wgt id='1062'> +1.5729816e-12 </wgt>
<wgt id='1063'> +1.6039172e-12 </wgt>
<wgt id='1064'> +1.5443514e-12 </wgt>
<wgt id='1065'> +1.5574198e-12 </wgt>
<wgt id='1066'> +1.6066541e-12 </wgt>
<wgt id='1067'> +1.5656839e-12 </wgt>
<wgt id='1068'> +1.5940045e-12 </wgt>
<wgt id='1069'> +1.5729104e-12 </wgt>
<wgt id='1070'> +1.5675242e-12 </wgt>
<wgt id='1071'> +1.5566107e-12 </wgt>
<wgt id='1072'> +1.5974126e-12 </wgt>
<wgt id='1073'> +1.5619424e-12 </wgt>
<wgt id='1074'> +1.5165937e-12 </wgt>
<wgt id='1075'> +1.5502903e-12 </wgt>
<wgt id='1076'> +1.5538784e-12 </wgt>
<wgt id='1077'> +1.5620438e-12 </wgt>
<wgt id='1078'> +1.5387070e-12 </wgt>
<wgt id='1079'> +1.5124115e-12 </wgt>
<wgt id='1080'> +1.5180776e-12 </wgt>
<wgt id='1081'> +1.5894487e-12 </wgt>
<wgt id='1082'> +1.5489110e-12 </wgt>
<wgt id='1083'> +1.5994007e-12 </wgt>
<wgt id='1084'> +1.5633395e-12 </wgt>
<wgt id='1085'> +1.5125166e-12 </wgt>
<wgt id='1086'> +1.5377817e-12 </wgt>
<wgt id='1087'> +1.5412470e-12 </wgt>
<wgt id='1088'> +1.4691367e-12 </wgt>
<wgt id='1089'> +1.5218776e-12 </wgt>
<wgt id='1090'> +1.4888281e-12 </wgt>
<wgt id='1091'> +1.5402079e-12 </wgt>
<wgt id='1092'> +1.5542990e-12 </wgt>
<wgt id='1093'> +1.4806841e-12 </wgt>
<wgt id='1094'> +1.5624424e-12 </wgt>
<wgt id='1095'> +1.5395503e-12 </wgt>
<wgt id='1096'> +1.5756397e-12 </wgt>
<wgt id='1097'> +1.5161061e-12 </wgt>
<wgt id='1098'> +1.5987677e-12 </wgt>
<wgt id='1099'> +1.5387023e-12 </wgt>
<wgt id='1100'> +1.5137874e-12 </wgt>
<wgt id='1101'> +1.5436245e-12 </wgt>
<wgt id='1102'> +1.5434463e-12 </wgt>
<wgt id='1103'> +1.5643749e-12 </wgt>
<wgt id='1104'> +1.5744656e-12 </wgt>
<wgt id='1105'> +1.5916442e-12 </wgt>
<wgt id='1106'> +1.5826663e-12 </wgt>
<wgt id='1107'> +1.5444663e-12 </wgt>
<wgt id='1108'> +1.5686183e-12 </wgt>
<wgt id='1109'> +1.5589215e-12 </wgt>
<wgt id='1110'> +1.5448336e-12 </wgt>
<wgt id='1111'> +1.5528710e-12 </wgt>
<wgt id='1112'> +1.5111041e-12 </wgt>
<wgt id='1113'> +1.4822767e-12 </wgt>
<wgt id='1114'> +1.6070423e-12 </wgt>
<wgt id='1115'> +1.5333825e-12 </wgt>
<wgt id='1116'> +1.5619343e-12 </wgt>
<wgt id='1117'> +1.6019585e-12 </wgt>
<wgt id='1118'> +1.5788132e-12 </wgt>
<wgt id='1119'> +1.6075429e-12 </wgt>
<wgt id='1120'> +1.6026641e-12 </wgt>
<wgt id='1121'> +1.5470804e-12 </wgt>
<wgt id='1122'> +1.5137115e-12 </wgt>
<wgt id='1123'> +1.5963635e-12 </wgt>
<wgt id='1124'> +1.5282987e-12 </wgt>
<wgt id='1125'> +1.5634780e-12 </wgt>
<wgt id='1126'> +1.5050239e-12 </wgt>
<wgt id='1127'> +1.5248061e-12 </wgt>
<wgt id='1128'> +1.5729816e-12 </wgt>
<wgt id='1129'> +1.5119236e-12 </wgt>
<wgt id='1130'> +1.5853833e-12 </wgt>
<wgt id='1131'> +1.5732600e-12 </wgt>
<wgt id='1132'> +1.4763955e-12 </wgt>
<wgt id='1133'> +1.5128322e-12 </wgt>
<wgt id='1134'> +1.5342687e-12 </wgt>
<wgt id='1135'> +1.6217354e-12 </wgt>
<wgt id='1136'> +1.5194032e-12 </wgt>
<wgt id='1137'> +1.5244998e-12 </wgt>
<wgt id='1138'> +1.5725157e-12 </wgt>
<wgt id='1139'> +1.5821818e-12 </wgt>
<wgt id='1140'> +1.5579903e-12 </wgt>
<wgt id='1141'> +1.5573168e-12 </wgt>
<wgt id='1142'> +1.5294457e-12 </wgt>
<wgt id='1143'> +1.5292728e-12 </wgt>
<wgt id='1144'> +1.6107506e-12 </wgt>
<wgt id='1145'> +1.6103983e-12 </wgt>
<wgt id='1146'> +1.6441133e-12 </wgt>
<wgt id='1147'> +1.2279646e-12 </wgt>
<wgt id='1148'> +1.2669285e-12 </wgt>
<wgt id='1149'> +1.2115850e-12 </wgt>
<wgt id='1150'> +1.2437095e-12 </wgt>
<wgt id='1151'> +1.0079479e-12 </wgt>
<wgt id='1152'> +1.4300574e-12 </wgt>
<wgt id='1153'> +1.4233646e-12 </wgt>
<wgt id='1154'> +1.4339091e-12 </wgt>
<wgt id='1155'> +1.4307240e-12 </wgt>
<wgt id='1156'> +1.4297324e-12 </wgt>
<wgt id='1157'> +1.4271386e-12 </wgt>
<wgt id='1158'> +1.4339222e-12 </wgt>
<wgt id='1159'> +1.4276360e-12 </wgt>
<wgt id='1160'> +1.4316185e-12 </wgt>
<wgt id='1161'> +1.4220506e-12 </wgt>
<wgt id='1162'> +1.4355331e-12 </wgt>
<wgt id='1163'> +1.4337053e-12 </wgt>
<wgt id='1164'> +1.4263913e-12 </wgt>
<wgt id='1165'> +1.4143261e-12 </wgt>
<wgt id='1166'> +1.4454219e-12 </wgt>
<wgt id='1167'> +1.4473125e-12 </wgt>
<wgt id='1168'> +1.4074951e-12 </wgt>
<wgt id='1169'> +1.4360882e-12 </wgt>
<wgt id='1170'> +1.4254805e-12 </wgt>
<wgt id='1171'> +1.4265657e-12 </wgt>
<wgt id='1172'> +1.4343152e-12 </wgt>
<wgt id='1173'> +1.4169931e-12 </wgt>
<wgt id='1174'> +1.4428900e-12 </wgt>
<wgt id='1175'> +1.4340783e-12 </wgt>
<wgt id='1176'> +1.4257903e-12 </wgt>
<wgt id='1177'> +1.4306821e-12 </wgt>
<wgt id='1178'> +1.4285096e-12 </wgt>
<wgt id='1179'> +1.4382629e-12 </wgt>
<wgt id='1180'> +1.4158745e-12 </wgt>
<wgt id='1181'> +1.4260708e-12 </wgt>
<wgt id='1182'> +1.4337669e-12 </wgt>
<wgt id='1183'> +1.4293098e-12 </wgt>
<wgt id='1184'> +1.4301569e-12 </wgt>
<wgt id='1185'> +1.4288882e-12 </wgt>
<wgt id='1186'> +1.4306016e-12 </wgt>
<wgt id='1187'> +1.4293729e-12 </wgt>
<wgt id='1188'> +1.4302788e-12 </wgt>
<wgt id='1189'> +1.4234805e-12 </wgt>
<wgt id='1190'> +1.4175184e-12 </wgt>
<wgt id='1191'> +1.4232612e-12 </wgt>
<wgt id='1192'> +1.4337526e-12 </wgt>
<wgt id='1193'> +1.2618800e-12 </wgt>
<wgt id='1194'> +1.2596264e-12 </wgt>
<wgt id='1195'> +1.2636813e-12 </wgt>
<wgt id='1196'> +1.2642781e-12 </wgt>
<wgt id='1197'> +1.2592450e-12 </wgt>
<wgt id='1198'> +1.2646985e-12 </wgt>
<wgt id='1199'> +1.2577149e-12 </wgt>
<wgt id='1200'> +1.2635109e-12 </wgt>
<wgt id='1201'> +1.2607984e-12 </wgt>
<wgt id='1202'> +1.2580635e-12 </wgt>
<wgt id='1203'> +1.2673446e-12 </wgt>
<wgt id='1204'> +1.2396542e-12 </wgt>
<wgt id='1205'> +1.2756659e-12 </wgt>
<wgt id='1206'> +1.2683182e-12 </wgt>
<wgt id='1207'> +1.2531165e-12 </wgt>
<wgt id='1208'> +1.2533915e-12 </wgt>
<wgt id='1209'> +1.2650042e-12 </wgt>
<wgt id='1210'> +1.2635200e-12 </wgt>
<wgt id='1211'> +1.2500088e-12 </wgt>
<wgt id='1212'> +1.2598339e-12 </wgt>
<wgt id='1213'> +1.2637769e-12 </wgt>
<wgt id='1214'> +1.2473667e-12 </wgt>
<wgt id='1215'> +1.2846224e-12 </wgt>
<wgt id='1216'> +1.2717922e-12 </wgt>
<wgt id='1217'> +1.2551947e-12 </wgt>
<wgt id='1218'> +1.2707383e-12 </wgt>
<wgt id='1219'> +1.2573755e-12 </wgt>
<wgt id='1220'> +1.2678656e-12 </wgt>
<wgt id='1221'> +1.2603659e-12 </wgt>
<wgt id='1222'> +1.2632170e-12 </wgt>
<wgt id='1223'> +1.2630473e-12 </wgt>
<wgt id='1224'> +1.2636737e-12 </wgt>
<wgt id='1225'> +1.2611549e-12 </wgt>
<wgt id='1226'> +1.2621768e-12 </wgt>
<wgt id='1227'> +1.2618428e-12 </wgt>
<wgt id='1228'> +1.2565711e-12 </wgt>
<wgt id='1229'> +1.2643895e-12 </wgt>
<wgt id='1230'> +1.2572624e-12 </wgt>
<wgt id='1231'> +1.2546984e-12 </wgt>
<wgt id='1232'> +1.2581188e-12 </wgt>
<wgt id='1233'> +1.2629419e-12 </wgt>
<wgt id='1234'> +1.2618800e-12 </wgt>
<wgt id='1235'> +1.2498356e-12 </wgt>
<wgt id='1236'> +1.2542800e-12 </wgt>
<wgt id='1237'> +1.2582985e-12 </wgt>
<wgt id='1238'> +1.2652594e-12 </wgt>
<wgt id='1239'> +1.2680897e-12 </wgt>
<wgt id='1240'> +1.2708128e-12 </wgt>
<wgt id='1241'> +1.1925212e-12 </wgt>
<wgt id='1242'> +1.1850302e-12 </wgt>
<wgt id='1243'> +1.1999826e-12 </wgt>
<wgt id='1244'> +1.1867383e-12 </wgt>
<wgt id='1245'> +1.1968327e-12 </wgt>
<wgt id='1246'> +1.1940260e-12 </wgt>
<wgt id='1247'> +1.1912952e-12 </wgt>
<wgt id='1248'> +1.1924195e-12 </wgt>
<wgt id='1249'> +1.1926552e-12 </wgt>
<wgt id='1250'> +1.1884830e-12 </wgt>
<wgt id='1251'> +1.1954010e-12 </wgt>
<wgt id='1252'> +1.1891672e-12 </wgt>
<wgt id='1253'> +1.1951614e-12 </wgt>
<wgt id='1254'> +1.1721381e-12 </wgt>
<wgt id='1255'> +1.2048663e-12 </wgt>
<wgt id='1256'> +1.1980750e-12 </wgt>
<wgt id='1257'> +1.1786304e-12 </wgt>
<wgt id='1258'> +1.2099754e-12 </wgt>
<wgt id='1259'> +1.1748875e-12 </wgt>
<wgt id='1260'> +1.1979139e-12 </wgt>
<wgt id='1261'> +1.1863987e-12 </wgt>
<wgt id='1262'> +1.1964098e-12 </wgt>
<wgt id='1263'> +1.1907297e-12 </wgt>
<wgt id='1264'> +1.2048484e-12 </wgt>
<wgt id='1265'> +1.1866206e-12 </wgt>
<wgt id='1266'> +1.1846861e-12 </wgt>
<wgt id='1267'> +1.2010217e-12 </wgt>
<wgt id='1268'> +1.1938028e-12 </wgt>
<wgt id='1269'> +1.1954346e-12 </wgt>
<wgt id='1270'> +1.1821497e-12 </wgt>
<wgt id='1271'> +1.1854569e-12 </wgt>
<wgt id='1272'> +1.1927041e-12 </wgt>
<wgt id='1273'> +1.1917565e-12 </wgt>
<wgt id='1274'> +1.1931146e-12 </wgt>
<wgt id='1275'> +1.1901699e-12 </wgt>
<wgt id='1276'> +1.1945232e-12 </wgt>
<wgt id='1277'> +1.1896542e-12 </wgt>
<wgt id='1278'> +1.1916078e-12 </wgt>
<wgt id='1279'> +1.1914150e-12 </wgt>
<wgt id='1280'> +1.1936040e-12 </wgt>
<wgt id='1281'> +1.1881538e-12 </wgt>
<wgt id='1282'> +1.1925212e-12 </wgt>
<wgt id='1283'> +1.1809720e-12 </wgt>
<wgt id='1284'> +1.1854177e-12 </wgt>
<wgt id='1285'> +1.1893845e-12 </wgt>
<wgt id='1286'> +1.1959554e-12 </wgt>
<wgt id='1287'> +1.1985737e-12 </wgt>
<wgt id='1288'> +1.2008729e-12 </wgt>
<wgt id='1289'> +1.3006092e-12 </wgt>
<wgt id='1290'> +1.3023146e-12 </wgt>
<wgt id='1291'> +1.2987754e-12 </wgt>
<wgt id='1292'> +1.3013092e-12 </wgt>
<wgt id='1293'> +1.3001051e-12 </wgt>
<wgt id='1294'> +1.2998752e-12 </wgt>
<wgt id='1295'> +1.3013306e-12 </wgt>
<wgt id='1296'> +1.2956502e-12 </wgt>
<wgt id='1297'> +1.3067346e-12 </wgt>
<wgt id='1298'> +1.3097590e-12 </wgt>
<wgt id='1299'> +1.2892586e-12 </wgt>
<wgt id='1300'> +1.3051439e-12 </wgt>
<wgt id='1301'> +1.2915259e-12 </wgt>
<wgt id='1302'> +1.2991649e-12 </wgt>
<wgt id='1303'> +1.3026208e-12 </wgt>
<wgt id='1304'> +1.2953936e-12 </wgt>
<wgt id='1305'> +1.3042078e-12 </wgt>
<wgt id='1306'> +1.2907555e-12 </wgt>
<wgt id='1307'> +1.3117904e-12 </wgt>
<wgt id='1308'> +1.3003537e-12 </wgt>
<wgt id='1309'> +1.3007995e-12 </wgt>
<wgt id='1310'> +1.2970427e-12 </wgt>
<wgt id='1311'> +1.3045252e-12 </wgt>
<wgt id='1312'> +1.2920503e-12 </wgt>
<wgt id='1313'> +1.3094858e-12 </wgt>
<wgt id='1314'> +1.3090435e-12 </wgt>
<wgt id='1315'> +1.2847128e-12 </wgt>
<wgt id='1316'> +1.3071056e-12 </wgt>
<wgt id='1317'> +1.3013622e-12 </wgt>
<wgt id='1318'> +1.3160888e-12 </wgt>
<wgt id='1319'> +1.2825741e-12 </wgt>
<wgt id='1320'> +1.3117978e-12 </wgt>
<wgt id='1321'> +1.2908533e-12 </wgt>
<wgt id='1322'> +1.3019498e-12 </wgt>
<wgt id='1323'> +1.2986609e-12 </wgt>
<wgt id='1324'> +1.2989518e-12 </wgt>
<wgt id='1325'> +1.3089452e-12 </wgt>
<wgt id='1326'> +1.3042200e-12 </wgt>
<wgt id='1327'> +1.3000090e-12 </wgt>
<wgt id='1328'> +1.2999234e-12 </wgt>
<wgt id='1329'> +1.3011289e-12 </wgt>
<wgt id='1330'> +1.3002173e-12 </wgt>
<wgt id='1331'> +1.3015927e-12 </wgt>
<wgt id='1332'> +1.3288643e-12 </wgt>
<wgt id='1333'> +1.2894803e-12 </wgt>
<wgt id='1334'> +1.2986391e-12 </wgt>
<wgt id='1335'> +1.3061622e-12 </wgt>
<wgt id='1336'> +1.2917164e-12 </wgt>
<wgt id='1337'> +1.3050637e-12 </wgt>
<wgt id='1338'> +1.2979397e-12 </wgt>
<wgt id='1339'> +1.3017754e-12 </wgt>
<wgt id='1340'> +1.2737264e-12 </wgt>
<wgt id='1341'> +1.2754950e-12 </wgt>
<wgt id='1342'> +1.2718132e-12 </wgt>
<wgt id='1343'> +1.2744837e-12 </wgt>
<wgt id='1344'> +1.2732127e-12 </wgt>
<wgt id='1345'> +1.2728942e-12 </wgt>
<wgt id='1346'> +1.2744829e-12 </wgt>
<wgt id='1347'> +1.2688100e-12 </wgt>
<wgt id='1348'> +1.2791855e-12 </wgt>
<wgt id='1349'> +1.2821818e-12 </wgt>
<wgt id='1350'> +1.2654924e-12 </wgt>
<wgt id='1351'> +1.2782467e-12 </wgt>
<wgt id='1352'> +1.2638852e-12 </wgt>
<wgt id='1353'> +1.2714016e-12 </wgt>
<wgt id='1354'> +1.2778995e-12 </wgt>
<wgt id='1355'> +1.2684838e-12 </wgt>
<wgt id='1356'> +1.2766784e-12 </wgt>
<wgt id='1357'> +1.2632725e-12 </wgt>
<wgt id='1358'> +1.2860793e-12 </wgt>
<wgt id='1359'> +1.2757956e-12 </wgt>
<wgt id='1360'> +1.2719380e-12 </wgt>
<wgt id='1361'> +1.2701406e-12 </wgt>
<wgt id='1362'> +1.2785924e-12 </wgt>
<wgt id='1363'> +1.2618590e-12 </wgt>
<wgt id='1364'> +1.2822696e-12 </wgt>
<wgt id='1365'> +1.2592859e-12 </wgt>
<wgt id='1366'> +1.2817133e-12 </wgt>
<wgt id='1367'> +1.2795468e-12 </wgt>
<wgt id='1368'> +1.2740894e-12 </wgt>
<wgt id='1369'> +1.2867286e-12 </wgt>
<wgt id='1370'> +1.2584957e-12 </wgt>
<wgt id='1371'> +1.2828115e-12 </wgt>
<wgt id='1372'> +1.2625998e-12 </wgt>
<wgt id='1373'> +1.2741829e-12 </wgt>
<wgt id='1374'> +1.2728701e-12 </wgt>
<wgt id='1375'> +1.2719353e-12 </wgt>
<wgt id='1376'> +1.2825634e-12 </wgt>
<wgt id='1377'> +1.2770451e-12 </wgt>
<wgt id='1378'> +1.2738348e-12 </wgt>
<wgt id='1379'> +1.2729197e-12 </wgt>
<wgt id='1380'> +1.2744887e-12 </wgt>
<wgt id='1381'> +1.2746008e-12 </wgt>
<wgt id='1382'> +1.2731994e-12 </wgt>
<wgt id='1383'> +1.2997583e-12 </wgt>
<wgt id='1384'> +1.2635347e-12 </wgt>
<wgt id='1385'> +1.2722140e-12 </wgt>
<wgt id='1386'> +1.2777547e-12 </wgt>
<wgt id='1387'> +1.2625787e-12 </wgt>
<wgt id='1388'> +1.2787563e-12 </wgt>
<wgt id='1389'> +1.2684089e-12 </wgt>
<wgt id='1390'> +1.2757592e-12 </wgt>
<wgt id='1391'> +1.2556687e-12 </wgt>
<wgt id='1392'> +1.2177234e-12 </wgt>
<wgt id='1393'> +1.2307595e-12 </wgt>
<wgt id='1394'> +1.2434345e-12 </wgt>
<wgt id='1395'> +1.2678948e-12 </wgt>
<wgt id='1396'> +1.2556530e-12 </wgt>
<wgt id='1397'> +1.2901098e-12 </wgt>
<wgt id='1398'> +1.2821425e-12 </wgt>
<wgt id='1399'> +1.2749464e-12 </wgt>
<wgt id='1400'> +1.2683238e-12 </wgt>
<wgt id='1401'> +1.2618474e-12 </wgt>
<wgt id='1402'> +1.2499754e-12 </wgt>
<wgt id='1403'> +1.2449315e-12 </wgt>
<wgt id='1404'> +1.2402130e-12 </wgt>
<wgt id='1405'> +1.2556530e-12 </wgt>
<wgt id='1406'> +1.2471607e-12 </wgt>
<wgt id='1407'> +1.2515623e-12 </wgt>
<wgt id='1408'> +1.2594131e-12 </wgt>
<wgt id='1409'> +1.2624904e-12 </wgt>
<wgt id='1410'> +1.1700172e-12 </wgt>
<wgt id='1411'> +1.1715159e-12 </wgt>
<wgt id='1412'> +1.1681106e-12 </wgt>
<wgt id='1413'> +1.1731162e-12 </wgt>
<wgt id='1414'> +1.1669563e-12 </wgt>
<wgt id='1415'> +1.1719651e-12 </wgt>
<wgt id='1416'> +1.1692331e-12 </wgt>
<wgt id='1417'> +1.1625330e-12 </wgt>
<wgt id='1418'> +1.1775078e-12 </wgt>
<wgt id='1419'> +1.1740268e-12 </wgt>
<wgt id='1420'> +1.1661832e-12 </wgt>
<wgt id='1421'> +1.1491499e-12 </wgt>
<wgt id='1422'> +1.1790884e-12 </wgt>
<wgt id='1423'> +1.1700106e-12 </wgt>
<wgt id='1424'> +1.1700428e-12 </wgt>
<wgt id='1425'> +1.1636028e-12 </wgt>
<wgt id='1426'> +1.1769566e-12 </wgt>
<wgt id='1427'> +1.1567431e-12 </wgt>
<wgt id='1428'> +1.1771797e-12 </wgt>
<wgt id='1429'> +1.1666297e-12 </wgt>
<wgt id='1430'> +1.1747071e-12 </wgt>
<wgt id='1431'> +1.1724251e-12 </wgt>
<wgt id='1432'> +1.1682742e-12 </wgt>
<wgt id='1433'> +1.1777377e-12 </wgt>
<wgt id='1434'> +1.1611619e-12 </wgt>
<wgt id='1435'> +1.1748887e-12 </wgt>
<wgt id='1436'> +1.1584177e-12 </wgt>
<wgt id='1437'> +1.1779099e-12 </wgt>
<wgt id='1438'> +1.1686292e-12 </wgt>
<wgt id='1439'> +1.1617923e-12 </wgt>
<wgt id='1440'> +1.1896147e-12 </wgt>
<wgt id='1441'> +1.1726595e-12 </wgt>
<wgt id='1442'> +1.1652233e-12 </wgt>
<wgt id='1443'> +1.1674479e-12 </wgt>
<wgt id='1444'> +1.1767107e-12 </wgt>
<wgt id='1445'> +1.1778226e-12 </wgt>
<wgt id='1446'> +1.1680073e-12 </wgt>
<wgt id='1447'> +1.1709403e-12 </wgt>
<wgt id='1448'> +1.1714174e-12 </wgt>
<wgt id='1449'> +1.1698224e-12 </wgt>
<wgt id='1450'> +1.1699385e-12 </wgt>
<wgt id='1451'> +1.1681974e-12 </wgt>
<wgt id='1452'> +1.1714369e-12 </wgt>
<wgt id='1453'> +1.1710151e-12 </wgt>
<wgt id='1454'> +1.1642959e-12 </wgt>
<wgt id='1455'> +1.1674318e-12 </wgt>
<wgt id='1456'> +1.1692854e-12 </wgt>
<wgt id='1457'> +1.1686632e-12 </wgt>
<wgt id='1458'> +1.1704970e-12 </wgt>
<wgt id='1459'> +1.1763526e-12 </wgt>
<wgt id='1460'> +1.1648215e-12 </wgt>
<wgt id='1461'> +1.1700172e-12 </wgt>
<wgt id='1462'> +1.1645017e-12 </wgt>
<wgt id='1463'> +1.1771064e-12 </wgt>
<wgt id='1464'> +1.1717536e-12 </wgt>
<wgt id='1465'> +1.2056602e-12 </wgt>
<wgt id='1466'> +1.1973257e-12 </wgt>
<wgt id='1467'> +1.1900551e-12 </wgt>
<wgt id='1468'> +1.1847629e-12 </wgt>
<wgt id='1469'> +1.1774167e-12 </wgt>
<wgt id='1470'> +1.1672946e-12 </wgt>
<wgt id='1471'> +1.1614123e-12 </wgt>
<wgt id='1472'> +1.1564249e-12 </wgt>
<wgt id='1473'> +1.1717536e-12 </wgt>
<wgt id='1474'> +1.1638424e-12 </wgt>
<wgt id='1475'> +1.1683107e-12 </wgt>
<wgt id='1476'> +1.1750183e-12 </wgt>
<wgt id='1477'> +1.1777830e-12 </wgt>
<wgt id='1478'> +1.2358986e-12 </wgt>
<wgt id='1479'> +1.2353461e-12 </wgt>
<wgt id='1480'> +1.2277674e-12 </wgt>
<wgt id='1481'> +1.2242866e-12 </wgt>
<wgt id='1482'> +1.2397454e-12 </wgt>
<wgt id='1483'> +1.2275965e-12 </wgt>
<wgt id='1484'> +1.2361902e-12 </wgt>
<wgt id='1485'> +1.2478576e-12 </wgt>
<wgt id='1486'> +1.2359303e-12 </wgt>
<wgt id='1487'> +1.2377647e-12 </wgt>
<wgt id='1488'> +1.2315033e-12 </wgt>
<wgt id='1489'> +1.2641973e-12 </wgt>
<wgt id='1490'> +1.2364501e-12 </wgt>
<wgt id='1491'> +1.2398357e-12 </wgt>
<wgt id='1492'> +1.2344486e-12 </wgt>
<wgt id='1493'> +1.2148378e-12 </wgt>
<wgt id='1494'> +1.2376948e-12 </wgt>
<wgt id='1495'> +1.2422887e-12 </wgt>
<wgt id='1496'> +1.2354060e-12 </wgt>
<wgt id='1497'> +1.2388817e-12 </wgt>
<wgt id='1498'> +1.2348585e-12 </wgt>
<wgt id='1499'> +1.2394687e-12 </wgt>
<wgt id='1500'> +1.2354815e-12 </wgt>
<wgt id='1501'> +1.2350896e-12 </wgt>
<wgt id='1502'> +1.2362704e-12 </wgt>
<wgt id='1503'> +1.2375051e-12 </wgt>
<wgt id='1504'> +1.2361844e-12 </wgt>
<wgt id='1505'> +1.2369026e-12 </wgt>
<wgt id='1506'> +1.2373710e-12 </wgt>
<wgt id='1507'> +1.2354146e-12 </wgt>
<wgt id='1508'> +1.2419413e-12 </wgt>
<wgt id='1509'> +1.2114240e-12 </wgt>
<wgt id='1510'> +1.2086914e-12 </wgt>
<wgt id='1511'> +1.2156769e-12 </wgt>
<wgt id='1512'> +1.2145663e-12 </wgt>
<wgt id='1513'> +1.2122615e-12 </wgt>
<wgt id='1514'> +1.2107378e-12 </wgt>
<wgt id='1515'> +1.2114107e-12 </wgt>
<wgt id='1516'> +1.2133516e-12 </wgt>
<wgt id='1517'> +1.2191221e-12 </wgt>
<wgt id='1518'> +1.2093254e-12 </wgt>
<wgt id='1519'> +1.2059470e-12 </wgt>
<wgt id='1520'> +1.2242461e-12 </wgt>
<wgt id='1521'> +1.2198047e-12 </wgt>
<wgt id='1522'> +1.2244734e-12 </wgt>
<wgt id='1523'> +1.2155895e-12 </wgt>
<wgt id='1524'> +1.2134335e-12 </wgt>
<wgt id='1525'> +1.2087700e-12 </wgt>
<wgt id='1526'> +1.2141173e-12 </wgt>
<wgt id='1527'> +1.2143215e-12 </wgt>
<wgt id='1528'> +1.2081059e-12 </wgt>
<wgt id='1529'> +1.2116258e-12 </wgt>
<wgt id='1530'> +1.2051149e-12 </wgt>
<wgt id='1531'> +1.2108209e-12 </wgt>
<wgt id='1532'> +1.2105227e-12 </wgt>
<wgt id='1533'> +1.2088947e-12 </wgt>
<wgt id='1534'> +1.2065081e-12 </wgt>
<wgt id='1535'> +1.2181540e-12 </wgt>
<wgt id='1536'> +1.2154774e-12 </wgt>
<wgt id='1537'> +1.2112602e-12 </wgt>
<wgt id='1538'> +1.2112595e-12 </wgt>
<wgt id='1539'> +1.2098911e-12 </wgt>
<wgt id='1540'> +1.2097324e-12 </wgt>
<wgt id='1541'> +1.2109610e-12 </wgt>
<wgt id='1542'> +1.2093823e-12 </wgt>
<wgt id='1543'> +1.2128306e-12 </wgt>
<wgt id='1544'> +1.2135022e-12 </wgt>
<wgt id='1545'> +1.2101215e-12 </wgt>
<wgt id='1546'> +1.2108723e-12 </wgt>
<wgt id='1547'> +1.2103800e-12 </wgt>
<wgt id='1548'> +1.2134100e-12 </wgt>
<wgt id='1549'> +1.2132546e-12 </wgt>
<wgt id='1550'> +1.2099223e-12 </wgt>
<wgt id='1551'> +1.2129454e-12 </wgt>
<wgt id='1552'> +1.2114978e-12 </wgt>
<wgt id='1553'> +1.2094614e-12 </wgt>
<wgt id='1554'> +1.2091640e-12 </wgt>
<wgt id='1555'> +1.2103930e-12 </wgt>
<wgt id='1556'> +1.2124663e-12 </wgt>
<wgt id='1557'> +1.2119361e-12 </wgt>
<wgt id='1558'> +1.2119111e-12 </wgt>
<wgt id='1559'> +1.2104681e-12 </wgt>
<wgt id='1560'> +1.2112859e-12 </wgt>
<wgt id='1561'> +1.2115227e-12 </wgt>
<wgt id='1562'> +1.2109760e-12 </wgt>
<wgt id='1563'> +1.2119397e-12 </wgt>
<wgt id='1564'> +1.2120156e-12 </wgt>
<wgt id='1565'> +1.2112428e-12 </wgt>
<wgt id='1566'> +1.2111288e-12 </wgt>
<wgt id='1567'> +1.2116850e-12 </wgt>
<wgt id='1568'> +1.2108798e-12 </wgt>
<wgt id='1569'> +1.2112768e-12 </wgt>
<wgt id='1570'> +1.2117410e-12 </wgt>
<wgt id='1571'> +1.2113757e-12 </wgt>
<wgt id='1572'> +1.2113062e-12 </wgt>
<wgt id='1573'> +1.2114740e-12 </wgt>
<wgt id='1574'> +1.2113157e-12 </wgt>
<wgt id='1575'> +1.2113148e-12 </wgt>
<wgt id='1576'> +1.2114927e-12 </wgt>
<wgt id='1577'> +1.2121891e-12 </wgt>
<wgt id='1578'> +1.2108880e-12 </wgt>
<wgt id='1579'> +1.2111549e-12 </wgt>
<wgt id='1580'> +1.2118002e-12 </wgt>
<wgt id='1581'> +1.2120075e-12 </wgt>
<wgt id='1582'> +1.2118813e-12 </wgt>
<wgt id='1583'> +1.2116658e-12 </wgt>
<wgt id='1584'> +1.2116749e-12 </wgt>
<wgt id='1585'> +1.2110723e-12 </wgt>
<wgt id='1586'> +1.2123794e-12 </wgt>
<wgt id='1587'> +1.2122803e-12 </wgt>
<wgt id='1588'> +1.2107321e-12 </wgt>
<wgt id='1589'> +1.2114766e-12 </wgt>
<wgt id='1590'> +1.2112416e-12 </wgt>
<wgt id='1591'> +1.2108817e-12 </wgt>
<wgt id='1592'> +1.2112467e-12 </wgt>
<wgt id='1593'> +1.2125423e-12 </wgt>
<wgt id='1594'> +1.2115165e-12 </wgt>
<wgt id='1595'> +1.2119218e-12 </wgt>
<wgt id='1596'> +1.2110957e-12 </wgt>
<wgt id='1597'> +1.2113718e-12 </wgt>
<wgt id='1598'> +1.2119371e-12 </wgt>
<wgt id='1599'> +1.2110479e-12 </wgt>
<wgt id='1600'> +1.2113222e-12 </wgt>
<wgt id='1601'> +1.2118331e-12 </wgt>
<wgt id='1602'> +1.2116841e-12 </wgt>
<wgt id='1603'> +1.2116442e-12 </wgt>
<wgt id='1604'> +1.2116578e-12 </wgt>
<wgt id='1605'> +1.2119301e-12 </wgt>
<wgt id='1606'> +1.2100629e-12 </wgt>
<wgt id='1607'> +1.2118258e-12 </wgt>
<wgt id='1608'> +1.2114008e-12 </wgt>
<wgt id='1609'> +1.2113155e-12 </wgt>
<wgt id='1610'> +1.1869644e-12 </wgt>
<wgt id='1611'> +1.2355652e-12 </wgt>
<wgt id='1612'> +1.4522242e-12 </wgt>
<wgt id='1613'> +1.4965123e-12 </wgt>
<wgt id='1614'> +1.4664017e-12 </wgt>
<wgt id='1615'> +1.4459868e-12 </wgt>
<wgt id='1616'> +1.4777713e-12 </wgt>
<wgt id='1617'> +1.3909907e-12 </wgt>
<wgt id='1618'> +1.3483874e-12 </wgt>
<wgt id='1619'> +1.4512101e-12 </wgt>
<wgt id='1620'> +1.4681774e-12 </wgt>
<wgt id='1621'> +1.4430330e-12 </wgt>
<wgt id='1622'> +1.4515329e-12 </wgt>
<wgt id='1623'> +1.4328444e-12 </wgt>
<wgt id='1624'> +1.4227230e-12 </wgt>
<wgt id='1625'> +1.4666193e-12 </wgt>
<wgt id='1626'> +1.4770845e-12 </wgt>
<wgt id='1627'> +1.4367954e-12 </wgt>
<wgt id='1628'> +1.4727350e-12 </wgt>
<wgt id='1629'> +1.4967994e-12 </wgt>
<wgt id='1630'> +1.4574852e-12 </wgt>
<wgt id='1631'> +1.4512266e-12 </wgt>
<wgt id='1632'> +1.5151903e-12 </wgt>
<wgt id='1633'> +1.4375495e-12 </wgt>
<wgt id='1634'> +1.4804763e-12 </wgt>
<wgt id='1635'> +1.4343790e-12 </wgt>
<wgt id='1636'> +1.4115946e-12 </wgt>
<wgt id='1637'> +1.4045547e-12 </wgt>
<wgt id='1638'> +1.4725535e-12 </wgt>
<wgt id='1639'> +1.4691653e-12 </wgt>
<wgt id='1640'> +1.5003342e-12 </wgt>
<wgt id='1641'> +1.4290451e-12 </wgt>
<wgt id='1642'> +1.4820469e-12 </wgt>
<wgt id='1643'> +1.5049413e-12 </wgt>
<wgt id='1644'> +1.4157835e-12 </wgt>
<wgt id='1645'> +1.4820360e-12 </wgt>
<wgt id='1646'> +1.4996558e-12 </wgt>
<wgt id='1647'> +1.4933896e-12 </wgt>
<wgt id='1648'> +1.4584555e-12 </wgt>
<wgt id='1649'> +1.3658146e-12 </wgt>
<wgt id='1650'> +1.4708839e-12 </wgt>
<wgt id='1651'> +1.3966856e-12 </wgt>
<wgt id='1652'> +1.4947163e-12 </wgt>
<wgt id='1653'> +1.4086656e-12 </wgt>
<wgt id='1654'> +1.3959989e-12 </wgt>
<wgt id='1655'> +1.4038814e-12 </wgt>
<wgt id='1656'> +1.4697050e-12 </wgt>
<wgt id='1657'> +1.4204679e-12 </wgt>
<wgt id='1658'> +1.4486434e-12 </wgt>
<wgt id='1659'> +1.4227230e-12 </wgt>
<wgt id='1660'> +1.4131750e-12 </wgt>
<wgt id='1661'> +1.4189643e-12 </wgt>
<wgt id='1662'> +1.4676576e-12 </wgt>
<wgt id='1663'> +1.4488892e-12 </wgt>
<wgt id='1664'> +1.5312871e-12 </wgt>
<wgt id='1665'> +1.4787158e-12 </wgt>
<wgt id='1666'> +1.4269166e-12 </wgt>
<wgt id='1667'> +1.4319853e-12 </wgt>
<wgt id='1668'> +1.4272033e-12 </wgt>
<wgt id='1669'> +1.4476264e-12 </wgt>
<wgt id='1670'> +1.4720720e-12 </wgt>
<wgt id='1671'> +1.5064830e-12 </wgt>
<wgt id='1672'> +1.4778654e-12 </wgt>
<wgt id='1673'> +1.4041778e-12 </wgt>
<wgt id='1674'> +1.4629658e-12 </wgt>
<wgt id='1675'> +1.5455340e-12 </wgt>
<wgt id='1676'> +1.4434064e-12 </wgt>
<wgt id='1677'> +1.4705479e-12 </wgt>
<wgt id='1678'> +1.4337223e-12 </wgt>
<wgt id='1679'> +1.4736048e-12 </wgt>
<wgt id='1680'> +1.4713174e-12 </wgt>
<wgt id='1681'> +1.4818868e-12 </wgt>
<wgt id='1682'> +1.4472822e-12 </wgt>
<wgt id='1683'> +1.4331849e-12 </wgt>
<wgt id='1684'> +1.4476771e-12 </wgt>
<wgt id='1685'> +1.4560772e-12 </wgt>
<wgt id='1686'> +1.4737797e-12 </wgt>
<wgt id='1687'> +1.4923475e-12 </wgt>
<wgt id='1688'> +1.4724843e-12 </wgt>
<wgt id='1689'> +1.4298958e-12 </wgt>
<wgt id='1690'> +1.4486351e-12 </wgt>
<wgt id='1691'> +1.4804388e-12 </wgt>
<wgt id='1692'> +1.4763043e-12 </wgt>
<wgt id='1693'> +1.4852785e-12 </wgt>
<wgt id='1694'> +1.3878060e-12 </wgt>
<wgt id='1695'> +1.4730800e-12 </wgt>
<wgt id='1696'> +1.5061608e-12 </wgt>
<wgt id='1697'> +1.4104150e-12 </wgt>
<wgt id='1698'> +1.4304762e-12 </wgt>
<wgt id='1699'> +1.4206029e-12 </wgt>
<wgt id='1700'> +1.4446901e-12 </wgt>
<wgt id='1701'> +1.4477276e-12 </wgt>
<wgt id='1702'> +1.4056632e-12 </wgt>
<wgt id='1703'> +1.4861499e-12 </wgt>
<wgt id='1704'> +1.4473812e-12 </wgt>
<wgt id='1705'> +1.4790265e-12 </wgt>
<wgt id='1706'> +1.4414154e-12 </wgt>
<wgt id='1707'> +1.4127349e-12 </wgt>
<wgt id='1708'> +1.4301078e-12 </wgt>
<wgt id='1709'> +1.4532492e-12 </wgt>
<wgt id='1710'> +1.4244328e-12 </wgt>
<wgt id='1711'> +1.4427454e-12 </wgt>
<wgt id='1712'> +1.4667129e-12 </wgt>
<wgt id='1713'> +1.2431994e-12 </wgt>
<wgt id='1714'> +1.1899510e-12 </wgt>
<wgt id='1715'> +1.2561469e-12 </wgt>
<wgt id='1716'> +1.2375119e-12 </wgt>
<wgt id='1717'> +1.2174492e-12 </wgt>
<wgt id='1718'> +1.2247251e-12 </wgt>
<wgt id='1719'> +1.2433763e-12 </wgt>
<wgt id='1720'> +1.2702904e-12 </wgt>
<wgt id='1721'> +1.2287778e-12 </wgt>
<wgt id='1722'> +1.2304943e-12 </wgt>
<wgt id='1723'> +1.2194416e-12 </wgt>
<wgt id='1724'> +1.2771156e-12 </wgt>
<wgt id='1725'> +1.2628800e-12 </wgt>
<wgt id='1726'> +1.2657686e-12 </wgt>
<wgt id='1727'> +1.2190906e-12 </wgt>
<wgt id='1728'> +1.2507055e-12 </wgt>
<wgt id='1729'> +1.2560301e-12 </wgt>
<wgt id='1730'> +1.2130878e-12 </wgt>
<wgt id='1731'> +1.2076015e-12 </wgt>
<wgt id='1732'> +1.2438306e-12 </wgt>
<wgt id='1733'> +1.2402654e-12 </wgt>
<wgt id='1734'> +1.2529631e-12 </wgt>
<wgt id='1735'> +1.2554889e-12 </wgt>
<wgt id='1736'> +1.3492692e-12 </wgt>
<wgt id='1737'> +1.2409229e-12 </wgt>
<wgt id='1738'> +1.2665459e-12 </wgt>
<wgt id='1739'> +1.2016497e-12 </wgt>
<wgt id='1740'> +1.2038373e-12 </wgt>
<wgt id='1741'> +1.2360009e-12 </wgt>
<wgt id='1742'> +1.2259895e-12 </wgt>
<wgt id='1743'> +1.2681308e-12 </wgt>
<wgt id='1744'> +1.2535865e-12 </wgt>
<wgt id='1745'> +1.2005019e-12 </wgt>
<wgt id='1746'> +1.2726771e-12 </wgt>
<wgt id='1747'> +1.2649856e-12 </wgt>
<wgt id='1748'> +1.2512284e-12 </wgt>
<wgt id='1749'> +1.2593757e-12 </wgt>
<wgt id='1750'> +1.2614364e-12 </wgt>
<wgt id='1751'> +1.2223915e-12 </wgt>
<wgt id='1752'> +1.1927468e-12 </wgt>
<wgt id='1753'> +1.2729666e-12 </wgt>
<wgt id='1754'> +1.2182961e-12 </wgt>
<wgt id='1755'> +1.2678066e-12 </wgt>
<wgt id='1756'> +1.2706710e-12 </wgt>
<wgt id='1757'> +1.2413302e-12 </wgt>
<wgt id='1758'> +1.2783533e-12 </wgt>
<wgt id='1759'> +1.2413200e-12 </wgt>
<wgt id='1760'> +1.2107890e-12 </wgt>
<wgt id='1761'> +1.2058440e-12 </wgt>
<wgt id='1762'> +1.2499867e-12 </wgt>
<wgt id='1763'> +1.2515248e-12 </wgt>
<wgt id='1764'> +1.2484805e-12 </wgt>
<wgt id='1765'> +1.2497638e-12 </wgt>
<wgt id='1766'> +1.2692689e-12 </wgt>
<wgt id='1767'> +1.2413222e-12 </wgt>
<wgt id='1768'> +1.2379016e-12 </wgt>
<wgt id='1769'> +1.2076284e-12 </wgt>
<wgt id='1770'> +1.2732481e-12 </wgt>
<wgt id='1771'> +1.2449010e-12 </wgt>
<wgt id='1772'> +1.2640595e-12 </wgt>
<wgt id='1773'> +1.2298692e-12 </wgt>
<wgt id='1774'> +1.2429722e-12 </wgt>
<wgt id='1775'> +1.2492431e-12 </wgt>
<wgt id='1776'> +1.2610161e-12 </wgt>
<wgt id='1777'> +1.2275381e-12 </wgt>
<wgt id='1778'> +1.2130951e-12 </wgt>
<wgt id='1779'> +1.2719214e-12 </wgt>
<wgt id='1780'> +1.2784264e-12 </wgt>
<wgt id='1781'> +1.2192382e-12 </wgt>
<wgt id='1782'> +1.2064628e-12 </wgt>
<wgt id='1783'> +1.2586010e-12 </wgt>
<wgt id='1784'> +1.2695942e-12 </wgt>
<wgt id='1785'> +1.2260043e-12 </wgt>
<wgt id='1786'> +1.1874675e-12 </wgt>
<wgt id='1787'> +1.2618015e-12 </wgt>
<wgt id='1788'> +1.2221094e-12 </wgt>
<wgt id='1789'> +1.2373434e-12 </wgt>
<wgt id='1790'> +1.2803162e-12 </wgt>
<wgt id='1791'> +1.2921661e-12 </wgt>
<wgt id='1792'> +1.2217703e-12 </wgt>
<wgt id='1793'> +1.2626381e-12 </wgt>
<wgt id='1794'> +1.2476032e-12 </wgt>
<wgt id='1795'> +1.2359706e-12 </wgt>
<wgt id='1796'> +1.2215391e-12 </wgt>
<wgt id='1797'> +1.2435298e-12 </wgt>
<wgt id='1798'> +1.2094739e-12 </wgt>
<wgt id='1799'> +1.2453041e-12 </wgt>
<wgt id='1800'> +1.2436553e-12 </wgt>
<wgt id='1801'> +1.2341059e-12 </wgt>
<wgt id='1802'> +1.2438107e-12 </wgt>
<wgt id='1803'> +1.2529034e-12 </wgt>
<wgt id='1804'> +1.1908014e-12 </wgt>
<wgt id='1805'> +1.2636521e-12 </wgt>
<wgt id='1806'> +1.2178577e-12 </wgt>
<wgt id='1807'> +1.2863523e-12 </wgt>
<wgt id='1808'> +1.2412754e-12 </wgt>
<wgt id='1809'> +1.2352057e-12 </wgt>
<wgt id='1810'> +1.2348371e-12 </wgt>
<wgt id='1811'> +1.2841675e-12 </wgt>
<wgt id='1812'> +1.2570309e-12 </wgt>
<wgt id='1813'> +1.2423510e-12 </wgt>
<wgt id='1814'> +1.1030721e-12 </wgt>
<wgt id='1815'> +1.2797729e-12 </wgt>
<wgt id='1816'> +1.2431994e-12 </wgt>
<wgt id='1817'> +1.1899510e-12 </wgt>
<wgt id='1818'> +1.2561469e-12 </wgt>
<wgt id='1819'> +1.2375119e-12 </wgt>
<wgt id='1820'> +1.2174492e-12 </wgt>
<wgt id='1821'> +1.2247251e-12 </wgt>
<wgt id='1822'> +1.2433763e-12 </wgt>
<wgt id='1823'> +1.2702904e-12 </wgt>
<wgt id='1824'> +1.2287778e-12 </wgt>
<wgt id='1825'> +1.2304943e-12 </wgt>
<wgt id='1826'> +1.2194416e-12 </wgt>
<wgt id='1827'> +1.2771156e-12 </wgt>
<wgt id='1828'> +1.2628800e-12 </wgt>
<wgt id='1829'> +1.2657686e-12 </wgt>
<wgt id='1830'> +1.2190906e-12 </wgt>
<wgt id='1831'> +1.2507055e-12 </wgt>
<wgt id='1832'> +1.2560301e-12 </wgt>
<wgt id='1833'> +1.2130878e-12 </wgt>
<wgt id='1834'> +1.2076015e-12 </wgt>
<wgt id='1835'> +1.2438306e-12 </wgt>
<wgt id='1836'> +1.2402654e-12 </wgt>
<wgt id='1837'> +1.2529631e-12 </wgt>
<wgt id='1838'> +1.2554889e-12 </wgt>
<wgt id='1839'> +1.3492692e-12 </wgt>
<wgt id='1840'> +1.2409229e-12 </wgt>
<wgt id='1841'> +1.2665459e-12 </wgt>
<wgt id='1842'> +1.2016497e-12 </wgt>
<wgt id='1843'> +1.2038373e-12 </wgt>
<wgt id='1844'> +1.2360009e-12 </wgt>
<wgt id='1845'> +1.2259895e-12 </wgt>
<wgt id='1846'> +1.2681308e-12 </wgt>
<wgt id='1847'> +1.2535865e-12 </wgt>
<wgt id='1848'> +1.2005019e-12 </wgt>
<wgt id='1849'> +1.2726771e-12 </wgt>
<wgt id='1850'> +1.2649856e-12 </wgt>
<wgt id='1851'> +1.2512284e-12 </wgt>
<wgt id='1852'> +1.2593757e-12 </wgt>
<wgt id='1853'> +1.2614364e-12 </wgt>
<wgt id='1854'> +1.2223915e-12 </wgt>
<wgt id='1855'> +1.1927468e-12 </wgt>
<wgt id='1856'> +1.2729666e-12 </wgt>
<wgt id='1857'> +1.2182961e-12 </wgt>
<wgt id='1858'> +1.2678066e-12 </wgt>
<wgt id='1859'> +1.2706710e-12 </wgt>
<wgt id='1860'> +1.2413302e-12 </wgt>
<wgt id='1861'> +1.2783533e-12 </wgt>
<wgt id='1862'> +1.2413200e-12 </wgt>
<wgt id='1863'> +1.2107890e-12 </wgt>
<wgt id='1864'> +1.2058440e-12 </wgt>
<wgt id='1865'> +1.2499867e-12 </wgt>
<wgt id='1866'> +1.2515248e-12 </wgt>
<wgt id='1867'> +1.2484805e-12 </wgt>
<wgt id='1868'> +1.2497638e-12 </wgt>
<wgt id='1869'> +1.2692689e-12 </wgt>
<wgt id='1870'> +1.2413222e-12 </wgt>
<wgt id='1871'> +1.2379016e-12 </wgt>
<wgt id='1872'> +1.2076284e-12 </wgt>
<wgt id='1873'> +1.2732481e-12 </wgt>
<wgt id='1874'> +1.2449010e-12 </wgt>
<wgt id='1875'> +1.2640595e-12 </wgt>
<wgt id='1876'> +1.2298692e-12 </wgt>
<wgt id='1877'> +1.2429722e-12 </wgt>
<wgt id='1878'> +1.2492431e-12 </wgt>
<wgt id='1879'> +1.2610161e-12 </wgt>
<wgt id='1880'> +1.2275381e-12 </wgt>
<wgt id='1881'> +1.2130951e-12 </wgt>
<wgt id='1882'> +1.2719214e-12 </wgt>
<wgt id='1883'> +1.2784264e-12 </wgt>
<wgt id='1884'> +1.2192382e-12 </wgt>
<wgt id='1885'> +1.2064628e-12 </wgt>
<wgt id='1886'> +1.2586010e-12 </wgt>
<wgt id='1887'> +1.2695942e-12 </wgt>
<wgt id='1888'> +1.2260043e-12 </wgt>
<wgt id='1889'> +1.1874675e-12 </wgt>
<wgt id='1890'> +1.2618015e-12 </wgt>
<wgt id='1891'> +1.2221094e-12 </wgt>
<wgt id='1892'> +1.2373434e-12 </wgt>
<wgt id='1893'> +1.2803162e-12 </wgt>
<wgt id='1894'> +1.2921661e-12 </wgt>
<wgt id='1895'> +1.2217703e-12 </wgt>
<wgt id='1896'> +1.2626381e-12 </wgt>
<wgt id='1897'> +1.2476032e-12 </wgt>
<wgt id='1898'> +1.2359706e-12 </wgt>
<wgt id='1899'> +1.2215391e-12 </wgt>
<wgt id='1900'> +1.2435298e-12 </wgt>
<wgt id='1901'> +1.2094739e-12 </wgt>
<wgt id='1902'> +1.2453041e-12 </wgt>
<wgt id='1903'> +1.2436553e-12 </wgt>
<wgt id='1904'> +1.2341059e-12 </wgt>
<wgt id='1905'> +1.2438107e-12 </wgt>
<wgt id='1906'> +1.2529034e-12 </wgt>
<wgt id='1907'> +1.1908014e-12 </wgt>
<wgt id='1908'> +1.2636521e-12 </wgt>
<wgt id='1909'> +1.2178577e-12 </wgt>
<wgt id='1910'> +1.2863523e-12 </wgt>
<wgt id='1911'> +1.2412754e-12 </wgt>
<wgt id='1912'> +1.2352057e-12 </wgt>
<wgt id='1913'> +1.2348371e-12 </wgt>
<wgt id='1914'> +1.2841675e-12 </wgt>
<wgt id='1915'> +1.2570309e-12 </wgt>
<wgt id='1916'> +1.2423510e-12 </wgt>
<wgt id='1917'> +1.2248125e-12 </wgt>
<wgt id='1918'> +1.2513076e-12 </wgt>
<wgt id='1919'> +1.2120711e-12 </wgt>
</rwgt>
</event>
<event>
 9      1 +1.5538000e-12 3.35190200e+01 7.81860800e-03 1.41714000e-01
        1 -1    0    0  502    0 -0.0000000000e+00 +0.0000000000e+00 +4.6569953451e+01 4.6569953451e+01 0.0000000000e+00 0.0000e+00 -1.0000e+00
       21 -1    0    0  501  502 +0.0000000000e+00 -0.0000000000e+00 -5.2076351537e+01 5.2076351537e+01 0.0000000000e+00 0.0000e+00 1.0000e+00
     1023  2    1    2    0    0 +2.9936200925e+01 +1.5284988318e+00 -4.0498670238e+01 5.2570589639e+01 1.5000405643e+01 0.0000e+00 0.0000e+00
  1000023  2    3    3    0    0 +2.4168155558e+01 +4.1309901777e+00 -3.3605153293e+01 4.1960976807e+01 5.5002203485e+00 0.0000e+00 0.0000e+00
        1  1    1    2  501    0 -2.9936200925e+01 -1.5284988318e+00 +3.4992272152e+01 4.6075715349e+01 0.0000000000e+00 0.0000e+00 -1.0000e+00
  1000022  1    4    4    0    0 +2.1302319966e+01 +3.3609675890e+00 -3.0008271262e+01 3.7290498565e+01 5.0000000000e+00 0.0000e+00 1.0000e+00
      -13  1    4    4    0    0 +1.5403413339e+00 +3.8039339402e-01 -2.0344107461e+00 2.5821212468e+00 1.0570000000e-01 0.0000e+00 1.0000e+00
       13  1    4    4    0    0 +1.3254942579e+00 +3.8962919464e-01 -1.5624712849e+00 2.0883569961e+00 1.0570000000e-01 0.0000e+00 -1.0000e+00
  1000022  1    3    3    0    0 +5.7680453675e+00 -2.6024913458e+00 -6.8935169450e+00 1.0609612832e+01 5.0000000000e+00 0.0000e+00 1.0000e+00
<mgrwt>
<rscale>  1 0.33519019E+02</rscale>
<asrwt>0</asrwt>
<pdfrwt beam="1">  1       21 0.80117463E-02 0.33519019E+02</pdfrwt>
<pdfrwt beam="2">  1        1 0.71646083E-02 0.33519019E+02</pdfrwt>
<totfact> 0.12326322E+06</totfact>
</mgrwt>
<rwgt>
<wgt id='1001'> +1.5538000e-12 </wgt>
<wgt id='1002'> +1.5413931e-12 </wgt>
<wgt id='1003'> +1.5406243e-12 </wgt>
<wgt id='1004'> +1.5536372e-12 </wgt>
<wgt id='1005'> +1.5195994e-12 </wgt>
<wgt id='1006'> +1.3636789e-12 </wgt>
<wgt id='1007'> +1.3722771e-12 </wgt>
<wgt id='1008'> +1.3721678e-12 </wgt>
<wgt id='1009'> +1.3613616e-12 </wgt>
<wgt id='1010'> +1.3649295e-12 </wgt>
<wgt id='1011'> +1.8085169e-12 </wgt>
<wgt id='1012'> +1.7600699e-12 </wgt>
<wgt id='1013'> +1.7582184e-12 </wgt>
<wgt id='1014'> +1.8122532e-12 </wgt>
<wgt id='1015'> +1.7153185e-12 </wgt>
<wgt id='1016'> +1.7527180e-12 </wgt>
<wgt id='1017'> +1.6918837e-12 </wgt>
<wgt id='1018'> +1.6897732e-12 </wgt>
<wgt id='1019'> +1.7582184e-12 </wgt>
<wgt id='1020'> +1.6424821e-12 </wgt>
<wgt id='1021'> +1.5382575e-12 </wgt>
<wgt id='1022'> +1.5062565e-12 </wgt>
<wgt id='1023'> +1.5050083e-12 </wgt>
<wgt id='1024'> +1.5406243e-12 </wgt>
<wgt id='1025'> +1.4753048e-12 </wgt>
<wgt id='1026'> +2.0400438e-12 </wgt>
<wgt id='1027'> +1.9319106e-12 </wgt>
<wgt id='1028'> +1.9284329e-12 </wgt>
<wgt id='1029'> +2.0508887e-12 </wgt>
<wgt id='1030'> +1.8540281e-12 </wgt>
<wgt id='1031'> +1.3151137e-12 </wgt>
<wgt id='1032'> +1.3604942e-12 </wgt>
<wgt id='1033'> +1.3613616e-12 </wgt>
<wgt id='1034'> +1.3082908e-12 </wgt>
<wgt id='1035'> +1.3719014e-12 </wgt>
<wgt id='1036'> +1.1541979e-12 </wgt>
<wgt id='1037'> +1.2112258e-12 </wgt>
<wgt id='1038'> +1.2125063e-12 </wgt>
<wgt id='1039'> +1.1463789e-12 </wgt>
<wgt id='1040'> +1.2322647e-12 </wgt>
<wgt id='1041'> +1.5307024e-12 </wgt>
<wgt id='1042'> +1.5535070e-12 </wgt>
<wgt id='1043'> +1.5536372e-12 </wgt>
<wgt id='1044'> +1.5260668e-12 </wgt>
<wgt id='1045'> +1.5485975e-12 </wgt>
<wgt id='1046'> +1.5538000e-12 </wgt>
<wgt id='1047'> +1.5782499e-12 </wgt>
<wgt id='1048'> +1.5507485e-12 </wgt>
<wgt id='1049'> +1.4932136e-12 </wgt>
<wgt id='1050'> +1.5282967e-12 </wgt>
<wgt id='1051'> +1.5940360e-12 </wgt>
<wgt id='1052'> +1.5941553e-12 </wgt>
<wgt id='1053'> +1.5672130e-12 </wgt>
<wgt id='1054'> +1.5021977e-12 </wgt>
<wgt id='1055'> +1.5369185e-12 </wgt>
<wgt id='1056'> +1.5854734e-12 </wgt>
<wgt id='1057'> +1.5621025e-12 </wgt>
<wgt id='1058'> +1.5105898e-12 </wgt>
<wgt id='1059'> +1.5532749e-12 </wgt>
<wgt id='1060'> +1.5091105e-12 </wgt>
<wgt id='1061'> +1.5784266e-12 </wgt>
<wgt id='1062'> +1.5900335e-12 </wgt>
<wgt id='1063'> +1.6086776e-12 </wgt>
<wgt id='1064'> +1.5565924e-12 </wgt>
<wgt id='1065'> +1.5651208e-12 </wgt>
<wgt id='1066'> +1.5476568e-12 </wgt>
<wgt id='1067'> +1.5096578e-12 </wgt>
<wgt id='1068'> +1.5729234e-12 </wgt>
<wgt id='1069'> +1.5925336e-12 </wgt>
<wgt id='1070'> +1.5359592e-12 </wgt>
<wgt id='1071'> +1.5100193e-12 </wgt>
<wgt id='1072'> +1.5438911e-12 </wgt>
<wgt id='1073'> +1.6065332e-12 </wgt>
<wgt id='1074'> +1.5391057e-12 </wgt>
<wgt id='1075'> +1.5713917e-12 </wgt>
<wgt id='1076'> +1.5839638e-12 </wgt>
<wgt id='1077'> +1.5446353e-12 </wgt>
<wgt id='1078'> +1.5356689e-12 </wgt>
<wgt id='1079'> +1.5615583e-12 </wgt>
<wgt id='1080'> +1.5018738e-12 </wgt>
<wgt id='1081'> +1.5951241e-12 </wgt>
<wgt id='1082'> +1.5235667e-12 </wgt>
<wgt id='1083'> +1.5842105e-12 </wgt>
<wgt id='1084'> +1.5615228e-12 </wgt>
<wgt id='1085'> +1.5348386e-12 </wgt>
<wgt id='1086'> +1.5202531e-12 </wgt>
<wgt id='1087'> +1.5576458e-12 </wgt>
<wgt id='1088'> +1.5314093e-12 </wgt>
<wgt id='1089'> +1.5823321e-12 </wgt>
<wgt id='1090'> +1.5586288e-12 </wgt>
<wgt id='1091'> +1.5607094e-12 </wgt>
<wgt id='1092'> +1.5667299e-12 </wgt>
<wgt id='1093'> +1.5230668e-12 </wgt>
<wgt id='1094'> +1.5092192e-12 </wgt>
<wgt id='1095'> +1.5923101e-12 </wgt>
<wgt id='1096'> +1.6242880e-12 </wgt>
<wgt id='1097'> +1.5397742e-12 </wgt>
<wgt id='1098'> +1.5474434e-12 </wgt>
<wgt id='1099'> +1.5477327e-12 </wgt>
<wgt id='1100'> +1.5568326e-12 </wgt>
<wgt id='1101'> +1.5113821e-12 </wgt>
<wgt id='1102'> +1.5727953e-12 </wgt>
<wgt id='1103'> +1.5909274e-12 </wgt>
<wgt id='1104'> +1.5460575e-12 </wgt>
<wgt id='1105'> +1.5719507e-12 </wgt>
<wgt id='1106'> +1.5623964e-12 </wgt>
<wgt id='1107'> +1.5483165e-12 </wgt>
<wgt id='1108'> +1.5600406e-12 </wgt>
<wgt id='1109'> +1.5970392e-12 </wgt>
<wgt id='1110'> +1.5020679e-12 </wgt>
<wgt id='1111'> +1.5659777e-12 </wgt>
<wgt id='1112'> +1.5346241e-12 </wgt>
<wgt id='1113'> +1.5469787e-12 </wgt>
<wgt id='1114'> +1.5975878e-12 </wgt>
<wgt id='1115'> +1.5460306e-12 </wgt>
<wgt id='1116'> +1.5234239e-12 </wgt>
<wgt id='1117'> +1.5733922e-12 </wgt>
<wgt id='1118'> +1.6672238e-12 </wgt>
<wgt id='1119'> +1.5339253e-12 </wgt>
<wgt id='1120'> +1.5446042e-12 </wgt>
<wgt id='1121'> +1.5531144e-12 </wgt>
<wgt id='1122'> +1.5498727e-12 </wgt>
<wgt id='1123'> +1.5210761e-12 </wgt>
<wgt id='1124'> +1.5366380e-12 </wgt>
<wgt id='1125'> +1.5510354e-12 </wgt>
<wgt id='1126'> +1.5609754e-12 </wgt>
<wgt id='1127'> +1.5292502e-12 </wgt>
<wgt id='1128'> +1.5900335e-12 </wgt>
<wgt id='1129'> +1.5471714e-12 </wgt>
<wgt id='1130'> +1.5456392e-12 </wgt>
<wgt id='1131'> +1.5249093e-12 </wgt>
<wgt id='1132'> +1.5804502e-12 </wgt>
<wgt id='1133'> +1.5629877e-12 </wgt>
<wgt id='1134'> +1.5904854e-12 </wgt>
<wgt id='1135'> +1.5038850e-12 </wgt>
<wgt id='1136'> +1.5340742e-12 </wgt>
<wgt id='1137'> +1.5320986e-12 </wgt>
<wgt id='1138'> +1.5412518e-12 </wgt>
<wgt id='1139'> +1.5591324e-12 </wgt>
<wgt id='1140'> +1.6000434e-12 </wgt>
<wgt id='1141'> +1.5267640e-12 </wgt>
<wgt id='1142'> +1.5147556e-12 </wgt>
<wgt id='1143'> +1.5484019e-12 </wgt>
<wgt id='1144'> +1.5529520e-12 </wgt>
<wgt id='1145'> +1.5052465e-12 </wgt>
<wgt id='1146'> +1.5770844e-12 </wgt>
<wgt id='1147'> +1.2660834e-12 </wgt>
<wgt id='1148'> +1.2892484e-12 </wgt>
<wgt id='1149'> +1.2894686e-12 </wgt>
<wgt id='1150'> +1.2793861e-12 </wgt>
<wgt id='1151'> +1.2587982e-12 </wgt>
<wgt id='1152'> +1.5528216e-12 </wgt>
<wgt id='1153'> +1.5457798e-12 </wgt>
<wgt id='1154'> +1.5568763e-12 </wgt>
<wgt id='1155'> +1.5526537e-12 </wgt>
<wgt id='1156'> +1.5528767e-12 </wgt>
<wgt id='1157'> +1.5566023e-12 </wgt>
<wgt id='1158'> +1.5476513e-12 </wgt>
<wgt id='1159'> +1.5557270e-12 </wgt>
<wgt id='1160'> +1.5509409e-12 </wgt>
<wgt id='1161'> +1.5465353e-12 </wgt>
<wgt id='1162'> +1.5570421e-12 </wgt>
<wgt id='1163'> +1.5569761e-12 </wgt>
<wgt id='1164'> +1.5486459e-12 </wgt>
<wgt id='1165'> +1.5464456e-12 </wgt>
<wgt id='1166'> +1.5589301e-12 </wgt>
<wgt id='1167'> +1.5560033e-12 </wgt>
<wgt id='1168'> +1.5469545e-12 </wgt>
<wgt id='1169'> +1.5504324e-12 </wgt>
<wgt id='1170'> +1.5548412e-12 </wgt>
<wgt id='1171'> +1.5512430e-12 </wgt>
<wgt id='1172'> +1.5547828e-12 </wgt>
<wgt id='1173'> +1.5427094e-12 </wgt>
<wgt id='1174'> +1.5624493e-12 </wgt>
<wgt id='1175'> +1.5553863e-12 </wgt>
<wgt id='1176'> +1.5498473e-12 </wgt>
<wgt id='1177'> +1.5549849e-12 </wgt>
<wgt id='1178'> +1.5462071e-12 </wgt>
<wgt id='1179'> +1.5654044e-12 </wgt>
<wgt id='1180'> +1.5353843e-12 </wgt>
<wgt id='1181'> +1.5535128e-12 </wgt>
<wgt id='1182'> +1.5529622e-12 </wgt>
<wgt id='1183'> +1.5506151e-12 </wgt>
<wgt id='1184'> +1.5531303e-12 </wgt>
<wgt id='1185'> +1.5479824e-12 </wgt>
<wgt id='1186'> +1.5557167e-12 </wgt>
<wgt id='1187'> +1.5510529e-12 </wgt>
<wgt id='1188'> +1.5534111e-12 </wgt>
<wgt id='1189'> +1.5493809e-12 </wgt>
<wgt id='1190'> +1.5442502e-12 </wgt>
<wgt id='1191'> +1.5452095e-12 </wgt>
<wgt id='1192'> +1.5541643e-12 </wgt>
<wgt id='1193'> +1.3318700e-12 </wgt>
<wgt id='1194'> +1.3330094e-12 </wgt>
<wgt id='1195'> +1.3309073e-12 </wgt>
<wgt id='1196'> +1.3382255e-12 </wgt>
<wgt id='1197'> +1.3248327e-12 </wgt>
<wgt id='1198'> +1.3317188e-12 </wgt>
<wgt id='1199'> +1.3320858e-12 </wgt>
<wgt id='1200'> +1.3344284e-12 </wgt>
<wgt id='1201'> +1.3301673e-12 </wgt>
<wgt id='1202'> +1.3306402e-12 </wgt>
<wgt id='1203'> +1.3336211e-12 </wgt>
<wgt id='1204'> +1.3239578e-12 </wgt>
<wgt id='1205'> +1.3367602e-12 </wgt>
<wgt id='1206'> +1.3382981e-12 </wgt>
<wgt id='1207'> +1.3231283e-12 </wgt>
<wgt id='1208'> +1.3247712e-12 </wgt>
<wgt id='1209'> +1.3344486e-12 </wgt>
<wgt id='1210'> +1.3394688e-12 </wgt>
<wgt id='1211'> +1.3168430e-12 </wgt>
<wgt id='1212'> +1.3340585e-12 </wgt>
<wgt id='1213'> +1.3300258e-12 </wgt>
<wgt id='1214'> +1.3211816e-12 </wgt>
<wgt id='1215'> +1.3494795e-12 </wgt>
<wgt id='1216'> +1.3413175e-12 </wgt>
<wgt id='1217'> +1.3260536e-12 </wgt>
<wgt id='1218'> +1.3397495e-12 </wgt>
<wgt id='1219'> +1.3280432e-12 </wgt>
<wgt id='1220'> +1.3377597e-12 </wgt>
<wgt id='1221'> +1.3315076e-12 </wgt>
<wgt id='1222'> +1.3280576e-12 </wgt>
<wgt id='1223'> +1.3371160e-12 </wgt>
<wgt id='1224'> +1.3353190e-12 </wgt>
<wgt id='1225'> +1.3305444e-12 </wgt>
<wgt id='1226'> +1.3308098e-12 </wgt>
<wgt id='1227'> +1.3327528e-12 </wgt>
<wgt id='1228'> +1.3290098e-12 </wgt>
<wgt id='1229'> +1.3333401e-12 </wgt>
<wgt id='1230'> +1.3240413e-12 </wgt>
<wgt id='1231'> +1.3255196e-12 </wgt>
<wgt id='1232'> +1.3285695e-12 </wgt>
<wgt id='1233'> +1.3329015e-12 </wgt>
<wgt id='1234'> +1.3318700e-12 </wgt>
<wgt id='1235'> +1.3236455e-12 </wgt>
<wgt id='1236'> +1.3266986e-12 </wgt>
<wgt id='1237'> +1.3294840e-12 </wgt>
<wgt id='1238'> +1.3341741e-12 </wgt>
<wgt id='1239'> +1.3361918e-12 </wgt>
<wgt id='1240'> +1.3380146e-12 </wgt>
<wgt id='1241'> +1.3103869e-12 </wgt>
<wgt id='1242'> +1.3080804e-12 </wgt>
<wgt id='1243'> +1.3127259e-12 </wgt>
<wgt id='1244'> +1.3029233e-12 </wgt>
<wgt id='1245'> +1.3159360e-12 </wgt>
<wgt id='1246'> +1.3115437e-12 </wgt>
<wgt id='1247'> +1.3094662e-12 </wgt>
<wgt id='1248'> +1.3103795e-12 </wgt>
<wgt id='1249'> +1.3103927e-12 </wgt>
<wgt id='1250'> +1.3128153e-12 </wgt>
<wgt id='1251'> +1.3087165e-12 </wgt>
<wgt id='1252'> +1.3042729e-12 </wgt>
<wgt id='1253'> +1.3151979e-12 </wgt>
<wgt id='1254'> +1.2998493e-12 </wgt>
<wgt id='1255'> +1.3167578e-12 </wgt>
<wgt id='1256'> +1.3144572e-12 </wgt>
<wgt id='1257'> +1.3002149e-12 </wgt>
<wgt id='1258'> +1.3288641e-12 </wgt>
<wgt id='1259'> +1.2935407e-12 </wgt>
<wgt id='1260'> +1.3119015e-12 </wgt>
<wgt id='1261'> +1.3093331e-12 </wgt>
<wgt id='1262'> +1.3145252e-12 </wgt>
<wgt id='1263'> +1.3087238e-12 </wgt>
<wgt id='1264'> +1.3172095e-12 </wgt>
<wgt id='1265'> +1.3071510e-12 </wgt>
<wgt id='1266'> +1.3094102e-12 </wgt>
<wgt id='1267'> +1.3112937e-12 </wgt>
<wgt id='1268'> +1.3123382e-12 </wgt>
<wgt id='1269'> +1.3133601e-12 </wgt>
<wgt id='1270'> +1.3030675e-12 </wgt>
<wgt id='1271'> +1.3038662e-12 </wgt>
<wgt id='1272'> +1.3124702e-12 </wgt>
<wgt id='1273'> +1.3092361e-12 </wgt>
<wgt id='1274'> +1.3124706e-12 </wgt>
<wgt id='1275'> +1.3060886e-12 </wgt>
<wgt id='1276'> +1.3109658e-12 </wgt>
<wgt id='1277'> +1.3094480e-12 </wgt>
<wgt id='1278'> +1.3095577e-12 </wgt>
<wgt id='1279'> +1.3032947e-12 </wgt>
<wgt id='1280'> +1.3112358e-12 </wgt>
<wgt id='1281'> +1.3062582e-12 </wgt>
<wgt id='1282'> +1.3103869e-12 </wgt>
<wgt id='1283'> +1.3018496e-12 </wgt>
<wgt id='1284'> +1.3050119e-12 </wgt>
<wgt id='1285'> +1.3079422e-12 </wgt>
<wgt id='1286'> +1.3127122e-12 </wgt>
<wgt id='1287'> +1.3147515e-12 </wgt>
<wgt id='1288'> +1.3164140e-12 </wgt>
<wgt id='1289'> +1.3435647e-12 </wgt>
<wgt id='1290'> +1.3431570e-12 </wgt>
<wgt id='1291'> +1.3439985e-12 </wgt>
<wgt id='1292'> +1.3379698e-12 </wgt>
<wgt id='1293'> +1.3475801e-12 </wgt>
<wgt id='1294'> +1.3429630e-12 </wgt>
<wgt id='1295'> +1.3441587e-12 </wgt>
<wgt id='1296'> +1.3397545e-12 </wgt>
<wgt id='1297'> +1.3482013e-12 </wgt>
<wgt id='1298'> +1.3463065e-12 </wgt>
<wgt id='1299'> +1.3400700e-12 </wgt>
<wgt id='1300'> +1.3461505e-12 </wgt>
<wgt id='1301'> +1.3383799e-12 </wgt>
<wgt id='1302'> +1.3422083e-12 </wgt>
<wgt id='1303'> +1.3454283e-12 </wgt>
<wgt id='1304'> +1.3386886e-12 </wgt>
<wgt id='1305'> +1.3469040e-12 </wgt>
<wgt id='1306'> +1.3415730e-12 </wgt>
<wgt id='1307'> +1.3458927e-12 </wgt>
<wgt id='1308'> +1.3475417e-12 </wgt>
<wgt id='1309'> +1.3405171e-12 </wgt>
<wgt id='1310'> +1.3414366e-12 </wgt>
<wgt id='1311'> +1.3459377e-12 </wgt>
<wgt id='1312'> +1.3420131e-12 </wgt>
<wgt id='1313'> +1.3452662e-12 </wgt>
<wgt id='1314'> +1.3519395e-12 </wgt>
<wgt id='1315'> +1.3307253e-12 </wgt>
<wgt id='1316'> +1.3480828e-12 </wgt>
<wgt id='1317'> +1.3453089e-12 </wgt>
<wgt id='1318'> +1.3505525e-12 </wgt>
<wgt id='1319'> +1.3352660e-12 </wgt>
<wgt id='1320'> +1.3545410e-12 </wgt>
<wgt id='1321'> +1.3349498e-12 </wgt>
<wgt id='1322'> +1.3440572e-12 </wgt>
<wgt id='1323'> +1.3430475e-12 </wgt>
<wgt id='1324'> +1.3409726e-12 </wgt>
<wgt id='1325'> +1.3525538e-12 </wgt>
<wgt id='1326'> +1.3463549e-12 </wgt>
<wgt id='1327'> +1.3432772e-12 </wgt>
<wgt id='1328'> +1.3442950e-12 </wgt>
<wgt id='1329'> +1.3427125e-12 </wgt>
<wgt id='1330'> +1.3248617e-12 </wgt>
<wgt id='1331'> +1.3586151e-12 </wgt>
<wgt id='1332'> +1.3622855e-12 </wgt>
<wgt id='1333'> +1.3302336e-12 </wgt>
<wgt id='1334'> +1.3386197e-12 </wgt>
<wgt id='1335'> +1.3561706e-12 </wgt>
<wgt id='1336'> +1.3369642e-12 </wgt>
<wgt id='1337'> +1.3417849e-12 </wgt>
<wgt id='1338'> +1.3439822e-12 </wgt>
<wgt id='1339'> +1.3435571e-12 </wgt>
<wgt id='1340'> +1.3256001e-12 </wgt>
<wgt id='1341'> +1.3254050e-12 </wgt>
<wgt id='1342'> +1.3258149e-12 </wgt>
<wgt id='1343'> +1.3198407e-12 </wgt>
<wgt id='1344'> +1.3294721e-12 </wgt>
<wgt id='1345'> +1.3251781e-12 </wgt>
<wgt id='1346'> +1.3260202e-12 </wgt>
<wgt id='1347'> +1.3217901e-12 </wgt>
<wgt id='1348'> +1.3298088e-12 </wgt>
<wgt id='1349'> +1.3279207e-12 </wgt>
<wgt id='1350'> +1.3232955e-12 </wgt>
<wgt id='1351'> +1.3280440e-12 </wgt>
<wgt id='1352'> +1.3202689e-12 </wgt>
<wgt id='1353'> +1.3235728e-12 </wgt>
<wgt id='1354'> +1.3292249e-12 </wgt>
<wgt id='1355'> +1.3206868e-12 </wgt>
<wgt id='1356'> +1.3283559e-12 </wgt>
<wgt id='1357'> +1.3245788e-12 </wgt>
<wgt id='1358'> +1.3269074e-12 </wgt>
<wgt id='1359'> +1.3304372e-12 </wgt>
<wgt id='1360'> +1.3214312e-12 </wgt>
<wgt id='1361'> +1.3235747e-12 </wgt>
<wgt id='1362'> +1.3284069e-12 </wgt>
<wgt id='1363'> +1.3224463e-12 </wgt>
<wgt id='1364'> +1.3280150e-12 </wgt>
<wgt id='1365'> +1.3127615e-12 </wgt>
<wgt id='1366'> +1.3354681e-12 </wgt>
<wgt id='1367'> +1.3293919e-12 </wgt>
<wgt id='1368'> +1.3270711e-12 </wgt>
<wgt id='1369'> +1.3313198e-12 </wgt>
<wgt id='1370'> +1.3188819e-12 </wgt>
<wgt id='1371'> +1.3335920e-12 </wgt>
<wgt id='1372'> +1.3165394e-12 </wgt>
<wgt id='1373'> +1.3251450e-12 </wgt>
<wgt id='1374'> +1.3261155e-12 </wgt>
<wgt id='1375'> +1.3232243e-12 </wgt>
<wgt id='1376'> +1.3345960e-12 </wgt>
<wgt id='1377'> +1.3281662e-12 </wgt>
<wgt id='1378'> +1.3257853e-12 </wgt>
<wgt id='1379'> +1.3259119e-12 </wgt>
<wgt id='1380'> +1.3251202e-12 </wgt>
<wgt id='1381'> +1.3066611e-12 </wgt>
<wgt id='1382'> +1.3391002e-12 </wgt>
<wgt id='1383'> +1.3452799e-12 </wgt>
<wgt id='1384'> +1.3107310e-12 </wgt>
<wgt id='1385'> +1.3206580e-12 </wgt>
<wgt id='1386'> +1.3374970e-12 </wgt>
<wgt id='1387'> +1.3172566e-12 </wgt>
<wgt id='1388'> +1.3244010e-12 </wgt>
<wgt id='1389'> +1.3245889e-12 </wgt>
<wgt id='1390'> +1.3259377e-12 </wgt>
<wgt id='1391'> +1.2961084e-12 </wgt>
<wgt id='1392'> +1.2717273e-12 </wgt>
<wgt id='1393'> +1.2798732e-12 </wgt>
<wgt id='1394'> +1.2883757e-12 </wgt>
<wgt id='1395'> +1.3041642e-12 </wgt>
<wgt id='1396'> +1.2967709e-12 </wgt>
<wgt id='1397'> +1.2627637e-12 </wgt>
<wgt id='1398'> +1.2701742e-12 </wgt>
<wgt id='1399'> +1.2766996e-12 </wgt>
<wgt id='1400'> +1.2831315e-12 </wgt>
<wgt id='1401'> +1.2899924e-12 </wgt>
<wgt id='1402'> +1.3029241e-12 </wgt>
<wgt id='1403'> +1.3090399e-12 </wgt>
<wgt id='1404'> +1.3146985e-12 </wgt>
<wgt id='1405'> +1.2967709e-12 </wgt>
<wgt id='1406'> +1.2927341e-12 </wgt>
<wgt id='1407'> +1.2950195e-12 </wgt>
<wgt id='1408'> +1.2984231e-12 </wgt>
<wgt id='1409'> +1.3002881e-12 </wgt>
<wgt id='1410'> +1.2897306e-12 </wgt>
<wgt id='1411'> +1.2886288e-12 </wgt>
<wgt id='1412'> +1.2911732e-12 </wgt>
<wgt id='1413'> +1.2941574e-12 </wgt>
<wgt id='1414'> +1.2853372e-12 </wgt>
<wgt id='1415'> +1.2829615e-12 </wgt>
<wgt id='1416'> +1.2924835e-12 </wgt>
<wgt id='1417'> +1.2838783e-12 </wgt>
<wgt id='1418'> +1.2955706e-12 </wgt>
<wgt id='1419'> +1.2902574e-12 </wgt>
<wgt id='1420'> +1.2892328e-12 </wgt>
<wgt id='1421'> +1.2802230e-12 </wgt>
<wgt id='1422'> +1.2938642e-12 </wgt>
<wgt id='1423'> +1.2901129e-12 </wgt>
<wgt id='1424'> +1.2892684e-12 </wgt>
<wgt id='1425'> +1.2849147e-12 </wgt>
<wgt id='1426'> +1.2949626e-12 </wgt>
<wgt id='1427'> +1.2917953e-12 </wgt>
<wgt id='1428'> +1.2884813e-12 </wgt>
<wgt id='1429'> +1.2877810e-12 </wgt>
<wgt id='1430'> +1.2923977e-12 </wgt>
<wgt id='1431'> +1.2940235e-12 </wgt>
<wgt id='1432'> +1.2867453e-12 </wgt>
<wgt id='1433'> +1.2980744e-12 </wgt>
<wgt id='1434'> +1.2814144e-12 </wgt>
<wgt id='1435'> +1.2925171e-12 </wgt>
<wgt id='1436'> +1.2829679e-12 </wgt>
<wgt id='1437'> +1.2965470e-12 </wgt>
<wgt id='1438'> +1.2882526e-12 </wgt>
<wgt id='1439'> +1.2843482e-12 </wgt>
<wgt id='1440'> +1.3031347e-12 </wgt>
<wgt id='1441'> +1.2933229e-12 </wgt>
<wgt id='1442'> +1.2831978e-12 </wgt>
<wgt id='1443'> +1.2870990e-12 </wgt>
<wgt id='1444'> +1.2961478e-12 </wgt>
<wgt id='1445'> +1.2983752e-12 </wgt>
<wgt id='1446'> +1.2868848e-12 </wgt>
<wgt id='1447'> +1.2903250e-12 </wgt>
<wgt id='1448'> +1.2913670e-12 </wgt>
<wgt id='1449'> +1.2908395e-12 </wgt>
<wgt id='1450'> +1.2887648e-12 </wgt>
<wgt id='1451'> +1.2962900e-12 </wgt>
<wgt id='1452'> +1.2704694e-12 </wgt>
<wgt id='1453'> +1.2914302e-12 </wgt>
<wgt id='1454'> +1.2812217e-12 </wgt>
<wgt id='1455'> +1.2760406e-12 </wgt>
<wgt id='1456'> +1.2942622e-12 </wgt>
<wgt id='1457'> +1.2955952e-12 </wgt>
<wgt id='1458'> +1.2866395e-12 </wgt>
<wgt id='1459'> +1.2926013e-12 </wgt>
<wgt id='1460'> +1.2825898e-12 </wgt>
<wgt id='1461'> +1.2897306e-12 </wgt>
<wgt id='1462'> +1.2841391e-12 </wgt>
<wgt id='1463'> +1.2982990e-12 </wgt>
<wgt id='1464'> +1.2911791e-12 </wgt>
<wgt id='1465'> +1.2637263e-12 </wgt>
<wgt id='1466'> +1.2699623e-12 </wgt>
<wgt id='1467'> +1.2761640e-12 </wgt>
<wgt id='1468'> +1.2802946e-12 </wgt>
<wgt id='1469'> +1.2861389e-12 </wgt>
<wgt id='1470'> +1.2965485e-12 </wgt>
<wgt id='1471'> +1.3000929e-12 </wgt>
<wgt id='1472'> +1.3050798e-12 </wgt>
<wgt id='1473'> +1.2911791e-12 </wgt>
<wgt id='1474'> +1.2867806e-12 </wgt>
<wgt id='1475'> +1.2881922e-12 </wgt>
<wgt id='1476'> +1.2930360e-12 </wgt>
<wgt id='1477'> +1.2949138e-12 </wgt>
<wgt id='1478'> +1.2679772e-12 </wgt>
<wgt id='1479'> +1.2653820e-12 </wgt>
<wgt id='1480'> +1.2789494e-12 </wgt>
<wgt id='1481'> +1.2620773e-12 </wgt>
<wgt id='1482'> +1.2659607e-12 </wgt>
<wgt id='1483'> +1.2568379e-12 </wgt>
<wgt id='1484'> +1.2716643e-12 </wgt>
<wgt id='1485'> +1.2642394e-12 </wgt>
<wgt id='1486'> +1.2680978e-12 </wgt>
<wgt id='1487'> +1.2648500e-12 </wgt>
<wgt id='1488'> +1.2650875e-12 </wgt>
<wgt id='1489'> +1.2881152e-12 </wgt>
<wgt id='1490'> +1.2642379e-12 </wgt>
<wgt id='1491'> +1.2683371e-12 </wgt>
<wgt id='1492'> +1.2705479e-12 </wgt>
<wgt id='1493'> +1.2534119e-12 </wgt>
<wgt id='1494'> +1.2738100e-12 </wgt>
<wgt id='1495'> +1.2610665e-12 </wgt>
<wgt id='1496'> +1.2664162e-12 </wgt>
<wgt id='1497'> +1.2671977e-12 </wgt>
<wgt id='1498'> +1.2689267e-12 </wgt>
<wgt id='1499'> +1.2685407e-12 </wgt>
<wgt id='1500'> +1.2686679e-12 </wgt>
<wgt id='1501'> +1.2677653e-12 </wgt>
<wgt id='1502'> +1.2695469e-12 </wgt>
<wgt id='1503'> +1.2715421e-12 </wgt>
<wgt id='1504'> +1.2664572e-12 </wgt>
<wgt id='1505'> +1.2706662e-12 </wgt>
<wgt id='1506'> +1.2656565e-12 </wgt>
<wgt id='1507'> +1.2667521e-12 </wgt>
<wgt id='1508'> +1.2716233e-12 </wgt>
<wgt id='1509'> +1.3220609e-12 </wgt>
<wgt id='1510'> +1.3213473e-12 </wgt>
<wgt id='1511'> +1.3247887e-12 </wgt>
<wgt id='1512'> +1.3249714e-12 </wgt>
<wgt id='1513'> +1.3264147e-12 </wgt>
<wgt id='1514'> +1.3202419e-12 </wgt>
<wgt id='1515'> +1.3164003e-12 </wgt>
<wgt id='1516'> +1.3185763e-12 </wgt>
<wgt id='1517'> +1.3173378e-12 </wgt>
<wgt id='1518'> +1.3257237e-12 </wgt>
<wgt id='1519'> +1.3155415e-12 </wgt>
<wgt id='1520'> +1.3213668e-12 </wgt>
<wgt id='1521'> +1.3294685e-12 </wgt>
<wgt id='1522'> +1.3262195e-12 </wgt>
<wgt id='1523'> +1.3251674e-12 </wgt>
<wgt id='1524'> +1.3303368e-12 </wgt>
<wgt id='1525'> +1.3263738e-12 </wgt>
<wgt id='1526'> +1.3171245e-12 </wgt>
<wgt id='1527'> +1.3206460e-12 </wgt>
<wgt id='1528'> +1.3168729e-12 </wgt>
<wgt id='1529'> +1.3193003e-12 </wgt>
<wgt id='1530'> +1.3280084e-12 </wgt>
<wgt id='1531'> +1.3230246e-12 </wgt>
<wgt id='1532'> +1.3150145e-12 </wgt>
<wgt id='1533'> +1.3317797e-12 </wgt>
<wgt id='1534'> +1.3220763e-12 </wgt>
<wgt id='1535'> +1.3185561e-12 </wgt>
<wgt id='1536'> +1.3221094e-12 </wgt>
<wgt id='1537'> +1.3196703e-12 </wgt>
<wgt id='1538'> +1.3221242e-12 </wgt>
<wgt id='1539'> +1.3323112e-12 </wgt>
<wgt id='1540'> +1.3236176e-12 </wgt>
<wgt id='1541'> +1.3218133e-12 </wgt>
<wgt id='1542'> +1.3180097e-12 </wgt>
<wgt id='1543'> +1.3215331e-12 </wgt>
<wgt id='1544'> +1.3241332e-12 </wgt>
<wgt id='1545'> +1.3228315e-12 </wgt>
<wgt id='1546'> +1.3224263e-12 </wgt>
<wgt id='1547'> +1.3217197e-12 </wgt>
<wgt id='1548'> +1.3221415e-12 </wgt>
<wgt id='1549'> +1.3229557e-12 </wgt>
<wgt id='1550'> +1.3220480e-12 </wgt>
<wgt id='1551'> +1.3243894e-12 </wgt>
<wgt id='1552'> +1.3220110e-12 </wgt>
<wgt id='1553'> +1.3240948e-12 </wgt>
<wgt id='1554'> +1.3237549e-12 </wgt>
<wgt id='1555'> +1.3222050e-12 </wgt>
<wgt id='1556'> +1.3223698e-12 </wgt>
<wgt id='1557'> +1.3212588e-12 </wgt>
<wgt id='1558'> +1.3230782e-12 </wgt>
<wgt id='1559'> +1.3234272e-12 </wgt>
<wgt id='1560'> +1.3220051e-12 </wgt>
<wgt id='1561'> +1.3201686e-12 </wgt>
<wgt id='1562'> +1.3214230e-12 </wgt>
<wgt id='1563'> +1.3204716e-12 </wgt>
<wgt id='1564'> +1.3227388e-12 </wgt>
<wgt id='1565'> +1.3231508e-12 </wgt>
<wgt id='1566'> +1.3230057e-12 </wgt>
<wgt id='1567'> +1.3229833e-12 </wgt>
<wgt id='1568'> +1.3196521e-12 </wgt>
<wgt id='1569'> +1.3213768e-12 </wgt>
<wgt id='1570'> +1.3214595e-12 </wgt>
<wgt id='1571'> +1.3220656e-12 </wgt>
<wgt id='1572'> +1.3231365e-12 </wgt>
<wgt id='1573'> +1.3229819e-12 </wgt>
<wgt id='1574'> +1.3229160e-12 </wgt>
<wgt id='1575'> +1.3214114e-12 </wgt>
<wgt id='1576'> +1.3214772e-12 </wgt>
<wgt id='1577'> +1.3228122e-12 </wgt>
<wgt id='1578'> +1.3205023e-12 </wgt>
<wgt id='1579'> +1.3230906e-12 </wgt>
<wgt id='1580'> +1.3205152e-12 </wgt>
<wgt id='1581'> +1.3208790e-12 </wgt>
<wgt id='1582'> +1.3214868e-12 </wgt>
<wgt id='1583'> +1.3223385e-12 </wgt>
<wgt id='1584'> +1.3217931e-12 </wgt>
<wgt id='1585'> +1.3225412e-12 </wgt>
<wgt id='1586'> +1.3223074e-12 </wgt>
<wgt id='1587'> +1.3218438e-12 </wgt>
<wgt id='1588'> +1.3231585e-12 </wgt>
<wgt id='1589'> +1.3226937e-12 </wgt>
<wgt id='1590'> +1.3224098e-12 </wgt>
<wgt id='1591'> +1.3231602e-12 </wgt>
<wgt id='1592'> +1.3219167e-12 </wgt>
<wgt id='1593'> +1.3232185e-12 </wgt>
<wgt id='1594'> +1.3228750e-12 </wgt>
<wgt id='1595'> +1.3214108e-12 </wgt>
<wgt id='1596'> +1.3222669e-12 </wgt>
<wgt id='1597'> +1.3220280e-12 </wgt>
<wgt id='1598'> +1.3226766e-12 </wgt>
<wgt id='1599'> +1.3219855e-12 </wgt>
<wgt id='1600'> +1.3219057e-12 </wgt>
<wgt id='1601'> +1.3220479e-12 </wgt>
<wgt id='1602'> +1.3215941e-12 </wgt>
<wgt id='1603'> +1.3218287e-12 </wgt>
<wgt id='1604'> +1.3221088e-12 </wgt>
<wgt id='1605'> +1.3218758e-12 </wgt>
<wgt id='1606'> +1.3218731e-12 </wgt>
<wgt id='1607'> +1.3223394e-12 </wgt>
<wgt id='1608'> +1.3226170e-12 </wgt>
<wgt id='1609'> +1.3221745e-12 </wgt>
<wgt id='1610'> +1.3083214e-12 </wgt>
<wgt id='1611'> +1.3335615e-12 </wgt>
<wgt id='1612'> +1.5073263e-12 </wgt>
<wgt id='1613'> +1.5166536e-12 </wgt>
<wgt id='1614'> +1.5236278e-12 </wgt>
<wgt id='1615'> +1.4892660e-12 </wgt>
<wgt id='1616'> +1.5497809e-12 </wgt>
<wgt id='1617'> +1.5430866e-12 </wgt>
<wgt id='1618'> +1.5259340e-12 </wgt>
<wgt id='1619'> +1.5266310e-12 </wgt>
<wgt id='1620'> +1.4857354e-12 </wgt>
<wgt id='1621'> +1.5055019e-12 </wgt>
<wgt id='1622'> +1.4820802e-12 </wgt>
<wgt id='1623'> +1.4832815e-12 </wgt>
<wgt id='1624'> +1.4711653e-12 </wgt>
<wgt id='1625'> +1.5041806e-12 </wgt>
<wgt id='1626'> +1.4553167e-12 </wgt>
<wgt id='1627'> +1.4899984e-12 </wgt>
<wgt id='1628'> +1.5157726e-12 </wgt>
<wgt id='1629'> +1.5678947e-12 </wgt>
<wgt id='1630'> +1.5014142e-12 </wgt>
<wgt id='1631'> +1.5043663e-12 </wgt>
<wgt id='1632'> +1.4772295e-12 </wgt>
<wgt id='1633'> +1.4814363e-12 </wgt>
<wgt id='1634'> +1.5264659e-12 </wgt>
<wgt id='1635'> +1.5389601e-12 </wgt>
<wgt id='1636'> +1.5646859e-12 </wgt>
<wgt id='1637'> +1.4932409e-12 </wgt>
<wgt id='1638'> +1.5307703e-12 </wgt>
<wgt id='1639'> +1.5279795e-12 </wgt>
<wgt id='1640'> +1.5355127e-12 </wgt>
<wgt id='1641'> +1.4871735e-12 </wgt>
<wgt id='1642'> +1.4974742e-12 </wgt>
<wgt id='1643'> +1.5059170e-12 </wgt>
<wgt id='1644'> +1.4739660e-12 </wgt>
<wgt id='1645'> +1.5046096e-12 </wgt>
<wgt id='1646'> +1.4861429e-12 </wgt>
<wgt id='1647'> +1.4971065e-12 </wgt>
<wgt id='1648'> +1.5378491e-12 </wgt>
<wgt id='1649'> +1.5000461e-12 </wgt>
<wgt id='1650'> +1.4824535e-12 </wgt>
<wgt id='1651'> +1.4667351e-12 </wgt>
<wgt id='1652'> +1.4871174e-12 </wgt>
<wgt id='1653'> +1.5437497e-12 </wgt>
<wgt id='1654'> +1.5275411e-12 </wgt>
<wgt id='1655'> +1.4813310e-12 </wgt>
<wgt id='1656'> +1.4570317e-12 </wgt>
<wgt id='1657'> +1.5159296e-12 </wgt>
<wgt id='1658'> +1.4625191e-12 </wgt>
<wgt id='1659'> +1.4711653e-12 </wgt>
<wgt id='1660'> +1.5387251e-12 </wgt>
<wgt id='1661'> +1.4562715e-12 </wgt>
<wgt id='1662'> +1.4932186e-12 </wgt>
<wgt id='1663'> +1.4803521e-12 </wgt>
<wgt id='1664'> +1.5319132e-12 </wgt>
<wgt id='1665'> +1.4668771e-12 </wgt>
<wgt id='1666'> +1.4916061e-12 </wgt>
<wgt id='1667'> +1.4824563e-12 </wgt>
<wgt id='1668'> +1.5458806e-12 </wgt>
<wgt id='1669'> +1.4968846e-12 </wgt>
<wgt id='1670'> +1.5325930e-12 </wgt>
<wgt id='1671'> +1.4881904e-12 </wgt>
<wgt id='1672'> +1.5061204e-12 </wgt>
<wgt id='1673'> +1.4871323e-12 </wgt>
<wgt id='1674'> +1.5134564e-12 </wgt>
<wgt id='1675'> +1.5498237e-12 </wgt>
<wgt id='1676'> +1.5425757e-12 </wgt>
<wgt id='1677'> +1.5417324e-12 </wgt>
<wgt id='1678'> +1.5158479e-12 </wgt>
<wgt id='1679'> +1.5415829e-12 </wgt>
<wgt id='1680'> +1.5715903e-12 </wgt>
<wgt id='1681'> +1.5233817e-12 </wgt>
<wgt id='1682'> +1.4876189e-12 </wgt>
<wgt id='1683'> +1.4859477e-12 </wgt>
<wgt id='1684'> +1.4643845e-12 </wgt>
<wgt id='1685'> +1.5051122e-12 </wgt>
<wgt id='1686'> +1.5152182e-12 </wgt>
<wgt id='1687'> +1.5285230e-12 </wgt>
<wgt id='1688'> +1.5124090e-12 </wgt>
<wgt id='1689'> +1.5056001e-12 </wgt>
<wgt id='1690'> +1.5575490e-12 </wgt>
<wgt id='1691'> +1.5916036e-12 </wgt>
<wgt id='1692'> +1.5515843e-12 </wgt>
<wgt id='1693'> +1.4928543e-12 </wgt>
<wgt id='1694'> +1.4140597e-12 </wgt>
<wgt id='1695'> +1.4807289e-12 </wgt>
<wgt id='1696'> +1.5670407e-12 </wgt>
<wgt id='1697'> +1.5284581e-12 </wgt>
<wgt id='1698'> +1.5033536e-12 </wgt>
<wgt id='1699'> +1.5470814e-12 </wgt>
<wgt id='1700'> +1.4884543e-12 </wgt>
<wgt id='1701'> +1.5082615e-12 </wgt>
<wgt id='1702'> +1.5140995e-12 </wgt>
<wgt id='1703'> +1.5157441e-12 </wgt>
<wgt id='1704'> +1.4915939e-12 </wgt>
<wgt id='1705'> +1.4715923e-12 </wgt>
<wgt id='1706'> +1.5341708e-12 </wgt>
<wgt id='1707'> +1.4740772e-12 </wgt>
<wgt id='1708'> +1.4875204e-12 </wgt>
<wgt id='1709'> +1.5060769e-12 </wgt>
<wgt id='1710'> +1.4970869e-12 </wgt>
<wgt id='1711'> +1.5052638e-12 </wgt>
<wgt id='1712'> +1.4957713e-12 </wgt>
<wgt id='1713'> +1.2484742e-12 </wgt>
<wgt id='1714'> +1.2170989e-12 </wgt>
<wgt id='1715'> +1.2877619e-12 </wgt>
<wgt id='1716'> +1.2686861e-12 </wgt>
<wgt id='1717'> +1.2537839e-12 </wgt>
<wgt id='1718'> +1.2233752e-12 </wgt>
<wgt id='1719'> +1.2039402e-12 </wgt>
<wgt id='1720'> +1.2661676e-12 </wgt>
<wgt id='1721'> +1.2388036e-12 </wgt>
<wgt id='1722'> +1.2392522e-12 </wgt>
<wgt id='1723'> +1.1959137e-12 </wgt>
<wgt id='1724'> +1.2445306e-12 </wgt>
<wgt id='1725'> +1.2656981e-12 </wgt>
<wgt id='1726'> +1.2594345e-12 </wgt>
<wgt id='1727'> +1.2221582e-12 </wgt>
<wgt id='1728'> +1.2421352e-12 </wgt>
<wgt id='1729'> +1.2432514e-12 </wgt>
<wgt id='1730'> +1.2089770e-12 </wgt>
<wgt id='1731'> +1.1947251e-12 </wgt>
<wgt id='1732'> +1.2615702e-12 </wgt>
<wgt id='1733'> +1.2692400e-12 </wgt>
<wgt id='1734'> +1.2957303e-12 </wgt>
<wgt id='1735'> +1.2528160e-12 </wgt>
<wgt id='1736'> +1.3140190e-12 </wgt>
<wgt id='1737'> +1.2521680e-12 </wgt>
<wgt id='1738'> +1.2851755e-12 </wgt>
<wgt id='1739'> +1.1989387e-12 </wgt>
<wgt id='1740'> +1.2362849e-12 </wgt>
<wgt id='1741'> +1.2393455e-12 </wgt>
<wgt id='1742'> +1.2375553e-12 </wgt>
<wgt id='1743'> +1.2923979e-12 </wgt>
<wgt id='1744'> +1.2760410e-12 </wgt>
<wgt id='1745'> +1.1746337e-12 </wgt>
<wgt id='1746'> +1.2790196e-12 </wgt>
<wgt id='1747'> +1.2511146e-12 </wgt>
<wgt id='1748'> +1.2871958e-12 </wgt>
<wgt id='1749'> +1.2563843e-12 </wgt>
<wgt id='1750'> +1.2520288e-12 </wgt>
<wgt id='1751'> +1.1785734e-12 </wgt>
<wgt id='1752'> +1.2408338e-12 </wgt>
<wgt id='1753'> +1.2749942e-12 </wgt>
<wgt id='1754'> +1.2710097e-12 </wgt>
<wgt id='1755'> +1.2940837e-12 </wgt>
<wgt id='1756'> +1.2626870e-12 </wgt>
<wgt id='1757'> +1.2461778e-12 </wgt>
<wgt id='1758'> +1.2768037e-12 </wgt>
<wgt id='1759'> +1.2554030e-12 </wgt>
<wgt id='1760'> +1.2248480e-12 </wgt>
<wgt id='1761'> +1.2144557e-12 </wgt>
<wgt id='1762'> +1.2891501e-12 </wgt>
<wgt id='1763'> +1.2737855e-12 </wgt>
<wgt id='1764'> +1.2589092e-12 </wgt>
<wgt id='1765'> +1.2294413e-12 </wgt>
<wgt id='1766'> +1.2103790e-12 </wgt>
<wgt id='1767'> +1.2462631e-12 </wgt>
<wgt id='1768'> +1.2415613e-12 </wgt>
<wgt id='1769'> +1.2146299e-12 </wgt>
<wgt id='1770'> +1.2888891e-12 </wgt>
<wgt id='1771'> +1.2498886e-12 </wgt>
<wgt id='1772'> +1.2784619e-12 </wgt>
<wgt id='1773'> +1.2634453e-12 </wgt>
<wgt id='1774'> +1.2616236e-12 </wgt>
<wgt id='1775'> +1.2700823e-12 </wgt>
<wgt id='1776'> +1.2752363e-12 </wgt>
<wgt id='1777'> +1.2437364e-12 </wgt>
<wgt id='1778'> +1.2388429e-12 </wgt>
<wgt id='1779'> +1.2605016e-12 </wgt>
<wgt id='1780'> +1.2341010e-12 </wgt>
<wgt id='1781'> +1.2407553e-12 </wgt>
<wgt id='1782'> +1.2052390e-12 </wgt>
<wgt id='1783'> +1.2405471e-12 </wgt>
<wgt id='1784'> +1.2698768e-12 </wgt>
<wgt id='1785'> +1.1874799e-12 </wgt>
<wgt id='1786'> +1.1734387e-12 </wgt>
<wgt id='1787'> +1.2420567e-12 </wgt>
<wgt id='1788'> +1.2737213e-12 </wgt>
<wgt id='1789'> +1.1978371e-12 </wgt>
<wgt id='1790'> +1.2464014e-12 </wgt>
<wgt id='1791'> +1.2971570e-12 </wgt>
<wgt id='1792'> +1.2156545e-12 </wgt>
<wgt id='1793'> +1.2664075e-12 </wgt>
<wgt id='1794'> +1.2583465e-12 </wgt>
<wgt id='1795'> +1.2664385e-12 </wgt>
<wgt id='1796'> +1.2295428e-12 </wgt>
<wgt id='1797'> +1.2665379e-12 </wgt>
<wgt id='1798'> +1.2384724e-12 </wgt>
<wgt id='1799'> +1.2625022e-12 </wgt>
<wgt id='1800'> +1.2345123e-12 </wgt>
<wgt id='1801'> +1.2681349e-12 </wgt>
<wgt id='1802'> +1.2466228e-12 </wgt>
<wgt id='1803'> +1.2629771e-12 </wgt>
<wgt id='1804'> +1.2423178e-12 </wgt>
<wgt id='1805'> +1.2316462e-12 </wgt>
<wgt id='1806'> +1.2377261e-12 </wgt>
<wgt id='1807'> +1.2661710e-12 </wgt>
<wgt id='1808'> +1.2344581e-12 </wgt>
<wgt id='1809'> +1.2299350e-12 </wgt>
<wgt id='1810'> +1.2686712e-12 </wgt>
<wgt id='1811'> +1.2664100e-12 </wgt>
<wgt id='1812'> +1.2804784e-12 </wgt>
<wgt id='1813'> +1.2485217e-12 </wgt>
<wgt id='1814'> +1.3300071e-12 </wgt>
<wgt id='1815'> +1.5028035e-12 </wgt>
<wgt id='1816'> +1.2484742e-12 </wgt>
<wgt id='1817'> +1.2170989e-12 </wgt>
<wgt id='1818'> +1.2877619e-12 </wgt>
<wgt id='1819'> +1.2686861e-12 </wgt>
<wgt id='1820'> +1.2537839e-12 </wgt>
<wgt id='1821'> +1.2233752e-12 </wgt>
<wgt id='1822'> +1.2039402e-12 </wgt>
<wgt id='1823'> +1.2661676e-12 </wgt>
<wgt id='1824'> +1.2388036e-12 </wgt>
<wgt id='1825'> +1.2392522e-12 </wgt>
<wgt id='1826'> +1.1959137e-12 </wgt>
<wgt id='1827'> +1.2445306e-12 </wgt>
<wgt id='1828'> +1.2656981e-12 </wgt>
<wgt id='1829'> +1.2594345e-12 </wgt>
<wgt id='1830'> +1.2221582e-12 </wgt>
<wgt id='1831'> +1.2421352e-12 </wgt>
<wgt id='1832'> +1.2432514e-12 </wgt>
<wgt id='1833'> +1.2089770e-12 </wgt>
<wgt id='1834'> +1.1947251e-12 </wgt>
<wgt id='1835'> +1.2615702e-12 </wgt>
<wgt id='1836'> +1.2692400e-12 </wgt>
<wgt id='1837'> +1.2957303e-12 </wgt>
<wgt id='1838'> +1.2528160e-12 </wgt>
<wgt id='1839'> +1.3140190e-12 </wgt>
<wgt id='1840'> +1.2521680e-12 </wgt>
<wgt id='1841'> +1.2851755e-12 </wgt>
<wgt id='1842'> +1.1989387e-12 </wgt>
<wgt id='1843'> +1.2362849e-12 </wgt>
<wgt id='1844'> +1.2393455e-12 </wgt>
<wgt id='1845'> +1.2375553e-12 </wgt>
<wgt id='1846'> +1.2923979e-12 </wgt>
<wgt id='1847'> +1.2760410e-12 </wgt>
<wgt id='1848'> +1.1746337e-12 </wgt>
<wgt id='1849'> +1.2790196e-12 </wgt>
<wgt id='1850'> +1.2511146e-12 </wgt>
<wgt id='1851'> +1.2871958e-12 </wgt>
<wgt id='1852'> +1.2563843e-12 </wgt>
<wgt id='1853'> +1.2520288e-12 </wgt>
<wgt id='1854'> +1.1785734e-12 </wgt>
<wgt id='1855'> +1.2408338e-12 </wgt>
<wgt id='1856'> +1.2749942e-12 </wgt>
<wgt id='1857'> +1.2710097e-12 </wgt>
<wgt id='1858'> +1.2940837e-12 </wgt>
<wgt id='1859'> +1.2626870e-12 </wgt>
<wgt id='1860'> +1.2461778e-12 </wgt>
<wgt id='1861'> +1.2768037e-12 </wgt>
<wgt id='1862'> +1.2554030e-12 </wgt>
<wgt id='1863'> +1.2248480e-12 </wgt>
<wgt id='1864'> +1.2144557e-12 </wgt>
<wgt id='1865'> +1.2891501e-12 </wgt>
<wgt id='1866'> +1.2737855e-12 </wgt>
<wgt id='1867'> +1.2589092e-12 </wgt>
<wgt id='1868'> +1.2294413e-12 </wgt>
<wgt id='1869'> +1.2103790e-12 </wgt>
<wgt id='1870'> +1.2462631e-12 </wgt>
<wgt id='1871'> +1.2415613e-12 </wgt>
<wgt id='1872'> +1.2146299e-12 </wgt>
<wgt id='1873'> +1.2888891e-12 </wgt>
<wgt id='1874'> +1.2498886e-12 </wgt>
<wgt id='1875'> +1.2784619e-12 </wgt>
<wgt id='1876'> +1.2634453e-12 </wgt>
<wgt id='1877'> +1.2616236e-12 </wgt>
<wgt id='1878'> +1.2700823e-12 </wgt>
<wgt id='1879'> +1.2752363e-12 </wgt>
<wgt id='1880'> +1.2437364e-12 </wgt>
<wgt id='1881'> +1.2388429e-12 </wgt>
<wgt id='1882'> +1.2605016e-12 </wgt>
<wgt id='1883'> +1.2341010e-12 </wgt>
<wgt id='1884'> +1.2407553e-12 </wgt>
<wgt id='1885'> +1.2052390e-12 </wgt>
<wgt id='1886'> +1.2405471e-12 </wgt>
<wgt id='1887'> +1.2698768e-12 </wgt>
<wgt id='1888'> +1.1874799e-12 </wgt>
<wgt id='1889'> +1.1734387e-12 </wgt>
<wgt id='1890'> +1.2420567e-12 </wgt>
<wgt id='1891'> +1.2737213e-12 </wgt>
<wgt id='1892'> +1.1978371e-12 </wgt>
<wgt id='1893'> +1.2464014e-12 </wgt>
<wgt id='1894'> +1.2971570e-12 </wgt>
<wgt id='1895'> +1.2156545e-12 </wgt>
<wgt id='1896'> +1.2664075e-12 </wgt>
<wgt id='1897'> +1.2583465e-12 </wgt>
<wgt id='1898'> +1.2664385e-12 </wgt>
<wgt id='1899'> +1.2295428e-12 </wgt>
<wgt id='1900'> +1.2665379e-12 </wgt>
<wgt id='1901'> +1.2384724e-12 </wgt>
<wgt id='1902'> +1.2625022e-12 </wgt>
<wgt id='1903'> +1.2345123e-12 </wgt>
<wgt id='1904'> +1.2681349e-12 </wgt>
<wgt id='1905'> +1.2466228e-12 </wgt>
<wgt id='1906'> +1.2629771e-12 </wgt>
<wgt id='1907'> +1.2423178e-12 </wgt>
<wgt id='1908'> +1.2316462e-12 </wgt>
<wgt id='1909'> +1.2377261e-12 </wgt>
<wgt id='1910'> +1.2661710e-12 </wgt>
<wgt id='1911'> +1.2344581e-12 </wgt>
<wgt id='1912'> +1.2299350e-12 </wgt>
<wgt id='1913'> +1.2686712e-12 </wgt>
<wgt id='1914'> +1.2664100e-12 </wgt>
<wgt id='1915'> +1.2804784e-12 </wgt>
<wgt id='1916'> +1.2485217e-12 </wgt>
<wgt id='1917'> +1.2419018e-12 </wgt>
<wgt id='1918'> +1.2539730e-12 </wgt>
<wgt id='1919'> +1.2776692e-12 </wgt>
</rwgt>
</event>
<event>
 9      1 +1.5538000e-12 5.68770300e+01 7.81860800e-03 1.28078100e-01
       -2 -1    0    0    0  501 -0.0000000000e+00 +0.0000000000e+00 +2.9623400645e+01 2.9623400645e+01 0.0000000000e+00 0.0000e+00 1.0000e+00
       21 -1    0    0  501  502 +0.0000000000e+00 -0.0000000000e+00 -2.7301026473e+01 2.7301026473e+01 0.0000000000e+00 0.0000e+00 1.0000e+00
     1023  2    1    2    0    0 -2.0746204532e+01 -1.6088626591e+01 -2.0588774785e+00 3.0307810614e+01 1.5002516444e+01 0.0000e+00 0.0000e+00
  1000023  2    3    3    0    0 -2.2277189823e+00 -6.4680320305e+00 -4.3561661631e-01 8.7874685491e+00 5.4983335161e+00 0.0000e+00 0.0000e+00
       -2  1    1    2    0  502 +2.0746204532e+01 +1.6088626591e+01 +4.3812516504e+00 2.6616616503e+01 0.0000000000e+00 0.0000e+00 1.0000e+00
  1000022  1    4    4    0    0 -1.7915908227e+00 -6.2520061427e+00 -6.7441014577e-01 8.2311729133e+00 5.0000000000e+00 0.0000e+00 1.0000e+00
      -11  1    4    4    0    0 -2.0526732881e-01 -8.0919636801e-02 +4.2969186300e-02 2.2478717933e-01 5.1100000000e-04 0.0000e+00 1.0000e+00
       11  1    4    4    0    0 -2.3086083074e-01 -1.3510625103e-01 +1.9582434316e-01 3.3150845650e-01 5.1100000000e-04 0.0000e+00 -1.0000e+00
  1000022  1    3    3    0    0 -1.8518485550e+01 -9.6205945604e+00 -1.6232608621e+00 2.1520342065e+01 5.0000000000e+00 0.0000e+00 1.0000e+00
<mgrwt>
<rscale>  1 0.56877034E+02</rscale>
<asrwt>0</asrwt>
<pdfrwt beam="1">  1       21 0.42001579E-02 0.56877034E+02</pdfrwt>
<pdfrwt beam="2">  1       -2 0.45574463E-02 0.56877034E+02</pdfrwt>
<totfact> 0.63283485E+06</totfact>
</mgrwt>
<rwgt>
<wgt id='1001'> +1.5538000e-12 </wgt>
<wgt id='1002'> +1.5532176e-12 </wgt>
<wgt id='1003'> +1.5532411e-12 </wgt>
<wgt id='1004'> +1.4853032e-12 </wgt>
<wgt id='1005'> +1.5538000e-12 </wgt>
<wgt id='1006'> +1.3808672e-12 </wgt>
<wgt id='1007'> +1.3800932e-12 </wgt>
<wgt id='1008'> +1.3801244e-12 </wgt>
<wgt id='1009'> +1.2974379e-12 </wgt>
<wgt id='1010'> +1.3808672e-12 </wgt>
<wgt id='1011'> +1.7783689e-12 </wgt>
<wgt id='1012'> +1.7781365e-12 </wgt>
<wgt id='1013'> +1.7781459e-12 </wgt>
<wgt id='1014'> +1.7399980e-12 </wgt>
<wgt id='1015'> +1.7783689e-12 </wgt>
<wgt id='1016'> +1.7820422e-12 </wgt>
<wgt id='1017'> +1.7821461e-12 </wgt>
<wgt id='1018'> +1.7821420e-12 </wgt>
<wgt id='1019'> +1.7781459e-12 </wgt>
<wgt id='1020'> +1.7820422e-12 </wgt>
<wgt id='1021'> +1.5837068e-12 </wgt>
<wgt id='1022'> +1.5835049e-12 </wgt>
<wgt id='1023'> +1.5835131e-12 </wgt>
<wgt id='1024'> +1.5532411e-12 </wgt>
<wgt id='1025'> +1.5837068e-12 </wgt>
<wgt id='1026'> +2.0395987e-12 </wgt>
<wgt id='1027'> +2.0402158e-12 </wgt>
<wgt id='1028'> +2.0401910e-12 </wgt>
<wgt id='1029'> +2.0830565e-12 </wgt>
<wgt id='1030'> +2.0395987e-12 </wgt>
<wgt id='1031'> +1.2987247e-12 </wgt>
<wgt id='1032'> +1.2973839e-12 </wgt>
<wgt id='1033'> +1.2974379e-12 </wgt>
<wgt id='1034'> +1.1627723e-12 </wgt>
<wgt id='1035'> +1.2987247e-12 </wgt>
<wgt id='1036'> +1.1541810e-12 </wgt>
<wgt id='1037'> +1.1527751e-12 </wgt>
<wgt id='1038'> +1.1528318e-12 </wgt>
<wgt id='1039'> +1.0157017e-12 </wgt>
<wgt id='1040'> +1.1541810e-12 </wgt>
<wgt id='1041'> +1.4864279e-12 </wgt>
<wgt id='1042'> +1.4852559e-12 </wgt>
<wgt id='1043'> +1.4853032e-12 </wgt>
<wgt id='1044'> +1.3621606e-12 </wgt>
<wgt id='1045'> +1.4864279e-12 </wgt>
<wgt id='1046'> +1.5538000e-12 </wgt>
<wgt id='1047'> +1.5934860e-12 </wgt>
<wgt id='1048'> +1.5430338e-12 </wgt>
<wgt id='1049'> +1.5175566e-12 </wgt>
<wgt id='1050'> +1.5377815e-12 </wgt>
<wgt id='1051'> +1.5364760e-12 </wgt>
<wgt id='1052'> +1.5752740e-12 </wgt>
<wgt id='1053'> +1.5468109e-12 </wgt>
<wgt id='1054'> +1.5398618e-12 </wgt>
<wgt id='1055'> +1.5221973e-12 </wgt>
<wgt id='1056'> +1.5400969e-12 </wgt>
<wgt id='1057'> +1.5878063e-12 </wgt>
<wgt id='1058'> +1.5006229e-12 </wgt>
<wgt id='1059'> +1.5493120e-12 </wgt>
<wgt id='1060'> +1.5629446e-12 </wgt>
<wgt id='1061'> +1.5713743e-12 </wgt>
<wgt id='1062'> +1.5654978e-12 </wgt>
<wgt id='1063'> +1.5685646e-12 </wgt>
<wgt id='1064'> +1.5389329e-12 </wgt>
<wgt id='1065'> +1.5579193e-12 </wgt>
<wgt id='1066'> +1.5363038e-12 </wgt>
<wgt id='1067'> +1.5032491e-12 </wgt>
<wgt id='1068'> +1.5733607e-12 </wgt>
<wgt id='1069'> +1.5571624e-12 </wgt>
<wgt id='1070'> +1.5369657e-12 </wgt>
<wgt id='1071'> +1.5342295e-12 </wgt>
<wgt id='1072'> +1.6091496e-12 </wgt>
<wgt id='1073'> +1.5774853e-12 </wgt>
<wgt id='1074'> +1.5265940e-12 </wgt>
<wgt id='1075'> +1.5594677e-12 </wgt>
<wgt id='1076'> +1.5689727e-12 </wgt>
<wgt id='1077'> +1.5709988e-12 </wgt>
<wgt id='1078'> +1.5316623e-12 </wgt>
<wgt id='1079'> +1.5604871e-12 </wgt>
<wgt id='1080'> +1.5244991e-12 </wgt>
<wgt id='1081'> +1.5928837e-12 </wgt>
<wgt id='1082'> +1.5549383e-12 </wgt>
<wgt id='1083'> +1.5645112e-12 </wgt>
<wgt id='1084'> +1.5559716e-12 </wgt>
<wgt id='1085'> +1.5399799e-12 </wgt>
<wgt id='1086'> +1.5841486e-12 </wgt>
<wgt id='1087'> +1.5767494e-12 </wgt>
<wgt id='1088'> +1.5459574e-12 </wgt>
<wgt id='1089'> +1.5610391e-12 </wgt>
<wgt id='1090'> +1.5482329e-12 </wgt>
<wgt id='1091'> +1.5633110e-12 </wgt>
<wgt id='1092'> +1.5860043e-12 </wgt>
<wgt id='1093'> +1.5617661e-12 </wgt>
<wgt id='1094'> +1.5704044e-12 </wgt>
<wgt id='1095'> +1.5776569e-12 </wgt>
<wgt id='1096'> +1.5552715e-12 </wgt>
<wgt id='1097'> +1.5042595e-12 </wgt>
<wgt id='1098'> +1.5342587e-12 </wgt>
<wgt id='1099'> +1.5641512e-12 </wgt>
<wgt id='1100'> +1.5408682e-12 </wgt>
<wgt id='1101'> +1.5892387e-12 </wgt>
<wgt id='1102'> +1.5313055e-12 </wgt>
<wgt id='1103'> +1.5581952e-12 </wgt>
<wgt id='1104'> +1.5432856e-12 </wgt>
<wgt id='1105'> +1.5824370e-12 </wgt>
<wgt id='1106'> +1.5844065e-12 </wgt>
<wgt id='1107'> +1.5695705e-12 </wgt>
<wgt id='1108'> +1.5424345e-12 </wgt>
<wgt id='1109'> +1.5699715e-12 </wgt>
<wgt id='1110'> +1.5384990e-12 </wgt>
<wgt id='1111'> +1.5791354e-12 </wgt>
<wgt id='1112'> +1.6057235e-12 </wgt>
<wgt id='1113'> +1.5407301e-12 </wgt>
<wgt id='1114'> +1.5815563e-12 </wgt>
<wgt id='1115'> +1.5526468e-12 </wgt>
<wgt id='1116'> +1.5170192e-12 </wgt>
<wgt id='1117'> +1.5446248e-12 </wgt>
<wgt id='1118'> +1.5437253e-12 </wgt>
<wgt id='1119'> +1.5190230e-12 </wgt>
<wgt id='1120'> +1.5446567e-12 </wgt>
<wgt id='1121'> +1.5575934e-12 </wgt>
<wgt id='1122'> +1.6067861e-12 </wgt>
<wgt id='1123'> +1.5234862e-12 </wgt>
<wgt id='1124'> +1.5490553e-12 </wgt>
<wgt id='1125'> +1.5624826e-12 </wgt>
<wgt id='1126'> +1.5753054e-12 </wgt>
<wgt id='1127'> +1.5248707e-12 </wgt>
<wgt id='1128'> +1.5654978e-12 </wgt>
<wgt id='1129'> +1.5652663e-12 </wgt>
<wgt id='1130'> +1.5436687e-12 </wgt>
<wgt id='1131'> +1.5678444e-12 </wgt>
<wgt id='1132'> +1.5428068e-12 </wgt>
<wgt id='1133'> +1.5153778e-12 </wgt>
<wgt id='1134'> +1.5712141e-12 </wgt>
<wgt id='1135'> +1.5484654e-12 </wgt>
<wgt id='1136'> +1.5197482e-12 </wgt>
<wgt id='1137'> +1.5321286e-12 </wgt>
<wgt id='1138'> +1.5518034e-12 </wgt>
<wgt id='1139'> +1.5561063e-12 </wgt>
<wgt id='1140'> +1.5375329e-12 </wgt>
<wgt id='1141'> +1.5111051e-12 </wgt>
<wgt id='1142'> +1.5593995e-12 </wgt>
<wgt id='1143'> +1.5741412e-12 </wgt>
<wgt id='1144'> +1.5612829e-12 </wgt>
<wgt id='1145'> +1.5558931e-12 </wgt>
<wgt id='1146'> +1.5503489e-12 </wgt>
<wgt id='1147'> +1.2054308e-12 </wgt>
<wgt id='1148'> +1.2341171e-12 </wgt>
<wgt id='1149'> +1.2696890e-12 </wgt>
<wgt id='1150'> +1.2312134e-12 </wgt>
<wgt id='1151'> +1.1891252e-12 </wgt>
<wgt id='1152'> +1.5156736e-12 </wgt>
<wgt id='1153'> +1.5080133e-12 </wgt>
<wgt id='1154'> +1.5201146e-12 </wgt>
<wgt id='1155'> +1.5149624e-12 </wgt>
<wgt id='1156'> +1.5160732e-12 </wgt>
<wgt id='1157'> +1.5191765e-12 </wgt>
<wgt id='1158'> +1.5109527e-12 </wgt>
<wgt id='1159'> +1.5186119e-12 </wgt>
<wgt id='1160'> +1.5137889e-12 </wgt>
<wgt id='1161'> +1.5121425e-12 </wgt>
<wgt id='1162'> +1.5181487e-12 </wgt>
<wgt id='1163'> +1.5196078e-12 </wgt>
<wgt id='1164'> +1.5117527e-12 </wgt>
<wgt id='1165'> +1.5067567e-12 </wgt>
<wgt id='1166'> +1.5243778e-12 </wgt>
<wgt id='1167'> +1.5235078e-12 </wgt>
<wgt id='1168'> +1.5045200e-12 </wgt>
<wgt id='1169'> +1.5178399e-12 </wgt>
<wgt id='1170'> +1.5140561e-12 </wgt>
<wgt id='1171'> +1.5117650e-12 </wgt>
<wgt id='1172'> +1.5202809e-12 </wgt>
<wgt id='1173'> +1.5053386e-12 </wgt>
<wgt id='1174'> +1.5252373e-12 </wgt>
<wgt id='1175'> +1.5147674e-12 </wgt>
<wgt id='1176'> +1.5154992e-12 </wgt>
<wgt id='1177'> +1.5163006e-12 </wgt>
<wgt id='1178'> +1.5140882e-12 </wgt>
<wgt id='1179'> +1.5250002e-12 </wgt>
<wgt id='1180'> +1.5003357e-12 </wgt>
<wgt id='1181'> +1.5102319e-12 </wgt>
<wgt id='1182'> +1.5207597e-12 </wgt>
<wgt id='1183'> +1.5140623e-12 </wgt>
<wgt id='1184'> +1.5158814e-12 </wgt>
<wgt id='1185'> +1.5077849e-12 </wgt>
<wgt id='1186'> +1.5199163e-12 </wgt>
<wgt id='1187'> +1.5149002e-12 </wgt>
<wgt id='1188'> +1.5159684e-12 </wgt>
<wgt id='1189'> +1.5103036e-12 </wgt>
<wgt id='1190'> +1.5057916e-12 </wgt>
<wgt id='1191'> +1.5113120e-12 </wgt>
<wgt id='1192'> +1.5158295e-12 </wgt>
<wgt id='1193'> +1.2559987e-12 </wgt>
<wgt id='1194'> +1.2553131e-12 </wgt>
<wgt id='1195'> +1.2564280e-12 </wgt>
<wgt id='1196'> +1.2621820e-12 </wgt>
<wgt id='1197'> +1.2490631e-12 </wgt>
<wgt id='1198'> +1.2561153e-12 </wgt>
<wgt id='1199'> +1.2556762e-12 </wgt>
<wgt id='1200'> +1.2577537e-12 </wgt>
<wgt id='1201'> +1.2547068e-12 </wgt>
<wgt id='1202'> +1.2541924e-12 </wgt>
<wgt id='1203'> +1.2584174e-12 </wgt>
<wgt id='1204'> +1.2454590e-12 </wgt>
<wgt id='1205'> +1.2624327e-12 </wgt>
<wgt id='1206'> +1.2605442e-12 </wgt>
<wgt id='1207'> +1.2497434e-12 </wgt>
<wgt id='1208'> +1.2483075e-12 </wgt>
<wgt id='1209'> +1.2587401e-12 </wgt>
<wgt id='1210'> +1.2596889e-12 </wgt>
<wgt id='1211'> +1.2434187e-12 </wgt>
<wgt id='1212'> +1.2562221e-12 </wgt>
<wgt id='1213'> +1.2556046e-12 </wgt>
<wgt id='1214'> +1.2390845e-12 </wgt>
<wgt id='1215'> +1.2839934e-12 </wgt>
<wgt id='1216'> +1.2639888e-12 </wgt>
<wgt id='1217'> +1.2503453e-12 </wgt>
<wgt id='1218'> +1.2601375e-12 </wgt>
<wgt id='1219'> +1.2537300e-12 </wgt>
<wgt id='1220'> +1.2604888e-12 </wgt>
<wgt id='1221'> +1.2549489e-12 </wgt>
<wgt id='1222'> +1.2551304e-12 </wgt>
<wgt id='1223'> +1.2568460e-12 </wgt>
<wgt id='1224'> +1.2576097e-12 </wgt>
<wgt id='1225'> +1.2553385e-12 </wgt>
<wgt id='1226'> +1.2532868e-12 </wgt>
<wgt id='1227'> +1.2577776e-12 </wgt>
<wgt id='1228'> +1.2536076e-12 </wgt>
<wgt id='1229'> +1.2567025e-12 </wgt>
<wgt id='1230'> +1.2487656e-12 </wgt>
<wgt id='1231'> +1.2512530e-12 </wgt>
<wgt id='1232'> +1.2554488e-12 </wgt>
<wgt id='1233'> +1.2561076e-12 </wgt>
<wgt id='1234'> +1.2559987e-12 </wgt>
<wgt id='1235'> +1.2470594e-12 </wgt>
<wgt id='1236'> +1.2503777e-12 </wgt>
<wgt id='1237'> +1.2533888e-12 </wgt>
<wgt id='1238'> +1.2584088e-12 </wgt>
<wgt id='1239'> +1.2605207e-12 </wgt>
<wgt id='1240'> +1.2624802e-12 </wgt>
<wgt id='1241'> +1.2653870e-12 </wgt>
<wgt id='1242'> +1.2606016e-12 </wgt>
<wgt id='1243'> +1.2701486e-12 </wgt>
<wgt id='1244'> +1.2580222e-12 </wgt>
<wgt id='1245'> +1.2708132e-12 </wgt>
<wgt id='1246'> +1.2658863e-12 </wgt>
<wgt id='1247'> +1.2649398e-12 </wgt>
<wgt id='1248'> +1.2653345e-12 </wgt>
<wgt id='1249'> +1.2654873e-12 </wgt>
<wgt id='1250'> +1.2670270e-12 </wgt>
<wgt id='1251'> +1.2642874e-12 </wgt>
<wgt id='1252'> +1.2620848e-12 </wgt>
<wgt id='1253'> +1.2678896e-12 </wgt>
<wgt id='1254'> +1.2547617e-12 </wgt>
<wgt id='1255'> +1.2717332e-12 </wgt>
<wgt id='1256'> +1.2696703e-12 </wgt>
<wgt id='1257'> +1.2546690e-12 </wgt>
<wgt id='1258'> +1.2874563e-12 </wgt>
<wgt id='1259'> +1.2448206e-12 </wgt>
<wgt id='1260'> +1.2694045e-12 </wgt>
<wgt id='1261'> +1.2608078e-12 </wgt>
<wgt id='1262'> +1.2666768e-12 </wgt>
<wgt id='1263'> +1.2645862e-12 </wgt>
<wgt id='1264'> +1.2692411e-12 </wgt>
<wgt id='1265'> +1.2634167e-12 </wgt>
<wgt id='1266'> +1.2607701e-12 </wgt>
<wgt id='1267'> +1.2697318e-12 </wgt>
<wgt id='1268'> +1.2657995e-12 </wgt>
<wgt id='1269'> +1.2685297e-12 </wgt>
<wgt id='1270'> +1.2581739e-12 </wgt>
<wgt id='1271'> +1.2569001e-12 </wgt>
<wgt id='1272'> +1.2655000e-12 </wgt>
<wgt id='1273'> +1.2645760e-12 </wgt>
<wgt id='1274'> +1.2676128e-12 </wgt>
<wgt id='1275'> +1.2605030e-12 </wgt>
<wgt id='1276'> +1.2659866e-12 </wgt>
<wgt id='1277'> +1.2637947e-12 </wgt>
<wgt id='1278'> +1.2638268e-12 </wgt>
<wgt id='1279'> +1.2620278e-12 </wgt>
<wgt id='1280'> +1.2655871e-12 </wgt>
<wgt id='1281'> +1.2642014e-12 </wgt>
<wgt id='1282'> +1.2653870e-12 </wgt>
<wgt id='1283'> +1.2559513e-12 </wgt>
<wgt id='1284'> +1.2595549e-12 </wgt>
<wgt id='1285'> +1.2627829e-12 </wgt>
<wgt id='1286'> +1.2680612e-12 </wgt>
<wgt id='1287'> +1.2701516e-12 </wgt>
<wgt id='1288'> +1.2719405e-12 </wgt>
<wgt id='1289'> +1.2686444e-12 </wgt>
<wgt id='1290'> +1.2700735e-12 </wgt>
<wgt id='1291'> +1.2672286e-12 </wgt>
<wgt id='1292'> +1.2627762e-12 </wgt>
<wgt id='1293'> +1.2729289e-12 </wgt>
<wgt id='1294'> +1.2679311e-12 </wgt>
<wgt id='1295'> +1.2694372e-12 </wgt>
<wgt id='1296'> +1.2643999e-12 </wgt>
<wgt id='1297'> +1.2739394e-12 </wgt>
<wgt id='1298'> +1.2731876e-12 </wgt>
<wgt id='1299'> +1.2630441e-12 </wgt>
<wgt id='1300'> +1.2714999e-12 </wgt>
<wgt id='1301'> +1.2631318e-12 </wgt>
<wgt id='1302'> +1.2671984e-12 </wgt>
<wgt id='1303'> +1.2708064e-12 </wgt>
<wgt id='1304'> +1.2663709e-12 </wgt>
<wgt id='1305'> +1.2702674e-12 </wgt>
<wgt id='1306'> +1.2661141e-12 </wgt>
<wgt id='1307'> +1.2717234e-12 </wgt>
<wgt id='1308'> +1.2750992e-12 </wgt>
<wgt id='1309'> +1.2638350e-12 </wgt>
<wgt id='1310'> +1.2688556e-12 </wgt>
<wgt id='1311'> +1.2686719e-12 </wgt>
<wgt id='1312'> +1.2689758e-12 </wgt>
<wgt id='1313'> +1.2686028e-12 </wgt>
<wgt id='1314'> +1.2721692e-12 </wgt>
<wgt id='1315'> +1.2600710e-12 </wgt>
<wgt id='1316'> +1.2747659e-12 </wgt>
<wgt id='1317'> +1.2684523e-12 </wgt>
<wgt id='1318'> +1.2791003e-12 </wgt>
<wgt id='1319'> +1.2561956e-12 </wgt>
<wgt id='1320'> +1.2804951e-12 </wgt>
<wgt id='1321'> +1.2587515e-12 </wgt>
<wgt id='1322'> +1.2678329e-12 </wgt>
<wgt id='1323'> +1.2694819e-12 </wgt>
<wgt id='1324'> +1.2668251e-12 </wgt>
<wgt id='1325'> +1.2766070e-12 </wgt>
<wgt id='1326'> +1.2677832e-12 </wgt>
<wgt id='1327'> +1.2712172e-12 </wgt>
<wgt id='1328'> +1.2692727e-12 </wgt>
<wgt id='1329'> +1.2679448e-12 </wgt>
<wgt id='1330'> +1.2494256e-12 </wgt>
<wgt id='1331'> +1.2815675e-12 </wgt>
<wgt id='1332'> +1.2901498e-12 </wgt>
<wgt id='1333'> +1.2536641e-12 </wgt>
<wgt id='1334'> +1.2634662e-12 </wgt>
<wgt id='1335'> +1.2816346e-12 </wgt>
<wgt id='1336'> +1.2638048e-12 </wgt>
<wgt id='1337'> +1.2658246e-12 </wgt>
<wgt id='1338'> +1.2662017e-12 </wgt>
<wgt id='1339'> +1.2692727e-12 </wgt>
<wgt id='1340'> +1.2476565e-12 </wgt>
<wgt id='1341'> +1.2493339e-12 </wgt>
<wgt id='1342'> +1.2459843e-12 </wgt>
<wgt id='1343'> +1.2416326e-12 </wgt>
<wgt id='1344'> +1.2517625e-12 </wgt>
<wgt id='1345'> +1.2469214e-12 </wgt>
<wgt id='1346'> +1.2484013e-12 </wgt>
<wgt id='1347'> +1.2434156e-12 </wgt>
<wgt id='1348'> +1.2524110e-12 </wgt>
<wgt id='1349'> +1.2516174e-12 </wgt>
<wgt id='1350'> +1.2437350e-12 </wgt>
<wgt id='1351'> +1.2504085e-12 </wgt>
<wgt id='1352'> +1.2417164e-12 </wgt>
<wgt id='1353'> +1.2456699e-12 </wgt>
<wgt id='1354'> +1.2513111e-12 </wgt>
<wgt id='1355'> +1.2456472e-12 </wgt>
<wgt id='1356'> +1.2487881e-12 </wgt>
<wgt id='1357'> +1.2468563e-12 </wgt>
<wgt id='1358'> +1.2488115e-12 </wgt>
<wgt id='1359'> +1.2549599e-12 </wgt>
<wgt id='1360'> +1.2414705e-12 </wgt>
<wgt id='1361'> +1.2476643e-12 </wgt>
<wgt id='1362'> +1.2478891e-12 </wgt>
<wgt id='1363'> +1.2477938e-12 </wgt>
<wgt id='1364'> +1.2480559e-12 </wgt>
<wgt id='1365'> +1.2375552e-12 </wgt>
<wgt id='1366'> +1.2529138e-12 </wgt>
<wgt id='1367'> +1.2532809e-12 </wgt>
<wgt id='1368'> +1.2472909e-12 </wgt>
<wgt id='1369'> +1.2564764e-12 </wgt>
<wgt id='1370'> +1.2372110e-12 </wgt>
<wgt id='1371'> +1.2563918e-12 </wgt>
<wgt id='1372'> +1.2370962e-12 </wgt>
<wgt id='1373'> +1.2448100e-12 </wgt>
<wgt id='1374'> +1.2498978e-12 </wgt>
<wgt id='1375'> +1.2459507e-12 </wgt>
<wgt id='1376'> +1.2555787e-12 </wgt>
<wgt id='1377'> +1.2469975e-12 </wgt>
<wgt id='1378'> +1.2502705e-12 </wgt>
<wgt id='1379'> +1.2479003e-12 </wgt>
<wgt id='1380'> +1.2472324e-12 </wgt>
<wgt id='1381'> +1.2279015e-12 </wgt>
<wgt id='1382'> +1.2592375e-12 </wgt>
<wgt id='1383'> +1.2695859e-12 </wgt>
<wgt id='1384'> +1.2310099e-12 </wgt>
<wgt id='1385'> +1.2425552e-12 </wgt>
<wgt id='1386'> +1.2597527e-12 </wgt>
<wgt id='1387'> +1.2416289e-12 </wgt>
<wgt id='1388'> +1.2440567e-12 </wgt>
<wgt id='1389'> +1.2430756e-12 </wgt>
<wgt id='1390'> +1.2487645e-12 </wgt>
<wgt id='1391'> +1.2176112e-12 </wgt>
<wgt id='1392'> +1.1889891e-12 </wgt>
<wgt id='1393'> +1.1985265e-12 </wgt>
<wgt id='1394'> +1.2081704e-12 </wgt>
<wgt id='1395'> +1.2266509e-12 </wgt>
<wgt id='1396'> +1.2180548e-12 </wgt>
<wgt id='1397'> +1.1829999e-12 </wgt>
<wgt id='1398'> +1.1903812e-12 </wgt>
<wgt id='1399'> +1.1969732e-12 </wgt>
<wgt id='1400'> +1.2035394e-12 </wgt>
<wgt id='1401'> +1.2108190e-12 </wgt>
<wgt id='1402'> +1.2244569e-12 </wgt>
<wgt id='1403'> +1.2310973e-12 </wgt>
<wgt id='1404'> +1.2372335e-12 </wgt>
<wgt id='1405'> +1.2180548e-12 </wgt>
<wgt id='1406'> +1.2137479e-12 </wgt>
<wgt id='1407'> +1.2161396e-12 </wgt>
<wgt id='1408'> +1.2197939e-12 </wgt>
<wgt id='1409'> +1.2215600e-12 </wgt>
<wgt id='1410'> +1.2305995e-12 </wgt>
<wgt id='1411'> +1.2310513e-12 </wgt>
<wgt id='1412'> +1.2300131e-12 </wgt>
<wgt id='1413'> +1.2360225e-12 </wgt>
<wgt id='1414'> +1.2251937e-12 </wgt>
<wgt id='1415'> +1.2235271e-12 </wgt>
<wgt id='1416'> +1.2334307e-12 </wgt>
<wgt id='1417'> +1.2235856e-12 </wgt>
<wgt id='1418'> +1.2376089e-12 </wgt>
<wgt id='1419'> +1.2320662e-12 </wgt>
<wgt id='1420'> +1.2292056e-12 </wgt>
<wgt id='1421'> +1.2194028e-12 </wgt>
<wgt id='1422'> +1.2354565e-12 </wgt>
<wgt id='1423'> +1.2302031e-12 </wgt>
<wgt id='1424'> +1.2309882e-12 </wgt>
<wgt id='1425'> +1.2265233e-12 </wgt>
<wgt id='1426'> +1.2349460e-12 </wgt>
<wgt id='1427'> +1.2330221e-12 </wgt>
<wgt id='1428'> +1.2290769e-12 </wgt>
<wgt id='1429'> +1.2255814e-12 </wgt>
<wgt id='1430'> +1.2373377e-12 </wgt>
<wgt id='1431'> +1.2341041e-12 </wgt>
<wgt id='1432'> +1.2281070e-12 </wgt>
<wgt id='1433'> +1.2343379e-12 </wgt>
<wgt id='1434'> +1.2261206e-12 </wgt>
<wgt id='1435'> +1.2317458e-12 </wgt>
<wgt id='1436'> +1.2279732e-12 </wgt>
<wgt id='1437'> +1.2364470e-12 </wgt>
<wgt id='1438'> +1.2295699e-12 </wgt>
<wgt id='1439'> +1.2237435e-12 </wgt>
<wgt id='1440'> +1.2470732e-12 </wgt>
<wgt id='1441'> +1.2336779e-12 </wgt>
<wgt id='1442'> +1.2246719e-12 </wgt>
<wgt id='1443'> +1.2283351e-12 </wgt>
<wgt id='1444'> +1.2359961e-12 </wgt>
<wgt id='1445'> +1.2405393e-12 </wgt>
<wgt id='1446'> +1.2271150e-12 </wgt>
<wgt id='1447'> +1.2316415e-12 </wgt>
<wgt id='1448'> +1.2310609e-12 </wgt>
<wgt id='1449'> +1.2316144e-12 </wgt>
<wgt id='1450'> +1.2295945e-12 </wgt>
<wgt id='1451'> +1.2390538e-12 </wgt>
<wgt id='1452'> +1.2070219e-12 </wgt>
<wgt id='1453'> +1.2327687e-12 </wgt>
<wgt id='1454'> +1.2162425e-12 </wgt>
<wgt id='1455'> +1.2178115e-12 </wgt>
<wgt id='1456'> +1.2352808e-12 </wgt>
<wgt id='1457'> +1.2373460e-12 </wgt>
<wgt id='1458'> +1.2273125e-12 </wgt>
<wgt id='1459'> +1.2340183e-12 </wgt>
<wgt id='1460'> +1.2244388e-12 </wgt>
<wgt id='1461'> +1.2305995e-12 </wgt>
<wgt id='1462'> +1.2231044e-12 </wgt>
<wgt id='1463'> +1.2408715e-12 </wgt>
<wgt id='1464'> +1.2319466e-12 </wgt>
<wgt id='1465'> +1.2036684e-12 </wgt>
<wgt id='1466'> +1.2098003e-12 </wgt>
<wgt id='1467'> +1.2161241e-12 </wgt>
<wgt id='1468'> +1.2205769e-12 </wgt>
<wgt id='1469'> +1.2265776e-12 </wgt>
<wgt id='1470'> +1.2377504e-12 </wgt>
<wgt id='1471'> +1.2420515e-12 </wgt>
<wgt id='1472'> +1.2475985e-12 </wgt>
<wgt id='1473'> +1.2319466e-12 </wgt>
<wgt id='1474'> +1.2271240e-12 </wgt>
<wgt id='1475'> +1.2287652e-12 </wgt>
<wgt id='1476'> +1.2340186e-12 </wgt>
<wgt id='1477'> +1.2360325e-12 </wgt>
<wgt id='1478'> +1.2058847e-12 </wgt>
<wgt id='1479'> +1.2043043e-12 </wgt>
<wgt id='1480'> +1.2057652e-12 </wgt>
<wgt id='1481'> +1.2009074e-12 </wgt>
<wgt id='1482'> +1.2047630e-12 </wgt>
<wgt id='1483'> +1.1862928e-12 </wgt>
<wgt id='1484'> +1.2037120e-12 </wgt>
<wgt id='1485'> +1.2074763e-12 </wgt>
<wgt id='1486'> +1.2068367e-12 </wgt>
<wgt id='1487'> +1.2105639e-12 </wgt>
<wgt id='1488'> +1.2031159e-12 </wgt>
<wgt id='1489'> +1.2245912e-12 </wgt>
<wgt id='1490'> +1.2032063e-12 </wgt>
<wgt id='1491'> +1.2066118e-12 </wgt>
<wgt id='1492'> +1.2072820e-12 </wgt>
<wgt id='1493'> +1.1920675e-12 </wgt>
<wgt id='1494'> +1.2190625e-12 </wgt>
<wgt id='1495'> +1.1994608e-12 </wgt>
<wgt id='1496'> +1.2047602e-12 </wgt>
<wgt id='1497'> +1.2059521e-12 </wgt>
<wgt id='1498'> +1.2047112e-12 </wgt>
<wgt id='1499'> +1.2073007e-12 </wgt>
<wgt id='1500'> +1.2070095e-12 </wgt>
<wgt id='1501'> +1.2047033e-12 </wgt>
<wgt id='1502'> +1.2049243e-12 </wgt>
<wgt id='1503'> +1.2060811e-12 </wgt>
<wgt id='1504'> +1.2007763e-12 </wgt>
<wgt id='1505'> +1.2056985e-12 </wgt>
<wgt id='1506'> +1.2052300e-12 </wgt>
<wgt id='1507'> +1.2047729e-12 </wgt>
<wgt id='1508'> +1.2104113e-12 </wgt>
<wgt id='1509'> +1.2927984e-12 </wgt>
<wgt id='1510'> +1.2917018e-12 </wgt>
<wgt id='1511'> +1.2976466e-12 </wgt>
<wgt id='1512'> +1.2953753e-12 </wgt>
<wgt id='1513'> +1.2980483e-12 </wgt>
<wgt id='1514'> +1.2917191e-12 </wgt>
<wgt id='1515'> +1.2901469e-12 </wgt>
<wgt id='1516'> +1.2919860e-12 </wgt>
<wgt id='1517'> +1.2938584e-12 </wgt>
<wgt id='1518'> +1.2965902e-12 </wgt>
<wgt id='1519'> +1.2874492e-12 </wgt>
<wgt id='1520'> +1.2962909e-12 </wgt>
<wgt id='1521'> +1.3004447e-12 </wgt>
<wgt id='1522'> +1.2975567e-12 </wgt>
<wgt id='1523'> +1.3007040e-12 </wgt>
<wgt id='1524'> +1.2948277e-12 </wgt>
<wgt id='1525'> +1.2964954e-12 </wgt>
<wgt id='1526'> +1.2907322e-12 </wgt>
<wgt id='1527'> +1.2914843e-12 </wgt>
<wgt id='1528'> +1.2953115e-12 </wgt>
<wgt id='1529'> +1.2941428e-12 </wgt>
<wgt id='1530'> +1.2987384e-12 </wgt>
<wgt id='1531'> +1.2943733e-12 </wgt>
<wgt id='1532'> +1.2899818e-12 </wgt>
<wgt id='1533'> +1.2902565e-12 </wgt>
<wgt id='1534'> +1.2971074e-12 </wgt>
<wgt id='1535'> +1.2863764e-12 </wgt>
<wgt id='1536'> +1.2907448e-12 </wgt>
<wgt id='1537'> +1.2939013e-12 </wgt>
<wgt id='1538'> +1.2894239e-12 </wgt>
<wgt id='1539'> +1.2876716e-12 </wgt>
<wgt id='1540'> +1.2941542e-12 </wgt>
<wgt id='1541'> +1.2929543e-12 </wgt>
<wgt id='1542'> +1.2952512e-12 </wgt>
<wgt id='1543'> +1.2919415e-12 </wgt>
<wgt id='1544'> +1.2886204e-12 </wgt>
<wgt id='1545'> +1.2936744e-12 </wgt>
<wgt id='1546'> +1.2935323e-12 </wgt>
<wgt id='1547'> +1.2931250e-12 </wgt>
<wgt id='1548'> +1.2915197e-12 </wgt>
<wgt id='1549'> +1.2903653e-12 </wgt>
<wgt id='1550'> +1.2954164e-12 </wgt>
<wgt id='1551'> +1.2900365e-12 </wgt>
<wgt id='1552'> +1.2925227e-12 </wgt>
<wgt id='1553'> +1.2936570e-12 </wgt>
<wgt id='1554'> +1.2955041e-12 </wgt>
<wgt id='1555'> +1.2960967e-12 </wgt>
<wgt id='1556'> +1.2927170e-12 </wgt>
<wgt id='1557'> +1.2935389e-12 </wgt>
<wgt id='1558'> +1.2899501e-12 </wgt>
<wgt id='1559'> +1.2903830e-12 </wgt>
<wgt id='1560'> +1.2929687e-12 </wgt>
<wgt id='1561'> +1.2910384e-12 </wgt>
<wgt id='1562'> +1.2930395e-12 </wgt>
<wgt id='1563'> +1.2929803e-12 </wgt>
<wgt id='1564'> +1.2929587e-12 </wgt>
<wgt id='1565'> +1.2930639e-12 </wgt>
<wgt id='1566'> +1.2932672e-12 </wgt>
<wgt id='1567'> +1.2930658e-12 </wgt>
<wgt id='1568'> +1.2911931e-12 </wgt>
<wgt id='1569'> +1.2926259e-12 </wgt>
<wgt id='1570'> +1.2922404e-12 </wgt>
<wgt id='1571'> +1.2929848e-12 </wgt>
<wgt id='1572'> +1.2929747e-12 </wgt>
<wgt id='1573'> +1.2945824e-12 </wgt>
<wgt id='1574'> +1.2919702e-12 </wgt>
<wgt id='1575'> +1.2922115e-12 </wgt>
<wgt id='1576'> +1.2929744e-12 </wgt>
<wgt id='1577'> +1.2937992e-12 </wgt>
<wgt id='1578'> +1.2927127e-12 </wgt>
<wgt id='1579'> +1.2929661e-12 </wgt>
<wgt id='1580'> +1.2927167e-12 </wgt>
<wgt id='1581'> +1.2924796e-12 </wgt>
<wgt id='1582'> +1.2923103e-12 </wgt>
<wgt id='1583'> +1.2931528e-12 </wgt>
<wgt id='1584'> +1.2923380e-12 </wgt>
<wgt id='1585'> +1.2922216e-12 </wgt>
<wgt id='1586'> +1.2927936e-12 </wgt>
<wgt id='1587'> +1.2919868e-12 </wgt>
<wgt id='1588'> +1.2936260e-12 </wgt>
<wgt id='1589'> +1.2926805e-12 </wgt>
<wgt id='1590'> +1.2925593e-12 </wgt>
<wgt id='1591'> +1.2925335e-12 </wgt>
<wgt id='1592'> +1.2920714e-12 </wgt>
<wgt id='1593'> +1.2930673e-12 </wgt>
<wgt id='1594'> +1.2928956e-12 </wgt>
<wgt id='1595'> +1.2928255e-12 </wgt>
<wgt id='1596'> +1.2925379e-12 </wgt>
<wgt id='1597'> +1.2928674e-12 </wgt>
<wgt id='1598'> +1.2929218e-12 </wgt>
<wgt id='1599'> +1.2931562e-12 </wgt>
<wgt id='1600'> +1.2933090e-12 </wgt>
<wgt id='1601'> +1.2926173e-12 </wgt>
<wgt id='1602'> +1.2924469e-12 </wgt>
<wgt id='1603'> +1.2928328e-12 </wgt>
<wgt id='1604'> +1.2931350e-12 </wgt>
<wgt id='1605'> +1.2928907e-12 </wgt>
<wgt id='1606'> +1.2933946e-12 </wgt>
<wgt id='1607'> +1.2928782e-12 </wgt>
<wgt id='1608'> +1.2929619e-12 </wgt>
<wgt id='1609'> +1.2930048e-12 </wgt>
<wgt id='1610'> +1.2818808e-12 </wgt>
<wgt id='1611'> +1.3048528e-12 </wgt>
<wgt id='1612'> +1.4983006e-12 </wgt>
<wgt id='1613'> +1.4765004e-12 </wgt>
<wgt id='1614'> +1.5074293e-12 </wgt>
<wgt id='1615'> +1.4803650e-12 </wgt>
<wgt id='1616'> +1.5495279e-12 </wgt>
<wgt id='1617'> +1.5334231e-12 </wgt>
<wgt id='1618'> +1.4805076e-12 </wgt>
<wgt id='1619'> +1.5115836e-12 </wgt>
<wgt id='1620'> +1.4688418e-12 </wgt>
<wgt id='1621'> +1.4951390e-12 </wgt>
<wgt id='1622'> +1.5101748e-12 </wgt>
<wgt id='1623'> +1.5122938e-12 </wgt>
<wgt id='1624'> +1.4659833e-12 </wgt>
<wgt id='1625'> +1.4753352e-12 </wgt>
<wgt id='1626'> +1.4834007e-12 </wgt>
<wgt id='1627'> +1.4720064e-12 </wgt>
<wgt id='1628'> +1.4731719e-12 </wgt>
<wgt id='1629'> +1.5490370e-12 </wgt>
<wgt id='1630'> +1.5095780e-12 </wgt>
<wgt id='1631'> +1.4742643e-12 </wgt>
<wgt id='1632'> +1.4302420e-12 </wgt>
<wgt id='1633'> +1.4514338e-12 </wgt>
<wgt id='1634'> +1.5493759e-12 </wgt>
<wgt id='1635'> +1.5012181e-12 </wgt>
<wgt id='1636'> +1.5153429e-12 </wgt>
<wgt id='1637'> +1.4709919e-12 </wgt>
<wgt id='1638'> +1.4876498e-12 </wgt>
<wgt id='1639'> +1.5082604e-12 </wgt>
<wgt id='1640'> +1.4954040e-12 </wgt>
<wgt id='1641'> +1.4755664e-12 </wgt>
<wgt id='1642'> +1.4882571e-12 </wgt>
<wgt id='1643'> +1.5390819e-12 </wgt>
<wgt id='1644'> +1.4369352e-12 </wgt>
<wgt id='1645'> +1.4905773e-12 </wgt>
<wgt id='1646'> +1.5000010e-12 </wgt>
<wgt id='1647'> +1.4987193e-12 </wgt>
<wgt id='1648'> +1.4888205e-12 </wgt>
<wgt id='1649'> +1.5136336e-12 </wgt>
<wgt id='1650'> +1.4889937e-12 </wgt>
<wgt id='1651'> +1.4609540e-12 </wgt>
<wgt id='1652'> +1.4863860e-12 </wgt>
<wgt id='1653'> +1.5491781e-12 </wgt>
<wgt id='1654'> +1.4921117e-12 </wgt>
<wgt id='1655'> +1.4686394e-12 </wgt>
<wgt id='1656'> +1.4551680e-12 </wgt>
<wgt id='1657'> +1.4801526e-12 </wgt>
<wgt id='1658'> +1.4426160e-12 </wgt>
<wgt id='1659'> +1.4659833e-12 </wgt>
<wgt id='1660'> +1.5231068e-12 </wgt>
<wgt id='1661'> +1.5032549e-12 </wgt>
<wgt id='1662'> +1.4998701e-12 </wgt>
<wgt id='1663'> +1.5282500e-12 </wgt>
<wgt id='1664'> +1.4787045e-12 </wgt>
<wgt id='1665'> +1.4287642e-12 </wgt>
<wgt id='1666'> +1.5224601e-12 </wgt>
<wgt id='1667'> +1.5016021e-12 </wgt>
<wgt id='1668'> +1.5331509e-12 </wgt>
<wgt id='1669'> +1.4482526e-12 </wgt>
<wgt id='1670'> +1.5188101e-12 </wgt>
<wgt id='1671'> +1.4879029e-12 </wgt>
<wgt id='1672'> +1.5001914e-12 </wgt>
<wgt id='1673'> +1.5504448e-12 </wgt>
<wgt id='1674'> +1.4828676e-12 </wgt>
<wgt id='1675'> +1.5327084e-12 </wgt>
<wgt id='1676'> +1.5322047e-12 </wgt>
<wgt id='1677'> +1.5715626e-12 </wgt>
<wgt id='1678'> +1.4886003e-12 </wgt>
<wgt id='1679'> +1.5472901e-12 </wgt>
<wgt id='1680'> +1.5098569e-12 </wgt>
<wgt id='1681'> +1.5195141e-12 </wgt>
<wgt id='1682'> +1.5178277e-12 </wgt>
<wgt id='1683'> +1.4829039e-12 </wgt>
<wgt id='1684'> +1.4873382e-12 </wgt>
<wgt id='1685'> +1.4741637e-12 </wgt>
<wgt id='1686'> +1.5002159e-12 </wgt>
<wgt id='1687'> +1.5450568e-12 </wgt>
<wgt id='1688'> +1.5016159e-12 </wgt>
<wgt id='1689'> +1.4831705e-12 </wgt>
<wgt id='1690'> +1.4960269e-12 </wgt>
<wgt id='1691'> +1.5031428e-12 </wgt>
<wgt id='1692'> +1.5592859e-12 </wgt>
<wgt id='1693'> +1.5449455e-12 </wgt>
<wgt id='1694'> +1.4533053e-12 </wgt>
<wgt id='1695'> +1.4967003e-12 </wgt>
<wgt id='1696'> +1.5326374e-12 </wgt>
<wgt id='1697'> +1.5258494e-12 </wgt>
<wgt id='1698'> +1.4773192e-12 </wgt>
<wgt id='1699'> +1.5139832e-12 </wgt>
<wgt id='1700'> +1.4722999e-12 </wgt>
<wgt id='1701'> +1.5203617e-12 </wgt>
<wgt id='1702'> +1.5092060e-12 </wgt>
<wgt id='1703'> +1.5133757e-12 </wgt>
<wgt id='1704'> +1.4672380e-12 </wgt>
<wgt id='1705'> +1.4740790e-12 </wgt>
<wgt id='1706'> +1.4985572e-12 </wgt>
<wgt id='1707'> +1.4918865e-12 </wgt>
<wgt id='1708'> +1.4876405e-12 </wgt>
<wgt id='1709'> +1.4855741e-12 </wgt>
<wgt id='1710'> +1.4904683e-12 </wgt>
<wgt id='1711'> +1.5552495e-12 </wgt>
<wgt id='1712'> +1.4993146e-12 </wgt>
<wgt id='1713'> +1.1916338e-12 </wgt>
<wgt id='1714'> +1.1641691e-12 </wgt>
<wgt id='1715'> +1.2043732e-12 </wgt>
<wgt id='1716'> +1.2514550e-12 </wgt>
<wgt id='1717'> +1.2059733e-12 </wgt>
<wgt id='1718'> +1.2068180e-12 </wgt>
<wgt id='1719'> +1.1995169e-12 </wgt>
<wgt id='1720'> +1.2050843e-12 </wgt>
<wgt id='1721'> +1.1741010e-12 </wgt>
<wgt id='1722'> +1.1855215e-12 </wgt>
<wgt id='1723'> +1.1364032e-12 </wgt>
<wgt id='1724'> +1.1540400e-12 </wgt>
<wgt id='1725'> +1.2085158e-12 </wgt>
<wgt id='1726'> +1.2238459e-12 </wgt>
<wgt id='1727'> +1.1723369e-12 </wgt>
<wgt id='1728'> +1.1966471e-12 </wgt>
<wgt id='1729'> +1.1934278e-12 </wgt>
<wgt id='1730'> +1.1653605e-12 </wgt>
<wgt id='1731'> +1.1538110e-12 </wgt>
<wgt id='1732'> +1.1847646e-12 </wgt>
<wgt id='1733'> +1.1959039e-12 </wgt>
<wgt id='1734'> +1.2236794e-12 </wgt>
<wgt id='1735'> +1.1700356e-12 </wgt>
<wgt id='1736'> +1.2727558e-12 </wgt>
<wgt id='1737'> +1.2260234e-12 </wgt>
<wgt id='1738'> +1.2038045e-12 </wgt>
<wgt id='1739'> +1.1935430e-12 </wgt>
<wgt id='1740'> +1.1719566e-12 </wgt>
<wgt id='1741'> +1.1808744e-12 </wgt>
<wgt id='1742'> +1.1937022e-12 </wgt>
<wgt id='1743'> +1.2197909e-12 </wgt>
<wgt id='1744'> +1.2228324e-12 </wgt>
<wgt id='1745'> +1.1349944e-12 </wgt>
<wgt id='1746'> +1.2048344e-12 </wgt>
<wgt id='1747'> +1.2102321e-12 </wgt>
<wgt id='1748'> +1.2116192e-12 </wgt>
<wgt id='1749'> +1.2036243e-12 </wgt>
<wgt id='1750'> +1.1929039e-12 </wgt>
<wgt id='1751'> +1.1188492e-12 </wgt>
<wgt id='1752'> +1.1806230e-12 </wgt>
<wgt id='1753'> +1.2124199e-12 </wgt>
<wgt id='1754'> +1.1844634e-12 </wgt>
<wgt id='1755'> +1.2053290e-12 </wgt>
<wgt id='1756'> +1.2075148e-12 </wgt>
<wgt id='1757'> +1.1791406e-12 </wgt>
<wgt id='1758'> +1.2132720e-12 </wgt>
<wgt id='1759'> +1.1971908e-12 </wgt>
<wgt id='1760'> +1.1528708e-12 </wgt>
<wgt id='1761'> +1.1716813e-12 </wgt>
<wgt id='1762'> +1.2033327e-12 </wgt>
<wgt id='1763'> +1.2204761e-12 </wgt>
<wgt id='1764'> +1.1903019e-12 </wgt>
<wgt id='1765'> +1.1998468e-12 </wgt>
<wgt id='1766'> +1.2084419e-12 </wgt>
<wgt id='1767'> +1.2042262e-12 </wgt>
<wgt id='1768'> +1.1925478e-12 </wgt>
<wgt id='1769'> +1.1620045e-12 </wgt>
<wgt id='1770'> +1.2404363e-12 </wgt>
<wgt id='1771'> +1.2067019e-12 </wgt>
<wgt id='1772'> +1.2202374e-12 </wgt>
<wgt id='1773'> +1.1843554e-12 </wgt>
<wgt id='1774'> +1.1945982e-12 </wgt>
<wgt id='1775'> +1.1966287e-12 </wgt>
<wgt id='1776'> +1.2031367e-12 </wgt>
<wgt id='1777'> +1.1247331e-12 </wgt>
<wgt id='1778'> +1.1780602e-12 </wgt>
<wgt id='1779'> +1.2146795e-12 </wgt>
<wgt id='1780'> +1.1952911e-12 </wgt>
<wgt id='1781'> +1.1793300e-12 </wgt>
<wgt id='1782'> +1.1424552e-12 </wgt>
<wgt id='1783'> +1.1891727e-12 </wgt>
<wgt id='1784'> +1.1993357e-12 </wgt>
<wgt id='1785'> +1.1559660e-12 </wgt>
<wgt id='1786'> +1.1006547e-12 </wgt>
<wgt id='1787'> +1.2426813e-12 </wgt>
<wgt id='1788'> +1.1761068e-12 </wgt>
<wgt id='1789'> +1.1634627e-12 </wgt>
<wgt id='1790'> +1.1970296e-12 </wgt>
<wgt id='1791'> +1.2045215e-12 </wgt>
<wgt id='1792'> +1.1534514e-12 </wgt>
<wgt id='1793'> +1.2179931e-12 </wgt>
<wgt id='1794'> +1.2009088e-12 </wgt>
<wgt id='1795'> +1.2118975e-12 </wgt>
<wgt id='1796'> +1.1716947e-12 </wgt>
<wgt id='1797'> +1.1982664e-12 </wgt>
<wgt id='1798'> +1.1769201e-12 </wgt>
<wgt id='1799'> +1.1777323e-12 </wgt>
<wgt id='1800'> +1.1942287e-12 </wgt>
<wgt id='1801'> +1.1972650e-12 </wgt>
<wgt id='1802'> +1.1761317e-12 </wgt>
<wgt id='1803'> +1.2086141e-12 </wgt>
<wgt id='1804'> +1.1644076e-12 </wgt>
<wgt id='1805'> +1.1891489e-12 </wgt>
<wgt id='1806'> +1.1815136e-12 </wgt>
<wgt id='1807'> +1.2047648e-12 </wgt>
<wgt id='1808'> +1.1936301e-12 </wgt>
<wgt id='1809'> +1.1690569e-12 </wgt>
<wgt id='1810'> +1.1918632e-12 </wgt>
<wgt id='1811'> +1.2360345e-12 </wgt>
<wgt id='1812'> +1.2179932e-12 </wgt>
<wgt id='1813'> +1.2020324e-12 </wgt>
<wgt id='1814'> +1.3265599e-12 </wgt>
<wgt id='1815'> +1.4909765e-12 </wgt>
<wgt id='1816'> +1.1916338e-12 </wgt>
<wgt id='1817'> +1.1641691e-12 </wgt>
<wgt id='1818'> +1.2043732e-12 </wgt>
<wgt id='1819'> +1.2514550e-12 </wgt>
<wgt id='1820'> +1.2059733e-12 </wgt>
<wgt id='1821'> +1.2068180e-12 </wgt>
<wgt id='1822'> +1.1995169e-12 </wgt>
<wgt id='1823'> +1.2050843e-12 </wgt>
<wgt id='1824'> +1.1741010e-12 </wgt>
<wgt id='1825'> +1.1855215e-12 </wgt>
<wgt id='1826'> +1.1364032e-12 </wgt>
<wgt id='1827'> +1.1540400e-12 </wgt>
<wgt id='1828'> +1.2085158e-12 </wgt>
<wgt id='1829'> +1.2238459e-12 </wgt>
<wgt id='1830'> +1.1723369e-12 </wgt>
<wgt id='1831'> +1.1966471e-12 </wgt>
<wgt id='1832'> +1.1934278e-12 </wgt>
<wgt id='1833'> +1.1653605e-12 </wgt>
<wgt id='1834'> +1.1538110e-12 </wgt>
<wgt id='1835'> +1.1847646e-12 </wgt>
<wgt id='1836'> +1.1959039e-12 </wgt>
<wgt id='1837'> +1.2236794e-12 </wgt>
<wgt id='1838'> +1.1700356e-12 </wgt>
<wgt id='1839'> +1.2727558e-12 </wgt>
<wgt id='1840'> +1.2260234e-12 </wgt>
<wgt id='1841'> +1.2038045e-12 </wgt>
<wgt id='1842'> +1.1935430e-12 </wgt>
<wgt id='1843'> +1.1719566e-12 </wgt>
<wgt id='1844'> +1.1808744e-12 </wgt>
<wgt id='1845'> +1.1937022e-12 </wgt>
<wgt id='1846'> +1.2197909e-12 </wgt>
<wgt id='1847'> +1.2228324e-12 </wgt>
<wgt id='1848'> +1.1349944e-12 </wgt>
<wgt id='1849'> +1.2048344e-12 </wgt>
<wgt id='1850'> +1.2102321e-12 </wgt>
<wgt id='1851'> +1.2116192e-12 </wgt>
<wgt id='1852'> +1.2036243e-12 </wgt>
<wgt id='1853'> +1.1929039e-12 </wgt>
<wgt id='1854'> +1.1188492e-12 </wgt>
<wgt id='1855'> +1.1806230e-12 </wgt>
<wgt id='1856'> +1.2124199e-12 </wgt>
<wgt id='1857'> +1.1844634e-12 </wgt>
<wgt id='1858'> +1.2053290e-12 </wgt>
<wgt id='1859'> +1.2075148e-12 </wgt>
<wgt id='1860'> +1.1791406e-12 </wgt>
<wgt id='1861'> +1.2132720e-12 </wgt>
<wgt id='1862'> +1.1971908e-12 </wgt>
<wgt id='1863'> +1.1528708e-12 </wgt>
<wgt id='1864'> +1.1716813e-12 </wgt>
<wgt id='1865'> +1.2033327e-12 </wgt>
<wgt id='1866'> +1.2204761e-12 </wgt>
<wgt id='1867'> +1.1903019e-12 </wgt>
<wgt id='1868'> +1.1998468e-12 </wgt>
<wgt id='1869'> +1.2084419e-12 </wgt>
<wgt id='1870'> +1.2042262e-12 </wgt>
<wgt id='1871'> +1.1925478e-12 </wgt>
<wgt id='1872'> +1.1620045e-12 </wgt>
<wgt id='1873'> +1.2404363e-12 </wgt>
<wgt id='1874'> +1.2067019e-12 </wgt>
<wgt id='1875'> +1.2202374e-12 </wgt>
<wgt id='1876'> +1.1843554e-12 </wgt>
<wgt id='1877'> +1.1945982e-12 </wgt>
<wgt id='1878'> +1.1966287e-12 </wgt>
<wgt id='1879'> +1.2031367e-12 </wgt>
<wgt id='1880'> +1.1247331e-12 </wgt>
<wgt id='1881'> +1.1780602e-12 </wgt>
<wgt id='1882'> +1.2146795e-12 </wgt>
<wgt id='1883'> +1.1952911e-12 </wgt>
<wgt id='1884'> +1.1793300e-12 </wgt>
<wgt id='1885'> +1.1424552e-12 </wgt>
<wgt id='1886'> +1.1891727e-12 </wgt>
<wgt id='1887'> +1.1993357e-12 </wgt>
<wgt id='1888'> +1.1559660e-12 </wgt>
<wgt id='1889'> +1.1006547e-12 </wgt>
<wgt id='1890'> +1.2426813e-12 </wgt>
<wgt id='1891'> +1.1761068e-12 </wgt>
<wgt id='1892'> +1.1634627e-12 </wgt>
<wgt id='1893'> +1.1970296e-12 </wgt>
<wgt id='1894'> +1.2045215e-12 </wgt>
<wgt id='1895'> +1.1534514e-12 </wgt>
<wgt id='1896'> +1.2179931e-12 </wgt>
<wgt id='1897'> +1.2009088e-12 </wgt>
<wgt id='1898'> +1.2118975e-12 </wgt>
<wgt id='1899'> +1.1716947e-12 </wgt>
<wgt id='1900'> +1.1982664e-12 </wgt>
<wgt id='1901'> +1.1769201e-12 </wgt>
<wgt id='1902'> +1.1777323e-12 </wgt>
<wgt id='1903'> +1.1942287e-12 </wgt>
<wgt id='1904'> +1.1972650e-12 </wgt>
<wgt id='1905'> +1.1761317e-12 </wgt>
<wgt id='1906'> +1.2086141e-12 </wgt>
<wgt id='1907'> +1.1644076e-12 </wgt>
<wgt id='1908'> +1.1891489e-12 </wgt>
<wgt id='1909'> +1.1815136e-12 </wgt>
<wgt id='1910'> +1.2047648e-12 </wgt>
<wgt id='1911'> +1.1936301e-12 </wgt>
<wgt id='1912'> +1.1690569e-12 </wgt>
<wgt id='1913'> +1.1918632e-12 </wgt>
<wgt id='1914'> +1.2360345e-12 </wgt>
<wgt id='1915'> +1.2179932e-12 </wgt>
<wgt id='1916'> +1.2020324e-12 </wgt>
<wgt id='1917'> +1.1831754e-12 </wgt>
<wgt id='1918'> +1.1963310e-12 </wgt>
<wgt id='1919'> +1.2355288e-12 </wgt>
</rwgt>
</event>
<event>
 9      1 +1.5538000e-12 2.68047900e+01 7.81860800e-03 1.48429900e-01
       21 -1    0    0  501  502 +0.0000000000e+00 +0.0000000000e+00 +8.5320390867e+01 8.5320390867e+01 0.0000000000e+00 0.0000e+00 1.0000e+00
        1 -1    0    0  502    0 -0.0000000000e+00 -0.0000000000e+00 -7.4291102345e+00 7.4291102345e+00 0.0000000000e+00 0.0000e+00 -1.0000e+00
     1023  2    1    2    0    0 +1.9362964059e+01 -1.0888635492e+01 +5.2960084673e+01 5.9357117359e+01 1.5000335081e+01 0.0000e+00 0.0000e+00
  1000023  2    3    3    0    0 +1.3935244636e+01 -1.1264365711e+01 +4.3396772688e+01 4.7271661329e+01 5.5002824553e+00 0.0000e+00 0.0000e+00
        1  1    1    2  501    0 -1.9362964059e+01 +1.0888635492e+01 +2.4931195959e+01 3.3392383742e+01 0.0000000000e+00 0.0000e+00 -1.0000e+00
  1000022  1    4    4    0    0 +1.3008839563e+01 -1.0821833609e+01 +4.1532139486e+01 4.5124944318e+01 5.0000000000e+00 0.0000e+00 1.0000e+00
      -13  1    4    4    0    0 +6.6481696164e-01 -2.5346553381e-01 +1.3587768001e+00 1.5374242264e+00 1.0570000000e-01 0.0000e+00 -1.0000e+00
       13  1    4    4    0    0 +2.6158811127e-01 -1.8906656906e-01 +5.0585640232e-01 6.0929278452e-01 1.0570000000e-01 0.0000e+00 1.0000e+00
  1000022  1    3    3    0    0 +5.4277194236e+00 +3.7573021938e-01 +9.5633119848e+00 1.2085456030e+01 5.0000000000e+00 0.0000e+00 -1.0000e+00
<mgrwt>
<rscale>  1 0.26804791E+02</rscale>
<asrwt>0</asrwt>
<pdfrwt beam="1">  1       21 0.13126213E-01 0.26804791E+02</pdfrwt>
<pdfrwt beam="2">  1        1 0.11429401E-02 0.26804791E+02</pdfrwt>
<totfact> 0.60437782E+06</totfact>
</mgrwt>
<rwgt>
<wgt id='1001'> +1.5538000e-12 </wgt>
<wgt id='1002'> +1.5968020e-12 </wgt>
<wgt id='1003'> +1.5991201e-12 </wgt>
<wgt id='1004'> +1.5423808e-12 </wgt>
<wgt id='1005'> +1.6012191e-12 </wgt>
<wgt id='1006'> +1.3553008e-12 </wgt>
<wgt id='1007'> +1.4125776e-12 </wgt>
<wgt id='1008'> +1.4160405e-12 </wgt>
<wgt id='1009'> +1.3411928e-12 </wgt>
<wgt id='1010'> +1.4192281e-12 </wgt>
<wgt id='1011'> +1.8239086e-12 </wgt>
<wgt id='1012'> +1.8387520e-12 </wgt>
<wgt id='1013'> +1.8389989e-12 </wgt>
<wgt id='1014'> +1.8182769e-12 </wgt>
<wgt id='1015'> +1.8391292e-12 </wgt>
<wgt id='1016'> +1.8391136e-12 </wgt>
<wgt id='1017'> +1.8302399e-12 </wgt>
<wgt id='1018'> +1.8289443e-12 </wgt>
<wgt id='1019'> +1.8389989e-12 </wgt>
<wgt id='1020'> +1.8276431e-12 </wgt>
<wgt id='1021'> +1.6041654e-12 </wgt>
<wgt id='1022'> +1.6190835e-12 </wgt>
<wgt id='1023'> +1.6195527e-12 </wgt>
<wgt id='1024'> +1.5991201e-12 </wgt>
<wgt id='1025'> +1.6199173e-12 </wgt>
<wgt id='1026'> +2.1588205e-12 </wgt>
<wgt id='1027'> +2.1075609e-12 </wgt>
<wgt id='1028'> +2.1032983e-12 </wgt>
<wgt id='1029'> +2.1679532e-12 </wgt>
<wgt id='1030'> +2.0991954e-12 </wgt>
<wgt id='1031'> +1.2368896e-12 </wgt>
<wgt id='1032'> +1.3350212e-12 </wgt>
<wgt id='1033'> +1.3411928e-12 </wgt>
<wgt id='1034'> +1.2134232e-12 </wgt>
<wgt id='1035'> +1.3469210e-12 </wgt>
<wgt id='1036'> +1.0788760e-12 </wgt>
<wgt id='1037'> +1.1809986e-12 </wgt>
<wgt id='1038'> +1.1876427e-12 </wgt>
<wgt id='1039'> +1.0551444e-12 </wgt>
<wgt id='1040'> +1.1938330e-12 </wgt>
<wgt id='1041'> +1.4519074e-12 </wgt>
<wgt id='1042'> +1.5373057e-12 </wgt>
<wgt id='1043'> +1.5423808e-12 </wgt>
<wgt id='1044'> +1.4304764e-12 </wgt>
<wgt id='1045'> +1.5470474e-12 </wgt>
<wgt id='1046'> +1.5538000e-12 </wgt>
<wgt id='1047'> +1.5159290e-12 </wgt>
<wgt id='1048'> +1.5447467e-12 </wgt>
<wgt id='1049'> +1.4976556e-12 </wgt>
<wgt id='1050'> +1.5574889e-12 </wgt>
<wgt id='1051'> +1.5802702e-12 </wgt>
<wgt id='1052'> +1.5769588e-12 </wgt>
<wgt id='1053'> +1.5496515e-12 </wgt>
<wgt id='1054'> +1.5039805e-12 </wgt>
<wgt id='1055'> +1.5547034e-12 </wgt>
<wgt id='1056'> +1.5898776e-12 </wgt>
<wgt id='1057'> +1.5633590e-12 </wgt>
<wgt id='1058'> +1.5217132e-12 </wgt>
<wgt id='1059'> +1.5675683e-12 </wgt>
<wgt id='1060'> +1.5061815e-12 </wgt>
<wgt id='1061'> +1.5835960e-12 </wgt>
<wgt id='1062'> +1.5851636e-12 </wgt>
<wgt id='1063'> +1.6135049e-12 </wgt>
<wgt id='1064'> +1.5385743e-12 </wgt>
<wgt id='1065'> +1.5644278e-12 </wgt>
<wgt id='1066'> +1.5585810e-12 </wgt>
<wgt id='1067'> +1.5103133e-12 </wgt>
<wgt id='1068'> +1.5656776e-12 </wgt>
<wgt id='1069'> +1.5533152e-12 </wgt>
<wgt id='1070'> +1.5349826e-12 </wgt>
<wgt id='1071'> +1.5362468e-12 </wgt>
<wgt id='1072'> +1.5240257e-12 </wgt>
<wgt id='1073'> +1.6503112e-12 </wgt>
<wgt id='1074'> +1.5291400e-12 </wgt>
<wgt id='1075'> +1.5901840e-12 </wgt>
<wgt id='1076'> +1.6120025e-12 </wgt>
<wgt id='1077'> +1.5204986e-12 </wgt>
<wgt id='1078'> +1.5559635e-12 </wgt>
<wgt id='1079'> +1.5597896e-12 </wgt>
<wgt id='1080'> +1.5255625e-12 </wgt>
<wgt id='1081'> +1.5858502e-12 </wgt>
<wgt id='1082'> +1.5454110e-12 </wgt>
<wgt id='1083'> +1.5656830e-12 </wgt>
<wgt id='1084'> +1.5632013e-12 </wgt>
<wgt id='1085'> +1.5248976e-12 </wgt>
<wgt id='1086'> +1.5303827e-12 </wgt>
<wgt id='1087'> +1.5726939e-12 </wgt>
<wgt id='1088'> +1.5400425e-12 </wgt>
<wgt id='1089'> +1.5810353e-12 </wgt>
<wgt id='1090'> +1.5465078e-12 </wgt>
<wgt id='1091'> +1.5296652e-12 </wgt>
<wgt id='1092'> +1.5657469e-12 </wgt>
<wgt id='1093'> +1.5417689e-12 </wgt>
<wgt id='1094'> +1.4819469e-12 </wgt>
<wgt id='1095'> +1.6067341e-12 </wgt>
<wgt id='1096'> +1.6126520e-12 </wgt>
<wgt id='1097'> +1.4911729e-12 </wgt>
<wgt id='1098'> +1.5347284e-12 </wgt>
<wgt id='1099'> +1.5899040e-12 </wgt>
<wgt id='1100'> +1.5362345e-12 </wgt>
<wgt id='1101'> +1.4816208e-12 </wgt>
<wgt id='1102'> +1.5554384e-12 </wgt>
<wgt id='1103'> +1.5653756e-12 </wgt>
<wgt id='1104'> +1.5427483e-12 </wgt>
<wgt id='1105'> +1.6168925e-12 </wgt>
<wgt id='1106'> +1.5127813e-12 </wgt>
<wgt id='1107'> +1.5795794e-12 </wgt>
<wgt id='1108'> +1.5440877e-12 </wgt>
<wgt id='1109'> +1.5931209e-12 </wgt>
<wgt id='1110'> +1.4974100e-12 </wgt>
<wgt id='1111'> +1.5626937e-12 </wgt>
<wgt id='1112'> +1.5409920e-12 </wgt>
<wgt id='1113'> +1.5128785e-12 </wgt>
<wgt id='1114'> +1.5940759e-12 </wgt>
<wgt id='1115'> +1.5546788e-12 </wgt>
<wgt id='1116'> +1.5180945e-12 </wgt>
<wgt id='1117'> +1.5765777e-12 </wgt>
<wgt id='1118'> +1.5738148e-12 </wgt>
<wgt id='1119'> +1.5486772e-12 </wgt>
<wgt id='1120'> +1.5815612e-12 </wgt>
<wgt id='1121'> +1.5614187e-12 </wgt>
<wgt id='1122'> +1.5710299e-12 </wgt>
<wgt id='1123'> +1.5512565e-12 </wgt>
<wgt id='1124'> +1.5606488e-12 </wgt>
<wgt id='1125'> +1.5695587e-12 </wgt>
<wgt id='1126'> +1.5408362e-12 </wgt>
<wgt id='1127'> +1.5416703e-12 </wgt>
<wgt id='1128'> +1.5851636e-12 </wgt>
<wgt id='1129'> +1.5478672e-12 </wgt>
<wgt id='1130'> +1.5622597e-12 </wgt>
<wgt id='1131'> +1.5511521e-12 </wgt>
<wgt id='1132'> +1.5473981e-12 </wgt>
<wgt id='1133'> +1.5753828e-12 </wgt>
<wgt id='1134'> +1.5893337e-12 </wgt>
<wgt id='1135'> +1.5761226e-12 </wgt>
<wgt id='1136'> +1.5238019e-12 </wgt>
<wgt id='1137'> +1.5234126e-12 </wgt>
<wgt id='1138'> +1.5611649e-12 </wgt>
<wgt id='1139'> +1.5808982e-12 </wgt>
<wgt id='1140'> +1.5625081e-12 </wgt>
<wgt id='1141'> +1.5264737e-12 </wgt>
<wgt id='1142'> +1.5432687e-12 </wgt>
<wgt id='1143'> +1.5246420e-12 </wgt>
<wgt id='1144'> +1.5591719e-12 </wgt>
<wgt id='1145'> +1.5425906e-12 </wgt>
<wgt id='1146'> +1.5606742e-12 </wgt>
<wgt id='1147'> +1.1945739e-12 </wgt>
<wgt id='1148'> +1.2244883e-12 </wgt>
<wgt id='1149'> +1.2257350e-12 </wgt>
<wgt id='1150'> +1.1580373e-12 </wgt>
<wgt id='1151'> +1.0567823e-12 </wgt>
<wgt id='1152'> +1.5009550e-12 </wgt>
<wgt id='1153'> +1.4936596e-12 </wgt>
<wgt id='1154'> +1.5052115e-12 </wgt>
<wgt id='1155'> +1.5006586e-12 </wgt>
<wgt id='1156'> +1.5011545e-12 </wgt>
<wgt id='1157'> +1.5038835e-12 </wgt>
<wgt id='1158'> +1.4970899e-12 </wgt>
<wgt id='1159'> +1.5032913e-12 </wgt>
<wgt id='1160'> +1.4995571e-12 </wgt>
<wgt id='1161'> +1.4947361e-12 </wgt>
<wgt id='1162'> +1.5053353e-12 </wgt>
<wgt id='1163'> +1.5051593e-12 </wgt>
<wgt id='1164'> +1.4968554e-12 </wgt>
<wgt id='1165'> +1.4906514e-12 </wgt>
<wgt id='1166'> +1.5112096e-12 </wgt>
<wgt id='1167'> +1.5109417e-12 </wgt>
<wgt id='1168'> +1.4877930e-12 </wgt>
<wgt id='1169'> +1.5021528e-12 </wgt>
<wgt id='1170'> +1.5002682e-12 </wgt>
<wgt id='1171'> +1.4996792e-12 </wgt>
<wgt id='1172'> +1.5025998e-12 </wgt>
<wgt id='1173'> +1.4940461e-12 </wgt>
<wgt id='1174'> +1.5072766e-12 </wgt>
<wgt id='1175'> +1.5034478e-12 </wgt>
<wgt id='1176'> +1.4983748e-12 </wgt>
<wgt id='1177'> +1.5003952e-12 </wgt>
<wgt id='1178'> +1.5035404e-12 </wgt>
<wgt id='1179'> +1.5128380e-12 </wgt>
<wgt id='1180'> +1.4847415e-12 </wgt>
<wgt id='1181'> +1.4948886e-12 </wgt>
<wgt id='1182'> +1.5074256e-12 </wgt>
<wgt id='1183'> +1.5012485e-12 </wgt>
<wgt id='1184'> +1.5009701e-12 </wgt>
<wgt id='1185'> +1.4943765e-12 </wgt>
<wgt id='1186'> +1.5043558e-12 </wgt>
<wgt id='1187'> +1.4990932e-12 </wgt>
<wgt id='1188'> +1.5016873e-12 </wgt>
<wgt id='1189'> +1.4965404e-12 </wgt>
<wgt id='1190'> +1.4857965e-12 </wgt>
<wgt id='1191'> +1.4971549e-12 </wgt>
<wgt id='1192'> +1.5047327e-12 </wgt>
<wgt id='1193'> +1.2433410e-12 </wgt>
<wgt id='1194'> +1.2386722e-12 </wgt>
<wgt id='1195'> +1.2471240e-12 </wgt>
<wgt id='1196'> +1.2484227e-12 </wgt>
<wgt id='1197'> +1.2376980e-12 </wgt>
<wgt id='1198'> +1.2439940e-12 </wgt>
<wgt id='1199'> +1.2423266e-12 </wgt>
<wgt id='1200'> +1.2453442e-12 </wgt>
<wgt id='1201'> +1.2420054e-12 </wgt>
<wgt id='1202'> +1.2411449e-12 </wgt>
<wgt id='1203'> +1.2464200e-12 </wgt>
<wgt id='1204'> +1.2302063e-12 </wgt>
<wgt id='1205'> +1.2513651e-12 </wgt>
<wgt id='1206'> +1.2491100e-12 </wgt>
<wgt id='1207'> +1.2354947e-12 </wgt>
<wgt id='1208'> +1.2360521e-12 </wgt>
<wgt id='1209'> +1.2460235e-12 </wgt>
<wgt id='1210'> +1.2423078e-12 </wgt>
<wgt id='1211'> +1.2354216e-12 </wgt>
<wgt id='1212'> +1.2443915e-12 </wgt>
<wgt id='1213'> +1.2423784e-12 </wgt>
<wgt id='1214'> +1.2286929e-12 </wgt>
<wgt id='1215'> +1.2661436e-12 </wgt>
<wgt id='1216'> +1.2508942e-12 </wgt>
<wgt id='1217'> +1.2380707e-12 </wgt>
<wgt id='1218'> +1.2490515e-12 </wgt>
<wgt id='1219'> +1.2403301e-12 </wgt>
<wgt id='1220'> +1.2457321e-12 </wgt>
<wgt id='1221'> +1.2467635e-12 </wgt>
<wgt id='1222'> +1.2422258e-12 </wgt>
<wgt id='1223'> +1.2465012e-12 </wgt>
<wgt id='1224'> +1.2455762e-12 </wgt>
<wgt id='1225'> +1.2424469e-12 </wgt>
<wgt id='1226'> +1.2415956e-12 </wgt>
<wgt id='1227'> +1.2445179e-12 </wgt>
<wgt id='1228'> +1.2401886e-12 </wgt>
<wgt id='1229'> +1.2446088e-12 </wgt>
<wgt id='1230'> +1.2427361e-12 </wgt>
<wgt id='1231'> +1.2370997e-12 </wgt>
<wgt id='1232'> +1.2416027e-12 </wgt>
<wgt id='1233'> +1.2438561e-12 </wgt>
<wgt id='1234'> +1.2433410e-12 </wgt>
<wgt id='1235'> +1.2347268e-12 </wgt>
<wgt id='1236'> +1.2380249e-12 </wgt>
<wgt id='1237'> +1.2408930e-12 </wgt>
<wgt id='1238'> +1.2458850e-12 </wgt>
<wgt id='1239'> +1.2478422e-12 </wgt>
<wgt id='1240'> +1.2498222e-12 </wgt>
<wgt id='1241'> +1.2675812e-12 </wgt>
<wgt id='1242'> +1.2595705e-12 </wgt>
<wgt id='1243'> +1.2756302e-12 </wgt>
<wgt id='1244'> +1.2614461e-12 </wgt>
<wgt id='1245'> +1.2722494e-12 </wgt>
<wgt id='1246'> +1.2683832e-12 </wgt>
<wgt id='1247'> +1.2669390e-12 </wgt>
<wgt id='1248'> +1.2675230e-12 </wgt>
<wgt id='1249'> +1.2676426e-12 </wgt>
<wgt id='1250'> +1.2681297e-12 </wgt>
<wgt id='1251'> +1.2673109e-12 </wgt>
<wgt id='1252'> +1.2635674e-12 </wgt>
<wgt id='1253'> +1.2708600e-12 </wgt>
<wgt id='1254'> +1.2545321e-12 </wgt>
<wgt id='1255'> +1.2755076e-12 </wgt>
<wgt id='1256'> +1.2720771e-12 </wgt>
<wgt id='1257'> +1.2564298e-12 </wgt>
<wgt id='1258'> +1.2868490e-12 </wgt>
<wgt id='1259'> +1.2492006e-12 </wgt>
<wgt id='1260'> +1.2714103e-12 </wgt>
<wgt id='1261'> +1.2634568e-12 </wgt>
<wgt id='1262'> +1.2703984e-12 </wgt>
<wgt id='1263'> +1.2663818e-12 </wgt>
<wgt id='1264'> +1.2735787e-12 </wgt>
<wgt id='1265'> +1.2648091e-12 </wgt>
<wgt id='1266'> +1.2670577e-12 </wgt>
<wgt id='1267'> +1.2693045e-12 </wgt>
<wgt id='1268'> +1.2695942e-12 </wgt>
<wgt id='1269'> +1.2700920e-12 </wgt>
<wgt id='1270'> +1.2616723e-12 </wgt>
<wgt id='1271'> +1.2615630e-12 </wgt>
<wgt id='1272'> +1.2689007e-12 </wgt>
<wgt id='1273'> +1.2668238e-12 </wgt>
<wgt id='1274'> +1.2694362e-12 </wgt>
<wgt id='1275'> +1.2635889e-12 </wgt>
<wgt id='1276'> +1.2692601e-12 </wgt>
<wgt id='1277'> +1.2651648e-12 </wgt>
<wgt id='1278'> +1.2674085e-12 </wgt>
<wgt id='1279'> +1.2670555e-12 </wgt>
<wgt id='1280'> +1.2682501e-12 </wgt>
<wgt id='1281'> +1.2661191e-12 </wgt>
<wgt id='1282'> +1.2675812e-12 </wgt>
<wgt id='1283'> +1.2578314e-12 </wgt>
<wgt id='1284'> +1.2615848e-12 </wgt>
<wgt id='1285'> +1.2650328e-12 </wgt>
<wgt id='1286'> +1.2704697e-12 </wgt>
<wgt id='1287'> +1.2726434e-12 </wgt>
<wgt id='1288'> +1.2744594e-12 </wgt>
<wgt id='1289'> +1.2682635e-12 </wgt>
<wgt id='1290'> +1.2741941e-12 </wgt>
<wgt id='1291'> +1.2618736e-12 </wgt>
<wgt id='1292'> +1.2636491e-12 </wgt>
<wgt id='1293'> +1.2716081e-12 </wgt>
<wgt id='1294'> +1.2681054e-12 </wgt>
<wgt id='1295'> +1.2683895e-12 </wgt>
<wgt id='1296'> +1.2630143e-12 </wgt>
<wgt id='1297'> +1.2747853e-12 </wgt>
<wgt id='1298'> +1.2739136e-12 </wgt>
<wgt id='1299'> +1.2611084e-12 </wgt>
<wgt id='1300'> +1.2718871e-12 </wgt>
<wgt id='1301'> +1.2608764e-12 </wgt>
<wgt id='1302'> +1.2669664e-12 </wgt>
<wgt id='1303'> +1.2701093e-12 </wgt>
<wgt id='1304'> +1.2650493e-12 </wgt>
<wgt id='1305'> +1.2704419e-12 </wgt>
<wgt id='1306'> +1.2643522e-12 </wgt>
<wgt id='1307'> +1.2728725e-12 </wgt>
<wgt id='1308'> +1.2798346e-12 </wgt>
<wgt id='1309'> +1.2594978e-12 </wgt>
<wgt id='1310'> +1.2651436e-12 </wgt>
<wgt id='1311'> +1.2718030e-12 </wgt>
<wgt id='1312'> +1.2648284e-12 </wgt>
<wgt id='1313'> +1.2719459e-12 </wgt>
<wgt id='1314'> +1.2722084e-12 </wgt>
<wgt id='1315'> +1.2570555e-12 </wgt>
<wgt id='1316'> +1.2779861e-12 </wgt>
<wgt id='1317'> +1.2667277e-12 </wgt>
<wgt id='1318'> +1.2760826e-12 </wgt>
<wgt id='1319'> +1.2584316e-12 </wgt>
<wgt id='1320'> +1.2750594e-12 </wgt>
<wgt id='1321'> +1.2614263e-12 </wgt>
<wgt id='1322'> +1.2676289e-12 </wgt>
<wgt id='1323'> +1.2689231e-12 </wgt>
<wgt id='1324'> +1.2658720e-12 </wgt>
<wgt id='1325'> +1.2780714e-12 </wgt>
<wgt id='1326'> +1.2666057e-12 </wgt>
<wgt id='1327'> +1.2720631e-12 </wgt>
<wgt id='1328'> +1.2692696e-12 </wgt>
<wgt id='1329'> +1.2671832e-12 </wgt>
<wgt id='1330'> +1.2461987e-12 </wgt>
<wgt id='1331'> +1.2795958e-12 </wgt>
<wgt id='1332'> +1.2919459e-12 </wgt>
<wgt id='1333'> +1.2531683e-12 </wgt>
<wgt id='1334'> +1.2637914e-12 </wgt>
<wgt id='1335'> +1.2790349e-12 </wgt>
<wgt id='1336'> +1.2676985e-12 </wgt>
<wgt id='1337'> +1.2637800e-12 </wgt>
<wgt id='1338'> +1.2686512e-12 </wgt>
<wgt id='1339'> +1.2680636e-12 </wgt>
<wgt id='1340'> +1.2440480e-12 </wgt>
<wgt id='1341'> +1.2501290e-12 </wgt>
<wgt id='1342'> +1.2375074e-12 </wgt>
<wgt id='1343'> +1.2393859e-12 </wgt>
<wgt id='1344'> +1.2472640e-12 </wgt>
<wgt id='1345'> +1.2436299e-12 </wgt>
<wgt id='1346'> +1.2443973e-12 </wgt>
<wgt id='1347'> +1.2389467e-12 </wgt>
<wgt id='1348'> +1.2498741e-12 </wgt>
<wgt id='1349'> +1.2490728e-12 </wgt>
<wgt id='1350'> +1.2391611e-12 </wgt>
<wgt id='1351'> +1.2477413e-12 </wgt>
<wgt id='1352'> +1.2361144e-12 </wgt>
<wgt id='1353'> +1.2422205e-12 </wgt>
<wgt id='1354'> +1.2474025e-12 </wgt>
<wgt id='1355'> +1.2410198e-12 </wgt>
<wgt id='1356'> +1.2457878e-12 </wgt>
<wgt id='1357'> +1.2433611e-12 </wgt>
<wgt id='1358'> +1.2450777e-12 </wgt>
<wgt id='1359'> +1.2566616e-12 </wgt>
<wgt id='1360'> +1.2331723e-12 </wgt>
<wgt id='1361'> +1.2412290e-12 </wgt>
<wgt id='1362'> +1.2480881e-12 </wgt>
<wgt id='1363'> +1.2394606e-12 </wgt>
<wgt id='1364'> +1.2476236e-12 </wgt>
<wgt id='1365'> +1.2334892e-12 </wgt>
<wgt id='1366'> +1.2473779e-12 </wgt>
<wgt id='1367'> +1.2529487e-12 </wgt>
<wgt id='1368'> +1.2424983e-12 </wgt>
<wgt id='1369'> +1.2509298e-12 </wgt>
<wgt id='1370'> +1.2357161e-12 </wgt>
<wgt id='1371'> +1.2491652e-12 </wgt>
<wgt id='1372'> +1.2371759e-12 </wgt>
<wgt id='1373'> +1.2424271e-12 </wgt>
<wgt id='1374'> +1.2453479e-12 </wgt>
<wgt id='1375'> +1.2418325e-12 </wgt>
<wgt id='1376'> +1.2538930e-12 </wgt>
<wgt id='1377'> +1.2426483e-12 </wgt>
<wgt id='1378'> +1.2478738e-12 </wgt>
<wgt id='1379'> +1.2447004e-12 </wgt>
<wgt id='1380'> +1.2431646e-12 </wgt>
<wgt id='1381'> +1.2205837e-12 </wgt>
<wgt id='1382'> +1.2546669e-12 </wgt>
<wgt id='1383'> +1.2676929e-12 </wgt>
<wgt id='1384'> +1.2265745e-12 </wgt>
<wgt id='1385'> +1.2394134e-12 </wgt>
<wgt id='1386'> +1.2543335e-12 </wgt>
<wgt id='1387'> +1.2430689e-12 </wgt>
<wgt id='1388'> +1.2378861e-12 </wgt>
<wgt id='1389'> +1.2437869e-12 </wgt>
<wgt id='1390'> +1.2438682e-12 </wgt>
<wgt id='1391'> +1.2265427e-12 </wgt>
<wgt id='1392'> +1.1940451e-12 </wgt>
<wgt id='1393'> +1.2041269e-12 </wgt>
<wgt id='1394'> +1.2149425e-12 </wgt>
<wgt id='1395'> +1.2346328e-12 </wgt>
<wgt id='1396'> +1.2256350e-12 </wgt>
<wgt id='1397'> +1.1927021e-12 </wgt>
<wgt id='1398'> +1.1993744e-12 </wgt>
<wgt id='1399'> +1.2058326e-12 </wgt>
<wgt id='1400'> +1.2121338e-12 </wgt>
<wgt id='1401'> +1.2188668e-12 </wgt>
<wgt id='1402'> +1.2311765e-12 </wgt>
<wgt id='1403'> +1.2374955e-12 </wgt>
<wgt id='1404'> +1.2430999e-12 </wgt>
<wgt id='1405'> +1.2256350e-12 </wgt>
<wgt id='1406'> +1.2211847e-12 </wgt>
<wgt id='1407'> +1.2236211e-12 </wgt>
<wgt id='1408'> +1.2275539e-12 </wgt>
<wgt id='1409'> +1.2288267e-12 </wgt>
<wgt id='1410'> +1.2405584e-12 </wgt>
<wgt id='1411'> +1.2447508e-12 </wgt>
<wgt id='1412'> +1.2351396e-12 </wgt>
<wgt id='1413'> +1.2467865e-12 </wgt>
<wgt id='1414'> +1.2342764e-12 </wgt>
<wgt id='1415'> +1.2354245e-12 </wgt>
<wgt id='1416'> +1.2426196e-12 </wgt>
<wgt id='1417'> +1.2319595e-12 </wgt>
<wgt id='1418'> +1.2491095e-12 </wgt>
<wgt id='1419'> +1.2421191e-12 </wgt>
<wgt id='1420'> +1.2390583e-12 </wgt>
<wgt id='1421'> +1.2272194e-12 </wgt>
<wgt id='1422'> +1.2463161e-12 </wgt>
<wgt id='1423'> +1.2402916e-12 </wgt>
<wgt id='1424'> +1.2408237e-12 </wgt>
<wgt id='1425'> +1.2363303e-12 </wgt>
<wgt id='1426'> +1.2451275e-12 </wgt>
<wgt id='1427'> +1.2436895e-12 </wgt>
<wgt id='1428'> +1.2386333e-12 </wgt>
<wgt id='1429'> +1.2332836e-12 </wgt>
<wgt id='1430'> +1.2503327e-12 </wgt>
<wgt id='1431'> +1.2486644e-12 </wgt>
<wgt id='1432'> +1.2347830e-12 </wgt>
<wgt id='1433'> +1.2473526e-12 </wgt>
<wgt id='1434'> +1.2324382e-12 </wgt>
<wgt id='1435'> +1.2432776e-12 </wgt>
<wgt id='1436'> +1.2340611e-12 </wgt>
<wgt id='1437'> +1.2499522e-12 </wgt>
<wgt id='1438'> +1.2383705e-12 </wgt>
<wgt id='1439'> +1.2344974e-12 </wgt>
<wgt id='1440'> +1.2534795e-12 </wgt>
<wgt id='1441'> +1.2425476e-12 </wgt>
<wgt id='1442'> +1.2371284e-12 </wgt>
<wgt id='1443'> +1.2386624e-12 </wgt>
<wgt id='1444'> +1.2459871e-12 </wgt>
<wgt id='1445'> +1.2511022e-12 </wgt>
<wgt id='1446'> +1.2373304e-12 </wgt>
<wgt id='1447'> +1.2399722e-12 </wgt>
<wgt id='1448'> +1.2448833e-12 </wgt>
<wgt id='1449'> +1.2418017e-12 </wgt>
<wgt id='1450'> +1.2393569e-12 </wgt>
<wgt id='1451'> +1.2483032e-12 </wgt>
<wgt id='1452'> +1.2174705e-12 </wgt>
<wgt id='1453'> +1.2427530e-12 </wgt>
<wgt id='1454'> +1.2271890e-12 </wgt>
<wgt id='1455'> +1.2275815e-12 </wgt>
<wgt id='1456'> +1.2485183e-12 </wgt>
<wgt id='1457'> +1.2480010e-12 </wgt>
<wgt id='1458'> +1.2375163e-12 </wgt>
<wgt id='1459'> +1.2454305e-12 </wgt>
<wgt id='1460'> +1.2368863e-12 </wgt>
<wgt id='1461'> +1.2405584e-12 </wgt>
<wgt id='1462'> +1.2328889e-12 </wgt>
<wgt id='1463'> +1.2503238e-12 </wgt>
<wgt id='1464'> +1.2419401e-12 </wgt>
<wgt id='1465'> +1.2146104e-12 </wgt>
<wgt id='1466'> +1.2202277e-12 </wgt>
<wgt id='1467'> +1.2262296e-12 </wgt>
<wgt id='1468'> +1.2313127e-12 </wgt>
<wgt id='1469'> +1.2367207e-12 </wgt>
<wgt id='1470'> +1.2478053e-12 </wgt>
<wgt id='1471'> +1.2524446e-12 </wgt>
<wgt id='1472'> +1.2578128e-12 </wgt>
<wgt id='1473'> +1.2419401e-12 </wgt>
<wgt id='1474'> +1.2367741e-12 </wgt>
<wgt id='1475'> +1.2388706e-12 </wgt>
<wgt id='1476'> +1.2440758e-12 </wgt>
<wgt id='1477'> +1.2461753e-12 </wgt>
<wgt id='1478'> +1.1829032e-12 </wgt>
<wgt id='1479'> +1.1810919e-12 </wgt>
<wgt id='1480'> +1.2139331e-12 </wgt>
<wgt id='1481'> +1.1755130e-12 </wgt>
<wgt id='1482'> +1.1837092e-12 </wgt>
<wgt id='1483'> +1.1826531e-12 </wgt>
<wgt id='1484'> +1.1863382e-12 </wgt>
<wgt id='1485'> +1.1850890e-12 </wgt>
<wgt id='1486'> +1.1829390e-12 </wgt>
<wgt id='1487'> +1.1764671e-12 </wgt>
<wgt id='1488'> +1.1796061e-12 </wgt>
<wgt id='1489'> +1.2091652e-12 </wgt>
<wgt id='1490'> +1.1818437e-12 </wgt>
<wgt id='1491'> +1.1830143e-12 </wgt>
<wgt id='1492'> +1.1822129e-12 </wgt>
<wgt id='1493'> +1.1696158e-12 </wgt>
<wgt id='1494'> +1.1882242e-12 </wgt>
<wgt id='1495'> +1.1882118e-12 </wgt>
<wgt id='1496'> +1.1835013e-12 </wgt>
<wgt id='1497'> +1.1851046e-12 </wgt>
<wgt id='1498'> +1.1812035e-12 </wgt>
<wgt id='1499'> +1.1841416e-12 </wgt>
<wgt id='1500'> +1.1797945e-12 </wgt>
<wgt id='1501'> +1.1833978e-12 </wgt>
<wgt id='1502'> +1.1858555e-12 </wgt>
<wgt id='1503'> +1.1803303e-12 </wgt>
<wgt id='1504'> +1.1820494e-12 </wgt>
<wgt id='1505'> +1.1804152e-12 </wgt>
<wgt id='1506'> +1.1832627e-12 </wgt>
<wgt id='1507'> +1.1812442e-12 </wgt>
<wgt id='1508'> +1.1881746e-12 </wgt>
<wgt id='1509'> +1.2670615e-12 </wgt>
<wgt id='1510'> +1.2650561e-12 </wgt>
<wgt id='1511'> +1.2700473e-12 </wgt>
<wgt id='1512'> +1.2696864e-12 </wgt>
<wgt id='1513'> +1.2751939e-12 </wgt>
<wgt id='1514'> +1.2632154e-12 </wgt>
<wgt id='1515'> +1.2586226e-12 </wgt>
<wgt id='1516'> +1.2641201e-12 </wgt>
<wgt id='1517'> +1.2602880e-12 </wgt>
<wgt id='1518'> +1.2691658e-12 </wgt>
<wgt id='1519'> +1.2608454e-12 </wgt>
<wgt id='1520'> +1.2652553e-12 </wgt>
<wgt id='1521'> +1.2759851e-12 </wgt>
<wgt id='1522'> +1.2722557e-12 </wgt>
<wgt id='1523'> +1.2649979e-12 </wgt>
<wgt id='1524'> +1.2762270e-12 </wgt>
<wgt id='1525'> +1.2670839e-12 </wgt>
<wgt id='1526'> +1.2614791e-12 </wgt>
<wgt id='1527'> +1.2697252e-12 </wgt>
<wgt id='1528'> +1.2612429e-12 </wgt>
<wgt id='1529'> +1.2680022e-12 </wgt>
<wgt id='1530'> +1.2681703e-12 </wgt>
<wgt id='1531'> +1.2661304e-12 </wgt>
<wgt id='1532'> +1.2697830e-12 </wgt>
<wgt id='1533'> +1.2775668e-12 </wgt>
<wgt id='1534'> +1.2662023e-12 </wgt>
<wgt id='1535'> +1.2662130e-12 </wgt>
<wgt id='1536'> +1.2645659e-12 </wgt>
<wgt id='1537'> +1.2677575e-12 </wgt>
<wgt id='1538'> +1.2691636e-12 </wgt>
<wgt id='1539'> +1.2676701e-12 </wgt>
<wgt id='1540'> +1.2681467e-12 </wgt>
<wgt id='1541'> +1.2672226e-12 </wgt>
<wgt id='1542'> +1.2678600e-12 </wgt>
<wgt id='1543'> +1.2662805e-12 </wgt>
<wgt id='1544'> +1.2665523e-12 </wgt>
<wgt id='1545'> +1.2699092e-12 </wgt>
<wgt id='1546'> +1.2656793e-12 </wgt>
<wgt id='1547'> +1.2681173e-12 </wgt>
<wgt id='1548'> +1.2653706e-12 </wgt>
<wgt id='1549'> +1.2679073e-12 </wgt>
<wgt id='1550'> +1.2660625e-12 </wgt>
<wgt id='1551'> +1.2676403e-12 </wgt>
<wgt id='1552'> +1.2669789e-12 </wgt>
<wgt id='1553'> +1.2676856e-12 </wgt>
<wgt id='1554'> +1.2678884e-12 </wgt>
<wgt id='1555'> +1.2666209e-12 </wgt>
<wgt id='1556'> +1.2669721e-12 </wgt>
<wgt id='1557'> +1.2672063e-12 </wgt>
<wgt id='1558'> +1.2674907e-12 </wgt>
<wgt id='1559'> +1.2675061e-12 </wgt>
<wgt id='1560'> +1.2683159e-12 </wgt>
<wgt id='1561'> +1.2676462e-12 </wgt>
<wgt id='1562'> +1.2670584e-12 </wgt>
<wgt id='1563'> +1.2670120e-12 </wgt>
<wgt id='1564'> +1.2669528e-12 </wgt>
<wgt id='1565'> +1.2672266e-12 </wgt>
<wgt id='1566'> +1.2666214e-12 </wgt>
<wgt id='1567'> +1.2662667e-12 </wgt>
<wgt id='1568'> +1.2666885e-12 </wgt>
<wgt id='1569'> +1.2678428e-12 </wgt>
<wgt id='1570'> +1.2675958e-12 </wgt>
<wgt id='1571'> +1.2670157e-12 </wgt>
<wgt id='1572'> +1.2672383e-12 </wgt>
<wgt id='1573'> +1.2676054e-12 </wgt>
<wgt id='1574'> +1.2671510e-12 </wgt>
<wgt id='1575'> +1.2666039e-12 </wgt>
<wgt id='1576'> +1.2687024e-12 </wgt>
<wgt id='1577'> +1.2675402e-12 </wgt>
<wgt id='1578'> +1.2674217e-12 </wgt>
<wgt id='1579'> +1.2665467e-12 </wgt>
<wgt id='1580'> +1.2672685e-12 </wgt>
<wgt id='1581'> +1.2676828e-12 </wgt>
<wgt id='1582'> +1.2675187e-12 </wgt>
<wgt id='1583'> +1.2669421e-12 </wgt>
<wgt id='1584'> +1.2670046e-12 </wgt>
<wgt id='1585'> +1.2668173e-12 </wgt>
<wgt id='1586'> +1.2669279e-12 </wgt>
<wgt id='1587'> +1.2670979e-12 </wgt>
<wgt id='1588'> +1.2668772e-12 </wgt>
<wgt id='1589'> +1.2668131e-12 </wgt>
<wgt id='1590'> +1.2673310e-12 </wgt>
<wgt id='1591'> +1.2669229e-12 </wgt>
<wgt id='1592'> +1.2668236e-12 </wgt>
<wgt id='1593'> +1.2668788e-12 </wgt>
<wgt id='1594'> +1.2665136e-12 </wgt>
<wgt id='1595'> +1.2671402e-12 </wgt>
<wgt id='1596'> +1.2668015e-12 </wgt>
<wgt id='1597'> +1.2668315e-12 </wgt>
<wgt id='1598'> +1.2666361e-12 </wgt>
<wgt id='1599'> +1.2673665e-12 </wgt>
<wgt id='1600'> +1.2669607e-12 </wgt>
<wgt id='1601'> +1.2671715e-12 </wgt>
<wgt id='1602'> +1.2676152e-12 </wgt>
<wgt id='1603'> +1.2674469e-12 </wgt>
<wgt id='1604'> +1.2668610e-12 </wgt>
<wgt id='1605'> +1.2665568e-12 </wgt>
<wgt id='1606'> +1.2672324e-12 </wgt>
<wgt id='1607'> +1.2671855e-12 </wgt>
<wgt id='1608'> +1.2666829e-12 </wgt>
<wgt id='1609'> +1.2669533e-12 </wgt>
<wgt id='1610'> +1.2522262e-12 </wgt>
<wgt id='1611'> +1.2807770e-12 </wgt>
<wgt id='1612'> +1.4866754e-12 </wgt>
<wgt id='1613'> +1.5034275e-12 </wgt>
<wgt id='1614'> +1.5143342e-12 </wgt>
<wgt id='1615'> +1.4657042e-12 </wgt>
<wgt id='1616'> +1.5487496e-12 </wgt>
<wgt id='1617'> +1.5086554e-12 </wgt>
<wgt id='1618'> +1.4835155e-12 </wgt>
<wgt id='1619'> +1.5215560e-12 </wgt>
<wgt id='1620'> +1.4733545e-12 </wgt>
<wgt id='1621'> +1.4716418e-12 </wgt>
<wgt id='1622'> +1.4598345e-12 </wgt>
<wgt id='1623'> +1.5087729e-12 </wgt>
<wgt id='1624'> +1.4479647e-12 </wgt>
<wgt id='1625'> +1.4775745e-12 </wgt>
<wgt id='1626'> +1.4560280e-12 </wgt>
<wgt id='1627'> +1.4765823e-12 </wgt>
<wgt id='1628'> +1.5234940e-12 </wgt>
<wgt id='1629'> +1.4816318e-12 </wgt>
<wgt id='1630'> +1.5073765e-12 </wgt>
<wgt id='1631'> +1.4726520e-12 </wgt>
<wgt id='1632'> +1.4855076e-12 </wgt>
<wgt id='1633'> +1.4675336e-12 </wgt>
<wgt id='1634'> +1.4650942e-12 </wgt>
<wgt id='1635'> +1.4901888e-12 </wgt>
<wgt id='1636'> +1.5408017e-12 </wgt>
<wgt id='1637'> +1.4537856e-12 </wgt>
<wgt id='1638'> +1.5097692e-12 </wgt>
<wgt id='1639'> +1.5228116e-12 </wgt>
<wgt id='1640'> +1.5177781e-12 </wgt>
<wgt id='1641'> +1.4932165e-12 </wgt>
<wgt id='1642'> +1.4786137e-12 </wgt>
<wgt id='1643'> +1.5114063e-12 </wgt>
<wgt id='1644'> +1.4209477e-12 </wgt>
<wgt id='1645'> +1.4832072e-12 </wgt>
<wgt id='1646'> +1.5118551e-12 </wgt>
<wgt id='1647'> +1.5198047e-12 </wgt>
<wgt id='1648'> +1.4972757e-12 </wgt>
<wgt id='1649'> +1.5030920e-12 </wgt>
<wgt id='1650'> +1.4845524e-12 </wgt>
<wgt id='1651'> +1.4596031e-12 </wgt>
<wgt id='1652'> +1.4899385e-12 </wgt>
<wgt id='1653'> +1.5224561e-12 </wgt>
<wgt id='1654'> +1.5047402e-12 </wgt>
<wgt id='1655'> +1.4658825e-12 </wgt>
<wgt id='1656'> +1.4726580e-12 </wgt>
<wgt id='1657'> +1.4878109e-12 </wgt>
<wgt id='1658'> +1.4771482e-12 </wgt>
<wgt id='1659'> +1.4479647e-12 </wgt>
<wgt id='1660'> +1.4735943e-12 </wgt>
<wgt id='1661'> +1.4541549e-12 </wgt>
<wgt id='1662'> +1.4316472e-12 </wgt>
<wgt id='1663'> +1.4527312e-12 </wgt>
<wgt id='1664'> +1.4954769e-12 </wgt>
<wgt id='1665'> +1.4696266e-12 </wgt>
<wgt id='1666'> +1.4574859e-12 </wgt>
<wgt id='1667'> +1.4834342e-12 </wgt>
<wgt id='1668'> +1.5409390e-12 </wgt>
<wgt id='1669'> +1.4620687e-12 </wgt>
<wgt id='1670'> +1.5052629e-12 </wgt>
<wgt id='1671'> +1.4579894e-12 </wgt>
<wgt id='1672'> +1.4730244e-12 </wgt>
<wgt id='1673'> +1.4936669e-12 </wgt>
<wgt id='1674'> +1.5075032e-12 </wgt>
<wgt id='1675'> +1.4995232e-12 </wgt>
<wgt id='1676'> +1.5059110e-12 </wgt>
<wgt id='1677'> +1.4751204e-12 </wgt>
<wgt id='1678'> +1.4872083e-12 </wgt>
<wgt id='1679'> +1.5286538e-12 </wgt>
<wgt id='1680'> +1.5010436e-12 </wgt>
<wgt id='1681'> +1.4918260e-12 </wgt>
<wgt id='1682'> +1.4650686e-12 </wgt>
<wgt id='1683'> +1.4816679e-12 </wgt>
<wgt id='1684'> +1.4300455e-12 </wgt>
<wgt id='1685'> +1.4819526e-12 </wgt>
<wgt id='1686'> +1.4826769e-12 </wgt>
<wgt id='1687'> +1.5018258e-12 </wgt>
<wgt id='1688'> +1.5142753e-12 </wgt>
<wgt id='1689'> +1.4623948e-12 </wgt>
<wgt id='1690'> +1.4965667e-12 </wgt>
<wgt id='1691'> +1.5263021e-12 </wgt>
<wgt id='1692'> +1.5237123e-12 </wgt>
<wgt id='1693'> +1.4763010e-12 </wgt>
<wgt id='1694'> +1.3829538e-12 </wgt>
<wgt id='1695'> +1.4622769e-12 </wgt>
<wgt id='1696'> +1.5431823e-12 </wgt>
<wgt id='1697'> +1.5421707e-12 </wgt>
<wgt id='1698'> +1.4820162e-12 </wgt>
<wgt id='1699'> +1.5077282e-12 </wgt>
<wgt id='1700'> +1.4807163e-12 </wgt>
<wgt id='1701'> +1.4823792e-12 </wgt>
<wgt id='1702'> +1.5034703e-12 </wgt>
<wgt id='1703'> +1.4604388e-12 </wgt>
<wgt id='1704'> +1.4884045e-12 </wgt>
<wgt id='1705'> +1.4812064e-12 </wgt>
<wgt id='1706'> +1.5048085e-12 </wgt>
<wgt id='1707'> +1.4600381e-12 </wgt>
<wgt id='1708'> +1.4742004e-12 </wgt>
<wgt id='1709'> +1.4941849e-12 </wgt>
<wgt id='1710'> +1.4797259e-12 </wgt>
<wgt id='1711'> +1.4983129e-12 </wgt>
<wgt id='1712'> +1.4583719e-12 </wgt>
<wgt id='1713'> +1.1946745e-12 </wgt>
<wgt id='1714'> +1.1607540e-12 </wgt>
<wgt id='1715'> +1.2118958e-12 </wgt>
<wgt id='1716'> +1.2120131e-12 </wgt>
<wgt id='1717'> +1.2034045e-12 </wgt>
<wgt id='1718'> +1.1050072e-12 </wgt>
<wgt id='1719'> +1.1393396e-12 </wgt>
<wgt id='1720'> +1.2114348e-12 </wgt>
<wgt id='1721'> +1.1962860e-12 </wgt>
<wgt id='1722'> +1.1921097e-12 </wgt>
<wgt id='1723'> +1.1565513e-12 </wgt>
<wgt id='1724'> +1.1071570e-12 </wgt>
<wgt id='1725'> +1.1713760e-12 </wgt>
<wgt id='1726'> +1.2343913e-12 </wgt>
<wgt id='1727'> +1.1604816e-12 </wgt>
<wgt id='1728'> +1.1894827e-12 </wgt>
<wgt id='1729'> +1.1946403e-12 </wgt>
<wgt id='1730'> +1.1698287e-12 </wgt>
<wgt id='1731'> +1.1620495e-12 </wgt>
<wgt id='1732'> +1.2182149e-12 </wgt>
<wgt id='1733'> +1.2258520e-12 </wgt>
<wgt id='1734'> +1.2160557e-12 </wgt>
<wgt id='1735'> +1.1972912e-12 </wgt>
<wgt id='1736'> +1.2729715e-12 </wgt>
<wgt id='1737'> +1.1798766e-12 </wgt>
<wgt id='1738'> +1.2205121e-12 </wgt>
<wgt id='1739'> +1.1753174e-12 </wgt>
<wgt id='1740'> +1.1792528e-12 </wgt>
<wgt id='1741'> +1.2003121e-12 </wgt>
<wgt id='1742'> +1.1848504e-12 </wgt>
<wgt id='1743'> +1.2261048e-12 </wgt>
<wgt id='1744'> +1.2515028e-12 </wgt>
<wgt id='1745'> +1.1181009e-12 </wgt>
<wgt id='1746'> +1.2468232e-12 </wgt>
<wgt id='1747'> +1.1754331e-12 </wgt>
<wgt id='1748'> +1.2148696e-12 </wgt>
<wgt id='1749'> +1.2330518e-12 </wgt>
<wgt id='1750'> +1.2146162e-12 </wgt>
<wgt id='1751'> +1.1327131e-12 </wgt>
<wgt id='1752'> +1.1760011e-12 </wgt>
<wgt id='1753'> +1.2237080e-12 </wgt>
<wgt id='1754'> +1.2070886e-12 </wgt>
<wgt id='1755'> +1.2154993e-12 </wgt>
<wgt id='1756'> +1.2084012e-12 </wgt>
<wgt id='1757'> +1.1928495e-12 </wgt>
<wgt id='1758'> +1.2318711e-12 </wgt>
<wgt id='1759'> +1.1837472e-12 </wgt>
<wgt id='1760'> +1.1783927e-12 </wgt>
<wgt id='1761'> +1.1700157e-12 </wgt>
<wgt id='1762'> +1.1606099e-12 </wgt>
<wgt id='1763'> +1.2220528e-12 </wgt>
<wgt id='1764'> +1.2088187e-12 </wgt>
<wgt id='1765'> +1.1879863e-12 </wgt>
<wgt id='1766'> +1.1624175e-12 </wgt>
<wgt id='1767'> +1.1951161e-12 </wgt>
<wgt id='1768'> +1.2026532e-12 </wgt>
<wgt id='1769'> +1.1687655e-12 </wgt>
<wgt id='1770'> +1.2685614e-12 </wgt>
<wgt id='1771'> +1.1973140e-12 </wgt>
<wgt id='1772'> +1.2413811e-12 </wgt>
<wgt id='1773'> +1.2051633e-12 </wgt>
<wgt id='1774'> +1.2143820e-12 </wgt>
<wgt id='1775'> +1.2047746e-12 </wgt>
<wgt id='1776'> +1.1380320e-12 </wgt>
<wgt id='1777'> +1.1885421e-12 </wgt>
<wgt id='1778'> +1.1882346e-12 </wgt>
<wgt id='1779'> +1.2107253e-12 </wgt>
<wgt id='1780'> +1.2609136e-12 </wgt>
<wgt id='1781'> +1.2085523e-12 </wgt>
<wgt id='1782'> +1.1654548e-12 </wgt>
<wgt id='1783'> +1.2022096e-12 </wgt>
<wgt id='1784'> +1.2128107e-12 </wgt>
<wgt id='1785'> +1.1284095e-12 </wgt>
<wgt id='1786'> +1.0993433e-12 </wgt>
<wgt id='1787'> +1.1760240e-12 </wgt>
<wgt id='1788'> +1.1992786e-12 </wgt>
<wgt id='1789'> +1.1145213e-12 </wgt>
<wgt id='1790'> +1.1790468e-12 </wgt>
<wgt id='1791'> +1.2325430e-12 </wgt>
<wgt id='1792'> +1.1791097e-12 </wgt>
<wgt id='1793'> +1.2267384e-12 </wgt>
<wgt id='1794'> +1.2050457e-12 </wgt>
<wgt id='1795'> +1.1753564e-12 </wgt>
<wgt id='1796'> +1.2031924e-12 </wgt>
<wgt id='1797'> +1.2192255e-12 </wgt>
<wgt id='1798'> +1.1796464e-12 </wgt>
<wgt id='1799'> +1.1940871e-12 </wgt>
<wgt id='1800'> +1.1946116e-12 </wgt>
<wgt id='1801'> +1.2014868e-12 </wgt>
<wgt id='1802'> +1.1870853e-12 </wgt>
<wgt id='1803'> +1.2054482e-12 </wgt>
<wgt id='1804'> +1.1956439e-12 </wgt>
<wgt id='1805'> +1.1990243e-12 </wgt>
<wgt id='1806'> +1.1911770e-12 </wgt>
<wgt id='1807'> +1.2069088e-12 </wgt>
<wgt id='1808'> +1.2058697e-12 </wgt>
<wgt id='1809'> +1.1939503e-12 </wgt>
<wgt id='1810'> +1.2198600e-12 </wgt>
<wgt id='1811'> +1.2491731e-12 </wgt>
<wgt id='1812'> +1.2439794e-12 </wgt>
<wgt id='1813'> +1.2069184e-12 </wgt>
<wgt id='1814'> +1.2413837e-12 </wgt>
<wgt id='1815'> +1.4049053e-12 </wgt>
<wgt id='1816'> +1.1946745e-12 </wgt>
<wgt id='1817'> +1.1607540e-12 </wgt>
<wgt id='1818'> +1.2118958e-12 </wgt>
<wgt id='1819'> +1.2120131e-12 </wgt>
<wgt id='1820'> +1.2034045e-12 </wgt>
<wgt id='1821'> +1.1050072e-12 </wgt>
<wgt id='1822'> +1.1393396e-12 </wgt>
<wgt id='1823'> +1.2114348e-12 </wgt>
<wgt id='1824'> +1.1962860e-12 </wgt>
<wgt id='1825'> +1.1921097e-12 </wgt>
<wgt id='1826'> +1.1565513e-12 </wgt>
<wgt id='1827'> +1.1071570e-12 </wgt>
<wgt id='1828'> +1.1713760e-12 </wgt>
<wgt id='1829'> +1.2343913e-12 </wgt>
<wgt id='1830'> +1.1604816e-12 </wgt>
<wgt id='1831'> +1.1894827e-12 </wgt>
<wgt id='1832'> +1.1946403e-12 </wgt>
<wgt id='1833'> +1.1698287e-12 </wgt>
<wgt id='1834'> +1.1620495e-12 </wgt>
<wgt id='1835'> +1.2182149e-12 </wgt>
<wgt id='1836'> +1.2258520e-12 </wgt>
<wgt id='1837'> +1.2160557e-12 </wgt>
<wgt id='1838'> +1.1972912e-12 </wgt>
<wgt id='1839'> +1.2729715e-12 </wgt>
<wgt id='1840'> +1.1798766e-12 </wgt>
<wgt id='1841'> +1.2205121e-12 </wgt>
<wgt id='1842'> +1.1753174e-12 </wgt>
<wgt id='1843'> +1.1792528e-12 </wgt>
<wgt id='1844'> +1.2003121e-12 </wgt>
<wgt id='1845'> +1.1848504e-12 </wgt>
<wgt id='1846'> +1.2261048e-12 </wgt>
<wgt id='1847'> +1.2515028e-12 </wgt>
<wgt id='1848'> +1.1181009e-12 </wgt>
<wgt id='1849'> +1.2468232e-12 </wgt>
<wgt id='1850'> +1.1754331e-12 </wgt>
<wgt id='1851'> +1.2148696e-12 </wgt>
<wgt id='1852'> +1.2330518e-12 </wgt>
<wgt id='1853'> +1.2146162e-12 </wgt>
<wgt id='1854'> +1.1327131e-12 </wgt>
<wgt id='1855'> +1.1760011e-12 </wgt>
<wgt id='1856'> +1.2237080e-12 </wgt>
<wgt id='1857'> +1.2070886e-12 </wgt>
<wgt id='1858'> +1.2154993e-12 </wgt>
<wgt id='1859'> +1.2084012e-12 </wgt>
<wgt id='1860'> +1.1928495e-12 </wgt>
<wgt id='1861'> +1.2318711e-12 </wgt>
<wgt id='1862'> +1.1837472e-12 </wgt>
<wgt id='1863'> +1.1783927e-12 </wgt>
<wgt id='1864'> +1.1700157e-12 </wgt>
<wgt id='1865'> +1.1606099e-12 </wgt>
<wgt id='1866'> +1.2220528e-12 </wgt>
<wgt id='1867'> +1.2088187e-12 </wgt>
<wgt id='1868'> +1.1879863e-12 </wgt>
<wgt id='1869'> +1.1624175e-12 </wgt>
<wgt id='1870'> +1.1951161e-12 </wgt>
<wgt id='1871'> +1.2026532e-12 </wgt>
<wgt id='1872'> +1.1687655e-12 </wgt>
<wgt id='1873'> +1.2685614e-12 </wgt>
<wgt id='1874'> +1.1973140e-12 </wgt>
<wgt id='1875'> +1.2413811e-12 </wgt>
<wgt id='1876'> +1.2051633e-12 </wgt>
<wgt id='1877'> +1.2143820e-12 </wgt>
<wgt id='1878'> +1.2047746e-12 </wgt>
<wgt id='1879'> +1.1380320e-12 </wgt>
<wgt id='1880'> +1.1885421e-12 </wgt>
<wgt id='1881'> +1.1882346e-12 </wgt>
<wgt id='1882'> +1.2107253e-12 </wgt>
<wgt id='1883'> +1.2609136e-12 </wgt>
<wgt id='1884'> +1.2085523e-12 </wgt>
<wgt id='1885'> +1.1654548e-12 </wgt>
<wgt id='1886'> +1.2022096e-12 </wgt>
<wgt id='1887'> +1.2128107e-12 </wgt>
<wgt id='1888'> +1.1284095e-12 </wgt>
<wgt id='1889'> +1.0993433e-12 </wgt>
<wgt id='1890'> +1.1760240e-12 </wgt>
<wgt id='1891'> +1.1992786e-12 </wgt>
<wgt id='1892'> +1.1145213e-12 </wgt>
<wgt id='1893'> +1.1790468e-12 </wgt>
<wgt id='1894'> +1.2325430e-12 </wgt>
<wgt id='1895'> +1.1791097e-12 </wgt>
<wgt id='1896'> +1.2267384e-12 </wgt>
<wgt id='1897'> +1.2050457e-12 </wgt>
<wgt id='1898'> +1.1753564e-12 </wgt>
<wgt id='1899'> +1.2031924e-12 </wgt>
<wgt id='1900'> +1.2192255e-12 </wgt>
<wgt id='1901'> +1.1796464e-12 </wgt>
<wgt id='1902'> +1.1940871e-12 </wgt>
<wgt id='1903'> +1.1946116e-12 </wgt>
<wgt id='1904'> +1.2014868e-12 </wgt>
<wgt id='1905'> +1.1870853e-12 </wgt>
<wgt id='1906'> +1.2054482e-12 </wgt>
<wgt id='1907'> +1.1956439e-12 </wgt>
<wgt id='1908'> +1.1990243e-12 </wgt>
<wgt id='1909'> +1.1911770e-12 </wgt>
<wgt id='1910'> +1.2069088e-12 </wgt>
<wgt id='1911'> +1.2058697e-12 </wgt>
<wgt id='1912'> +1.1939503e-12 </wgt>
<wgt id='1913'> +1.2198600e-12 </wgt>
<wgt id='1914'> +1.2491731e-12 </wgt>
<wgt id='1915'> +1.2439794e-12 </wgt>
<wgt id='1916'> +1.2069184e-12 </wgt>
<wgt id='1917'> +1.1857225e-12 </wgt>
<wgt id='1918'> +1.2044016e-12 </wgt>
<wgt id='1919'> +1.2377997e-12 </wgt>
</rwgt>
</event>
<event>
 9      1 +1.5538000e-12 8.53844100e+01 7.81860800e-03 1.19307500e-01
        2 -1    0    0  502    0 -0.0000000000e+00 +0.0000000000e+00 +1.3441936700e+03 1.3441936700e+03 0.0000000000e+00 0.0000e+00 1.0000e+00
       21 -1    0    0  501  502 +0.0000000000e+00 -0.0000000000e+00 -1.3559239675e+00 1.3559239675e+00 0.0000000000e+00 0.0000e+00 1.0000e+00
     1023  2    1    2    0    0 +1.9512919149e+01 -3.4269184186e+01 +8.8942800279e+02 8.9042815274e+02 1.4999734844e+01 0.0000e+00 0.0000e+00
  1000023  2    3    3    0    0 +1.0486713557e+01 -1.1358639566e+01 +2.7772878120e+02 2.7821307359e+02 5.4998687635e+00 0.0000e+00 0.0000e+00
        2  1    1    2  501    0 -1.9512919149e+01 +3.4269184186e+01 +4.5340974327e+02 4.5512144125e+02 0.0000000000e+00 0.0000e+00 1.0000e+00
  1000022  1    4    4    0    0 +8.9374339180e+00 -9.4713372997e+00 +2.3303161628e+02 2.3344874842e+02 5.0000000000e+00 0.0000e+00 1.0000e+00
      -11  1    4    4    0    0 +8.1574350376e-01 -8.9163010503e-01 +2.0529278143e+01 2.0564817117e+01 5.1100000000e-04 0.0000e+00 1.0000e+00
       11  1    4    4    0    0 +7.3353613495e-01 -9.9567216111e-01 +2.4167886782e+01 2.4199508055e+01 5.1100000000e-04 0.0000e+00 -1.0000e+00
  1000022  1    3    3    0    0 +9.0262055923e+00 -2.2910544620e+01 +6.1169922159e+02 6.1221507914e+02 5.0000000000e+00 0.0000e+00 1.0000e+00
<mgrwt>
<rscale>  1 0.85384411E+02</rscale>
<asrwt>0</asrwt>
<pdfrwt beam="1">  1       21 0.20860476E-03 0.85384411E+02</pdfrwt>
<pdfrwt beam="2">  1        2 0.20679796E+00 0.85384411E+02</pdfrwt>
<totfact> 0.71884624E+06</totfact>
</mgrwt>
<rwgt>
<wgt id='1001'> +1.5538000e-12 </wgt>
<wgt id='1002'> +1.5540847e-12 </wgt>
<wgt id='1003'> +1.5540442e-12 </wgt>
<wgt id='1004'> +1.5378364e-12 </wgt>
<wgt id='1005'> +1.5538000e-12 </wgt>
<wgt id='1006'> +1.3920590e-12 </wgt>
<wgt id='1007'> +1.3904659e-12 </wgt>
<wgt id='1008'> +1.3908956e-12 </wgt>
<wgt id='1009'> +1.3561241e-12 </wgt>
<wgt id='1010'> +1.3920590e-12 </wgt>
<wgt id='1011'> +1.7597412e-12 </wgt>
<wgt id='1012'> +1.7630898e-12 </wgt>
<wgt id='1013'> +1.7622765e-12 </wgt>
<wgt id='1014'> +1.7783998e-12 </wgt>
<wgt id='1015'> +1.7597412e-12 </wgt>
<wgt id='1016'> +1.7156852e-12 </wgt>
<wgt id='1017'> +1.7210319e-12 </wgt>
<wgt id='1018'> +1.7197093e-12 </wgt>
<wgt id='1019'> +1.7622765e-12 </wgt>
<wgt id='1020'> +1.7156852e-12 </wgt>
<wgt id='1021'> +1.5370930e-12 </wgt>
<wgt id='1022'> +1.5398365e-12 </wgt>
<wgt id='1023'> +1.5391686e-12 </wgt>
<wgt id='1024'> +1.5540442e-12 </wgt>
<wgt id='1025'> +1.5370930e-12 </wgt>
<wgt id='1026'> +1.9430827e-12 </wgt>
<wgt id='1027'> +1.9524894e-12 </wgt>
<wgt id='1028'> +1.9501397e-12 </wgt>
<wgt id='1029'> +2.0379491e-12 </wgt>
<wgt id='1030'> +1.9430827e-12 </wgt>
<wgt id='1031'> +1.3602831e-12 </wgt>
<wgt id='1032'> +1.3546709e-12 </wgt>
<wgt id='1033'> +1.3561241e-12 </wgt>
<wgt id='1034'> +1.2705693e-12 </wgt>
<wgt id='1035'> +1.3602831e-12 </wgt>
<wgt id='1036'> +1.2186860e-12 </wgt>
<wgt id='1037'> +1.2120471e-12 </wgt>
<wgt id='1038'> +1.2137538e-12 </wgt>
<wgt id='1039'> +1.1204376e-12 </wgt>
<wgt id='1040'> +1.2186860e-12 </wgt>
<wgt id='1041'> +1.5405755e-12 </wgt>
<wgt id='1042'> +1.5368574e-12 </wgt>
<wgt id='1043'> +1.5378364e-12 </wgt>
<wgt id='1044'> +1.4693242e-12 </wgt>
<wgt id='1045'> +1.5405755e-12 </wgt>
<wgt id='1046'> +1.5538000e-12 </wgt>
<wgt id='1047'> +1.5456063e-12 </wgt>
<wgt id='1048'> +1.5941402e-12 </wgt>
<wgt id='1049'> +1.5205231e-12 </wgt>
<wgt id='1050'> +1.5337185e-12 </wgt>
<wgt id='1051'> +1.5361392e-12 </wgt>
<wgt id='1052'> +1.5279172e-12 </wgt>
<wgt id='1053'> +1.6079756e-12 </wgt>
<wgt id='1054'> +1.5989173e-12 </wgt>
<wgt id='1055'> +1.5382344e-12 </wgt>
<wgt id='1056'> +1.4471849e-12 </wgt>
<wgt id='1057'> +1.5440702e-12 </wgt>
<wgt id='1058'> +1.5335782e-12 </wgt>
<wgt id='1059'> +1.5490014e-12 </wgt>
<wgt id='1060'> +1.5764517e-12 </wgt>
<wgt id='1061'> +1.5866568e-12 </wgt>
<wgt id='1062'> +1.5342068e-12 </wgt>
<wgt id='1063'> +1.5005303e-12 </wgt>
<wgt id='1064'> +1.5658396e-12 </wgt>
<wgt id='1065'> +1.5773703e-12 </wgt>
<wgt id='1066'> +1.5516803e-12 </wgt>
<wgt id='1067'> +1.5850928e-12 </wgt>
<wgt id='1068'> +1.6099539e-12 </wgt>
<wgt id='1069'> +1.6078406e-12 </wgt>
<wgt id='1070'> +1.5484316e-12 </wgt>
<wgt id='1071'> +1.5751151e-12 </wgt>
<wgt id='1072'> +1.5788610e-12 </wgt>
<wgt id='1073'> +1.5127426e-12 </wgt>
<wgt id='1074'> +1.5675952e-12 </wgt>
<wgt id='1075'> +1.5269684e-12 </wgt>
<wgt id='1076'> +1.5310728e-12 </wgt>
<wgt id='1077'> +1.5580072e-12 </wgt>
<wgt id='1078'> +1.5467314e-12 </wgt>
<wgt id='1079'> +1.5675842e-12 </wgt>
<wgt id='1080'> +1.5357642e-12 </wgt>
<wgt id='1081'> +1.5357938e-12 </wgt>
<wgt id='1082'> +1.5693528e-12 </wgt>
<wgt id='1083'> +1.5417634e-12 </wgt>
<wgt id='1084'> +1.5444082e-12 </wgt>
<wgt id='1085'> +1.5547701e-12 </wgt>
<wgt id='1086'> +1.6014012e-12 </wgt>
<wgt id='1087'> +1.5369348e-12 </wgt>
<wgt id='1088'> +1.5530767e-12 </wgt>
<wgt id='1089'> +1.5196143e-12 </wgt>
<wgt id='1090'> +1.5431360e-12 </wgt>
<wgt id='1091'> +1.5687982e-12 </wgt>
<wgt id='1092'> +1.5407208e-12 </wgt>
<wgt id='1093'> +1.5675525e-12 </wgt>
<wgt id='1094'> +1.5880448e-12 </wgt>
<wgt id='1095'> +1.5785245e-12 </wgt>
<wgt id='1096'> +1.5171462e-12 </wgt>
<wgt id='1097'> +1.5656168e-12 </wgt>
<wgt id='1098'> +1.5939916e-12 </wgt>
<wgt id='1099'> +1.5509720e-12 </wgt>
<wgt id='1100'> +1.5893473e-12 </wgt>
<wgt id='1101'> +1.5713915e-12 </wgt>
<wgt id='1102'> +1.5257752e-12 </wgt>
<wgt id='1103'> +1.5499956e-12 </wgt>
<wgt id='1104'> +1.5669178e-12 </wgt>
<wgt id='1105'> +1.5192073e-12 </wgt>
<wgt id='1106'> +1.5673804e-12 </wgt>
<wgt id='1107'> +1.5684860e-12 </wgt>
<wgt id='1108'> +1.5468380e-12 </wgt>
<wgt id='1109'> +1.5452952e-12 </wgt>
<wgt id='1110'> +1.5678443e-12 </wgt>
<wgt id='1111'> +1.5602003e-12 </wgt>
<wgt id='1112'> +1.5479473e-12 </wgt>
<wgt id='1113'> +1.6052615e-12 </wgt>
<wgt id='1114'> +1.5525803e-12 </wgt>
<wgt id='1115'> +1.5684830e-12 </wgt>
<wgt id='1116'> +1.5997173e-12 </wgt>
<wgt id='1117'> +1.5602317e-12 </wgt>
<wgt id='1118'> +1.5279583e-12 </wgt>
<wgt id='1119'> +1.5430420e-12 </wgt>
<wgt id='1120'> +1.5468746e-12 </wgt>
<wgt id='1121'> +1.5152126e-12 </wgt>
<wgt id='1122'> +1.5316845e-12 </wgt>
<wgt id='1123'> +1.5673703e-12 </wgt>
<wgt id='1124'> +1.5994204e-12 </wgt>
<wgt id='1125'> +1.5172560e-12 </wgt>
<wgt id='1126'> +1.5042517e-12 </wgt>
<wgt id='1127'> +1.5761143e-12 </wgt>
<wgt id='1128'> +1.5342068e-12 </wgt>
<wgt id='1129'> +1.5260071e-12 </wgt>
<wgt id='1130'> +1.5548024e-12 </wgt>
<wgt id='1131'> +1.5926181e-12 </wgt>
<wgt id='1132'> +1.5353537e-12 </wgt>
<wgt id='1133'> +1.5672259e-12 </wgt>
<wgt id='1134'> +1.5194041e-12 </wgt>
<wgt id='1135'> +1.4970663e-12 </wgt>
<wgt id='1136'> +1.5400791e-12 </wgt>
<wgt id='1137'> +1.5684330e-12 </wgt>
<wgt id='1138'> +1.5494103e-12 </wgt>
<wgt id='1139'> +1.5519515e-12 </wgt>
<wgt id='1140'> +1.5522415e-12 </wgt>
<wgt id='1141'> +1.5588356e-12 </wgt>
<wgt id='1142'> +1.6034672e-12 </wgt>
<wgt id='1143'> +1.4986160e-12 </wgt>
<wgt id='1144'> +1.5318345e-12 </wgt>
<wgt id='1145'> +1.5870152e-12 </wgt>
<wgt id='1146'> +1.5736881e-12 </wgt>
<wgt id='1147'> +1.4404821e-12 </wgt>
<wgt id='1148'> +1.4592181e-12 </wgt>
<wgt id='1149'> +1.4009787e-12 </wgt>
<wgt id='1150'> +1.4533189e-12 </wgt>
<wgt id='1151'> +1.7050991e-12 </wgt>
<wgt id='1152'> +2.2833039e-12 </wgt>
<wgt id='1153'> +2.2930916e-12 </wgt>
<wgt id='1154'> +2.2775860e-12 </wgt>
<wgt id='1155'> +2.2798628e-12 </wgt>
<wgt id='1156'> +2.2850825e-12 </wgt>
<wgt id='1157'> +2.2886740e-12 </wgt>
<wgt id='1158'> +2.2760879e-12 </wgt>
<wgt id='1159'> +2.2873550e-12 </wgt>
<wgt id='1160'> +2.2807343e-12 </wgt>
<wgt id='1161'> +2.2775014e-12 </wgt>
<wgt id='1162'> +2.2872892e-12 </wgt>
<wgt id='1163'> +2.2820248e-12 </wgt>
<wgt id='1164'> +2.2846256e-12 </wgt>
<wgt id='1165'> +2.2903081e-12 </wgt>
<wgt id='1166'> +2.2763076e-12 </wgt>
<wgt id='1167'> +2.3109247e-12 </wgt>
<wgt id='1168'> +2.2497631e-12 </wgt>
<wgt id='1169'> +2.2931036e-12 </wgt>
<wgt id='1170'> +2.2759909e-12 </wgt>
<wgt id='1171'> +2.2745180e-12 </wgt>
<wgt id='1172'> +2.2942590e-12 </wgt>
<wgt id='1173'> +2.2586242e-12 </wgt>
<wgt id='1174'> +2.3090694e-12 </wgt>
<wgt id='1175'> +2.2843591e-12 </wgt>
<wgt id='1176'> +2.2823455e-12 </wgt>
<wgt id='1177'> +2.2822041e-12 </wgt>
<wgt id='1178'> +2.2853444e-12 </wgt>
<wgt id='1179'> +2.2818447e-12 </wgt>
<wgt id='1180'> +2.2799131e-12 </wgt>
<wgt id='1181'> +2.2819109e-12 </wgt>
<wgt id='1182'> +2.2840450e-12 </wgt>
<wgt id='1183'> +2.2894095e-12 </wgt>
<wgt id='1184'> +2.2830558e-12 </wgt>
<wgt id='1185'> +2.2775474e-12 </wgt>
<wgt id='1186'> +2.2855887e-12 </wgt>
<wgt id='1187'> +2.2873115e-12 </wgt>
<wgt id='1188'> +2.2819233e-12 </wgt>
<wgt id='1189'> +2.2783649e-12 </wgt>
<wgt id='1190'> +2.2626017e-12 </wgt>
<wgt id='1191'> +2.2837490e-12 </wgt>
<wgt id='1192'> +2.2911494e-12 </wgt>
<wgt id='1193'> +1.4418048e-12 </wgt>
<wgt id='1194'> +1.4289117e-12 </wgt>
<wgt id='1195'> +1.4523926e-12 </wgt>
<wgt id='1196'> +1.4372382e-12 </wgt>
<wgt id='1197'> +1.4468887e-12 </wgt>
<wgt id='1198'> +1.4402148e-12 </wgt>
<wgt id='1199'> +1.4441488e-12 </wgt>
<wgt id='1200'> +1.4401866e-12 </wgt>
<wgt id='1201'> +1.4429229e-12 </wgt>
<wgt id='1202'> +1.4415631e-12 </wgt>
<wgt id='1203'> +1.4420961e-12 </wgt>
<wgt id='1204'> +1.4394970e-12 </wgt>
<wgt id='1205'> +1.4430096e-12 </wgt>
<wgt id='1206'> +1.4455598e-12 </wgt>
<wgt id='1207'> +1.4366523e-12 </wgt>
<wgt id='1208'> +1.4519505e-12 </wgt>
<wgt id='1209'> +1.4381906e-12 </wgt>
<wgt id='1210'> +1.4427281e-12 </wgt>
<wgt id='1211'> +1.4373769e-12 </wgt>
<wgt id='1212'> +1.4411596e-12 </wgt>
<wgt id='1213'> +1.4427757e-12 </wgt>
<wgt id='1214'> +1.4248596e-12 </wgt>
<wgt id='1215'> +1.4671563e-12 </wgt>
<wgt id='1216'> +1.4506021e-12 </wgt>
<wgt id='1217'> +1.4357065e-12 </wgt>
<wgt id='1218'> +1.4449171e-12 </wgt>
<wgt id='1219'> +1.4401075e-12 </wgt>
<wgt id='1220'> +1.4499334e-12 </wgt>
<wgt id='1221'> +1.4393792e-12 </wgt>
<wgt id='1222'> +1.4611807e-12 </wgt>
<wgt id='1223'> +1.4152050e-12 </wgt>
<wgt id='1224'> +1.4439519e-12 </wgt>
<wgt id='1225'> +1.4410116e-12 </wgt>
<wgt id='1226'> +1.4395579e-12 </wgt>
<wgt id='1227'> +1.4433915e-12 </wgt>
<wgt id='1228'> +1.4415271e-12 </wgt>
<wgt id='1229'> +1.4426337e-12 </wgt>
<wgt id='1230'> +1.4435072e-12 </wgt>
<wgt id='1231'> +1.4487074e-12 </wgt>
<wgt id='1232'> +1.4465432e-12 </wgt>
<wgt id='1233'> +1.4406623e-12 </wgt>
<wgt id='1234'> +1.4418048e-12 </wgt>
<wgt id='1235'> +1.4359623e-12 </wgt>
<wgt id='1236'> +1.4382023e-12 </wgt>
<wgt id='1237'> +1.4402365e-12 </wgt>
<wgt id='1238'> +1.4434421e-12 </wgt>
<wgt id='1239'> +1.4447793e-12 </wgt>
<wgt id='1240'> +1.4460064e-12 </wgt>
<wgt id='1241'> +1.3921903e-12 </wgt>
<wgt id='1242'> +1.3792518e-12 </wgt>
<wgt id='1243'> +1.4049630e-12 </wgt>
<wgt id='1244'> +1.4018610e-12 </wgt>
<wgt id='1245'> +1.3850882e-12 </wgt>
<wgt id='1246'> +1.3895242e-12 </wgt>
<wgt id='1247'> +1.3944696e-12 </wgt>
<wgt id='1248'> +1.3922654e-12 </wgt>
<wgt id='1249'> +1.3921291e-12 </wgt>
<wgt id='1250'> +1.3936837e-12 </wgt>
<wgt id='1251'> +1.3911718e-12 </wgt>
<wgt id='1252'> +1.3882807e-12 </wgt>
<wgt id='1253'> +1.3952424e-12 </wgt>
<wgt id='1254'> +1.3888105e-12 </wgt>
<wgt id='1255'> +1.3941525e-12 </wgt>
<wgt id='1256'> +1.3883780e-12 </wgt>
<wgt id='1257'> +1.4018239e-12 </wgt>
<wgt id='1258'> +1.4080444e-12 </wgt>
<wgt id='1259'> +1.3765995e-12 </wgt>
<wgt id='1260'> +1.3962092e-12 </wgt>
<wgt id='1261'> +1.3877906e-12 </wgt>
<wgt id='1262'> +1.3945765e-12 </wgt>
<wgt id='1263'> +1.3912190e-12 </wgt>
<wgt id='1264'> +1.3963305e-12 </wgt>
<wgt id='1265'> +1.3906037e-12 </wgt>
<wgt id='1266'> +1.3717640e-12 </wgt>
<wgt id='1267'> +1.4118497e-12 </wgt>
<wgt id='1268'> +1.3987651e-12 </wgt>
<wgt id='1269'> +1.3870800e-12 </wgt>
<wgt id='1270'> +1.3976160e-12 </wgt>
<wgt id='1271'> +1.3930985e-12 </wgt>
<wgt id='1272'> +1.3943142e-12 </wgt>
<wgt id='1273'> +1.3922209e-12 </wgt>
<wgt id='1274'> +1.3932527e-12 </wgt>
<wgt id='1275'> +1.3902922e-12 </wgt>
<wgt id='1276'> +1.3950612e-12 </wgt>
<wgt id='1277'> +1.3909704e-12 </wgt>
<wgt id='1278'> +1.4016116e-12 </wgt>
<wgt id='1279'> +1.3973836e-12 </wgt>
<wgt id='1280'> +1.3917117e-12 </wgt>
<wgt id='1281'> +1.4002998e-12 </wgt>
<wgt id='1282'> +1.3921903e-12 </wgt>
<wgt id='1283'> +1.3863429e-12 </wgt>
<wgt id='1284'> +1.3887395e-12 </wgt>
<wgt id='1285'> +1.3906480e-12 </wgt>
<wgt id='1286'> +1.3937987e-12 </wgt>
<wgt id='1287'> +1.3949077e-12 </wgt>
<wgt id='1288'> +1.3957489e-12 </wgt>
<wgt id='1289'> +1.4991874e-12 </wgt>
<wgt id='1290'> +1.5030278e-12 </wgt>
<wgt id='1291'> +1.4950367e-12 </wgt>
<wgt id='1292'> +1.4997608e-12 </wgt>
<wgt id='1293'> +1.4987743e-12 </wgt>
<wgt id='1294'> +1.4880515e-12 </wgt>
<wgt id='1295'> +1.5098401e-12 </wgt>
<wgt id='1296'> +1.5088018e-12 </wgt>
<wgt id='1297'> +1.4872479e-12 </wgt>
<wgt id='1298'> +1.5040402e-12 </wgt>
<wgt id='1299'> +1.4929711e-12 </wgt>
<wgt id='1300'> +1.5013074e-12 </wgt>
<wgt id='1301'> +1.4948905e-12 </wgt>
<wgt id='1302'> +1.4955574e-12 </wgt>
<wgt id='1303'> +1.5042028e-12 </wgt>
<wgt id='1304'> +1.4964289e-12 </wgt>
<wgt id='1305'> +1.5010502e-12 </wgt>
<wgt id='1306'> +1.5027634e-12 </wgt>
<wgt id='1307'> +1.4949870e-12 </wgt>
<wgt id='1308'> +1.4942657e-12 </wgt>
<wgt id='1309'> +1.5029326e-12 </wgt>
<wgt id='1310'> +1.5048994e-12 </wgt>
<wgt id='1311'> +1.4933435e-12 </wgt>
<wgt id='1312'> +1.5042585e-12 </wgt>
<wgt id='1313'> +1.4943218e-12 </wgt>
<wgt id='1314'> +1.4821889e-12 </wgt>
<wgt id='1315'> +1.5140209e-12 </wgt>
<wgt id='1316'> +1.5046530e-12 </wgt>
<wgt id='1317'> +1.5013172e-12 </wgt>
<wgt id='1318'> +1.5102737e-12 </wgt>
<wgt id='1319'> +1.4852066e-12 </wgt>
<wgt id='1320'> +1.5181993e-12 </wgt>
<wgt id='1321'> +1.4820687e-12 </wgt>
<wgt id='1322'> +1.4988303e-12 </wgt>
<wgt id='1323'> +1.4994234e-12 </wgt>
<wgt id='1324'> +1.4963344e-12 </wgt>
<wgt id='1325'> +1.5023705e-12 </wgt>
<wgt id='1326'> +1.4988609e-12 </wgt>
<wgt id='1327'> +1.5020098e-12 </wgt>
<wgt id='1328'> +1.4986887e-12 </wgt>
<wgt id='1329'> +1.4989492e-12 </wgt>
<wgt id='1330'> +1.5038524e-12 </wgt>
<wgt id='1331'> +1.4930607e-12 </wgt>
<wgt id='1332'> +1.5089439e-12 </wgt>
<wgt id='1333'> +1.5043607e-12 </wgt>
<wgt id='1334'> +1.4979554e-12 </wgt>
<wgt id='1335'> +1.5025506e-12 </wgt>
<wgt id='1336'> +1.5007564e-12 </wgt>
<wgt id='1337'> +1.5062202e-12 </wgt>
<wgt id='1338'> +1.4997159e-12 </wgt>
<wgt id='1339'> +1.5027194e-12 </wgt>
<wgt id='1340'> +1.4721324e-12 </wgt>
<wgt id='1341'> +1.4759172e-12 </wgt>
<wgt id='1342'> +1.4680882e-12 </wgt>
<wgt id='1343'> +1.4728444e-12 </wgt>
<wgt id='1344'> +1.4716544e-12 </wgt>
<wgt id='1345'> +1.4605185e-12 </wgt>
<wgt id='1346'> +1.4828287e-12 </wgt>
<wgt id='1347'> +1.4822452e-12 </wgt>
<wgt id='1348'> +1.4608356e-12 </wgt>
<wgt id='1349'> +1.4767858e-12 </wgt>
<wgt id='1350'> +1.4674883e-12 </wgt>
<wgt id='1351'> +1.4740878e-12 </wgt>
<wgt id='1352'> +1.4678769e-12 </wgt>
<wgt id='1353'> +1.4676161e-12 </wgt>
<wgt id='1354'> +1.4801776e-12 </wgt>
<wgt id='1355'> +1.4701802e-12 </wgt>
<wgt id='1356'> +1.4732066e-12 </wgt>
<wgt id='1357'> +1.4748542e-12 </wgt>
<wgt id='1358'> +1.4687294e-12 </wgt>
<wgt id='1359'> +1.4666198e-12 </wgt>
<wgt id='1360'> +1.4769159e-12 </wgt>
<wgt id='1361'> +1.4776252e-12 </wgt>
<wgt id='1362'> +1.4651201e-12 </wgt>
<wgt id='1363'> +1.4817300e-12 </wgt>
<wgt id='1364'> +1.4661276e-12 </wgt>
<wgt id='1365'> +1.4790116e-12 </wgt>
<wgt id='1366'> +1.4579754e-12 </wgt>
<wgt id='1367'> +1.4779495e-12 </wgt>
<wgt id='1368'> +1.4728048e-12 </wgt>
<wgt id='1369'> +1.4810311e-12 </wgt>
<wgt id='1370'> +1.4610455e-12 </wgt>
<wgt id='1371'> +1.4874221e-12 </wgt>
<wgt id='1372'> +1.4527957e-12 </wgt>
<wgt id='1373'> +1.4681597e-12 </wgt>
<wgt id='1374'> +1.4753338e-12 </wgt>
<wgt id='1375'> +1.4692058e-12 </wgt>
<wgt id='1376'> +1.4760205e-12 </wgt>
<wgt id='1377'> +1.4723151e-12 </wgt>
<wgt id='1378'> +1.4748165e-12 </wgt>
<wgt id='1379'> +1.4718340e-12 </wgt>
<wgt id='1380'> +1.4717204e-12 </wgt>
<wgt id='1381'> +1.4770690e-12 </wgt>
<wgt id='1382'> +1.4664537e-12 </wgt>
<wgt id='1383'> +1.4794677e-12 </wgt>
<wgt id='1384'> +1.4781789e-12 </wgt>
<wgt id='1385'> +1.4711565e-12 </wgt>
<wgt id='1386'> +1.4744602e-12 </wgt>
<wgt id='1387'> +1.4743520e-12 </wgt>
<wgt id='1388'> +1.4797682e-12 </wgt>
<wgt id='1389'> +1.4724399e-12 </wgt>
<wgt id='1390'> +1.4770530e-12 </wgt>
<wgt id='1391'> +1.4342010e-12 </wgt>
<wgt id='1392'> +1.3964066e-12 </wgt>
<wgt id='1393'> +1.4095720e-12 </wgt>
<wgt id='1394'> +1.4223607e-12 </wgt>
<wgt id='1395'> +1.4471457e-12 </wgt>
<wgt id='1396'> +1.4347907e-12 </wgt>
<wgt id='1397'> +1.4213279e-12 </wgt>
<wgt id='1398'> +1.4228404e-12 </wgt>
<wgt id='1399'> +1.4247701e-12 </wgt>
<wgt id='1400'> +1.4275613e-12 </wgt>
<wgt id='1401'> +1.4310552e-12 </wgt>
<wgt id='1402'> +1.4386766e-12 </wgt>
<wgt id='1403'> +1.4430945e-12 </wgt>
<wgt id='1404'> +1.4477148e-12 </wgt>
<wgt id='1405'> +1.4347907e-12 </wgt>
<wgt id='1406'> +1.4313813e-12 </wgt>
<wgt id='1407'> +1.4331284e-12 </wgt>
<wgt id='1408'> +1.4362600e-12 </wgt>
<wgt id='1409'> +1.4373941e-12 </wgt>
<wgt id='1410'> +1.3649105e-12 </wgt>
<wgt id='1411'> +1.3708204e-12 </wgt>
<wgt id='1412'> +1.3572832e-12 </wgt>
<wgt id='1413'> +1.3598213e-12 </wgt>
<wgt id='1414'> +1.3699281e-12 </wgt>
<wgt id='1415'> +1.3627266e-12 </wgt>
<wgt id='1416'> +1.3657707e-12 </wgt>
<wgt id='1417'> +1.3676260e-12 </wgt>
<wgt id='1418'> +1.3620869e-12 </wgt>
<wgt id='1419'> +1.3657943e-12 </wgt>
<wgt id='1420'> +1.3639958e-12 </wgt>
<wgt id='1421'> +1.3550222e-12 </wgt>
<wgt id='1422'> +1.3690226e-12 </wgt>
<wgt id='1423'> +1.3646175e-12 </wgt>
<wgt id='1424'> +1.3652393e-12 </wgt>
<wgt id='1425'> +1.3569423e-12 </wgt>
<wgt id='1426'> +1.3734684e-12 </wgt>
<wgt id='1427'> +1.3549379e-12 </wgt>
<wgt id='1428'> +1.3699926e-12 </wgt>
<wgt id='1429'> +1.3673439e-12 </wgt>
<wgt id='1430'> +1.3616619e-12 </wgt>
<wgt id='1431'> +1.3644991e-12 </wgt>
<wgt id='1432'> +1.3651151e-12 </wgt>
<wgt id='1433'> +1.3454294e-12 </wgt>
<wgt id='1434'> +1.3813507e-12 </wgt>
<wgt id='1435'> +1.3596705e-12 </wgt>
<wgt id='1436'> +1.3782030e-12 </wgt>
<wgt id='1437'> +1.3692684e-12 </wgt>
<wgt id='1438'> +1.3690283e-12 </wgt>
<wgt id='1439'> +1.3579945e-12 </wgt>
<wgt id='1440'> +1.3780092e-12 </wgt>
<wgt id='1441'> +1.3703711e-12 </wgt>
<wgt id='1442'> +1.3517251e-12 </wgt>
<wgt id='1443'> +1.3611676e-12 </wgt>
<wgt id='1444'> +1.3716575e-12 </wgt>
<wgt id='1445'> +1.3729305e-12 </wgt>
<wgt id='1446'> +1.3607424e-12 </wgt>
<wgt id='1447'> +1.3663181e-12 </wgt>
<wgt id='1448'> +1.3668937e-12 </wgt>
<wgt id='1449'> +1.3650553e-12 </wgt>
<wgt id='1450'> +1.3638597e-12 </wgt>
<wgt id='1451'> +1.3638302e-12 </wgt>
<wgt id='1452'> +1.3677969e-12 </wgt>
<wgt id='1453'> +1.3661036e-12 </wgt>
<wgt id='1454'> +1.3685358e-12 </wgt>
<wgt id='1455'> +1.3740917e-12 </wgt>
<wgt id='1456'> +1.3696504e-12 </wgt>
<wgt id='1457'> +1.3699229e-12 </wgt>
<wgt id='1458'> +1.3640780e-12 </wgt>
<wgt id='1459'> +1.3693955e-12 </wgt>
<wgt id='1460'> +1.3736342e-12 </wgt>
<wgt id='1461'> +1.3649105e-12 </wgt>
<wgt id='1462'> +1.3554797e-12 </wgt>
<wgt id='1463'> +1.3706493e-12 </wgt>
<wgt id='1464'> +1.3633404e-12 </wgt>
<wgt id='1465'> +1.3469169e-12 </wgt>
<wgt id='1466'> +1.3489720e-12 </wgt>
<wgt id='1467'> +1.3518951e-12 </wgt>
<wgt id='1468'> +1.3571358e-12 </wgt>
<wgt id='1469'> +1.3594500e-12 </wgt>
<wgt id='1470'> +1.3676928e-12 </wgt>
<wgt id='1471'> +1.3716148e-12 </wgt>
<wgt id='1472'> +1.3758480e-12 </wgt>
<wgt id='1473'> +1.3633404e-12 </wgt>
<wgt id='1474'> +1.3603482e-12 </wgt>
<wgt id='1475'> +1.3624139e-12 </wgt>
<wgt id='1476'> +1.3643688e-12 </wgt>
<wgt id='1477'> +1.3653066e-12 </wgt>
<wgt id='1478'> +1.4165368e-12 </wgt>
<wgt id='1479'> +1.4171063e-12 </wgt>
<wgt id='1480'> +1.4060219e-12 </wgt>
<wgt id='1481'> +1.4332092e-12 </wgt>
<wgt id='1482'> +1.4199341e-12 </wgt>
<wgt id='1483'> +1.4042176e-12 </wgt>
<wgt id='1484'> +1.4029705e-12 </wgt>
<wgt id='1485'> +1.4288704e-12 </wgt>
<wgt id='1486'> +1.4158015e-12 </wgt>
<wgt id='1487'> +1.4256570e-12 </wgt>
<wgt id='1488'> +1.4141496e-12 </wgt>
<wgt id='1489'> +1.4189089e-12 </wgt>
<wgt id='1490'> +1.4142009e-12 </wgt>
<wgt id='1491'> +1.4224549e-12 </wgt>
<wgt id='1492'> +1.4163186e-12 </wgt>
<wgt id='1493'> +1.3989833e-12 </wgt>
<wgt id='1494'> +1.4131071e-12 </wgt>
<wgt id='1495'> +1.4106139e-12 </wgt>
<wgt id='1496'> +1.4171885e-12 </wgt>
<wgt id='1497'> +1.4161726e-12 </wgt>
<wgt id='1498'> +1.4167008e-12 </wgt>
<wgt id='1499'> +1.4195343e-12 </wgt>
<wgt id='1500'> +1.4192811e-12 </wgt>
<wgt id='1501'> +1.4182491e-12 </wgt>
<wgt id='1502'> +1.4143005e-12 </wgt>
<wgt id='1503'> +1.4210983e-12 </wgt>
<wgt id='1504'> +1.4120987e-12 </wgt>
<wgt id='1505'> +1.4218195e-12 </wgt>
<wgt id='1506'> +1.4191882e-12 </wgt>
<wgt id='1507'> +1.4164845e-12 </wgt>
<wgt id='1508'> +1.4194058e-12 </wgt>
<wgt id='1509'> +1.3874071e-12 </wgt>
<wgt id='1510'> +1.3902876e-12 </wgt>
<wgt id='1511'> +1.3753006e-12 </wgt>
<wgt id='1512'> +1.3789343e-12 </wgt>
<wgt id='1513'> +1.3841582e-12 </wgt>
<wgt id='1514'> +1.3913150e-12 </wgt>
<wgt id='1515'> +1.3925000e-12 </wgt>
<wgt id='1516'> +1.3903694e-12 </wgt>
<wgt id='1517'> +1.3898118e-12 </wgt>
<wgt id='1518'> +1.3853167e-12 </wgt>
<wgt id='1519'> +1.3895520e-12 </wgt>
<wgt id='1520'> +1.3891963e-12 </wgt>
<wgt id='1521'> +1.3863971e-12 </wgt>
<wgt id='1522'> +1.3902593e-12 </wgt>
<wgt id='1523'> +1.3905877e-12 </wgt>
<wgt id='1524'> +1.3854836e-12 </wgt>
<wgt id='1525'> +1.3862643e-12 </wgt>
<wgt id='1526'> +1.3894101e-12 </wgt>
<wgt id='1527'> +1.3880210e-12 </wgt>
<wgt id='1528'> +1.3886877e-12 </wgt>
<wgt id='1529'> +1.3882813e-12 </wgt>
<wgt id='1530'> +1.3872318e-12 </wgt>
<wgt id='1531'> +1.3899274e-12 </wgt>
<wgt id='1532'> +1.3843030e-12 </wgt>
<wgt id='1533'> +1.3873945e-12 </wgt>
<wgt id='1534'> +1.3889131e-12 </wgt>
<wgt id='1535'> +1.3842942e-12 </wgt>
<wgt id='1536'> +1.3916837e-12 </wgt>
<wgt id='1537'> +1.3905035e-12 </wgt>
<wgt id='1538'> +1.3726893e-12 </wgt>
<wgt id='1539'> +1.3838034e-12 </wgt>
<wgt id='1540'> +1.3862526e-12 </wgt>
<wgt id='1541'> +1.3838210e-12 </wgt>
<wgt id='1542'> +1.3850890e-12 </wgt>
<wgt id='1543'> +1.3887897e-12 </wgt>
<wgt id='1544'> +1.3852771e-12 </wgt>
<wgt id='1545'> +1.3860518e-12 </wgt>
<wgt id='1546'> +1.3888122e-12 </wgt>
<wgt id='1547'> +1.3861712e-12 </wgt>
<wgt id='1548'> +1.3876853e-12 </wgt>
<wgt id='1549'> +1.3861579e-12 </wgt>
<wgt id='1550'> +1.3873216e-12 </wgt>
<wgt id='1551'> +1.3871324e-12 </wgt>
<wgt id='1552'> +1.3893394e-12 </wgt>
<wgt id='1553'> +1.3868526e-12 </wgt>
<wgt id='1554'> +1.3868145e-12 </wgt>
<wgt id='1555'> +1.3882518e-12 </wgt>
<wgt id='1556'> +1.3891973e-12 </wgt>
<wgt id='1557'> +1.3883234e-12 </wgt>
<wgt id='1558'> +1.3882304e-12 </wgt>
<wgt id='1559'> +1.3879151e-12 </wgt>
<wgt id='1560'> +1.3896950e-12 </wgt>
<wgt id='1561'> +1.3884209e-12 </wgt>
<wgt id='1562'> +1.3884290e-12 </wgt>
<wgt id='1563'> +1.3890852e-12 </wgt>
<wgt id='1564'> +1.3869243e-12 </wgt>
<wgt id='1565'> +1.3863373e-12 </wgt>
<wgt id='1566'> +1.3869081e-12 </wgt>
<wgt id='1567'> +1.3851626e-12 </wgt>
<wgt id='1568'> +1.3879144e-12 </wgt>
<wgt id='1569'> +1.3884924e-12 </wgt>
<wgt id='1570'> +1.3880319e-12 </wgt>
<wgt id='1571'> +1.3871571e-12 </wgt>
<wgt id='1572'> +1.3865366e-12 </wgt>
<wgt id='1573'> +1.3850584e-12 </wgt>
<wgt id='1574'> +1.3872618e-12 </wgt>
<wgt id='1575'> +1.3884916e-12 </wgt>
<wgt id='1576'> +1.3890181e-12 </wgt>
<wgt id='1577'> +1.3902314e-12 </wgt>
<wgt id='1578'> +1.3869657e-12 </wgt>
<wgt id='1579'> +1.3873488e-12 </wgt>
<wgt id='1580'> +1.3874312e-12 </wgt>
<wgt id='1581'> +1.3874351e-12 </wgt>
<wgt id='1582'> +1.3860999e-12 </wgt>
<wgt id='1583'> +1.3873148e-12 </wgt>
<wgt id='1584'> +1.3859741e-12 </wgt>
<wgt id='1585'> +1.3866990e-12 </wgt>
<wgt id='1586'> +1.3885550e-12 </wgt>
<wgt id='1587'> +1.3882922e-12 </wgt>
<wgt id='1588'> +1.3882804e-12 </wgt>
<wgt id='1589'> +1.3872566e-12 </wgt>
<wgt id='1590'> +1.3886821e-12 </wgt>
<wgt id='1591'> +1.3886778e-12 </wgt>
<wgt id='1592'> +1.3884652e-12 </wgt>
<wgt id='1593'> +1.3868428e-12 </wgt>
<wgt id='1594'> +1.3876453e-12 </wgt>
<wgt id='1595'> +1.3864902e-12 </wgt>
<wgt id='1596'> +1.3873681e-12 </wgt>
<wgt id='1597'> +1.3869225e-12 </wgt>
<wgt id='1598'> +1.3877048e-12 </wgt>
<wgt id='1599'> +1.3871418e-12 </wgt>
<wgt id='1600'> +1.3872893e-12 </wgt>
<wgt id='1601'> +1.3876483e-12 </wgt>
<wgt id='1602'> +1.3866516e-12 </wgt>
<wgt id='1603'> +1.3868016e-12 </wgt>
<wgt id='1604'> +1.3869537e-12 </wgt>
<wgt id='1605'> +1.3867999e-12 </wgt>
<wgt id='1606'> +1.3876184e-12 </wgt>
<wgt id='1607'> +1.3869659e-12 </wgt>
<wgt id='1608'> +1.3871318e-12 </wgt>
<wgt id='1609'> +1.3867569e-12 </wgt>
<wgt id='1610'> +1.3710902e-12 </wgt>
<wgt id='1611'> +1.4024662e-12 </wgt>
<wgt id='1612'> +1.5369847e-12 </wgt>
<wgt id='1613'> +1.5032482e-12 </wgt>
<wgt id='1614'> +1.4790758e-12 </wgt>
<wgt id='1615'> +1.5198709e-12 </wgt>
<wgt id='1616'> +1.4776144e-12 </wgt>
<wgt id='1617'> +1.5398797e-12 </wgt>
<wgt id='1618'> +1.5195289e-12 </wgt>
<wgt id='1619'> +1.4906399e-12 </wgt>
<wgt id='1620'> +1.5010152e-12 </wgt>
<wgt id='1621'> +1.5627933e-12 </wgt>
<wgt id='1622'> +1.5543531e-12 </wgt>
<wgt id='1623'> +1.5567766e-12 </wgt>
<wgt id='1624'> +1.5612924e-12 </wgt>
<wgt id='1625'> +1.5044107e-12 </wgt>
<wgt id='1626'> +1.5297470e-12 </wgt>
<wgt id='1627'> +1.5413697e-12 </wgt>
<wgt id='1628'> +1.4456051e-12 </wgt>
<wgt id='1629'> +1.5717047e-12 </wgt>
<wgt id='1630'> +1.5100793e-12 </wgt>
<wgt id='1631'> +1.5286921e-12 </wgt>
<wgt id='1632'> +1.4855707e-12 </wgt>
<wgt id='1633'> +1.5081307e-12 </wgt>
<wgt id='1634'> +1.5419002e-12 </wgt>
<wgt id='1635'> +1.5576139e-12 </wgt>
<wgt id='1636'> +1.5184646e-12 </wgt>
<wgt id='1637'> +1.5610915e-12 </wgt>
<wgt id='1638'> +1.5421311e-12 </wgt>
<wgt id='1639'> +1.5420723e-12 </wgt>
<wgt id='1640'> +1.5223834e-12 </wgt>
<wgt id='1641'> +1.5539809e-12 </wgt>
<wgt id='1642'> +1.4840066e-12 </wgt>
<wgt id='1643'> +1.5240442e-12 </wgt>
<wgt id='1644'> +1.5748296e-12 </wgt>
<wgt id='1645'> +1.5232772e-12 </wgt>
<wgt id='1646'> +1.5711150e-12 </wgt>
<wgt id='1647'> +1.5706848e-12 </wgt>
<wgt id='1648'> +1.5353208e-12 </wgt>
<wgt id='1649'> +1.5512554e-12 </wgt>
<wgt id='1650'> +1.5206654e-12 </wgt>
<wgt id='1651'> +1.5612659e-12 </wgt>
<wgt id='1652'> +1.5424425e-12 </wgt>
<wgt id='1653'> +1.5090775e-12 </wgt>
<wgt id='1654'> +1.5364423e-12 </wgt>
<wgt id='1655'> +1.5572383e-12 </wgt>
<wgt id='1656'> +1.5407160e-12 </wgt>
<wgt id='1657'> +1.5398628e-12 </wgt>
<wgt id='1658'> +1.5375879e-12 </wgt>
<wgt id='1659'> +1.5612924e-12 </wgt>
<wgt id='1660'> +1.5386603e-12 </wgt>
<wgt id='1661'> +1.5762801e-12 </wgt>
<wgt id='1662'> +1.5861651e-12 </wgt>
<wgt id='1663'> +1.5642744e-12 </wgt>
<wgt id='1664'> +1.5366225e-12 </wgt>
<wgt id='1665'> +1.5057864e-12 </wgt>
<wgt id='1666'> +1.5519444e-12 </wgt>
<wgt id='1667'> +1.5550398e-12 </wgt>
<wgt id='1668'> +1.5272143e-12 </wgt>
<wgt id='1669'> +1.5585963e-12 </wgt>
<wgt id='1670'> +1.5345529e-12 </wgt>
<wgt id='1671'> +1.5091921e-12 </wgt>
<wgt id='1672'> +1.5640151e-12 </wgt>
<wgt id='1673'> +1.5477058e-12 </wgt>
<wgt id='1674'> +1.5221516e-12 </wgt>
<wgt id='1675'> +1.5508113e-12 </wgt>
<wgt id='1676'> +1.5233630e-12 </wgt>
<wgt id='1677'> +1.5483549e-12 </wgt>
<wgt id='1678'> +1.5326487e-12 </wgt>
<wgt id='1679'> +1.5529012e-12 </wgt>
<wgt id='1680'> +1.5519690e-12 </wgt>
<wgt id='1681'> +1.5705770e-12 </wgt>
<wgt id='1682'> +1.5397867e-12 </wgt>
<wgt id='1683'> +1.5538654e-12 </wgt>
<wgt id='1684'> +1.5855884e-12 </wgt>
<wgt id='1685'> +1.5254909e-12 </wgt>
<wgt id='1686'> +1.5476967e-12 </wgt>
<wgt id='1687'> +1.5623992e-12 </wgt>
<wgt id='1688'> +1.4980914e-12 </wgt>
<wgt id='1689'> +1.5772989e-12 </wgt>
<wgt id='1690'> +1.5519092e-12 </wgt>
<wgt id='1691'> +1.4762314e-12 </wgt>
<wgt id='1692'> +1.4834519e-12 </wgt>
<wgt id='1693'> +1.5450544e-12 </wgt>
<wgt id='1694'> +1.5334795e-12 </wgt>
<wgt id='1695'> +1.5420455e-12 </wgt>
<wgt id='1696'> +1.5434486e-12 </wgt>
<wgt id='1697'> +1.5241469e-12 </wgt>
<wgt id='1698'> +1.5312073e-12 </wgt>
<wgt id='1699'> +1.5324647e-12 </wgt>
<wgt id='1700'> +1.5182474e-12 </wgt>
<wgt id='1701'> +1.5827153e-12 </wgt>
<wgt id='1702'> +1.5009446e-12 </wgt>
<wgt id='1703'> +1.4997815e-12 </wgt>
<wgt id='1704'> +1.5146627e-12 </wgt>
<wgt id='1705'> +1.5031135e-12 </wgt>
<wgt id='1706'> +1.5567801e-12 </wgt>
<wgt id='1707'> +1.5406374e-12 </wgt>
<wgt id='1708'> +1.5884685e-12 </wgt>
<wgt id='1709'> +1.5801114e-12 </wgt>
<wgt id='1710'> +1.5362293e-12 </wgt>
<wgt id='1711'> +1.5360065e-12 </wgt>
<wgt id='1712'> +1.5997001e-12 </wgt>
<wgt id='1713'> +1.3929975e-12 </wgt>
<wgt id='1714'> +1.3787106e-12 </wgt>
<wgt id='1715'> +1.3521533e-12 </wgt>
<wgt id='1716'> +1.4288297e-12 </wgt>
<wgt id='1717'> +1.4155338e-12 </wgt>
<wgt id='1718'> +1.4345950e-12 </wgt>
<wgt id='1719'> +1.4081663e-12 </wgt>
<wgt id='1720'> +1.3644621e-12 </wgt>
<wgt id='1721'> +1.3706081e-12 </wgt>
<wgt id='1722'> +1.3870591e-12 </wgt>
<wgt id='1723'> +1.4207860e-12 </wgt>
<wgt id='1724'> +1.4152532e-12 </wgt>
<wgt id='1725'> +1.4035740e-12 </wgt>
<wgt id='1726'> +1.3956343e-12 </wgt>
<wgt id='1727'> +1.4348092e-12 </wgt>
<wgt id='1728'> +1.3890027e-12 </wgt>
<wgt id='1729'> +1.3373189e-12 </wgt>
<wgt id='1730'> +1.3665779e-12 </wgt>
<wgt id='1731'> +1.3287543e-12 </wgt>
<wgt id='1732'> +1.3957422e-12 </wgt>
<wgt id='1733'> +1.3533026e-12 </wgt>
<wgt id='1734'> +1.4484109e-12 </wgt>
<wgt id='1735'> +1.3751060e-12 </wgt>
<wgt id='1736'> +1.4289658e-12 </wgt>
<wgt id='1737'> +1.4363468e-12 </wgt>
<wgt id='1738'> +1.3886710e-12 </wgt>
<wgt id='1739'> +1.4075112e-12 </wgt>
<wgt id='1740'> +1.3190248e-12 </wgt>
<wgt id='1741'> +1.4450821e-12 </wgt>
<wgt id='1742'> +1.3832616e-12 </wgt>
<wgt id='1743'> +1.3752945e-12 </wgt>
<wgt id='1744'> +1.4132225e-12 </wgt>
<wgt id='1745'> +1.4300800e-12 </wgt>
<wgt id='1746'> +1.3919843e-12 </wgt>
<wgt id='1747'> +1.4361673e-12 </wgt>
<wgt id='1748'> +1.3986993e-12 </wgt>
<wgt id='1749'> +1.3779465e-12 </wgt>
<wgt id='1750'> +1.3637311e-12 </wgt>
<wgt id='1751'> +1.3793171e-12 </wgt>
<wgt id='1752'> +1.3762752e-12 </wgt>
<wgt id='1753'> +1.4103570e-12 </wgt>
<wgt id='1754'> +1.4128799e-12 </wgt>
<wgt id='1755'> +1.3902716e-12 </wgt>
<wgt id='1756'> +1.4170077e-12 </wgt>
<wgt id='1757'> +1.4138579e-12 </wgt>
<wgt id='1758'> +1.4273679e-12 </wgt>
<wgt id='1759'> +1.4034772e-12 </wgt>
<wgt id='1760'> +1.3786111e-12 </wgt>
<wgt id='1761'> +1.3752811e-12 </wgt>
<wgt id='1762'> +1.3893490e-12 </wgt>
<wgt id='1763'> +1.4119331e-12 </wgt>
<wgt id='1764'> +1.4372533e-12 </wgt>
<wgt id='1765'> +1.3856096e-12 </wgt>
<wgt id='1766'> +1.4332047e-12 </wgt>
<wgt id='1767'> +1.3768264e-12 </wgt>
<wgt id='1768'> +1.4017776e-12 </wgt>
<wgt id='1769'> +1.3745205e-12 </wgt>
<wgt id='1770'> +1.3831437e-12 </wgt>
<wgt id='1771'> +1.4379917e-12 </wgt>
<wgt id='1772'> +1.3732581e-12 </wgt>
<wgt id='1773'> +1.3917992e-12 </wgt>
<wgt id='1774'> +1.3877245e-12 </wgt>
<wgt id='1775'> +1.3910002e-12 </wgt>
<wgt id='1776'> +1.4491261e-12 </wgt>
<wgt id='1777'> +1.3313254e-12 </wgt>
<wgt id='1778'> +1.4077750e-12 </wgt>
<wgt id='1779'> +1.3835311e-12 </wgt>
<wgt id='1780'> +1.4120235e-12 </wgt>
<wgt id='1781'> +1.4045419e-12 </wgt>
<wgt id='1782'> +1.3766155e-12 </wgt>
<wgt id='1783'> +1.3888046e-12 </wgt>
<wgt id='1784'> +1.3894428e-12 </wgt>
<wgt id='1785'> +1.4121720e-12 </wgt>
<wgt id='1786'> +1.3832650e-12 </wgt>
<wgt id='1787'> +1.4704413e-12 </wgt>
<wgt id='1788'> +1.3826736e-12 </wgt>
<wgt id='1789'> +1.4712400e-12 </wgt>
<wgt id='1790'> +1.3899757e-12 </wgt>
<wgt id='1791'> +1.3809137e-12 </wgt>
<wgt id='1792'> +1.3903266e-12 </wgt>
<wgt id='1793'> +1.3709188e-12 </wgt>
<wgt id='1794'> +1.4187420e-12 </wgt>
<wgt id='1795'> +1.4038149e-12 </wgt>
<wgt id='1796'> +1.3508114e-12 </wgt>
<wgt id='1797'> +1.3903308e-12 </wgt>
<wgt id='1798'> +1.3823065e-12 </wgt>
<wgt id='1799'> +1.3727289e-12 </wgt>
<wgt id='1800'> +1.4037207e-12 </wgt>
<wgt id='1801'> +1.3931019e-12 </wgt>
<wgt id='1802'> +1.3471686e-12 </wgt>
<wgt id='1803'> +1.3972593e-12 </wgt>
<wgt id='1804'> +1.3976187e-12 </wgt>
<wgt id='1805'> +1.3757290e-12 </wgt>
<wgt id='1806'> +1.3610535e-12 </wgt>
<wgt id='1807'> +1.3760645e-12 </wgt>
<wgt id='1808'> +1.3548052e-12 </wgt>
<wgt id='1809'> +1.3721323e-12 </wgt>
<wgt id='1810'> +1.3628891e-12 </wgt>
<wgt id='1811'> +1.4100077e-12 </wgt>
<wgt id='1812'> +1.3765647e-12 </wgt>
<wgt id='1813'> +1.3058181e-12 </wgt>
<wgt id='1814'> +1.7747492e-12 </wgt>
<wgt id='1815'> +2.1149281e-12 </wgt>
<wgt id='1816'> +1.3929975e-12 </wgt>
<wgt id='1817'> +1.3787106e-12 </wgt>
<wgt id='1818'> +1.3521533e-12 </wgt>
<wgt id='1819'> +1.4288297e-12 </wgt>
<wgt id='1820'> +1.4155338e-12 </wgt>
<wgt id='1821'> +1.4345950e-12 </wgt>
<wgt id='1822'> +1.4081663e-12 </wgt>
<wgt id='1823'> +1.3644621e-12 </wgt>
<wgt id='1824'> +1.3706081e-12 </wgt>
<wgt id='1825'> +1.3870591e-12 </wgt>
<wgt id='1826'> +1.4207860e-12 </wgt>
<wgt id='1827'> +1.4152532e-12 </wgt>
<wgt id='1828'> +1.4035740e-12 </wgt>
<wgt id='1829'> +1.3956343e-12 </wgt>
<wgt id='1830'> +1.4348092e-12 </wgt>
<wgt id='1831'> +1.3890027e-12 </wgt>
<wgt id='1832'> +1.3373189e-12 </wgt>
<wgt id='1833'> +1.3665779e-12 </wgt>
<wgt id='1834'> +1.3287543e-12 </wgt>
<wgt id='1835'> +1.3957422e-12 </wgt>
<wgt id='1836'> +1.3533026e-12 </wgt>
<wgt id='1837'> +1.4484109e-12 </wgt>
<wgt id='1838'> +1.3751060e-12 </wgt>
<wgt id='1839'> +1.4289658e-12 </wgt>
<wgt id='1840'> +1.4363468e-12 </wgt>
<wgt id='1841'> +1.3886710e-12 </wgt>
<wgt id='1842'> +1.4075112e-12 </wgt>
<wgt id='1843'> +1.3190248e-12 </wgt>
<wgt id='1844'> +1.4450821e-12 </wgt>
<wgt id='1845'> +1.3832616e-12 </wgt>
<wgt id='1846'> +1.3752945e-12 </wgt>
<wgt id='1847'> +1.4132225e-12 </wgt>
<wgt id='1848'> +1.4300800e-12 </wgt>
<wgt id='1849'> +1.3919843e-12 </wgt>
<wgt id='1850'> +1.4361673e-12 </wgt>
<wgt id='1851'> +1.3986993e-12 </wgt>
<wgt id='1852'> +1.3779465e-12 </wgt>
<wgt id='1853'> +1.3637311e-12 </wgt>
<wgt id='1854'> +1.3793171e-12 </wgt>
<wgt id='1855'> +1.3762752e-12 </wgt>
<wgt id='1856'> +1.4103570e-12 </wgt>
<wgt id='1857'> +1.4128799e-12 </wgt>
<wgt id='1858'> +1.3902716e-12 </wgt>
<wgt id='1859'> +1.4170077e-12 </wgt>
<wgt id='1860'> +1.4138579e-12 </wgt>
<wgt id='1861'> +1.4273679e-12 </wgt>
<wgt id='1862'> +1.4034772e-12 </wgt>
<wgt id='1863'> +1.3786111e-12 </wgt>
<wgt id='1864'> +1.3752811e-12 </wgt>
<wgt id='1865'> +1.3893490e-12 </wgt>
<wgt id='1866'> +1.4119331e-12 </wgt>
<wgt id='1867'> +1.4372533e-12 </wgt>
<wgt id='1868'> +1.3856096e-12 </wgt>
<wgt id='1869'> +1.4332047e-12 </wgt>
<wgt id='1870'> +1.3768264e-12 </wgt>
<wgt id='1871'> +1.4017776e-12 </wgt>
<wgt id='1872'> +1.3745205e-12 </wgt>
<wgt id='1873'> +1.3831437e-12 </wgt>
<wgt id='1874'> +1.4379917e-12 </wgt>
<wgt id='1875'> +1.3732581e-12 </wgt>
<wgt id='1876'> +1.3917992e-12 </wgt>
<wgt id='1877'> +1.3877245e-12 </wgt>
<wgt id='1878'> +1.3910002e-12 </wgt>
<wgt id='1879'> +1.4491261e-12 </wgt>
<wgt id='1880'> +1.3313254e-12 </wgt>
<wgt id='1881'> +1.4077750e-12 </wgt>
<wgt id='1882'> +1.3835311e-12 </wgt>
<wgt id='1883'> +1.4120235e-12 </wgt>
<wgt id='1884'> +1.4045419e-12 </wgt>
<wgt id='1885'> +1.3766155e-12 </wgt>
<wgt id='1886'> +1.3888046e-12 </wgt>
<wgt id='1887'> +1.3894428e-12 </wgt>
<wgt id='1888'> +1.4121720e-12 </wgt>
<wgt id='1889'> +1.3832650e-12 </wgt>
<wgt id='1890'> +1.4704413e-12 </wgt>
<wgt id='1891'> +1.3826736e-12 </wgt>
<wgt id='1892'> +1.4712400e-12 </wgt>
<wgt id='1893'> +1.3899757e-12 </wgt>
<wgt id='1894'> +1.3809137e-12 </wgt>
<wgt id='1895'> +1.3903266e-12 </wgt>
<wgt id='1896'> +1.3709188e-12 </wgt>
<wgt id='1897'> +1.4187420e-12 </wgt>
<wgt id='1898'> +1.4038149e-12 </wgt>
<wgt id='1899'> +1.3508114e-12 </wgt>
<wgt id='1900'> +1.3903308e-12 </wgt>
<wgt id='1901'> +1.3823065e-12 </wgt>
<wgt id='1902'> +1.3727289e-12 </wgt>
<wgt id='1903'> +1.4037207e-12 </wgt>
<wgt id='1904'> +1.3931019e-12 </wgt>
<wgt id='1905'> +1.3471686e-12 </wgt>
<wgt id='1906'> +1.3972593e-12 </wgt>
<wgt id='1907'> +1.3976187e-12 </wgt>
<wgt id='1908'> +1.3757290e-12 </wgt>
<wgt id='1909'> +1.3610535e-12 </wgt>
<wgt id='1910'> +1.3760645e-12 </wgt>
<wgt id='1911'> +1.3548052e-12 </wgt>
<wgt id='1912'> +1.3721323e-12 </wgt>
<wgt id='1913'> +1.3628891e-12 </wgt>
<wgt id='1914'> +1.4100077e-12 </wgt>
<wgt id='1915'> +1.3765647e-12 </wgt>
<wgt id='1916'> +1.3058181e-12 </wgt>
<wgt id='1917'> +1.3857156e-12 </wgt>
<wgt id='1918'> +1.4055913e-12 </wgt>
<wgt id='1919'> +1.3684333e-12 </wgt>
</rwgt>
</event>
<event>
 9      1 +1.5538000e-12 2.67909300e+01 7.81860800e-03 1.48446200e-01
       21 -1    0    0  501  502 +0.0000000000e+00 +0.0000000000e+00 +8.3408423490e-01 8.3408423490e-01 0.0000000000e+00 0.0000e+00 -1.0000e+00
        2 -1    0    0  502    0 -0.0000000000e+00 -0.0000000000e+00 -1.4517795943e+03 1.4517795943e+03 0.0000000000e+00 0.0000e+00 1.0000e+00
     1023  2    1    2    0    0 +2.2072949854e+01 +2.3509821475e+00 -2.4440422079e+02 2.4586821036e+02 1.5000383124e+01 0.0000e+00 0.0000e+00
  1000023  2    3    3    0    0 +9.5773412302e+00 +5.3287319469e+00 -1.4417520634e+02 1.4469577060e+02 5.5004598310e+00 0.0000e+00 0.0000e+00
        2  1    1    2  501    0 -2.2072949854e+01 -2.3509821475e+00 -1.2065412892e+03 1.2067454681e+03 0.0000000000e+00 0.0000e+00 1.0000e+00
  1000022  1    4    4    0    0 +9.1149106300e+00 +4.6020696262e+00 -1.3408967054e+02 1.3457080065e+02 5.0000000000e+00 0.0000e+00 1.0000e+00
      -11  1    4    4    0    0 +6.6722306148e-02 +1.0886475811e-01 -7.6301299176e-01 7.7362296270e-01 5.1100000000e-04 0.0000e+00 1.0000e+00
       11  1    4    4    0    0 +3.9570829404e-01 +6.1779756265e-01 -9.3225228039e+00 9.3513469925e+00 5.1100000000e-04 0.0000e+00 -1.0000e+00
  1000022  1    3    3    0    0 +1.2495608624e+01 -2.9777497994e+00 -1.0022901445e+02 1.0117243976e+02 5.0000000000e+00 0.0000e+00 -1.0000e+00
<mgrwt>
<rscale>  1 0.26790926E+02</rscale>
<asrwt>0</asrwt>
<pdfrwt beam="1">  1       21 0.12832145E-03 0.26790926E+02</pdfrwt>
<pdfrwt beam="2">  1        2 0.22334931E+00 0.26790926E+02</pdfrwt>
<totfact> 0.95473555E+06</totfact>
</mgrwt>
<rwgt>
<wgt id='1001'> +1.5538000e-12 </wgt>
<wgt id='1002'> +1.6113325e-12 </wgt>
<wgt id='1003'> +1.6143624e-12 </wgt>
<wgt id='1004'> +1.5379315e-12 </wgt>
<wgt id='1005'> +1.6323680e-12 </wgt>
<wgt id='1006'> +1.3552805e-12 </wgt>
<wgt id='1007'> +1.4253460e-12 </wgt>
<wgt id='1008'> +1.4294736e-12 </wgt>
<wgt id='1009'> +1.3372446e-12 </wgt>
<wgt id='1010'> +1.4567358e-12 </wgt>
<wgt id='1011'> +1.8239466e-12 </wgt>
<wgt id='1012'> +1.8556322e-12 </wgt>
<wgt id='1013'> +1.8566377e-12 </wgt>
<wgt id='1014'> +1.8131828e-12 </wgt>
<wgt id='1015'> +1.8581371e-12 </wgt>
<wgt id='1016'> +1.8583440e-12 </wgt>
<wgt id='1017'> +1.8521883e-12 </wgt>
<wgt id='1018'> +1.8507750e-12 </wgt>
<wgt id='1019'> +1.8566377e-12 </wgt>
<wgt id='1020'> +1.8355550e-12 </wgt>
<wgt id='1021'> +1.6209148e-12 </wgt>
<wgt id='1022'> +1.6384012e-12 </wgt>
<wgt id='1023'> +1.6388105e-12 </wgt>
<wgt id='1024'> +1.6143624e-12 </wgt>
<wgt id='1025'> +1.6380611e-12 </wgt>
<wgt id='1026'> +2.1814392e-12 </wgt>
<wgt id='1027'> +2.1330049e-12 </wgt>
<wgt id='1028'> +2.1285298e-12 </wgt>
<wgt id='1029'> +2.1889294e-12 </wgt>
<wgt id='1030'> +2.0894263e-12 </wgt>
<wgt id='1031'> +1.2017485e-12 </wgt>
<wgt id='1032'> +1.3293189e-12 </wgt>
<wgt id='1033'> +1.3372446e-12 </wgt>
<wgt id='1034'> +1.1699923e-12 </wgt>
<wgt id='1035'> +1.3939161e-12 </wgt>
<wgt id='1036'> +1.0482084e-12 </wgt>
<wgt id='1037'> +1.1758835e-12 </wgt>
<wgt id='1038'> +1.1840935e-12 </wgt>
<wgt id='1039'> +1.0173183e-12 </wgt>
<wgt id='1040'> +1.2439397e-12 </wgt>
<wgt id='1041'> +1.4106867e-12 </wgt>
<wgt id='1042'> +1.5308615e-12 </wgt>
<wgt id='1043'> +1.5379315e-12 </wgt>
<wgt id='1044'> +1.3793916e-12 </wgt>
<wgt id='1045'> +1.5867053e-12 </wgt>
<wgt id='1046'> +1.5538000e-12 </wgt>
<wgt id='1047'> +1.5466521e-12 </wgt>
<wgt id='1048'> +1.6163845e-12 </wgt>
<wgt id='1049'> +1.5038708e-12 </wgt>
<wgt id='1050'> +1.5382031e-12 </wgt>
<wgt id='1051'> +1.5417047e-12 </wgt>
<wgt id='1052'> +1.5302717e-12 </wgt>
<wgt id='1053'> +1.6287294e-12 </wgt>
<wgt id='1054'> +1.6038795e-12 </wgt>
<wgt id='1055'> +1.5326385e-12 </wgt>
<wgt id='1056'> +1.4370742e-12 </wgt>
<wgt id='1057'> +1.5347941e-12 </wgt>
<wgt id='1058'> +1.5235763e-12 </wgt>
<wgt id='1059'> +1.5535267e-12 </wgt>
<wgt id='1060'> +1.5669740e-12 </wgt>
<wgt id='1061'> +1.5974007e-12 </wgt>
<wgt id='1062'> +1.5201750e-12 </wgt>
<wgt id='1063'> +1.4646392e-12 </wgt>
<wgt id='1064'> +1.5550954e-12 </wgt>
<wgt id='1065'> +1.5871757e-12 </wgt>
<wgt id='1066'> +1.5558388e-12 </wgt>
<wgt id='1067'> +1.6068435e-12 </wgt>
<wgt id='1068'> +1.6227382e-12 </wgt>
<wgt id='1069'> +1.6317236e-12 </wgt>
<wgt id='1070'> +1.5539372e-12 </wgt>
<wgt id='1071'> +1.5622164e-12 </wgt>
<wgt id='1072'> +1.5542897e-12 </wgt>
<wgt id='1073'> +1.5262088e-12 </wgt>
<wgt id='1074'> +1.5689845e-12 </wgt>
<wgt id='1075'> +1.5212605e-12 </wgt>
<wgt id='1076'> +1.5365827e-12 </wgt>
<wgt id='1077'> +1.5719873e-12 </wgt>
<wgt id='1078'> +1.5434714e-12 </wgt>
<wgt id='1079'> +1.5770671e-12 </wgt>
<wgt id='1080'> +1.5404982e-12 </wgt>
<wgt id='1081'> +1.5259956e-12 </wgt>
<wgt id='1082'> +1.5660050e-12 </wgt>
<wgt id='1083'> +1.5352943e-12 </wgt>
<wgt id='1084'> +1.5528261e-12 </wgt>
<wgt id='1085'> +1.5755766e-12 </wgt>
<wgt id='1086'> +1.6331021e-12 </wgt>
<wgt id='1087'> +1.5211241e-12 </wgt>
<wgt id='1088'> +1.5444724e-12 </wgt>
<wgt id='1089'> +1.5147446e-12 </wgt>
<wgt id='1090'> +1.5642928e-12 </wgt>
<wgt id='1091'> +1.5624208e-12 </wgt>
<wgt id='1092'> +1.5275213e-12 </wgt>
<wgt id='1093'> +1.5882223e-12 </wgt>
<wgt id='1094'> +1.5799181e-12 </wgt>
<wgt id='1095'> +1.5974167e-12 </wgt>
<wgt id='1096'> +1.4972785e-12 </wgt>
<wgt id='1097'> +1.5835180e-12 </wgt>
<wgt id='1098'> +1.6013414e-12 </wgt>
<wgt id='1099'> +1.5520151e-12 </wgt>
<wgt id='1100'> +1.6079793e-12 </wgt>
<wgt id='1101'> +1.5621446e-12 </wgt>
<wgt id='1102'> +1.4873960e-12 </wgt>
<wgt id='1103'> +1.5059249e-12 </wgt>
<wgt id='1104'> +1.5480621e-12 </wgt>
<wgt id='1105'> +1.4809979e-12 </wgt>
<wgt id='1106'> +1.5397698e-12 </wgt>
<wgt id='1107'> +1.6126999e-12 </wgt>
<wgt id='1108'> +1.5368476e-12 </wgt>
<wgt id='1109'> +1.5585604e-12 </wgt>
<wgt id='1110'> +1.5473890e-12 </wgt>
<wgt id='1111'> +1.5664381e-12 </wgt>
<wgt id='1112'> +1.5561957e-12 </wgt>
<wgt id='1113'> +1.6522982e-12 </wgt>
<wgt id='1114'> +1.5682255e-12 </wgt>
<wgt id='1115'> +1.5856712e-12 </wgt>
<wgt id='1116'> +1.6590386e-12 </wgt>
<wgt id='1117'> +1.5630525e-12 </wgt>
<wgt id='1118'> +1.5350128e-12 </wgt>
<wgt id='1119'> +1.5222656e-12 </wgt>
<wgt id='1120'> +1.5526007e-12 </wgt>
<wgt id='1121'> +1.4952353e-12 </wgt>
<wgt id='1122'> +1.5184575e-12 </wgt>
<wgt id='1123'> +1.5967401e-12 </wgt>
<wgt id='1124'> +1.6216932e-12 </wgt>
<wgt id='1125'> +1.4757597e-12 </wgt>
<wgt id='1126'> +1.5061588e-12 </wgt>
<wgt id='1127'> +1.5736018e-12 </wgt>
<wgt id='1128'> +1.5201750e-12 </wgt>
<wgt id='1129'> +1.5419189e-12 </wgt>
<wgt id='1130'> +1.5455562e-12 </wgt>
<wgt id='1131'> +1.6047877e-12 </wgt>
<wgt id='1132'> +1.5405137e-12 </wgt>
<wgt id='1133'> +1.5592005e-12 </wgt>
<wgt id='1134'> +1.5336208e-12 </wgt>
<wgt id='1135'> +1.5015010e-12 </wgt>
<wgt id='1136'> +1.5239380e-12 </wgt>
<wgt id='1137'> +1.5644640e-12 </wgt>
<wgt id='1138'> +1.5458715e-12 </wgt>
<wgt id='1139'> +1.5496636e-12 </wgt>
<wgt id='1140'> +1.5668106e-12 </wgt>
<wgt id='1141'> +1.5443982e-12 </wgt>
<wgt id='1142'> +1.6250597e-12 </wgt>
<wgt id='1143'> +1.4520894e-12 </wgt>
<wgt id='1144'> +1.5286869e-12 </wgt>
<wgt id='1145'> +1.5546466e-12 </wgt>
<wgt id='1146'> +1.5560502e-12 </wgt>
<wgt id='1147'> +1.4558681e-12 </wgt>
<wgt id='1148'> +1.4803255e-12 </wgt>
<wgt id='1149'> +1.3911742e-12 </wgt>
<wgt id='1150'> +1.4725445e-12 </wgt>
<wgt id='1151'> +1.8724228e-12 </wgt>
<wgt id='1152'> +2.6779317e-12 </wgt>
<wgt id='1153'> +2.6889869e-12 </wgt>
<wgt id='1154'> +2.6714057e-12 </wgt>
<wgt id='1155'> +2.6740770e-12 </wgt>
<wgt id='1156'> +2.6799304e-12 </wgt>
<wgt id='1157'> +2.6846768e-12 </wgt>
<wgt id='1158'> +2.6688550e-12 </wgt>
<wgt id='1159'> +2.6829435e-12 </wgt>
<wgt id='1160'> +2.6746955e-12 </wgt>
<wgt id='1161'> +2.6702130e-12 </wgt>
<wgt id='1162'> +2.6832218e-12 </wgt>
<wgt id='1163'> +2.6758617e-12 </wgt>
<wgt id='1164'> +2.6799504e-12 </wgt>
<wgt id='1165'> +2.6823945e-12 </wgt>
<wgt id='1166'> +2.6735465e-12 </wgt>
<wgt id='1167'> +2.7207378e-12 </wgt>
<wgt id='1168'> +2.6278234e-12 </wgt>
<wgt id='1169'> +2.6920044e-12 </wgt>
<wgt id='1170'> +2.6674573e-12 </wgt>
<wgt id='1171'> +2.6664166e-12 </wgt>
<wgt id='1172'> +2.6921982e-12 </wgt>
<wgt id='1173'> +2.6451197e-12 </wgt>
<wgt id='1174'> +2.7122423e-12 </wgt>
<wgt id='1175'> +2.6841154e-12 </wgt>
<wgt id='1176'> +2.6730480e-12 </wgt>
<wgt id='1177'> +2.6769501e-12 </wgt>
<wgt id='1178'> +2.6795419e-12 </wgt>
<wgt id='1179'> +2.6680515e-12 </wgt>
<wgt id='1180'> +2.6826664e-12 </wgt>
<wgt id='1181'> +2.6792053e-12 </wgt>
<wgt id='1182'> +2.6763521e-12 </wgt>
<wgt id='1183'> +2.6856101e-12 </wgt>
<wgt id='1184'> +2.6776109e-12 </wgt>
<wgt id='1185'> +2.6692620e-12 </wgt>
<wgt id='1186'> +2.6815814e-12 </wgt>
<wgt id='1187'> +2.6827286e-12 </wgt>
<wgt id='1188'> +2.6762556e-12 </wgt>
<wgt id='1189'> +2.6687821e-12 </wgt>
<wgt id='1190'> +2.6462546e-12 </wgt>
<wgt id='1191'> +2.6786097e-12 </wgt>
<wgt id='1192'> +2.6989846e-12 </wgt>
<wgt id='1193'> +1.4547060e-12 </wgt>
<wgt id='1194'> +1.4289860e-12 </wgt>
<wgt id='1195'> +1.4758381e-12 </wgt>
<wgt id='1196'> +1.4480993e-12 </wgt>
<wgt id='1197'> +1.4621000e-12 </wgt>
<wgt id='1198'> +1.4534281e-12 </wgt>
<wgt id='1199'> +1.4567052e-12 </wgt>
<wgt id='1200'> +1.4526886e-12 </wgt>
<wgt id='1201'> +1.4561084e-12 </wgt>
<wgt id='1202'> +1.4542260e-12 </wgt>
<wgt id='1203'> +1.4553968e-12 </wgt>
<wgt id='1204'> +1.4507404e-12 </wgt>
<wgt id='1205'> +1.4568965e-12 </wgt>
<wgt id='1206'> +1.4582607e-12 </wgt>
<wgt id='1207'> +1.4497924e-12 </wgt>
<wgt id='1208'> +1.4660320e-12 </wgt>
<wgt id='1209'> +1.4507611e-12 </wgt>
<wgt id='1210'> +1.4682629e-12 </wgt>
<wgt id='1211'> +1.4448940e-12 </wgt>
<wgt id='1212'> +1.4513812e-12 </wgt>
<wgt id='1213'> +1.4589362e-12 </wgt>
<wgt id='1214'> +1.4437410e-12 </wgt>
<wgt id='1215'> +1.4653625e-12 </wgt>
<wgt id='1216'> +1.4614030e-12 </wgt>
<wgt id='1217'> +1.4494149e-12 </wgt>
<wgt id='1218'> +1.4600967e-12 </wgt>
<wgt id='1219'> +1.4518176e-12 </wgt>
<wgt id='1220'> +1.4661196e-12 </wgt>
<wgt id='1221'> +1.4519323e-12 </wgt>
<wgt id='1222'> +1.4827420e-12 </wgt>
<wgt id='1223'> +1.4173887e-12 </wgt>
<wgt id='1224'> +1.4570949e-12 </wgt>
<wgt id='1225'> +1.4538396e-12 </wgt>
<wgt id='1226'> +1.4508980e-12 </wgt>
<wgt id='1227'> +1.4574119e-12 </wgt>
<wgt id='1228'> +1.4564925e-12 </wgt>
<wgt id='1229'> +1.4541564e-12 </wgt>
<wgt id='1230'> +1.4576552e-12 </wgt>
<wgt id='1231'> +1.4711557e-12 </wgt>
<wgt id='1232'> +1.4606216e-12 </wgt>
<wgt id='1233'> +1.4532882e-12 </wgt>
<wgt id='1234'> +1.4547060e-12 </wgt>
<wgt id='1235'> +1.4483239e-12 </wgt>
<wgt id='1236'> +1.4507691e-12 </wgt>
<wgt id='1237'> +1.4530254e-12 </wgt>
<wgt id='1238'> +1.4565683e-12 </wgt>
<wgt id='1239'> +1.4580846e-12 </wgt>
<wgt id='1240'> +1.4595117e-12 </wgt>
<wgt id='1241'> +1.3601294e-12 </wgt>
<wgt id='1242'> +1.3378863e-12 </wgt>
<wgt id='1243'> +1.3821112e-12 </wgt>
<wgt id='1244'> +1.3727062e-12 </wgt>
<wgt id='1245'> +1.3508913e-12 </wgt>
<wgt id='1246'> +1.3571179e-12 </wgt>
<wgt id='1247'> +1.3627200e-12 </wgt>
<wgt id='1248'> +1.3602427e-12 </wgt>
<wgt id='1249'> +1.3600425e-12 </wgt>
<wgt id='1250'> +1.3611280e-12 </wgt>
<wgt id='1251'> +1.3594664e-12 </wgt>
<wgt id='1252'> +1.3566855e-12 </wgt>
<wgt id='1253'> +1.3628171e-12 </wgt>
<wgt id='1254'> +1.3571967e-12 </wgt>
<wgt id='1255'> +1.3617744e-12 </wgt>
<wgt id='1256'> +1.3556534e-12 </wgt>
<wgt id='1257'> +1.3715419e-12 </wgt>
<wgt id='1258'> +1.3637497e-12 </wgt>
<wgt id='1259'> +1.3528094e-12 </wgt>
<wgt id='1260'> +1.3624382e-12 </wgt>
<wgt id='1261'> +1.3579632e-12 </wgt>
<wgt id='1262'> +1.3595278e-12 </wgt>
<wgt id='1263'> +1.3603897e-12 </wgt>
<wgt id='1264'> +1.3660725e-12 </wgt>
<wgt id='1265'> +1.3579423e-12 </wgt>
<wgt id='1266'> +1.3336945e-12 </wgt>
<wgt id='1267'> +1.3858714e-12 </wgt>
<wgt id='1268'> +1.3701995e-12 </wgt>
<wgt id='1269'> +1.3512826e-12 </wgt>
<wgt id='1270'> +1.3807674e-12 </wgt>
<wgt id='1271'> +1.3648757e-12 </wgt>
<wgt id='1272'> +1.3658985e-12 </wgt>
<wgt id='1273'> +1.3601393e-12 </wgt>
<wgt id='1274'> +1.3627755e-12 </wgt>
<wgt id='1275'> +1.3566602e-12 </wgt>
<wgt id='1276'> +1.3601646e-12 </wgt>
<wgt id='1277'> +1.3614138e-12 </wgt>
<wgt id='1278'> +1.3830519e-12 </wgt>
<wgt id='1279'> +1.3640407e-12 </wgt>
<wgt id='1280'> +1.3600542e-12 </wgt>
<wgt id='1281'> +1.3693861e-12 </wgt>
<wgt id='1282'> +1.3601294e-12 </wgt>
<wgt id='1283'> +1.3547687e-12 </wgt>
<wgt id='1284'> +1.3569949e-12 </wgt>
<wgt id='1285'> +1.3588021e-12 </wgt>
<wgt id='1286'> +1.3616237e-12 </wgt>
<wgt id='1287'> +1.3625726e-12 </wgt>
<wgt id='1288'> +1.3632610e-12 </wgt>
<wgt id='1289'> +1.5086371e-12 </wgt>
<wgt id='1290'> +1.5152699e-12 </wgt>
<wgt id='1291'> +1.5015253e-12 </wgt>
<wgt id='1292'> +1.5099891e-12 </wgt>
<wgt id='1293'> +1.5076643e-12 </wgt>
<wgt id='1294'> +1.4853662e-12 </wgt>
<wgt id='1295'> +1.5309607e-12 </wgt>
<wgt id='1296'> +1.5244411e-12 </wgt>
<wgt id='1297'> +1.4890564e-12 </wgt>
<wgt id='1298'> +1.5190870e-12 </wgt>
<wgt id='1299'> +1.4954212e-12 </wgt>
<wgt id='1300'> +1.5118914e-12 </wgt>
<wgt id='1301'> +1.5020224e-12 </wgt>
<wgt id='1302'> +1.5044198e-12 </wgt>
<wgt id='1303'> +1.5144995e-12 </wgt>
<wgt id='1304'> +1.5064772e-12 </wgt>
<wgt id='1305'> +1.5100677e-12 </wgt>
<wgt id='1306'> +1.5127573e-12 </wgt>
<wgt id='1307'> +1.5038184e-12 </wgt>
<wgt id='1308'> +1.5024906e-12 </wgt>
<wgt id='1309'> +1.5133245e-12 </wgt>
<wgt id='1310'> +1.5164896e-12 </wgt>
<wgt id='1311'> +1.5006768e-12 </wgt>
<wgt id='1312'> +1.5161294e-12 </wgt>
<wgt id='1313'> +1.5020247e-12 </wgt>
<wgt id='1314'> +1.4918133e-12 </wgt>
<wgt id='1315'> +1.5259630e-12 </wgt>
<wgt id='1316'> +1.5157441e-12 </wgt>
<wgt id='1317'> +1.5125200e-12 </wgt>
<wgt id='1318'> +1.5168112e-12 </wgt>
<wgt id='1319'> +1.4967820e-12 </wgt>
<wgt id='1320'> +1.5283782e-12 </wgt>
<wgt id='1321'> +1.4896360e-12 </wgt>
<wgt id='1322'> +1.5076805e-12 </wgt>
<wgt id='1323'> +1.5095182e-12 </wgt>
<wgt id='1324'> +1.5063103e-12 </wgt>
<wgt id='1325'> +1.5128129e-12 </wgt>
<wgt id='1326'> +1.5080855e-12 </wgt>
<wgt id='1327'> +1.5128110e-12 </wgt>
<wgt id='1328'> +1.5082692e-12 </wgt>
<wgt id='1329'> +1.5081977e-12 </wgt>
<wgt id='1330'> +1.5148622e-12 </wgt>
<wgt id='1331'> +1.5009528e-12 </wgt>
<wgt id='1332'> +1.5200544e-12 </wgt>
<wgt id='1333'> +1.5205521e-12 </wgt>
<wgt id='1334'> +1.5078901e-12 </wgt>
<wgt id='1335'> +1.5111587e-12 </wgt>
<wgt id='1336'> +1.5143052e-12 </wgt>
<wgt id='1337'> +1.5205971e-12 </wgt>
<wgt id='1338'> +1.5097465e-12 </wgt>
<wgt id='1339'> +1.5123576e-12 </wgt>
<wgt id='1340'> +1.4771882e-12 </wgt>
<wgt id='1341'> +1.4835404e-12 </wgt>
<wgt id='1342'> +1.4703538e-12 </wgt>
<wgt id='1343'> +1.4786995e-12 </wgt>
<wgt id='1344'> +1.4761486e-12 </wgt>
<wgt id='1345'> +1.4530845e-12 </wgt>
<wgt id='1346'> +1.4993962e-12 </wgt>
<wgt id='1347'> +1.4937945e-12 </wgt>
<wgt id='1348'> +1.4586373e-12 </wgt>
<wgt id='1349'> +1.4873401e-12 </wgt>
<wgt id='1350'> +1.4671508e-12 </wgt>
<wgt id='1351'> +1.4804340e-12 </wgt>
<wgt id='1352'> +1.4700652e-12 </wgt>
<wgt id='1353'> +1.4719733e-12 </wgt>
<wgt id='1354'> +1.4864678e-12 </wgt>
<wgt id='1355'> +1.4761073e-12 </wgt>
<wgt id='1356'> +1.4777490e-12 </wgt>
<wgt id='1357'> +1.4802879e-12 </wgt>
<wgt id='1358'> +1.4733170e-12 </wgt>
<wgt id='1359'> +1.4705167e-12 </wgt>
<wgt id='1360'> +1.4829907e-12 </wgt>
<wgt id='1361'> +1.4846133e-12 </wgt>
<wgt id='1362'> +1.4677681e-12 </wgt>
<wgt id='1363'> +1.4901205e-12 </wgt>
<wgt id='1364'> +1.4694658e-12 </wgt>
<wgt id='1365'> +1.4849217e-12 </wgt>
<wgt id='1366'> +1.4646510e-12 </wgt>
<wgt id='1367'> +1.4844772e-12 </wgt>
<wgt id='1368'> +1.4789665e-12 </wgt>
<wgt id='1369'> +1.4833615e-12 </wgt>
<wgt id='1370'> +1.4686286e-12 </wgt>
<wgt id='1371'> +1.4929101e-12 </wgt>
<wgt id='1372'> +1.4564109e-12 </wgt>
<wgt id='1373'> +1.4719979e-12 </wgt>
<wgt id='1374'> +1.4812675e-12 </wgt>
<wgt id='1375'> +1.4747229e-12 </wgt>
<wgt id='1376'> +1.4818845e-12 </wgt>
<wgt id='1377'> +1.4773028e-12 </wgt>
<wgt id='1378'> +1.4810997e-12 </wgt>
<wgt id='1379'> +1.4770740e-12 </wgt>
<wgt id='1380'> +1.4764434e-12 </wgt>
<wgt id='1381'> +1.4833718e-12 </wgt>
<wgt id='1382'> +1.4703668e-12 </wgt>
<wgt id='1383'> +1.4853966e-12 </wgt>
<wgt id='1384'> +1.4897594e-12 </wgt>
<wgt id='1385'> +1.4766545e-12 </wgt>
<wgt id='1386'> +1.4786174e-12 </wgt>
<wgt id='1387'> +1.4841645e-12 </wgt>
<wgt id='1388'> +1.4893098e-12 </wgt>
<wgt id='1389'> +1.4787181e-12 </wgt>
<wgt id='1390'> +1.4823654e-12 </wgt>
<wgt id='1391'> +1.4590179e-12 </wgt>
<wgt id='1392'> +1.4141915e-12 </wgt>
<wgt id='1393'> +1.4297944e-12 </wgt>
<wgt id='1394'> +1.4448491e-12 </wgt>
<wgt id='1395'> +1.4743958e-12 </wgt>
<wgt id='1396'> +1.4596169e-12 </wgt>
<wgt id='1397'> +1.4361267e-12 </wgt>
<wgt id='1398'> +1.4391122e-12 </wgt>
<wgt id='1399'> +1.4429375e-12 </wgt>
<wgt id='1400'> +1.4477607e-12 </wgt>
<wgt id='1401'> +1.4535247e-12 </wgt>
<wgt id='1402'> +1.4654552e-12 </wgt>
<wgt id='1403'> +1.4718509e-12 </wgt>
<wgt id='1404'> +1.4783791e-12 </wgt>
<wgt id='1405'> +1.4596169e-12 </wgt>
<wgt id='1406'> +1.4558951e-12 </wgt>
<wgt id='1407'> +1.4577829e-12 </wgt>
<wgt id='1408'> +1.4612206e-12 </wgt>
<wgt id='1409'> +1.4623465e-12 </wgt>
<wgt id='1410'> +1.3369102e-12 </wgt>
<wgt id='1411'> +1.3484812e-12 </wgt>
<wgt id='1412'> +1.3220470e-12 </wgt>
<wgt id='1413'> +1.3222282e-12 </wgt>
<wgt id='1414'> +1.3514968e-12 </wgt>
<wgt id='1415'> +1.3311613e-12 </wgt>
<wgt id='1416'> +1.3392034e-12 </wgt>
<wgt id='1417'> +1.3411662e-12 </wgt>
<wgt id='1418'> +1.3325496e-12 </wgt>
<wgt id='1419'> +1.3393943e-12 </wgt>
<wgt id='1420'> +1.3344726e-12 </wgt>
<wgt id='1421'> +1.3216920e-12 </wgt>
<wgt id='1422'> +1.3432771e-12 </wgt>
<wgt id='1423'> +1.3363951e-12 </wgt>
<wgt id='1424'> +1.3375631e-12 </wgt>
<wgt id='1425'> +1.3276769e-12 </wgt>
<wgt id='1426'> +1.3468382e-12 </wgt>
<wgt id='1427'> +1.3228577e-12 </wgt>
<wgt id='1428'> +1.3443721e-12 </wgt>
<wgt id='1429'> +1.3388936e-12 </wgt>
<wgt id='1430'> +1.3344695e-12 </wgt>
<wgt id='1431'> +1.3367389e-12 </wgt>
<wgt id='1432'> +1.3370522e-12 </wgt>
<wgt id='1433'> +1.3123221e-12 </wgt>
<wgt id='1434'> +1.3580534e-12 </wgt>
<wgt id='1435'> +1.3306774e-12 </wgt>
<wgt id='1436'> +1.3535171e-12 </wgt>
<wgt id='1437'> +1.3434020e-12 </wgt>
<wgt id='1438'> +1.3441026e-12 </wgt>
<wgt id='1439'> +1.3302763e-12 </wgt>
<wgt id='1440'> +1.3454160e-12 </wgt>
<wgt id='1441'> +1.3437664e-12 </wgt>
<wgt id='1442'> +1.3212137e-12 </wgt>
<wgt id='1443'> +1.3336117e-12 </wgt>
<wgt id='1444'> +1.3444904e-12 </wgt>
<wgt id='1445'> +1.3476957e-12 </wgt>
<wgt id='1446'> +1.3328944e-12 </wgt>
<wgt id='1447'> +1.3389431e-12 </wgt>
<wgt id='1448'> +1.3408062e-12 </wgt>
<wgt id='1449'> +1.3371368e-12 </wgt>
<wgt id='1450'> +1.3356166e-12 </wgt>
<wgt id='1451'> +1.3357483e-12 </wgt>
<wgt id='1452'> +1.3448386e-12 </wgt>
<wgt id='1453'> +1.3379360e-12 </wgt>
<wgt id='1454'> +1.3419566e-12 </wgt>
<wgt id='1455'> +1.3519166e-12 </wgt>
<wgt id='1456'> +1.3507309e-12 </wgt>
<wgt id='1457'> +1.3458715e-12 </wgt>
<wgt id='1458'> +1.3360222e-12 </wgt>
<wgt id='1459'> +1.3453038e-12 </wgt>
<wgt id='1460'> +1.3553164e-12 </wgt>
<wgt id='1461'> +1.3369102e-12 </wgt>
<wgt id='1462'> +1.3274497e-12 </wgt>
<wgt id='1463'> +1.3409123e-12 </wgt>
<wgt id='1464'> +1.3343487e-12 </wgt>
<wgt id='1465'> +1.3071895e-12 </wgt>
<wgt id='1466'> +1.3109565e-12 </wgt>
<wgt id='1467'> +1.3158354e-12 </wgt>
<wgt id='1468'> +1.3247436e-12 </wgt>
<wgt id='1469'> +1.3283681e-12 </wgt>
<wgt id='1470'> +1.3407023e-12 </wgt>
<wgt id='1471'> +1.3467545e-12 </wgt>
<wgt id='1472'> +1.3528968e-12 </wgt>
<wgt id='1473'> +1.3343487e-12 </wgt>
<wgt id='1474'> +1.3318778e-12 </wgt>
<wgt id='1475'> +1.3341327e-12 </wgt>
<wgt id='1476'> +1.3348949e-12 </wgt>
<wgt id='1477'> +1.3356118e-12 </wgt>
<wgt id='1478'> +1.4291393e-12 </wgt>
<wgt id='1479'> +1.4299610e-12 </wgt>
<wgt id='1480'> +1.4170890e-12 </wgt>
<wgt id='1481'> +1.4682687e-12 </wgt>
<wgt id='1482'> +1.4329923e-12 </wgt>
<wgt id='1483'> +1.4160349e-12 </wgt>
<wgt id='1484'> +1.4153080e-12 </wgt>
<wgt id='1485'> +1.4433917e-12 </wgt>
<wgt id='1486'> +1.4283167e-12 </wgt>
<wgt id='1487'> +1.4399230e-12 </wgt>
<wgt id='1488'> +1.4266428e-12 </wgt>
<wgt id='1489'> +1.4292618e-12 </wgt>
<wgt id='1490'> +1.4261446e-12 </wgt>
<wgt id='1491'> +1.4363873e-12 </wgt>
<wgt id='1492'> +1.4287780e-12 </wgt>
<wgt id='1493'> +1.4081907e-12 </wgt>
<wgt id='1494'> +1.4235288e-12 </wgt>
<wgt id='1495'> +1.4229195e-12 </wgt>
<wgt id='1496'> +1.4296784e-12 </wgt>
<wgt id='1497'> +1.4283391e-12 </wgt>
<wgt id='1498'> +1.4295341e-12 </wgt>
<wgt id='1499'> +1.4322888e-12 </wgt>
<wgt id='1500'> +1.4317409e-12 </wgt>
<wgt id='1501'> +1.4310070e-12 </wgt>
<wgt id='1502'> +1.4269296e-12 </wgt>
<wgt id='1503'> +1.4344319e-12 </wgt>
<wgt id='1504'> +1.4238251e-12 </wgt>
<wgt id='1505'> +1.4350244e-12 </wgt>
<wgt id='1506'> +1.4320385e-12 </wgt>
<wgt id='1507'> +1.4293775e-12 </wgt>
<wgt id='1508'> +1.4320490e-12 </wgt>
<wgt id='1509'> +1.3414098e-12 </wgt>
<wgt id='1510'> +1.3492072e-12 </wgt>
<wgt id='1511'> +1.3134819e-12 </wgt>
<wgt id='1512'> +1.3280959e-12 </wgt>
<wgt id='1513'> +1.3385664e-12 </wgt>
<wgt id='1514'> +1.3450043e-12 </wgt>
<wgt id='1515'> +1.3451945e-12 </wgt>
<wgt id='1516'> +1.3421019e-12 </wgt>
<wgt id='1517'> +1.3418084e-12 </wgt>
<wgt id='1518'> +1.3401061e-12 </wgt>
<wgt id='1519'> +1.3443459e-12 </wgt>
<wgt id='1520'> +1.3435702e-12 </wgt>
<wgt id='1521'> +1.3398488e-12 </wgt>
<wgt id='1522'> +1.3432622e-12 </wgt>
<wgt id='1523'> +1.3442862e-12 </wgt>
<wgt id='1524'> +1.3393555e-12 </wgt>
<wgt id='1525'> +1.3409885e-12 </wgt>
<wgt id='1526'> +1.3433524e-12 </wgt>
<wgt id='1527'> +1.3419001e-12 </wgt>
<wgt id='1528'> +1.3427242e-12 </wgt>
<wgt id='1529'> +1.3422247e-12 </wgt>
<wgt id='1530'> +1.3411185e-12 </wgt>
<wgt id='1531'> +1.3433049e-12 </wgt>
<wgt id='1532'> +1.3380680e-12 </wgt>
<wgt id='1533'> +1.3412950e-12 </wgt>
<wgt id='1534'> +1.3431105e-12 </wgt>
<wgt id='1535'> +1.3384825e-12 </wgt>
<wgt id='1536'> +1.3454950e-12 </wgt>
<wgt id='1537'> +1.3444524e-12 </wgt>
<wgt id='1538'> +1.3270282e-12 </wgt>
<wgt id='1539'> +1.3378866e-12 </wgt>
<wgt id='1540'> +1.3400684e-12 </wgt>
<wgt id='1541'> +1.3380861e-12 </wgt>
<wgt id='1542'> +1.3390637e-12 </wgt>
<wgt id='1543'> +1.3430649e-12 </wgt>
<wgt id='1544'> +1.3393888e-12 </wgt>
<wgt id='1545'> +1.3401361e-12 </wgt>
<wgt id='1546'> +1.3426736e-12 </wgt>
<wgt id='1547'> +1.3402167e-12 </wgt>
<wgt id='1548'> +1.3416844e-12 </wgt>
<wgt id='1549'> +1.3400361e-12 </wgt>
<wgt id='1550'> +1.3412444e-12 </wgt>
<wgt id='1551'> +1.3412331e-12 </wgt>
<wgt id='1552'> +1.3432624e-12 </wgt>
<wgt id='1553'> +1.3407804e-12 </wgt>
<wgt id='1554'> +1.3407875e-12 </wgt>
<wgt id='1555'> +1.3421240e-12 </wgt>
<wgt id='1556'> +1.3430090e-12 </wgt>
<wgt id='1557'> +1.3425050e-12 </wgt>
<wgt id='1558'> +1.3423594e-12 </wgt>
<wgt id='1559'> +1.3419138e-12 </wgt>
<wgt id='1560'> +1.3436680e-12 </wgt>
<wgt id='1561'> +1.3425572e-12 </wgt>
<wgt id='1562'> +1.3423581e-12 </wgt>
<wgt id='1563'> +1.3430625e-12 </wgt>
<wgt id='1564'> +1.3410218e-12 </wgt>
<wgt id='1565'> +1.3402709e-12 </wgt>
<wgt id='1566'> +1.3408387e-12 </wgt>
<wgt id='1567'> +1.3389304e-12 </wgt>
<wgt id='1568'> +1.3418058e-12 </wgt>
<wgt id='1569'> +1.3422473e-12 </wgt>
<wgt id='1570'> +1.3419327e-12 </wgt>
<wgt id='1571'> +1.3411468e-12 </wgt>
<wgt id='1572'> +1.3405517e-12 </wgt>
<wgt id='1573'> +1.3388913e-12 </wgt>
<wgt id='1574'> +1.3411690e-12 </wgt>
<wgt id='1575'> +1.3425317e-12 </wgt>
<wgt id='1576'> +1.3430209e-12 </wgt>
<wgt id='1577'> +1.3442185e-12 </wgt>
<wgt id='1578'> +1.3409912e-12 </wgt>
<wgt id='1579'> +1.3415173e-12 </wgt>
<wgt id='1580'> +1.3413967e-12 </wgt>
<wgt id='1581'> +1.3415056e-12 </wgt>
<wgt id='1582'> +1.3399655e-12 </wgt>
<wgt id='1583'> +1.3414595e-12 </wgt>
<wgt id='1584'> +1.3400062e-12 </wgt>
<wgt id='1585'> +1.3407072e-12 </wgt>
<wgt id='1586'> +1.3427365e-12 </wgt>
<wgt id='1587'> +1.3421318e-12 </wgt>
<wgt id='1588'> +1.3425743e-12 </wgt>
<wgt id='1589'> +1.3410483e-12 </wgt>
<wgt id='1590'> +1.3427568e-12 </wgt>
<wgt id='1591'> +1.3427653e-12 </wgt>
<wgt id='1592'> +1.3423843e-12 </wgt>
<wgt id='1593'> +1.3407963e-12 </wgt>
<wgt id='1594'> +1.3416633e-12 </wgt>
<wgt id='1595'> +1.3406014e-12 </wgt>
<wgt id='1596'> +1.3413062e-12 </wgt>
<wgt id='1597'> +1.3411813e-12 </wgt>
<wgt id='1598'> +1.3415282e-12 </wgt>
<wgt id='1599'> +1.3409800e-12 </wgt>
<wgt id='1600'> +1.3414927e-12 </wgt>
<wgt id='1601'> +1.3417735e-12 </wgt>
<wgt id='1602'> +1.3407513e-12 </wgt>
<wgt id='1603'> +1.3407452e-12 </wgt>
<wgt id='1604'> +1.3408882e-12 </wgt>
<wgt id='1605'> +1.3405937e-12 </wgt>
<wgt id='1606'> +1.3414828e-12 </wgt>
<wgt id='1607'> +1.3408498e-12 </wgt>
<wgt id='1608'> +1.3411461e-12 </wgt>
<wgt id='1609'> +1.3406437e-12 </wgt>
<wgt id='1610'> +1.3269846e-12 </wgt>
<wgt id='1611'> +1.3529080e-12 </wgt>
<wgt id='1612'> +1.5444044e-12 </wgt>
<wgt id='1613'> +1.5021560e-12 </wgt>
<wgt id='1614'> +1.4492215e-12 </wgt>
<wgt id='1615'> +1.5163662e-12 </wgt>
<wgt id='1616'> +1.4835647e-12 </wgt>
<wgt id='1617'> +1.4777769e-12 </wgt>
<wgt id='1618'> +1.5659391e-12 </wgt>
<wgt id='1619'> +1.5021711e-12 </wgt>
<wgt id='1620'> +1.5009076e-12 </wgt>
<wgt id='1621'> +1.5640346e-12 </wgt>
<wgt id='1622'> +1.5526053e-12 </wgt>
<wgt id='1623'> +1.5819505e-12 </wgt>
<wgt id='1624'> +1.6137839e-12 </wgt>
<wgt id='1625'> +1.4399876e-12 </wgt>
<wgt id='1626'> +1.5159082e-12 </wgt>
<wgt id='1627'> +1.5760004e-12 </wgt>
<wgt id='1628'> +1.4642667e-12 </wgt>
<wgt id='1629'> +1.5758574e-12 </wgt>
<wgt id='1630'> +1.4834746e-12 </wgt>
<wgt id='1631'> +1.5022806e-12 </wgt>
<wgt id='1632'> +1.4896297e-12 </wgt>
<wgt id='1633'> +1.4490181e-12 </wgt>
<wgt id='1634'> +1.5390197e-12 </wgt>
<wgt id='1635'> +1.5578651e-12 </wgt>
<wgt id='1636'> +1.5140115e-12 </wgt>
<wgt id='1637'> +1.5874591e-12 </wgt>
<wgt id='1638'> +1.5652028e-12 </wgt>
<wgt id='1639'> +1.5176163e-12 </wgt>
<wgt id='1640'> +1.5225609e-12 </wgt>
<wgt id='1641'> +1.5662387e-12 </wgt>
<wgt id='1642'> +1.4666698e-12 </wgt>
<wgt id='1643'> +1.5157209e-12 </wgt>
<wgt id='1644'> +1.5796244e-12 </wgt>
<wgt id='1645'> +1.5055679e-12 </wgt>
<wgt id='1646'> +1.5612632e-12 </wgt>
<wgt id='1647'> +1.6060935e-12 </wgt>
<wgt id='1648'> +1.5386060e-12 </wgt>
<wgt id='1649'> +1.6352530e-12 </wgt>
<wgt id='1650'> +1.4975778e-12 </wgt>
<wgt id='1651'> +1.6126277e-12 </wgt>
<wgt id='1652'> +1.5322263e-12 </wgt>
<wgt id='1653'> +1.5266168e-12 </wgt>
<wgt id='1654'> +1.5751778e-12 </wgt>
<wgt id='1655'> +1.6120415e-12 </wgt>
<wgt id='1656'> +1.4989217e-12 </wgt>
<wgt id='1657'> +1.5883508e-12 </wgt>
<wgt id='1658'> +1.5139889e-12 </wgt>
<wgt id='1659'> +1.6137839e-12 </wgt>
<wgt id='1660'> +1.5592630e-12 </wgt>
<wgt id='1661'> +1.5839989e-12 </wgt>
<wgt id='1662'> +1.6181393e-12 </wgt>
<wgt id='1663'> +1.5474119e-12 </wgt>
<wgt id='1664'> +1.5216342e-12 </wgt>
<wgt id='1665'> +1.5080944e-12 </wgt>
<wgt id='1666'> +1.5688159e-12 </wgt>
<wgt id='1667'> +1.5691465e-12 </wgt>
<wgt id='1668'> +1.5737071e-12 </wgt>
<wgt id='1669'> +1.5788416e-12 </wgt>
<wgt id='1670'> +1.5078971e-12 </wgt>
<wgt id='1671'> +1.5031090e-12 </wgt>
<wgt id='1672'> +1.5701381e-12 </wgt>
<wgt id='1673'> +1.5699296e-12 </wgt>
<wgt id='1674'> +1.5275419e-12 </wgt>
<wgt id='1675'> +1.5488086e-12 </wgt>
<wgt id='1676'> +1.5184517e-12 </wgt>
<wgt id='1677'> +1.5101230e-12 </wgt>
<wgt id='1678'> +1.5312022e-12 </wgt>
<wgt id='1679'> +1.5630337e-12 </wgt>
<wgt id='1680'> +1.5977792e-12 </wgt>
<wgt id='1681'> +1.5856458e-12 </wgt>
<wgt id='1682'> +1.5359253e-12 </wgt>
<wgt id='1683'> +1.5799369e-12 </wgt>
<wgt id='1684'> +1.6185150e-12 </wgt>
<wgt id='1685'> +1.5422788e-12 </wgt>
<wgt id='1686'> +1.5316223e-12 </wgt>
<wgt id='1687'> +1.5710830e-12 </wgt>
<wgt id='1688'> +1.5187680e-12 </wgt>
<wgt id='1689'> +1.6184730e-12 </wgt>
<wgt id='1690'> +1.5590782e-12 </wgt>
<wgt id='1691'> +1.4230231e-12 </wgt>
<wgt id='1692'> +1.4880157e-12 </wgt>
<wgt id='1693'> +1.5555262e-12 </wgt>
<wgt id='1694'> +1.5226303e-12 </wgt>
<wgt id='1695'> +1.5390987e-12 </wgt>
<wgt id='1696'> +1.5426531e-12 </wgt>
<wgt id='1697'> +1.5512129e-12 </wgt>
<wgt id='1698'> +1.5602504e-12 </wgt>
<wgt id='1699'> +1.5709375e-12 </wgt>
<wgt id='1700'> +1.4966994e-12 </wgt>
<wgt id='1701'> +1.6276952e-12 </wgt>
<wgt id='1702'> +1.4982291e-12 </wgt>
<wgt id='1703'> +1.4908899e-12 </wgt>
<wgt id='1704'> +1.4818478e-12 </wgt>
<wgt id='1705'> +1.4889598e-12 </wgt>
<wgt id='1706'> +1.5995778e-12 </wgt>
<wgt id='1707'> +1.5919421e-12 </wgt>
<wgt id='1708'> +1.6428950e-12 </wgt>
<wgt id='1709'> +1.6271298e-12 </wgt>
<wgt id='1710'> +1.5406741e-12 </wgt>
<wgt id='1711'> +1.5521953e-12 </wgt>
<wgt id='1712'> +1.6381006e-12 </wgt>
<wgt id='1713'> +1.3940057e-12 </wgt>
<wgt id='1714'> +1.3877970e-12 </wgt>
<wgt id='1715'> +1.3353663e-12 </wgt>
<wgt id='1716'> +1.4362548e-12 </wgt>
<wgt id='1717'> +1.4244068e-12 </wgt>
<wgt id='1718'> +1.4277227e-12 </wgt>
<wgt id='1719'> +1.4152942e-12 </wgt>
<wgt id='1720'> +1.3331235e-12 </wgt>
<wgt id='1721'> +1.3720745e-12 </wgt>
<wgt id='1722'> +1.3843135e-12 </wgt>
<wgt id='1723'> +1.4468075e-12 </wgt>
<wgt id='1724'> +1.3790932e-12 </wgt>
<wgt id='1725'> +1.4056337e-12 </wgt>
<wgt id='1726'> +1.3856377e-12 </wgt>
<wgt id='1727'> +1.4771519e-12 </wgt>
<wgt id='1728'> +1.3868470e-12 </wgt>
<wgt id='1729'> +1.3097985e-12 </wgt>
<wgt id='1730'> +1.3618440e-12 </wgt>
<wgt id='1731'> +1.3168888e-12 </wgt>
<wgt id='1732'> +1.4069169e-12 </wgt>
<wgt id='1733'> +1.3435944e-12 </wgt>
<wgt id='1734'> +1.4767902e-12 </wgt>
<wgt id='1735'> +1.3469960e-12 </wgt>
<wgt id='1736'> +1.4080643e-12 </wgt>
<wgt id='1737'> +1.4721715e-12 </wgt>
<wgt id='1738'> +1.3784565e-12 </wgt>
<wgt id='1739'> +1.4185576e-12 </wgt>
<wgt id='1740'> +1.3012652e-12 </wgt>
<wgt id='1741'> +1.4832899e-12 </wgt>
<wgt id='1742'> +1.3945771e-12 </wgt>
<wgt id='1743'> +1.3531468e-12 </wgt>
<wgt id='1744'> +1.4275557e-12 </wgt>
<wgt id='1745'> +1.4344446e-12 </wgt>
<wgt id='1746'> +1.3833444e-12 </wgt>
<wgt id='1747'> +1.4574354e-12 </wgt>
<wgt id='1748'> +1.4056723e-12 </wgt>
<wgt id='1749'> +1.3783160e-12 </wgt>
<wgt id='1750'> +1.3599699e-12 </wgt>
<wgt id='1751'> +1.3844709e-12 </wgt>
<wgt id='1752'> +1.3838217e-12 </wgt>
<wgt id='1753'> +1.4160119e-12 </wgt>
<wgt id='1754'> +1.4175713e-12 </wgt>
<wgt id='1755'> +1.3845402e-12 </wgt>
<wgt id='1756'> +1.4193252e-12 </wgt>
<wgt id='1757'> +1.4311711e-12 </wgt>
<wgt id='1758'> +1.4563385e-12 </wgt>
<wgt id='1759'> +1.4156667e-12 </wgt>
<wgt id='1760'> +1.3880585e-12 </wgt>
<wgt id='1761'> +1.3869018e-12 </wgt>
<wgt id='1762'> +1.3875793e-12 </wgt>
<wgt id='1763'> +1.4257355e-12 </wgt>
<wgt id='1764'> +1.4658953e-12 </wgt>
<wgt id='1765'> +1.3760487e-12 </wgt>
<wgt id='1766'> +1.4353546e-12 </wgt>
<wgt id='1767'> +1.3608735e-12 </wgt>
<wgt id='1768'> +1.4117979e-12 </wgt>
<wgt id='1769'> +1.3906956e-12 </wgt>
<wgt id='1770'> +1.3783797e-12 </wgt>
<wgt id='1771'> +1.4667959e-12 </wgt>
<wgt id='1772'> +1.3815046e-12 </wgt>
<wgt id='1773'> +1.3998202e-12 </wgt>
<wgt id='1774'> +1.3822070e-12 </wgt>
<wgt id='1775'> +1.3961162e-12 </wgt>
<wgt id='1776'> +1.4562963e-12 </wgt>
<wgt id='1777'> +1.3286454e-12 </wgt>
<wgt id='1778'> +1.4235632e-12 </wgt>
<wgt id='1779'> +1.3705175e-12 </wgt>
<wgt id='1780'> +1.3990508e-12 </wgt>
<wgt id='1781'> +1.4228093e-12 </wgt>
<wgt id='1782'> +1.3826704e-12 </wgt>
<wgt id='1783'> +1.4017368e-12 </wgt>
<wgt id='1784'> +1.3629782e-12 </wgt>
<wgt id='1785'> +1.4053246e-12 </wgt>
<wgt id='1786'> +1.3692853e-12 </wgt>
<wgt id='1787'> +1.5051429e-12 </wgt>
<wgt id='1788'> +1.3777472e-12 </wgt>
<wgt id='1789'> +1.4889754e-12 </wgt>
<wgt id='1790'> +1.3791707e-12 </wgt>
<wgt id='1791'> +1.3487543e-12 </wgt>
<wgt id='1792'> +1.3810425e-12 </wgt>
<wgt id='1793'> +1.3576330e-12 </wgt>
<wgt id='1794'> +1.4303782e-12 </wgt>
<wgt id='1795'> +1.4050165e-12 </wgt>
<wgt id='1796'> +1.3531632e-12 </wgt>
<wgt id='1797'> +1.3962902e-12 </wgt>
<wgt id='1798'> +1.3878678e-12 </wgt>
<wgt id='1799'> +1.3640264e-12 </wgt>
<wgt id='1800'> +1.4086729e-12 </wgt>
<wgt id='1801'> +1.3862178e-12 </wgt>
<wgt id='1802'> +1.3337107e-12 </wgt>
<wgt id='1803'> +1.4054051e-12 </wgt>
<wgt id='1804'> +1.4222794e-12 </wgt>
<wgt id='1805'> +1.3603024e-12 </wgt>
<wgt id='1806'> +1.3635098e-12 </wgt>
<wgt id='1807'> +1.3457244e-12 </wgt>
<wgt id='1808'> +1.3544732e-12 </wgt>
<wgt id='1809'> +1.3598389e-12 </wgt>
<wgt id='1810'> +1.3600273e-12 </wgt>
<wgt id='1811'> +1.4005954e-12 </wgt>
<wgt id='1812'> +1.3671754e-12 </wgt>
<wgt id='1813'> +1.2874411e-12 </wgt>
<wgt id='1814'> +1.8991844e-12 </wgt>
<wgt id='1815'> +2.3406795e-12 </wgt>
<wgt id='1816'> +1.3940057e-12 </wgt>
<wgt id='1817'> +1.3877970e-12 </wgt>
<wgt id='1818'> +1.3353663e-12 </wgt>
<wgt id='1819'> +1.4362548e-12 </wgt>
<wgt id='1820'> +1.4244068e-12 </wgt>
<wgt id='1821'> +1.4277227e-12 </wgt>
<wgt id='1822'> +1.4152942e-12 </wgt>
<wgt id='1823'> +1.3331235e-12 </wgt>
<wgt id='1824'> +1.3720745e-12 </wgt>
<wgt id='1825'> +1.3843135e-12 </wgt>
<wgt id='1826'> +1.4468075e-12 </wgt>
<wgt id='1827'> +1.3790932e-12 </wgt>
<wgt id='1828'> +1.4056337e-12 </wgt>
<wgt id='1829'> +1.3856377e-12 </wgt>
<wgt id='1830'> +1.4771519e-12 </wgt>
<wgt id='1831'> +1.3868470e-12 </wgt>
<wgt id='1832'> +1.3097985e-12 </wgt>
<wgt id='1833'> +1.3618440e-12 </wgt>
<wgt id='1834'> +1.3168888e-12 </wgt>
<wgt id='1835'> +1.4069169e-12 </wgt>
<wgt id='1836'> +1.3435944e-12 </wgt>
<wgt id='1837'> +1.4767902e-12 </wgt>
<wgt id='1838'> +1.3469960e-12 </wgt>
<wgt id='1839'> +1.4080643e-12 </wgt>
<wgt id='1840'> +1.4721715e-12 </wgt>
<wgt id='1841'> +1.3784565e-12 </wgt>
<wgt id='1842'> +1.4185576e-12 </wgt>
<wgt id='1843'> +1.3012652e-12 </wgt>
<wgt id='1844'> +1.4832899e-12 </wgt>
<wgt id='1845'> +1.3945771e-12 </wgt>
<wgt id='1846'> +1.3531468e-12 </wgt>
<wgt id='1847'> +1.4275557e-12 </wgt>
<wgt id='1848'> +1.4344446e-12 </wgt>
<wgt id='1849'> +1.3833444e-12 </wgt>
<wgt id='1850'> +1.4574354e-12 </wgt>
<wgt id='1851'> +1.4056723e-12 </wgt>
<wgt id='1852'> +1.3783160e-12 </wgt>
<wgt id='1853'> +1.3599699e-12 </wgt>
<wgt id='1854'> +1.3844709e-12 </wgt>
<wgt id='1855'> +1.3838217e-12 </wgt>
<wgt id='1856'> +1.4160119e-12 </wgt>
<wgt id='1857'> +1.4175713e-12 </wgt>
<wgt id='1858'> +1.3845402e-12 </wgt>
<wgt id='1859'> +1.4193252e-12 </wgt>
<wgt id='1860'> +1.4311711e-12 </wgt>
<wgt id='1861'> +1.4563385e-12 </wgt>
<wgt id='1862'> +1.4156667e-12 </wgt>
<wgt id='1863'> +1.3880585e-12 </wgt>
<wgt id='1864'> +1.3869018e-12 </wgt>
<wgt id='1865'> +1.3875793e-12 </wgt>
<wgt id='1866'> +1.4257355e-12 </wgt>
<wgt id='1867'> +1.4658953e-12 </wgt>
<wgt id='1868'> +1.3760487e-12 </wgt>
<wgt id='1869'> +1.4353546e-12 </wgt>
<wgt id='1870'> +1.3608735e-12 </wgt>
<wgt id='1871'> +1.4117979e-12 </wgt>
<wgt id='1872'> +1.3906956e-12 </wgt>
<wgt id='1873'> +1.3783797e-12 </wgt>
<wgt id='1874'> +1.4667959e-12 </wgt>
<wgt id='1875'> +1.3815046e-12 </wgt>
<wgt id='1876'> +1.3998202e-12 </wgt>
<wgt id='1877'> +1.3822070e-12 </wgt>
<wgt id='1878'> +1.3961162e-12 </wgt>
<wgt id='1879'> +1.4562963e-12 </wgt>
<wgt id='1880'> +1.3286454e-12 </wgt>
<wgt id='1881'> +1.4235632e-12 </wgt>
<wgt id='1882'> +1.3705175e-12 </wgt>
<wgt id='1883'> +1.3990508e-12 </wgt>
<wgt id='1884'> +1.4228093e-12 </wgt>
<wgt id='1885'> +1.3826704e-12 </wgt>
<wgt id='1886'> +1.4017368e-12 </wgt>
<wgt id='1887'> +1.3629782e-12 </wgt>
<wgt id='1888'> +1.4053246e-12 </wgt>
<wgt id='1889'> +1.3692853e-12 </wgt>
<wgt id='1890'> +1.5051429e-12 </wgt>
<wgt id='1891'> +1.3777472e-12 </wgt>
<wgt id='1892'> +1.4889754e-12 </wgt>
<wgt id='1893'> +1.3791707e-12 </wgt>
<wgt id='1894'> +1.3487543e-12 </wgt>
<wgt id='1895'> +1.3810425e-12 </wgt>
<wgt id='1896'> +1.3576330e-12 </wgt>
<wgt id='1897'> +1.4303782e-12 </wgt>
<wgt id='1898'> +1.4050165e-12 </wgt>
<wgt id='1899'> +1.3531632e-12 </wgt>
<wgt id='1900'> +1.3962902e-12 </wgt>
<wgt id='1901'> +1.3878678e-12 </wgt>
<wgt id='1902'> +1.3640264e-12 </wgt>
<wgt id='1903'> +1.4086729e-12 </wgt>
<wgt id='1904'> +1.3862178e-12 </wgt>
<wgt id='1905'> +1.3337107e-12 </wgt>
<wgt id='1906'> +1.4054051e-12 </wgt>
<wgt id='1907'> +1.4222794e-12 </wgt>
<wgt id='1908'> +1.3603024e-12 </wgt>
<wgt id='1909'> +1.3635098e-12 </wgt>
<wgt id='1910'> +1.3457244e-12 </wgt>
<wgt id='1911'> +1.3544732e-12 </wgt>
<wgt id='1912'> +1.3598389e-12 </wgt>
<wgt id='1913'> +1.3600273e-12 </wgt>
<wgt id='1914'> +1.4005954e-12 </wgt>
<wgt id='1915'> +1.3671754e-12 </wgt>
<wgt id='1916'> +1.2874411e-12 </wgt>
<wgt id='1917'> +1.3893238e-12 </wgt>
<wgt id='1918'> +1.4122463e-12 </wgt>
<wgt id='1919'> +1.3293122e-12 </wgt>
</rwgt>
</event>
<event>
 9      1 +1.5538000e-12 2.87295200e+01 7.81860800e-03 1.46277200e-01
        4 -1    0    0  502    0 -0.0000000000e+00 +0.0000000000e+00 +9.1834676443e+00 9.2926034013e+00 0.0000000000e+00 0.0000e+00 1.0000e+00
       21 -1    0    0  501  502 +0.0000000000e+00 -0.0000000000e+00 -1.0036976347e+02 1.0036976347e+02 1.4200000000e+00 0.0000e+00 1.0000e+00
     1023  2    1    2    0    0 -2.2422902277e+01 +9.8782286507e+00 -7.4863092739e+01 8.0186456254e+01 1.5000638795e+01 0.0000e+00 0.0000e+00
  1000023  2    3    3    0    0 -9.3522421451e+00 +4.3860806664e+00 -1.8815598410e+01 2.2157778289e+01 5.4989324807e+00 0.0000e+00 0.0000e+00
        4  1    1    2  501    0 +2.2422902277e+01 -9.8782286507e+00 -1.6323203090e+01 2.9475910621e+01 1.4200000000e+00 0.0000e+00 1.0000e+00
  1000022  1    4    4    0    0 -7.7096640448e+00 +3.5151260729e+00 -1.5873632593e+01 1.8675311046e+01 5.0000000000e+00 0.0000e+00 -1.0000e+00
      -11  1    4    4    0    0 -1.1848857288e+00 +5.6437991061e-01 -2.0906986226e+00 2.4685015426e+00 5.1100000000e-04 0.0000e+00 1.0000e+00
       11  1    4    4    0    0 -4.5769237150e-01 +3.0657468288e-01 -8.5126719480e-01 1.0139657002e+00 5.1100000000e-04 0.0000e+00 -1.0000e+00
  1000022  1    3    3    0    0 -1.3070660132e+01 +5.4921479844e+00 -5.6047494329e+01 5.8028677965e+01 5.0000000000e+00 0.0000e+00 1.0000e+00
<mgrwt>
<rscale>  1 0.28729516E+02</rscale>
<asrwt>0</asrwt>
<pdfrwt beam="1">  1       21 0.15441507E-01 0.28729516E+02</pdfrwt>
<pdfrwt beam="2">  1        4 0.14220085E-02 0.28729516E+02</pdfrwt>
<totfact> 0.24560547E+06</totfact>
</mgrwt>
<rwgt>
<wgt id='1001'> +1.5538000e-12 </wgt>
<wgt id='1002'> +1.6379326e-12 </wgt>
<wgt id='1003'> +1.6423334e-12 </wgt>
<wgt id='1004'> +1.5306995e-12 </wgt>
<wgt id='1005'> +1.6608695e-12 </wgt>
<wgt id='1006'> +1.3579751e-12 </wgt>
<wgt id='1007'> +1.4511581e-12 </wgt>
<wgt id='1008'> +1.4562609e-12 </wgt>
<wgt id='1009'> +1.3334086e-12 </wgt>
<wgt id='1010'> +1.4781615e-12 </wgt>
<wgt id='1011'> +1.8189302e-12 </wgt>
<wgt id='1012'> +1.8823483e-12 </wgt>
<wgt id='1013'> +1.8853327e-12 </wgt>
<wgt id='1014'> +1.8000314e-12 </wgt>
<wgt id='1015'> +1.8973126e-12 </wgt>
<wgt id='1016'> +1.8935949e-12 </wgt>
<wgt id='1017'> +1.9162884e-12 </wgt>
<wgt id='1018'> +1.9169780e-12 </wgt>
<wgt id='1019'> +1.8853327e-12 </wgt>
<wgt id='1020'> +1.9190736e-12 </wgt>
<wgt id='1021'> +1.6549457e-12 </wgt>
<wgt id='1022'> +1.6977728e-12 </wgt>
<wgt id='1023'> +1.6997890e-12 </wgt>
<wgt id='1024'> +1.6423334e-12 </wgt>
<wgt id='1025'> +1.7079612e-12 </wgt>
<wgt id='1026'> +2.2167054e-12 </wgt>
<wgt id='1027'> +2.2022410e-12 </wgt>
<wgt id='1028'> +2.2006138e-12 </wgt>
<wgt id='1029'> +2.2170634e-12 </wgt>
<wgt id='1030'> +2.1922749e-12 </wgt>
<wgt id='1031'> +1.1769858e-12 </wgt>
<wgt id='1032'> +1.3250997e-12 </wgt>
<wgt id='1033'> +1.3334086e-12 </wgt>
<wgt id='1034'> +1.1390007e-12 </wgt>
<wgt id='1035'> +1.3699148e-12 </wgt>
<wgt id='1036'> +1.0286507e-12 </wgt>
<wgt id='1037'> +1.1739977e-12 </wgt>
<wgt id='1038'> +1.1823366e-12 </wgt>
<wgt id='1039'> +9.9219561e-13 </wgt>
<wgt id='1040'> +1.2192140e-12 </wgt>
<wgt id='1041'> +1.3778189e-12 </wgt>
<wgt id='1042'> +1.5228339e-12 </wgt>
<wgt id='1043'> +1.5306995e-12 </wgt>
<wgt id='1044'> +1.3394118e-12 </wgt>
<wgt id='1045'> +1.5649373e-12 </wgt>
<wgt id='1046'> +1.5538000e-12 </wgt>
<wgt id='1047'> +1.5106612e-12 </wgt>
<wgt id='1048'> +1.5728175e-12 </wgt>
<wgt id='1049'> +1.5397857e-12 </wgt>
<wgt id='1050'> +1.5464903e-12 </wgt>
<wgt id='1051'> +1.5566059e-12 </wgt>
<wgt id='1052'> +1.4956202e-12 </wgt>
<wgt id='1053'> +1.5713670e-12 </wgt>
<wgt id='1054'> +1.5801671e-12 </wgt>
<wgt id='1055'> +1.5897182e-12 </wgt>
<wgt id='1056'> +1.5800085e-12 </wgt>
<wgt id='1057'> +1.5467971e-12 </wgt>
<wgt id='1058'> +1.5205637e-12 </wgt>
<wgt id='1059'> +1.5507998e-12 </wgt>
<wgt id='1060'> +1.5346793e-12 </wgt>
<wgt id='1061'> +1.5881720e-12 </wgt>
<wgt id='1062'> +1.5794068e-12 </wgt>
<wgt id='1063'> +1.5995317e-12 </wgt>
<wgt id='1064'> +1.5371210e-12 </wgt>
<wgt id='1065'> +1.5555686e-12 </wgt>
<wgt id='1066'> +1.5964764e-12 </wgt>
<wgt id='1067'> +1.5642868e-12 </wgt>
<wgt id='1068'> +1.5905985e-12 </wgt>
<wgt id='1069'> +1.5795129e-12 </wgt>
<wgt id='1070'> +1.5652554e-12 </wgt>
<wgt id='1071'> +1.5493043e-12 </wgt>
<wgt id='1072'> +1.5866966e-12 </wgt>
<wgt id='1073'> +1.5636242e-12 </wgt>
<wgt id='1074'> +1.5209365e-12 </wgt>
<wgt id='1075'> +1.5490638e-12 </wgt>
<wgt id='1076'> +1.5658249e-12 </wgt>
<wgt id='1077'> +1.5788076e-12 </wgt>
<wgt id='1078'> +1.5454437e-12 </wgt>
<wgt id='1079'> +1.5143392e-12 </wgt>
<wgt id='1080'> +1.5189638e-12 </wgt>
<wgt id='1081'> +1.5829356e-12 </wgt>
<wgt id='1082'> +1.5455859e-12 </wgt>
<wgt id='1083'> +1.5783755e-12 </wgt>
<wgt id='1084'> +1.5366973e-12 </wgt>
<wgt id='1085'> +1.5363123e-12 </wgt>
<wgt id='1086'> +1.5449735e-12 </wgt>
<wgt id='1087'> +1.5367680e-12 </wgt>
<wgt id='1088'> +1.4790342e-12 </wgt>
<wgt id='1089'> +1.5262986e-12 </wgt>
<wgt id='1090'> +1.4953569e-12 </wgt>
<wgt id='1091'> +1.5429995e-12 </wgt>
<wgt id='1092'> +1.5543907e-12 </wgt>
<wgt id='1093'> +1.4830772e-12 </wgt>
<wgt id='1094'> +1.5625633e-12 </wgt>
<wgt id='1095'> +1.5518075e-12 </wgt>
<wgt id='1096'> +1.5671388e-12 </wgt>
<wgt id='1097'> +1.5251375e-12 </wgt>
<wgt id='1098'> +1.5907715e-12 </wgt>
<wgt id='1099'> +1.5418467e-12 </wgt>
<wgt id='1100'> +1.5311893e-12 </wgt>
<wgt id='1101'> +1.5346228e-12 </wgt>
<wgt id='1102'> +1.5439798e-12 </wgt>
<wgt id='1103'> +1.5709011e-12 </wgt>
<wgt id='1104'> +1.5631154e-12 </wgt>
<wgt id='1105'> +1.5808664e-12 </wgt>
<wgt id='1106'> +1.5740804e-12 </wgt>
<wgt id='1107'> +1.5552898e-12 </wgt>
<wgt id='1108'> +1.5642376e-12 </wgt>
<wgt id='1109'> +1.5266409e-12 </wgt>
<wgt id='1110'> +1.5461151e-12 </wgt>
<wgt id='1111'> +1.5465398e-12 </wgt>
<wgt id='1112'> +1.5244264e-12 </wgt>
<wgt id='1113'> +1.4959836e-12 </wgt>
<wgt id='1114'> +1.6072585e-12 </wgt>
<wgt id='1115'> +1.5346949e-12 </wgt>
<wgt id='1116'> +1.5746570e-12 </wgt>
<wgt id='1117'> +1.6023190e-12 </wgt>
<wgt id='1118'> +1.5861741e-12 </wgt>
<wgt id='1119'> +1.6044982e-12 </wgt>
<wgt id='1120'> +1.5997703e-12 </wgt>
<wgt id='1121'> +1.5495045e-12 </wgt>
<wgt id='1122'> +1.5183124e-12 </wgt>
<wgt id='1123'> +1.5922232e-12 </wgt>
<wgt id='1124'> +1.5383793e-12 </wgt>
<wgt id='1125'> +1.5568648e-12 </wgt>
<wgt id='1126'> +1.5154541e-12 </wgt>
<wgt id='1127'> +1.5299345e-12 </wgt>
<wgt id='1128'> +1.5794068e-12 </wgt>
<wgt id='1129'> +1.5194850e-12 </wgt>
<wgt id='1130'> +1.5872164e-12 </wgt>
<wgt id='1131'> +1.5717862e-12 </wgt>
<wgt id='1132'> +1.4873118e-12 </wgt>
<wgt id='1133'> +1.5149258e-12 </wgt>
<wgt id='1134'> +1.5352928e-12 </wgt>
<wgt id='1135'> +1.6074658e-12 </wgt>
<wgt id='1136'> +1.5182996e-12 </wgt>
<wgt id='1137'> +1.5191515e-12 </wgt>
<wgt id='1138'> +1.5620265e-12 </wgt>
<wgt id='1139'> +1.5791236e-12 </wgt>
<wgt id='1140'> +1.5560185e-12 </wgt>
<wgt id='1141'> +1.5426856e-12 </wgt>
<wgt id='1142'> +1.5363335e-12 </wgt>
<wgt id='1143'> +1.5351480e-12 </wgt>
<wgt id='1144'> +1.6027223e-12 </wgt>
<wgt id='1145'> +1.6106207e-12 </wgt>
<wgt id='1146'> +1.6213229e-12 </wgt>
<wgt id='1147'> +1.2178706e-12 </wgt>
<wgt id='1148'> +1.2556068e-12 </wgt>
<wgt id='1149'> +1.2080159e-12 </wgt>
<wgt id='1150'> +1.2347366e-12 </wgt>
<wgt id='1151'> +9.7717874e-13 </wgt>
<wgt id='1152'> +1.4099495e-12 </wgt>
<wgt id='1153'> +1.4034709e-12 </wgt>
<wgt id='1154'> +1.4136776e-12 </wgt>
<wgt id='1155'> +1.4105789e-12 </wgt>
<wgt id='1156'> +1.4096202e-12 </wgt>
<wgt id='1157'> +1.4070590e-12 </wgt>
<wgt id='1158'> +1.4137569e-12 </wgt>
<wgt id='1159'> +1.4075465e-12 </wgt>
<wgt id='1160'> +1.4114846e-12 </wgt>
<wgt id='1161'> +1.4021523e-12 </wgt>
<wgt id='1162'> +1.4152677e-12 </wgt>
<wgt id='1163'> +1.4135558e-12 </wgt>
<wgt id='1164'> +1.4063145e-12 </wgt>
<wgt id='1165'> +1.3946927e-12 </wgt>
<wgt id='1166'> +1.4248322e-12 </wgt>
<wgt id='1167'> +1.4264812e-12 </wgt>
<wgt id='1168'> +1.3883079e-12 </wgt>
<wgt id='1169'> +1.4157204e-12 </wgt>
<wgt id='1170'> +1.4055370e-12 </wgt>
<wgt id='1171'> +1.4067708e-12 </wgt>
<wgt id='1172'> +1.4138105e-12 </wgt>
<wgt id='1173'> +1.3978372e-12 </wgt>
<wgt id='1174'> +1.4217527e-12 </wgt>
<wgt id='1175'> +1.4137373e-12 </wgt>
<wgt id='1176'> +1.4059128e-12 </wgt>
<wgt id='1177'> +1.4105212e-12 </wgt>
<wgt id='1178'> +1.4085444e-12 </wgt>
<wgt id='1179'> +1.4178674e-12 </wgt>
<wgt id='1180'> +1.3963493e-12 </wgt>
<wgt id='1181'> +1.4060680e-12 </wgt>
<wgt id='1182'> +1.4135555e-12 </wgt>
<wgt id='1183'> +1.4092931e-12 </wgt>
<wgt id='1184'> +1.4100191e-12 </wgt>
<wgt id='1185'> +1.4090114e-12 </wgt>
<wgt id='1186'> +1.4103718e-12 </wgt>
<wgt id='1187'> +1.4092725e-12 </wgt>
<wgt id='1188'> +1.4101462e-12 </wgt>
<wgt id='1189'> +1.4048591e-12 </wgt>
<wgt id='1190'> +1.3948960e-12 </wgt>
<wgt id='1191'> +1.4025356e-12 </wgt>
<wgt id='1192'> +1.4154479e-12 </wgt>
<wgt id='1193'> +1.2573493e-12 </wgt>
<wgt id='1194'> +1.2536963e-12 </wgt>
<wgt id='1195'> +1.2603002e-12 </wgt>
<wgt id='1196'> +1.2594647e-12 </wgt>
<wgt id='1197'> +1.2550485e-12 </wgt>
<wgt id='1198'> +1.2601541e-12 </wgt>
<wgt id='1199'> +1.2532234e-12 </wgt>
<wgt id='1200'> +1.2589164e-12 </wgt>
<wgt id='1201'> +1.2563385e-12 </wgt>
<wgt id='1202'> +1.2535258e-12 </wgt>
<wgt id='1203'> +1.2628194e-12 </wgt>
<wgt id='1204'> +1.2350728e-12 </wgt>
<wgt id='1205'> +1.2711649e-12 </wgt>
<wgt id='1206'> +1.2636354e-12 </wgt>
<wgt id='1207'> +1.2487957e-12 </wgt>
<wgt id='1208'> +1.2492751e-12 </wgt>
<wgt id='1209'> +1.2603242e-12 </wgt>
<wgt id='1210'> +1.2575341e-12 </wgt>
<wgt id='1211'> +1.2473209e-12 </wgt>
<wgt id='1212'> +1.2553839e-12 </wgt>
<wgt id='1213'> +1.2592030e-12 </wgt>
<wgt id='1214'> +1.2441687e-12 </wgt>
<wgt id='1215'> +1.2772749e-12 </wgt>
<wgt id='1216'> +1.2660580e-12 </wgt>
<wgt id='1217'> +1.2513505e-12 </wgt>
<wgt id='1218'> +1.2658265e-12 </wgt>
<wgt id='1219'> +1.2530035e-12 </wgt>
<wgt id='1220'> +1.2634585e-12 </wgt>
<wgt id='1221'> +1.2559218e-12 </wgt>
<wgt id='1222'> +1.2600518e-12 </wgt>
<wgt id='1223'> +1.2565116e-12 </wgt>
<wgt id='1224'> +1.2590326e-12 </wgt>
<wgt id='1225'> +1.2566822e-12 </wgt>
<wgt id='1226'> +1.2573987e-12 </wgt>
<wgt id='1227'> +1.2574684e-12 </wgt>
<wgt id='1228'> +1.2525241e-12 </wgt>
<wgt id='1229'> +1.2595549e-12 </wgt>
<wgt id='1230'> +1.2566414e-12 </wgt>
<wgt id='1231'> +1.2484447e-12 </wgt>
<wgt id='1232'> +1.2541253e-12 </wgt>
<wgt id='1233'> +1.2582647e-12 </wgt>
<wgt id='1234'> +1.2573493e-12 </wgt>
<wgt id='1235'> +1.2460936e-12 </wgt>
<wgt id='1236'> +1.2503006e-12 </wgt>
<wgt id='1237'> +1.2540795e-12 </wgt>
<wgt id='1238'> +1.2606392e-12 </wgt>
<wgt id='1239'> +1.2632902e-12 </wgt>
<wgt id='1240'> +1.2658422e-12 </wgt>
<wgt id='1241'> +1.1911558e-12 </wgt>
<wgt id='1242'> +1.1827564e-12 </wgt>
<wgt id='1243'> +1.1995035e-12 </wgt>
<wgt id='1244'> +1.1858852e-12 </wgt>
<wgt id='1245'> +1.1950925e-12 </wgt>
<wgt id='1246'> +1.1925549e-12 </wgt>
<wgt id='1247'> +1.1900193e-12 </wgt>
<wgt id='1248'> +1.1910622e-12 </wgt>
<wgt id='1249'> +1.1912819e-12 </wgt>
<wgt id='1250'> +1.1871611e-12 </wgt>
<wgt id='1251'> +1.1940159e-12 </wgt>
<wgt id='1252'> +1.1880091e-12 </wgt>
<wgt id='1253'> +1.1936534e-12 </wgt>
<wgt id='1254'> +1.1712136e-12 </wgt>
<wgt id='1255'> +1.2032367e-12 </wgt>
<wgt id='1256'> +1.1964763e-12 </wgt>
<wgt id='1257'> +1.1778607e-12 </wgt>
<wgt id='1258'> +1.2066076e-12 </wgt>
<wgt id='1259'> +1.1754563e-12 </wgt>
<wgt id='1260'> +1.1962042e-12 </wgt>
<wgt id='1261'> +1.1854916e-12 </wgt>
<wgt id='1262'> +1.1946344e-12 </wgt>
<wgt id='1263'> +1.1895605e-12 </wgt>
<wgt id='1264'> +1.2033124e-12 </wgt>
<wgt id='1265'> +1.1853975e-12 </wgt>
<wgt id='1266'> +1.1832748e-12 </wgt>
<wgt id='1267'> +1.1997513e-12 </wgt>
<wgt id='1268'> +1.1925924e-12 </wgt>
<wgt id='1269'> +1.1938316e-12 </wgt>
<wgt id='1270'> +1.1822792e-12 </wgt>
<wgt id='1271'> +1.1862994e-12 </wgt>
<wgt id='1272'> +1.1911466e-12 </wgt>
<wgt id='1273'> +1.1906771e-12 </wgt>
<wgt id='1274'> +1.1916672e-12 </wgt>
<wgt id='1275'> +1.1892058e-12 </wgt>
<wgt id='1276'> +1.1926825e-12 </wgt>
<wgt id='1277'> +1.1887504e-12 </wgt>
<wgt id='1278'> +1.1905278e-12 </wgt>
<wgt id='1279'> +1.1910509e-12 </wgt>
<wgt id='1280'> +1.1920969e-12 </wgt>
<wgt id='1281'> +1.1877809e-12 </wgt>
<wgt id='1282'> +1.1911558e-12 </wgt>
<wgt id='1283'> +1.1801106e-12 </wgt>
<wgt id='1284'> +1.1843993e-12 </wgt>
<wgt id='1285'> +1.1881567e-12 </wgt>
<wgt id='1286'> +1.1944365e-12 </wgt>
<wgt id='1287'> +1.1969120e-12 </wgt>
<wgt id='1288'> +1.1990921e-12 </wgt>
<wgt id='1289'> +1.2945115e-12 </wgt>
<wgt id='1290'> +1.2966221e-12 </wgt>
<wgt id='1291'> +1.2922512e-12 </wgt>
<wgt id='1292'> +1.2953728e-12 </wgt>
<wgt id='1293'> +1.2938962e-12 </wgt>
<wgt id='1294'> +1.2925668e-12 </wgt>
<wgt id='1295'> +1.2963670e-12 </wgt>
<wgt id='1296'> +1.2902456e-12 </wgt>
<wgt id='1297'> +1.2997618e-12 </wgt>
<wgt id='1298'> +1.3042335e-12 </wgt>
<wgt id='1299'> +1.2824405e-12 </wgt>
<wgt id='1300'> +1.2991333e-12 </wgt>
<wgt id='1301'> +1.2852682e-12 </wgt>
<wgt id='1302'> +1.2929993e-12 </wgt>
<wgt id='1303'> +1.2965956e-12 </wgt>
<wgt id='1304'> +1.2894753e-12 </wgt>
<wgt id='1305'> +1.2979817e-12 </wgt>
<wgt id='1306'> +1.2847225e-12 </wgt>
<wgt id='1307'> +1.3056147e-12 </wgt>
<wgt id='1308'> +1.2940152e-12 </wgt>
<wgt id='1309'> +1.2948955e-12 </wgt>
<wgt id='1310'> +1.2910923e-12 </wgt>
<wgt id='1311'> +1.2982906e-12 </wgt>
<wgt id='1312'> +1.2858963e-12 </wgt>
<wgt id='1313'> +1.3034435e-12 </wgt>
<wgt id='1314'> +1.2999247e-12 </wgt>
<wgt id='1315'> +1.2815961e-12 </wgt>
<wgt id='1316'> +1.3010310e-12 </wgt>
<wgt id='1317'> +1.2954570e-12 </wgt>
<wgt id='1318'> +1.3085432e-12 </wgt>
<wgt id='1319'> +1.2779930e-12 </wgt>
<wgt id='1320'> +1.3046618e-12 </wgt>
<wgt id='1321'> +1.2853735e-12 </wgt>
<wgt id='1322'> +1.2958072e-12 </wgt>
<wgt id='1323'> +1.2926261e-12 </wgt>
<wgt id='1324'> +1.2931831e-12 </wgt>
<wgt id='1325'> +1.3022372e-12 </wgt>
<wgt id='1326'> +1.2979575e-12 </wgt>
<wgt id='1327'> +1.2941296e-12 </wgt>
<wgt id='1328'> +1.2936546e-12 </wgt>
<wgt id='1329'> +1.2951773e-12 </wgt>
<wgt id='1330'> +1.2941111e-12 </wgt>
<wgt id='1331'> +1.2955202e-12 </wgt>
<wgt id='1332'> +1.3228085e-12 </wgt>
<wgt id='1333'> +1.2842210e-12 </wgt>
<wgt id='1334'> +1.2926612e-12 </wgt>
<wgt id='1335'> +1.2997694e-12 </wgt>
<wgt id='1336'> +1.2886952e-12 </wgt>
<wgt id='1337'> +1.2962218e-12 </wgt>
<wgt id='1338'> +1.2928434e-12 </wgt>
<wgt id='1339'> +1.2952222e-12 </wgt>
<wgt id='1340'> +1.2677964e-12 </wgt>
<wgt id='1341'> +1.2699209e-12 </wgt>
<wgt id='1342'> +1.2654849e-12 </wgt>
<wgt id='1343'> +1.2687103e-12 </wgt>
<wgt id='1344'> +1.2671701e-12 </wgt>
<wgt id='1345'> +1.2657335e-12 </wgt>
<wgt id='1346'> +1.2696639e-12 </wgt>
<wgt id='1347'> +1.2635932e-12 </wgt>
<wgt id='1348'> +1.2724431e-12 </wgt>
<wgt id='1349'> +1.2767939e-12 </wgt>
<wgt id='1350'> +1.2590241e-12 </wgt>
<wgt id='1351'> +1.2724015e-12 </wgt>
<wgt id='1352'> +1.2577350e-12 </wgt>
<wgt id='1353'> +1.2654107e-12 </wgt>
<wgt id='1354'> +1.2720405e-12 </wgt>
<wgt id='1355'> +1.2627353e-12 </wgt>
<wgt id='1356'> +1.2706360e-12 </wgt>
<wgt id='1357'> +1.2573976e-12 </wgt>
<wgt id='1358'> +1.2800670e-12 </wgt>
<wgt id='1359'> +1.2696188e-12 </wgt>
<wgt id='1360'> +1.2662146e-12 </wgt>
<wgt id='1361'> +1.2643896e-12 </wgt>
<wgt id='1362'> +1.2724313e-12 </wgt>
<wgt id='1363'> +1.2562558e-12 </wgt>
<wgt id='1364'> +1.2761278e-12 </wgt>
<wgt id='1365'> +1.2562428e-12 </wgt>
<wgt id='1366'> +1.2720644e-12 </wgt>
<wgt id='1367'> +1.2737209e-12 </wgt>
<wgt id='1368'> +1.2682110e-12 </wgt>
<wgt id='1369'> +1.2796157e-12 </wgt>
<wgt id='1370'> +1.2538319e-12 </wgt>
<wgt id='1371'> +1.2762443e-12 </wgt>
<wgt id='1372'> +1.2572474e-12 </wgt>
<wgt id='1373'> +1.2682075e-12 </wgt>
<wgt id='1374'> +1.2669279e-12 </wgt>
<wgt id='1375'> +1.2662877e-12 </wgt>
<wgt id='1376'> +1.2760058e-12 </wgt>
<wgt id='1377'> +1.2710017e-12 </wgt>
<wgt id='1378'> +1.2680546e-12 </wgt>
<wgt id='1379'> +1.2668487e-12 </wgt>
<wgt id='1380'> +1.2686820e-12 </wgt>
<wgt id='1381'> +1.2686182e-12 </wgt>
<wgt id='1382'> +1.2673181e-12 </wgt>
<wgt id='1383'> +1.2938696e-12 </wgt>
<wgt id='1384'> +1.2583192e-12 </wgt>
<wgt id='1385'> +1.2663663e-12 </wgt>
<wgt id='1386'> +1.2716202e-12 </wgt>
<wgt id='1387'> +1.2603612e-12 </wgt>
<wgt id='1388'> +1.2695263e-12 </wgt>
<wgt id='1389'> +1.2642755e-12 </wgt>
<wgt id='1390'> +1.2690450e-12 </wgt>
<wgt id='1391'> +1.2509155e-12 </wgt>
<wgt id='1392'> +1.2131949e-12 </wgt>
<wgt id='1393'> +1.2261311e-12 </wgt>
<wgt id='1394'> +1.2388832e-12 </wgt>
<wgt id='1395'> +1.2631060e-12 </wgt>
<wgt id='1396'> +1.2509610e-12 </wgt>
<wgt id='1397'> +1.2798641e-12 </wgt>
<wgt id='1398'> +1.2732343e-12 </wgt>
<wgt id='1399'> +1.2672201e-12 </wgt>
<wgt id='1400'> +1.2617125e-12 </wgt>
<wgt id='1401'> +1.2562725e-12 </wgt>
<wgt id='1402'> +1.2461716e-12 </wgt>
<wgt id='1403'> +1.2418733e-12 </wgt>
<wgt id='1404'> +1.2377996e-12 </wgt>
<wgt id='1405'> +1.2509610e-12 </wgt>
<wgt id='1406'> +1.2429544e-12 </wgt>
<wgt id='1407'> +1.2471010e-12 </wgt>
<wgt id='1408'> +1.2545251e-12 </wgt>
<wgt id='1409'> +1.2574466e-12 </wgt>
<wgt id='1410'> +1.1671489e-12 </wgt>
<wgt id='1411'> +1.1692982e-12 </wgt>
<wgt id='1412'> +1.1643905e-12 </wgt>
<wgt id='1413'> +1.1693894e-12 </wgt>
<wgt id='1414'> +1.1649273e-12 </wgt>
<wgt id='1415'> +1.1688989e-12 </wgt>
<wgt id='1416'> +1.1664358e-12 </wgt>
<wgt id='1417'> +1.1598394e-12 </wgt>
<wgt id='1418'> +1.1744500e-12 </wgt>
<wgt id='1419'> +1.1713086e-12 </wgt>
<wgt id='1420'> +1.1631623e-12 </wgt>
<wgt id='1421'> +1.1458126e-12 </wgt>
<wgt id='1422'> +1.1763992e-12 </wgt>
<wgt id='1423'> +1.1670923e-12 </wgt>
<wgt id='1424'> +1.1672128e-12 </wgt>
<wgt id='1425'> +1.1606227e-12 </wgt>
<wgt id='1426'> +1.1741835e-12 </wgt>
<wgt id='1427'> +1.1527318e-12 </wgt>
<wgt id='1428'> +1.1749095e-12 </wgt>
<wgt id='1429'> +1.1636810e-12 </wgt>
<wgt id='1430'> +1.1719467e-12 </wgt>
<wgt id='1431'> +1.1697873e-12 </wgt>
<wgt id='1432'> +1.1652039e-12 </wgt>
<wgt id='1433'> +1.1728727e-12 </wgt>
<wgt id='1434'> +1.1598738e-12 </wgt>
<wgt id='1435'> +1.1714787e-12 </wgt>
<wgt id='1436'> +1.1568744e-12 </wgt>
<wgt id='1437'> +1.1749341e-12 </wgt>
<wgt id='1438'> +1.1662427e-12 </wgt>
<wgt id='1439'> +1.1596391e-12 </wgt>
<wgt id='1440'> +1.1842301e-12 </wgt>
<wgt id='1441'> +1.1696689e-12 </wgt>
<wgt id='1442'> +1.1625814e-12 </wgt>
<wgt id='1443'> +1.1648492e-12 </wgt>
<wgt id='1444'> +1.1734156e-12 </wgt>
<wgt id='1445'> +1.1745256e-12 </wgt>
<wgt id='1446'> +1.1654318e-12 </wgt>
<wgt id='1447'> +1.1680610e-12 </wgt>
<wgt id='1448'> +1.1687813e-12 </wgt>
<wgt id='1449'> +1.1667337e-12 </wgt>
<wgt id='1450'> +1.1672136e-12 </wgt>
<wgt id='1451'> +1.1653456e-12 </wgt>
<wgt id='1452'> +1.1692256e-12 </wgt>
<wgt id='1453'> +1.1680951e-12 </wgt>
<wgt id='1454'> +1.1616681e-12 </wgt>
<wgt id='1455'> +1.1642461e-12 </wgt>
<wgt id='1456'> +1.1686702e-12 </wgt>
<wgt id='1457'> +1.1670860e-12 </wgt>
<wgt id='1458'> +1.1673011e-12 </wgt>
<wgt id='1459'> +1.1728022e-12 </wgt>
<wgt id='1460'> +1.1642895e-12 </wgt>
<wgt id='1461'> +1.1671489e-12 </wgt>
<wgt id='1462'> +1.1613682e-12 </wgt>
<wgt id='1463'> +1.1737876e-12 </wgt>
<wgt id='1464'> +1.1683243e-12 </wgt>
<wgt id='1465'> +1.1995543e-12 </wgt>
<wgt id='1466'> +1.1918440e-12 </wgt>
<wgt id='1467'> +1.1850953e-12 </wgt>
<wgt id='1468'> +1.1804990e-12 </wgt>
<wgt id='1469'> +1.1736033e-12 </wgt>
<wgt id='1470'> +1.1641208e-12 </wgt>
<wgt id='1471'> +1.1585565e-12 </wgt>
<wgt id='1472'> +1.1538689e-12 </wgt>
<wgt id='1473'> +1.1683243e-12 </wgt>
<wgt id='1474'> +1.1608672e-12 </wgt>
<wgt id='1475'> +1.1651465e-12 </wgt>
<wgt id='1476'> +1.1713808e-12 </wgt>
<wgt id='1477'> +1.1739559e-12 </wgt>
<wgt id='1478'> +1.2322466e-12 </wgt>
<wgt id='1479'> +1.2321146e-12 </wgt>
<wgt id='1480'> +1.2262145e-12 </wgt>
<wgt id='1481'> +1.2236356e-12 </wgt>
<wgt id='1482'> +1.2366481e-12 </wgt>
<wgt id='1483'> +1.2237120e-12 </wgt>
<wgt id='1484'> +1.2324255e-12 </wgt>
<wgt id='1485'> +1.2458508e-12 </wgt>
<wgt id='1486'> +1.2320529e-12 </wgt>
<wgt id='1487'> +1.2343899e-12 </wgt>
<wgt id='1488'> +1.2273613e-12 </wgt>
<wgt id='1489'> +1.2587503e-12 </wgt>
<wgt id='1490'> +1.2330011e-12 </wgt>
<wgt id='1491'> +1.2361093e-12 </wgt>
<wgt id='1492'> +1.2303066e-12 </wgt>
<wgt id='1493'> +1.2145115e-12 </wgt>
<wgt id='1494'> +1.2339884e-12 </wgt>
<wgt id='1495'> +1.2395133e-12 </wgt>
<wgt id='1496'> +1.2316493e-12 </wgt>
<wgt id='1497'> +1.2354886e-12 </wgt>
<wgt id='1498'> +1.2310554e-12 </wgt>
<wgt id='1499'> +1.2359508e-12 </wgt>
<wgt id='1500'> +1.2315902e-12 </wgt>
<wgt id='1501'> +1.2314423e-12 </wgt>
<wgt id='1502'> +1.2328975e-12 </wgt>
<wgt id='1503'> +1.2349672e-12 </wgt>
<wgt id='1504'> +1.2322758e-12 </wgt>
<wgt id='1505'> +1.2331548e-12 </wgt>
<wgt id='1506'> +1.2338254e-12 </wgt>
<wgt id='1507'> +1.2318839e-12 </wgt>
<wgt id='1508'> +1.2388964e-12 </wgt>
<wgt id='1509'> +1.2151144e-12 </wgt>
<wgt id='1510'> +1.2127059e-12 </wgt>
<wgt id='1511'> +1.2175933e-12 </wgt>
<wgt id='1512'> +1.2158136e-12 </wgt>
<wgt id='1513'> +1.2166852e-12 </wgt>
<wgt id='1514'> +1.2155153e-12 </wgt>
<wgt id='1515'> +1.2155935e-12 </wgt>
<wgt id='1516'> +1.2177653e-12 </wgt>
<wgt id='1517'> +1.2216560e-12 </wgt>
<wgt id='1518'> +1.2137946e-12 </wgt>
<wgt id='1519'> +1.2094484e-12 </wgt>
<wgt id='1520'> +1.2248133e-12 </wgt>
<wgt id='1521'> +1.2223316e-12 </wgt>
<wgt id='1522'> +1.2261519e-12 </wgt>
<wgt id='1523'> +1.2212742e-12 </wgt>
<wgt id='1524'> +1.2181271e-12 </wgt>
<wgt id='1525'> +1.2136887e-12 </wgt>
<wgt id='1526'> +1.2176445e-12 </wgt>
<wgt id='1527'> +1.2187256e-12 </wgt>
<wgt id='1528'> +1.2115022e-12 </wgt>
<wgt id='1529'> +1.2176057e-12 </wgt>
<wgt id='1530'> +1.2071332e-12 </wgt>
<wgt id='1531'> +1.2156911e-12 </wgt>
<wgt id='1532'> +1.2146274e-12 </wgt>
<wgt id='1533'> +1.2128775e-12 </wgt>
<wgt id='1534'> +1.2104115e-12 </wgt>
<wgt id='1535'> +1.2204229e-12 </wgt>
<wgt id='1536'> +1.2191178e-12 </wgt>
<wgt id='1537'> +1.2158671e-12 </wgt>
<wgt id='1538'> +1.2146677e-12 </wgt>
<wgt id='1539'> +1.2146074e-12 </wgt>
<wgt id='1540'> +1.2133000e-12 </wgt>
<wgt id='1541'> +1.2154571e-12 </wgt>
<wgt id='1542'> +1.2134438e-12 </wgt>
<wgt id='1543'> +1.2160351e-12 </wgt>
<wgt id='1544'> +1.2168875e-12 </wgt>
<wgt id='1545'> +1.2136883e-12 </wgt>
<wgt id='1546'> +1.2142852e-12 </wgt>
<wgt id='1547'> +1.2143073e-12 </wgt>
<wgt id='1548'> +1.2163745e-12 </wgt>
<wgt id='1549'> +1.2161964e-12 </wgt>
<wgt id='1550'> +1.2140171e-12 </wgt>
<wgt id='1551'> +1.2162970e-12 </wgt>
<wgt id='1552'> +1.2148420e-12 </wgt>
<wgt id='1553'> +1.2141572e-12 </wgt>
<wgt id='1554'> +1.2135093e-12 </wgt>
<wgt id='1555'> +1.2149743e-12 </wgt>
<wgt id='1556'> +1.2156259e-12 </wgt>
<wgt id='1557'> +1.2156874e-12 </wgt>
<wgt id='1558'> +1.2151514e-12 </wgt>
<wgt id='1559'> +1.2140544e-12 </wgt>
<wgt id='1560'> +1.2154739e-12 </wgt>
<wgt id='1561'> +1.2148904e-12 </wgt>
<wgt id='1562'> +1.2148374e-12 </wgt>
<wgt id='1563'> +1.2155404e-12 </wgt>
<wgt id='1564'> +1.2151824e-12 </wgt>
<wgt id='1565'> +1.2150473e-12 </wgt>
<wgt id='1566'> +1.2152953e-12 </wgt>
<wgt id='1567'> +1.2152741e-12 </wgt>
<wgt id='1568'> +1.2143762e-12 </wgt>
<wgt id='1569'> +1.2152754e-12 </wgt>
<wgt id='1570'> +1.2150829e-12 </wgt>
<wgt id='1571'> +1.2148940e-12 </wgt>
<wgt id='1572'> +1.2150437e-12 </wgt>
<wgt id='1573'> +1.2152226e-12 </wgt>
<wgt id='1574'> +1.2145835e-12 </wgt>
<wgt id='1575'> +1.2148906e-12 </wgt>
<wgt id='1576'> +1.2152007e-12 </wgt>
<wgt id='1577'> +1.2154669e-12 </wgt>
<wgt id='1578'> +1.2147727e-12 </wgt>
<wgt id='1579'> +1.2151221e-12 </wgt>
<wgt id='1580'> +1.2153205e-12 </wgt>
<wgt id='1581'> +1.2157270e-12 </wgt>
<wgt id='1582'> +1.2152529e-12 </wgt>
<wgt id='1583'> +1.2151124e-12 </wgt>
<wgt id='1584'> +1.2155388e-12 </wgt>
<wgt id='1585'> +1.2147439e-12 </wgt>
<wgt id='1586'> +1.2160122e-12 </wgt>
<wgt id='1587'> +1.2158846e-12 </wgt>
<wgt id='1588'> +1.2146618e-12 </wgt>
<wgt id='1589'> +1.2150308e-12 </wgt>
<wgt id='1590'> +1.2148946e-12 </wgt>
<wgt id='1591'> +1.2146991e-12 </wgt>
<wgt id='1592'> +1.2150681e-12 </wgt>
<wgt id='1593'> +1.2161458e-12 </wgt>
<wgt id='1594'> +1.2150086e-12 </wgt>
<wgt id='1595'> +1.2155244e-12 </wgt>
<wgt id='1596'> +1.2149034e-12 </wgt>
<wgt id='1597'> +1.2150113e-12 </wgt>
<wgt id='1598'> +1.2156803e-12 </wgt>
<wgt id='1599'> +1.2149692e-12 </wgt>
<wgt id='1600'> +1.2149143e-12 </wgt>
<wgt id='1601'> +1.2156199e-12 </wgt>
<wgt id='1602'> +1.2154068e-12 </wgt>
<wgt id='1603'> +1.2153702e-12 </wgt>
<wgt id='1604'> +1.2151716e-12 </wgt>
<wgt id='1605'> +1.2155981e-12 </wgt>
<wgt id='1606'> +1.2140265e-12 </wgt>
<wgt id='1607'> +1.2156015e-12 </wgt>
<wgt id='1608'> +1.2151374e-12 </wgt>
<wgt id='1609'> +1.2151246e-12 </wgt>
<wgt id='1610'> +1.1895857e-12 </wgt>
<wgt id='1611'> +1.2408707e-12 </wgt>
<wgt id='1612'> +1.4583952e-12 </wgt>
<wgt id='1613'> +1.4862292e-12 </wgt>
<wgt id='1614'> +1.4678577e-12 </wgt>
<wgt id='1615'> +1.4537241e-12 </wgt>
<wgt id='1616'> +1.4643063e-12 </wgt>
<wgt id='1617'> +1.4089919e-12 </wgt>
<wgt id='1618'> +1.3696420e-12 </wgt>
<wgt id='1619'> +1.4541930e-12 </wgt>
<wgt id='1620'> +1.4712889e-12 </wgt>
<wgt id='1621'> +1.4473758e-12 </wgt>
<wgt id='1622'> +1.4636093e-12 </wgt>
<wgt id='1623'> +1.4561727e-12 </wgt>
<wgt id='1624'> +1.4389608e-12 </wgt>
<wgt id='1625'> +1.4742545e-12 </wgt>
<wgt id='1626'> +1.4772865e-12 </wgt>
<wgt id='1627'> +1.4468578e-12 </wgt>
<wgt id='1628'> +1.4931344e-12 </wgt>
<wgt id='1629'> +1.5010473e-12 </wgt>
<wgt id='1630'> +1.4694003e-12 </wgt>
<wgt id='1631'> +1.4555038e-12 </wgt>
<wgt id='1632'> +1.5023490e-12 </wgt>
<wgt id='1633'> +1.4395678e-12 </wgt>
<wgt id='1634'> +1.4806744e-12 </wgt>
<wgt id='1635'> +1.4407424e-12 </wgt>
<wgt id='1636'> +1.4239729e-12 </wgt>
<wgt id='1637'> +1.4038646e-12 </wgt>
<wgt id='1638'> +1.4738566e-12 </wgt>
<wgt id='1639'> +1.4770249e-12 </wgt>
<wgt id='1640'> +1.4929071e-12 </wgt>
<wgt id='1641'> +1.4379423e-12 </wgt>
<wgt id='1642'> +1.4763055e-12 </wgt>
<wgt id='1643'> +1.4951106e-12 </wgt>
<wgt id='1644'> +1.4241175e-12 </wgt>
<wgt id='1645'> +1.4863793e-12 </wgt>
<wgt id='1646'> +1.5060672e-12 </wgt>
<wgt id='1647'> +1.4883829e-12 </wgt>
<wgt id='1648'> +1.4794767e-12 </wgt>
<wgt id='1649'> +1.3887062e-12 </wgt>
<wgt id='1650'> +1.4657774e-12 </wgt>
<wgt id='1651'> +1.4093442e-12 </wgt>
<wgt id='1652'> +1.4901773e-12 </wgt>
<wgt id='1653'> +1.4195843e-12 </wgt>
<wgt id='1654'> +1.4093925e-12 </wgt>
<wgt id='1655'> +1.4227354e-12 </wgt>
<wgt id='1656'> +1.4691406e-12 </wgt>
<wgt id='1657'> +1.4237931e-12 </wgt>
<wgt id='1658'> +1.4592217e-12 </wgt>
<wgt id='1659'> +1.4389608e-12 </wgt>
<wgt id='1660'> +1.4280491e-12 </wgt>
<wgt id='1661'> +1.4306723e-12 </wgt>
<wgt id='1662'> +1.4729323e-12 </wgt>
<wgt id='1663'> +1.4521497e-12 </wgt>
<wgt id='1664'> +1.5288036e-12 </wgt>
<wgt id='1665'> +1.4702701e-12 </wgt>
<wgt id='1666'> +1.4302498e-12 </wgt>
<wgt id='1667'> +1.4475036e-12 </wgt>
<wgt id='1668'> +1.4391370e-12 </wgt>
<wgt id='1669'> +1.4506277e-12 </wgt>
<wgt id='1670'> +1.4714250e-12 </wgt>
<wgt id='1671'> +1.4991649e-12 </wgt>
<wgt id='1672'> +1.4919107e-12 </wgt>
<wgt id='1673'> +1.4197995e-12 </wgt>
<wgt id='1674'> +1.4602860e-12 </wgt>
<wgt id='1675'> +1.5204316e-12 </wgt>
<wgt id='1676'> +1.4476267e-12 </wgt>
<wgt id='1677'> +1.4688182e-12 </wgt>
<wgt id='1678'> +1.4546345e-12 </wgt>
<wgt id='1679'> +1.4774125e-12 </wgt>
<wgt id='1680'> +1.4896985e-12 </wgt>
<wgt id='1681'> +1.4833691e-12 </wgt>
<wgt id='1682'> +1.4524983e-12 </wgt>
<wgt id='1683'> +1.4413194e-12 </wgt>
<wgt id='1684'> +1.4491496e-12 </wgt>
<wgt id='1685'> +1.4604560e-12 </wgt>
<wgt id='1686'> +1.4711509e-12 </wgt>
<wgt id='1687'> +1.4894805e-12 </wgt>
<wgt id='1688'> +1.4617997e-12 </wgt>
<wgt id='1689'> +1.4524309e-12 </wgt>
<wgt id='1690'> +1.4489897e-12 </wgt>
<wgt id='1691'> +1.4912475e-12 </wgt>
<wgt id='1692'> +1.4814350e-12 </wgt>
<wgt id='1693'> +1.4756725e-12 </wgt>
<wgt id='1694'> +1.4036936e-12 </wgt>
<wgt id='1695'> +1.4938033e-12 </wgt>
<wgt id='1696'> +1.5141873e-12 </wgt>
<wgt id='1697'> +1.4306553e-12 </wgt>
<wgt id='1698'> +1.4363269e-12 </wgt>
<wgt id='1699'> +1.4316045e-12 </wgt>
<wgt id='1700'> +1.4449867e-12 </wgt>
<wgt id='1701'> +1.4621545e-12 </wgt>
<wgt id='1702'> +1.4226616e-12 </wgt>
<wgt id='1703'> +1.4939980e-12 </wgt>
<wgt id='1704'> +1.4531102e-12 </wgt>
<wgt id='1705'> +1.4785031e-12 </wgt>
<wgt id='1706'> +1.4520023e-12 </wgt>
<wgt id='1707'> +1.4303633e-12 </wgt>
<wgt id='1708'> +1.4412085e-12 </wgt>
<wgt id='1709'> +1.4624782e-12 </wgt>
<wgt id='1710'> +1.4265452e-12 </wgt>
<wgt id='1711'> +1.4489166e-12 </wgt>
<wgt id='1712'> +1.4780602e-12 </wgt>
<wgt id='1713'> +1.2456817e-12 </wgt>
<wgt id='1714'> +1.1954641e-12 </wgt>
<wgt id='1715'> +1.2417390e-12 </wgt>
<wgt id='1716'> +1.2424966e-12 </wgt>
<wgt id='1717'> +1.2246669e-12 </wgt>
<wgt id='1718'> +1.2206360e-12 </wgt>
<wgt id='1719'> +1.2545254e-12 </wgt>
<wgt id='1720'> +1.2637217e-12 </wgt>
<wgt id='1721'> +1.2328561e-12 </wgt>
<wgt id='1722'> +1.2362335e-12 </wgt>
<wgt id='1723'> +1.2165832e-12 </wgt>
<wgt id='1724'> +1.2583746e-12 </wgt>
<wgt id='1725'> +1.2660190e-12 </wgt>
<wgt id='1726'> +1.2688653e-12 </wgt>
<wgt id='1727'> +1.2225755e-12 </wgt>
<wgt id='1728'> +1.2466629e-12 </wgt>
<wgt id='1729'> +1.2517361e-12 </wgt>
<wgt id='1730'> +1.2190475e-12 </wgt>
<wgt id='1731'> +1.2130100e-12 </wgt>
<wgt id='1732'> +1.2551629e-12 </wgt>
<wgt id='1733'> +1.2451214e-12 </wgt>
<wgt id='1734'> +1.2594682e-12 </wgt>
<wgt id='1735'> +1.2519182e-12 </wgt>
<wgt id='1736'> +1.3433250e-12 </wgt>
<wgt id='1737'> +1.2509684e-12 </wgt>
<wgt id='1738'> +1.2674407e-12 </wgt>
<wgt id='1739'> +1.2129772e-12 </wgt>
<wgt id='1740'> +1.2016557e-12 </wgt>
<wgt id='1741'> +1.2477443e-12 </wgt>
<wgt id='1742'> +1.2276201e-12 </wgt>
<wgt id='1743'> +1.2689299e-12 </wgt>
<wgt id='1744'> +1.2598269e-12 </wgt>
<wgt id='1745'> +1.2030236e-12 </wgt>
<wgt id='1746'> +1.2696460e-12 </wgt>
<wgt id='1747'> +1.2693773e-12 </wgt>
<wgt id='1748'> +1.2413048e-12 </wgt>
<wgt id='1749'> +1.2686975e-12 </wgt>
<wgt id='1750'> +1.2649892e-12 </wgt>
<wgt id='1751'> +1.2199454e-12 </wgt>
<wgt id='1752'> +1.1960730e-12 </wgt>
<wgt id='1753'> +1.2751914e-12 </wgt>
<wgt id='1754'> +1.2309169e-12 </wgt>
<wgt id='1755'> +1.2616868e-12 </wgt>
<wgt id='1756'> +1.2728013e-12 </wgt>
<wgt id='1757'> +1.2453444e-12 </wgt>
<wgt id='1758'> +1.2804268e-12 </wgt>
<wgt id='1759'> +1.2480444e-12 </wgt>
<wgt id='1760'> +1.2192410e-12 </wgt>
<wgt id='1761'> +1.2168857e-12 </wgt>
<wgt id='1762'> +1.2483432e-12 </wgt>
<wgt id='1763'> +1.2548531e-12 </wgt>
<wgt id='1764'> +1.2555583e-12 </wgt>
<wgt id='1765'> +1.2460630e-12 </wgt>
<wgt id='1766'> +1.2722688e-12 </wgt>
<wgt id='1767'> +1.2458370e-12 </wgt>
<wgt id='1768'> +1.2474519e-12 </wgt>
<wgt id='1769'> +1.2159334e-12 </wgt>
<wgt id='1770'> +1.2769065e-12 </wgt>
<wgt id='1771'> +1.2512854e-12 </wgt>
<wgt id='1772'> +1.2600410e-12 </wgt>
<wgt id='1773'> +1.2372499e-12 </wgt>
<wgt id='1774'> +1.2505018e-12 </wgt>
<wgt id='1775'> +1.2503149e-12 </wgt>
<wgt id='1776'> +1.2719452e-12 </wgt>
<wgt id='1777'> +1.2211385e-12 </wgt>
<wgt id='1778'> +1.2239135e-12 </wgt>
<wgt id='1779'> +1.2737731e-12 </wgt>
<wgt id='1780'> +1.2705240e-12 </wgt>
<wgt id='1781'> +1.2295685e-12 </wgt>
<wgt id='1782'> +1.2055061e-12 </wgt>
<wgt id='1783'> +1.2644934e-12 </wgt>
<wgt id='1784'> +1.2715100e-12 </wgt>
<wgt id='1785'> +1.2342168e-12 </wgt>
<wgt id='1786'> +1.1633430e-12 </wgt>
<wgt id='1787'> +1.2666480e-12 </wgt>
<wgt id='1788'> +1.2274293e-12 </wgt>
<wgt id='1789'> +1.2430693e-12 </wgt>
<wgt id='1790'> +1.2787466e-12 </wgt>
<wgt id='1791'> +1.2879993e-12 </wgt>
<wgt id='1792'> +1.2249806e-12 </wgt>
<wgt id='1793'> +1.2597812e-12 </wgt>
<wgt id='1794'> +1.2509099e-12 </wgt>
<wgt id='1795'> +1.2364027e-12 </wgt>
<wgt id='1796'> +1.2336970e-12 </wgt>
<wgt id='1797'> +1.2508824e-12 </wgt>
<wgt id='1798'> +1.2142183e-12 </wgt>
<wgt id='1799'> +1.2467583e-12 </wgt>
<wgt id='1800'> +1.2442953e-12 </wgt>
<wgt id='1801'> +1.2364716e-12 </wgt>
<wgt id='1802'> +1.2525362e-12 </wgt>
<wgt id='1803'> +1.2500275e-12 </wgt>
<wgt id='1804'> +1.2092905e-12 </wgt>
<wgt id='1805'> +1.2624820e-12 </wgt>
<wgt id='1806'> +1.2239147e-12 </wgt>
<wgt id='1807'> +1.2800634e-12 </wgt>
<wgt id='1808'> +1.2423322e-12 </wgt>
<wgt id='1809'> +1.2400514e-12 </wgt>
<wgt id='1810'> +1.2368156e-12 </wgt>
<wgt id='1811'> +1.2840119e-12 </wgt>
<wgt id='1812'> +1.2648847e-12 </wgt>
<wgt id='1813'> +1.2313108e-12 </wgt>
<wgt id='1814'> +1.0818169e-12 </wgt>
<wgt id='1815'> +1.2491762e-12 </wgt>
<wgt id='1816'> +1.2456817e-12 </wgt>
<wgt id='1817'> +1.1954641e-12 </wgt>
<wgt id='1818'> +1.2417390e-12 </wgt>
<wgt id='1819'> +1.2424966e-12 </wgt>
<wgt id='1820'> +1.2246669e-12 </wgt>
<wgt id='1821'> +1.2206360e-12 </wgt>
<wgt id='1822'> +1.2545254e-12 </wgt>
<wgt id='1823'> +1.2637217e-12 </wgt>
<wgt id='1824'> +1.2328561e-12 </wgt>
<wgt id='1825'> +1.2362335e-12 </wgt>
<wgt id='1826'> +1.2165832e-12 </wgt>
<wgt id='1827'> +1.2583746e-12 </wgt>
<wgt id='1828'> +1.2660190e-12 </wgt>
<wgt id='1829'> +1.2688653e-12 </wgt>
<wgt id='1830'> +1.2225755e-12 </wgt>
<wgt id='1831'> +1.2466629e-12 </wgt>
<wgt id='1832'> +1.2517361e-12 </wgt>
<wgt id='1833'> +1.2190475e-12 </wgt>
<wgt id='1834'> +1.2130100e-12 </wgt>
<wgt id='1835'> +1.2551629e-12 </wgt>
<wgt id='1836'> +1.2451214e-12 </wgt>
<wgt id='1837'> +1.2594682e-12 </wgt>
<wgt id='1838'> +1.2519182e-12 </wgt>
<wgt id='1839'> +1.3433250e-12 </wgt>
<wgt id='1840'> +1.2509684e-12 </wgt>
<wgt id='1841'> +1.2674407e-12 </wgt>
<wgt id='1842'> +1.2129772e-12 </wgt>
<wgt id='1843'> +1.2016557e-12 </wgt>
<wgt id='1844'> +1.2477443e-12 </wgt>
<wgt id='1845'> +1.2276201e-12 </wgt>
<wgt id='1846'> +1.2689299e-12 </wgt>
<wgt id='1847'> +1.2598269e-12 </wgt>
<wgt id='1848'> +1.2030236e-12 </wgt>
<wgt id='1849'> +1.2696460e-12 </wgt>
<wgt id='1850'> +1.2693773e-12 </wgt>
<wgt id='1851'> +1.2413048e-12 </wgt>
<wgt id='1852'> +1.2686975e-12 </wgt>
<wgt id='1853'> +1.2649892e-12 </wgt>
<wgt id='1854'> +1.2199454e-12 </wgt>
<wgt id='1855'> +1.1960730e-12 </wgt>
<wgt id='1856'> +1.2751914e-12 </wgt>
<wgt id='1857'> +1.2309169e-12 </wgt>
<wgt id='1858'> +1.2616868e-12 </wgt>
<wgt id='1859'> +1.2728013e-12 </wgt>
<wgt id='1860'> +1.2453444e-12 </wgt>
<wgt id='1861'> +1.2804268e-12 </wgt>
<wgt id='1862'> +1.2480444e-12 </wgt>
<wgt id='1863'> +1.2192410e-12 </wgt>
<wgt id='1864'> +1.2168857e-12 </wgt>
<wgt id='1865'> +1.2483432e-12 </wgt>
<wgt id='1866'> +1.2548531e-12 </wgt>
<wgt id='1867'> +1.2555583e-12 </wgt>
<wgt id='1868'> +1.2460630e-12 </wgt>
<wgt id='1869'> +1.2722688e-12 </wgt>
<wgt id='1870'> +1.2458370e-12 </wgt>
<wgt id='1871'> +1.2474519e-12 </wgt>
<wgt id='1872'> +1.2159334e-12 </wgt>
<wgt id='1873'> +1.2769065e-12 </wgt>
<wgt id='1874'> +1.2512854e-12 </wgt>
<wgt id='1875'> +1.2600410e-12 </wgt>
<wgt id='1876'> +1.2372499e-12 </wgt>
<wgt id='1877'> +1.2505018e-12 </wgt>
<wgt id='1878'> +1.2503149e-12 </wgt>
<wgt id='1879'> +1.2719452e-12 </wgt>
<wgt id='1880'> +1.2211385e-12 </wgt>
<wgt id='1881'> +1.2239135e-12 </wgt>
<wgt id='1882'> +1.2737731e-12 </wgt>
<wgt id='1883'> +1.2705240e-12 </wgt>
<wgt id='1884'> +1.2295685e-12 </wgt>
<wgt id='1885'> +1.2055061e-12 </wgt>
<wgt id='1886'> +1.2644934e-12 </wgt>
<wgt id='1887'> +1.2715100e-12 </wgt>
<wgt id='1888'> +1.2342168e-12 </wgt>
<wgt id='1889'> +1.1633430e-12 </wgt>
<wgt id='1890'> +1.2666480e-12 </wgt>
<wgt id='1891'> +1.2274293e-12 </wgt>
<wgt id='1892'> +1.2430693e-12 </wgt>
<wgt id='1893'> +1.2787466e-12 </wgt>
<wgt id='1894'> +1.2879993e-12 </wgt>
<wgt id='1895'> +1.2249806e-12 </wgt>
<wgt id='1896'> +1.2597812e-12 </wgt>
<wgt id='1897'> +1.2509099e-12 </wgt>
<wgt id='1898'> +1.2364027e-12 </wgt>
<wgt id='1899'> +1.2336970e-12 </wgt>
<wgt id='1900'> +1.2508824e-12 </wgt>
<wgt id='1901'> +1.2142183e-12 </wgt>
<wgt id='1902'> +1.2467583e-12 </wgt>
<wgt id='1903'> +1.2442953e-12 </wgt>
<wgt id='1904'> +1.2364716e-12 </wgt>
<wgt id='1905'> +1.2525362e-12 </wgt>
<wgt id='1906'> +1.2500275e-12 </wgt>
<wgt id='1907'> +1.2092905e-12 </wgt>
<wgt id='1908'> +1.2624820e-12 </wgt>
<wgt id='1909'> +1.2239147e-12 </wgt>
<wgt id='1910'> +1.2800634e-12 </wgt>
<wgt id='1911'> +1.2423322e-12 </wgt>
<wgt id='1912'> +1.2400514e-12 </wgt>
<wgt id='1913'> +1.2368156e-12 </wgt>
<wgt id='1914'> +1.2840119e-12 </wgt>
<wgt id='1915'> +1.2648847e-12 </wgt>
<wgt id='1916'> +1.2313108e-12 </wgt>
<wgt id='1917'> +1.2292692e-12 </wgt>
<wgt id='1918'> +1.2566741e-12 </wgt>
<wgt id='1919'> +1.2095737e-12 </wgt>
</rwgt>
</event>
<event>
 9      1 +1.5538000e-12 3.69847600e+01 7.81860800e-03 1.38954000e-01
       21 -1    0    0  501  502 +0.0000000000e+00 +0.0000000000e+00 +8.2446732658e+01 8.2446732658e+01 0.0000000000e+00 0.0000e+00 -1.0000e+00
        1 -1    0    0  502    0 -0.0000000000e+00 -0.0000000000e+00 -1.7104800420e+01 1.7104800420e+01 0.0000000000e+00 0.0000e+00 -1.0000e+00
     1023  2    1    2    0    0 +7.5380008506e+00 -3.2956477613e+01 +1.7362022181e+01 4.0857217828e+01 1.4997385137e+01 0.0000e+00 0.0000e+00
  1000023  2    3    3    0    0 -8.1497137922e-02 -5.0777495046e+00 +5.1474470274e+00 9.0849645758e+00 5.5000171479e+00 0.0000e+00 0.0000e+00
        1  1    1    2  501    0 -7.5380008506e+00 +3.2956477613e+01 +4.7979910058e+01 5.8694315250e+01 0.0000000000e+00 0.0000e+00 -1.0000e+00
  1000022  1    4    4    0    0 +1.9568726893e-02 -4.6102198608e+00 +4.1616875767e+00 7.9733401775e+00 5.0000000000e+00 0.0000e+00 -1.0000e+00
      -11  1    4    4    0    0 -4.3556159248e-02 -4.4475779877e-01 +8.0710414553e-01 9.2256381971e-01 5.1100000000e-04 0.0000e+00 -1.0000e+00
       11  1    4    4    0    0 -5.7509705567e-02 -2.2771845031e-02 +1.7865530525e-01 1.8906057859e-01 5.1100000000e-04 0.0000e+00 1.0000e+00
  1000022  1    3    3    0    0 +7.6194979885e+00 -2.7878728109e+01 +1.2214575153e+01 3.1772253252e+01 5.0000000000e+00 0.0000e+00 -1.0000e+00
<mgrwt>
<rscale>  1 0.36984759E+02</rscale>
<asrwt>0</asrwt>
<pdfrwt beam="1">  1       21 0.12684113E-01 0.36984759E+02</pdfrwt>
<pdfrwt beam="2">  1        1 0.26315078E-02 0.36984759E+02</pdfrwt>
<totfact> 0.22660612E+06</totfact>
</mgrwt>
<rwgt>
<wgt id='1001'> +1.5538000e-12 </wgt>
<wgt id='1002'> +1.5508872e-12 </wgt>
<wgt id='1003'> +1.5505848e-12 </wgt>
<wgt id='1004'> +1.5529518e-12 </wgt>
<wgt id='1005'> +1.5490426e-12 </wgt>
<wgt id='1006'> +1.3671254e-12 </wgt>
<wgt id='1007'> +1.3839840e-12 </wgt>
<wgt id='1008'> +1.3840859e-12 </wgt>
<wgt id='1009'> +1.3646900e-12 </wgt>
<wgt id='1010'> +1.3844407e-12 </wgt>
<wgt id='1011'> +1.8022876e-12 </wgt>
<wgt id='1012'> +1.7654492e-12 </wgt>
<wgt id='1013'> +1.7644912e-12 </wgt>
<wgt id='1014'> +1.8043570e-12 </wgt>
<wgt id='1015'> +1.7598811e-12 </wgt>
<wgt id='1016'> +1.7609923e-12 </wgt>
<wgt id='1017'> +1.7104082e-12 </wgt>
<wgt id='1018'> +1.7092398e-12 </wgt>
<wgt id='1019'> +1.7644912e-12 </wgt>
<wgt id='1020'> +1.7036611e-12 </wgt>
<wgt id='1021'> +1.5494255e-12 </wgt>
<wgt id='1022'> +1.5263377e-12 </wgt>
<wgt id='1023'> +1.5257048e-12 </wgt>
<wgt id='1024'> +1.5505848e-12 </wgt>
<wgt id='1025'> +1.5226293e-12 </wgt>
<wgt id='1026'> +2.0426147e-12 </wgt>
<wgt id='1027'> +1.9470396e-12 </wgt>
<wgt id='1028'> +1.9450329e-12 </wgt>
<wgt id='1029'> +2.0501422e-12 </wgt>
<wgt id='1030'> +1.9355445e-12 </wgt>
<wgt id='1031'> +1.3115735e-12 </wgt>
<wgt id='1032'> +1.3639793e-12 </wgt>
<wgt id='1033'> +1.3646900e-12 </wgt>
<wgt id='1034'> +1.3057092e-12 </wgt>
<wgt id='1035'> +1.3678508e-12 </wgt>
<wgt id='1036'> +1.1540002e-12 </wgt>
<wgt id='1037'> +1.2171907e-12 </wgt>
<wgt id='1038'> +1.2181521e-12 </wgt>
<wgt id='1039'> +1.1474202e-12 </wgt>
<wgt id='1040'> +1.2225024e-12 </wgt>
<wgt id='1041'> +1.5213237e-12 </wgt>
<wgt id='1042'> +1.5526830e-12 </wgt>
<wgt id='1043'> +1.5529518e-12 </wgt>
<wgt id='1044'> +1.5170885e-12 </wgt>
<wgt id='1045'> +1.5540274e-12 </wgt>
<wgt id='1046'> +1.5538000e-12 </wgt>
<wgt id='1047'> +1.5406971e-12 </wgt>
<wgt id='1048'> +1.5430175e-12 </wgt>
<wgt id='1049'> +1.5055975e-12 </wgt>
<wgt id='1050'> +1.5522483e-12 </wgt>
<wgt id='1051'> +1.5933544e-12 </wgt>
<wgt id='1052'> +1.5832974e-12 </wgt>
<wgt id='1053'> +1.5541237e-12 </wgt>
<wgt id='1054'> +1.5001050e-12 </wgt>
<wgt id='1055'> +1.5481766e-12 </wgt>
<wgt id='1056'> +1.5926790e-12 </wgt>
<wgt id='1057'> +1.5639946e-12 </wgt>
<wgt id='1058'> +1.5192807e-12 </wgt>
<wgt id='1059'> +1.5582814e-12 </wgt>
<wgt id='1060'> +1.5082598e-12 </wgt>
<wgt id='1061'> +1.5848343e-12 </wgt>
<wgt id='1062'> +1.5860702e-12 </wgt>
<wgt id='1063'> +1.6101745e-12 </wgt>
<wgt id='1064'> +1.5472506e-12 </wgt>
<wgt id='1065'> +1.5608691e-12 </wgt>
<wgt id='1066'> +1.5530975e-12 </wgt>
<wgt id='1067'> +1.5066443e-12 </wgt>
<wgt id='1068'> +1.5622906e-12 </wgt>
<wgt id='1069'> +1.5616320e-12 </wgt>
<wgt id='1070'> +1.5355300e-12 </wgt>
<wgt id='1071'> +1.5258320e-12 </wgt>
<wgt id='1072'> +1.5315912e-12 </wgt>
<wgt id='1073'> +1.6265387e-12 </wgt>
<wgt id='1074'> +1.5300182e-12 </wgt>
<wgt id='1075'> +1.5746258e-12 </wgt>
<wgt id='1076'> +1.6010271e-12 </wgt>
<wgt id='1077'> +1.5386649e-12 </wgt>
<wgt id='1078'> +1.5511543e-12 </wgt>
<wgt id='1079'> +1.5664791e-12 </wgt>
<wgt id='1080'> +1.5081414e-12 </wgt>
<wgt id='1081'> +1.5969120e-12 </wgt>
<wgt id='1082'> +1.5408615e-12 </wgt>
<wgt id='1083'> +1.5739058e-12 </wgt>
<wgt id='1084'> +1.5600483e-12 </wgt>
<wgt id='1085'> +1.5251443e-12 </wgt>
<wgt id='1086'> +1.5299337e-12 </wgt>
<wgt id='1087'> +1.5671752e-12 </wgt>
<wgt id='1088'> +1.5322380e-12 </wgt>
<wgt id='1089'> +1.5836103e-12 </wgt>
<wgt id='1090'> +1.5534797e-12 </wgt>
<wgt id='1091'> +1.5431781e-12 </wgt>
<wgt id='1092'> +1.5717040e-12 </wgt>
<wgt id='1093'> +1.5362105e-12 </wgt>
<wgt id='1094'> +1.4918370e-12 </wgt>
<wgt id='1095'> +1.6021434e-12 </wgt>
<wgt id='1096'> +1.6238619e-12 </wgt>
<wgt id='1097'> +1.5130777e-12 </wgt>
<wgt id='1098'> +1.5366380e-12 </wgt>
<wgt id='1099'> +1.5745311e-12 </wgt>
<wgt id='1100'> +1.5445077e-12 </wgt>
<wgt id='1101'> +1.4974291e-12 </wgt>
<wgt id='1102'> +1.5600081e-12 </wgt>
<wgt id='1103'> +1.5725250e-12 </wgt>
<wgt id='1104'> +1.5433732e-12 </wgt>
<wgt id='1105'> +1.5963529e-12 </wgt>
<wgt id='1106'> +1.5279093e-12 </wgt>
<wgt id='1107'> +1.5751266e-12 </wgt>
<wgt id='1108'> +1.5498487e-12 </wgt>
<wgt id='1109'> +1.5710991e-12 </wgt>
<wgt id='1110'> +1.5090861e-12 </wgt>
<wgt id='1111'> +1.5671046e-12 </wgt>
<wgt id='1112'> +1.5447631e-12 </wgt>
<wgt id='1113'> +1.5307439e-12 </wgt>
<wgt id='1114'> +1.5928633e-12 </wgt>
<wgt id='1115'> +1.5503698e-12 </wgt>
<wgt id='1116'> +1.5093595e-12 </wgt>
<wgt id='1117'> +1.5768442e-12 </wgt>
<wgt id='1118'> +1.6047410e-12 </wgt>
<wgt id='1119'> +1.5455783e-12 </wgt>
<wgt id='1120'> +1.5690283e-12 </wgt>
<wgt id='1121'> +1.5639356e-12 </wgt>
<wgt id='1122'> +1.5464633e-12 </wgt>
<wgt id='1123'> +1.5347085e-12 </wgt>
<wgt id='1124'> +1.5552844e-12 </wgt>
<wgt id='1125'> +1.5622750e-12 </wgt>
<wgt id='1126'> +1.5608807e-12 </wgt>
<wgt id='1127'> +1.5284468e-12 </wgt>
<wgt id='1128'> +1.5860702e-12 </wgt>
<wgt id='1129'> +1.5473275e-12 </wgt>
<wgt id='1130'> +1.5513745e-12 </wgt>
<wgt id='1131'> +1.5428489e-12 </wgt>
<wgt id='1132'> +1.5542549e-12 </wgt>
<wgt id='1133'> +1.5790120e-12 </wgt>
<wgt id='1134'> +1.5970743e-12 </wgt>
<wgt id='1135'> +1.5520577e-12 </wgt>
<wgt id='1136'> +1.5245937e-12 </wgt>
<wgt id='1137'> +1.5271003e-12 </wgt>
<wgt id='1138'> +1.5487576e-12 </wgt>
<wgt id='1139'> +1.5778820e-12 </wgt>
<wgt id='1140'> +1.5813546e-12 </wgt>
<wgt id='1141'> +1.5147766e-12 </wgt>
<wgt id='1142'> +1.5319918e-12 </wgt>
<wgt id='1143'> +1.5376039e-12 </wgt>
<wgt id='1144'> +1.5626595e-12 </wgt>
<wgt id='1145'> +1.5371274e-12 </wgt>
<wgt id='1146'> +1.5529367e-12 </wgt>
<wgt id='1147'> +1.2284213e-12 </wgt>
<wgt id='1148'> +1.2539952e-12 </wgt>
<wgt id='1149'> +1.2560865e-12 </wgt>
<wgt id='1150'> +1.2080414e-12 </wgt>
<wgt id='1151'> +1.1171647e-12 </wgt>
<wgt id='1152'> +1.4822485e-12 </wgt>
<wgt id='1153'> +1.4753973e-12 </wgt>
<wgt id='1154'> +1.4862393e-12 </wgt>
<wgt id='1155'> +1.4818578e-12 </wgt>
<wgt id='1156'> +1.4824500e-12 </wgt>
<wgt id='1157'> +1.4852816e-12 </wgt>
<wgt id='1158'> +1.4781249e-12 </wgt>
<wgt id='1159'> +1.4845831e-12 </wgt>
<wgt id='1160'> +1.4807610e-12 </wgt>
<wgt id='1161'> +1.4760786e-12 </wgt>
<wgt id='1162'> +1.4865098e-12 </wgt>
<wgt id='1163'> +1.4864767e-12 </wgt>
<wgt id='1164'> +1.4781114e-12 </wgt>
<wgt id='1165'> +1.4741839e-12 </wgt>
<wgt id='1166'> +1.4900349e-12 </wgt>
<wgt id='1167'> +1.4874325e-12 </wgt>
<wgt id='1168'> +1.4742815e-12 </wgt>
<wgt id='1169'> +1.4813074e-12 </wgt>
<wgt id='1170'> +1.4831650e-12 </wgt>
<wgt id='1171'> +1.4811610e-12 </wgt>
<wgt id='1172'> +1.4836110e-12 </wgt>
<wgt id='1173'> +1.4757447e-12 </wgt>
<wgt id='1174'> +1.4880973e-12 </wgt>
<wgt id='1175'> +1.4843632e-12 </wgt>
<wgt id='1176'> +1.4798463e-12 </wgt>
<wgt id='1177'> +1.4822275e-12 </wgt>
<wgt id='1178'> +1.4828049e-12 </wgt>
<wgt id='1179'> +1.4950102e-12 </wgt>
<wgt id='1180'> +1.4650585e-12 </wgt>
<wgt id='1181'> +1.4775504e-12 </wgt>
<wgt id='1182'> +1.4873311e-12 </wgt>
<wgt id='1183'> +1.4818582e-12 </wgt>
<wgt id='1184'> +1.4823434e-12 </wgt>
<wgt id='1185'> +1.4765634e-12 </wgt>
<wgt id='1186'> +1.4853454e-12 </wgt>
<wgt id='1187'> +1.4802284e-12 </wgt>
<wgt id='1188'> +1.4829644e-12 </wgt>
<wgt id='1189'> +1.4785671e-12 </wgt>
<wgt id='1190'> +1.4715388e-12 </wgt>
<wgt id='1191'> +1.4764274e-12 </wgt>
<wgt id='1192'> +1.4839573e-12 </wgt>
<wgt id='1193'> +1.2831299e-12 </wgt>
<wgt id='1194'> +1.2825842e-12 </wgt>
<wgt id='1195'> +1.2834999e-12 </wgt>
<wgt id='1196'> +1.2887243e-12 </wgt>
<wgt id='1197'> +1.2768827e-12 </wgt>
<wgt id='1198'> +1.2834489e-12 </wgt>
<wgt id='1199'> +1.2825881e-12 </wgt>
<wgt id='1200'> +1.2852619e-12 </wgt>
<wgt id='1201'> +1.2816651e-12 </wgt>
<wgt id='1202'> +1.2813705e-12 </wgt>
<wgt id='1203'> +1.2855821e-12 </wgt>
<wgt id='1204'> +1.2724447e-12 </wgt>
<wgt id='1205'> +1.2897252e-12 </wgt>
<wgt id='1206'> +1.2890532e-12 </wgt>
<wgt id='1207'> +1.2749845e-12 </wgt>
<wgt id='1208'> +1.2758097e-12 </wgt>
<wgt id='1209'> +1.2857886e-12 </wgt>
<wgt id='1210'> +1.2866218e-12 </wgt>
<wgt id='1211'> +1.2714682e-12 </wgt>
<wgt id='1212'> +1.2842835e-12 </wgt>
<wgt id='1213'> +1.2820531e-12 </wgt>
<wgt id='1214'> +1.2705428e-12 </wgt>
<wgt id='1215'> +1.3035747e-12 </wgt>
<wgt id='1216'> +1.2912609e-12 </wgt>
<wgt id='1217'> +1.2778058e-12 </wgt>
<wgt id='1218'> +1.2893002e-12 </wgt>
<wgt id='1219'> +1.2799782e-12 </wgt>
<wgt id='1220'> +1.2844775e-12 </wgt>
<wgt id='1221'> +1.2868135e-12 </wgt>
<wgt id='1222'> +1.2792080e-12 </wgt>
<wgt id='1223'> +1.2896602e-12 </wgt>
<wgt id='1224'> +1.2855884e-12 </wgt>
<wgt id='1225'> +1.2820972e-12 </wgt>
<wgt id='1226'> +1.2818986e-12 </wgt>
<wgt id='1227'> +1.2840039e-12 </wgt>
<wgt id='1228'> +1.2803916e-12 </wgt>
<wgt id='1229'> +1.2842809e-12 </wgt>
<wgt id='1230'> +1.2791671e-12 </wgt>
<wgt id='1231'> +1.2753193e-12 </wgt>
<wgt id='1232'> +1.2809173e-12 </wgt>
<wgt id='1233'> +1.2837549e-12 </wgt>
<wgt id='1234'> +1.2831299e-12 </wgt>
<wgt id='1235'> +1.2749438e-12 </wgt>
<wgt id='1236'> +1.2779775e-12 </wgt>
<wgt id='1237'> +1.2807487e-12 </wgt>
<wgt id='1238'> +1.2854816e-12 </wgt>
<wgt id='1239'> +1.2874106e-12 </wgt>
<wgt id='1240'> +1.2892282e-12 </wgt>
<wgt id='1241'> +1.2880719e-12 </wgt>
<wgt id='1242'> +1.2840350e-12 </wgt>
<wgt id='1243'> +1.2920557e-12 </wgt>
<wgt id='1244'> +1.2809518e-12 </wgt>
<wgt id='1245'> +1.2933121e-12 </wgt>
<wgt id='1246'> +1.2890265e-12 </wgt>
<wgt id='1247'> +1.2872278e-12 </wgt>
<wgt id='1248'> +1.2880260e-12 </wgt>
<wgt id='1249'> +1.2881220e-12 </wgt>
<wgt id='1250'> +1.2893529e-12 </wgt>
<wgt id='1251'> +1.2871205e-12 </wgt>
<wgt id='1252'> +1.2832384e-12 </wgt>
<wgt id='1253'> +1.2918439e-12 </wgt>
<wgt id='1254'> +1.2760065e-12 </wgt>
<wgt id='1255'> +1.2952664e-12 </wgt>
<wgt id='1256'> +1.2923930e-12 </wgt>
<wgt id='1257'> +1.2772217e-12 </wgt>
<wgt id='1258'> +1.3067388e-12 </wgt>
<wgt id='1259'> +1.2705850e-12 </wgt>
<wgt id='1260'> +1.2910750e-12 </wgt>
<wgt id='1261'> +1.2849459e-12 </wgt>
<wgt id='1262'> +1.2911110e-12 </wgt>
<wgt id='1263'> +1.2867302e-12 </wgt>
<wgt id='1264'> +1.2931882e-12 </wgt>
<wgt id='1265'> +1.2855780e-12 </wgt>
<wgt id='1266'> +1.2895852e-12 </wgt>
<wgt id='1267'> +1.2873310e-12 </wgt>
<wgt id='1268'> +1.2902527e-12 </wgt>
<wgt id='1269'> +1.2900007e-12 </wgt>
<wgt id='1270'> +1.2814783e-12 </wgt>
<wgt id='1271'> +1.2809189e-12 </wgt>
<wgt id='1272'> +1.2894068e-12 </wgt>
<wgt id='1273'> +1.2870308e-12 </wgt>
<wgt id='1274'> +1.2899656e-12 </wgt>
<wgt id='1275'> +1.2838382e-12 </wgt>
<wgt id='1276'> +1.2890051e-12 </wgt>
<wgt id='1277'> +1.2864505e-12 </wgt>
<wgt id='1278'> +1.2862898e-12 </wgt>
<wgt id='1279'> +1.2837960e-12 </wgt>
<wgt id='1280'> +1.2886519e-12 </wgt>
<wgt id='1281'> +1.2852293e-12 </wgt>
<wgt id='1282'> +1.2880719e-12 </wgt>
<wgt id='1283'> +1.2790176e-12 </wgt>
<wgt id='1284'> +1.2824196e-12 </wgt>
<wgt id='1285'> +1.2855679e-12 </wgt>
<wgt id='1286'> +1.2905591e-12 </wgt>
<wgt id='1287'> +1.2926658e-12 </wgt>
<wgt id='1288'> +1.2944031e-12 </wgt>
<wgt id='1289'> +1.3069207e-12 </wgt>
<wgt id='1290'> +1.3100342e-12 </wgt>
<wgt id='1291'> +1.3035382e-12 </wgt>
<wgt id='1292'> +1.3017528e-12 </wgt>
<wgt id='1293'> +1.3106237e-12 </wgt>
<wgt id='1294'> +1.3084410e-12 </wgt>
<wgt id='1295'> +1.3054224e-12 </wgt>
<wgt id='1296'> +1.3016256e-12 </wgt>
<wgt id='1297'> +1.3133717e-12 </wgt>
<wgt id='1298'> +1.3110959e-12 </wgt>
<wgt id='1299'> +1.3015979e-12 </wgt>
<wgt id='1300'> +1.3101290e-12 </wgt>
<wgt id='1301'> +1.3005125e-12 </wgt>
<wgt id='1302'> +1.3055441e-12 </wgt>
<wgt id='1303'> +1.3087531e-12 </wgt>
<wgt id='1304'> +1.3032896e-12 </wgt>
<wgt id='1305'> +1.3093856e-12 </wgt>
<wgt id='1306'> +1.3039135e-12 </wgt>
<wgt id='1307'> +1.3103873e-12 </wgt>
<wgt id='1308'> +1.3162046e-12 </wgt>
<wgt id='1309'> +1.2998499e-12 </wgt>
<wgt id='1310'> +1.3037469e-12 </wgt>
<wgt id='1311'> +1.3104094e-12 </wgt>
<wgt id='1312'> +1.3046976e-12 </wgt>
<wgt id='1313'> +1.3092940e-12 </wgt>
<wgt id='1314'> +1.3151143e-12 </wgt>
<wgt id='1315'> +1.2928314e-12 </wgt>
<wgt id='1316'> +1.3154452e-12 </wgt>
<wgt id='1317'> +1.3052628e-12 </wgt>
<wgt id='1318'> +1.3138751e-12 </wgt>
<wgt id='1319'> +1.2984837e-12 </wgt>
<wgt id='1320'> +1.3137657e-12 </wgt>
<wgt id='1321'> +1.3007364e-12 </wgt>
<wgt id='1322'> +1.3065724e-12 </wgt>
<wgt id='1323'> +1.3073006e-12 </wgt>
<wgt id='1324'> +1.3044799e-12 </wgt>
<wgt id='1325'> +1.3158305e-12 </wgt>
<wgt id='1326'> +1.3056826e-12 </wgt>
<wgt id='1327'> +1.3099069e-12 </wgt>
<wgt id='1328'> +1.3078487e-12 </wgt>
<wgt id='1329'> +1.3058685e-12 </wgt>
<wgt id='1330'> +1.2862869e-12 </wgt>
<wgt id='1331'> +1.3191536e-12 </wgt>
<wgt id='1332'> +1.3281948e-12 </wgt>
<wgt id='1333'> +1.2918049e-12 </wgt>
<wgt id='1334'> +1.3023827e-12 </wgt>
<wgt id='1335'> +1.3178477e-12 </wgt>
<wgt id='1336'> +1.3043358e-12 </wgt>
<wgt id='1337'> +1.3008224e-12 </wgt>
<wgt id='1338'> +1.3073089e-12 </wgt>
<wgt id='1339'> +1.3066903e-12 </wgt>
<wgt id='1340'> +1.2855148e-12 </wgt>
<wgt id='1341'> +1.2888619e-12 </wgt>
<wgt id='1342'> +1.2819325e-12 </wgt>
<wgt id='1343'> +1.2801678e-12 </wgt>
<wgt id='1344'> +1.2891080e-12 </wgt>
<wgt id='1345'> +1.2870040e-12 </wgt>
<wgt id='1346'> +1.2840952e-12 </wgt>
<wgt id='1347'> +1.2802002e-12 </wgt>
<wgt id='1348'> +1.2913486e-12 </wgt>
<wgt id='1349'> +1.2891123e-12 </wgt>
<wgt id='1350'> +1.2819469e-12 </wgt>
<wgt id='1351'> +1.2886127e-12 </wgt>
<wgt id='1352'> +1.2786713e-12 </wgt>
<wgt id='1353'> +1.2835456e-12 </wgt>
<wgt id='1354'> +1.2889693e-12 </wgt>
<wgt id='1355'> +1.2819771e-12 </wgt>
<wgt id='1356'> +1.2874857e-12 </wgt>
<wgt id='1357'> +1.2850207e-12 </wgt>
<wgt id='1358'> +1.2862365e-12 </wgt>
<wgt id='1359'> +1.2957065e-12 </wgt>
<wgt id='1360'> +1.2766792e-12 </wgt>
<wgt id='1361'> +1.2825450e-12 </wgt>
<wgt id='1362'> +1.2895625e-12 </wgt>
<wgt id='1363'> +1.2816377e-12 </wgt>
<wgt id='1364'> +1.2884365e-12 </wgt>
<wgt id='1365'> +1.2724076e-12 </wgt>
<wgt id='1366'> +1.2940042e-12 </wgt>
<wgt id='1367'> +1.2931855e-12 </wgt>
<wgt id='1368'> +1.2840430e-12 </wgt>
<wgt id='1369'> +1.2914912e-12 </wgt>
<wgt id='1370'> +1.2783683e-12 </wgt>
<wgt id='1371'> +1.2902556e-12 </wgt>
<wgt id='1372'> +1.2794573e-12 </wgt>
<wgt id='1373'> +1.2844181e-12 </wgt>
<wgt id='1374'> +1.2863819e-12 </wgt>
<wgt id='1375'> +1.2832564e-12 </wgt>
<wgt id='1376'> +1.2944549e-12 </wgt>
<wgt id='1377'> +1.2845504e-12 </wgt>
<wgt id='1378'> +1.2884971e-12 </wgt>
<wgt id='1379'> +1.2860326e-12 </wgt>
<wgt id='1380'> +1.2847121e-12 </wgt>
<wgt id='1381'> +1.2639400e-12 </wgt>
<wgt id='1382'> +1.2967714e-12 </wgt>
<wgt id='1383'> +1.3070872e-12 </wgt>
<wgt id='1384'> +1.2683386e-12 </wgt>
<wgt id='1385'> +1.2809451e-12 </wgt>
<wgt id='1386'> +1.2958500e-12 </wgt>
<wgt id='1387'> +1.2822069e-12 </wgt>
<wgt id='1388'> +1.2785098e-12 </wgt>
<wgt id='1389'> +1.2850567e-12 </wgt>
<wgt id='1390'> +1.2852503e-12 </wgt>
<wgt id='1391'> +1.2594595e-12 </wgt>
<wgt id='1392'> +1.2308123e-12 </wgt>
<wgt id='1393'> +1.2399010e-12 </wgt>
<wgt id='1394'> +1.2494636e-12 </wgt>
<wgt id='1395'> +1.2671513e-12 </wgt>
<wgt id='1396'> +1.2590760e-12 </wgt>
<wgt id='1397'> +1.2268751e-12 </wgt>
<wgt id='1398'> +1.2337663e-12 </wgt>
<wgt id='1399'> +1.2400791e-12 </wgt>
<wgt id='1400'> +1.2461771e-12 </wgt>
<wgt id='1401'> +1.2526258e-12 </wgt>
<wgt id='1402'> +1.2644737e-12 </wgt>
<wgt id='1403'> +1.2701879e-12 </wgt>
<wgt id='1404'> +1.2753093e-12 </wgt>
<wgt id='1405'> +1.2590760e-12 </wgt>
<wgt id='1406'> +1.2549340e-12 </wgt>
<wgt id='1407'> +1.2572613e-12 </wgt>
<wgt id='1408'> +1.2608162e-12 </wgt>
<wgt id='1409'> +1.2622729e-12 </wgt>
<wgt id='1410'> +1.2675278e-12 </wgt>
<wgt id='1411'> +1.2690977e-12 </wgt>
<wgt id='1412'> +1.2655035e-12 </wgt>
<wgt id='1413'> +1.2740824e-12 </wgt>
<wgt id='1414'> +1.2609652e-12 </wgt>
<wgt id='1415'> +1.2619035e-12 </wgt>
<wgt id='1416'> +1.2698217e-12 </wgt>
<wgt id='1417'> +1.2604950e-12 </wgt>
<wgt id='1418'> +1.2745752e-12 </wgt>
<wgt id='1419'> +1.2685659e-12 </wgt>
<wgt id='1420'> +1.2664908e-12 </wgt>
<wgt id='1421'> +1.2564588e-12 </wgt>
<wgt id='1422'> +1.2723158e-12 </wgt>
<wgt id='1423'> +1.2673902e-12 </wgt>
<wgt id='1424'> +1.2676780e-12 </wgt>
<wgt id='1425'> +1.2636071e-12 </wgt>
<wgt id='1426'> +1.2717275e-12 </wgt>
<wgt id='1427'> +1.2732572e-12 </wgt>
<wgt id='1428'> +1.2641773e-12 </wgt>
<wgt id='1429'> +1.2620863e-12 </wgt>
<wgt id='1430'> +1.2748384e-12 </wgt>
<wgt id='1431'> +1.2740321e-12 </wgt>
<wgt id='1432'> +1.2629636e-12 </wgt>
<wgt id='1433'> +1.2774008e-12 </wgt>
<wgt id='1434'> +1.2572990e-12 </wgt>
<wgt id='1435'> +1.2705530e-12 </wgt>
<wgt id='1436'> +1.2601954e-12 </wgt>
<wgt id='1437'> +1.2763417e-12 </wgt>
<wgt id='1438'> +1.2644047e-12 </wgt>
<wgt id='1439'> +1.2620097e-12 </wgt>
<wgt id='1440'> +1.2805059e-12 </wgt>
<wgt id='1441'> +1.2696324e-12 </wgt>
<wgt id='1442'> +1.2637882e-12 </wgt>
<wgt id='1443'> +1.2656820e-12 </wgt>
<wgt id='1444'> +1.2724048e-12 </wgt>
<wgt id='1445'> +1.2767005e-12 </wgt>
<wgt id='1446'> +1.2644939e-12 </wgt>
<wgt id='1447'> +1.2663868e-12 </wgt>
<wgt id='1448'> +1.2717668e-12 </wgt>
<wgt id='1449'> +1.2687841e-12 </wgt>
<wgt id='1450'> +1.2664085e-12 </wgt>
<wgt id='1451'> +1.2745902e-12 </wgt>
<wgt id='1452'> +1.2453806e-12 </wgt>
<wgt id='1453'> +1.2696102e-12 </wgt>
<wgt id='1454'> +1.2550047e-12 </wgt>
<wgt id='1455'> +1.2521380e-12 </wgt>
<wgt id='1456'> +1.2740390e-12 </wgt>
<wgt id='1457'> +1.2746211e-12 </wgt>
<wgt id='1458'> +1.2641198e-12 </wgt>
<wgt id='1459'> +1.2700193e-12 </wgt>
<wgt id='1460'> +1.2621612e-12 </wgt>
<wgt id='1461'> +1.2675278e-12 </wgt>
<wgt id='1462'> +1.2606498e-12 </wgt>
<wgt id='1463'> +1.2765985e-12 </wgt>
<wgt id='1464'> +1.2687152e-12 </wgt>
<wgt id='1465'> +1.2434634e-12 </wgt>
<wgt id='1466'> +1.2490775e-12 </wgt>
<wgt id='1467'> +1.2546492e-12 </wgt>
<wgt id='1468'> +1.2587703e-12 </wgt>
<wgt id='1469'> +1.2640368e-12 </wgt>
<wgt id='1470'> +1.2738480e-12 </wgt>
<wgt id='1471'> +1.2774935e-12 </wgt>
<wgt id='1472'> +1.2821082e-12 </wgt>
<wgt id='1473'> +1.2687152e-12 </wgt>
<wgt id='1474'> +1.2640044e-12 </wgt>
<wgt id='1475'> +1.2656960e-12 </wgt>
<wgt id='1476'> +1.2707006e-12 </wgt>
<wgt id='1477'> +1.2726336e-12 </wgt>
<wgt id='1478'> +1.2240641e-12 </wgt>
<wgt id='1479'> +1.2227693e-12 </wgt>
<wgt id='1480'> +1.2507097e-12 </wgt>
<wgt id='1481'> +1.2153954e-12 </wgt>
<wgt id='1482'> +1.2249287e-12 </wgt>
<wgt id='1483'> +1.2209420e-12 </wgt>
<wgt id='1484'> +1.2273617e-12 </wgt>
<wgt id='1485'> +1.2267666e-12 </wgt>
<wgt id='1486'> +1.2238367e-12 </wgt>
<wgt id='1487'> +1.2178877e-12 </wgt>
<wgt id='1488'> +1.2206735e-12 </wgt>
<wgt id='1489'> +1.2480273e-12 </wgt>
<wgt id='1490'> +1.2235913e-12 </wgt>
<wgt id='1491'> +1.2240587e-12 </wgt>
<wgt id='1492'> +1.2241792e-12 </wgt>
<wgt id='1493'> +1.2132894e-12 </wgt>
<wgt id='1494'> +1.2275013e-12 </wgt>
<wgt id='1495'> +1.2267637e-12 </wgt>
<wgt id='1496'> +1.2228183e-12 </wgt>
<wgt id='1497'> +1.2252584e-12 </wgt>
<wgt id='1498'> +1.2229339e-12 </wgt>
<wgt id='1499'> +1.2260991e-12 </wgt>
<wgt id='1500'> +1.2232617e-12 </wgt>
<wgt id='1501'> +1.2236484e-12 </wgt>
<wgt id='1502'> +1.2258770e-12 </wgt>
<wgt id='1503'> +1.2265497e-12 </wgt>
<wgt id='1504'> +1.2245968e-12 </wgt>
<wgt id='1505'> +1.2234647e-12 </wgt>
<wgt id='1506'> +1.2239295e-12 </wgt>
<wgt id='1507'> +1.2217538e-12 </wgt>
<wgt id='1508'> +1.2289904e-12 </wgt>
<wgt id='1509'> +1.3036777e-12 </wgt>
<wgt id='1510'> +1.3022109e-12 </wgt>
<wgt id='1511'> +1.3069860e-12 </wgt>
<wgt id='1512'> +1.3067028e-12 </wgt>
<wgt id='1513'> +1.3098546e-12 </wgt>
<wgt id='1514'> +1.3004698e-12 </wgt>
<wgt id='1515'> +1.2966647e-12 </wgt>
<wgt id='1516'> +1.2996824e-12 </wgt>
<wgt id='1517'> +1.2973838e-12 </wgt>
<wgt id='1518'> +1.3068114e-12 </wgt>
<wgt id='1519'> +1.2979541e-12 </wgt>
<wgt id='1520'> +1.3025469e-12 </wgt>
<wgt id='1521'> +1.3116558e-12 </wgt>
<wgt id='1522'> +1.3083670e-12 </wgt>
<wgt id='1523'> +1.3043715e-12 </wgt>
<wgt id='1524'> +1.3124172e-12 </wgt>
<wgt id='1525'> +1.3053485e-12 </wgt>
<wgt id='1526'> +1.2985820e-12 </wgt>
<wgt id='1527'> +1.3048424e-12 </wgt>
<wgt id='1528'> +1.2980297e-12 </wgt>
<wgt id='1529'> +1.3038762e-12 </wgt>
<wgt id='1530'> +1.3058189e-12 </wgt>
<wgt id='1531'> +1.3042701e-12 </wgt>
<wgt id='1532'> +1.3031663e-12 </wgt>
<wgt id='1533'> +1.3137983e-12 </wgt>
<wgt id='1534'> +1.3034333e-12 </wgt>
<wgt id='1535'> +1.3023836e-12 </wgt>
<wgt id='1536'> +1.3023504e-12 </wgt>
<wgt id='1537'> +1.3035949e-12 </wgt>
<wgt id='1538'> +1.3054907e-12 </wgt>
<wgt id='1539'> +1.3080286e-12 </wgt>
<wgt id='1540'> +1.3037500e-12 </wgt>
<wgt id='1541'> +1.3043390e-12 </wgt>
<wgt id='1542'> +1.3031603e-12 </wgt>
<wgt id='1543'> +1.3018070e-12 </wgt>
<wgt id='1544'> +1.3030129e-12 </wgt>
<wgt id='1545'> +1.3067252e-12 </wgt>
<wgt id='1546'> +1.3024285e-12 </wgt>
<wgt id='1547'> +1.3045085e-12 </wgt>
<wgt id='1548'> +1.3022936e-12 </wgt>
<wgt id='1549'> +1.3046366e-12 </wgt>
<wgt id='1550'> +1.3037073e-12 </wgt>
<wgt id='1551'> +1.3055024e-12 </wgt>
<wgt id='1552'> +1.3038924e-12 </wgt>
<wgt id='1553'> +1.3075405e-12 </wgt>
<wgt id='1554'> +1.3047692e-12 </wgt>
<wgt id='1555'> +1.3032030e-12 </wgt>
<wgt id='1556'> +1.3034224e-12 </wgt>
<wgt id='1557'> +1.3029900e-12 </wgt>
<wgt id='1558'> +1.3048979e-12 </wgt>
<wgt id='1559'> +1.3045481e-12 </wgt>
<wgt id='1560'> +1.3046501e-12 </wgt>
<wgt id='1561'> +1.3028468e-12 </wgt>
<wgt id='1562'> +1.3037901e-12 </wgt>
<wgt id='1563'> +1.3029783e-12 </wgt>
<wgt id='1564'> +1.3046000e-12 </wgt>
<wgt id='1565'> +1.3036771e-12 </wgt>
<wgt id='1566'> +1.3042835e-12 </wgt>
<wgt id='1567'> +1.3024676e-12 </wgt>
<wgt id='1568'> +1.3025792e-12 </wgt>
<wgt id='1569'> +1.3043065e-12 </wgt>
<wgt id='1570'> +1.3040523e-12 </wgt>
<wgt id='1571'> +1.3037177e-12 </wgt>
<wgt id='1572'> +1.3045200e-12 </wgt>
<wgt id='1573'> +1.3051232e-12 </wgt>
<wgt id='1574'> +1.3036671e-12 </wgt>
<wgt id='1575'> +1.3031079e-12 </wgt>
<wgt id='1576'> +1.3043440e-12 </wgt>
<wgt id='1577'> +1.3050521e-12 </wgt>
<wgt id='1578'> +1.3038734e-12 </wgt>
<wgt id='1579'> +1.3039157e-12 </wgt>
<wgt id='1580'> +1.3031429e-12 </wgt>
<wgt id='1581'> +1.3033045e-12 </wgt>
<wgt id='1582'> +1.3033268e-12 </wgt>
<wgt id='1583'> +1.3040129e-12 </wgt>
<wgt id='1584'> +1.3032636e-12 </wgt>
<wgt id='1585'> +1.3035506e-12 </wgt>
<wgt id='1586'> +1.3037985e-12 </wgt>
<wgt id='1587'> +1.3035913e-12 </wgt>
<wgt id='1588'> +1.3031618e-12 </wgt>
<wgt id='1589'> +1.3041151e-12 </wgt>
<wgt id='1590'> +1.3036411e-12 </wgt>
<wgt id='1591'> +1.3035375e-12 </wgt>
<wgt id='1592'> +1.3041087e-12 </wgt>
<wgt id='1593'> +1.3034881e-12 </wgt>
<wgt id='1594'> +1.3029503e-12 </wgt>
<wgt id='1595'> +1.3038998e-12 </wgt>
<wgt id='1596'> +1.3036483e-12 </wgt>
<wgt id='1597'> +1.3036801e-12 </wgt>
<wgt id='1598'> +1.3034948e-12 </wgt>
<wgt id='1599'> +1.3037170e-12 </wgt>
<wgt id='1600'> +1.3036752e-12 </wgt>
<wgt id='1601'> +1.3040742e-12 </wgt>
<wgt id='1602'> +1.3039083e-12 </wgt>
<wgt id='1603'> +1.3036326e-12 </wgt>
<wgt id='1604'> +1.3036005e-12 </wgt>
<wgt id='1605'> +1.3040302e-12 </wgt>
<wgt id='1606'> +1.3035373e-12 </wgt>
<wgt id='1607'> +1.3033810e-12 </wgt>
<wgt id='1608'> +1.3035704e-12 </wgt>
<wgt id='1609'> +1.3034490e-12 </wgt>
<wgt id='1610'> +1.2878650e-12 </wgt>
<wgt id='1611'> +1.3168305e-12 </wgt>
<wgt id='1612'> +1.4994418e-12 </wgt>
<wgt id='1613'> +1.5069469e-12 </wgt>
<wgt id='1614'> +1.5193140e-12 </wgt>
<wgt id='1615'> +1.4839614e-12 </wgt>
<wgt id='1616'> +1.5573512e-12 </wgt>
<wgt id='1617'> +1.5244948e-12 </wgt>
<wgt id='1618'> +1.5075793e-12 </wgt>
<wgt id='1619'> +1.5266780e-12 </wgt>
<wgt id='1620'> +1.4851264e-12 </wgt>
<wgt id='1621'> +1.4854923e-12 </wgt>
<wgt id='1622'> +1.4757455e-12 </wgt>
<wgt id='1623'> +1.5114135e-12 </wgt>
<wgt id='1624'> +1.4608586e-12 </wgt>
<wgt id='1625'> +1.4938663e-12 </wgt>
<wgt id='1626'> +1.4605648e-12 </wgt>
<wgt id='1627'> +1.4857243e-12 </wgt>
<wgt id='1628'> +1.5244769e-12 </wgt>
<wgt id='1629'> +1.5117073e-12 </wgt>
<wgt id='1630'> +1.5137595e-12 </wgt>
<wgt id='1631'> +1.4795859e-12 </wgt>
<wgt id='1632'> +1.4867884e-12 </wgt>
<wgt id='1633'> +1.4763524e-12 </wgt>
<wgt id='1634'> +1.5025991e-12 </wgt>
<wgt id='1635'> +1.5076483e-12 </wgt>
<wgt id='1636'> +1.5574060e-12 </wgt>
<wgt id='1637'> +1.4676749e-12 </wgt>
<wgt id='1638'> +1.5208153e-12 </wgt>
<wgt id='1639'> +1.5338121e-12 </wgt>
<wgt id='1640'> +1.5237565e-12 </wgt>
<wgt id='1641'> +1.4953869e-12 </wgt>
<wgt id='1642'> +1.4919796e-12 </wgt>
<wgt id='1643'> +1.5110330e-12 </wgt>
<wgt id='1644'> +1.4371160e-12 </wgt>
<wgt id='1645'> +1.4933853e-12 </wgt>
<wgt id='1646'> +1.5084598e-12 </wgt>
<wgt id='1647'> +1.5135084e-12 </wgt>
<wgt id='1648'> +1.5126807e-12 </wgt>
<wgt id='1649'> +1.5103611e-12 </wgt>
<wgt id='1650'> +1.4830676e-12 </wgt>
<wgt id='1651'> +1.4664020e-12 </wgt>
<wgt id='1652'> +1.4968079e-12 </wgt>
<wgt id='1653'> +1.5436414e-12 </wgt>
<wgt id='1654'> +1.5142805e-12 </wgt>
<wgt id='1655'> +1.4739666e-12 </wgt>
<wgt id='1656'> +1.4793997e-12 </wgt>
<wgt id='1657'> +1.5037423e-12 </wgt>
<wgt id='1658'> +1.4804762e-12 </wgt>
<wgt id='1659'> +1.4608586e-12 </wgt>
<wgt id='1660'> +1.5002119e-12 </wgt>
<wgt id='1661'> +1.4557867e-12 </wgt>
<wgt id='1662'> +1.4564166e-12 </wgt>
<wgt id='1663'> +1.4645621e-12 </wgt>
<wgt id='1664'> +1.5097891e-12 </wgt>
<wgt id='1665'> +1.4955778e-12 </wgt>
<wgt id='1666'> +1.4751755e-12 </wgt>
<wgt id='1667'> +1.4904933e-12 </wgt>
<wgt id='1668'> +1.5557679e-12 </wgt>
<wgt id='1669'> +1.4719465e-12 </wgt>
<wgt id='1670'> +1.5198198e-12 </wgt>
<wgt id='1671'> +1.4563453e-12 </wgt>
<wgt id='1672'> +1.4829420e-12 </wgt>
<wgt id='1673'> +1.4850933e-12 </wgt>
<wgt id='1674'> +1.5267385e-12 </wgt>
<wgt id='1675'> +1.5324516e-12 </wgt>
<wgt id='1676'> +1.5204937e-12 </wgt>
<wgt id='1677'> +1.5013443e-12 </wgt>
<wgt id='1678'> +1.5127591e-12 </wgt>
<wgt id='1679'> +1.5422143e-12 </wgt>
<wgt id='1680'> +1.5270119e-12 </wgt>
<wgt id='1681'> +1.5082172e-12 </wgt>
<wgt id='1682'> +1.4824681e-12 </wgt>
<wgt id='1683'> +1.4895907e-12 </wgt>
<wgt id='1684'> +1.4430337e-12 </wgt>
<wgt id='1685'> +1.4964033e-12 </wgt>
<wgt id='1686'> +1.5039000e-12 </wgt>
<wgt id='1687'> +1.5193281e-12 </wgt>
<wgt id='1688'> +1.5100302e-12 </wgt>
<wgt id='1689'> +1.4807193e-12 </wgt>
<wgt id='1690'> +1.5382044e-12 </wgt>
<wgt id='1691'> +1.5601605e-12 </wgt>
<wgt id='1692'> +1.5471016e-12 </wgt>
<wgt id='1693'> +1.4906726e-12 </wgt>
<wgt id='1694'> +1.3905583e-12 </wgt>
<wgt id='1695'> +1.4789209e-12 </wgt>
<wgt id='1696'> +1.5595927e-12 </wgt>
<wgt id='1697'> +1.5385754e-12 </wgt>
<wgt id='1698'> +1.4943341e-12 </wgt>
<wgt id='1699'> +1.5324636e-12 </wgt>
<wgt id='1700'> +1.4863124e-12 </wgt>
<wgt id='1701'> +1.5057748e-12 </wgt>
<wgt id='1702'> +1.5155893e-12 </wgt>
<wgt id='1703'> +1.4913558e-12 </wgt>
<wgt id='1704'> +1.4843176e-12 </wgt>
<wgt id='1705'> +1.4877727e-12 </wgt>
<wgt id='1706'> +1.5204314e-12 </wgt>
<wgt id='1707'> +1.4672646e-12 </wgt>
<wgt id='1708'> +1.4764210e-12 </wgt>
<wgt id='1709'> +1.5066745e-12 </wgt>
<wgt id='1710'> +1.4927455e-12 </wgt>
<wgt id='1711'> +1.5175118e-12 </wgt>
<wgt id='1712'> +1.4773152e-12 </wgt>
<wgt id='1713'> +1.2300410e-12 </wgt>
<wgt id='1714'> +1.1999153e-12 </wgt>
<wgt id='1715'> +1.2516467e-12 </wgt>
<wgt id='1716'> +1.2570595e-12 </wgt>
<wgt id='1717'> +1.2385423e-12 </wgt>
<wgt id='1718'> +1.1768470e-12 </wgt>
<wgt id='1719'> +1.1814679e-12 </wgt>
<wgt id='1720'> +1.2478949e-12 </wgt>
<wgt id='1721'> +1.2322963e-12 </wgt>
<wgt id='1722'> +1.2271162e-12 </wgt>
<wgt id='1723'> +1.1699993e-12 </wgt>
<wgt id='1724'> +1.1663440e-12 </wgt>
<wgt id='1725'> +1.2344776e-12 </wgt>
<wgt id='1726'> +1.2560135e-12 </wgt>
<wgt id='1727'> +1.1897708e-12 </wgt>
<wgt id='1728'> +1.2301967e-12 </wgt>
<wgt id='1729'> +1.2366730e-12 </wgt>
<wgt id='1730'> +1.1974235e-12 </wgt>
<wgt id='1731'> +1.1935564e-12 </wgt>
<wgt id='1732'> +1.2499870e-12 </wgt>
<wgt id='1733'> +1.2653591e-12 </wgt>
<wgt id='1734'> +1.2564993e-12 </wgt>
<wgt id='1735'> +1.2290749e-12 </wgt>
<wgt id='1736'> +1.3036974e-12 </wgt>
<wgt id='1737'> +1.2273233e-12 </wgt>
<wgt id='1738'> +1.2605054e-12 </wgt>
<wgt id='1739'> +1.1971836e-12 </wgt>
<wgt id='1740'> +1.2221748e-12 </wgt>
<wgt id='1741'> +1.2214462e-12 </wgt>
<wgt id='1742'> +1.2220298e-12 </wgt>
<wgt id='1743'> +1.2664907e-12 </wgt>
<wgt id='1744'> +1.2733848e-12 </wgt>
<wgt id='1745'> +1.1415261e-12 </wgt>
<wgt id='1746'> +1.2691492e-12 </wgt>
<wgt id='1747'> +1.2215610e-12 </wgt>
<wgt id='1748'> +1.2554018e-12 </wgt>
<wgt id='1749'> +1.2623769e-12 </wgt>
<wgt id='1750'> +1.2500604e-12 </wgt>
<wgt id='1751'> +1.1739246e-12 </wgt>
<wgt id='1752'> +1.2151623e-12 </wgt>
<wgt id='1753'> +1.2580937e-12 </wgt>
<wgt id='1754'> +1.2455782e-12 </wgt>
<wgt id='1755'> +1.2586775e-12 </wgt>
<wgt id='1756'> +1.2442526e-12 </wgt>
<wgt id='1757'> +1.2257707e-12 </wgt>
<wgt id='1758'> +1.2551678e-12 </wgt>
<wgt id='1759'> +1.2277159e-12 </wgt>
<wgt id='1760'> +1.2095066e-12 </wgt>
<wgt id='1761'> +1.1979853e-12 </wgt>
<wgt id='1762'> +1.2371412e-12 </wgt>
<wgt id='1763'> +1.2565116e-12 </wgt>
<wgt id='1764'> +1.2406642e-12 </wgt>
<wgt id='1765'> +1.2166028e-12 </wgt>
<wgt id='1766'> +1.1915337e-12 </wgt>
<wgt id='1767'> +1.2305285e-12 </wgt>
<wgt id='1768'> +1.2316731e-12 </wgt>
<wgt id='1769'> +1.1994188e-12 </wgt>
<wgt id='1770'> +1.3068481e-12 </wgt>
<wgt id='1771'> +1.2314671e-12 </wgt>
<wgt id='1772'> +1.2749884e-12 </wgt>
<wgt id='1773'> +1.2435220e-12 </wgt>
<wgt id='1774'> +1.2463561e-12 </wgt>
<wgt id='1775'> +1.2433884e-12 </wgt>
<wgt id='1776'> +1.1907586e-12 </wgt>
<wgt id='1777'> +1.2226048e-12 </wgt>
<wgt id='1778'> +1.2205876e-12 </wgt>
<wgt id='1779'> +1.2468226e-12 </wgt>
<wgt id='1780'> +1.2565077e-12 </wgt>
<wgt id='1781'> +1.2324249e-12 </wgt>
<wgt id='1782'> +1.1971045e-12 </wgt>
<wgt id='1783'> +1.2302704e-12 </wgt>
<wgt id='1784'> +1.2470792e-12 </wgt>
<wgt id='1785'> +1.1676006e-12 </wgt>
<wgt id='1786'> +1.1212531e-12 </wgt>
<wgt id='1787'> +1.2124870e-12 </wgt>
<wgt id='1788'> +1.2430309e-12 </wgt>
<wgt id='1789'> +1.1710891e-12 </wgt>
<wgt id='1790'> +1.2111009e-12 </wgt>
<wgt id='1791'> +1.2739268e-12 </wgt>
<wgt id='1792'> +1.2026306e-12 </wgt>
<wgt id='1793'> +1.2631635e-12 </wgt>
<wgt id='1794'> +1.2385208e-12 </wgt>
<wgt id='1795'> +1.2290075e-12 </wgt>
<wgt id='1796'> +1.2318058e-12 </wgt>
<wgt id='1797'> +1.2500640e-12 </wgt>
<wgt id='1798'> +1.2159666e-12 </wgt>
<wgt id='1799'> +1.2291067e-12 </wgt>
<wgt id='1800'> +1.2199322e-12 </wgt>
<wgt id='1801'> +1.2428590e-12 </wgt>
<wgt id='1802'> +1.2243050e-12 </wgt>
<wgt id='1803'> +1.2376391e-12 </wgt>
<wgt id='1804'> +1.2303106e-12 </wgt>
<wgt id='1805'> +1.2299532e-12 </wgt>
<wgt id='1806'> +1.2272014e-12 </wgt>
<wgt id='1807'> +1.2388844e-12 </wgt>
<wgt id='1808'> +1.2338325e-12 </wgt>
<wgt id='1809'> +1.2201875e-12 </wgt>
<wgt id='1810'> +1.2633145e-12 </wgt>
<wgt id='1811'> +1.2744379e-12 </wgt>
<wgt id='1812'> +1.2759561e-12 </wgt>
<wgt id='1813'> +1.2451662e-12 </wgt>
<wgt id='1814'> +1.2734639e-12 </wgt>
<wgt id='1815'> +1.4273511e-12 </wgt>
<wgt id='1816'> +1.2300410e-12 </wgt>
<wgt id='1817'> +1.1999153e-12 </wgt>
<wgt id='1818'> +1.2516467e-12 </wgt>
<wgt id='1819'> +1.2570595e-12 </wgt>
<wgt id='1820'> +1.2385423e-12 </wgt>
<wgt id='1821'> +1.1768470e-12 </wgt>
<wgt id='1822'> +1.1814679e-12 </wgt>
<wgt id='1823'> +1.2478949e-12 </wgt>
<wgt id='1824'> +1.2322963e-12 </wgt>
<wgt id='1825'> +1.2271162e-12 </wgt>
<wgt id='1826'> +1.1699993e-12 </wgt>
<wgt id='1827'> +1.1663440e-12 </wgt>
<wgt id='1828'> +1.2344776e-12 </wgt>
<wgt id='1829'> +1.2560135e-12 </wgt>
<wgt id='1830'> +1.1897708e-12 </wgt>
<wgt id='1831'> +1.2301967e-12 </wgt>
<wgt id='1832'> +1.2366730e-12 </wgt>
<wgt id='1833'> +1.1974235e-12 </wgt>
<wgt id='1834'> +1.1935564e-12 </wgt>
<wgt id='1835'> +1.2499870e-12 </wgt>
<wgt id='1836'> +1.2653591e-12 </wgt>
<wgt id='1837'> +1.2564993e-12 </wgt>
<wgt id='1838'> +1.2290749e-12 </wgt>
<wgt id='1839'> +1.3036974e-12 </wgt>
<wgt id='1840'> +1.2273233e-12 </wgt>
<wgt id='1841'> +1.2605054e-12 </wgt>
<wgt id='1842'> +1.1971836e-12 </wgt>
<wgt id='1843'> +1.2221748e-12 </wgt>
<wgt id='1844'> +1.2214462e-12 </wgt>
<wgt id='1845'> +1.2220298e-12 </wgt>
<wgt id='1846'> +1.2664907e-12 </wgt>
<wgt id='1847'> +1.2733848e-12 </wgt>
<wgt id='1848'> +1.1415261e-12 </wgt>
<wgt id='1849'> +1.2691492e-12 </wgt>
<wgt id='1850'> +1.2215610e-12 </wgt>
<wgt id='1851'> +1.2554018e-12 </wgt>
<wgt id='1852'> +1.2623769e-12 </wgt>
<wgt id='1853'> +1.2500604e-12 </wgt>
<wgt id='1854'> +1.1739246e-12 </wgt>
<wgt id='1855'> +1.2151623e-12 </wgt>
<wgt id='1856'> +1.2580937e-12 </wgt>
<wgt id='1857'> +1.2455782e-12 </wgt>
<wgt id='1858'> +1.2586775e-12 </wgt>
<wgt id='1859'> +1.2442526e-12 </wgt>
<wgt id='1860'> +1.2257707e-12 </wgt>
<wgt id='1861'> +1.2551678e-12 </wgt>
<wgt id='1862'> +1.2277159e-12 </wgt>
<wgt id='1863'> +1.2095066e-12 </wgt>
<wgt id='1864'> +1.1979853e-12 </wgt>
<wgt id='1865'> +1.2371412e-12 </wgt>
<wgt id='1866'> +1.2565116e-12 </wgt>
<wgt id='1867'> +1.2406642e-12 </wgt>
<wgt id='1868'> +1.2166028e-12 </wgt>
<wgt id='1869'> +1.1915337e-12 </wgt>
<wgt id='1870'> +1.2305285e-12 </wgt>
<wgt id='1871'> +1.2316731e-12 </wgt>
<wgt id='1872'> +1.1994188e-12 </wgt>
<wgt id='1873'> +1.3068481e-12 </wgt>
<wgt id='1874'> +1.2314671e-12 </wgt>
<wgt id='1875'> +1.2749884e-12 </wgt>
<wgt id='1876'> +1.2435220e-12 </wgt>
<wgt id='1877'> +1.2463561e-12 </wgt>
<wgt id='1878'> +1.2433884e-12 </wgt>
<wgt id='1879'> +1.1907586e-12 </wgt>
<wgt id='1880'> +1.2226048e-12 </wgt>
<wgt id='1881'> +1.2205876e-12 </wgt>
<wgt id='1882'> +1.2468226e-12 </wgt>
<wgt id='1883'> +1.2565077e-12 </wgt>
<wgt id='1884'> +1.2324249e-12 </wgt>
<wgt id='1885'> +1.1971045e-12 </wgt>
<wgt id='1886'> +1.2302704e-12 </wgt>
<wgt id='1887'> +1.2470792e-12 </wgt>
<wgt id='1888'> +1.1676006e-12 </wgt>
<wgt id='1889'> +1.1212531e-12 </wgt>
<wgt id='1890'> +1.2124870e-12 </wgt>
<wgt id='1891'> +1.2430309e-12 </wgt>
<wgt id='1892'> +1.1710891e-12 </wgt>
<wgt id='1893'> +1.2111009e-12 </wgt>
<wgt id='1894'> +1.2739268e-12 </wgt>
<wgt id='1895'> +1.2026306e-12 </wgt>
<wgt id='1896'> +1.2631635e-12 </wgt>
<wgt id='1897'> +1.2385208e-12 </wgt>
<wgt id='1898'> +1.2290075e-12 </wgt>
<wgt id='1899'> +1.2318058e-12 </wgt>
<wgt id='1900'> +1.2500640e-12 </wgt>
<wgt id='1901'> +1.2159666e-12 </wgt>
<wgt id='1902'> +1.2291067e-12 </wgt>
<wgt id='1903'> +1.2199322e-12 </wgt>
<wgt id='1904'> +1.2428590e-12 </wgt>
<wgt id='1905'> +1.2243050e-12 </wgt>
<wgt id='1906'> +1.2376391e-12 </wgt>
<wgt id='1907'> +1.2303106e-12 </wgt>
<wgt id='1908'> +1.2299532e-12 </wgt>
<wgt id='1909'> +1.2272014e-12 </wgt>
<wgt id='1910'> +1.2388844e-12 </wgt>
<wgt id='1911'> +1.2338325e-12 </wgt>
<wgt id='1912'> +1.2201875e-12 </wgt>
<wgt id='1913'> +1.2633145e-12 </wgt>
<wgt id='1914'> +1.2744379e-12 </wgt>
<wgt id='1915'> +1.2759561e-12 </wgt>
<wgt id='1916'> +1.2451662e-12 </wgt>
<wgt id='1917'> +1.2232596e-12 </wgt>
<wgt id='1918'> +1.2380833e-12 </wgt>
<wgt id='1919'> +1.2679509e-12 </wgt>
</rwgt>
</event>
<event>
 9      1 +1.5538000e-12 2.56094500e+01 7.81860800e-03 1.49883300e-01
       21 -1    0    0  501  502 +0.0000000000e+00 +0.0000000000e+00 +3.7543765880e+01 3.7543765880e+01 0.0000000000e+00 0.0000e+00 -1.0000e+00
        2 -1    0    0  502    0 -0.0000000000e+00 -0.0000000000e+00 -3.3547698787e+01 3.3547698787e+01 0.0000000000e+00 0.0000e+00 -1.0000e+00
     1023  2    1    2    0    0 +2.0753515955e+01 -3.7007590317e-01 -2.4763291652e+01 3.5623928862e+01 1.4999943782e+01 0.0000e+00 0.0000e+00
  1000023  2    3    3    0    0 +1.0274656286e+01 +3.4815148186e+00 -6.9312424329e+00 1.3999331053e+01 5.4999673674e+00 0.0000e+00 0.0000e+00
        2  1    1    2  501    0 -2.0753515955e+01 +3.7007590317e-01 +2.8759358745e+01 3.5467535805e+01 0.0000000000e+00 0.0000e+00 -1.0000e+00
  1000022  1    4    4    0    0 +9.5257344620e+00 +3.2983624973e+00 -6.8102925475e+00 1.3152904500e+01 5.0000000000e+00 0.0000e+00 -1.0000e+00
      -13  1    4    4    0    0 +3.0202983835e-01 +1.9813086566e-01 -2.6072510368e-02 3.7726665500e-01 1.0570000000e-01 0.0000e+00 -1.0000e+00
       13  1    4    4    0    0 +4.4689198568e-01 -1.4978544393e-02 -9.4877375075e-02 4.6915989807e-01 1.0570000000e-01 0.0000e+00 1.0000e+00
  1000022  1    3    3    0    0 +1.0478859669e+01 -3.8515907218e+00 -1.7832049219e+01 2.1624597809e+01 5.0000000000e+00 0.0000e+00 -1.0000e+00
<mgrwt>
<rscale>  1 0.25609445E+02</rscale>
<asrwt>0</asrwt>
<pdfrwt beam="1">  1       21 0.57759640E-02 0.25609445E+02</pdfrwt>
<pdfrwt beam="2">  1        2 0.51611844E-02 0.25609445E+02</pdfrwt>
<totfact> 0.32014214E+06</totfact>
</mgrwt>
<rwgt>
<wgt id='1001'> +1.5538000e-12 </wgt>
<wgt id='1002'> +1.5870957e-12 </wgt>
<wgt id='1003'> +1.5879951e-12 </wgt>
<wgt id='1004'> +1.5417391e-12 </wgt>
<wgt id='1005'> +1.5968393e-12 </wgt>
<wgt id='1006'> +1.3534849e-12 </wgt>
<wgt id='1007'> +1.4023327e-12 </wgt>
<wgt id='1008'> +1.4039453e-12 </wgt>
<wgt id='1009'> +1.3377997e-12 </wgt>
<wgt id='1010'> +1.4255854e-12 </wgt>
<wgt id='1011'> +1.8272837e-12 </wgt>
<wgt id='1012'> +1.8304792e-12 </wgt>
<wgt id='1013'> +1.8300752e-12 </wgt>
<wgt id='1014'> +1.8229658e-12 </wgt>
<wgt id='1015'> +1.8167778e-12 </wgt>
<wgt id='1016'> +1.8274917e-12 </wgt>
<wgt id='1017'> +1.8070944e-12 </wgt>
<wgt id='1018'> +1.8058501e-12 </wgt>
<wgt id='1019'> +1.8300752e-12 </wgt>
<wgt id='1020'> +1.7797667e-12 </wgt>
<wgt id='1021'> +1.5918924e-12 </wgt>
<wgt id='1022'> +1.5967200e-12 </wgt>
<wgt id='1023'> +1.5965507e-12 </wgt>
<wgt id='1024'> +1.5879951e-12 </wgt>
<wgt id='1025'> +1.5888947e-12 </wgt>
<wgt id='1026'> +2.1491477e-12 </wgt>
<wgt id='1027'> +2.0842150e-12 </wgt>
<wgt id='1028'> +2.0811409e-12 </wgt>
<wgt id='1029'> +2.1638970e-12 </wgt>
<wgt id='1030'> +2.0249005e-12 </wgt>
<wgt id='1031'> +1.2420241e-12 </wgt>
<wgt id='1032'> +1.3344992e-12 </wgt>
<wgt id='1033'> +1.3377997e-12 </wgt>
<wgt id='1034'> +1.2135237e-12 </wgt>
<wgt id='1035'> +1.3863555e-12 </wgt>
<wgt id='1036'> +1.0819030e-12 </wgt>
<wgt id='1037'> +1.1791423e-12 </wgt>
<wgt id='1038'> +1.1827477e-12 </wgt>
<wgt id='1039'> +1.0530003e-12 </wgt>
<wgt id='1040'> +1.2376751e-12 </wgt>
<wgt id='1041'> +1.4606323e-12 </wgt>
<wgt id='1042'> +1.5391466e-12 </wgt>
<wgt id='1043'> +1.5417391e-12 </wgt>
<wgt id='1044'> +1.4348811e-12 </wgt>
<wgt id='1045'> +1.5773033e-12 </wgt>
<wgt id='1046'> +1.5538000e-12 </wgt>
<wgt id='1047'> +1.5731914e-12 </wgt>
<wgt id='1048'> +1.5291592e-12 </wgt>
<wgt id='1049'> +1.5335542e-12 </wgt>
<wgt id='1050'> +1.5347463e-12 </wgt>
<wgt id='1051'> +1.5766927e-12 </wgt>
<wgt id='1052'> +1.5522899e-12 </wgt>
<wgt id='1053'> +1.5392526e-12 </wgt>
<wgt id='1054'> +1.5282039e-12 </wgt>
<wgt id='1055'> +1.5174581e-12 </wgt>
<wgt id='1056'> +1.5649962e-12 </wgt>
<wgt id='1057'> +1.5920605e-12 </wgt>
<wgt id='1058'> +1.4991380e-12 </wgt>
<wgt id='1059'> +1.5547696e-12 </wgt>
<wgt id='1060'> +1.5608088e-12 </wgt>
<wgt id='1061'> +1.5570437e-12 </wgt>
<wgt id='1062'> +1.5614986e-12 </wgt>
<wgt id='1063'> +1.5832983e-12 </wgt>
<wgt id='1064'> +1.5529692e-12 </wgt>
<wgt id='1065'> +1.5485210e-12 </wgt>
<wgt id='1066'> +1.5480987e-12 </wgt>
<wgt id='1067'> +1.5016217e-12 </wgt>
<wgt id='1068'> +1.5716280e-12 </wgt>
<wgt id='1069'> +1.5577060e-12 </wgt>
<wgt id='1070'> +1.5367670e-12 </wgt>
<wgt id='1071'> +1.5008645e-12 </wgt>
<wgt id='1072'> +1.5837699e-12 </wgt>
<wgt id='1073'> +1.5800590e-12 </wgt>
<wgt id='1074'> +1.5240814e-12 </wgt>
<wgt id='1075'> +1.5601951e-12 </wgt>
<wgt id='1076'> +1.5580013e-12 </wgt>
<wgt id='1077'> +1.5624693e-12 </wgt>
<wgt id='1078'> +1.5240052e-12 </wgt>
<wgt id='1079'> +1.5369857e-12 </wgt>
<wgt id='1080'> +1.5136681e-12 </wgt>
<wgt id='1081'> +1.6191813e-12 </wgt>
<wgt id='1082'> +1.5353414e-12 </wgt>
<wgt id='1083'> +1.5841097e-12 </wgt>
<wgt id='1084'> +1.5573654e-12 </wgt>
<wgt id='1085'> +1.5399804e-12 </wgt>
<wgt id='1086'> +1.5505889e-12 </wgt>
<wgt id='1087'> +1.5677084e-12 </wgt>
<wgt id='1088'> +1.5281397e-12 </wgt>
<wgt id='1089'> +1.5728499e-12 </wgt>
<wgt id='1090'> +1.5458113e-12 </wgt>
<wgt id='1091'> +1.5615750e-12 </wgt>
<wgt id='1092'> +1.5753956e-12 </wgt>
<wgt id='1093'> +1.5408516e-12 </wgt>
<wgt id='1094'> +1.5612007e-12 </wgt>
<wgt id='1095'> +1.5707623e-12 </wgt>
<wgt id='1096'> +1.5936068e-12 </wgt>
<wgt id='1097'> +1.5371676e-12 </wgt>
<wgt id='1098'> +1.5259820e-12 </wgt>
<wgt id='1099'> +1.5573062e-12 </wgt>
<wgt id='1100'> +1.5400920e-12 </wgt>
<wgt id='1101'> +1.5668969e-12 </wgt>
<wgt id='1102'> +1.5562583e-12 </wgt>
<wgt id='1103'> +1.5737815e-12 </wgt>
<wgt id='1104'> +1.5319245e-12 </wgt>
<wgt id='1105'> +1.5825872e-12 </wgt>
<wgt id='1106'> +1.5741630e-12 </wgt>
<wgt id='1107'> +1.5539882e-12 </wgt>
<wgt id='1108'> +1.5421544e-12 </wgt>
<wgt id='1109'> +1.6196875e-12 </wgt>
<wgt id='1110'> +1.5456921e-12 </wgt>
<wgt id='1111'> +1.5578304e-12 </wgt>
<wgt id='1112'> +1.5812745e-12 </wgt>
<wgt id='1113'> +1.5591114e-12 </wgt>
<wgt id='1114'> +1.5661519e-12 </wgt>
<wgt id='1115'> +1.5203735e-12 </wgt>
<wgt id='1116'> +1.5115705e-12 </wgt>
<wgt id='1117'> +1.5553207e-12 </wgt>
<wgt id='1118'> +1.6356865e-12 </wgt>
<wgt id='1119'> +1.5163880e-12 </wgt>
<wgt id='1120'> +1.5525506e-12 </wgt>
<wgt id='1121'> +1.5564369e-12 </wgt>
<wgt id='1122'> +1.6098507e-12 </wgt>
<wgt id='1123'> +1.5158371e-12 </wgt>
<wgt id='1124'> +1.5252760e-12 </wgt>
<wgt id='1125'> +1.5466323e-12 </wgt>
<wgt id='1126'> +1.5895501e-12 </wgt>
<wgt id='1127'> +1.5301960e-12 </wgt>
<wgt id='1128'> +1.5614986e-12 </wgt>
<wgt id='1129'> +1.5561612e-12 </wgt>
<wgt id='1130'> +1.5532382e-12 </wgt>
<wgt id='1131'> +1.5564044e-12 </wgt>
<wgt id='1132'> +1.5498788e-12 </wgt>
<wgt id='1133'> +1.5559815e-12 </wgt>
<wgt id='1134'> +1.5935934e-12 </wgt>
<wgt id='1135'> +1.5250233e-12 </wgt>
<wgt id='1136'> +1.5306981e-12 </wgt>
<wgt id='1137'> +1.5248062e-12 </wgt>
<wgt id='1138'> +1.5671088e-12 </wgt>
<wgt id='1139'> +1.5678649e-12 </wgt>
<wgt id='1140'> +1.5764211e-12 </wgt>
<wgt id='1141'> +1.5196957e-12 </wgt>
<wgt id='1142'> +1.5323196e-12 </wgt>
<wgt id='1143'> +1.5770166e-12 </wgt>
<wgt id='1144'> +1.5633653e-12 </wgt>
<wgt id='1145'> +1.5507652e-12 </wgt>
<wgt id='1146'> +1.5540000e-12 </wgt>
<wgt id='1147'> +1.2339620e-12 </wgt>
<wgt id='1148'> +1.2611827e-12 </wgt>
<wgt id='1149'> +1.2956095e-12 </wgt>
<wgt id='1150'> +1.2650680e-12 </wgt>
<wgt id='1151'> +1.2751086e-12 </wgt>
<wgt id='1152'> +1.5854036e-12 </wgt>
<wgt id='1153'> +1.5763398e-12 </wgt>
<wgt id='1154'> +1.5906130e-12 </wgt>
<wgt id='1155'> +1.5849730e-12 </wgt>
<wgt id='1156'> +1.5856204e-12 </wgt>
<wgt id='1157'> +1.5879379e-12 </wgt>
<wgt id='1158'> +1.5818257e-12 </wgt>
<wgt id='1159'> +1.5876111e-12 </wgt>
<wgt id='1160'> +1.5838784e-12 </wgt>
<wgt id='1161'> +1.5818799e-12 </wgt>
<wgt id='1162'> +1.5877249e-12 </wgt>
<wgt id='1163'> +1.5895102e-12 </wgt>
<wgt id='1164'> +1.5812996e-12 </wgt>
<wgt id='1165'> +1.5745957e-12 </wgt>
<wgt id='1166'> +1.5957973e-12 </wgt>
<wgt id='1167'> +1.5927951e-12 </wgt>
<wgt id='1168'> +1.5746895e-12 </wgt>
<wgt id='1169'> +1.5871513e-12 </wgt>
<wgt id='1170'> +1.5840984e-12 </wgt>
<wgt id='1171'> +1.5819493e-12 </wgt>
<wgt id='1172'> +1.5893678e-12 </wgt>
<wgt id='1173'> +1.5763208e-12 </wgt>
<wgt id='1174'> +1.5935629e-12 </wgt>
<wgt id='1175'> +1.5859509e-12 </wgt>
<wgt id='1176'> +1.5839060e-12 </wgt>
<wgt id='1177'> +1.5876778e-12 </wgt>
<wgt id='1178'> +1.5791546e-12 </wgt>
<wgt id='1179'> +1.5933125e-12 </wgt>
<wgt id='1180'> +1.5714702e-12 </wgt>
<wgt id='1181'> +1.5776658e-12 </wgt>
<wgt id='1182'> +1.5930517e-12 </wgt>
<wgt id='1183'> +1.5870326e-12 </wgt>
<wgt id='1184'> +1.5851990e-12 </wgt>
<wgt id='1185'> +1.5784495e-12 </wgt>
<wgt id='1186'> +1.5891342e-12 </wgt>
<wgt id='1187'> +1.5842456e-12 </wgt>
<wgt id='1188'> +1.5856911e-12 </wgt>
<wgt id='1189'> +1.5800339e-12 </wgt>
<wgt id='1190'> +1.5763972e-12 </wgt>
<wgt id='1191'> +1.5796796e-12 </wgt>
<wgt id='1192'> +1.5868350e-12 </wgt>
<wgt id='1193'> +1.2651746e-12 </wgt>
<wgt id='1194'> +1.2647013e-12 </wgt>
<wgt id='1195'> +1.2656788e-12 </wgt>
<wgt id='1196'> +1.2716519e-12 </wgt>
<wgt id='1197'> +1.2579953e-12 </wgt>
<wgt id='1198'> +1.2657701e-12 </wgt>
<wgt id='1199'> +1.2644644e-12 </wgt>
<wgt id='1200'> +1.2671968e-12 </wgt>
<wgt id='1201'> +1.2639162e-12 </wgt>
<wgt id='1202'> +1.2633490e-12 </wgt>
<wgt id='1203'> +1.2679661e-12 </wgt>
<wgt id='1204'> +1.2540326e-12 </wgt>
<wgt id='1205'> +1.2721660e-12 </wgt>
<wgt id='1206'> +1.2695195e-12 </wgt>
<wgt id='1207'> +1.2592456e-12 </wgt>
<wgt id='1208'> +1.2566864e-12 </wgt>
<wgt id='1209'> +1.2682483e-12 </wgt>
<wgt id='1210'> +1.2695433e-12 </wgt>
<wgt id='1211'> +1.2524613e-12 </wgt>
<wgt id='1212'> +1.2653513e-12 </wgt>
<wgt id='1213'> +1.2650258e-12 </wgt>
<wgt id='1214'> +1.2499578e-12 </wgt>
<wgt id='1215'> +1.2902732e-12 </wgt>
<wgt id='1216'> +1.2727571e-12 </wgt>
<wgt id='1217'> +1.2598946e-12 </wgt>
<wgt id='1218'> +1.2701982e-12 </wgt>
<wgt id='1219'> +1.2626313e-12 </wgt>
<wgt id='1220'> +1.2693299e-12 </wgt>
<wgt id='1221'> +1.2643500e-12 </wgt>
<wgt id='1222'> +1.2637626e-12 </wgt>
<wgt id='1223'> +1.2669677e-12 </wgt>
<wgt id='1224'> +1.2667474e-12 </wgt>
<wgt id='1225'> +1.2646520e-12 </wgt>
<wgt id='1226'> +1.2627596e-12 </wgt>
<wgt id='1227'> +1.2669755e-12 </wgt>
<wgt id='1228'> +1.2604634e-12 </wgt>
<wgt id='1229'> +1.2670457e-12 </wgt>
<wgt id='1230'> +1.2563157e-12 </wgt>
<wgt id='1231'> +1.2621528e-12 </wgt>
<wgt id='1232'> +1.2631985e-12 </wgt>
<wgt id='1233'> +1.2657620e-12 </wgt>
<wgt id='1234'> +1.2651746e-12 </wgt>
<wgt id='1235'> +1.2561236e-12 </wgt>
<wgt id='1236'> +1.2594476e-12 </wgt>
<wgt id='1237'> +1.2623680e-12 </wgt>
<wgt id='1238'> +1.2674116e-12 </wgt>
<wgt id='1239'> +1.2695333e-12 </wgt>
<wgt id='1240'> +1.2715201e-12 </wgt>
<wgt id='1241'> +1.2640385e-12 </wgt>
<wgt id='1242'> +1.2594832e-12 </wgt>
<wgt id='1243'> +1.2687128e-12 </wgt>
<wgt id='1244'> +1.2560462e-12 </wgt>
<wgt id='1245'> +1.2700664e-12 </wgt>
<wgt id='1246'> +1.2648573e-12 </wgt>
<wgt id='1247'> +1.2634699e-12 </wgt>
<wgt id='1248'> +1.2640136e-12 </wgt>
<wgt id='1249'> +1.2641992e-12 </wgt>
<wgt id='1250'> +1.2652996e-12 </wgt>
<wgt id='1251'> +1.2633358e-12 </wgt>
<wgt id='1252'> +1.2612967e-12 </wgt>
<wgt id='1253'> +1.2663252e-12 </wgt>
<wgt id='1254'> +1.2532131e-12 </wgt>
<wgt id='1255'> +1.2706708e-12 </wgt>
<wgt id='1256'> +1.2686895e-12 </wgt>
<wgt id='1257'> +1.2524470e-12 </wgt>
<wgt id='1258'> +1.2844383e-12 </wgt>
<wgt id='1259'> +1.2449745e-12 </wgt>
<wgt id='1260'> +1.2677747e-12 </wgt>
<wgt id='1261'> +1.2598480e-12 </wgt>
<wgt id='1262'> +1.2653652e-12 </wgt>
<wgt id='1263'> +1.2633305e-12 </wgt>
<wgt id='1264'> +1.2689665e-12 </wgt>
<wgt id='1265'> +1.2617159e-12 </wgt>
<wgt id='1266'> +1.2602226e-12 </wgt>
<wgt id='1267'> +1.2677062e-12 </wgt>
<wgt id='1268'> +1.2644656e-12 </wgt>
<wgt id='1269'> +1.2671703e-12 </wgt>
<wgt id='1270'> +1.2567450e-12 </wgt>
<wgt id='1271'> +1.2560030e-12 </wgt>
<wgt id='1272'> +1.2638973e-12 </wgt>
<wgt id='1273'> +1.2634059e-12 </wgt>
<wgt id='1274'> +1.2661732e-12 </wgt>
<wgt id='1275'> +1.2594230e-12 </wgt>
<wgt id='1276'> +1.2664737e-12 </wgt>
<wgt id='1277'> +1.2600276e-12 </wgt>
<wgt id='1278'> +1.2639305e-12 </wgt>
<wgt id='1279'> +1.2595715e-12 </wgt>
<wgt id='1280'> +1.2648438e-12 </wgt>
<wgt id='1281'> +1.2598937e-12 </wgt>
<wgt id='1282'> +1.2640385e-12 </wgt>
<wgt id='1283'> +1.2547716e-12 </wgt>
<wgt id='1284'> +1.2583350e-12 </wgt>
<wgt id='1285'> +1.2615582e-12 </wgt>
<wgt id='1286'> +1.2666550e-12 </wgt>
<wgt id='1287'> +1.2688466e-12 </wgt>
<wgt id='1288'> +1.2706016e-12 </wgt>
<wgt id='1289'> +1.3093441e-12 </wgt>
<wgt id='1290'> +1.3105173e-12 </wgt>
<wgt id='1291'> +1.3081352e-12 </wgt>
<wgt id='1292'> +1.3037827e-12 </wgt>
<wgt id='1293'> +1.3133195e-12 </wgt>
<wgt id='1294'> +1.3083965e-12 </wgt>
<wgt id='1295'> +1.3103796e-12 </wgt>
<wgt id='1296'> +1.3040906e-12 </wgt>
<wgt id='1297'> +1.3159314e-12 </wgt>
<wgt id='1298'> +1.3145758e-12 </wgt>
<wgt id='1299'> +1.3027518e-12 </wgt>
<wgt id='1300'> +1.3121414e-12 </wgt>
<wgt id='1301'> +1.3036100e-12 </wgt>
<wgt id='1302'> +1.3082874e-12 </wgt>
<wgt id='1303'> +1.3108069e-12 </wgt>
<wgt id='1304'> +1.3072898e-12 </wgt>
<wgt id='1305'> +1.3107326e-12 </wgt>
<wgt id='1306'> +1.3036681e-12 </wgt>
<wgt id='1307'> +1.3158205e-12 </wgt>
<wgt id='1308'> +1.3154728e-12 </wgt>
<wgt id='1309'> +1.3046725e-12 </wgt>
<wgt id='1310'> +1.3094054e-12 </wgt>
<wgt id='1311'> +1.3093768e-12 </wgt>
<wgt id='1312'> +1.3050615e-12 </wgt>
<wgt id='1313'> +1.3136674e-12 </wgt>
<wgt id='1314'> +1.3161096e-12 </wgt>
<wgt id='1315'> +1.2972251e-12 </wgt>
<wgt id='1316'> +1.3148349e-12 </wgt>
<wgt id='1317'> +1.3095306e-12 </wgt>
<wgt id='1318'> +1.3175583e-12 </wgt>
<wgt id='1319'> +1.2995123e-12 </wgt>
<wgt id='1320'> +1.3189942e-12 </wgt>
<wgt id='1321'> +1.3012770e-12 </wgt>
<wgt id='1322'> +1.3086962e-12 </wgt>
<wgt id='1323'> +1.3099160e-12 </wgt>
<wgt id='1324'> +1.3069637e-12 </wgt>
<wgt id='1325'> +1.3189633e-12 </wgt>
<wgt id='1326'> +1.3092582e-12 </wgt>
<wgt id='1327'> +1.3110846e-12 </wgt>
<wgt id='1328'> +1.3099763e-12 </wgt>
<wgt id='1329'> +1.3086749e-12 </wgt>
<wgt id='1330'> +1.2912610e-12 </wgt>
<wgt id='1331'> +1.3217884e-12 </wgt>
<wgt id='1332'> +1.3307467e-12 </wgt>
<wgt id='1333'> +1.2946112e-12 </wgt>
<wgt id='1334'> +1.3050056e-12 </wgt>
<wgt id='1335'> +1.3201986e-12 </wgt>
<wgt id='1336'> +1.3031534e-12 </wgt>
<wgt id='1337'> +1.3084418e-12 </wgt>
<wgt id='1338'> +1.3074582e-12 </wgt>
<wgt id='1339'> +1.3096035e-12 </wgt>
<wgt id='1340'> +1.2922606e-12 </wgt>
<wgt id='1341'> +1.2935677e-12 </wgt>
<wgt id='1342'> +1.2907896e-12 </wgt>
<wgt id='1343'> +1.2865475e-12 </wgt>
<wgt id='1344'> +1.2960789e-12 </wgt>
<wgt id='1345'> +1.2912411e-12 </wgt>
<wgt id='1346'> +1.2932025e-12 </wgt>
<wgt id='1347'> +1.2870193e-12 </wgt>
<wgt id='1348'> +1.2980285e-12 </wgt>
<wgt id='1349'> +1.2970055e-12 </wgt>
<wgt id='1350'> +1.2875195e-12 </wgt>
<wgt id='1351'> +1.2951634e-12 </wgt>
<wgt id='1352'> +1.2859339e-12 </wgt>
<wgt id='1353'> +1.2907291e-12 </wgt>
<wgt id='1354'> +1.2948952e-12 </wgt>
<wgt id='1355'> +1.2902436e-12 </wgt>
<wgt id='1356'> +1.2932921e-12 </wgt>
<wgt id='1357'> +1.2880376e-12 </wgt>
<wgt id='1358'> +1.2972913e-12 </wgt>
<wgt id='1359'> +1.2999260e-12 </wgt>
<wgt id='1360'> +1.2856485e-12 </wgt>
<wgt id='1361'> +1.2918790e-12 </wgt>
<wgt id='1362'> +1.2928095e-12 </wgt>
<wgt id='1363'> +1.2858723e-12 </wgt>
<wgt id='1364'> +1.2967413e-12 </wgt>
<wgt id='1365'> +1.2804602e-12 </wgt>
<wgt id='1366'> +1.2995700e-12 </wgt>
<wgt id='1367'> +1.2971857e-12 </wgt>
<wgt id='1368'> +1.2921328e-12 </wgt>
<wgt id='1369'> +1.2992783e-12 </wgt>
<wgt id='1370'> +1.2838257e-12 </wgt>
<wgt id='1371'> +1.2988678e-12 </wgt>
<wgt id='1372'> +1.2840880e-12 </wgt>
<wgt id='1373'> +1.2900608e-12 </wgt>
<wgt id='1374'> +1.2937817e-12 </wgt>
<wgt id='1375'> +1.2897399e-12 </wgt>
<wgt id='1376'> +1.3023887e-12 </wgt>
<wgt id='1377'> +1.2923071e-12 </wgt>
<wgt id='1378'> +1.2940997e-12 </wgt>
<wgt id='1379'> +1.2924878e-12 </wgt>
<wgt id='1380'> +1.2917750e-12 </wgt>
<wgt id='1381'> +1.2737787e-12 </wgt>
<wgt id='1382'> +1.3032983e-12 </wgt>
<wgt id='1383'> +1.3135153e-12 </wgt>
<wgt id='1384'> +1.2764583e-12 </wgt>
<wgt id='1385'> +1.2880987e-12 </wgt>
<wgt id='1386'> +1.3020755e-12 </wgt>
<wgt id='1387'> +1.2842611e-12 </wgt>
<wgt id='1388'> +1.2912133e-12 </wgt>
<wgt id='1389'> +1.2881433e-12 </wgt>
<wgt id='1390'> +1.2929507e-12 </wgt>
<wgt id='1391'> +1.2669668e-12 </wgt>
<wgt id='1392'> +1.2440520e-12 </wgt>
<wgt id='1393'> +1.2514716e-12 </wgt>
<wgt id='1394'> +1.2594803e-12 </wgt>
<wgt id='1395'> +1.2741641e-12 </wgt>
<wgt id='1396'> +1.2673451e-12 </wgt>
<wgt id='1397'> +1.2286635e-12 </wgt>
<wgt id='1398'> +1.2368730e-12 </wgt>
<wgt id='1399'> +1.2442925e-12 </wgt>
<wgt id='1400'> +1.2515783e-12 </wgt>
<wgt id='1401'> +1.2594540e-12 </wgt>
<wgt id='1402'> +1.2744620e-12 </wgt>
<wgt id='1403'> +1.2817369e-12 </wgt>
<wgt id='1404'> +1.2885563e-12 </wgt>
<wgt id='1405'> +1.2673451e-12 </wgt>
<wgt id='1406'> +1.2629632e-12 </wgt>
<wgt id='1407'> +1.2654405e-12 </wgt>
<wgt id='1408'> +1.2692321e-12 </wgt>
<wgt id='1409'> +1.2709912e-12 </wgt>
<wgt id='1410'> +1.2628080e-12 </wgt>
<wgt id='1411'> +1.2631158e-12 </wgt>
<wgt id='1412'> +1.2624264e-12 </wgt>
<wgt id='1413'> +1.2679151e-12 </wgt>
<wgt id='1414'> +1.2577524e-12 </wgt>
<wgt id='1415'> +1.2561272e-12 </wgt>
<wgt id='1416'> +1.2655012e-12 </wgt>
<wgt id='1417'> +1.2548042e-12 </wgt>
<wgt id='1418'> +1.2708196e-12 </wgt>
<wgt id='1419'> +1.2647920e-12 </wgt>
<wgt id='1420'> +1.2609106e-12 </wgt>
<wgt id='1421'> +1.2505923e-12 </wgt>
<wgt id='1422'> +1.2681295e-12 </wgt>
<wgt id='1423'> +1.2624937e-12 </wgt>
<wgt id='1424'> +1.2631956e-12 </wgt>
<wgt id='1425'> +1.2592609e-12 </wgt>
<wgt id='1426'> +1.2666980e-12 </wgt>
<wgt id='1427'> +1.2623011e-12 </wgt>
<wgt id='1428'> +1.2629569e-12 </wgt>
<wgt id='1429'> +1.2564109e-12 </wgt>
<wgt id='1430'> +1.2715365e-12 </wgt>
<wgt id='1431'> +1.2659773e-12 </wgt>
<wgt id='1432'> +1.2605553e-12 </wgt>
<wgt id='1433'> +1.2684336e-12 </wgt>
<wgt id='1434'> +1.2566370e-12 </wgt>
<wgt id='1435'> +1.2665594e-12 </wgt>
<wgt id='1436'> +1.2537527e-12 </wgt>
<wgt id='1437'> +1.2686502e-12 </wgt>
<wgt id='1438'> +1.2616788e-12 </wgt>
<wgt id='1439'> +1.2569734e-12 </wgt>
<wgt id='1440'> +1.2767509e-12 </wgt>
<wgt id='1441'> +1.2655665e-12 </wgt>
<wgt id='1442'> +1.2578387e-12 </wgt>
<wgt id='1443'> +1.2604327e-12 </wgt>
<wgt id='1444'> +1.2684532e-12 </wgt>
<wgt id='1445'> +1.2730845e-12 </wgt>
<wgt id='1446'> +1.2593473e-12 </wgt>
<wgt id='1447'> +1.2630896e-12 </wgt>
<wgt id='1448'> +1.2643424e-12 </wgt>
<wgt id='1449'> +1.2637613e-12 </wgt>
<wgt id='1450'> +1.2619398e-12 </wgt>
<wgt id='1451'> +1.2704690e-12 </wgt>
<wgt id='1452'> +1.2411484e-12 </wgt>
<wgt id='1453'> +1.2644992e-12 </wgt>
<wgt id='1454'> +1.2514153e-12 </wgt>
<wgt id='1455'> +1.2504828e-12 </wgt>
<wgt id='1456'> +1.2670883e-12 </wgt>
<wgt id='1457'> +1.2674775e-12 </wgt>
<wgt id='1458'> +1.2603934e-12 </wgt>
<wgt id='1459'> +1.2667923e-12 </wgt>
<wgt id='1460'> +1.2561793e-12 </wgt>
<wgt id='1461'> +1.2628080e-12 </wgt>
<wgt id='1462'> +1.2571149e-12 </wgt>
<wgt id='1463'> +1.2712497e-12 </wgt>
<wgt id='1464'> +1.2646963e-12 </wgt>
<wgt id='1465'> +1.2344959e-12 </wgt>
<wgt id='1466'> +1.2408624e-12 </wgt>
<wgt id='1467'> +1.2476214e-12 </wgt>
<wgt id='1468'> +1.2527090e-12 </wgt>
<wgt id='1469'> +1.2588405e-12 </wgt>
<wgt id='1470'> +1.2710848e-12 </wgt>
<wgt id='1471'> +1.2758630e-12 </wgt>
<wgt id='1472'> +1.2818517e-12 </wgt>
<wgt id='1473'> +1.2646963e-12 </wgt>
<wgt id='1474'> +1.2599274e-12 </wgt>
<wgt id='1475'> +1.2616246e-12 </wgt>
<wgt id='1476'> +1.2667820e-12 </wgt>
<wgt id='1477'> +1.2687453e-12 </wgt>
<wgt id='1478'> +1.2403783e-12 </wgt>
<wgt id='1479'> +1.2375324e-12 </wgt>
<wgt id='1480'> +1.2387988e-12 </wgt>
<wgt id='1481'> +1.2356970e-12 </wgt>
<wgt id='1482'> +1.2370671e-12 </wgt>
<wgt id='1483'> +1.2257817e-12 </wgt>
<wgt id='1484'> +1.2431424e-12 </wgt>
<wgt id='1485'> +1.2345403e-12 </wgt>
<wgt id='1486'> +1.2414216e-12 </wgt>
<wgt id='1487'> +1.2400978e-12 </wgt>
<wgt id='1488'> +1.2382715e-12 </wgt>
<wgt id='1489'> +1.2612322e-12 </wgt>
<wgt id='1490'> +1.2369159e-12 </wgt>
<wgt id='1491'> +1.2392509e-12 </wgt>
<wgt id='1492'> +1.2429823e-12 </wgt>
<wgt id='1493'> +1.2261647e-12 </wgt>
<wgt id='1494'> +1.2526670e-12 </wgt>
<wgt id='1495'> +1.2339009e-12 </wgt>
<wgt id='1496'> +1.2390963e-12 </wgt>
<wgt id='1497'> +1.2389586e-12 </wgt>
<wgt id='1498'> +1.2401373e-12 </wgt>
<wgt id='1499'> +1.2409170e-12 </wgt>
<wgt id='1500'> +1.2404144e-12 </wgt>
<wgt id='1501'> +1.2404069e-12 </wgt>
<wgt id='1502'> +1.2410898e-12 </wgt>
<wgt id='1503'> +1.2392381e-12 </wgt>
<wgt id='1504'> +1.2375976e-12 </wgt>
<wgt id='1505'> +1.2398882e-12 </wgt>
<wgt id='1506'> +1.2379724e-12 </wgt>
<wgt id='1507'> +1.2391183e-12 </wgt>
<wgt id='1508'> +1.2438478e-12 </wgt>
<wgt id='1509'> +1.2926272e-12 </wgt>
<wgt id='1510'> +1.2914903e-12 </wgt>
<wgt id='1511'> +1.2969315e-12 </wgt>
<wgt id='1512'> +1.2952254e-12 </wgt>
<wgt id='1513'> +1.2973864e-12 </wgt>
<wgt id='1514'> +1.2913483e-12 </wgt>
<wgt id='1515'> +1.2891463e-12 </wgt>
<wgt id='1516'> +1.2909397e-12 </wgt>
<wgt id='1517'> +1.2929665e-12 </wgt>
<wgt id='1518'> +1.2963855e-12 </wgt>
<wgt id='1519'> +1.2868083e-12 </wgt>
<wgt id='1520'> +1.2972786e-12 </wgt>
<wgt id='1521'> +1.3002801e-12 </wgt>
<wgt id='1522'> +1.2984907e-12 </wgt>
<wgt id='1523'> +1.2991098e-12 </wgt>
<wgt id='1524'> +1.2939373e-12 </wgt>
<wgt id='1525'> +1.2944861e-12 </wgt>
<wgt id='1526'> +1.2892022e-12 </wgt>
<wgt id='1527'> +1.2907906e-12 </wgt>
<wgt id='1528'> +1.2942886e-12 </wgt>
<wgt id='1529'> +1.2914367e-12 </wgt>
<wgt id='1530'> +1.2989283e-12 </wgt>
<wgt id='1531'> +1.2928793e-12 </wgt>
<wgt id='1532'> +1.2892360e-12 </wgt>
<wgt id='1533'> +1.2919559e-12 </wgt>
<wgt id='1534'> +1.2966631e-12 </wgt>
<wgt id='1535'> +1.2850412e-12 </wgt>
<wgt id='1536'> +1.2889049e-12 </wgt>
<wgt id='1537'> +1.2897761e-12 </wgt>
<wgt id='1538'> +1.2941219e-12 </wgt>
<wgt id='1539'> +1.2984792e-12 </wgt>
<wgt id='1540'> +1.2943441e-12 </wgt>
<wgt id='1541'> +1.2930203e-12 </wgt>
<wgt id='1542'> +1.2913096e-12 </wgt>
<wgt id='1543'> +1.2908202e-12 </wgt>
<wgt id='1544'> +1.2915817e-12 </wgt>
<wgt id='1545'> +1.2940673e-12 </wgt>
<wgt id='1546'> +1.2916571e-12 </wgt>
<wgt id='1547'> +1.2932843e-12 </wgt>
<wgt id='1548'> +1.2924269e-12 </wgt>
<wgt id='1549'> +1.2909526e-12 </wgt>
<wgt id='1550'> +1.2950802e-12 </wgt>
<wgt id='1551'> +1.2938831e-12 </wgt>
<wgt id='1552'> +1.2926169e-12 </wgt>
<wgt id='1553'> +1.2945594e-12 </wgt>
<wgt id='1554'> +1.2951063e-12 </wgt>
<wgt id='1555'> +1.2946104e-12 </wgt>
<wgt id='1556'> +1.2918011e-12 </wgt>
<wgt id='1557'> +1.2930712e-12 </wgt>
<wgt id='1558'> +1.2933390e-12 </wgt>
<wgt id='1559'> +1.2931668e-12 </wgt>
<wgt id='1560'> +1.2942007e-12 </wgt>
<wgt id='1561'> +1.2919642e-12 </wgt>
<wgt id='1562'> +1.2924705e-12 </wgt>
<wgt id='1563'> +1.2935048e-12 </wgt>
<wgt id='1564'> +1.2897479e-12 </wgt>
<wgt id='1565'> +1.2930979e-12 </wgt>
<wgt id='1566'> +1.2923803e-12 </wgt>
<wgt id='1567'> +1.2917933e-12 </wgt>
<wgt id='1568'> +1.2940286e-12 </wgt>
<wgt id='1569'> +1.2929120e-12 </wgt>
<wgt id='1570'> +1.2913311e-12 </wgt>
<wgt id='1571'> +1.2927607e-12 </wgt>
<wgt id='1572'> +1.2907954e-12 </wgt>
<wgt id='1573'> +1.2908456e-12 </wgt>
<wgt id='1574'> +1.2928878e-12 </wgt>
<wgt id='1575'> +1.2933336e-12 </wgt>
<wgt id='1576'> +1.2916706e-12 </wgt>
<wgt id='1577'> +1.2914078e-12 </wgt>
<wgt id='1578'> +1.2928024e-12 </wgt>
<wgt id='1579'> +1.2924928e-12 </wgt>
<wgt id='1580'> +1.2939713e-12 </wgt>
<wgt id='1581'> +1.2921771e-12 </wgt>
<wgt id='1582'> +1.2921451e-12 </wgt>
<wgt id='1583'> +1.2924393e-12 </wgt>
<wgt id='1584'> +1.2928860e-12 </wgt>
<wgt id='1585'> +1.2921775e-12 </wgt>
<wgt id='1586'> +1.2921715e-12 </wgt>
<wgt id='1587'> +1.2927586e-12 </wgt>
<wgt id='1588'> +1.2936512e-12 </wgt>
<wgt id='1589'> +1.2926868e-12 </wgt>
<wgt id='1590'> +1.2922937e-12 </wgt>
<wgt id='1591'> +1.2926371e-12 </wgt>
<wgt id='1592'> +1.2921622e-12 </wgt>
<wgt id='1593'> +1.2932617e-12 </wgt>
<wgt id='1594'> +1.2927756e-12 </wgt>
<wgt id='1595'> +1.2926655e-12 </wgt>
<wgt id='1596'> +1.2926384e-12 </wgt>
<wgt id='1597'> +1.2923051e-12 </wgt>
<wgt id='1598'> +1.2926317e-12 </wgt>
<wgt id='1599'> +1.2934784e-12 </wgt>
<wgt id='1600'> +1.2920209e-12 </wgt>
<wgt id='1601'> +1.2928633e-12 </wgt>
<wgt id='1602'> +1.2928209e-12 </wgt>
<wgt id='1603'> +1.2930138e-12 </wgt>
<wgt id='1604'> +1.2924090e-12 </wgt>
<wgt id='1605'> +1.2926531e-12 </wgt>
<wgt id='1606'> +1.2920588e-12 </wgt>
<wgt id='1607'> +1.2927624e-12 </wgt>
<wgt id='1608'> +1.2920667e-12 </wgt>
<wgt id='1609'> +1.2926906e-12 </wgt>
<wgt id='1610'> +1.2820181e-12 </wgt>
<wgt id='1611'> +1.3018364e-12 </wgt>
<wgt id='1612'> +1.5018631e-12 </wgt>
<wgt id='1613'> +1.4907010e-12 </wgt>
<wgt id='1614'> +1.5151609e-12 </wgt>
<wgt id='1615'> +1.4889391e-12 </wgt>
<wgt id='1616'> +1.5377908e-12 </wgt>
<wgt id='1617'> +1.5302720e-12 </wgt>
<wgt id='1618'> +1.5096315e-12 </wgt>
<wgt id='1619'> +1.5065091e-12 </wgt>
<wgt id='1620'> +1.4523855e-12 </wgt>
<wgt id='1621'> +1.5130396e-12 </wgt>
<wgt id='1622'> +1.5092725e-12 </wgt>
<wgt id='1623'> +1.5047411e-12 </wgt>
<wgt id='1624'> +1.4709115e-12 </wgt>
<wgt id='1625'> +1.4846893e-12 </wgt>
<wgt id='1626'> +1.4840163e-12 </wgt>
<wgt id='1627'> +1.4969607e-12 </wgt>
<wgt id='1628'> +1.5136187e-12 </wgt>
<wgt id='1629'> +1.5439956e-12 </wgt>
<wgt id='1630'> +1.5028864e-12 </wgt>
<wgt id='1631'> +1.4797834e-12 </wgt>
<wgt id='1632'> +1.4479347e-12 </wgt>
<wgt id='1633'> +1.4655760e-12 </wgt>
<wgt id='1634'> +1.5750102e-12 </wgt>
<wgt id='1635'> +1.5084771e-12 </wgt>
<wgt id='1636'> +1.5361883e-12 </wgt>
<wgt id='1637'> +1.4711520e-12 </wgt>
<wgt id='1638'> +1.5273436e-12 </wgt>
<wgt id='1639'> +1.5013465e-12 </wgt>
<wgt id='1640'> +1.5322743e-12 </wgt>
<wgt id='1641'> +1.4765919e-12 </wgt>
<wgt id='1642'> +1.5040666e-12 </wgt>
<wgt id='1643'> +1.5465362e-12 </wgt>
<wgt id='1644'> +1.4462095e-12 </wgt>
<wgt id='1645'> +1.5169244e-12 </wgt>
<wgt id='1646'> +1.4770521e-12 </wgt>
<wgt id='1647'> +1.4902155e-12 </wgt>
<wgt id='1648'> +1.5115099e-12 </wgt>
<wgt id='1649'> +1.5122450e-12 </wgt>
<wgt id='1650'> +1.4921803e-12 </wgt>
<wgt id='1651'> +1.4569439e-12 </wgt>
<wgt id='1652'> +1.4858373e-12 </wgt>
<wgt id='1653'> +1.5460295e-12 </wgt>
<wgt id='1654'> +1.5108271e-12 </wgt>
<wgt id='1655'> +1.4679716e-12 </wgt>
<wgt id='1656'> +1.4551766e-12 </wgt>
<wgt id='1657'> +1.4912667e-12 </wgt>
<wgt id='1658'> +1.4635246e-12 </wgt>
<wgt id='1659'> +1.4709115e-12 </wgt>
<wgt id='1660'> +1.5058709e-12 </wgt>
<wgt id='1661'> +1.4874476e-12 </wgt>
<wgt id='1662'> +1.5012094e-12 </wgt>
<wgt id='1663'> +1.4926970e-12 </wgt>
<wgt id='1664'> +1.5041914e-12 </wgt>
<wgt id='1665'> +1.4782940e-12 </wgt>
<wgt id='1666'> +1.5154286e-12 </wgt>
<wgt id='1667'> +1.4756743e-12 </wgt>
<wgt id='1668'> +1.5424788e-12 </wgt>
<wgt id='1669'> +1.4663156e-12 </wgt>
<wgt id='1670'> +1.5173812e-12 </wgt>
<wgt id='1671'> +1.4776183e-12 </wgt>
<wgt id='1672'> +1.5171160e-12 </wgt>
<wgt id='1673'> +1.4724797e-12 </wgt>
<wgt id='1674'> +1.4770006e-12 </wgt>
<wgt id='1675'> +1.5500527e-12 </wgt>
<wgt id='1676'> +1.5432717e-12 </wgt>
<wgt id='1677'> +1.5743023e-12 </wgt>
<wgt id='1678'> +1.5050180e-12 </wgt>
<wgt id='1679'> +1.5251254e-12 </wgt>
<wgt id='1680'> +1.5256969e-12 </wgt>
<wgt id='1681'> +1.5261844e-12 </wgt>
<wgt id='1682'> +1.5006098e-12 </wgt>
<wgt id='1683'> +1.4682787e-12 </wgt>
<wgt id='1684'> +1.4865496e-12 </wgt>
<wgt id='1685'> +1.4951200e-12 </wgt>
<wgt id='1686'> +1.5107646e-12 </wgt>
<wgt id='1687'> +1.5480258e-12 </wgt>
<wgt id='1688'> +1.5220743e-12 </wgt>
<wgt id='1689'> +1.4759365e-12 </wgt>
<wgt id='1690'> +1.5468505e-12 </wgt>
<wgt id='1691'> +1.5536802e-12 </wgt>
<wgt id='1692'> +1.5240892e-12 </wgt>
<wgt id='1693'> +1.5348543e-12 </wgt>
<wgt id='1694'> +1.4483000e-12 </wgt>
<wgt id='1695'> +1.5135471e-12 </wgt>
<wgt id='1696'> +1.5508357e-12 </wgt>
<wgt id='1697'> +1.4935921e-12 </wgt>
<wgt id='1698'> +1.4936852e-12 </wgt>
<wgt id='1699'> +1.5179021e-12 </wgt>
<wgt id='1700'> +1.4917976e-12 </wgt>
<wgt id='1701'> +1.4706259e-12 </wgt>
<wgt id='1702'> +1.4898449e-12 </wgt>
<wgt id='1703'> +1.5327714e-12 </wgt>
<wgt id='1704'> +1.4746295e-12 </wgt>
<wgt id='1705'> +1.4708651e-12 </wgt>
<wgt id='1706'> +1.5080430e-12 </wgt>
<wgt id='1707'> +1.4771313e-12 </wgt>
<wgt id='1708'> +1.4608985e-12 </wgt>
<wgt id='1709'> +1.4930054e-12 </wgt>
<wgt id='1710'> +1.4686838e-12 </wgt>
<wgt id='1711'> +1.5535515e-12 </wgt>
<wgt id='1712'> +1.5076816e-12 </wgt>
<wgt id='1713'> +1.2113070e-12 </wgt>
<wgt id='1714'> +1.1780979e-12 </wgt>
<wgt id='1715'> +1.2367875e-12 </wgt>
<wgt id='1716'> +1.2437253e-12 </wgt>
<wgt id='1717'> +1.2045724e-12 </wgt>
<wgt id='1718'> +1.2188659e-12 </wgt>
<wgt id='1719'> +1.2130789e-12 </wgt>
<wgt id='1720'> +1.2361953e-12 </wgt>
<wgt id='1721'> +1.1821664e-12 </wgt>
<wgt id='1722'> +1.1948735e-12 </wgt>
<wgt id='1723'> +1.1667718e-12 </wgt>
<wgt id='1724'> +1.1966397e-12 </wgt>
<wgt id='1725'> +1.2195529e-12 </wgt>
<wgt id='1726'> +1.2709283e-12 </wgt>
<wgt id='1727'> +1.1868249e-12 </wgt>
<wgt id='1728'> +1.2107574e-12 </wgt>
<wgt id='1729'> +1.2143579e-12 </wgt>
<wgt id='1730'> +1.1854727e-12 </wgt>
<wgt id='1731'> +1.1695657e-12 </wgt>
<wgt id='1732'> +1.2243401e-12 </wgt>
<wgt id='1733'> +1.2318263e-12 </wgt>
<wgt id='1734'> +1.2288373e-12 </wgt>
<wgt id='1735'> +1.1917272e-12 </wgt>
<wgt id='1736'> +1.2768901e-12 </wgt>
<wgt id='1737'> +1.2372639e-12 </wgt>
<wgt id='1738'> +1.2388995e-12 </wgt>
<wgt id='1739'> +1.1629883e-12 </wgt>
<wgt id='1740'> +1.2086118e-12 </wgt>
<wgt id='1741'> +1.2206401e-12 </wgt>
<wgt id='1742'> +1.2166454e-12 </wgt>
<wgt id='1743'> +1.2364407e-12 </wgt>
<wgt id='1744'> +1.2464646e-12 </wgt>
<wgt id='1745'> +1.1352710e-12 </wgt>
<wgt id='1746'> +1.2341613e-12 </wgt>
<wgt id='1747'> +1.2160794e-12 </wgt>
<wgt id='1748'> +1.2300202e-12 </wgt>
<wgt id='1749'> +1.2303700e-12 </wgt>
<wgt id='1750'> +1.2290308e-12 </wgt>
<wgt id='1751'> +1.1742412e-12 </wgt>
<wgt id='1752'> +1.1952755e-12 </wgt>
<wgt id='1753'> +1.2295728e-12 </wgt>
<wgt id='1754'> +1.2121258e-12 </wgt>
<wgt id='1755'> +1.2508742e-12 </wgt>
<wgt id='1756'> +1.2294424e-12 </wgt>
<wgt id='1757'> +1.1932466e-12 </wgt>
<wgt id='1758'> +1.2286386e-12 </wgt>
<wgt id='1759'> +1.2272369e-12 </wgt>
<wgt id='1760'> +1.1701986e-12 </wgt>
<wgt id='1761'> +1.1837644e-12 </wgt>
<wgt id='1762'> +1.2175701e-12 </wgt>
<wgt id='1763'> +1.2348006e-12 </wgt>
<wgt id='1764'> +1.2005436e-12 </wgt>
<wgt id='1765'> +1.2156241e-12 </wgt>
<wgt id='1766'> +1.2029467e-12 </wgt>
<wgt id='1767'> +1.2133620e-12 </wgt>
<wgt id='1768'> +1.2105340e-12 </wgt>
<wgt id='1769'> +1.1795781e-12 </wgt>
<wgt id='1770'> +1.2407748e-12 </wgt>
<wgt id='1771'> +1.2147581e-12 </wgt>
<wgt id='1772'> +1.2533052e-12 </wgt>
<wgt id='1773'> +1.2022976e-12 </wgt>
<wgt id='1774'> +1.2100350e-12 </wgt>
<wgt id='1775'> +1.2245210e-12 </wgt>
<wgt id='1776'> +1.2347965e-12 </wgt>
<wgt id='1777'> +1.1540913e-12 </wgt>
<wgt id='1778'> +1.1973794e-12 </wgt>
<wgt id='1779'> +1.2325146e-12 </wgt>
<wgt id='1780'> +1.2019225e-12 </wgt>
<wgt id='1781'> +1.2057643e-12 </wgt>
<wgt id='1782'> +1.1863064e-12 </wgt>
<wgt id='1783'> +1.2094259e-12 </wgt>
<wgt id='1784'> +1.2189639e-12 </wgt>
<wgt id='1785'> +1.1841252e-12 </wgt>
<wgt id='1786'> +1.1305136e-12 </wgt>
<wgt id='1787'> +1.2465134e-12 </wgt>
<wgt id='1788'> +1.2224543e-12 </wgt>
<wgt id='1789'> +1.1562711e-12 </wgt>
<wgt id='1790'> +1.2223138e-12 </wgt>
<wgt id='1791'> +1.2311392e-12 </wgt>
<wgt id='1792'> +1.1825695e-12 </wgt>
<wgt id='1793'> +1.2178954e-12 </wgt>
<wgt id='1794'> +1.2153319e-12 </wgt>
<wgt id='1795'> +1.2195029e-12 </wgt>
<wgt id='1796'> +1.1979760e-12 </wgt>
<wgt id='1797'> +1.2160786e-12 </wgt>
<wgt id='1798'> +1.2053819e-12 </wgt>
<wgt id='1799'> +1.2138801e-12 </wgt>
<wgt id='1800'> +1.2005601e-12 </wgt>
<wgt id='1801'> +1.2073387e-12 </wgt>
<wgt id='1802'> +1.2001962e-12 </wgt>
<wgt id='1803'> +1.2297594e-12 </wgt>
<wgt id='1804'> +1.1870362e-12 </wgt>
<wgt id='1805'> +1.2182139e-12 </wgt>
<wgt id='1806'> +1.2015062e-12 </wgt>
<wgt id='1807'> +1.2277674e-12 </wgt>
<wgt id='1808'> +1.2099767e-12 </wgt>
<wgt id='1809'> +1.1919101e-12 </wgt>
<wgt id='1810'> +1.2082775e-12 </wgt>
<wgt id='1811'> +1.2539867e-12 </wgt>
<wgt id='1812'> +1.2285864e-12 </wgt>
<wgt id='1813'> +1.2261919e-12 </wgt>
<wgt id='1814'> +1.3392762e-12 </wgt>
<wgt id='1815'> +1.5052730e-12 </wgt>
<wgt id='1816'> +1.2113070e-12 </wgt>
<wgt id='1817'> +1.1780979e-12 </wgt>
<wgt id='1818'> +1.2367875e-12 </wgt>
<wgt id='1819'> +1.2437253e-12 </wgt>
<wgt id='1820'> +1.2045724e-12 </wgt>
<wgt id='1821'> +1.2188659e-12 </wgt>
<wgt id='1822'> +1.2130789e-12 </wgt>
<wgt id='1823'> +1.2361953e-12 </wgt>
<wgt id='1824'> +1.1821664e-12 </wgt>
<wgt id='1825'> +1.1948735e-12 </wgt>
<wgt id='1826'> +1.1667718e-12 </wgt>
<wgt id='1827'> +1.1966397e-12 </wgt>
<wgt id='1828'> +1.2195529e-12 </wgt>
<wgt id='1829'> +1.2709283e-12 </wgt>
<wgt id='1830'> +1.1868249e-12 </wgt>
<wgt id='1831'> +1.2107574e-12 </wgt>
<wgt id='1832'> +1.2143579e-12 </wgt>
<wgt id='1833'> +1.1854727e-12 </wgt>
<wgt id='1834'> +1.1695657e-12 </wgt>
<wgt id='1835'> +1.2243401e-12 </wgt>
<wgt id='1836'> +1.2318263e-12 </wgt>
<wgt id='1837'> +1.2288373e-12 </wgt>
<wgt id='1838'> +1.1917272e-12 </wgt>
<wgt id='1839'> +1.2768901e-12 </wgt>
<wgt id='1840'> +1.2372639e-12 </wgt>
<wgt id='1841'> +1.2388995e-12 </wgt>
<wgt id='1842'> +1.1629883e-12 </wgt>
<wgt id='1843'> +1.2086118e-12 </wgt>
<wgt id='1844'> +1.2206401e-12 </wgt>
<wgt id='1845'> +1.2166454e-12 </wgt>
<wgt id='1846'> +1.2364407e-12 </wgt>
<wgt id='1847'> +1.2464646e-12 </wgt>
<wgt id='1848'> +1.1352710e-12 </wgt>
<wgt id='1849'> +1.2341613e-12 </wgt>
<wgt id='1850'> +1.2160794e-12 </wgt>
<wgt id='1851'> +1.2300202e-12 </wgt>
<wgt id='1852'> +1.2303700e-12 </wgt>
<wgt id='1853'> +1.2290308e-12 </wgt>
<wgt id='1854'> +1.1742412e-12 </wgt>
<wgt id='1855'> +1.1952755e-12 </wgt>
<wgt id='1856'> +1.2295728e-12 </wgt>
<wgt id='1857'> +1.2121258e-12 </wgt>
<wgt id='1858'> +1.2508742e-12 </wgt>
<wgt id='1859'> +1.2294424e-12 </wgt>
<wgt id='1860'> +1.1932466e-12 </wgt>
<wgt id='1861'> +1.2286386e-12 </wgt>
<wgt id='1862'> +1.2272369e-12 </wgt>
<wgt id='1863'> +1.1701986e-12 </wgt>
<wgt id='1864'> +1.1837644e-12 </wgt>
<wgt id='1865'> +1.2175701e-12 </wgt>
<wgt id='1866'> +1.2348006e-12 </wgt>
<wgt id='1867'> +1.2005436e-12 </wgt>
<wgt id='1868'> +1.2156241e-12 </wgt>
<wgt id='1869'> +1.2029467e-12 </wgt>
<wgt id='1870'> +1.2133620e-12 </wgt>
<wgt id='1871'> +1.2105340e-12 </wgt>
<wgt id='1872'> +1.1795781e-12 </wgt>
<wgt id='1873'> +1.2407748e-12 </wgt>
<wgt id='1874'> +1.2147581e-12 </wgt>
<wgt id='1875'> +1.2533052e-12 </wgt>
<wgt id='1876'> +1.2022976e-12 </wgt>
<wgt id='1877'> +1.2100350e-12 </wgt>
<wgt id='1878'> +1.2245210e-12 </wgt>
<wgt id='1879'> +1.2347965e-12 </wgt>
<wgt id='1880'> +1.1540913e-12 </wgt>
<wgt id='1881'> +1.1973794e-12 </wgt>
<wgt id='1882'> +1.2325146e-12 </wgt>
<wgt id='1883'> +1.2019225e-12 </wgt>
<wgt id='1884'> +1.2057643e-12 </wgt>
<wgt id='1885'> +1.1863064e-12 </wgt>
<wgt id='1886'> +1.2094259e-12 </wgt>
<wgt id='1887'> +1.2189639e-12 </wgt>
<wgt id='1888'> +1.1841252e-12 </wgt>
<wgt id='1889'> +1.1305136e-12 </wgt>
<wgt id='1890'> +1.2465134e-12 </wgt>
<wgt id='1891'> +1.2224543e-12 </wgt>
<wgt id='1892'> +1.1562711e-12 </wgt>
<wgt id='1893'> +1.2223138e-12 </wgt>
<wgt id='1894'> +1.2311392e-12 </wgt>
<wgt id='1895'> +1.1825695e-12 </wgt>
<wgt id='1896'> +1.2178954e-12 </wgt>
<wgt id='1897'> +1.2153319e-12 </wgt>
<wgt id='1898'> +1.2195029e-12 </wgt>
<wgt id='1899'> +1.1979760e-12 </wgt>
<wgt id='1900'> +1.2160786e-12 </wgt>
<wgt id='1901'> +1.2053819e-12 </wgt>
<wgt id='1902'> +1.2138801e-12 </wgt>
<wgt id='1903'> +1.2005601e-12 </wgt>
<wgt id='1904'> +1.2073387e-12 </wgt>
<wgt id='1905'> +1.2001962e-12 </wgt>
<wgt id='1906'> +1.2297594e-12 </wgt>
<wgt id='1907'> +1.1870362e-12 </wgt>
<wgt id='1908'> +1.2182139e-12 </wgt>
<wgt id='1909'> +1.2015062e-12 </wgt>
<wgt id='1910'> +1.2277674e-12 </wgt>
<wgt id='1911'> +1.2099767e-12 </wgt>
<wgt id='1912'> +1.1919101e-12 </wgt>
<wgt id='1913'> +1.2082775e-12 </wgt>
<wgt id='1914'> +1.2539867e-12 </wgt>
<wgt id='1915'> +1.2285864e-12 </wgt>
<wgt id='1916'> +1.2261919e-12 </wgt>
<wgt id='1917'> +1.2031996e-12 </wgt>
<wgt id='1918'> +1.2139782e-12 </wgt>
<wgt id='1919'> +1.2483040e-12 </wgt>
</rwgt>
</event>
<event>
 9      1 +1.5538000e-12 2.58740300e+01 7.81860800e-03 1.49553300e-01
        1 -1    0    0  502    0 -0.0000000000e+00 +0.0000000000e+00 +4.6769094405e+02 4.6769094405e+02 0.0000000000e+00 0.0000e+00 1.0000e+00
       21 -1    0    0  501  502 +0.0000000000e+00 -0.0000000000e+00 -2.7904516801e+00 2.7904516801e+00 0.0000000000e+00 0.0000e+00 1.0000e+00
     1023  2    1    2    0    0 -1.7077221902e+01 -1.2362356563e+01 +4.2086332845e+02 4.2165792623e+02 1.5000205113e+01 0.0000e+00 0.0000e+00
  1000023  2    3    3    0    0 -9.3567622420e+00 -4.4520752822e+00 +2.8891928195e+02 2.8915732452e+02 5.4988060117e+00 0.0000e+00 0.0000e+00
        1  1    1    2  501    0 +1.7077221902e+01 +1.2362356563e+01 +4.4037163926e+01 4.8823469503e+01 0.0000000000e+00 0.0000e+00 1.0000e+00
  1000022  1    4    4    0    0 -7.8644808124e+00 -3.8479054055e+00 +2.5593878894e+02 2.5613730716e+02 5.0000000000e+00 0.0000e+00 1.0000e+00
      -11  1    4    4    0    0 -8.1962758931e-01 -2.7237507137e-01 +1.8332964645e+01 1.8353298628e+01 5.1100000000e-04 0.0000e+00 1.0000e+00
       11  1    4    4    0    0 -6.7265384025e-01 -3.3179480533e-01 +1.4647528359e+01 1.4666718729e+01 5.1100000000e-04 0.0000e+00 -1.0000e+00
  1000022  1    3    3    0    0 -7.7204596601e+00 -7.9102812805e+00 +1.3194404650e+02 1.3250060171e+02 5.0000000000e+00 0.0000e+00 -1.0000e+00
<mgrwt>
<rscale>  1 0.25874032E+02</rscale>
<asrwt>0</asrwt>
<pdfrwt beam="1">  1       21 0.42930063E-03 0.25874032E+02</pdfrwt>
<pdfrwt beam="2">  1        1 0.71952391E-01 0.25874032E+02</pdfrwt>
<totfact> 0.48200298E+06</totfact>
</mgrwt>
<rwgt>
<wgt id='1001'> +1.5538000e-12 </wgt>
<wgt id='1002'> +1.6084477e-12 </wgt>
<wgt id='1003'> +1.6126510e-12 </wgt>
<wgt id='1004'> +1.5325091e-12 </wgt>
<wgt id='1005'> +1.6376470e-12 </wgt>
<wgt id='1006'> +1.3538964e-12 </wgt>
<wgt id='1007'> +1.4200711e-12 </wgt>
<wgt id='1008'> +1.4256200e-12 </wgt>
<wgt id='1009'> +1.3296355e-12 </wgt>
<wgt id='1010'> +1.4625286e-12 </wgt>
<wgt id='1011'> +1.8265172e-12 </wgt>
<wgt id='1012'> +1.8570995e-12 </wgt>
<wgt id='1013'> +1.8587067e-12 </wgt>
<wgt id='1014'> +1.8123495e-12 </wgt>
<wgt id='1015'> +1.8623656e-12 </wgt>
<wgt id='1016'> +1.8617307e-12 </wgt>
<wgt id='1017'> +1.8598999e-12 </wgt>
<wgt id='1018'> +1.8587188e-12 </wgt>
<wgt id='1019'> +1.8587067e-12 </wgt>
<wgt id='1020'> +1.8424059e-12 </wgt>
<wgt id='1021'> +1.6222104e-12 </wgt>
<wgt id='1022'> +1.6420740e-12 </wgt>
<wgt id='1023'> +1.6431495e-12 </wgt>
<wgt id='1024'> +1.6126510e-12 </wgt>
<wgt id='1025'> +1.6453920e-12 </wgt>
<wgt id='1026'> +2.1884947e-12 </wgt>
<wgt id='1027'> +2.1474241e-12 </wgt>
<wgt id='1028'> +2.1423191e-12 </wgt>
<wgt id='1029'> +2.1981116e-12 </wgt>
<wgt id='1030'> +2.0952216e-12 </wgt>
<wgt id='1031'> +1.2032519e-12 </wgt>
<wgt id='1032'> +1.3194150e-12 </wgt>
<wgt id='1033'> +1.3296355e-12 </wgt>
<wgt id='1034'> +1.1613650e-12 </wgt>
<wgt id='1035'> +1.4017304e-12 </wgt>
<wgt id='1036'> +1.0484479e-12 </wgt>
<wgt id='1037'> +1.1648891e-12 </wgt>
<wgt id='1038'> +1.1754278e-12 </wgt>
<wgt id='1039'> +1.0076235e-12 </wgt>
<wgt id='1040'> +1.2518392e-12 </wgt>
<wgt id='1041'> +1.4144421e-12 </wgt>
<wgt id='1042'> +1.5233850e-12 </wgt>
<wgt id='1043'> +1.5325091e-12 </wgt>
<wgt id='1044'> +1.3734335e-12 </wgt>
<wgt id='1045'> +1.5940765e-12 </wgt>
<wgt id='1046'> +1.5538000e-12 </wgt>
<wgt id='1047'> +1.5892833e-12 </wgt>
<wgt id='1048'> +1.6094076e-12 </wgt>
<wgt id='1049'> +1.5032306e-12 </wgt>
<wgt id='1050'> +1.5336859e-12 </wgt>
<wgt id='1051'> +1.5373839e-12 </wgt>
<wgt id='1052'> +1.5317055e-12 </wgt>
<wgt id='1053'> +1.6169524e-12 </wgt>
<wgt id='1054'> +1.5757595e-12 </wgt>
<wgt id='1055'> +1.5615355e-12 </wgt>
<wgt id='1056'> +1.4670530e-12 </wgt>
<wgt id='1057'> +1.5165235e-12 </wgt>
<wgt id='1058'> +1.5173939e-12 </wgt>
<wgt id='1059'> +1.5415856e-12 </wgt>
<wgt id='1060'> +1.5467366e-12 </wgt>
<wgt id='1061'> +1.5864808e-12 </wgt>
<wgt id='1062'> +1.5335057e-12 </wgt>
<wgt id='1063'> +1.5332302e-12 </wgt>
<wgt id='1064'> +1.5727525e-12 </wgt>
<wgt id='1065'> +1.5826996e-12 </wgt>
<wgt id='1066'> +1.5498774e-12 </wgt>
<wgt id='1067'> +1.5970079e-12 </wgt>
<wgt id='1068'> +1.6164108e-12 </wgt>
<wgt id='1069'> +1.6261839e-12 </wgt>
<wgt id='1070'> +1.5386534e-12 </wgt>
<wgt id='1071'> +1.5662761e-12 </wgt>
<wgt id='1072'> +1.5382613e-12 </wgt>
<wgt id='1073'> +1.5533034e-12 </wgt>
<wgt id='1074'> +1.5735117e-12 </wgt>
<wgt id='1075'> +1.5167247e-12 </wgt>
<wgt id='1076'> +1.5876908e-12 </wgt>
<wgt id='1077'> +1.5755069e-12 </wgt>
<wgt id='1078'> +1.5453946e-12 </wgt>
<wgt id='1079'> +1.5722962e-12 </wgt>
<wgt id='1080'> +1.5250865e-12 </wgt>
<wgt id='1081'> +1.5061582e-12 </wgt>
<wgt id='1082'> +1.5461767e-12 </wgt>
<wgt id='1083'> +1.5384129e-12 </wgt>
<wgt id='1084'> +1.5182420e-12 </wgt>
<wgt id='1085'> +1.5666061e-12 </wgt>
<wgt id='1086'> +1.5447877e-12 </wgt>
<wgt id='1087'> +1.5382307e-12 </wgt>
<wgt id='1088'> +1.5744970e-12 </wgt>
<wgt id='1089'> +1.5528856e-12 </wgt>
<wgt id='1090'> +1.5543514e-12 </wgt>
<wgt id='1091'> +1.5706572e-12 </wgt>
<wgt id='1092'> +1.5111485e-12 </wgt>
<wgt id='1093'> +1.5635601e-12 </wgt>
<wgt id='1094'> +1.5896029e-12 </wgt>
<wgt id='1095'> +1.6021260e-12 </wgt>
<wgt id='1096'> +1.5169901e-12 </wgt>
<wgt id='1097'> +1.5657754e-12 </wgt>
<wgt id='1098'> +1.6011583e-12 </wgt>
<wgt id='1099'> +1.5364485e-12 </wgt>
<wgt id='1100'> +1.6036783e-12 </wgt>
<wgt id='1101'> +1.5314906e-12 </wgt>
<wgt id='1102'> +1.5714885e-12 </wgt>
<wgt id='1103'> +1.5900214e-12 </wgt>
<wgt id='1104'> +1.5944147e-12 </wgt>
<wgt id='1105'> +1.5111215e-12 </wgt>
<wgt id='1106'> +1.5736756e-12 </wgt>
<wgt id='1107'> +1.5820927e-12 </wgt>
<wgt id='1108'> +1.5473068e-12 </wgt>
<wgt id='1109'> +1.5081985e-12 </wgt>
<wgt id='1110'> +1.5193194e-12 </wgt>
<wgt id='1111'> +1.5555892e-12 </wgt>
<wgt id='1112'> +1.5637395e-12 </wgt>
<wgt id='1113'> +1.5839347e-12 </wgt>
<wgt id='1114'> +1.5778241e-12 </wgt>
<wgt id='1115'> +1.5534808e-12 </wgt>
<wgt id='1116'> +1.6134255e-12 </wgt>
<wgt id='1117'> +1.5709818e-12 </wgt>
<wgt id='1118'> +1.5914949e-12 </wgt>
<wgt id='1119'> +1.5148603e-12 </wgt>
<wgt id='1120'> +1.5074193e-12 </wgt>
<wgt id='1121'> +1.5194601e-12 </wgt>
<wgt id='1122'> +1.5110835e-12 </wgt>
<wgt id='1123'> +1.5578046e-12 </wgt>
<wgt id='1124'> +1.5990017e-12 </wgt>
<wgt id='1125'> +1.5000730e-12 </wgt>
<wgt id='1126'> +1.5002352e-12 </wgt>
<wgt id='1127'> +1.5886569e-12 </wgt>
<wgt id='1128'> +1.5335057e-12 </wgt>
<wgt id='1129'> +1.4781583e-12 </wgt>
<wgt id='1130'> +1.5474161e-12 </wgt>
<wgt id='1131'> +1.5581667e-12 </wgt>
<wgt id='1132'> +1.6458457e-12 </wgt>
<wgt id='1133'> +1.5411447e-12 </wgt>
<wgt id='1134'> +1.5388945e-12 </wgt>
<wgt id='1135'> +1.3994513e-12 </wgt>
<wgt id='1136'> +1.5184789e-12 </wgt>
<wgt id='1137'> +1.5754784e-12 </wgt>
<wgt id='1138'> +1.5296272e-12 </wgt>
<wgt id='1139'> +1.5654296e-12 </wgt>
<wgt id='1140'> +1.5949030e-12 </wgt>
<wgt id='1141'> +1.5858576e-12 </wgt>
<wgt id='1142'> +1.6007661e-12 </wgt>
<wgt id='1143'> +1.5178925e-12 </wgt>
<wgt id='1144'> +1.5250720e-12 </wgt>
<wgt id='1145'> +1.5590398e-12 </wgt>
<wgt id='1146'> +1.5860420e-12 </wgt>
<wgt id='1147'> +1.3682238e-12 </wgt>
<wgt id='1148'> +1.3936271e-12 </wgt>
<wgt id='1149'> +1.3429499e-12 </wgt>
<wgt id='1150'> +1.3947765e-12 </wgt>
<wgt id='1151'> +1.6040324e-12 </wgt>
<wgt id='1152'> +2.1385417e-12 </wgt>
<wgt id='1153'> +2.1305958e-12 </wgt>
<wgt id='1154'> +2.1431268e-12 </wgt>
<wgt id='1155'> +2.1460629e-12 </wgt>
<wgt id='1156'> +2.1347169e-12 </wgt>
<wgt id='1157'> +2.1425695e-12 </wgt>
<wgt id='1158'> +2.1331223e-12 </wgt>
<wgt id='1159'> +2.1419049e-12 </wgt>
<wgt id='1160'> +2.1364286e-12 </wgt>
<wgt id='1161'> +2.1447018e-12 </wgt>
<wgt id='1162'> +2.1340312e-12 </wgt>
<wgt id='1163'> +2.1382027e-12 </wgt>
<wgt id='1164'> +2.1389224e-12 </wgt>
<wgt id='1165'> +2.1360791e-12 </wgt>
<wgt id='1166'> +2.1409912e-12 </wgt>
<wgt id='1167'> +2.1564759e-12 </wgt>
<wgt id='1168'> +2.1160529e-12 </wgt>
<wgt id='1169'> +2.1639305e-12 </wgt>
<wgt id='1170'> +2.1177748e-12 </wgt>
<wgt id='1171'> +2.1303846e-12 </wgt>
<wgt id='1172'> +2.1475790e-12 </wgt>
<wgt id='1173'> +2.1146660e-12 </wgt>
<wgt id='1174'> +2.1614043e-12 </wgt>
<wgt id='1175'> +2.1280764e-12 </wgt>
<wgt id='1176'> +2.1454972e-12 </wgt>
<wgt id='1177'> +2.1412555e-12 </wgt>
<wgt id='1178'> +2.1246421e-12 </wgt>
<wgt id='1179'> +2.1276466e-12 </wgt>
<wgt id='1180'> +2.1384540e-12 </wgt>
<wgt id='1181'> +2.1274161e-12 </wgt>
<wgt id='1182'> +2.1396210e-12 </wgt>
<wgt id='1183'> +2.1410470e-12 </wgt>
<wgt id='1184'> +2.1381728e-12 </wgt>
<wgt id='1185'> +2.1330571e-12 </wgt>
<wgt id='1186'> +2.1414123e-12 </wgt>
<wgt id='1187'> +2.1444284e-12 </wgt>
<wgt id='1188'> +2.1364613e-12 </wgt>
<wgt id='1189'> +2.1338991e-12 </wgt>
<wgt id='1190'> +2.1173732e-12 </wgt>
<wgt id='1191'> +2.1388870e-12 </wgt>
<wgt id='1192'> +2.1443984e-12 </wgt>
<wgt id='1193'> +1.4007376e-12 </wgt>
<wgt id='1194'> +1.3880371e-12 </wgt>
<wgt id='1195'> +1.4111410e-12 </wgt>
<wgt id='1196'> +1.4049429e-12 </wgt>
<wgt id='1197'> +1.3960922e-12 </wgt>
<wgt id='1198'> +1.4009256e-12 </wgt>
<wgt id='1199'> +1.4005225e-12 </wgt>
<wgt id='1200'> +1.4078863e-12 </wgt>
<wgt id='1201'> +1.3959605e-12 </wgt>
<wgt id='1202'> +1.3998947e-12 </wgt>
<wgt id='1203'> +1.4019648e-12 </wgt>
<wgt id='1204'> +1.3947939e-12 </wgt>
<wgt id='1205'> +1.4042660e-12 </wgt>
<wgt id='1206'> +1.4001501e-12 </wgt>
<wgt id='1207'> +1.4013243e-12 </wgt>
<wgt id='1208'> +1.4011998e-12 </wgt>
<wgt id='1209'> +1.4006988e-12 </wgt>
<wgt id='1210'> +1.3950654e-12 </wgt>
<wgt id='1211'> +1.4014143e-12 </wgt>
<wgt id='1212'> +1.3932257e-12 </wgt>
<wgt id='1213'> +1.4071575e-12 </wgt>
<wgt id='1214'> +1.3834011e-12 </wgt>
<wgt id='1215'> +1.4260084e-12 </wgt>
<wgt id='1216'> +1.4091822e-12 </wgt>
<wgt id='1217'> +1.3935870e-12 </wgt>
<wgt id='1218'> +1.3994430e-12 </wgt>
<wgt id='1219'> +1.4007091e-12 </wgt>
<wgt id='1220'> +1.4072028e-12 </wgt>
<wgt id='1221'> +1.3867518e-12 </wgt>
<wgt id='1222'> +1.4193195e-12 </wgt>
<wgt id='1223'> +1.3708314e-12 </wgt>
<wgt id='1224'> +1.3995373e-12 </wgt>
<wgt id='1225'> +1.4012398e-12 </wgt>
<wgt id='1226'> +1.3954266e-12 </wgt>
<wgt id='1227'> +1.4044145e-12 </wgt>
<wgt id='1228'> +1.3999344e-12 </wgt>
<wgt id='1229'> +1.3994488e-12 </wgt>
<wgt id='1230'> +1.4054121e-12 </wgt>
<wgt id='1231'> +1.4044986e-12 </wgt>
<wgt id='1232'> +1.4064476e-12 </wgt>
<wgt id='1233'> +1.3987357e-12 </wgt>
<wgt id='1234'> +1.4007376e-12 </wgt>
<wgt id='1235'> +1.3937660e-12 </wgt>
<wgt id='1236'> +1.3964424e-12 </wgt>
<wgt id='1237'> +1.3988409e-12 </wgt>
<wgt id='1238'> +1.4027282e-12 </wgt>
<wgt id='1239'> +1.4043389e-12 </wgt>
<wgt id='1240'> +1.4058303e-12 </wgt>
<wgt id='1241'> +1.3724229e-12 </wgt>
<wgt id='1242'> +1.3573620e-12 </wgt>
<wgt id='1243'> +1.3873226e-12 </wgt>
<wgt id='1244'> +1.3707374e-12 </wgt>
<wgt id='1245'> +1.3736533e-12 </wgt>
<wgt id='1246'> +1.3769067e-12 </wgt>
<wgt id='1247'> +1.3686439e-12 </wgt>
<wgt id='1248'> +1.3723918e-12 </wgt>
<wgt id='1249'> +1.3724836e-12 </wgt>
<wgt id='1250'> +1.3749857e-12 </wgt>
<wgt id='1251'> +1.3705974e-12 </wgt>
<wgt id='1252'> +1.3742072e-12 </wgt>
<wgt id='1253'> +1.3708646e-12 </wgt>
<wgt id='1254'> +1.3700361e-12 </wgt>
<wgt id='1255'> +1.3737267e-12 </wgt>
<wgt id='1256'> +1.3724433e-12 </wgt>
<wgt id='1257'> +1.3725797e-12 </wgt>
<wgt id='1258'> +1.3830577e-12 </wgt>
<wgt id='1259'> +1.3608742e-12 </wgt>
<wgt id='1260'> +1.3806133e-12 </wgt>
<wgt id='1261'> +1.3617907e-12 </wgt>
<wgt id='1262'> +1.3749791e-12 </wgt>
<wgt id='1263'> +1.3706095e-12 </wgt>
<wgt id='1264'> +1.3763688e-12 </wgt>
<wgt id='1265'> +1.3704044e-12 </wgt>
<wgt id='1266'> +1.3465548e-12 </wgt>
<wgt id='1267'> +1.3951683e-12 </wgt>
<wgt id='1268'> +1.3704033e-12 </wgt>
<wgt id='1269'> +1.3714351e-12 </wgt>
<wgt id='1270'> +1.3752044e-12 </wgt>
<wgt id='1271'> +1.3732996e-12 </wgt>
<wgt id='1272'> +1.3697968e-12 </wgt>
<wgt id='1273'> +1.3733528e-12 </wgt>
<wgt id='1274'> +1.3739920e-12 </wgt>
<wgt id='1275'> +1.3701893e-12 </wgt>
<wgt id='1276'> +1.3719928e-12 </wgt>
<wgt id='1277'> +1.3705363e-12 </wgt>
<wgt id='1278'> +1.3788777e-12 </wgt>
<wgt id='1279'> +1.3802231e-12 </wgt>
<wgt id='1280'> +1.3714635e-12 </wgt>
<wgt id='1281'> +1.3786140e-12 </wgt>
<wgt id='1282'> +1.3724229e-12 </wgt>
<wgt id='1283'> +1.3654683e-12 </wgt>
<wgt id='1284'> +1.3683574e-12 </wgt>
<wgt id='1285'> +1.3705892e-12 </wgt>
<wgt id='1286'> +1.3743305e-12 </wgt>
<wgt id='1287'> +1.3756260e-12 </wgt>
<wgt id='1288'> +1.3767130e-12 </wgt>
<wgt id='1289'> +1.3970643e-12 </wgt>
<wgt id='1290'> +1.3979761e-12 </wgt>
<wgt id='1291'> +1.3960981e-12 </wgt>
<wgt id='1292'> +1.3979968e-12 </wgt>
<wgt id='1293'> +1.3964685e-12 </wgt>
<wgt id='1294'> +1.3828664e-12 </wgt>
<wgt id='1295'> +1.4108585e-12 </wgt>
<wgt id='1296'> +1.3984562e-12 </wgt>
<wgt id='1297'> +1.3953010e-12 </wgt>
<wgt id='1298'> +1.4042127e-12 </wgt>
<wgt id='1299'> +1.3882062e-12 </wgt>
<wgt id='1300'> +1.3984770e-12 </wgt>
<wgt id='1301'> +1.3942855e-12 </wgt>
<wgt id='1302'> +1.3993009e-12 </wgt>
<wgt id='1303'> +1.3940093e-12 </wgt>
<wgt id='1304'> +1.3903326e-12 </wgt>
<wgt id='1305'> +1.4016943e-12 </wgt>
<wgt id='1306'> +1.3932828e-12 </wgt>
<wgt id='1307'> +1.4013816e-12 </wgt>
<wgt id='1308'> +1.3861879e-12 </wgt>
<wgt id='1309'> +1.4054310e-12 </wgt>
<wgt id='1310'> +1.4083806e-12 </wgt>
<wgt id='1311'> +1.3851186e-12 </wgt>
<wgt id='1312'> +1.4000766e-12 </wgt>
<wgt id='1313'> +1.3946101e-12 </wgt>
<wgt id='1314'> +1.3773001e-12 </wgt>
<wgt id='1315'> +1.4138953e-12 </wgt>
<wgt id='1316'> +1.3928728e-12 </wgt>
<wgt id='1317'> +1.4060248e-12 </wgt>
<wgt id='1318'> +1.4068863e-12 </wgt>
<wgt id='1319'> +1.3843133e-12 </wgt>
<wgt id='1320'> +1.4266347e-12 </wgt>
<wgt id='1321'> +1.3732504e-12 </wgt>
<wgt id='1322'> +1.3994036e-12 </wgt>
<wgt id='1323'> +1.3926501e-12 </wgt>
<wgt id='1324'> +1.3979858e-12 </wgt>
<wgt id='1325'> +1.3991495e-12 </wgt>
<wgt id='1326'> +1.3968796e-12 </wgt>
<wgt id='1327'> +1.3963527e-12 </wgt>
<wgt id='1328'> +1.3936879e-12 </wgt>
<wgt id='1329'> +1.3999286e-12 </wgt>
<wgt id='1330'> +1.3843006e-12 </wgt>
<wgt id='1331'> +1.4157930e-12 </wgt>
<wgt id='1332'> +1.4053448e-12 </wgt>
<wgt id='1333'> +1.3984073e-12 </wgt>
<wgt id='1334'> +1.3924918e-12 </wgt>
<wgt id='1335'> +1.4105439e-12 </wgt>
<wgt id='1336'> +1.3967063e-12 </wgt>
<wgt id='1337'> +1.4061774e-12 </wgt>
<wgt id='1338'> +1.3973255e-12 </wgt>
<wgt id='1339'> +1.3973245e-12 </wgt>
<wgt id='1340'> +1.3773343e-12 </wgt>
<wgt id='1341'> +1.3780746e-12 </wgt>
<wgt id='1342'> +1.3765080e-12 </wgt>
<wgt id='1343'> +1.3782891e-12 </wgt>
<wgt id='1344'> +1.3766747e-12 </wgt>
<wgt id='1345'> +1.3625076e-12 </wgt>
<wgt id='1346'> +1.3911259e-12 </wgt>
<wgt id='1347'> +1.3793679e-12 </wgt>
<wgt id='1348'> +1.3750054e-12 </wgt>
<wgt id='1349'> +1.3844322e-12 </wgt>
<wgt id='1350'> +1.3703897e-12 </wgt>
<wgt id='1351'> +1.3788870e-12 </wgt>
<wgt id='1352'> +1.3739025e-12 </wgt>
<wgt id='1353'> +1.3794226e-12 </wgt>
<wgt id='1354'> +1.3735612e-12 </wgt>
<wgt id='1355'> +1.3698043e-12 </wgt>
<wgt id='1356'> +1.3815351e-12 </wgt>
<wgt id='1357'> +1.3709642e-12 </wgt>
<wgt id='1358'> +1.3848506e-12 </wgt>
<wgt id='1359'> +1.3681719e-12 </wgt>
<wgt id='1360'> +1.3852461e-12 </wgt>
<wgt id='1361'> +1.3871989e-12 </wgt>
<wgt id='1362'> +1.3643706e-12 </wgt>
<wgt id='1363'> +1.3839582e-12 </wgt>
<wgt id='1364'> +1.3737267e-12 </wgt>
<wgt id='1365'> +1.3856549e-12 </wgt>
<wgt id='1366'> +1.3600187e-12 </wgt>
<wgt id='1367'> +1.3739177e-12 </wgt>
<wgt id='1368'> +1.3836064e-12 </wgt>
<wgt id='1369'> +1.3845244e-12 </wgt>
<wgt id='1370'> +1.3679379e-12 </wgt>
<wgt id='1371'> +1.4014297e-12 </wgt>
<wgt id='1372'> +1.3488666e-12 </wgt>
<wgt id='1373'> +1.3755753e-12 </wgt>
<wgt id='1374'> +1.3772029e-12 </wgt>
<wgt id='1375'> +1.3779175e-12 </wgt>
<wgt id='1376'> +1.3798637e-12 </wgt>
<wgt id='1377'> +1.3784130e-12 </wgt>
<wgt id='1378'> +1.3775076e-12 </wgt>
<wgt id='1379'> +1.3739456e-12 </wgt>
<wgt id='1380'> +1.3805399e-12 </wgt>
<wgt id='1381'> +1.3648516e-12 </wgt>
<wgt id='1382'> +1.3944581e-12 </wgt>
<wgt id='1383'> +1.3881891e-12 </wgt>
<wgt id='1384'> +1.3782383e-12 </wgt>
<wgt id='1385'> +1.3723619e-12 </wgt>
<wgt id='1386'> +1.3907903e-12 </wgt>
<wgt id='1387'> +1.3760518e-12 </wgt>
<wgt id='1388'> +1.3870470e-12 </wgt>
<wgt id='1389'> +1.3762527e-12 </wgt>
<wgt id='1390'> +1.3785043e-12 </wgt>
<wgt id='1391'> +1.3516792e-12 </wgt>
<wgt id='1392'> +1.3229296e-12 </wgt>
<wgt id='1393'> +1.3336953e-12 </wgt>
<wgt id='1394'> +1.3435500e-12 </wgt>
<wgt id='1395'> +1.3635639e-12 </wgt>
<wgt id='1396'> +1.3532752e-12 </wgt>
<wgt id='1397'> +1.3192809e-12 </wgt>
<wgt id='1398'> +1.3254411e-12 </wgt>
<wgt id='1399'> +1.3314738e-12 </wgt>
<wgt id='1400'> +1.3381569e-12 </wgt>
<wgt id='1401'> +1.3457508e-12 </wgt>
<wgt id='1402'> +1.3611935e-12 </wgt>
<wgt id='1403'> +1.3693432e-12 </wgt>
<wgt id='1404'> +1.3777591e-12 </wgt>
<wgt id='1405'> +1.3532752e-12 </wgt>
<wgt id='1406'> +1.3498556e-12 </wgt>
<wgt id='1407'> +1.3516747e-12 </wgt>
<wgt id='1408'> +1.3547140e-12 </wgt>
<wgt id='1409'> +1.3563190e-12 </wgt>
<wgt id='1410'> +1.3088069e-12 </wgt>
<wgt id='1411'> +1.3120824e-12 </wgt>
<wgt id='1412'> +1.3045569e-12 </wgt>
<wgt id='1413'> +1.3021633e-12 </wgt>
<wgt id='1414'> +1.3153935e-12 </wgt>
<wgt id='1415'> +1.3072405e-12 </wgt>
<wgt id='1416'> +1.3094327e-12 </wgt>
<wgt id='1417'> +1.3014546e-12 </wgt>
<wgt id='1418'> +1.3161394e-12 </wgt>
<wgt id='1419'> +1.3115304e-12 </wgt>
<wgt id='1420'> +1.3061337e-12 </wgt>
<wgt id='1421'> +1.2949872e-12 </wgt>
<wgt id='1422'> +1.3147137e-12 </wgt>
<wgt id='1423'> +1.3126144e-12 </wgt>
<wgt id='1424'> +1.3041400e-12 </wgt>
<wgt id='1425'> +1.3037110e-12 </wgt>
<wgt id='1426'> +1.3142077e-12 </wgt>
<wgt id='1427'> +1.2881064e-12 </wgt>
<wgt id='1428'> +1.3199870e-12 </wgt>
<wgt id='1429'> +1.3092791e-12 </wgt>
<wgt id='1430'> +1.3083143e-12 </wgt>
<wgt id='1431'> +1.3006469e-12 </wgt>
<wgt id='1432'> +1.3142177e-12 </wgt>
<wgt id='1433'> +1.2893075e-12 </wgt>
<wgt id='1434'> +1.3247376e-12 </wgt>
<wgt id='1435'> +1.3055760e-12 </wgt>
<wgt id='1436'> +1.3174509e-12 </wgt>
<wgt id='1437'> +1.3069671e-12 </wgt>
<wgt id='1438'> +1.3180399e-12 </wgt>
<wgt id='1439'> +1.3016834e-12 </wgt>
<wgt id='1440'> +1.3223097e-12 </wgt>
<wgt id='1441'> +1.3173867e-12 </wgt>
<wgt id='1442'> +1.2918024e-12 </wgt>
<wgt id='1443'> +1.3033381e-12 </wgt>
<wgt id='1444'> +1.3198272e-12 </wgt>
<wgt id='1445'> +1.3146083e-12 </wgt>
<wgt id='1446'> +1.3076776e-12 </wgt>
<wgt id='1447'> +1.3134046e-12 </wgt>
<wgt id='1448'> +1.3006251e-12 </wgt>
<wgt id='1449'> +1.3062864e-12 </wgt>
<wgt id='1450'> +1.3099412e-12 </wgt>
<wgt id='1451'> +1.3220257e-12 </wgt>
<wgt id='1452'> +1.2916238e-12 </wgt>
<wgt id='1453'> +1.3091746e-12 </wgt>
<wgt id='1454'> +1.3089460e-12 </wgt>
<wgt id='1455'> +1.3145080e-12 </wgt>
<wgt id='1456'> +1.3164630e-12 </wgt>
<wgt id='1457'> +1.3172499e-12 </wgt>
<wgt id='1458'> +1.3064433e-12 </wgt>
<wgt id='1459'> +1.3144277e-12 </wgt>
<wgt id='1460'> +1.3150155e-12 </wgt>
<wgt id='1461'> +1.3088069e-12 </wgt>
<wgt id='1462'> +1.3030045e-12 </wgt>
<wgt id='1463'> +1.3148601e-12 </wgt>
<wgt id='1464'> +1.3080705e-12 </wgt>
<wgt id='1465'> +1.2755303e-12 </wgt>
<wgt id='1466'> +1.2816035e-12 </wgt>
<wgt id='1467'> +1.2877699e-12 </wgt>
<wgt id='1468'> +1.2953055e-12 </wgt>
<wgt id='1469'> +1.3014175e-12 </wgt>
<wgt id='1470'> +1.3149960e-12 </wgt>
<wgt id='1471'> +1.3207635e-12 </wgt>
<wgt id='1472'> +1.3275641e-12 </wgt>
<wgt id='1473'> +1.3080705e-12 </wgt>
<wgt id='1474'> +1.3049077e-12 </wgt>
<wgt id='1475'> +1.3068607e-12 </wgt>
<wgt id='1476'> +1.3092464e-12 </wgt>
<wgt id='1477'> +1.3102120e-12 </wgt>
<wgt id='1478'> +1.3440812e-12 </wgt>
<wgt id='1479'> +1.3459596e-12 </wgt>
<wgt id='1480'> +1.3403760e-12 </wgt>
<wgt id='1481'> +1.3571363e-12 </wgt>
<wgt id='1482'> +1.3462905e-12 </wgt>
<wgt id='1483'> +1.3175028e-12 </wgt>
<wgt id='1484'> +1.3356194e-12 </wgt>
<wgt id='1485'> +1.3517546e-12 </wgt>
<wgt id='1486'> +1.3432092e-12 </wgt>
<wgt id='1487'> +1.3515562e-12 </wgt>
<wgt id='1488'> +1.3417634e-12 </wgt>
<wgt id='1489'> +1.3464507e-12 </wgt>
<wgt id='1490'> +1.3383996e-12 </wgt>
<wgt id='1491'> +1.3533907e-12 </wgt>
<wgt id='1492'> +1.3450471e-12 </wgt>
<wgt id='1493'> +1.3190604e-12 </wgt>
<wgt id='1494'> +1.3358093e-12 </wgt>
<wgt id='1495'> +1.3378375e-12 </wgt>
<wgt id='1496'> +1.3480662e-12 </wgt>
<wgt id='1497'> +1.3438840e-12 </wgt>
<wgt id='1498'> +1.3480115e-12 </wgt>
<wgt id='1499'> +1.3469265e-12 </wgt>
<wgt id='1500'> +1.3457226e-12 </wgt>
<wgt id='1501'> +1.3469808e-12 </wgt>
<wgt id='1502'> +1.3423879e-12 </wgt>
<wgt id='1503'> +1.3471429e-12 </wgt>
<wgt id='1504'> +1.3379850e-12 </wgt>
<wgt id='1505'> +1.3613186e-12 </wgt>
<wgt id='1506'> +1.3437938e-12 </wgt>
<wgt id='1507'> +1.3445341e-12 </wgt>
<wgt id='1508'> +1.3447816e-12 </wgt>
<wgt id='1509'> +1.3218890e-12 </wgt>
<wgt id='1510'> +1.3250796e-12 </wgt>
<wgt id='1511'> +1.3094079e-12 </wgt>
<wgt id='1512'> +1.3103109e-12 </wgt>
<wgt id='1513'> +1.3199586e-12 </wgt>
<wgt id='1514'> +1.3279224e-12 </wgt>
<wgt id='1515'> +1.3257048e-12 </wgt>
<wgt id='1516'> +1.3275367e-12 </wgt>
<wgt id='1517'> +1.3225154e-12 </wgt>
<wgt id='1518'> +1.3210181e-12 </wgt>
<wgt id='1519'> +1.3204989e-12 </wgt>
<wgt id='1520'> +1.3170181e-12 </wgt>
<wgt id='1521'> +1.3208212e-12 </wgt>
<wgt id='1522'> +1.3215974e-12 </wgt>
<wgt id='1523'> +1.3226025e-12 </wgt>
<wgt id='1524'> +1.3242520e-12 </wgt>
<wgt id='1525'> +1.3233169e-12 </wgt>
<wgt id='1526'> +1.3206134e-12 </wgt>
<wgt id='1527'> +1.3209690e-12 </wgt>
<wgt id='1528'> +1.3188236e-12 </wgt>
<wgt id='1529'> +1.3199514e-12 </wgt>
<wgt id='1530'> +1.3242074e-12 </wgt>
<wgt id='1531'> +1.3248011e-12 </wgt>
<wgt id='1532'> +1.3153326e-12 </wgt>
<wgt id='1533'> +1.3299086e-12 </wgt>
<wgt id='1534'> +1.3210880e-12 </wgt>
<wgt id='1535'> +1.3178317e-12 </wgt>
<wgt id='1536'> +1.3281462e-12 </wgt>
<wgt id='1537'> +1.3258569e-12 </wgt>
<wgt id='1538'> +1.3066165e-12 </wgt>
<wgt id='1539'> +1.3244913e-12 </wgt>
<wgt id='1540'> +1.3209229e-12 </wgt>
<wgt id='1541'> +1.3203919e-12 </wgt>
<wgt id='1542'> +1.3171460e-12 </wgt>
<wgt id='1543'> +1.3220385e-12 </wgt>
<wgt id='1544'> +1.3250114e-12 </wgt>
<wgt id='1545'> +1.3214232e-12 </wgt>
<wgt id='1546'> +1.3260557e-12 </wgt>
<wgt id='1547'> +1.3205856e-12 </wgt>
<wgt id='1548'> +1.3230166e-12 </wgt>
<wgt id='1549'> +1.3209050e-12 </wgt>
<wgt id='1550'> +1.3205418e-12 </wgt>
<wgt id='1551'> +1.3205974e-12 </wgt>
<wgt id='1552'> +1.3203504e-12 </wgt>
<wgt id='1553'> +1.3243083e-12 </wgt>
<wgt id='1554'> +1.3178350e-12 </wgt>
<wgt id='1555'> +1.3244043e-12 </wgt>
<wgt id='1556'> +1.3258653e-12 </wgt>
<wgt id='1557'> +1.3199705e-12 </wgt>
<wgt id='1558'> +1.3251634e-12 </wgt>
<wgt id='1559'> +1.3209519e-12 </wgt>
<wgt id='1560'> +1.3211502e-12 </wgt>
<wgt id='1561'> +1.3212831e-12 </wgt>
<wgt id='1562'> +1.3199671e-12 </wgt>
<wgt id='1563'> +1.3209644e-12 </wgt>
<wgt id='1564'> +1.3181884e-12 </wgt>
<wgt id='1565'> +1.3247036e-12 </wgt>
<wgt id='1566'> +1.3213982e-12 </wgt>
<wgt id='1567'> +1.3217035e-12 </wgt>
<wgt id='1568'> +1.3236092e-12 </wgt>
<wgt id='1569'> +1.3233183e-12 </wgt>
<wgt id='1570'> +1.3201855e-12 </wgt>
<wgt id='1571'> +1.3242619e-12 </wgt>
<wgt id='1572'> +1.3216424e-12 </wgt>
<wgt id='1573'> +1.3197233e-12 </wgt>
<wgt id='1574'> +1.3239760e-12 </wgt>
<wgt id='1575'> +1.3205531e-12 </wgt>
<wgt id='1576'> +1.3229449e-12 </wgt>
<wgt id='1577'> +1.3228228e-12 </wgt>
<wgt id='1578'> +1.3208423e-12 </wgt>
<wgt id='1579'> +1.3207958e-12 </wgt>
<wgt id='1580'> +1.3205116e-12 </wgt>
<wgt id='1581'> +1.3239251e-12 </wgt>
<wgt id='1582'> +1.3199890e-12 </wgt>
<wgt id='1583'> +1.3226522e-12 </wgt>
<wgt id='1584'> +1.3209822e-12 </wgt>
<wgt id='1585'> +1.3207106e-12 </wgt>
<wgt id='1586'> +1.3213350e-12 </wgt>
<wgt id='1587'> +1.3211018e-12 </wgt>
<wgt id='1588'> +1.3211113e-12 </wgt>
<wgt id='1589'> +1.3234888e-12 </wgt>
<wgt id='1590'> +1.3218269e-12 </wgt>
<wgt id='1591'> +1.3223714e-12 </wgt>
<wgt id='1592'> +1.3207525e-12 </wgt>
<wgt id='1593'> +1.3207986e-12 </wgt>
<wgt id='1594'> +1.3222177e-12 </wgt>
<wgt id='1595'> +1.3216279e-12 </wgt>
<wgt id='1596'> +1.3221279e-12 </wgt>
<wgt id='1597'> +1.3210233e-12 </wgt>
<wgt id='1598'> +1.3214364e-12 </wgt>
<wgt id='1599'> +1.3228613e-12 </wgt>
<wgt id='1600'> +1.3223721e-12 </wgt>
<wgt id='1601'> +1.3205894e-12 </wgt>
<wgt id='1602'> +1.3213381e-12 </wgt>
<wgt id='1603'> +1.3213198e-12 </wgt>
<wgt id='1604'> +1.3221238e-12 </wgt>
<wgt id='1605'> +1.3220896e-12 </wgt>
<wgt id='1606'> +1.3233283e-12 </wgt>
<wgt id='1607'> +1.3216249e-12 </wgt>
<wgt id='1608'> +1.3212458e-12 </wgt>
<wgt id='1609'> +1.3220100e-12 </wgt>
<wgt id='1610'> +1.3115969e-12 </wgt>
<wgt id='1611'> +1.3321975e-12 </wgt>
<wgt id='1612'> +1.5426430e-12 </wgt>
<wgt id='1613'> +1.5174025e-12 </wgt>
<wgt id='1614'> +1.5032396e-12 </wgt>
<wgt id='1615'> +1.5045573e-12 </wgt>
<wgt id='1616'> +1.4660427e-12 </wgt>
<wgt id='1617'> +1.5608681e-12 </wgt>
<wgt id='1618'> +1.5625724e-12 </wgt>
<wgt id='1619'> +1.4604440e-12 </wgt>
<wgt id='1620'> +1.5271212e-12 </wgt>
<wgt id='1621'> +1.5502333e-12 </wgt>
<wgt id='1622'> +1.5247467e-12 </wgt>
<wgt id='1623'> +1.5419452e-12 </wgt>
<wgt id='1624'> +1.5658285e-12 </wgt>
<wgt id='1625'> +1.5408405e-12 </wgt>
<wgt id='1626'> +1.5207196e-12 </wgt>
<wgt id='1627'> +1.5623792e-12 </wgt>
<wgt id='1628'> +1.4848018e-12 </wgt>
<wgt id='1629'> +1.5482144e-12 </wgt>
<wgt id='1630'> +1.5100802e-12 </wgt>
<wgt id='1631'> +1.5706038e-12 </wgt>
<wgt id='1632'> +1.4318399e-12 </wgt>
<wgt id='1633'> +1.5381979e-12 </wgt>
<wgt id='1634'> +1.5128448e-12 </wgt>
<wgt id='1635'> +1.5759857e-12 </wgt>
<wgt id='1636'> +1.5676243e-12 </wgt>
<wgt id='1637'> +1.5743811e-12 </wgt>
<wgt id='1638'> +1.5434021e-12 </wgt>
<wgt id='1639'> +1.5513507e-12 </wgt>
<wgt id='1640'> +1.5159862e-12 </wgt>
<wgt id='1641'> +1.5241028e-12 </wgt>
<wgt id='1642'> +1.4688597e-12 </wgt>
<wgt id='1643'> +1.5173647e-12 </wgt>
<wgt id='1644'> +1.6002666e-12 </wgt>
<wgt id='1645'> +1.5076091e-12 </wgt>
<wgt id='1646'> +1.5528448e-12 </wgt>
<wgt id='1647'> +1.5611018e-12 </wgt>
<wgt id='1648'> +1.5489855e-12 </wgt>
<wgt id='1649'> +1.6184428e-12 </wgt>
<wgt id='1650'> +1.5105677e-12 </wgt>
<wgt id='1651'> +1.5606054e-12 </wgt>
<wgt id='1652'> +1.5224422e-12 </wgt>
<wgt id='1653'> +1.5570729e-12 </wgt>
<wgt id='1654'> +1.5637300e-12 </wgt>
<wgt id='1655'> +1.5932662e-12 </wgt>
<wgt id='1656'> +1.5670263e-12 </wgt>
<wgt id='1657'> +1.5488918e-12 </wgt>
<wgt id='1658'> +1.5276820e-12 </wgt>
<wgt id='1659'> +1.5658285e-12 </wgt>
<wgt id='1660'> +1.5320616e-12 </wgt>
<wgt id='1661'> +1.5627814e-12 </wgt>
<wgt id='1662'> +1.5870575e-12 </wgt>
<wgt id='1663'> +1.5211049e-12 </wgt>
<wgt id='1664'> +1.5390511e-12 </wgt>
<wgt id='1665'> +1.5437952e-12 </wgt>
<wgt id='1666'> +1.5615123e-12 </wgt>
<wgt id='1667'> +1.5448574e-12 </wgt>
<wgt id='1668'> +1.5127409e-12 </wgt>
<wgt id='1669'> +1.5696075e-12 </wgt>
<wgt id='1670'> +1.5259521e-12 </wgt>
<wgt id='1671'> +1.5355545e-12 </wgt>
<wgt id='1672'> +1.5564125e-12 </wgt>
<wgt id='1673'> +1.5603476e-12 </wgt>
<wgt id='1674'> +1.5472761e-12 </wgt>
<wgt id='1675'> +1.5346244e-12 </wgt>
<wgt id='1676'> +1.5650966e-12 </wgt>
<wgt id='1677'> +1.5410553e-12 </wgt>
<wgt id='1678'> +1.5380715e-12 </wgt>
<wgt id='1679'> +1.5684907e-12 </wgt>
<wgt id='1680'> +1.5910623e-12 </wgt>
<wgt id='1681'> +1.5709428e-12 </wgt>
<wgt id='1682'> +1.5140090e-12 </wgt>
<wgt id='1683'> +1.5628809e-12 </wgt>
<wgt id='1684'> +1.5672316e-12 </wgt>
<wgt id='1685'> +1.5471274e-12 </wgt>
<wgt id='1686'> +1.5384449e-12 </wgt>
<wgt id='1687'> +1.5570258e-12 </wgt>
<wgt id='1688'> +1.4909553e-12 </wgt>
<wgt id='1689'> +1.5963317e-12 </wgt>
<wgt id='1690'> +1.5362037e-12 </wgt>
<wgt id='1691'> +1.5384587e-12 </wgt>
<wgt id='1692'> +1.4396487e-12 </wgt>
<wgt id='1693'> +1.5128580e-12 </wgt>
<wgt id='1694'> +1.5437925e-12 </wgt>
<wgt id='1695'> +1.5098029e-12 </wgt>
<wgt id='1696'> +1.5440325e-12 </wgt>
<wgt id='1697'> +1.5656886e-12 </wgt>
<wgt id='1698'> +1.5465497e-12 </wgt>
<wgt id='1699'> +1.5797732e-12 </wgt>
<wgt id='1700'> +1.5308239e-12 </wgt>
<wgt id='1701'> +1.5946134e-12 </wgt>
<wgt id='1702'> +1.5294768e-12 </wgt>
<wgt id='1703'> +1.5020674e-12 </wgt>
<wgt id='1704'> +1.5518745e-12 </wgt>
<wgt id='1705'> +1.4614525e-12 </wgt>
<wgt id='1706'> +1.5949448e-12 </wgt>
<wgt id='1707'> +1.5400339e-12 </wgt>
<wgt id='1708'> +1.6320071e-12 </wgt>
<wgt id='1709'> +1.5948112e-12 </wgt>
<wgt id='1710'> +1.5421111e-12 </wgt>
<wgt id='1711'> +1.5356691e-12 </wgt>
<wgt id='1712'> +1.6034984e-12 </wgt>
<wgt id='1713'> +1.3109214e-12 </wgt>
<wgt id='1714'> +1.3085152e-12 </wgt>
<wgt id='1715'> +1.2803395e-12 </wgt>
<wgt id='1716'> +1.3174871e-12 </wgt>
<wgt id='1717'> +1.3402167e-12 </wgt>
<wgt id='1718'> +1.3034691e-12 </wgt>
<wgt id='1719'> +1.3320998e-12 </wgt>
<wgt id='1720'> +1.3116846e-12 </wgt>
<wgt id='1721'> +1.2985390e-12 </wgt>
<wgt id='1722'> +1.3032967e-12 </wgt>
<wgt id='1723'> +1.3616279e-12 </wgt>
<wgt id='1724'> +1.3567559e-12 </wgt>
<wgt id='1725'> +1.2888019e-12 </wgt>
<wgt id='1726'> +1.3311164e-12 </wgt>
<wgt id='1727'> +1.3358742e-12 </wgt>
<wgt id='1728'> +1.3018281e-12 </wgt>
<wgt id='1729'> +1.2377473e-12 </wgt>
<wgt id='1730'> +1.2711303e-12 </wgt>
<wgt id='1731'> +1.2072691e-12 </wgt>
<wgt id='1732'> +1.3297857e-12 </wgt>
<wgt id='1733'> +1.2812235e-12 </wgt>
<wgt id='1734'> +1.3998194e-12 </wgt>
<wgt id='1735'> +1.3309572e-12 </wgt>
<wgt id='1736'> +1.3238804e-12 </wgt>
<wgt id='1737'> +1.3375962e-12 </wgt>
<wgt id='1738'> +1.2875068e-12 </wgt>
<wgt id='1739'> +1.3122962e-12 </wgt>
<wgt id='1740'> +1.2263182e-12 </wgt>
<wgt id='1741'> +1.3356587e-12 </wgt>
<wgt id='1742'> +1.3054180e-12 </wgt>
<wgt id='1743'> +1.2824901e-12 </wgt>
<wgt id='1744'> +1.3246356e-12 </wgt>
<wgt id='1745'> +1.3659350e-12 </wgt>
<wgt id='1746'> +1.3279183e-12 </wgt>
<wgt id='1747'> +1.3299558e-12 </wgt>
<wgt id='1748'> +1.2998219e-12 </wgt>
<wgt id='1749'> +1.2603338e-12 </wgt>
<wgt id='1750'> +1.2773438e-12 </wgt>
<wgt id='1751'> +1.3037091e-12 </wgt>
<wgt id='1752'> +1.2933395e-12 </wgt>
<wgt id='1753'> +1.3234310e-12 </wgt>
<wgt id='1754'> +1.3615697e-12 </wgt>
<wgt id='1755'> +1.3155352e-12 </wgt>
<wgt id='1756'> +1.3357099e-12 </wgt>
<wgt id='1757'> +1.3280189e-12 </wgt>
<wgt id='1758'> +1.3746869e-12 </wgt>
<wgt id='1759'> +1.3165806e-12 </wgt>
<wgt id='1760'> +1.3077246e-12 </wgt>
<wgt id='1761'> +1.3125610e-12 </wgt>
<wgt id='1762'> +1.2694414e-12 </wgt>
<wgt id='1763'> +1.3331981e-12 </wgt>
<wgt id='1764'> +1.3582802e-12 </wgt>
<wgt id='1765'> +1.3137765e-12 </wgt>
<wgt id='1766'> +1.3047863e-12 </wgt>
<wgt id='1767'> +1.3354775e-12 </wgt>
<wgt id='1768'> +1.3379204e-12 </wgt>
<wgt id='1769'> +1.2884471e-12 </wgt>
<wgt id='1770'> +1.2679904e-12 </wgt>
<wgt id='1771'> +1.3595531e-12 </wgt>
<wgt id='1772'> +1.2738086e-12 </wgt>
<wgt id='1773'> +1.3331216e-12 </wgt>
<wgt id='1774'> +1.3070403e-12 </wgt>
<wgt id='1775'> +1.3108603e-12 </wgt>
<wgt id='1776'> +1.3064064e-12 </wgt>
<wgt id='1777'> +1.2317614e-12 </wgt>
<wgt id='1778'> +1.3047237e-12 </wgt>
<wgt id='1779'> +1.2959408e-12 </wgt>
<wgt id='1780'> +1.3866553e-12 </wgt>
<wgt id='1781'> +1.3369584e-12 </wgt>
<wgt id='1782'> +1.2892830e-12 </wgt>
<wgt id='1783'> +1.3387054e-12 </wgt>
<wgt id='1784'> +1.3116521e-12 </wgt>
<wgt id='1785'> +1.2991614e-12 </wgt>
<wgt id='1786'> +1.3364835e-12 </wgt>
<wgt id='1787'> +1.3563859e-12 </wgt>
<wgt id='1788'> +1.3049973e-12 </wgt>
<wgt id='1789'> +1.3741325e-12 </wgt>
<wgt id='1790'> +1.3185810e-12 </wgt>
<wgt id='1791'> +1.3152122e-12 </wgt>
<wgt id='1792'> +1.3123721e-12 </wgt>
<wgt id='1793'> +1.3038101e-12 </wgt>
<wgt id='1794'> +1.3386349e-12 </wgt>
<wgt id='1795'> +1.3243027e-12 </wgt>
<wgt id='1796'> +1.2926692e-12 </wgt>
<wgt id='1797'> +1.3061096e-12 </wgt>
<wgt id='1798'> +1.3232281e-12 </wgt>
<wgt id='1799'> +1.3034743e-12 </wgt>
<wgt id='1800'> +1.3502992e-12 </wgt>
<wgt id='1801'> +1.3227942e-12 </wgt>
<wgt id='1802'> +1.2711576e-12 </wgt>
<wgt id='1803'> +1.3193654e-12 </wgt>
<wgt id='1804'> +1.3301625e-12 </wgt>
<wgt id='1805'> +1.2884555e-12 </wgt>
<wgt id='1806'> +1.2784578e-12 </wgt>
<wgt id='1807'> +1.3078843e-12 </wgt>
<wgt id='1808'> +1.2627489e-12 </wgt>
<wgt id='1809'> +1.2934888e-12 </wgt>
<wgt id='1810'> +1.2583418e-12 </wgt>
<wgt id='1811'> +1.3104199e-12 </wgt>
<wgt id='1812'> +1.2913050e-12 </wgt>
<wgt id='1813'> +1.2078727e-12 </wgt>
<wgt id='1814'> +1.6627622e-12 </wgt>
<wgt id='1815'> +2.0216338e-12 </wgt>
<wgt id='1816'> +1.3109214e-12 </wgt>
<wgt id='1817'> +1.3085152e-12 </wgt>
<wgt id='1818'> +1.2803395e-12 </wgt>
<wgt id='1819'> +1.3174871e-12 </wgt>
<wgt id='1820'> +1.3402167e-12 </wgt>
<wgt id='1821'> +1.3034691e-12 </wgt>
<wgt id='1822'> +1.3320998e-12 </wgt>
<wgt id='1823'> +1.3116846e-12 </wgt>
<wgt id='1824'> +1.2985390e-12 </wgt>
<wgt id='1825'> +1.3032967e-12 </wgt>
<wgt id='1826'> +1.3616279e-12 </wgt>
<wgt id='1827'> +1.3567559e-12 </wgt>
<wgt id='1828'> +1.2888019e-12 </wgt>
<wgt id='1829'> +1.3311164e-12 </wgt>
<wgt id='1830'> +1.3358742e-12 </wgt>
<wgt id='1831'> +1.3018281e-12 </wgt>
<wgt id='1832'> +1.2377473e-12 </wgt>
<wgt id='1833'> +1.2711303e-12 </wgt>
<wgt id='1834'> +1.2072691e-12 </wgt>
<wgt id='1835'> +1.3297857e-12 </wgt>
<wgt id='1836'> +1.2812235e-12 </wgt>
<wgt id='1837'> +1.3998194e-12 </wgt>
<wgt id='1838'> +1.3309572e-12 </wgt>
<wgt id='1839'> +1.3238804e-12 </wgt>
<wgt id='1840'> +1.3375962e-12 </wgt>
<wgt id='1841'> +1.2875068e-12 </wgt>
<wgt id='1842'> +1.3122962e-12 </wgt>
<wgt id='1843'> +1.2263182e-12 </wgt>
<wgt id='1844'> +1.3356587e-12 </wgt>
<wgt id='1845'> +1.3054180e-12 </wgt>
<wgt id='1846'> +1.2824901e-12 </wgt>
<wgt id='1847'> +1.3246356e-12 </wgt>
<wgt id='1848'> +1.3659350e-12 </wgt>
<wgt id='1849'> +1.3279183e-12 </wgt>
<wgt id='1850'> +1.3299558e-12 </wgt>
<wgt id='1851'> +1.2998219e-12 </wgt>
<wgt id='1852'> +1.2603338e-12 </wgt>
<wgt id='1853'> +1.2773438e-12 </wgt>
<wgt id='1854'> +1.3037091e-12 </wgt>
<wgt id='1855'> +1.2933395e-12 </wgt>
<wgt id='1856'> +1.3234310e-12 </wgt>
<wgt id='1857'> +1.3615697e-12 </wgt>
<wgt id='1858'> +1.3155352e-12 </wgt>
<wgt id='1859'> +1.3357099e-12 </wgt>
<wgt id='1860'> +1.3280189e-12 </wgt>
<wgt id='1861'> +1.3746869e-12 </wgt>
<wgt id='1862'> +1.3165806e-12 </wgt>
<wgt id='1863'> +1.3077246e-12 </wgt>
<wgt id='1864'> +1.3125610e-12 </wgt>
<wgt id='1865'> +1.2694414e-12 </wgt>
<wgt id='1866'> +1.3331981e-12 </wgt>
<wgt id='1867'> +1.3582802e-12 </wgt>
<wgt id='1868'> +1.3137765e-12 </wgt>
<wgt id='1869'> +1.3047863e-12 </wgt>
<wgt id='1870'> +1.3354775e-12 </wgt>
<wgt id='1871'> +1.3379204e-12 </wgt>
<wgt id='1872'> +1.2884471e-12 </wgt>
<wgt id='1873'> +1.2679904e-12 </wgt>
<wgt id='1874'> +1.3595531e-12 </wgt>
<wgt id='1875'> +1.2738086e-12 </wgt>
<wgt id='1876'> +1.3331216e-12 </wgt>
<wgt id='1877'> +1.3070403e-12 </wgt>
<wgt id='1878'> +1.3108603e-12 </wgt>
<wgt id='1879'> +1.3064064e-12 </wgt>
<wgt id='1880'> +1.2317614e-12 </wgt>
<wgt id='1881'> +1.3047237e-12 </wgt>
<wgt id='1882'> +1.2959408e-12 </wgt>
<wgt id='1883'> +1.3866553e-12 </wgt>
<wgt id='1884'> +1.3369584e-12 </wgt>
<wgt id='1885'> +1.2892830e-12 </wgt>
<wgt id='1886'> +1.3387054e-12 </wgt>
<wgt id='1887'> +1.3116521e-12 </wgt>
<wgt id='1888'> +1.2991614e-12 </wgt>
<wgt id='1889'> +1.3364835e-12 </wgt>
<wgt id='1890'> +1.3563859e-12 </wgt>
<wgt id='1891'> +1.3049973e-12 </wgt>
<wgt id='1892'> +1.3741325e-12 </wgt>
<wgt id='1893'> +1.3185810e-12 </wgt>
<wgt id='1894'> +1.3152122e-12 </wgt>
<wgt id='1895'> +1.3123721e-12 </wgt>
<wgt id='1896'> +1.3038101e-12 </wgt>
<wgt id='1897'> +1.3386349e-12 </wgt>
<wgt id='1898'> +1.3243027e-12 </wgt>
<wgt id='1899'> +1.2926692e-12 </wgt>
<wgt id='1900'> +1.3061096e-12 </wgt>
<wgt id='1901'> +1.3232281e-12 </wgt>
<wgt id='1902'> +1.3034743e-12 </wgt>
<wgt id='1903'> +1.3502992e-12 </wgt>
<wgt id='1904'> +1.3227942e-12 </wgt>
<wgt id='1905'> +1.2711576e-12 </wgt>
<wgt id='1906'> +1.3193654e-12 </wgt>
<wgt id='1907'> +1.3301625e-12 </wgt>
<wgt id='1908'> +1.2884555e-12 </wgt>
<wgt id='1909'> +1.2784578e-12 </wgt>
<wgt id='1910'> +1.3078843e-12 </wgt>
<wgt id='1911'> +1.2627489e-12 </wgt>
<wgt id='1912'> +1.2934888e-12 </wgt>
<wgt id='1913'> +1.2583418e-12 </wgt>
<wgt id='1914'> +1.3104199e-12 </wgt>
<wgt id='1915'> +1.2913050e-12 </wgt>
<wgt id='1916'> +1.2078727e-12 </wgt>
<wgt id='1917'> +1.3092533e-12 </wgt>
<wgt id='1918'> +1.3263753e-12 </wgt>
<wgt id='1919'> +1.2965893e-12 </wgt>
</rwgt>
</event>
<event>
 9      1 +1.5538000e-12 5.28050400e+01 7.81860800e-03 1.29827900e-01
        2 -1    0    0  502    0 -0.0000000000e+00 +0.0000000000e+00 +2.9903003700e+03 2.9903003700e+03 0.0000000000e+00 0.0000e+00 -1.0000e+00
       21 -1    0    0  501  502 +0.0000000000e+00 -0.0000000000e+00 -2.3311804048e-01 2.3311804048e-01 0.0000000000e+00 0.0000e+00 -1.0000e+00
     1023  2    1    2    0    0 -1.0665715032e+01 +2.1618335274e+01 +1.7760808851e+03 1.7763078052e+03 1.4999952499e+01 0.0000e+00 0.0000e+00
  1000023  2    3    3    0    0 -1.0531679261e+01 +1.6516687447e+01 +1.4844025151e+03 1.4845419465e+03 5.4997198378e+00 0.0000e+00 0.0000e+00
        2  1    1    2  501    0 +1.0665715032e+01 -2.1618335274e+01 +1.2139863669e+03 1.2142256828e+03 0.0000000000e+00 0.0000e+00 -1.0000e+00
  1000022  1    4    4    0    0 -9.7675646072e+00 +1.5755021726e+01 +1.3794394713e+03 1.3795730793e+03 5.0000000000e+00 0.0000e+00 -1.0000e+00
      -11  1    4    4    0    0 -7.4660009829e-01 +7.4317904387e-01 +9.5864665923e+01 9.5870453737e+01 5.1100000000e-04 0.0000e+00 1.0000e+00
       11  1    4    4    0    0 -1.7514555108e-02 +1.8486676552e-02 +9.0983778673e+00 9.0984135207e+00 5.1100000000e-04 0.0000e+00 -1.0000e+00
  1000022  1    3    3    0    0 -1.3403577153e-01 +5.1016478273e+00 +2.9167836997e+02 2.9176585867e+02 5.0000000000e+00 0.0000e+00 1.0000e+00
<mgrwt>
<rscale>  1 0.52805036E+02</rscale>
<asrwt>0</asrwt>
<pdfrwt beam="1">  1       21 0.35866709E-04 0.52805036E+02</pdfrwt>
<pdfrwt beam="2">  1        2 0.46001549E+00 0.52805036E+02</pdfrwt>
<totfact> 0.95855022E+06</totfact>
</mgrwt>
<rwgt>
<wgt id='1001'> +1.5538000e-12 </wgt>
<wgt id='1002'> +1.5530897e-12 </wgt>
<wgt id='1003'> +1.5536381e-12 </wgt>
<wgt id='1004'> +1.5207081e-12 </wgt>
<wgt id='1005'> +1.5538000e-12 </wgt>
<wgt id='1006'> +1.3786505e-12 </wgt>
<wgt id='1007'> +1.3756143e-12 </wgt>
<wgt id='1008'> +1.3777636e-12 </wgt>
<wgt id='1009'> +1.3248961e-12 </wgt>
<wgt id='1010'> +1.3786505e-12 </wgt>
<wgt id='1011'> +1.7821577e-12 </wgt>
<wgt id='1012'> +1.7854900e-12 </wgt>
<wgt id='1013'> +1.7832569e-12 </wgt>
<wgt id='1014'> +1.7879258e-12 </wgt>
<wgt id='1015'> +1.7821577e-12 </wgt>
<wgt id='1016'> +1.7334172e-12 </wgt>
<wgt id='1017'> +1.7402712e-12 </wgt>
<wgt id='1018'> +1.7355821e-12 </wgt>
<wgt id='1019'> +1.7832569e-12 </wgt>
<wgt id='1020'> +1.7334172e-12 </wgt>
<wgt id='1021'> +1.5380207e-12 </wgt>
<wgt id='1022'> +1.5414062e-12 </wgt>
<wgt id='1023'> +1.5391113e-12 </wgt>
<wgt id='1024'> +1.5536381e-12 </wgt>
<wgt id='1025'> +1.5380207e-12 </wgt>
<wgt id='1026'> +1.9881728e-12 </wgt>
<wgt id='1027'> +2.0006809e-12 </wgt>
<wgt id='1028'> +1.9920912e-12 </wgt>
<wgt id='1029'> +2.0966094e-12 </wgt>
<wgt id='1030'> +1.9881728e-12 </wgt>
<wgt id='1031'> +1.3278288e-12 </wgt>
<wgt id='1032'> +1.3181668e-12 </wgt>
<wgt id='1033'> +1.3248961e-12 </wgt>
<wgt id='1034'> +1.1972093e-12 </wgt>
<wgt id='1035'> +1.3278288e-12 </wgt>
<wgt id='1036'> +1.1781515e-12 </wgt>
<wgt id='1037'> +1.1675367e-12 </wgt>
<wgt id='1038'> +1.1749156e-12 </wgt>
<wgt id='1039'> +1.0430521e-12 </wgt>
<wgt id='1040'> +1.1781515e-12 </wgt>
<wgt id='1041'> +1.5229761e-12 </wgt>
<wgt id='1042'> +1.5154139e-12 </wgt>
<wgt id='1043'> +1.5207081e-12 </wgt>
<wgt id='1044'> +1.4075819e-12 </wgt>
<wgt id='1045'> +1.5229761e-12 </wgt>
<wgt id='1046'> +1.5538000e-12 </wgt>
<wgt id='1047'> +1.5523793e-12 </wgt>
<wgt id='1048'> +1.6163482e-12 </wgt>
<wgt id='1049'> +1.5161471e-12 </wgt>
<wgt id='1050'> +1.5440378e-12 </wgt>
<wgt id='1051'> +1.6378843e-12 </wgt>
<wgt id='1052'> +1.5198801e-12 </wgt>
<wgt id='1053'> +1.5510315e-12 </wgt>
<wgt id='1054'> +1.6000306e-12 </wgt>
<wgt id='1055'> +1.5008659e-12 </wgt>
<wgt id='1056'> +1.5165840e-12 </wgt>
<wgt id='1057'> +1.5424126e-12 </wgt>
<wgt id='1058'> +1.5112435e-12 </wgt>
<wgt id='1059'> +1.5653804e-12 </wgt>
<wgt id='1060'> +1.5399498e-12 </wgt>
<wgt id='1061'> +1.5650648e-12 </wgt>
<wgt id='1062'> +1.5195763e-12 </wgt>
<wgt id='1063'> +1.4656930e-12 </wgt>
<wgt id='1064'> +1.5385496e-12 </wgt>
<wgt id='1065'> +1.5688347e-12 </wgt>
<wgt id='1066'> +1.5522739e-12 </wgt>
<wgt id='1067'> +1.7116872e-12 </wgt>
<wgt id='1068'> +1.6674775e-12 </wgt>
<wgt id='1069'> +1.6191506e-12 </wgt>
<wgt id='1070'> +1.5637693e-12 </wgt>
<wgt id='1071'> +1.5795987e-12 </wgt>
<wgt id='1072'> +1.5798303e-12 </wgt>
<wgt id='1073'> +1.5373022e-12 </wgt>
<wgt id='1074'> +1.5657283e-12 </wgt>
<wgt id='1075'> +1.4835585e-12 </wgt>
<wgt id='1076'> +1.5401733e-12 </wgt>
<wgt id='1077'> +1.5998699e-12 </wgt>
<wgt id='1078'> +1.5041583e-12 </wgt>
<wgt id='1079'> +1.5968238e-12 </wgt>
<wgt id='1080'> +1.5953311e-12 </wgt>
<wgt id='1081'> +1.4883957e-12 </wgt>
<wgt id='1082'> +1.5792638e-12 </wgt>
<wgt id='1083'> +1.5453976e-12 </wgt>
<wgt id='1084'> +1.5112109e-12 </wgt>
<wgt id='1085'> +1.4665675e-12 </wgt>
<wgt id='1086'> +1.5733037e-12 </wgt>
<wgt id='1087'> +1.5247128e-12 </wgt>
<wgt id='1088'> +1.5277492e-12 </wgt>
<wgt id='1089'> +1.5265450e-12 </wgt>
<wgt id='1090'> +1.5422614e-12 </wgt>
<wgt id='1091'> +1.5380111e-12 </wgt>
<wgt id='1092'> +1.5359773e-12 </wgt>
<wgt id='1093'> +1.6627155e-12 </wgt>
<wgt id='1094'> +1.5366910e-12 </wgt>
<wgt id='1095'> +1.5534713e-12 </wgt>
<wgt id='1096'> +1.4816837e-12 </wgt>
<wgt id='1097'> +1.6163676e-12 </wgt>
<wgt id='1098'> +1.5749388e-12 </wgt>
<wgt id='1099'> +1.5624769e-12 </wgt>
<wgt id='1100'> +1.6634838e-12 </wgt>
<wgt id='1101'> +1.6005927e-12 </wgt>
<wgt id='1102'> +1.4101384e-12 </wgt>
<wgt id='1103'> +1.5270713e-12 </wgt>
<wgt id='1104'> +1.6134815e-12 </wgt>
<wgt id='1105'> +1.4569204e-12 </wgt>
<wgt id='1106'> +1.5647447e-12 </wgt>
<wgt id='1107'> +1.5750241e-12 </wgt>
<wgt id='1108'> +1.5578311e-12 </wgt>
<wgt id='1109'> +1.5845679e-12 </wgt>
<wgt id='1110'> +1.5316576e-12 </wgt>
<wgt id='1111'> +1.6459379e-12 </wgt>
<wgt id='1112'> +1.5266798e-12 </wgt>
<wgt id='1113'> +1.6824486e-12 </wgt>
<wgt id='1114'> +1.6003485e-12 </wgt>
<wgt id='1115'> +1.5631697e-12 </wgt>
<wgt id='1116'> +1.6832720e-12 </wgt>
<wgt id='1117'> +1.5497669e-12 </wgt>
<wgt id='1118'> +1.5049094e-12 </wgt>
<wgt id='1119'> +1.5277199e-12 </wgt>
<wgt id='1120'> +1.5765509e-12 </wgt>
<wgt id='1121'> +1.4973188e-12 </wgt>
<wgt id='1122'> +1.6102027e-12 </wgt>
<wgt id='1123'> +1.5912169e-12 </wgt>
<wgt id='1124'> +1.6363368e-12 </wgt>
<wgt id='1125'> +1.5465535e-12 </wgt>
<wgt id='1126'> +1.4971037e-12 </wgt>
<wgt id='1127'> +1.5469168e-12 </wgt>
<wgt id='1128'> +1.5195763e-12 </wgt>
<wgt id='1129'> +1.5136205e-12 </wgt>
<wgt id='1130'> +1.5473551e-12 </wgt>
<wgt id='1131'> +1.6068627e-12 </wgt>
<wgt id='1132'> +1.4182583e-12 </wgt>
<wgt id='1133'> +1.5485300e-12 </wgt>
<wgt id='1134'> +1.5029817e-12 </wgt>
<wgt id='1135'> +1.4833359e-12 </wgt>
<wgt id='1136'> +1.5246473e-12 </wgt>
<wgt id='1137'> +1.5430578e-12 </wgt>
<wgt id='1138'> +1.5185607e-12 </wgt>
<wgt id='1139'> +1.5306153e-12 </wgt>
<wgt id='1140'> +1.5742000e-12 </wgt>
<wgt id='1141'> +1.5619119e-12 </wgt>
<wgt id='1142'> +1.6061720e-12 </wgt>
<wgt id='1143'> +1.4155324e-12 </wgt>
<wgt id='1144'> +1.5720372e-12 </wgt>
<wgt id='1145'> +1.5594104e-12 </wgt>
<wgt id='1146'> +1.5281881e-12 </wgt>
<wgt id='1147'> +1.5943284e-12 </wgt>
<wgt id='1148'> +1.6110529e-12 </wgt>
<wgt id='1149'> +1.4608394e-12 </wgt>
<wgt id='1150'> +1.6038106e-12 </wgt>
<wgt id='1151'> +2.4433136e-12 </wgt>
<wgt id='1152'> +3.5202282e-12 </wgt>
<wgt id='1153'> +3.5466082e-12 </wgt>
<wgt id='1154'> +3.5050280e-12 </wgt>
<wgt id='1155'> +3.5160758e-12 </wgt>
<wgt id='1156'> +3.5221657e-12 </wgt>
<wgt id='1157'> +3.5336879e-12 </wgt>
<wgt id='1158'> +3.5022674e-12 </wgt>
<wgt id='1159'> +3.5302483e-12 </wgt>
<wgt id='1160'> +3.5137257e-12 </wgt>
<wgt id='1161'> +3.5104865e-12 </wgt>
<wgt id='1162'> +3.5269707e-12 </wgt>
<wgt id='1163'> +3.5150048e-12 </wgt>
<wgt id='1164'> +3.5254273e-12 </wgt>
<wgt id='1165'> +3.5045502e-12 </wgt>
<wgt id='1166'> +3.5359407e-12 </wgt>
<wgt id='1167'> +3.5713529e-12 </wgt>
<wgt id='1168'> +3.4631262e-12 </wgt>
<wgt id='1169'> +3.5532435e-12 </wgt>
<wgt id='1170'> +3.4956708e-12 </wgt>
<wgt id='1171'> +3.5039700e-12 </wgt>
<wgt id='1172'> +3.5406987e-12 </wgt>
<wgt id='1173'> +3.4785317e-12 </wgt>
<wgt id='1174'> +3.5644494e-12 </wgt>
<wgt id='1175'> +3.5357795e-12 </wgt>
<wgt id='1176'> +3.5090753e-12 </wgt>
<wgt id='1177'> +3.5289280e-12 </wgt>
<wgt id='1178'> +3.4973402e-12 </wgt>
<wgt id='1179'> +3.5027948e-12 </wgt>
<wgt id='1180'> +3.5359587e-12 </wgt>
<wgt id='1181'> +3.5326368e-12 </wgt>
<wgt id='1182'> +3.5118046e-12 </wgt>
<wgt id='1183'> +3.5467985e-12 </wgt>
<wgt id='1184'> +3.5182304e-12 </wgt>
<wgt id='1185'> +3.5084421e-12 </wgt>
<wgt id='1186'> +3.5261333e-12 </wgt>
<wgt id='1187'> +3.5249577e-12 </wgt>
<wgt id='1188'> +3.5186796e-12 </wgt>
<wgt id='1189'> +3.5007991e-12 </wgt>
<wgt id='1190'> +3.4845757e-12 </wgt>
<wgt id='1191'> +3.5142608e-12 </wgt>
<wgt id='1192'> +3.5689687e-12 </wgt>
<wgt id='1193'> +1.5926081e-12 </wgt>
<wgt id='1194'> +1.5539139e-12 </wgt>
<wgt id='1195'> +1.6245306e-12 </wgt>
<wgt id='1196'> +1.5796914e-12 </wgt>
<wgt id='1197'> +1.6071924e-12 </wgt>
<wgt id='1198'> +1.5898198e-12 </wgt>
<wgt id='1199'> +1.5970363e-12 </wgt>
<wgt id='1200'> +1.5901141e-12 </wgt>
<wgt id='1201'> +1.5945069e-12 </wgt>
<wgt id='1202'> +1.5934131e-12 </wgt>
<wgt id='1203'> +1.5915883e-12 </wgt>
<wgt id='1204'> +1.5954222e-12 </wgt>
<wgt id='1205'> +1.5906656e-12 </wgt>
<wgt id='1206'> +1.5952383e-12 </wgt>
<wgt id='1207'> +1.5891202e-12 </wgt>
<wgt id='1208'> +1.5941108e-12 </wgt>
<wgt id='1209'> +1.5923178e-12 </wgt>
<wgt id='1210'> +1.6383240e-12 </wgt>
<wgt id='1211'> +1.5679052e-12 </wgt>
<wgt id='1212'> +1.5784288e-12 </wgt>
<wgt id='1213'> +1.6085055e-12 </wgt>
<wgt id='1214'> +1.5919021e-12 </wgt>
<wgt id='1215'> +1.5807615e-12 </wgt>
<wgt id='1216'> +1.5993318e-12 </wgt>
<wgt id='1217'> +1.5875395e-12 </wgt>
<wgt id='1218'> +1.6003237e-12 </wgt>
<wgt id='1219'> +1.5888288e-12 </wgt>
<wgt id='1220'> +1.6132623e-12 </wgt>
<wgt id='1221'> +1.5831277e-12 </wgt>
<wgt id='1222'> +1.6234092e-12 </wgt>
<wgt id='1223'> +1.5548465e-12 </wgt>
<wgt id='1224'> +1.5972526e-12 </wgt>
<wgt id='1225'> +1.5908487e-12 </wgt>
<wgt id='1226'> +1.5886541e-12 </wgt>
<wgt id='1227'> +1.5955772e-12 </wgt>
<wgt id='1228'> +1.6014111e-12 </wgt>
<wgt id='1229'> +1.5898955e-12 </wgt>
<wgt id='1230'> +1.5880012e-12 </wgt>
<wgt id='1231'> +1.6236722e-12 </wgt>
<wgt id='1232'> +1.5989674e-12 </wgt>
<wgt id='1233'> +1.5913473e-12 </wgt>
<wgt id='1234'> +1.5926081e-12 </wgt>
<wgt id='1235'> +1.5854031e-12 </wgt>
<wgt id='1236'> +1.5880516e-12 </wgt>
<wgt id='1237'> +1.5904130e-12 </wgt>
<wgt id='1238'> +1.5943223e-12 </wgt>
<wgt id='1239'> +1.5959562e-12 </wgt>
<wgt id='1240'> +1.5978755e-12 </wgt>
<wgt id='1241'> +1.4073699e-12 </wgt>
<wgt id='1242'> +1.3795359e-12 </wgt>
<wgt id='1243'> +1.4348015e-12 </wgt>
<wgt id='1244'> +1.4283564e-12 </wgt>
<wgt id='1245'> +1.3920953e-12 </wgt>
<wgt id='1246'> +1.4038325e-12 </wgt>
<wgt id='1247'> +1.4104611e-12 </wgt>
<wgt id='1248'> +1.4075445e-12 </wgt>
<wgt id='1249'> +1.4072343e-12 </wgt>
<wgt id='1250'> +1.4095341e-12 </wgt>
<wgt id='1251'> +1.4058965e-12 </wgt>
<wgt id='1252'> +1.4038928e-12 </wgt>
<wgt id='1253'> +1.4100922e-12 </wgt>
<wgt id='1254'> +1.4103004e-12 </wgt>
<wgt id='1255'> +1.4054800e-12 </wgt>
<wgt id='1256'> +1.4055888e-12 </wgt>
<wgt id='1257'> +1.4116088e-12 </wgt>
<wgt id='1258'> +1.3880072e-12 </wgt>
<wgt id='1259'> +1.4152282e-12 </wgt>
<wgt id='1260'> +1.4113966e-12 </wgt>
<wgt id='1261'> +1.4030808e-12 </wgt>
<wgt id='1262'> +1.4032642e-12 </wgt>
<wgt id='1263'> +1.4093903e-12 </wgt>
<wgt id='1264'> +1.4120809e-12 </wgt>
<wgt id='1265'> +1.4062157e-12 </wgt>
<wgt id='1266'> +1.3755475e-12 </wgt>
<wgt id='1267'> +1.4386796e-12 </wgt>
<wgt id='1268'> +1.4176848e-12 </wgt>
<wgt id='1269'> +1.3985577e-12 </wgt>
<wgt id='1270'> +1.4500898e-12 </wgt>
<wgt id='1271'> +1.4107325e-12 </wgt>
<wgt id='1272'> +1.4235761e-12 </wgt>
<wgt id='1273'> +1.4050873e-12 </wgt>
<wgt id='1274'> +1.4128916e-12 </wgt>
<wgt id='1275'> +1.4001010e-12 </wgt>
<wgt id='1276'> +1.4038890e-12 </wgt>
<wgt id='1277'> +1.4149324e-12 </wgt>
<wgt id='1278'> +1.4487473e-12 </wgt>
<wgt id='1279'> +1.4007351e-12 </wgt>
<wgt id='1280'> +1.4085534e-12 </wgt>
<wgt id='1281'> +1.4131663e-12 </wgt>
<wgt id='1282'> +1.4073699e-12 </wgt>
<wgt id='1283'> +1.4041212e-12 </wgt>
<wgt id='1284'> +1.4054310e-12 </wgt>
<wgt id='1285'> +1.4067560e-12 </wgt>
<wgt id='1286'> +1.4085789e-12 </wgt>
<wgt id='1287'> +1.4090539e-12 </wgt>
<wgt id='1288'> +1.4097245e-12 </wgt>
<wgt id='1289'> +1.6920227e-12 </wgt>
<wgt id='1290'> +1.7014391e-12 </wgt>
<wgt id='1291'> +1.6819463e-12 </wgt>
<wgt id='1292'> +1.6939454e-12 </wgt>
<wgt id='1293'> +1.6905237e-12 </wgt>
<wgt id='1294'> +1.6563806e-12 </wgt>
<wgt id='1295'> +1.7260446e-12 </wgt>
<wgt id='1296'> +1.7223468e-12 </wgt>
<wgt id='1297'> +1.6546424e-12 </wgt>
<wgt id='1298'> +1.7041446e-12 </wgt>
<wgt id='1299'> +1.6764910e-12 </wgt>
<wgt id='1300'> +1.6938393e-12 </wgt>
<wgt id='1301'> +1.6880509e-12 </wgt>
<wgt id='1302'> +1.6878548e-12 </wgt>
<wgt id='1303'> +1.6977398e-12 </wgt>
<wgt id='1304'> +1.6903725e-12 </wgt>
<wgt id='1305'> +1.6929235e-12 </wgt>
<wgt id='1306'> +1.6889083e-12 </wgt>
<wgt id='1307'> +1.6953301e-12 </wgt>
<wgt id='1308'> +1.6864481e-12 </wgt>
<wgt id='1309'> +1.6961032e-12 </wgt>
<wgt id='1310'> +1.7068131e-12 </wgt>
<wgt id='1311'> +1.6767083e-12 </wgt>
<wgt id='1312'> +1.7091014e-12 </wgt>
<wgt id='1313'> +1.6765030e-12 </wgt>
<wgt id='1314'> +1.6967012e-12 </wgt>
<wgt id='1315'> +1.6960999e-12 </wgt>
<wgt id='1316'> +1.7027148e-12 </wgt>
<wgt id='1317'> +1.6957029e-12 </wgt>
<wgt id='1318'> +1.6966670e-12 </wgt>
<wgt id='1319'> +1.6825757e-12 </wgt>
<wgt id='1320'> +1.7138786e-12 </wgt>
<wgt id='1321'> +1.6714415e-12 </wgt>
<wgt id='1322'> +1.6908940e-12 </wgt>
<wgt id='1323'> +1.6932098e-12 </wgt>
<wgt id='1324'> +1.6903214e-12 </wgt>
<wgt id='1325'> +1.7044558e-12 </wgt>
<wgt id='1326'> +1.6914102e-12 </wgt>
<wgt id='1327'> +1.6972151e-12 </wgt>
<wgt id='1328'> +1.6932894e-12 </wgt>
<wgt id='1329'> +1.6901184e-12 </wgt>
<wgt id='1330'> +1.6979882e-12 </wgt>
<wgt id='1331'> +1.6853106e-12 </wgt>
<wgt id='1332'> +1.6995444e-12 </wgt>
<wgt id='1333'> +1.7162530e-12 </wgt>
<wgt id='1334'> +1.6934926e-12 </wgt>
<wgt id='1335'> +1.6898344e-12 </wgt>
<wgt id='1336'> +1.6978814e-12 </wgt>
<wgt id='1337'> +1.7120001e-12 </wgt>
<wgt id='1338'> +1.6936675e-12 </wgt>
<wgt id='1339'> +1.6925998e-12 </wgt>
<wgt id='1340'> +1.6630540e-12 </wgt>
<wgt id='1341'> +1.6720328e-12 </wgt>
<wgt id='1342'> +1.6532863e-12 </wgt>
<wgt id='1343'> +1.6652131e-12 </wgt>
<wgt id='1344'> +1.6614946e-12 </wgt>
<wgt id='1345'> +1.6259649e-12 </wgt>
<wgt id='1346'> +1.6970630e-12 </wgt>
<wgt id='1347'> +1.6946603e-12 </wgt>
<wgt id='1348'> +1.6280013e-12 </wgt>
<wgt id='1349'> +1.6757003e-12 </wgt>
<wgt id='1350'> +1.6504811e-12 </wgt>
<wgt id='1351'> +1.6652241e-12 </wgt>
<wgt id='1352'> +1.6581186e-12 </wgt>
<wgt id='1353'> +1.6581088e-12 </wgt>
<wgt id='1354'> +1.6718258e-12 </wgt>
<wgt id='1355'> +1.6627067e-12 </wgt>
<wgt id='1356'> +1.6631600e-12 </wgt>
<wgt id='1357'> +1.6589801e-12 </wgt>
<wgt id='1358'> +1.6675195e-12 </wgt>
<wgt id='1359'> +1.6588239e-12 </wgt>
<wgt id='1360'> +1.6667121e-12 </wgt>
<wgt id='1361'> +1.6761871e-12 </wgt>
<wgt id='1362'> +1.6462061e-12 </wgt>
<wgt id='1363'> +1.6859225e-12 </wgt>
<wgt id='1364'> +1.6486932e-12 </wgt>
<wgt id='1365'> +1.6563724e-12 </wgt>
<wgt id='1366'> +1.6792847e-12 </wgt>
<wgt id='1367'> +1.6727582e-12 </wgt>
<wgt id='1368'> +1.6651281e-12 </wgt>
<wgt id='1369'> +1.6652650e-12 </wgt>
<wgt id='1370'> +1.6581026e-12 </wgt>
<wgt id='1371'> +1.6791032e-12 </wgt>
<wgt id='1372'> +1.6424941e-12 </wgt>
<wgt id='1373'> +1.6578093e-12 </wgt>
<wgt id='1374'> +1.6673362e-12 </wgt>
<wgt id='1375'> +1.6614182e-12 </wgt>
<wgt id='1376'> +1.6747646e-12 </wgt>
<wgt id='1377'> +1.6624664e-12 </wgt>
<wgt id='1378'> +1.6686018e-12 </wgt>
<wgt id='1379'> +1.6644041e-12 </wgt>
<wgt id='1380'> +1.6610396e-12 </wgt>
<wgt id='1381'> +1.6681533e-12 </wgt>
<wgt id='1382'> +1.6578831e-12 </wgt>
<wgt id='1383'> +1.6680023e-12 </wgt>
<wgt id='1384'> +1.6873711e-12 </wgt>
<wgt id='1385'> +1.6644403e-12 </wgt>
<wgt id='1386'> +1.6605261e-12 </wgt>
<wgt id='1387'> +1.6693873e-12 </wgt>
<wgt id='1388'> +1.6834552e-12 </wgt>
<wgt id='1389'> +1.6653552e-12 </wgt>
<wgt id='1390'> +1.6645559e-12 </wgt>
<wgt id='1391'> +1.6250212e-12 </wgt>
<wgt id='1392'> +1.5831882e-12 </wgt>
<wgt id='1393'> +1.5986084e-12 </wgt>
<wgt id='1394'> +1.6119042e-12 </wgt>
<wgt id='1395'> +1.6379999e-12 </wgt>
<wgt id='1396'> +1.6249230e-12 </wgt>
<wgt id='1397'> +1.5959423e-12 </wgt>
<wgt id='1398'> +1.5995690e-12 </wgt>
<wgt id='1399'> +1.6044167e-12 </wgt>
<wgt id='1400'> +1.6104450e-12 </wgt>
<wgt id='1401'> +1.6175355e-12 </wgt>
<wgt id='1402'> +1.6314562e-12 </wgt>
<wgt id='1403'> +1.6380454e-12 </wgt>
<wgt id='1404'> +1.6449312e-12 </wgt>
<wgt id='1405'> +1.6249230e-12 </wgt>
<wgt id='1406'> +1.6210688e-12 </wgt>
<wgt id='1407'> +1.6228888e-12 </wgt>
<wgt id='1408'> +1.6267447e-12 </wgt>
<wgt id='1409'> +1.6276864e-12 </wgt>
<wgt id='1410'> +1.4080937e-12 </wgt>
<wgt id='1411'> +1.4258854e-12 </wgt>
<wgt id='1412'> +1.3853006e-12 </wgt>
<wgt id='1413'> +1.3798096e-12 </wgt>
<wgt id='1414'> +1.4362201e-12 </wgt>
<wgt id='1415'> +1.3968941e-12 </wgt>
<wgt id='1416'> +1.4126117e-12 </wgt>
<wgt id='1417'> +1.4232831e-12 </wgt>
<wgt id='1418'> +1.3930264e-12 </wgt>
<wgt id='1419'> +1.4099829e-12 </wgt>
<wgt id='1420'> +1.4062729e-12 </wgt>
<wgt id='1421'> +1.3982519e-12 </wgt>
<wgt id='1422'> +1.4120009e-12 </wgt>
<wgt id='1423'> +1.4081169e-12 </wgt>
<wgt id='1424'> +1.4081257e-12 </wgt>
<wgt id='1425'> +1.3988440e-12 </wgt>
<wgt id='1426'> +1.4180884e-12 </wgt>
<wgt id='1427'> +1.3964374e-12 </wgt>
<wgt id='1428'> +1.4149813e-12 </wgt>
<wgt id='1429'> +1.4035346e-12 </wgt>
<wgt id='1430'> +1.4148614e-12 </wgt>
<wgt id='1431'> +1.3998771e-12 </wgt>
<wgt id='1432'> +1.4142215e-12 </wgt>
<wgt id='1433'> +1.3922523e-12 </wgt>
<wgt id='1434'> +1.4231406e-12 </wgt>
<wgt id='1435'> +1.4023183e-12 </wgt>
<wgt id='1436'> +1.4244156e-12 </wgt>
<wgt id='1437'> +1.4206688e-12 </wgt>
<wgt id='1438'> +1.4145937e-12 </wgt>
<wgt id='1439'> +1.4010905e-12 </wgt>
<wgt id='1440'> +1.4145719e-12 </wgt>
<wgt id='1441'> +1.4165962e-12 </wgt>
<wgt id='1442'> +1.3913983e-12 </wgt>
<wgt id='1443'> +1.4044091e-12 </wgt>
<wgt id='1444'> +1.4205224e-12 </wgt>
<wgt id='1445'> +1.4257457e-12 </wgt>
<wgt id='1446'> +1.4044611e-12 </wgt>
<wgt id='1447'> +1.4106234e-12 </wgt>
<wgt id='1448'> +1.4144588e-12 </wgt>
<wgt id='1449'> +1.4100914e-12 </wgt>
<wgt id='1450'> +1.4057465e-12 </wgt>
<wgt id='1451'> +1.4074216e-12 </wgt>
<wgt id='1452'> +1.4212717e-12 </wgt>
<wgt id='1453'> +1.4072032e-12 </wgt>
<wgt id='1454'> +1.4170406e-12 </wgt>
<wgt id='1455'> +1.4286829e-12 </wgt>
<wgt id='1456'> +1.4293354e-12 </wgt>
<wgt id='1457'> +1.4166389e-12 </wgt>
<wgt id='1458'> +1.4090260e-12 </wgt>
<wgt id='1459'> +1.4214298e-12 </wgt>
<wgt id='1460'> +1.4341701e-12 </wgt>
<wgt id='1461'> +1.4080937e-12 </wgt>
<wgt id='1462'> +1.4033818e-12 </wgt>
<wgt id='1463'> +1.4051090e-12 </wgt>
<wgt id='1464'> +1.4046621e-12 </wgt>
<wgt id='1465'> +1.3715313e-12 </wgt>
<wgt id='1466'> +1.3761557e-12 </wgt>
<wgt id='1467'> +1.3820984e-12 </wgt>
<wgt id='1468'> +1.3937560e-12 </wgt>
<wgt id='1469'> +1.3975472e-12 </wgt>
<wgt id='1470'> +1.4120311e-12 </wgt>
<wgt id='1471'> +1.4191398e-12 </wgt>
<wgt id='1472'> +1.4259542e-12 </wgt>
<wgt id='1473'> +1.4046621e-12 </wgt>
<wgt id='1474'> +1.4033134e-12 </wgt>
<wgt id='1475'> +1.4054158e-12 </wgt>
<wgt id='1476'> +1.4045970e-12 </wgt>
<wgt id='1477'> +1.4048170e-12 </wgt>
<wgt id='1478'> +1.5677436e-12 </wgt>
<wgt id='1479'> +1.5658505e-12 </wgt>
<wgt id='1480'> +1.5544947e-12 </wgt>
<wgt id='1481'> +1.6350800e-12 </wgt>
<wgt id='1482'> +1.5709850e-12 </wgt>
<wgt id='1483'> +1.5619501e-12 </wgt>
<wgt id='1484'> +1.5393445e-12 </wgt>
<wgt id='1485'> +1.5682196e-12 </wgt>
<wgt id='1486'> +1.5683830e-12 </wgt>
<wgt id='1487'> +1.5703919e-12 </wgt>
<wgt id='1488'> +1.5652182e-12 </wgt>
<wgt id='1489'> +1.5756956e-12 </wgt>
<wgt id='1490'> +1.5659428e-12 </wgt>
<wgt id='1491'> +1.5721518e-12 </wgt>
<wgt id='1492'> +1.5700933e-12 </wgt>
<wgt id='1493'> +1.5475081e-12 </wgt>
<wgt id='1494'> +1.5592822e-12 </wgt>
<wgt id='1495'> +1.5653102e-12 </wgt>
<wgt id='1496'> +1.5683077e-12 </wgt>
<wgt id='1497'> +1.5680016e-12 </wgt>
<wgt id='1498'> +1.5690247e-12 </wgt>
<wgt id='1499'> +1.5661993e-12 </wgt>
<wgt id='1500'> +1.5667056e-12 </wgt>
<wgt id='1501'> +1.5695131e-12 </wgt>
<wgt id='1502'> +1.5704543e-12 </wgt>
<wgt id='1503'> +1.5688746e-12 </wgt>
<wgt id='1504'> +1.5656959e-12 </wgt>
<wgt id='1505'> +1.5684052e-12 </wgt>
<wgt id='1506'> +1.5658940e-12 </wgt>
<wgt id='1507'> +1.5681952e-12 </wgt>
<wgt id='1508'> +1.5679504e-12 </wgt>
<wgt id='1509'> +1.4068731e-12 </wgt>
<wgt id='1510'> +1.4208030e-12 </wgt>
<wgt id='1511'> +1.3756648e-12 </wgt>
<wgt id='1512'> +1.4057747e-12 </wgt>
<wgt id='1513'> +1.4031846e-12 </wgt>
<wgt id='1514'> +1.4070550e-12 </wgt>
<wgt id='1515'> +1.4109318e-12 </wgt>
<wgt id='1516'> +1.4050382e-12 </wgt>
<wgt id='1517'> +1.4127437e-12 </wgt>
<wgt id='1518'> +1.4068880e-12 </wgt>
<wgt id='1519'> +1.4084017e-12 </wgt>
<wgt id='1520'> +1.4076020e-12 </wgt>
<wgt id='1521'> +1.4051331e-12 </wgt>
<wgt id='1522'> +1.4093264e-12 </wgt>
<wgt id='1523'> +1.4102137e-12 </wgt>
<wgt id='1524'> +1.4027682e-12 </wgt>
<wgt id='1525'> +1.4066459e-12 </wgt>
<wgt id='1526'> +1.4081131e-12 </wgt>
<wgt id='1527'> +1.4067635e-12 </wgt>
<wgt id='1528'> +1.4080546e-12 </wgt>
<wgt id='1529'> +1.4057253e-12 </wgt>
<wgt id='1530'> +1.4054666e-12 </wgt>
<wgt id='1531'> +1.4079054e-12 </wgt>
<wgt id='1532'> +1.4036153e-12 </wgt>
<wgt id='1533'> +1.4097330e-12 </wgt>
<wgt id='1534'> +1.4073511e-12 </wgt>
<wgt id='1535'> +1.4036113e-12 </wgt>
<wgt id='1536'> +1.4113027e-12 </wgt>
<wgt id='1537'> +1.4093317e-12 </wgt>
<wgt id='1538'> +1.3920344e-12 </wgt>
<wgt id='1539'> +1.4034000e-12 </wgt>
<wgt id='1540'> +1.4040147e-12 </wgt>
<wgt id='1541'> +1.4041759e-12 </wgt>
<wgt id='1542'> +1.4075153e-12 </wgt>
<wgt id='1543'> +1.4067364e-12 </wgt>
<wgt id='1544'> +1.4052337e-12 </wgt>
<wgt id='1545'> +1.4062372e-12 </wgt>
<wgt id='1546'> +1.4082906e-12 </wgt>
<wgt id='1547'> +1.4039439e-12 </wgt>
<wgt id='1548'> +1.4071016e-12 </wgt>
<wgt id='1549'> +1.4087504e-12 </wgt>
<wgt id='1550'> +1.4066377e-12 </wgt>
<wgt id='1551'> +1.4046439e-12 </wgt>
<wgt id='1552'> +1.4087803e-12 </wgt>
<wgt id='1553'> +1.4058510e-12 </wgt>
<wgt id='1554'> +1.4094097e-12 </wgt>
<wgt id='1555'> +1.4085608e-12 </wgt>
<wgt id='1556'> +1.4111586e-12 </wgt>
<wgt id='1557'> +1.4109974e-12 </wgt>
<wgt id='1558'> +1.4089483e-12 </wgt>
<wgt id='1559'> +1.4172737e-12 </wgt>
<wgt id='1560'> +1.4153984e-12 </wgt>
<wgt id='1561'> +1.4064509e-12 </wgt>
<wgt id='1562'> +1.4092535e-12 </wgt>
<wgt id='1563'> +1.4136449e-12 </wgt>
<wgt id='1564'> +1.4085881e-12 </wgt>
<wgt id='1565'> +1.4077014e-12 </wgt>
<wgt id='1566'> +1.4098828e-12 </wgt>
<wgt id='1567'> +1.4196679e-12 </wgt>
<wgt id='1568'> +1.4152668e-12 </wgt>
<wgt id='1569'> +1.4084601e-12 </wgt>
<wgt id='1570'> +1.4109991e-12 </wgt>
<wgt id='1571'> +1.4058924e-12 </wgt>
<wgt id='1572'> +1.4093636e-12 </wgt>
<wgt id='1573'> +1.4125156e-12 </wgt>
<wgt id='1574'> +1.4097946e-12 </wgt>
<wgt id='1575'> +1.4043924e-12 </wgt>
<wgt id='1576'> +1.4095524e-12 </wgt>
<wgt id='1577'> +1.4038819e-12 </wgt>
<wgt id='1578'> +1.4079071e-12 </wgt>
<wgt id='1579'> +1.4035414e-12 </wgt>
<wgt id='1580'> +1.4094178e-12 </wgt>
<wgt id='1581'> +1.4046425e-12 </wgt>
<wgt id='1582'> +1.4037531e-12 </wgt>
<wgt id='1583'> +1.4077455e-12 </wgt>
<wgt id='1584'> +1.4052819e-12 </wgt>
<wgt id='1585'> +1.4100554e-12 </wgt>
<wgt id='1586'> +1.4064337e-12 </wgt>
<wgt id='1587'> +1.4116684e-12 </wgt>
<wgt id='1588'> +1.4100998e-12 </wgt>
<wgt id='1589'> +1.4084655e-12 </wgt>
<wgt id='1590'> +1.4025374e-12 </wgt>
<wgt id='1591'> +1.4054581e-12 </wgt>
<wgt id='1592'> +1.4101595e-12 </wgt>
<wgt id='1593'> +1.4097556e-12 </wgt>
<wgt id='1594'> +1.4075693e-12 </wgt>
<wgt id='1595'> +1.4038274e-12 </wgt>
<wgt id='1596'> +1.4105164e-12 </wgt>
<wgt id='1597'> +1.4015580e-12 </wgt>
<wgt id='1598'> +1.4085377e-12 </wgt>
<wgt id='1599'> +1.4056543e-12 </wgt>
<wgt id='1600'> +1.4080947e-12 </wgt>
<wgt id='1601'> +1.4051098e-12 </wgt>
<wgt id='1602'> +1.4100614e-12 </wgt>
<wgt id='1603'> +1.4094964e-12 </wgt>
<wgt id='1604'> +1.4055060e-12 </wgt>
<wgt id='1605'> +1.4075511e-12 </wgt>
<wgt id='1606'> +1.4097107e-12 </wgt>
<wgt id='1607'> +1.4065557e-12 </wgt>
<wgt id='1608'> +1.4081509e-12 </wgt>
<wgt id='1609'> +1.4075749e-12 </wgt>
<wgt id='1610'> +1.3900098e-12 </wgt>
<wgt id='1611'> +1.4190985e-12 </wgt>
<wgt id='1612'> +1.5723786e-12 </wgt>
<wgt id='1613'> +1.5038741e-12 </wgt>
<wgt id='1614'> +1.4557511e-12 </wgt>
<wgt id='1615'> +1.4560824e-12 </wgt>
<wgt id='1616'> +1.4791445e-12 </wgt>
<wgt id='1617'> +1.4617183e-12 </wgt>
<wgt id='1618'> +1.5724728e-12 </wgt>
<wgt id='1619'> +1.5198572e-12 </wgt>
<wgt id='1620'> +1.5479265e-12 </wgt>
<wgt id='1621'> +1.6137456e-12 </wgt>
<wgt id='1622'> +1.5698731e-12 </wgt>
<wgt id='1623'> +1.6596404e-12 </wgt>
<wgt id='1624'> +1.6559728e-12 </wgt>
<wgt id='1625'> +1.4612324e-12 </wgt>
<wgt id='1626'> +1.5397216e-12 </wgt>
<wgt id='1627'> +1.6756481e-12 </wgt>
<wgt id='1628'> +1.5427272e-12 </wgt>
<wgt id='1629'> +1.5590209e-12 </wgt>
<wgt id='1630'> +1.5999870e-12 </wgt>
<wgt id='1631'> +1.5387394e-12 </wgt>
<wgt id='1632'> +1.5148445e-12 </wgt>
<wgt id='1633'> +1.4395070e-12 </wgt>
<wgt id='1634'> +1.6242021e-12 </wgt>
<wgt id='1635'> +1.5647869e-12 </wgt>
<wgt id='1636'> +1.4582662e-12 </wgt>
<wgt id='1637'> +1.6033792e-12 </wgt>
<wgt id='1638'> +1.6389933e-12 </wgt>
<wgt id='1639'> +1.5550167e-12 </wgt>
<wgt id='1640'> +1.5825320e-12 </wgt>
<wgt id='1641'> +1.5682971e-12 </wgt>
<wgt id='1642'> +1.5098135e-12 </wgt>
<wgt id='1643'> +1.4166617e-12 </wgt>
<wgt id='1644'> +1.5826025e-12 </wgt>
<wgt id='1645'> +1.5201590e-12 </wgt>
<wgt id='1646'> +1.5469246e-12 </wgt>
<wgt id='1647'> +1.6625698e-12 </wgt>
<wgt id='1648'> +1.5507609e-12 </wgt>
<wgt id='1649'> +1.6740847e-12 </wgt>
<wgt id='1650'> +1.4600931e-12 </wgt>
<wgt id='1651'> +1.7123676e-12 </wgt>
<wgt id='1652'> +1.5355559e-12 </wgt>
<wgt id='1653'> +1.5809094e-12 </wgt>
<wgt id='1654'> +1.5797045e-12 </wgt>
<wgt id='1655'> +1.6218044e-12 </wgt>
<wgt id='1656'> +1.4427717e-12 </wgt>
<wgt id='1657'> +1.6000651e-12 </wgt>
<wgt id='1658'> +1.4991548e-12 </wgt>
<wgt id='1659'> +1.6559728e-12 </wgt>
<wgt id='1660'> +1.5781651e-12 </wgt>
<wgt id='1661'> +1.6559297e-12 </wgt>
<wgt id='1662'> +1.6538267e-12 </wgt>
<wgt id='1663'> +1.6090700e-12 </wgt>
<wgt id='1664'> +1.5827884e-12 </wgt>
<wgt id='1665'> +1.5654448e-12 </wgt>
<wgt id='1666'> +1.5712820e-12 </wgt>
<wgt id='1667'> +1.5261656e-12 </wgt>
<wgt id='1668'> +1.6421922e-12 </wgt>
<wgt id='1669'> +1.6654086e-12 </wgt>
<wgt id='1670'> +1.5006521e-12 </wgt>
<wgt id='1671'> +1.5951203e-12 </wgt>
<wgt id='1672'> +1.6470587e-12 </wgt>
<wgt id='1673'> +1.6234637e-12 </wgt>
<wgt id='1674'> +1.5607254e-12 </wgt>
<wgt id='1675'> +1.5411643e-12 </wgt>
<wgt id='1676'> +1.5341102e-12 </wgt>
<wgt id='1677'> +1.5168209e-12 </wgt>
<wgt id='1678'> +1.5359123e-12 </wgt>
<wgt id='1679'> +1.5904513e-12 </wgt>
<wgt id='1680'> +1.6005355e-12 </wgt>
<wgt id='1681'> +1.6121662e-12 </wgt>
<wgt id='1682'> +1.4960911e-12 </wgt>
<wgt id='1683'> +1.6318598e-12 </wgt>
<wgt id='1684'> +1.6833235e-12 </wgt>
<wgt id='1685'> +1.6151788e-12 </wgt>
<wgt id='1686'> +1.5291702e-12 </wgt>
<wgt id='1687'> +1.5391742e-12 </wgt>
<wgt id='1688'> +1.5416270e-12 </wgt>
<wgt id='1689'> +1.6147698e-12 </wgt>
<wgt id='1690'> +1.6372508e-12 </wgt>
<wgt id='1691'> +1.4962282e-12 </wgt>
<wgt id='1692'> +1.5953042e-12 </wgt>
<wgt id='1693'> +1.5835401e-12 </wgt>
<wgt id='1694'> +1.4965055e-12 </wgt>
<wgt id='1695'> +1.6561227e-12 </wgt>
<wgt id='1696'> +1.6139515e-12 </wgt>
<wgt id='1697'> +1.5921561e-12 </wgt>
<wgt id='1698'> +1.6375138e-12 </wgt>
<wgt id='1699'> +1.6391534e-12 </wgt>
<wgt id='1700'> +1.4975584e-12 </wgt>
<wgt id='1701'> +1.5947303e-12 </wgt>
<wgt id='1702'> +1.5328633e-12 </wgt>
<wgt id='1703'> +1.5879897e-12 </wgt>
<wgt id='1704'> +1.4442017e-12 </wgt>
<wgt id='1705'> +1.5263977e-12 </wgt>
<wgt id='1706'> +1.6438615e-12 </wgt>
<wgt id='1707'> +1.6357643e-12 </wgt>
<wgt id='1708'> +1.7130285e-12 </wgt>
<wgt id='1709'> +1.6300739e-12 </wgt>
<wgt id='1710'> +1.5860932e-12 </wgt>
<wgt id='1711'> +1.5424684e-12 </wgt>
<wgt id='1712'> +1.6564567e-12 </wgt>
<wgt id='1713'> +1.5089299e-12 </wgt>
<wgt id='1714'> +1.5007446e-12 </wgt>
<wgt id='1715'> +1.3974770e-12 </wgt>
<wgt id='1716'> +1.5190314e-12 </wgt>
<wgt id='1717'> +1.5383095e-12 </wgt>
<wgt id='1718'> +1.5419332e-12 </wgt>
<wgt id='1719'> +1.5044024e-12 </wgt>
<wgt id='1720'> +1.4281450e-12 </wgt>
<wgt id='1721'> +1.4356245e-12 </wgt>
<wgt id='1722'> +1.5081977e-12 </wgt>
<wgt id='1723'> +1.6171835e-12 </wgt>
<wgt id='1724'> +1.4708008e-12 </wgt>
<wgt id='1725'> +1.5340161e-12 </wgt>
<wgt id='1726'> +1.4561373e-12 </wgt>
<wgt id='1727'> +1.6273712e-12 </wgt>
<wgt id='1728'> +1.4560217e-12 </wgt>
<wgt id='1729'> +1.4364793e-12 </wgt>
<wgt id='1730'> +1.4696934e-12 </wgt>
<wgt id='1731'> +1.4528647e-12 </wgt>
<wgt id='1732'> +1.5136300e-12 </wgt>
<wgt id='1733'> +1.4398630e-12 </wgt>
<wgt id='1734'> +1.6046094e-12 </wgt>
<wgt id='1735'> +1.6031648e-12 </wgt>
<wgt id='1736'> +1.5100307e-12 </wgt>
<wgt id='1737'> +1.5932396e-12 </wgt>
<wgt id='1738'> +1.4642193e-12 </wgt>
<wgt id='1739'> +1.5403592e-12 </wgt>
<wgt id='1740'> +1.4307133e-12 </wgt>
<wgt id='1741'> +1.5994455e-12 </wgt>
<wgt id='1742'> +1.4915083e-12 </wgt>
<wgt id='1743'> +1.4464361e-12 </wgt>
<wgt id='1744'> +1.5336427e-12 </wgt>
<wgt id='1745'> +1.5233831e-12 </wgt>
<wgt id='1746'> +1.4655666e-12 </wgt>
<wgt id='1747'> +1.6105833e-12 </wgt>
<wgt id='1748'> +1.5415154e-12 </wgt>
<wgt id='1749'> +1.5493676e-12 </wgt>
<wgt id='1750'> +1.4775123e-12 </wgt>
<wgt id='1751'> +1.5152820e-12 </wgt>
<wgt id='1752'> +1.5397212e-12 </wgt>
<wgt id='1753'> +1.5144126e-12 </wgt>
<wgt id='1754'> +1.5453488e-12 </wgt>
<wgt id='1755'> +1.4942168e-12 </wgt>
<wgt id='1756'> +1.5413724e-12 </wgt>
<wgt id='1757'> +1.5625942e-12 </wgt>
<wgt id='1758'> +1.6201539e-12 </wgt>
<wgt id='1759'> +1.5800053e-12 </wgt>
<wgt id='1760'> +1.4894245e-12 </wgt>
<wgt id='1761'> +1.5112415e-12 </wgt>
<wgt id='1762'> +1.4330361e-12 </wgt>
<wgt id='1763'> +1.5208598e-12 </wgt>
<wgt id='1764'> +1.5982462e-12 </wgt>
<wgt id='1765'> +1.4830698e-12 </wgt>
<wgt id='1766'> +1.5446540e-12 </wgt>
<wgt id='1767'> +1.4658463e-12 </wgt>
<wgt id='1768'> +1.5444359e-12 </wgt>
<wgt id='1769'> +1.5400307e-12 </wgt>
<wgt id='1770'> +1.5060645e-12 </wgt>
<wgt id='1771'> +1.5635328e-12 </wgt>
<wgt id='1772'> +1.4490267e-12 </wgt>
<wgt id='1773'> +1.4923448e-12 </wgt>
<wgt id='1774'> +1.4517342e-12 </wgt>
<wgt id='1775'> +1.4471975e-12 </wgt>
<wgt id='1776'> +1.7432174e-12 </wgt>
<wgt id='1777'> +1.4476010e-12 </wgt>
<wgt id='1778'> +1.5842058e-12 </wgt>
<wgt id='1779'> +1.4960095e-12 </wgt>
<wgt id='1780'> +1.5491669e-12 </wgt>
<wgt id='1781'> +1.5531841e-12 </wgt>
<wgt id='1782'> +1.5537791e-12 </wgt>
<wgt id='1783'> +1.5093783e-12 </wgt>
<wgt id='1784'> +1.5166989e-12 </wgt>
<wgt id='1785'> +1.4850205e-12 </wgt>
<wgt id='1786'> +1.5155940e-12 </wgt>
<wgt id='1787'> +1.6467574e-12 </wgt>
<wgt id='1788'> +1.4079043e-12 </wgt>
<wgt id='1789'> +1.5546039e-12 </wgt>
<wgt id='1790'> +1.4923223e-12 </wgt>
<wgt id='1791'> +1.4393359e-12 </wgt>
<wgt id='1792'> +1.4841767e-12 </wgt>
<wgt id='1793'> +1.4607732e-12 </wgt>
<wgt id='1794'> +1.5298178e-12 </wgt>
<wgt id='1795'> +1.4863297e-12 </wgt>
<wgt id='1796'> +1.4620204e-12 </wgt>
<wgt id='1797'> +1.5472370e-12 </wgt>
<wgt id='1798'> +1.4547697e-12 </wgt>
<wgt id='1799'> +1.5041066e-12 </wgt>
<wgt id='1800'> +1.5019922e-12 </wgt>
<wgt id='1801'> +1.4710093e-12 </wgt>
<wgt id='1802'> +1.4926604e-12 </wgt>
<wgt id='1803'> +1.5039914e-12 </wgt>
<wgt id='1804'> +1.5603740e-12 </wgt>
<wgt id='1805'> +1.4751459e-12 </wgt>
<wgt id='1806'> +1.5078781e-12 </wgt>
<wgt id='1807'> +1.4571603e-12 </wgt>
<wgt id='1808'> +1.4073994e-12 </wgt>
<wgt id='1809'> +1.4726002e-12 </wgt>
<wgt id='1810'> +1.4774637e-12 </wgt>
<wgt id='1811'> +1.5245692e-12 </wgt>
<wgt id='1812'> +1.4490995e-12 </wgt>
<wgt id='1813'> +1.3910961e-12 </wgt>
<wgt id='1814'> +2.3985653e-12 </wgt>
<wgt id='1815'> +2.9675379e-12 </wgt>
<wgt id='1816'> +1.5089299e-12 </wgt>
<wgt id='1817'> +1.5007446e-12 </wgt>
<wgt id='1818'> +1.3974770e-12 </wgt>
<wgt id='1819'> +1.5190314e-12 </wgt>
<wgt id='1820'> +1.5383095e-12 </wgt>
<wgt id='1821'> +1.5419332e-12 </wgt>
<wgt id='1822'> +1.5044024e-12 </wgt>
<wgt id='1823'> +1.4281450e-12 </wgt>
<wgt id='1824'> +1.4356245e-12 </wgt>
<wgt id='1825'> +1.5081977e-12 </wgt>
<wgt id='1826'> +1.6171835e-12 </wgt>
<wgt id='1827'> +1.4708008e-12 </wgt>
<wgt id='1828'> +1.5340161e-12 </wgt>
<wgt id='1829'> +1.4561373e-12 </wgt>
<wgt id='1830'> +1.6273712e-12 </wgt>
<wgt id='1831'> +1.4560217e-12 </wgt>
<wgt id='1832'> +1.4364793e-12 </wgt>
<wgt id='1833'> +1.4696934e-12 </wgt>
<wgt id='1834'> +1.4528647e-12 </wgt>
<wgt id='1835'> +1.5136300e-12 </wgt>
<wgt id='1836'> +1.4398630e-12 </wgt>
<wgt id='1837'> +1.6046094e-12 </wgt>
<wgt id='1838'> +1.6031648e-12 </wgt>
<wgt id='1839'> +1.5100307e-12 </wgt>
<wgt id='1840'> +1.5932396e-12 </wgt>
<wgt id='1841'> +1.4642193e-12 </wgt>
<wgt id='1842'> +1.5403592e-12 </wgt>
<wgt id='1843'> +1.4307133e-12 </wgt>
<wgt id='1844'> +1.5994455e-12 </wgt>
<wgt id='1845'> +1.4915083e-12 </wgt>
<wgt id='1846'> +1.4464361e-12 </wgt>
<wgt id='1847'> +1.5336427e-12 </wgt>
<wgt id='1848'> +1.5233831e-12 </wgt>
<wgt id='1849'> +1.4655666e-12 </wgt>
<wgt id='1850'> +1.6105833e-12 </wgt>
<wgt id='1851'> +1.5415154e-12 </wgt>
<wgt id='1852'> +1.5493676e-12 </wgt>
<wgt id='1853'> +1.4775123e-12 </wgt>
<wgt id='1854'> +1.5152820e-12 </wgt>
<wgt id='1855'> +1.5397212e-12 </wgt>
<wgt id='1856'> +1.5144126e-12 </wgt>
<wgt id='1857'> +1.5453488e-12 </wgt>
<wgt id='1858'> +1.4942168e-12 </wgt>
<wgt id='1859'> +1.5413724e-12 </wgt>
<wgt id='1860'> +1.5625942e-12 </wgt>
<wgt id='1861'> +1.6201539e-12 </wgt>
<wgt id='1862'> +1.5800053e-12 </wgt>
<wgt id='1863'> +1.4894245e-12 </wgt>
<wgt id='1864'> +1.5112415e-12 </wgt>
<wgt id='1865'> +1.4330361e-12 </wgt>
<wgt id='1866'> +1.5208598e-12 </wgt>
<wgt id='1867'> +1.5982462e-12 </wgt>
<wgt id='1868'> +1.4830698e-12 </wgt>
<wgt id='1869'> +1.5446540e-12 </wgt>
<wgt id='1870'> +1.4658463e-12 </wgt>
<wgt id='1871'> +1.5444359e-12 </wgt>
<wgt id='1872'> +1.5400307e-12 </wgt>
<wgt id='1873'> +1.5060645e-12 </wgt>
<wgt id='1874'> +1.5635328e-12 </wgt>
<wgt id='1875'> +1.4490267e-12 </wgt>
<wgt id='1876'> +1.4923448e-12 </wgt>
<wgt id='1877'> +1.4517342e-12 </wgt>
<wgt id='1878'> +1.4471975e-12 </wgt>
<wgt id='1879'> +1.7432174e-12 </wgt>
<wgt id='1880'> +1.4476010e-12 </wgt>
<wgt id='1881'> +1.5842058e-12 </wgt>
<wgt id='1882'> +1.4960095e-12 </wgt>
<wgt id='1883'> +1.5491669e-12 </wgt>
<wgt id='1884'> +1.5531841e-12 </wgt>
<wgt id='1885'> +1.5537791e-12 </wgt>
<wgt id='1886'> +1.5093783e-12 </wgt>
<wgt id='1887'> +1.5166989e-12 </wgt>
<wgt id='1888'> +1.4850205e-12 </wgt>
<wgt id='1889'> +1.5155940e-12 </wgt>
<wgt id='1890'> +1.6467574e-12 </wgt>
<wgt id='1891'> +1.4079043e-12 </wgt>
<wgt id='1892'> +1.5546039e-12 </wgt>
<wgt id='1893'> +1.4923223e-12 </wgt>
<wgt id='1894'> +1.4393359e-12 </wgt>
<wgt id='1895'> +1.4841767e-12 </wgt>
<wgt id='1896'> +1.4607732e-12 </wgt>
<wgt id='1897'> +1.5298178e-12 </wgt>
<wgt id='1898'> +1.4863297e-12 </wgt>
<wgt id='1899'> +1.4620204e-12 </wgt>
<wgt id='1900'> +1.5472370e-12 </wgt>
<wgt id='1901'> +1.4547697e-12 </wgt>
<wgt id='1902'> +1.5041066e-12 </wgt>
<wgt id='1903'> +1.5019922e-12 </wgt>
<wgt id='1904'> +1.4710093e-12 </wgt>
<wgt id='1905'> +1.4926604e-12 </wgt>
<wgt id='1906'> +1.5039914e-12 </wgt>
<wgt id='1907'> +1.5603740e-12 </wgt>
<wgt id='1908'> +1.4751459e-12 </wgt>
<wgt id='1909'> +1.5078781e-12 </wgt>
<wgt id='1910'> +1.4571603e-12 </wgt>
<wgt id='1911'> +1.4073994e-12 </wgt>
<wgt id='1912'> +1.4726002e-12 </wgt>
<wgt id='1913'> +1.4774637e-12 </wgt>
<wgt id='1914'> +1.5245692e-12 </wgt>
<wgt id='1915'> +1.4490995e-12 </wgt>
<wgt id='1916'> +1.3910961e-12 </wgt>
<wgt id='1917'> +1.5099350e-12 </wgt>
<wgt id='1918'> +1.5283664e-12 </wgt>
<wgt id='1919'> +1.3959201e-12 </wgt>
</rwgt>
</event>
<event>
 9      1 +1.5538000e-12 7.39325000e+01 7.81860800e-03 1.22270500e-01
       -4 -1    0    0    0  501 -0.0000000000e+00 +0.0000000000e+00 +2.4218699694e+01 2.4260292968e+01 0.0000000000e+00 0.0000e+00 -1.0000e+00
       21 -1    0    0  501  502 +0.0000000000e+00 -0.0000000000e+00 -5.6354283944e+01 5.6354283944e+01 1.4200000000e+00 0.0000e+00 -1.0000e+00
     1023  2    1    2    0    0 -3.0655761906e+01 +1.1349022574e+01 -1.8236145024e+00 3.6011797162e+01 1.4998263685e+01 0.0000e+00 0.0000e+00
  1000023  2    3    3    0    0 -1.8989240617e+01 +8.6347728956e+00 -5.9726431153e+00 2.2385010721e+01 5.5014249960e+00 0.0000e+00 0.0000e+00
       -4  1    1    2    0  502 +3.0655761906e+01 -1.1349022574e+01 -3.0311969747e+01 4.4602779750e+01 1.4200000000e+00 0.0000e+00 -1.0000e+00
  1000022  1    4    4    0    0 -1.8109925388e+01 +8.0546331004e+00 -5.2835946848e+00 2.1113097469e+01 5.0000000000e+00 0.0000e+00 -1.0000e+00
      -11  1    4    4    0    0 -7.1830225023e-01 +4.0335455670e-01 -4.7470723084e-01 9.5078927067e-01 5.1100000000e-04 0.0000e+00 1.0000e+00
       11  1    4    4    0    0 -1.6101297912e-01 +1.7678523851e-01 -2.1434119969e-01 3.2112398073e-01 5.1100000000e-04 0.0000e+00 -1.0000e+00
  1000022  1    3    3    0    0 -1.1666521289e+01 +2.7142496784e+00 +4.1490286129e+00 1.3626786442e+01 5.0000000000e+00 0.0000e+00 1.0000e+00
<mgrwt>
<rscale>  1 0.73932498E+02</rscale>
<asrwt>0</asrwt>
<pdfrwt beam="1">  1       21 0.86698909E-02 0.73932498E+02</pdfrwt>
<pdfrwt beam="2">  1       -4 0.37305290E-02 0.73932498E+02</pdfrwt>
<totfact> 0.19610141E+06</totfact>
</mgrwt>
<rwgt>
<wgt id='1001'> +1.5538000e-12 </wgt>
<wgt id='1002'> +1.5454341e-12 </wgt>
<wgt id='1003'> +1.5456463e-12 </wgt>
<wgt id='1004'> +1.4579423e-12 </wgt>
<wgt id='1005'> +1.5538000e-12 </wgt>
<wgt id='1006'> +1.3882696e-12 </wgt>
<wgt id='1007'> +1.3781261e-12 </wgt>
<wgt id='1008'> +1.3783808e-12 </wgt>
<wgt id='1009'> +1.2796333e-12 </wgt>
<wgt id='1010'> +1.3882696e-12 </wgt>
<wgt id='1011'> +1.7659864e-12 </wgt>
<wgt id='1012'> +1.7608900e-12 </wgt>
<wgt id='1013'> +1.7610226e-12 </wgt>
<wgt id='1014'> +1.6967951e-12 </wgt>
<wgt id='1015'> +1.7659864e-12 </wgt>
<wgt id='1016'> +1.7816274e-12 </wgt>
<wgt id='1017'> +1.7812774e-12 </wgt>
<wgt id='1018'> +1.7812934e-12 </wgt>
<wgt id='1019'> +1.7610226e-12 </wgt>
<wgt id='1020'> +1.7816274e-12 </wgt>
<wgt id='1021'> +1.5918260e-12 </wgt>
<wgt id='1022'> +1.5884371e-12 </wgt>
<wgt id='1023'> +1.5885268e-12 </wgt>
<wgt id='1024'> +1.5456463e-12 </wgt>
<wgt id='1025'> +1.5918260e-12 </wgt>
<wgt id='1026'> +2.0249259e-12 </wgt>
<wgt id='1027'> +2.0296133e-12 </wgt>
<wgt id='1028'> +2.0295056e-12 </wgt>
<wgt id='1029'> +2.0495285e-12 </wgt>
<wgt id='1030'> +2.0249259e-12 </wgt>
<wgt id='1031'> +1.2963475e-12 </wgt>
<wgt id='1032'> +1.2792047e-12 </wgt>
<wgt id='1033'> +1.2796333e-12 </wgt>
<wgt id='1034'> +1.1202147e-12 </wgt>
<wgt id='1035'> +1.2963475e-12 </wgt>
<wgt id='1036'> +1.1582442e-12 </wgt>
<wgt id='1037'> +1.1407186e-12 </wgt>
<wgt id='1038'> +1.1411550e-12 </wgt>
<wgt id='1039'> +9.8321044e-13 </wgt>
<wgt id='1040'> +1.1582442e-12 </wgt>
<wgt id='1041'> +1.4733763e-12 </wgt>
<wgt id='1042'> +1.4575444e-12 </wgt>
<wgt id='1043'> +1.4579423e-12 </wgt>
<wgt id='1044'> +1.3037380e-12 </wgt>
<wgt id='1045'> +1.4733763e-12 </wgt>
<wgt id='1046'> +1.5538000e-12 </wgt>
<wgt id='1047'> +1.4905027e-12 </wgt>
<wgt id='1048'> +1.5635895e-12 </wgt>
<wgt id='1049'> +1.5673499e-12 </wgt>
<wgt id='1050'> +1.5522618e-12 </wgt>
<wgt id='1051'> +1.5781061e-12 </wgt>
<wgt id='1052'> +1.4972574e-12 </wgt>
<wgt id='1053'> +1.5635108e-12 </wgt>
<wgt id='1054'> +1.5808427e-12 </wgt>
<wgt id='1055'> +1.5993627e-12 </wgt>
<wgt id='1056'> +1.5899714e-12 </wgt>
<wgt id='1057'> +1.5554219e-12 </wgt>
<wgt id='1058'> +1.5196606e-12 </wgt>
<wgt id='1059'> +1.5570895e-12 </wgt>
<wgt id='1060'> +1.5189162e-12 </wgt>
<wgt id='1061'> +1.5927015e-12 </wgt>
<wgt id='1062'> +1.5747153e-12 </wgt>
<wgt id='1063'> +1.6064772e-12 </wgt>
<wgt id='1064'> +1.5449009e-12 </wgt>
<wgt id='1065'> +1.5575063e-12 </wgt>
<wgt id='1066'> +1.6136119e-12 </wgt>
<wgt id='1067'> +1.5629249e-12 </wgt>
<wgt id='1068'> +1.5626967e-12 </wgt>
<wgt id='1069'> +1.5558148e-12 </wgt>
<wgt id='1070'> +1.5495992e-12 </wgt>
<wgt id='1071'> +1.5555085e-12 </wgt>
<wgt id='1072'> +1.5926718e-12 </wgt>
<wgt id='1073'> +1.5616725e-12 </wgt>
<wgt id='1074'> +1.5169406e-12 </wgt>
<wgt id='1075'> +1.5633532e-12 </wgt>
<wgt id='1076'> +1.5623918e-12 </wgt>
<wgt id='1077'> +1.5374871e-12 </wgt>
<wgt id='1078'> +1.5451197e-12 </wgt>
<wgt id='1079'> +1.5175666e-12 </wgt>
<wgt id='1080'> +1.5188005e-12 </wgt>
<wgt id='1081'> +1.5885170e-12 </wgt>
<wgt id='1082'> +1.5464479e-12 </wgt>
<wgt id='1083'> +1.5947006e-12 </wgt>
<wgt id='1084'> +1.5794628e-12 </wgt>
<wgt id='1085'> +1.5149250e-12 </wgt>
<wgt id='1086'> +1.5316268e-12 </wgt>
<wgt id='1087'> +1.5571566e-12 </wgt>
<wgt id='1088'> +1.4703660e-12 </wgt>
<wgt id='1089'> +1.5247749e-12 </wgt>
<wgt id='1090'> +1.4938480e-12 </wgt>
<wgt id='1091'> +1.5419470e-12 </wgt>
<wgt id='1092'> +1.5452362e-12 </wgt>
<wgt id='1093'> +1.4797155e-12 </wgt>
<wgt id='1094'> +1.5423980e-12 </wgt>
<wgt id='1095'> +1.5413377e-12 </wgt>
<wgt id='1096'> +1.5760808e-12 </wgt>
<wgt id='1097'> +1.5200996e-12 </wgt>
<wgt id='1098'> +1.5922574e-12 </wgt>
<wgt id='1099'> +1.5465439e-12 </wgt>
<wgt id='1100'> +1.5087541e-12 </wgt>
<wgt id='1101'> +1.5326321e-12 </wgt>
<wgt id='1102'> +1.5403669e-12 </wgt>
<wgt id='1103'> +1.5407326e-12 </wgt>
<wgt id='1104'> +1.5711771e-12 </wgt>
<wgt id='1105'> +1.6149908e-12 </wgt>
<wgt id='1106'> +1.5687086e-12 </wgt>
<wgt id='1107'> +1.5362653e-12 </wgt>
<wgt id='1108'> +1.5628259e-12 </wgt>
<wgt id='1109'> +1.5675573e-12 </wgt>
<wgt id='1110'> +1.5454599e-12 </wgt>
<wgt id='1111'> +1.5525005e-12 </wgt>
<wgt id='1112'> +1.4922464e-12 </wgt>
<wgt id='1113'> +1.4740681e-12 </wgt>
<wgt id='1114'> +1.6003247e-12 </wgt>
<wgt id='1115'> +1.5352284e-12 </wgt>
<wgt id='1116'> +1.5406243e-12 </wgt>
<wgt id='1117'> +1.6141726e-12 </wgt>
<wgt id='1118'> +1.5768157e-12 </wgt>
<wgt id='1119'> +1.6152956e-12 </wgt>
<wgt id='1120'> +1.6199256e-12 </wgt>
<wgt id='1121'> +1.5509499e-12 </wgt>
<wgt id='1122'> +1.5272943e-12 </wgt>
<wgt id='1123'> +1.5936831e-12 </wgt>
<wgt id='1124'> +1.5396951e-12 </wgt>
<wgt id='1125'> +1.5739928e-12 </wgt>
<wgt id='1126'> +1.4997593e-12 </wgt>
<wgt id='1127'> +1.5150451e-12 </wgt>
<wgt id='1128'> +1.5747153e-12 </wgt>
<wgt id='1129'> +1.5140498e-12 </wgt>
<wgt id='1130'> +1.5842180e-12 </wgt>
<wgt id='1131'> +1.5737332e-12 </wgt>
<wgt id='1132'> +1.4623383e-12 </wgt>
<wgt id='1133'> +1.5405080e-12 </wgt>
<wgt id='1134'> +1.5389667e-12 </wgt>
<wgt id='1135'> +1.6532984e-12 </wgt>
<wgt id='1136'> +1.5217923e-12 </wgt>
<wgt id='1137'> +1.5301973e-12 </wgt>
<wgt id='1138'> +1.5953328e-12 </wgt>
<wgt id='1139'> +1.5883729e-12 </wgt>
<wgt id='1140'> +1.5658984e-12 </wgt>
<wgt id='1141'> +1.5481996e-12 </wgt>
<wgt id='1142'> +1.5321660e-12 </wgt>
<wgt id='1143'> +1.5127638e-12 </wgt>
<wgt id='1144'> +1.6012334e-12 </wgt>
<wgt id='1145'> +1.6005268e-12 </wgt>
<wgt id='1146'> +1.6314588e-12 </wgt>
<wgt id='1147'> +1.2785637e-12 </wgt>
<wgt id='1148'> +1.3125262e-12 </wgt>
<wgt id='1149'> +1.2744667e-12 </wgt>
<wgt id='1150'> +1.2940291e-12 </wgt>
<wgt id='1151'> +1.0293880e-12 </wgt>
<wgt id='1152'> +1.4342563e-12 </wgt>
<wgt id='1153'> +1.4281534e-12 </wgt>
<wgt id='1154'> +1.4378099e-12 </wgt>
<wgt id='1155'> +1.4349314e-12 </wgt>
<wgt id='1156'> +1.4339358e-12 </wgt>
<wgt id='1157'> +1.4312707e-12 </wgt>
<wgt id='1158'> +1.4382826e-12 </wgt>
<wgt id='1159'> +1.4317512e-12 </wgt>
<wgt id='1160'> +1.4358805e-12 </wgt>
<wgt id='1161'> +1.4269462e-12 </wgt>
<wgt id='1162'> +1.4392785e-12 </wgt>
<wgt id='1163'> +1.4380710e-12 </wgt>
<wgt id='1164'> +1.4304728e-12 </wgt>
<wgt id='1165'> +1.4211287e-12 </wgt>
<wgt id='1166'> +1.4469722e-12 </wgt>
<wgt id='1167'> +1.4459085e-12 </wgt>
<wgt id='1168'> +1.4179461e-12 </wgt>
<wgt id='1169'> +1.4387434e-12 </wgt>
<wgt id='1170'> +1.4308613e-12 </wgt>
<wgt id='1171'> +1.4316443e-12 </wgt>
<wgt id='1172'> +1.4375026e-12 </wgt>
<wgt id='1173'> +1.4245000e-12 </wgt>
<wgt id='1174'> +1.4436519e-12 </wgt>
<wgt id='1175'> +1.4357367e-12 </wgt>
<wgt id='1176'> +1.4320708e-12 </wgt>
<wgt id='1177'> +1.4347461e-12 </wgt>
<wgt id='1178'> +1.4331110e-12 </wgt>
<wgt id='1179'> +1.4458900e-12 </wgt>
<wgt id='1180'> +1.4171658e-12 </wgt>
<wgt id='1181'> +1.4290207e-12 </wgt>
<wgt id='1182'> +1.4391493e-12 </wgt>
<wgt id='1183'> +1.4335417e-12 </wgt>
<wgt id='1184'> +1.4343786e-12 </wgt>
<wgt id='1185'> +1.4342741e-12 </wgt>
<wgt id='1186'> +1.4342376e-12 </wgt>
<wgt id='1187'> +1.4335892e-12 </wgt>
<wgt id='1188'> +1.4344711e-12 </wgt>
<wgt id='1189'> +1.4296836e-12 </wgt>
<wgt id='1190'> +1.4237050e-12 </wgt>
<wgt id='1191'> +1.4240032e-12 </wgt>
<wgt id='1192'> +1.4378476e-12 </wgt>
<wgt id='1193'> +1.3210538e-12 </wgt>
<wgt id='1194'> +1.3216710e-12 </wgt>
<wgt id='1195'> +1.3205267e-12 </wgt>
<wgt id='1196'> +1.3236484e-12 </wgt>
<wgt id='1197'> +1.3182244e-12 </wgt>
<wgt id='1198'> +1.3235791e-12 </wgt>
<wgt id='1199'> +1.3173487e-12 </wgt>
<wgt id='1200'> +1.3226972e-12 </wgt>
<wgt id='1201'> +1.3199966e-12 </wgt>
<wgt id='1202'> +1.3176290e-12 </wgt>
<wgt id='1203'> +1.3259705e-12 </wgt>
<wgt id='1204'> +1.3010365e-12 </wgt>
<wgt id='1205'> +1.3334784e-12 </wgt>
<wgt id='1206'> +1.3270181e-12 </wgt>
<wgt id='1207'> +1.3129622e-12 </wgt>
<wgt id='1208'> +1.3129168e-12 </wgt>
<wgt id='1209'> +1.3240437e-12 </wgt>
<wgt id='1210'> +1.3269464e-12 </wgt>
<wgt id='1211'> +1.3062789e-12 </wgt>
<wgt id='1212'> +1.3183573e-12 </wgt>
<wgt id='1213'> +1.3236003e-12 </wgt>
<wgt id='1214'> +1.3093000e-12 </wgt>
<wgt id='1215'> +1.3398358e-12 </wgt>
<wgt id='1216'> +1.3304578e-12 </wgt>
<wgt id='1217'> +1.3148883e-12 </wgt>
<wgt id='1218'> +1.3286370e-12 </wgt>
<wgt id='1219'> +1.3172330e-12 </wgt>
<wgt id='1220'> +1.3251790e-12 </wgt>
<wgt id='1221'> +1.3203371e-12 </wgt>
<wgt id='1222'> +1.3178191e-12 </wgt>
<wgt id='1223'> +1.3288367e-12 </wgt>
<wgt id='1224'> +1.3226094e-12 </wgt>
<wgt id='1225'> +1.3204655e-12 </wgt>
<wgt id='1226'> +1.3221580e-12 </wgt>
<wgt id='1227'> +1.3204745e-12 </wgt>
<wgt id='1228'> +1.3156408e-12 </wgt>
<wgt id='1229'> +1.3237294e-12 </wgt>
<wgt id='1230'> +1.3167012e-12 </wgt>
<wgt id='1231'> +1.3105867e-12 </wgt>
<wgt id='1232'> +1.3168958e-12 </wgt>
<wgt id='1233'> +1.3222350e-12 </wgt>
<wgt id='1234'> +1.3210538e-12 </wgt>
<wgt id='1235'> +1.3097494e-12 </wgt>
<wgt id='1236'> +1.3139249e-12 </wgt>
<wgt id='1237'> +1.3177200e-12 </wgt>
<wgt id='1238'> +1.3243281e-12 </wgt>
<wgt id='1239'> +1.3270331e-12 </wgt>
<wgt id='1240'> +1.3295832e-12 </wgt>
<wgt id='1241'> +1.2487310e-12 </wgt>
<wgt id='1242'> +1.2447433e-12 </wgt>
<wgt id='1243'> +1.2527041e-12 </wgt>
<wgt id='1244'> +1.2422091e-12 </wgt>
<wgt id='1245'> +1.2535628e-12 </wgt>
<wgt id='1246'> +1.2503494e-12 </wgt>
<wgt id='1247'> +1.2473793e-12 </wgt>
<wgt id='1248'> +1.2486245e-12 </wgt>
<wgt id='1249'> +1.2488578e-12 </wgt>
<wgt id='1250'> +1.2449980e-12 </wgt>
<wgt id='1251'> +1.2513725e-12 </wgt>
<wgt id='1252'> +1.2454137e-12 </wgt>
<wgt id='1253'> +1.2513252e-12 </wgt>
<wgt id='1254'> +1.2291308e-12 </wgt>
<wgt id='1255'> +1.2605769e-12 </wgt>
<wgt id='1256'> +1.2541176e-12 </wgt>
<wgt id='1257'> +1.2352332e-12 </wgt>
<wgt id='1258'> +1.2648579e-12 </wgt>
<wgt id='1259'> +1.2329630e-12 </wgt>
<wgt id='1260'> +1.2536605e-12 </wgt>
<wgt id='1261'> +1.2431044e-12 </wgt>
<wgt id='1262'> +1.2523464e-12 </wgt>
<wgt id='1263'> +1.2470633e-12 </wgt>
<wgt id='1264'> +1.2589128e-12 </wgt>
<wgt id='1265'> +1.2437986e-12 </wgt>
<wgt id='1266'> +1.2445269e-12 </wgt>
<wgt id='1267'> +1.2537393e-12 </wgt>
<wgt id='1268'> +1.2488706e-12 </wgt>
<wgt id='1269'> +1.2526079e-12 </wgt>
<wgt id='1270'> +1.2398490e-12 </wgt>
<wgt id='1271'> +1.2413143e-12 </wgt>
<wgt id='1272'> +1.2496098e-12 </wgt>
<wgt id='1273'> +1.2477255e-12 </wgt>
<wgt id='1274'> +1.2491950e-12 </wgt>
<wgt id='1275'> +1.2466852e-12 </wgt>
<wgt id='1276'> +1.2506697e-12 </wgt>
<wgt id='1277'> +1.2459818e-12 </wgt>
<wgt id='1278'> +1.2470361e-12 </wgt>
<wgt id='1279'> +1.2437326e-12 </wgt>
<wgt id='1280'> +1.2500340e-12 </wgt>
<wgt id='1281'> +1.2418994e-12 </wgt>
<wgt id='1282'> +1.2487310e-12 </wgt>
<wgt id='1283'> +1.2376733e-12 </wgt>
<wgt id='1284'> +1.2418531e-12 </wgt>
<wgt id='1285'> +1.2456771e-12 </wgt>
<wgt id='1286'> +1.2519241e-12 </wgt>
<wgt id='1287'> +1.2545015e-12 </wgt>
<wgt id='1288'> +1.2567565e-12 </wgt>
<wgt id='1289'> +1.3760729e-12 </wgt>
<wgt id='1290'> +1.3771269e-12 </wgt>
<wgt id='1291'> +1.3749462e-12 </wgt>
<wgt id='1292'> +1.3767582e-12 </wgt>
<wgt id='1293'> +1.3755725e-12 </wgt>
<wgt id='1294'> +1.3781258e-12 </wgt>
<wgt id='1295'> +1.3740836e-12 </wgt>
<wgt id='1296'> +1.3700900e-12 </wgt>
<wgt id='1297'> +1.3834748e-12 </wgt>
<wgt id='1298'> +1.3833322e-12 </wgt>
<wgt id='1299'> +1.3670541e-12 </wgt>
<wgt id='1300'> +1.3800458e-12 </wgt>
<wgt id='1301'> +1.3681066e-12 </wgt>
<wgt id='1302'> +1.3748958e-12 </wgt>
<wgt id='1303'> +1.3777129e-12 </wgt>
<wgt id='1304'> +1.3710204e-12 </wgt>
<wgt id='1305'> +1.3795503e-12 </wgt>
<wgt id='1306'> +1.3668692e-12 </wgt>
<wgt id='1307'> +1.3864860e-12 </wgt>
<wgt id='1308'> +1.3762188e-12 </wgt>
<wgt id='1309'> +1.3759559e-12 </wgt>
<wgt id='1310'> +1.3725462e-12 </wgt>
<wgt id='1311'> +1.3799364e-12 </wgt>
<wgt id='1312'> +1.3684776e-12 </wgt>
<wgt id='1313'> +1.3839251e-12 </wgt>
<wgt id='1314'> +1.3908506e-12 </wgt>
<wgt id='1315'> +1.3546231e-12 </wgt>
<wgt id='1316'> +1.3818067e-12 </wgt>
<wgt id='1317'> +1.3763198e-12 </wgt>
<wgt id='1318'> +1.3907258e-12 </wgt>
<wgt id='1319'> +1.3592273e-12 </wgt>
<wgt id='1320'> +1.3837429e-12 </wgt>
<wgt id='1321'> +1.3692549e-12 </wgt>
<wgt id='1322'> +1.3776977e-12 </wgt>
<wgt id='1323'> +1.3737985e-12 </wgt>
<wgt id='1324'> +1.3744556e-12 </wgt>
<wgt id='1325'> +1.3834232e-12 </wgt>
<wgt id='1326'> +1.3794805e-12 </wgt>
<wgt id='1327'> +1.3752493e-12 </wgt>
<wgt id='1328'> +1.3752689e-12 </wgt>
<wgt id='1329'> +1.3767451e-12 </wgt>
<wgt id='1330'> +1.3737619e-12 </wgt>
<wgt id='1331'> +1.3792304e-12 </wgt>
<wgt id='1332'> +1.4010249e-12 </wgt>
<wgt id='1333'> +1.3650913e-12 </wgt>
<wgt id='1334'> +1.3741611e-12 </wgt>
<wgt id='1335'> +1.3813030e-12 </wgt>
<wgt id='1336'> +1.3678153e-12 </wgt>
<wgt id='1337'> +1.3764713e-12 </wgt>
<wgt id='1338'> +1.3735775e-12 </wgt>
<wgt id='1339'> +1.3770413e-12 </wgt>
<wgt id='1340'> +1.3489189e-12 </wgt>
<wgt id='1341'> +1.3500857e-12 </wgt>
<wgt id='1342'> +1.3476785e-12 </wgt>
<wgt id='1343'> +1.3496657e-12 </wgt>
<wgt id='1344'> +1.3484351e-12 </wgt>
<wgt id='1345'> +1.3509450e-12 </wgt>
<wgt id='1346'> +1.3470470e-12 </wgt>
<wgt id='1347'> +1.3428739e-12 </wgt>
<wgt id='1348'> +1.3556653e-12 </wgt>
<wgt id='1349'> +1.3556213e-12 </wgt>
<wgt id='1350'> +1.3423921e-12 </wgt>
<wgt id='1351'> +1.3528921e-12 </wgt>
<wgt id='1352'> +1.3402742e-12 </wgt>
<wgt id='1353'> +1.3469157e-12 </wgt>
<wgt id='1354'> +1.3525123e-12 </wgt>
<wgt id='1355'> +1.3437433e-12 </wgt>
<wgt id='1356'> +1.3518552e-12 </wgt>
<wgt id='1357'> +1.3391059e-12 </wgt>
<wgt id='1358'> +1.3605301e-12 </wgt>
<wgt id='1359'> +1.3512876e-12 </wgt>
<wgt id='1360'> +1.3469032e-12 </wgt>
<wgt id='1361'> +1.3452362e-12 </wgt>
<wgt id='1362'> +1.3539163e-12 </wgt>
<wgt id='1363'> +1.3372545e-12 </wgt>
<wgt id='1364'> +1.3571999e-12 </wgt>
<wgt id='1365'> +1.3303747e-12 </wgt>
<wgt id='1366'> +1.3634609e-12 </wgt>
<wgt id='1367'> +1.3539118e-12 </wgt>
<wgt id='1368'> +1.3491178e-12 </wgt>
<wgt id='1369'> +1.3611886e-12 </wgt>
<wgt id='1370'> +1.3346167e-12 </wgt>
<wgt id='1371'> +1.3551425e-12 </wgt>
<wgt id='1372'> +1.3412099e-12 </wgt>
<wgt id='1373'> +1.3504926e-12 </wgt>
<wgt id='1374'> +1.3470568e-12 </wgt>
<wgt id='1375'> +1.3472778e-12 </wgt>
<wgt id='1376'> +1.3566338e-12 </wgt>
<wgt id='1377'> +1.3520524e-12 </wgt>
<wgt id='1378'> +1.3487722e-12 </wgt>
<wgt id='1379'> +1.3479244e-12 </wgt>
<wgt id='1380'> +1.3499312e-12 </wgt>
<wgt id='1381'> +1.3478244e-12 </wgt>
<wgt id='1382'> +1.3505129e-12 </wgt>
<wgt id='1383'> +1.3724602e-12 </wgt>
<wgt id='1384'> +1.3385505e-12 </wgt>
<wgt id='1385'> +1.3473754e-12 </wgt>
<wgt id='1386'> +1.3529393e-12 </wgt>
<wgt id='1387'> +1.3388442e-12 </wgt>
<wgt id='1388'> +1.3495293e-12 </wgt>
<wgt id='1389'> +1.3441537e-12 </wgt>
<wgt id='1390'> +1.3504689e-12 </wgt>
<wgt id='1391'> +1.3178707e-12 </wgt>
<wgt id='1392'> +1.2801803e-12 </wgt>
<wgt id='1393'> +1.2930140e-12 </wgt>
<wgt id='1394'> +1.3055577e-12 </wgt>
<wgt id='1395'> +1.3294399e-12 </wgt>
<wgt id='1396'> +1.3175461e-12 </wgt>
<wgt id='1397'> +1.3569976e-12 </wgt>
<wgt id='1398'> +1.3479622e-12 </wgt>
<wgt id='1399'> +1.3398153e-12 </wgt>
<wgt id='1400'> +1.3321858e-12 </wgt>
<wgt id='1401'> +1.3246940e-12 </wgt>
<wgt id='1402'> +1.3109373e-12 </wgt>
<wgt id='1403'> +1.3049176e-12 </wgt>
<wgt id='1404'> +1.2992787e-12 </wgt>
<wgt id='1405'> +1.3175461e-12 </wgt>
<wgt id='1406'> +1.3095218e-12 </wgt>
<wgt id='1407'> +1.3136947e-12 </wgt>
<wgt id='1408'> +1.3211079e-12 </wgt>
<wgt id='1409'> +1.3240015e-12 </wgt>
<wgt id='1410'> +1.2416894e-12 </wgt>
<wgt id='1411'> +1.2420938e-12 </wgt>
<wgt id='1412'> +1.2411458e-12 </wgt>
<wgt id='1413'> +1.2457424e-12 </wgt>
<wgt id='1414'> +1.2376445e-12 </wgt>
<wgt id='1415'> +1.2441835e-12 </wgt>
<wgt id='1416'> +1.2406628e-12 </wgt>
<wgt id='1417'> +1.2348717e-12 </wgt>
<wgt id='1418'> +1.2484748e-12 </wgt>
<wgt id='1419'> +1.2449786e-12 </wgt>
<wgt id='1420'> +1.2385055e-12 </wgt>
<wgt id='1421'> +1.2239539e-12 </wgt>
<wgt id='1422'> +1.2493740e-12 </wgt>
<wgt id='1423'> +1.2416980e-12 </wgt>
<wgt id='1424'> +1.2416408e-12 </wgt>
<wgt id='1425'> +1.2363379e-12 </wgt>
<wgt id='1426'> +1.2474368e-12 </wgt>
<wgt id='1427'> +1.2332556e-12 </wgt>
<wgt id='1428'> +1.2461951e-12 </wgt>
<wgt id='1429'> +1.2389591e-12 </wgt>
<wgt id='1430'> +1.2454120e-12 </wgt>
<wgt id='1431'> +1.2425711e-12 </wgt>
<wgt id='1432'> +1.2409932e-12 </wgt>
<wgt id='1433'> +1.2546379e-12 </wgt>
<wgt id='1434'> +1.2285230e-12 </wgt>
<wgt id='1435'> +1.2476182e-12 </wgt>
<wgt id='1436'> +1.2273020e-12 </wgt>
<wgt id='1437'> +1.2490227e-12 </wgt>
<wgt id='1438'> +1.2393374e-12 </wgt>
<wgt id='1439'> +1.2335789e-12 </wgt>
<wgt id='1440'> +1.2620823e-12 </wgt>
<wgt id='1441'> +1.2432142e-12 </wgt>
<wgt id='1442'> +1.2389979e-12 </wgt>
<wgt id='1443'> +1.2391572e-12 </wgt>
<wgt id='1444'> +1.2477578e-12 </wgt>
<wgt id='1445'> +1.2481404e-12 </wgt>
<wgt id='1446'> +1.2398606e-12 </wgt>
<wgt id='1447'> +1.2424610e-12 </wgt>
<wgt id='1448'> +1.2424413e-12 </wgt>
<wgt id='1449'> +1.2411154e-12 </wgt>
<wgt id='1450'> +1.2419414e-12 </wgt>
<wgt id='1451'> +1.2395678e-12 </wgt>
<wgt id='1452'> +1.2426464e-12 </wgt>
<wgt id='1453'> +1.2428391e-12 </wgt>
<wgt id='1454'> +1.2349921e-12 </wgt>
<wgt id='1455'> +1.2353099e-12 </wgt>
<wgt id='1456'> +1.2413177e-12 </wgt>
<wgt id='1457'> +1.2406195e-12 </wgt>
<wgt id='1458'> +1.2417108e-12 </wgt>
<wgt id='1459'> +1.2453934e-12 </wgt>
<wgt id='1460'> +1.2358540e-12 </wgt>
<wgt id='1461'> +1.2416894e-12 </wgt>
<wgt id='1462'> +1.2357248e-12 </wgt>
<wgt id='1463'> +1.2485789e-12 </wgt>
<wgt id='1464'> +1.2431522e-12 </wgt>
<wgt id='1465'> +1.2800679e-12 </wgt>
<wgt id='1466'> +1.2712998e-12 </wgt>
<wgt id='1467'> +1.2634279e-12 </wgt>
<wgt id='1468'> +1.2571193e-12 </wgt>
<wgt id='1469'> +1.2494052e-12 </wgt>
<wgt id='1470'> +1.2380685e-12 </wgt>
<wgt id='1471'> +1.2315205e-12 </wgt>
<wgt id='1472'> +1.2260408e-12 </wgt>
<wgt id='1473'> +1.2431522e-12 </wgt>
<wgt id='1474'> +1.2355877e-12 </wgt>
<wgt id='1475'> +1.2397688e-12 </wgt>
<wgt id='1476'> +1.2463220e-12 </wgt>
<wgt id='1477'> +1.2489975e-12 </wgt>
<wgt id='1478'> +1.2921929e-12 </wgt>
<wgt id='1479'> +1.2915460e-12 </wgt>
<wgt id='1480'> +1.2876151e-12 </wgt>
<wgt id='1481'> +1.2768812e-12 </wgt>
<wgt id='1482'> +1.2958393e-12 </wgt>
<wgt id='1483'> +1.2858844e-12 </wgt>
<wgt id='1484'> +1.2924170e-12 </wgt>
<wgt id='1485'> +1.3027257e-12 </wgt>
<wgt id='1486'> +1.2922748e-12 </wgt>
<wgt id='1487'> +1.2920820e-12 </wgt>
<wgt id='1488'> +1.2875372e-12 </wgt>
<wgt id='1489'> +1.3233999e-12 </wgt>
<wgt id='1490'> +1.2936372e-12 </wgt>
<wgt id='1491'> +1.2944992e-12 </wgt>
<wgt id='1492'> +1.2905225e-12 </wgt>
<wgt id='1493'> +1.2779504e-12 </wgt>
<wgt id='1494'> +1.2947388e-12 </wgt>
<wgt id='1495'> +1.2994505e-12 </wgt>
<wgt id='1496'> +1.2918632e-12 </wgt>
<wgt id='1497'> +1.2960212e-12 </wgt>
<wgt id='1498'> +1.2908019e-12 </wgt>
<wgt id='1499'> +1.2956752e-12 </wgt>
<wgt id='1500'> +1.2917335e-12 </wgt>
<wgt id='1501'> +1.2913909e-12 </wgt>
<wgt id='1502'> +1.2925212e-12 </wgt>
<wgt id='1503'> +1.2926011e-12 </wgt>
<wgt id='1504'> +1.2937922e-12 </wgt>
<wgt id='1505'> +1.2925181e-12 </wgt>
<wgt id='1506'> +1.2936818e-12 </wgt>
<wgt id='1507'> +1.2911661e-12 </wgt>
<wgt id='1508'> +1.2988555e-12 </wgt>
<wgt id='1509'> +1.2588933e-12 </wgt>
<wgt id='1510'> +1.2562469e-12 </wgt>
<wgt id='1511'> +1.2639869e-12 </wgt>
<wgt id='1512'> +1.2642236e-12 </wgt>
<wgt id='1513'> +1.2593620e-12 </wgt>
<wgt id='1514'> +1.2563442e-12 </wgt>
<wgt id='1515'> +1.2571650e-12 </wgt>
<wgt id='1516'> +1.2572051e-12 </wgt>
<wgt id='1517'> +1.2627557e-12 </wgt>
<wgt id='1518'> +1.2576906e-12 </wgt>
<wgt id='1519'> +1.2558959e-12 </wgt>
<wgt id='1520'> +1.2713045e-12 </wgt>
<wgt id='1521'> +1.2677155e-12 </wgt>
<wgt id='1522'> +1.2743244e-12 </wgt>
<wgt id='1523'> +1.2626548e-12 </wgt>
<wgt id='1524'> +1.2604618e-12 </wgt>
<wgt id='1525'> +1.2542752e-12 </wgt>
<wgt id='1526'> +1.2614320e-12 </wgt>
<wgt id='1527'> +1.2638938e-12 </wgt>
<wgt id='1528'> +1.2562368e-12 </wgt>
<wgt id='1529'> +1.2600110e-12 </wgt>
<wgt id='1530'> +1.2529744e-12 </wgt>
<wgt id='1531'> +1.2580843e-12 </wgt>
<wgt id='1532'> +1.2591713e-12 </wgt>
<wgt id='1533'> +1.2568115e-12 </wgt>
<wgt id='1534'> +1.2547130e-12 </wgt>
<wgt id='1535'> +1.2662747e-12 </wgt>
<wgt id='1536'> +1.2620354e-12 </wgt>
<wgt id='1537'> +1.2580177e-12 </wgt>
<wgt id='1538'> +1.2597229e-12 </wgt>
<wgt id='1539'> +1.2567867e-12 </wgt>
<wgt id='1540'> +1.2572257e-12 </wgt>
<wgt id='1541'> +1.2580659e-12 </wgt>
<wgt id='1542'> +1.2570580e-12 </wgt>
<wgt id='1543'> +1.2604469e-12 </wgt>
<wgt id='1544'> +1.2608821e-12 </wgt>
<wgt id='1545'> +1.2575427e-12 </wgt>
<wgt id='1546'> +1.2591881e-12 </wgt>
<wgt id='1547'> +1.2575557e-12 </wgt>
<wgt id='1548'> +1.2614873e-12 </wgt>
<wgt id='1549'> +1.2606691e-12 </wgt>
<wgt id='1550'> +1.2568786e-12 </wgt>
<wgt id='1551'> +1.2606192e-12 </wgt>
<wgt id='1552'> +1.2591744e-12 </wgt>
<wgt id='1553'> +1.2558209e-12 </wgt>
<wgt id='1554'> +1.2557143e-12 </wgt>
<wgt id='1555'> +1.2569195e-12 </wgt>
<wgt id='1556'> +1.2602845e-12 </wgt>
<wgt id='1557'> +1.2586303e-12 </wgt>
<wgt id='1558'> +1.2604493e-12 </wgt>
<wgt id='1559'> +1.2583701e-12 </wgt>
<wgt id='1560'> +1.2580366e-12 </wgt>
<wgt id='1561'> +1.2602161e-12 </wgt>
<wgt id='1562'> +1.2589761e-12 </wgt>
<wgt id='1563'> +1.2597318e-12 </wgt>
<wgt id='1564'> +1.2603534e-12 </wgt>
<wgt id='1565'> +1.2588584e-12 </wgt>
<wgt id='1566'> +1.2579832e-12 </wgt>
<wgt id='1567'> +1.2588039e-12 </wgt>
<wgt id='1568'> +1.2586739e-12 </wgt>
<wgt id='1569'> +1.2584478e-12 </wgt>
<wgt id='1570'> +1.2602050e-12 </wgt>
<wgt id='1571'> +1.2584124e-12 </wgt>
<wgt id='1572'> +1.2592967e-12 </wgt>
<wgt id='1573'> +1.2586695e-12 </wgt>
<wgt id='1574'> +1.2589542e-12 </wgt>
<wgt id='1575'> +1.2585117e-12 </wgt>
<wgt id='1576'> +1.2593752e-12 </wgt>
<wgt id='1577'> +1.2594837e-12 </wgt>
<wgt id='1578'> +1.2582675e-12 </wgt>
<wgt id='1579'> +1.2590238e-12 </wgt>
<wgt id='1580'> +1.2594142e-12 </wgt>
<wgt id='1581'> +1.2592682e-12 </wgt>
<wgt id='1582'> +1.2594388e-12 </wgt>
<wgt id='1583'> +1.2590621e-12 </wgt>
<wgt id='1584'> +1.2592245e-12 </wgt>
<wgt id='1585'> +1.2584951e-12 </wgt>
<wgt id='1586'> +1.2598972e-12 </wgt>
<wgt id='1587'> +1.2597540e-12 </wgt>
<wgt id='1588'> +1.2577601e-12 </wgt>
<wgt id='1589'> +1.2589408e-12 </wgt>
<wgt id='1590'> +1.2588732e-12 </wgt>
<wgt id='1591'> +1.2583537e-12 </wgt>
<wgt id='1592'> +1.2591500e-12 </wgt>
<wgt id='1593'> +1.2595031e-12 </wgt>
<wgt id='1594'> +1.2587555e-12 </wgt>
<wgt id='1595'> +1.2588380e-12 </wgt>
<wgt id='1596'> +1.2583358e-12 </wgt>
<wgt id='1597'> +1.2586944e-12 </wgt>
<wgt id='1598'> +1.2589704e-12 </wgt>
<wgt id='1599'> +1.2585168e-12 </wgt>
<wgt id='1600'> +1.2585603e-12 </wgt>
<wgt id='1601'> +1.2589869e-12 </wgt>
<wgt id='1602'> +1.2592099e-12 </wgt>
<wgt id='1603'> +1.2592325e-12 </wgt>
<wgt id='1604'> +1.2590599e-12 </wgt>
<wgt id='1605'> +1.2593551e-12 </wgt>
<wgt id='1606'> +1.2576514e-12 </wgt>
<wgt id='1607'> +1.2593522e-12 </wgt>
<wgt id='1608'> +1.2588687e-12 </wgt>
<wgt id='1609'> +1.2587012e-12 </wgt>
<wgt id='1610'> +1.2308767e-12 </wgt>
<wgt id='1611'> +1.2844588e-12 </wgt>
<wgt id='1612'> +1.4656727e-12 </wgt>
<wgt id='1613'> +1.5289521e-12 </wgt>
<wgt id='1614'> +1.4842465e-12 </wgt>
<wgt id='1615'> +1.4504451e-12 </wgt>
<wgt id='1616'> +1.4823289e-12 </wgt>
<wgt id='1617'> +1.3941002e-12 </wgt>
<wgt id='1618'> +1.3478672e-12 </wgt>
<wgt id='1619'> +1.4828199e-12 </wgt>
<wgt id='1620'> +1.4910337e-12 </wgt>
<wgt id='1621'> +1.4520017e-12 </wgt>
<wgt id='1622'> +1.4551684e-12 </wgt>
<wgt id='1623'> +1.4423509e-12 </wgt>
<wgt id='1624'> +1.4352746e-12 </wgt>
<wgt id='1625'> +1.4856981e-12 </wgt>
<wgt id='1626'> +1.4987114e-12 </wgt>
<wgt id='1627'> +1.4439499e-12 </wgt>
<wgt id='1628'> +1.4800502e-12 </wgt>
<wgt id='1629'> +1.5107189e-12 </wgt>
<wgt id='1630'> +1.4758804e-12 </wgt>
<wgt id='1631'> +1.4601048e-12 </wgt>
<wgt id='1632'> +1.5559045e-12 </wgt>
<wgt id='1633'> +1.4562070e-12 </wgt>
<wgt id='1634'> +1.4745348e-12 </wgt>
<wgt id='1635'> +1.4549633e-12 </wgt>
<wgt id='1636'> +1.4254816e-12 </wgt>
<wgt id='1637'> +1.4157777e-12 </wgt>
<wgt id='1638'> +1.4821014e-12 </wgt>
<wgt id='1639'> +1.5004575e-12 </wgt>
<wgt id='1640'> +1.5262177e-12 </wgt>
<wgt id='1641'> +1.4502372e-12 </wgt>
<wgt id='1642'> +1.4913322e-12 </wgt>
<wgt id='1643'> +1.5252132e-12 </wgt>
<wgt id='1644'> +1.4148762e-12 </wgt>
<wgt id='1645'> +1.4934668e-12 </wgt>
<wgt id='1646'> +1.5131496e-12 </wgt>
<wgt id='1647'> +1.5184110e-12 </wgt>
<wgt id='1648'> +1.4485339e-12 </wgt>
<wgt id='1649'> +1.3617485e-12 </wgt>
<wgt id='1650'> +1.4951215e-12 </wgt>
<wgt id='1651'> +1.4227072e-12 </wgt>
<wgt id='1652'> +1.5211916e-12 </wgt>
<wgt id='1653'> +1.4228966e-12 </wgt>
<wgt id='1654'> +1.4097662e-12 </wgt>
<wgt id='1655'> +1.4116741e-12 </wgt>
<wgt id='1656'> +1.4766350e-12 </wgt>
<wgt id='1657'> +1.4379657e-12 </wgt>
<wgt id='1658'> +1.4641748e-12 </wgt>
<wgt id='1659'> +1.4352746e-12 </wgt>
<wgt id='1660'> +1.4172006e-12 </wgt>
<wgt id='1661'> +1.4205450e-12 </wgt>
<wgt id='1662'> +1.4693400e-12 </wgt>
<wgt id='1663'> +1.4681452e-12 </wgt>
<wgt id='1664'> +1.5407813e-12 </wgt>
<wgt id='1665'> +1.4939797e-12 </wgt>
<wgt id='1666'> +1.4454005e-12 </wgt>
<wgt id='1667'> +1.4483384e-12 </wgt>
<wgt id='1668'> +1.4551923e-12 </wgt>
<wgt id='1669'> +1.4451863e-12 </wgt>
<wgt id='1670'> +1.4858199e-12 </wgt>
<wgt id='1671'> +1.5175917e-12 </wgt>
<wgt id='1672'> +1.4713768e-12 </wgt>
<wgt id='1673'> +1.4178646e-12 </wgt>
<wgt id='1674'> +1.4862771e-12 </wgt>
<wgt id='1675'> +1.5639411e-12 </wgt>
<wgt id='1676'> +1.4592270e-12 </wgt>
<wgt id='1677'> +1.4908547e-12 </wgt>
<wgt id='1678'> +1.4599294e-12 </wgt>
<wgt id='1679'> +1.4938857e-12 </wgt>
<wgt id='1680'> +1.4690259e-12 </wgt>
<wgt id='1681'> +1.5035298e-12 </wgt>
<wgt id='1682'> +1.4649863e-12 </wgt>
<wgt id='1683'> +1.4571733e-12 </wgt>
<wgt id='1684'> +1.4647799e-12 </wgt>
<wgt id='1685'> +1.4707282e-12 </wgt>
<wgt id='1686'> +1.4926269e-12 </wgt>
<wgt id='1687'> +1.5162824e-12 </wgt>
<wgt id='1688'> +1.4904556e-12 </wgt>
<wgt id='1689'> +1.4363885e-12 </wgt>
<wgt id='1690'> +1.4634788e-12 </wgt>
<wgt id='1691'> +1.4926064e-12 </wgt>
<wgt id='1692'> +1.4867202e-12 </wgt>
<wgt id='1693'> +1.5034985e-12 </wgt>
<wgt id='1694'> +1.3818435e-12 </wgt>
<wgt id='1695'> +1.4660436e-12 </wgt>
<wgt id='1696'> +1.5207643e-12 </wgt>
<wgt id='1697'> +1.4193645e-12 </wgt>
<wgt id='1698'> +1.4506921e-12 </wgt>
<wgt id='1699'> +1.4336101e-12 </wgt>
<wgt id='1700'> +1.4613783e-12 </wgt>
<wgt id='1701'> +1.4594913e-12 </wgt>
<wgt id='1702'> +1.4150214e-12 </wgt>
<wgt id='1703'> +1.4875136e-12 </wgt>
<wgt id='1704'> +1.4534655e-12 </wgt>
<wgt id='1705'> +1.5029677e-12 </wgt>
<wgt id='1706'> +1.4360563e-12 </wgt>
<wgt id='1707'> +1.4386593e-12 </wgt>
<wgt id='1708'> +1.4383679e-12 </wgt>
<wgt id='1709'> +1.4657879e-12 </wgt>
<wgt id='1710'> +1.4528299e-12 </wgt>
<wgt id='1711'> +1.4605161e-12 </wgt>
<wgt id='1712'> +1.4679442e-12 </wgt>
<wgt id='1713'> +1.2991323e-12 </wgt>
<wgt id='1714'> +1.2548769e-12 </wgt>
<wgt id='1715'> +1.3179796e-12 </wgt>
<wgt id='1716'> +1.2846399e-12 </wgt>
<wgt id='1717'> +1.2753404e-12 </wgt>
<wgt id='1718'> +1.2730748e-12 </wgt>
<wgt id='1719'> +1.2967058e-12 </wgt>
<wgt id='1720'> +1.3288226e-12 </wgt>
<wgt id='1721'> +1.2857255e-12 </wgt>
<wgt id='1722'> +1.2845837e-12 </wgt>
<wgt id='1723'> +1.2650620e-12 </wgt>
<wgt id='1724'> +1.3129610e-12 </wgt>
<wgt id='1725'> +1.3221424e-12 </wgt>
<wgt id='1726'> +1.3224012e-12 </wgt>
<wgt id='1727'> +1.2576656e-12 </wgt>
<wgt id='1728'> +1.3040392e-12 </wgt>
<wgt id='1729'> +1.3220399e-12 </wgt>
<wgt id='1730'> +1.2667612e-12 </wgt>
<wgt id='1731'> +1.2713030e-12 </wgt>
<wgt id='1732'> +1.3033433e-12 </wgt>
<wgt id='1733'> +1.3046900e-12 </wgt>
<wgt id='1734'> +1.3053644e-12 </wgt>
<wgt id='1735'> +1.3036010e-12 </wgt>
<wgt id='1736'> +1.4126252e-12 </wgt>
<wgt id='1737'> +1.2874372e-12 </wgt>
<wgt id='1738'> +1.3238535e-12 </wgt>
<wgt id='1739'> +1.2579170e-12 </wgt>
<wgt id='1740'> +1.2676265e-12 </wgt>
<wgt id='1741'> +1.2864491e-12 </wgt>
<wgt id='1742'> +1.2800611e-12 </wgt>
<wgt id='1743'> +1.3259627e-12 </wgt>
<wgt id='1744'> +1.2997121e-12 </wgt>
<wgt id='1745'> +1.2487937e-12 </wgt>
<wgt id='1746'> +1.3362130e-12 </wgt>
<wgt id='1747'> +1.3154454e-12 </wgt>
<wgt id='1748'> +1.3110310e-12 </wgt>
<wgt id='1749'> +1.3282208e-12 </wgt>
<wgt id='1750'> +1.3150650e-12 </wgt>
<wgt id='1751'> +1.2859769e-12 </wgt>
<wgt id='1752'> +1.2509762e-12 </wgt>
<wgt id='1753'> +1.3269956e-12 </wgt>
<wgt id='1754'> +1.2776063e-12 </wgt>
<wgt id='1755'> +1.3291862e-12 </wgt>
<wgt id='1756'> +1.3232599e-12 </wgt>
<wgt id='1757'> +1.2913955e-12 </wgt>
<wgt id='1758'> +1.3314354e-12 </wgt>
<wgt id='1759'> +1.2988024e-12 </wgt>
<wgt id='1760'> +1.2673266e-12 </wgt>
<wgt id='1761'> +1.2609402e-12 </wgt>
<wgt id='1762'> +1.3131686e-12 </wgt>
<wgt id='1763'> +1.3064509e-12 </wgt>
<wgt id='1764'> +1.3011980e-12 </wgt>
<wgt id='1765'> +1.3037976e-12 </wgt>
<wgt id='1766'> +1.3262918e-12 </wgt>
<wgt id='1767'> +1.2961336e-12 </wgt>
<wgt id='1768'> +1.2937892e-12 </wgt>
<wgt id='1769'> +1.2573221e-12 </wgt>
<wgt id='1770'> +1.3465891e-12 </wgt>
<wgt id='1771'> +1.2934687e-12 </wgt>
<wgt id='1772'> +1.3209646e-12 </wgt>
<wgt id='1773'> +1.2876763e-12 </wgt>
<wgt id='1774'> +1.3060145e-12 </wgt>
<wgt id='1775'> +1.3040393e-12 </wgt>
<wgt id='1776'> +1.3164356e-12 </wgt>
<wgt id='1777'> +1.2861406e-12 </wgt>
<wgt id='1778'> +1.2723659e-12 </wgt>
<wgt id='1779'> +1.3161543e-12 </wgt>
<wgt id='1780'> +1.3515028e-12 </wgt>
<wgt id='1781'> +1.2696217e-12 </wgt>
<wgt id='1782'> +1.2598540e-12 </wgt>
<wgt id='1783'> +1.3094789e-12 </wgt>
<wgt id='1784'> +1.3328411e-12 </wgt>
<wgt id='1785'> +1.2779127e-12 </wgt>
<wgt id='1786'> +1.2479769e-12 </wgt>
<wgt id='1787'> +1.3120738e-12 </wgt>
<wgt id='1788'> +1.2796337e-12 </wgt>
<wgt id='1789'> +1.2752855e-12 </wgt>
<wgt id='1790'> +1.3256656e-12 </wgt>
<wgt id='1791'> +1.3545516e-12 </wgt>
<wgt id='1792'> +1.2844722e-12 </wgt>
<wgt id='1793'> +1.3186026e-12 </wgt>
<wgt id='1794'> +1.2974775e-12 </wgt>
<wgt id='1795'> +1.2879432e-12 </wgt>
<wgt id='1796'> +1.2841150e-12 </wgt>
<wgt id='1797'> +1.3004924e-12 </wgt>
<wgt id='1798'> +1.2592324e-12 </wgt>
<wgt id='1799'> +1.2985347e-12 </wgt>
<wgt id='1800'> +1.2917157e-12 </wgt>
<wgt id='1801'> +1.2931108e-12 </wgt>
<wgt id='1802'> +1.3100606e-12 </wgt>
<wgt id='1803'> +1.3034738e-12 </wgt>
<wgt id='1804'> +1.2424771e-12 </wgt>
<wgt id='1805'> +1.3318345e-12 </wgt>
<wgt id='1806'> +1.2774113e-12 </wgt>
<wgt id='1807'> +1.3409158e-12 </wgt>
<wgt id='1808'> +1.2892601e-12 </wgt>
<wgt id='1809'> +1.2964734e-12 </wgt>
<wgt id='1810'> +1.2990612e-12 </wgt>
<wgt id='1811'> +1.3494983e-12 </wgt>
<wgt id='1812'> +1.3237732e-12 </wgt>
<wgt id='1813'> +1.2994566e-12 </wgt>
<wgt id='1814'> +1.1640604e-12 </wgt>
<wgt id='1815'> +1.3265611e-12 </wgt>
<wgt id='1816'> +1.2991323e-12 </wgt>
<wgt id='1817'> +1.2548769e-12 </wgt>
<wgt id='1818'> +1.3179796e-12 </wgt>
<wgt id='1819'> +1.2846399e-12 </wgt>
<wgt id='1820'> +1.2753404e-12 </wgt>
<wgt id='1821'> +1.2730748e-12 </wgt>
<wgt id='1822'> +1.2967058e-12 </wgt>
<wgt id='1823'> +1.3288226e-12 </wgt>
<wgt id='1824'> +1.2857255e-12 </wgt>
<wgt id='1825'> +1.2845837e-12 </wgt>
<wgt id='1826'> +1.2650620e-12 </wgt>
<wgt id='1827'> +1.3129610e-12 </wgt>
<wgt id='1828'> +1.3221424e-12 </wgt>
<wgt id='1829'> +1.3224012e-12 </wgt>
<wgt id='1830'> +1.2576656e-12 </wgt>
<wgt id='1831'> +1.3040392e-12 </wgt>
<wgt id='1832'> +1.3220399e-12 </wgt>
<wgt id='1833'> +1.2667612e-12 </wgt>
<wgt id='1834'> +1.2713030e-12 </wgt>
<wgt id='1835'> +1.3033433e-12 </wgt>
<wgt id='1836'> +1.3046900e-12 </wgt>
<wgt id='1837'> +1.3053644e-12 </wgt>
<wgt id='1838'> +1.3036010e-12 </wgt>
<wgt id='1839'> +1.4126252e-12 </wgt>
<wgt id='1840'> +1.2874372e-12 </wgt>
<wgt id='1841'> +1.3238535e-12 </wgt>
<wgt id='1842'> +1.2579170e-12 </wgt>
<wgt id='1843'> +1.2676265e-12 </wgt>
<wgt id='1844'> +1.2864491e-12 </wgt>
<wgt id='1845'> +1.2800611e-12 </wgt>
<wgt id='1846'> +1.3259627e-12 </wgt>
<wgt id='1847'> +1.2997121e-12 </wgt>
<wgt id='1848'> +1.2487937e-12 </wgt>
<wgt id='1849'> +1.3362130e-12 </wgt>
<wgt id='1850'> +1.3154454e-12 </wgt>
<wgt id='1851'> +1.3110310e-12 </wgt>
<wgt id='1852'> +1.3282208e-12 </wgt>
<wgt id='1853'> +1.3150650e-12 </wgt>
<wgt id='1854'> +1.2859769e-12 </wgt>
<wgt id='1855'> +1.2509762e-12 </wgt>
<wgt id='1856'> +1.3269956e-12 </wgt>
<wgt id='1857'> +1.2776063e-12 </wgt>
<wgt id='1858'> +1.3291862e-12 </wgt>
<wgt id='1859'> +1.3232599e-12 </wgt>
<wgt id='1860'> +1.2913955e-12 </wgt>
<wgt id='1861'> +1.3314354e-12 </wgt>
<wgt id='1862'> +1.2988024e-12 </wgt>
<wgt id='1863'> +1.2673266e-12 </wgt>
<wgt id='1864'> +1.2609402e-12 </wgt>
<wgt id='1865'> +1.3131686e-12 </wgt>
<wgt id='1866'> +1.3064509e-12 </wgt>
<wgt id='1867'> +1.3011980e-12 </wgt>
<wgt id='1868'> +1.3037976e-12 </wgt>
<wgt id='1869'> +1.3262918e-12 </wgt>
<wgt id='1870'> +1.2961336e-12 </wgt>
<wgt id='1871'> +1.2937892e-12 </wgt>
<wgt id='1872'> +1.2573221e-12 </wgt>
<wgt id='1873'> +1.3465891e-12 </wgt>
<wgt id='1874'> +1.2934687e-12 </wgt>
<wgt id='1875'> +1.3209646e-12 </wgt>
<wgt id='1876'> +1.2876763e-12 </wgt>
<wgt id='1877'> +1.3060145e-12 </wgt>
<wgt id='1878'> +1.3040393e-12 </wgt>
<wgt id='1879'> +1.3164356e-12 </wgt>
<wgt id='1880'> +1.2861406e-12 </wgt>
<wgt id='1881'> +1.2723659e-12 </wgt>
<wgt id='1882'> +1.3161543e-12 </wgt>
<wgt id='1883'> +1.3515028e-12 </wgt>
<wgt id='1884'> +1.2696217e-12 </wgt>
<wgt id='1885'> +1.2598540e-12 </wgt>
<wgt id='1886'> +1.3094789e-12 </wgt>
<wgt id='1887'> +1.3328411e-12 </wgt>
<wgt id='1888'> +1.2779127e-12 </wgt>
<wgt id='1889'> +1.2479769e-12 </wgt>
<wgt id='1890'> +1.3120738e-12 </wgt>
<wgt id='1891'> +1.2796337e-12 </wgt>
<wgt id='1892'> +1.2752855e-12 </wgt>
<wgt id='1893'> +1.3256656e-12 </wgt>
<wgt id='1894'> +1.3545516e-12 </wgt>
<wgt id='1895'> +1.2844722e-12 </wgt>
<wgt id='1896'> +1.3186026e-12 </wgt>
<wgt id='1897'> +1.2974775e-12 </wgt>
<wgt id='1898'> +1.2879432e-12 </wgt>
<wgt id='1899'> +1.2841150e-12 </wgt>
<wgt id='1900'> +1.3004924e-12 </wgt>
<wgt id='1901'> +1.2592324e-12 </wgt>
<wgt id='1902'> +1.2985347e-12 </wgt>
<wgt id='1903'> +1.2917157e-12 </wgt>
<wgt id='1904'> +1.2931108e-12 </wgt>
<wgt id='1905'> +1.3100606e-12 </wgt>
<wgt id='1906'> +1.3034738e-12 </wgt>
<wgt id='1907'> +1.2424771e-12 </wgt>
<wgt id='1908'> +1.3318345e-12 </wgt>
<wgt id='1909'> +1.2774113e-12 </wgt>
<wgt id='1910'> +1.3409158e-12 </wgt>
<wgt id='1911'> +1.2892601e-12 </wgt>
<wgt id='1912'> +1.2964734e-12 </wgt>
<wgt id='1913'> +1.2990612e-12 </wgt>
<wgt id='1914'> +1.3494983e-12 </wgt>
<wgt id='1915'> +1.3237732e-12 </wgt>
<wgt id='1916'> +1.2994566e-12 </wgt>
<wgt id='1917'> +1.2806464e-12 </wgt>
<wgt id='1918'> +1.3058129e-12 </wgt>
<wgt id='1919'> +1.2776248e-12 </wgt>
</rwgt>
</event>
<event>
 9      1 +1.5538000e-12 2.91892300e+01 7.81860800e-03 1.45793600e-01
       -3 -1    0    0    0  501 -0.0000000000e+00 +0.0000000000e+00 +8.7447456536e+01 8.7447456536e+01 0.0000000000e+00 0.0000e+00 1.0000e+00
       21 -1    0    0  501  502 +0.0000000000e+00 -0.0000000000e+00 -1.4274351981e+01 1.4274351981e+01 0.0000000000e+00 0.0000e+00 1.0000e+00
     1023  2    1    2    0    0 -9.2064083905e-01 +2.5023447369e+01 +7.0785806076e+01 7.6567888508e+01 1.4999690364e+01 0.0000e+00 0.0000e+00
  1000023  2    3    3    0    0 -5.2278292740e+00 +1.6316990431e+01 +4.8919548045e+01 5.2124330974e+01 5.4999384532e+00 0.0000e+00 0.0000e+00
       -3  1    1    2    0  502 +9.2064083905e-01 -2.5023447369e+01 +2.3872984798e+00 2.5153920009e+01 0.0000000000e+00 0.0000e+00 1.0000e+00
  1000022  1    4    4    0    0 -4.6949843966e+00 +1.5344312818e+01 +4.6525939282e+01 4.9468715775e+01 5.0000000000e+00 0.0000e+00 1.0000e+00
      -11  1    4    4    0    0 -4.2237651645e-01 +7.9201159730e-01 +2.1665762535e+00 2.3451518534e+00 5.1100000000e-04 0.0000e+00 1.0000e+00
       11  1    4    4    0    0 -1.1046836092e-01 +1.8066601570e-01 +2.2703250925e-01 3.1046334626e-01 5.1100000000e-04 0.0000e+00 -1.0000e+00
  1000022  1    3    3    0    0 +4.3071884349e+00 +8.7064569373e+00 +2.1866258031e+01 2.4443557534e+01 5.0000000000e+00 0.0000e+00 1.0000e+00
<mgrwt>
<rscale>  1 0.29189231E+02</rscale>
<asrwt>0</asrwt>
<pdfrwt beam="1">  1       21 0.21960542E-02 0.29189231E+02</pdfrwt>
<pdfrwt beam="2">  1       -3 0.13453455E-01 0.29189231E+02</pdfrwt>
<totfact> 0.24399304E+06</totfact>
</mgrwt>
<rwgt>
<wgt id='1001'> +1.5538000e-12 </wgt>
<wgt id='1002'> +1.6177392e-12 </wgt>
<wgt id='1003'> +1.6202287e-12 </wgt>
<wgt id='1004'> +1.5416388e-12 </wgt>
<wgt id='1005'> +1.6378248e-12 </wgt>
<wgt id='1006'> +1.3585731e-12 </wgt>
<wgt id='1007'> +1.4350199e-12 </wgt>
<wgt id='1008'> +1.4382256e-12 </wgt>
<wgt id='1009'> +1.3448909e-12 </wgt>
<wgt id='1010'> +1.4620457e-12 </wgt>
<wgt id='1011'> +1.8178183e-12 </wgt>
<wgt id='1012'> +1.8561205e-12 </wgt>
<wgt id='1013'> +1.8572564e-12 </wgt>
<wgt id='1014'> +1.8092650e-12 </wgt>
<wgt id='1015'> +1.8636218e-12 </wgt>
<wgt id='1016'> +1.8597688e-12 </wgt>
<wgt id='1017'> +1.8638861e-12 </wgt>
<wgt id='1018'> +1.8635185e-12 </wgt>
<wgt id='1019'> +1.8572564e-12 </wgt>
<wgt id='1020'> +1.8585412e-12 </wgt>
<wgt id='1021'> +1.6260985e-12 </wgt>
<wgt id='1022'> +1.6533652e-12 </wgt>
<wgt id='1023'> +1.6541863e-12 </wgt>
<wgt id='1024'> +1.6202287e-12 </wgt>
<wgt id='1025'> +1.6590738e-12 </wgt>
<wgt id='1026'> +2.1757766e-12 </wgt>
<wgt id='1027'> +2.1385383e-12 </wgt>
<wgt id='1028'> +2.1361378e-12 </wgt>
<wgt id='1029'> +2.1796734e-12 </wgt>
<wgt id='1030'> +2.1147671e-12 </wgt>
<wgt id='1031'> +1.2123752e-12 </wgt>
<wgt id='1032'> +1.3393051e-12 </wgt>
<wgt id='1033'> +1.3448909e-12 </wgt>
<wgt id='1034'> +1.1905917e-12 </wgt>
<wgt id='1035'> +1.3878201e-12 </wgt>
<wgt id='1036'> +1.0600466e-12 </wgt>
<wgt id='1037'> +1.1880342e-12 </wgt>
<wgt id='1038'> +1.1938171e-12 </wgt>
<wgt id='1039'> +1.0386453e-12 </wgt>
<wgt id='1040'> +1.2388728e-12 </wgt>
<wgt id='1041'> +1.4183793e-12 </wgt>
<wgt id='1042'> +1.5366578e-12 </wgt>
<wgt id='1043'> +1.5416388e-12 </wgt>
<wgt id='1044'> +1.3972766e-12 </wgt>
<wgt id='1045'> +1.5791506e-12 </wgt>
<wgt id='1046'> +1.5538000e-12 </wgt>
<wgt id='1047'> +1.2875641e-12 </wgt>
<wgt id='1048'> +1.5928666e-12 </wgt>
<wgt id='1049'> +1.6685334e-12 </wgt>
<wgt id='1050'> +1.5697741e-12 </wgt>
<wgt id='1051'> +1.5523189e-12 </wgt>
<wgt id='1052'> +1.3077458e-12 </wgt>
<wgt id='1053'> +1.4464550e-12 </wgt>
<wgt id='1054'> +1.7519425e-12 </wgt>
<wgt id='1055'> +1.5936429e-12 </wgt>
<wgt id='1056'> +1.4890028e-12 </wgt>
<wgt id='1057'> +1.5681003e-12 </wgt>
<wgt id='1058'> +1.6676160e-12 </wgt>
<wgt id='1059'> +1.6154842e-12 </wgt>
<wgt id='1060'> +1.5941425e-12 </wgt>
<wgt id='1061'> +1.5233627e-12 </wgt>
<wgt id='1062'> +1.4695512e-12 </wgt>
<wgt id='1063'> +1.4276512e-12 </wgt>
<wgt id='1064'> +1.5830105e-12 </wgt>
<wgt id='1065'> +1.6023694e-12 </wgt>
<wgt id='1066'> +1.7235269e-12 </wgt>
<wgt id='1067'> +1.5658399e-12 </wgt>
<wgt id='1068'> +1.6123692e-12 </wgt>
<wgt id='1069'> +1.4655860e-12 </wgt>
<wgt id='1070'> +1.7569380e-12 </wgt>
<wgt id='1071'> +1.6656500e-12 </wgt>
<wgt id='1072'> +1.5069981e-12 </wgt>
<wgt id='1073'> +1.5225061e-12 </wgt>
<wgt id='1074'> +1.6295899e-12 </wgt>
<wgt id='1075'> +1.4557189e-12 </wgt>
<wgt id='1076'> +1.4563890e-12 </wgt>
<wgt id='1077'> +1.4550762e-12 </wgt>
<wgt id='1078'> +1.6026748e-12 </wgt>
<wgt id='1079'> +1.4956821e-12 </wgt>
<wgt id='1080'> +1.7930187e-12 </wgt>
<wgt id='1081'> +1.5162076e-12 </wgt>
<wgt id='1082'> +1.6465367e-12 </wgt>
<wgt id='1083'> +1.5669448e-12 </wgt>
<wgt id='1084'> +1.5418999e-12 </wgt>
<wgt id='1085'> +1.5649802e-12 </wgt>
<wgt id='1086'> +1.4914313e-12 </wgt>
<wgt id='1087'> +1.5318869e-12 </wgt>
<wgt id='1088'> +1.5125027e-12 </wgt>
<wgt id='1089'> +1.5287506e-12 </wgt>
<wgt id='1090'> +1.4110838e-12 </wgt>
<wgt id='1091'> +1.5682212e-12 </wgt>
<wgt id='1092'> +1.4963598e-12 </wgt>
<wgt id='1093'> +1.6075110e-12 </wgt>
<wgt id='1094'> +1.6944598e-12 </wgt>
<wgt id='1095'> +1.4803586e-12 </wgt>
<wgt id='1096'> +1.4716386e-12 </wgt>
<wgt id='1097'> +1.5918355e-12 </wgt>
<wgt id='1098'> +1.5284385e-12 </wgt>
<wgt id='1099'> +1.6326547e-12 </wgt>
<wgt id='1100'> +1.4635379e-12 </wgt>
<wgt id='1101'> +1.6002001e-12 </wgt>
<wgt id='1102'> +1.6103534e-12 </wgt>
<wgt id='1103'> +1.5982189e-12 </wgt>
<wgt id='1104'> +1.6466989e-12 </wgt>
<wgt id='1105'> +1.5144935e-12 </wgt>
<wgt id='1106'> +1.4605411e-12 </wgt>
<wgt id='1107'> +1.4353428e-12 </wgt>
<wgt id='1108'> +1.5545834e-12 </wgt>
<wgt id='1109'> +1.5595269e-12 </wgt>
<wgt id='1110'> +1.7184479e-12 </wgt>
<wgt id='1111'> +1.4462754e-12 </wgt>
<wgt id='1112'> +1.4949631e-12 </wgt>
<wgt id='1113'> +1.4078682e-12 </wgt>
<wgt id='1114'> +1.4507667e-12 </wgt>
<wgt id='1115'> +1.5563594e-12 </wgt>
<wgt id='1116'> +1.5870695e-12 </wgt>
<wgt id='1117'> +1.4951464e-12 </wgt>
<wgt id='1118'> +1.4208333e-12 </wgt>
<wgt id='1119'> +1.6541795e-12 </wgt>
<wgt id='1120'> +1.6600253e-12 </wgt>
<wgt id='1121'> +1.5887080e-12 </wgt>
<wgt id='1122'> +1.3893085e-12 </wgt>
<wgt id='1123'> +1.5387575e-12 </wgt>
<wgt id='1124'> +1.5324069e-12 </wgt>
<wgt id='1125'> +1.6329588e-12 </wgt>
<wgt id='1126'> +1.4995356e-12 </wgt>
<wgt id='1127'> +1.6297651e-12 </wgt>
<wgt id='1128'> +1.4695512e-12 </wgt>
<wgt id='1129'> +1.5561454e-12 </wgt>
<wgt id='1130'> +1.7044892e-12 </wgt>
<wgt id='1131'> +1.5769509e-12 </wgt>
<wgt id='1132'> +1.5593511e-12 </wgt>
<wgt id='1133'> +1.7274954e-12 </wgt>
<wgt id='1134'> +1.4338433e-12 </wgt>
<wgt id='1135'> +1.6754143e-12 </wgt>
<wgt id='1136'> +1.5781060e-12 </wgt>
<wgt id='1137'> +1.5891143e-12 </wgt>
<wgt id='1138'> +1.6388562e-12 </wgt>
<wgt id='1139'> +1.5975638e-12 </wgt>
<wgt id='1140'> +1.3972036e-12 </wgt>
<wgt id='1141'> +1.5873065e-12 </wgt>
<wgt id='1142'> +1.6069538e-12 </wgt>
<wgt id='1143'> +1.4375584e-12 </wgt>
<wgt id='1144'> +1.5411225e-12 </wgt>
<wgt id='1145'> +1.6190498e-12 </wgt>
<wgt id='1146'> +1.5455334e-12 </wgt>
<wgt id='1147'> +1.3116661e-12 </wgt>
<wgt id='1148'> +1.3425144e-12 </wgt>
<wgt id='1149'> +1.2023338e-12 </wgt>
<wgt id='1150'> +1.1880889e-12 </wgt>
<wgt id='1151'> +1.1061697e-12 </wgt>
<wgt id='1152'> +1.4409045e-12 </wgt>
<wgt id='1153'> +1.4362200e-12 </wgt>
<wgt id='1154'> +1.4436496e-12 </wgt>
<wgt id='1155'> +1.4426591e-12 </wgt>
<wgt id='1156'> +1.4400280e-12 </wgt>
<wgt id='1157'> +1.4315308e-12 </wgt>
<wgt id='1158'> +1.4534651e-12 </wgt>
<wgt id='1159'> +1.4269522e-12 </wgt>
<wgt id='1160'> +1.4499237e-12 </wgt>
<wgt id='1161'> +1.4258630e-12 </wgt>
<wgt id='1162'> +1.4512188e-12 </wgt>
<wgt id='1163'> +1.4239096e-12 </wgt>
<wgt id='1164'> +1.4577838e-12 </wgt>
<wgt id='1165'> +1.4265711e-12 </wgt>
<wgt id='1166'> +1.4548346e-12 </wgt>
<wgt id='1167'> +1.4630520e-12 </wgt>
<wgt id='1168'> +1.4122013e-12 </wgt>
<wgt id='1169'> +1.4449067e-12 </wgt>
<wgt id='1170'> +1.4379075e-12 </wgt>
<wgt id='1171'> +1.4325732e-12 </wgt>
<wgt id='1172'> +1.4512967e-12 </wgt>
<wgt id='1173'> +1.4271869e-12 </wgt>
<wgt id='1174'> +1.4541752e-12 </wgt>
<wgt id='1175'> +1.4345570e-12 </wgt>
<wgt id='1176'> +1.4451068e-12 </wgt>
<wgt id='1177'> +1.4423193e-12 </wgt>
<wgt id='1178'> +1.4368557e-12 </wgt>
<wgt id='1179'> +1.4504413e-12 </wgt>
<wgt id='1180'> +1.4250378e-12 </wgt>
<wgt id='1181'> +1.4392592e-12 </wgt>
<wgt id='1182'> +1.4424862e-12 </wgt>
<wgt id='1183'> +1.4406814e-12 </wgt>
<wgt id='1184'> +1.4409811e-12 </wgt>
<wgt id='1185'> +1.4812850e-12 </wgt>
<wgt id='1186'> +1.4177336e-12 </wgt>
<wgt id='1187'> +1.4216097e-12 </wgt>
<wgt id='1188'> +1.4450418e-12 </wgt>
<wgt id='1189'> +1.4311347e-12 </wgt>
<wgt id='1190'> +1.4339328e-12 </wgt>
<wgt id='1191'> +1.4396499e-12 </wgt>
<wgt id='1192'> +1.4378545e-12 </wgt>
<wgt id='1193'> +1.1818875e-12 </wgt>
<wgt id='1194'> +1.1808913e-12 </wgt>
<wgt id='1195'> +1.1826496e-12 </wgt>
<wgt id='1196'> +1.1769683e-12 </wgt>
<wgt id='1197'> +1.1874029e-12 </wgt>
<wgt id='1198'> +1.1919145e-12 </wgt>
<wgt id='1199'> +1.1670248e-12 </wgt>
<wgt id='1200'> +1.1774541e-12 </wgt>
<wgt id='1201'> +1.1848646e-12 </wgt>
<wgt id='1202'> +1.1822868e-12 </wgt>
<wgt id='1203'> +1.1813329e-12 </wgt>
<wgt id='1204'> +1.1731088e-12 </wgt>
<wgt id='1205'> +1.1873049e-12 </wgt>
<wgt id='1206'> +1.1867604e-12 </wgt>
<wgt id='1207'> +1.1753221e-12 </wgt>
<wgt id='1208'> +1.1747548e-12 </wgt>
<wgt id='1209'> +1.1845132e-12 </wgt>
<wgt id='1210'> +1.1881601e-12 </wgt>
<wgt id='1211'> +1.1663697e-12 </wgt>
<wgt id='1212'> +1.1789611e-12 </wgt>
<wgt id='1213'> +1.1846572e-12 </wgt>
<wgt id='1214'> +1.1639729e-12 </wgt>
<wgt id='1215'> +1.2117923e-12 </wgt>
<wgt id='1216'> +1.1937150e-12 </wgt>
<wgt id='1217'> +1.1741151e-12 </wgt>
<wgt id='1218'> +1.1889821e-12 </wgt>
<wgt id='1219'> +1.1782802e-12 </wgt>
<wgt id='1220'> +1.1883102e-12 </wgt>
<wgt id='1221'> +1.1792820e-12 </wgt>
<wgt id='1222'> +1.1855803e-12 </wgt>
<wgt id='1223'> +1.1777688e-12 </wgt>
<wgt id='1224'> +1.1742180e-12 </wgt>
<wgt id='1225'> +1.1849038e-12 </wgt>
<wgt id='1226'> +1.1972015e-12 </wgt>
<wgt id='1227'> +1.1715812e-12 </wgt>
<wgt id='1228'> +1.1769248e-12 </wgt>
<wgt id='1229'> +1.1842798e-12 </wgt>
<wgt id='1230'> +1.1737285e-12 </wgt>
<wgt id='1231'> +1.1786224e-12 </wgt>
<wgt id='1232'> +1.1550096e-12 </wgt>
<wgt id='1233'> +1.1874621e-12 </wgt>
<wgt id='1234'> +1.1818875e-12 </wgt>
<wgt id='1235'> +1.1722592e-12 </wgt>
<wgt id='1236'> +1.1758715e-12 </wgt>
<wgt id='1237'> +1.1791538e-12 </wgt>
<wgt id='1238'> +1.1846394e-12 </wgt>
<wgt id='1239'> +1.1869910e-12 </wgt>
<wgt id='1240'> +1.1891804e-12 </wgt>
<wgt id='1241'> +1.1679357e-12 </wgt>
<wgt id='1242'> +1.1630586e-12 </wgt>
<wgt id='1243'> +1.1727689e-12 </wgt>
<wgt id='1244'> +1.1641154e-12 </wgt>
<wgt id='1245'> +1.1708064e-12 </wgt>
<wgt id='1246'> +1.1706422e-12 </wgt>
<wgt id='1247'> +1.1657557e-12 </wgt>
<wgt id='1248'> +1.1694748e-12 </wgt>
<wgt id='1249'> +1.1656972e-12 </wgt>
<wgt id='1250'> +1.1511343e-12 </wgt>
<wgt id='1251'> +1.1798299e-12 </wgt>
<wgt id='1252'> +1.1608180e-12 </wgt>
<wgt id='1253'> +1.1734753e-12 </wgt>
<wgt id='1254'> +1.1652676e-12 </wgt>
<wgt id='1255'> +1.1694870e-12 </wgt>
<wgt id='1256'> +1.1718718e-12 </wgt>
<wgt id='1257'> +1.1582016e-12 </wgt>
<wgt id='1258'> +1.1937346e-12 </wgt>
<wgt id='1259'> +1.1449597e-12 </wgt>
<wgt id='1260'> +1.1749061e-12 </wgt>
<wgt id='1261'> +1.1599387e-12 </wgt>
<wgt id='1262'> +1.1717630e-12 </wgt>
<wgt id='1263'> +1.1661956e-12 </wgt>
<wgt id='1264'> +1.1778908e-12 </wgt>
<wgt id='1265'> +1.1631345e-12 </wgt>
<wgt id='1266'> +1.1590324e-12 </wgt>
<wgt id='1267'> +1.1765549e-12 </wgt>
<wgt id='1268'> +1.1686982e-12 </wgt>
<wgt id='1269'> +1.1707586e-12 </wgt>
<wgt id='1270'> +1.1630639e-12 </wgt>
<wgt id='1271'> +1.1607177e-12 </wgt>
<wgt id='1272'> +1.1685703e-12 </wgt>
<wgt id='1273'> +1.1672091e-12 </wgt>
<wgt id='1274'> +1.1566945e-12 </wgt>
<wgt id='1275'> +1.1844433e-12 </wgt>
<wgt id='1276'> +1.1703450e-12 </wgt>
<wgt id='1277'> +1.1647213e-12 </wgt>
<wgt id='1278'> +1.1707208e-12 </wgt>
<wgt id='1279'> +1.1614821e-12 </wgt>
<wgt id='1280'> +1.1737434e-12 </wgt>
<wgt id='1281'> +1.1286308e-12 </wgt>
<wgt id='1282'> +1.1679357e-12 </wgt>
<wgt id='1283'> +1.1574268e-12 </wgt>
<wgt id='1284'> +1.1616217e-12 </wgt>
<wgt id='1285'> +1.1649983e-12 </wgt>
<wgt id='1286'> +1.1709925e-12 </wgt>
<wgt id='1287'> +1.1735484e-12 </wgt>
<wgt id='1288'> +1.1756011e-12 </wgt>
<wgt id='1289'> +1.2963320e-12 </wgt>
<wgt id='1290'> +1.2963248e-12 </wgt>
<wgt id='1291'> +1.2963615e-12 </wgt>
<wgt id='1292'> +1.2938679e-12 </wgt>
<wgt id='1293'> +1.2980857e-12 </wgt>
<wgt id='1294'> +1.2937077e-12 </wgt>
<wgt id='1295'> +1.2989206e-12 </wgt>
<wgt id='1296'> +1.2920574e-12 </wgt>
<wgt id='1297'> +1.3015897e-12 </wgt>
<wgt id='1298'> +1.3004137e-12 </wgt>
<wgt id='1299'> +1.2912443e-12 </wgt>
<wgt id='1300'> +1.2995643e-12 </wgt>
<wgt id='1301'> +1.2899336e-12 </wgt>
<wgt id='1302'> +1.2954096e-12 </wgt>
<wgt id='1303'> +1.2976162e-12 </wgt>
<wgt id='1304'> +1.2921541e-12 </wgt>
<wgt id='1305'> +1.2991804e-12 </wgt>
<wgt id='1306'> +1.2901889e-12 </wgt>
<wgt id='1307'> +1.3033075e-12 </wgt>
<wgt id='1308'> +1.2951368e-12 </wgt>
<wgt id='1309'> +1.2972771e-12 </wgt>
<wgt id='1310'> +1.2954973e-12 </wgt>
<wgt id='1311'> +1.2973841e-12 </wgt>
<wgt id='1312'> +1.2910982e-12 </wgt>
<wgt id='1313'> +1.3018454e-12 </wgt>
<wgt id='1314'> +1.3024087e-12 </wgt>
<wgt id='1315'> +1.2841875e-12 </wgt>
<wgt id='1316'> +1.3020836e-12 </wgt>
<wgt id='1317'> +1.2970054e-12 </wgt>
<wgt id='1318'> +1.3119228e-12 </wgt>
<wgt id='1319'> +1.2782495e-12 </wgt>
<wgt id='1320'> +1.3096724e-12 </wgt>
<wgt id='1321'> +1.2852535e-12 </wgt>
<wgt id='1322'> +1.2991712e-12 </wgt>
<wgt id='1323'> +1.2923954e-12 </wgt>
<wgt id='1324'> +1.2967818e-12 </wgt>
<wgt id='1325'> +1.2993458e-12 </wgt>
<wgt id='1326'> +1.3058868e-12 </wgt>
<wgt id='1327'> +1.2906904e-12 </wgt>
<wgt id='1328'> +1.2956233e-12 </wgt>
<wgt id='1329'> +1.2970329e-12 </wgt>
<wgt id='1330'> +1.3857582e-12 </wgt>
<wgt id='1331'> +1.2000344e-12 </wgt>
<wgt id='1332'> +1.2607043e-12 </wgt>
<wgt id='1333'> +1.3210594e-12 </wgt>
<wgt id='1334'> +1.3217759e-12 </wgt>
<wgt id='1335'> +1.2286443e-12 </wgt>
<wgt id='1336'> +1.2800635e-12 </wgt>
<wgt id='1337'> +1.3124493e-12 </wgt>
<wgt id='1338'> +1.2905178e-12 </wgt>
<wgt id='1339'> +1.2990824e-12 </wgt>
<wgt id='1340'> +1.2474033e-12 </wgt>
<wgt id='1341'> +1.2472500e-12 </wgt>
<wgt id='1342'> +1.2476475e-12 </wgt>
<wgt id='1343'> +1.2446241e-12 </wgt>
<wgt id='1344'> +1.2492715e-12 </wgt>
<wgt id='1345'> +1.2444322e-12 </wgt>
<wgt id='1346'> +1.2502279e-12 </wgt>
<wgt id='1347'> +1.2437432e-12 </wgt>
<wgt id='1348'> +1.2515168e-12 </wgt>
<wgt id='1349'> +1.2515476e-12 </wgt>
<wgt id='1350'> +1.2433643e-12 </wgt>
<wgt id='1351'> +1.2504717e-12 </wgt>
<wgt id='1352'> +1.2408250e-12 </wgt>
<wgt id='1353'> +1.2456142e-12 </wgt>
<wgt id='1354'> +1.2505916e-12 </wgt>
<wgt id='1355'> +1.2433532e-12 </wgt>
<wgt id='1356'> +1.2497334e-12 </wgt>
<wgt id='1357'> +1.2402424e-12 </wgt>
<wgt id='1358'> +1.2559306e-12 </wgt>
<wgt id='1359'> +1.2459838e-12 </wgt>
<wgt id='1360'> +1.2486707e-12 </wgt>
<wgt id='1361'> +1.2466020e-12 </wgt>
<wgt id='1362'> +1.2487059e-12 </wgt>
<wgt id='1363'> +1.2412228e-12 </wgt>
<wgt id='1364'> +1.2520683e-12 </wgt>
<wgt id='1365'> +1.2366443e-12 </wgt>
<wgt id='1366'> +1.2527093e-12 </wgt>
<wgt id='1367'> +1.2525835e-12 </wgt>
<wgt id='1368'> +1.2476877e-12 </wgt>
<wgt id='1369'> +1.2593844e-12 </wgt>
<wgt id='1370'> +1.2333838e-12 </wgt>
<wgt id='1371'> +1.2587740e-12 </wgt>
<wgt id='1372'> +1.2340852e-12 </wgt>
<wgt id='1373'> +1.2494015e-12 </wgt>
<wgt id='1374'> +1.2450625e-12 </wgt>
<wgt id='1375'> +1.2474292e-12 </wgt>
<wgt id='1376'> +1.2512519e-12 </wgt>
<wgt id='1377'> +1.2551061e-12 </wgt>
<wgt id='1378'> +1.2438573e-12 </wgt>
<wgt id='1379'> +1.2482520e-12 </wgt>
<wgt id='1380'> +1.2465417e-12 </wgt>
<wgt id='1381'> +1.3378823e-12 </wgt>
<wgt id='1382'> +1.1568816e-12 </wgt>
<wgt id='1383'> +1.2020428e-12 </wgt>
<wgt id='1384'> +1.2798489e-12 </wgt>
<wgt id='1385'> +1.2735542e-12 </wgt>
<wgt id='1386'> +1.1811452e-12 </wgt>
<wgt id='1387'> +1.2290485e-12 </wgt>
<wgt id='1388'> +1.2640314e-12 </wgt>
<wgt id='1389'> +1.2399552e-12 </wgt>
<wgt id='1390'> +1.2505823e-12 </wgt>
<wgt id='1391'> +1.2524480e-12 </wgt>
<wgt id='1392'> +1.1854046e-12 </wgt>
<wgt id='1393'> +1.2061919e-12 </wgt>
<wgt id='1394'> +1.2252253e-12 </wgt>
<wgt id='1395'> +1.2642696e-12 </wgt>
<wgt id='1396'> +1.2466306e-12 </wgt>
<wgt id='1397'> +1.2209890e-12 </wgt>
<wgt id='1398'> +1.2238096e-12 </wgt>
<wgt id='1399'> +1.2291304e-12 </wgt>
<wgt id='1400'> +1.2348438e-12 </wgt>
<wgt id='1401'> +1.2399407e-12 </wgt>
<wgt id='1402'> +1.2513690e-12 </wgt>
<wgt id='1403'> +1.2580993e-12 </wgt>
<wgt id='1404'> +1.2659932e-12 </wgt>
<wgt id='1405'> +1.2466306e-12 </wgt>
<wgt id='1406'> +1.2333460e-12 </wgt>
<wgt id='1407'> +1.2399163e-12 </wgt>
<wgt id='1408'> +1.2521710e-12 </wgt>
<wgt id='1409'> +1.2552790e-12 </wgt>
<wgt id='1410'> +1.2024350e-12 </wgt>
<wgt id='1411'> +1.2018059e-12 </wgt>
<wgt id='1412'> +1.2031871e-12 </wgt>
<wgt id='1413'> +1.2047928e-12 </wgt>
<wgt id='1414'> +1.2000534e-12 </wgt>
<wgt id='1415'> +1.1983090e-12 </wgt>
<wgt id='1416'> +1.2040785e-12 </wgt>
<wgt id='1417'> +1.1954486e-12 </wgt>
<wgt id='1418'> +1.2093908e-12 </wgt>
<wgt id='1419'> +1.2041180e-12 </wgt>
<wgt id='1420'> +1.2008307e-12 </wgt>
<wgt id='1421'> +1.1889087e-12 </wgt>
<wgt id='1422'> +1.2083072e-12 </wgt>
<wgt id='1423'> +1.2026307e-12 </wgt>
<wgt id='1424'> +1.2022051e-12 </wgt>
<wgt id='1425'> +1.1974374e-12 </wgt>
<wgt id='1426'> +1.2078339e-12 </wgt>
<wgt id='1427'> +1.1937446e-12 </wgt>
<wgt id='1428'> +1.2070514e-12 </wgt>
<wgt id='1429'> +1.2009182e-12 </wgt>
<wgt id='1430'> +1.2046398e-12 </wgt>
<wgt id='1431'> +1.2026112e-12 </wgt>
<wgt id='1432'> +1.2022472e-12 </wgt>
<wgt id='1433'> +1.2048535e-12 </wgt>
<wgt id='1434'> +1.1990132e-12 </wgt>
<wgt id='1435'> +1.2048375e-12 </wgt>
<wgt id='1436'> +1.1967450e-12 </wgt>
<wgt id='1437'> +1.2087926e-12 </wgt>
<wgt id='1438'> +1.2014568e-12 </wgt>
<wgt id='1439'> +1.1944255e-12 </wgt>
<wgt id='1440'> +1.2218879e-12 </wgt>
<wgt id='1441'> +1.2059885e-12 </wgt>
<wgt id='1442'> +1.1956529e-12 </wgt>
<wgt id='1443'> +1.1998491e-12 </wgt>
<wgt id='1444'> +1.2088443e-12 </wgt>
<wgt id='1445'> +1.2054225e-12 </wgt>
<wgt id='1446'> +1.2023565e-12 </wgt>
<wgt id='1447'> +1.2038984e-12 </wgt>
<wgt id='1448'> +1.2025917e-12 </wgt>
<wgt id='1449'> +1.2034897e-12 </wgt>
<wgt id='1450'> +1.2015769e-12 </wgt>
<wgt id='1451'> +1.1397955e-12 </wgt>
<wgt id='1452'> +1.3099898e-12 </wgt>
<wgt id='1453'> +1.1969354e-12 </wgt>
<wgt id='1454'> +1.2340888e-12 </wgt>
<wgt id='1455'> +1.2407705e-12 </wgt>
<wgt id='1456'> +1.1668921e-12 </wgt>
<wgt id='1457'> +1.1513826e-12 </wgt>
<wgt id='1458'> +1.2234141e-12 </wgt>
<wgt id='1459'> +1.1862949e-12 </wgt>
<wgt id='1460'> +1.2118826e-12 </wgt>
<wgt id='1461'> +1.2024350e-12 </wgt>
<wgt id='1462'> +1.1818915e-12 </wgt>
<wgt id='1463'> +1.2099418e-12 </wgt>
<wgt id='1464'> +1.1961772e-12 </wgt>
<wgt id='1465'> +1.1465009e-12 </wgt>
<wgt id='1466'> +1.1543534e-12 </wgt>
<wgt id='1467'> +1.1638357e-12 </wgt>
<wgt id='1468'> +1.1753551e-12 </wgt>
<wgt id='1469'> +1.1853737e-12 </wgt>
<wgt id='1470'> +1.2082233e-12 </wgt>
<wgt id='1471'> +1.2281683e-12 </wgt>
<wgt id='1472'> +1.2401405e-12 </wgt>
<wgt id='1473'> +1.1961772e-12 </wgt>
<wgt id='1474'> +1.1847772e-12 </wgt>
<wgt id='1475'> +1.1915806e-12 </wgt>
<wgt id='1476'> +1.2016251e-12 </wgt>
<wgt id='1477'> +1.2055314e-12 </wgt>
<wgt id='1478'> +1.1573517e-12 </wgt>
<wgt id='1479'> +1.1524661e-12 </wgt>
<wgt id='1480'> +1.1088513e-12 </wgt>
<wgt id='1481'> +1.1485001e-12 </wgt>
<wgt id='1482'> +1.1538931e-12 </wgt>
<wgt id='1483'> +1.2238011e-12 </wgt>
<wgt id='1484'> +1.1546290e-12 </wgt>
<wgt id='1485'> +1.1452306e-12 </wgt>
<wgt id='1486'> +1.1625311e-12 </wgt>
<wgt id='1487'> +1.1698239e-12 </wgt>
<wgt id='1488'> +1.1568664e-12 </wgt>
<wgt id='1489'> +1.1676277e-12 </wgt>
<wgt id='1490'> +1.1499242e-12 </wgt>
<wgt id='1491'> +1.1683285e-12 </wgt>
<wgt id='1492'> +1.1587659e-12 </wgt>
<wgt id='1493'> +1.1466290e-12 </wgt>
<wgt id='1494'> +1.1228778e-12 </wgt>
<wgt id='1495'> +1.1470943e-12 </wgt>
<wgt id='1496'> +1.1619555e-12 </wgt>
<wgt id='1497'> +1.1569487e-12 </wgt>
<wgt id='1498'> +1.1693031e-12 </wgt>
<wgt id='1499'> +1.1601444e-12 </wgt>
<wgt id='1500'> +1.1548532e-12 </wgt>
<wgt id='1501'> +1.1654524e-12 </wgt>
<wgt id='1502'> +1.1592405e-12 </wgt>
<wgt id='1503'> +1.1535871e-12 </wgt>
<wgt id='1504'> +1.1600198e-12 </wgt>
<wgt id='1505'> +1.1696115e-12 </wgt>
<wgt id='1506'> +1.1536464e-12 </wgt>
<wgt id='1507'> +1.1531505e-12 </wgt>
<wgt id='1508'> +1.1450987e-12 </wgt>
<wgt id='1509'> +1.2832695e-12 </wgt>
<wgt id='1510'> +1.2803336e-12 </wgt>
<wgt id='1511'> +1.2862683e-12 </wgt>
<wgt id='1512'> +1.2814554e-12 </wgt>
<wgt id='1513'> +1.2711788e-12 </wgt>
<wgt id='1514'> +1.2861404e-12 </wgt>
<wgt id='1515'> +1.2969323e-12 </wgt>
<wgt id='1516'> +1.2952340e-12 </wgt>
<wgt id='1517'> +1.3052335e-12 </wgt>
<wgt id='1518'> +1.2619760e-12 </wgt>
<wgt id='1519'> +1.2983619e-12 </wgt>
<wgt id='1520'> +1.3011573e-12 </wgt>
<wgt id='1521'> +1.2691915e-12 </wgt>
<wgt id='1522'> +1.2868791e-12 </wgt>
<wgt id='1523'> +1.2444570e-12 </wgt>
<wgt id='1524'> +1.2615315e-12 </wgt>
<wgt id='1525'> +1.2524167e-12 </wgt>
<wgt id='1526'> +1.2955310e-12 </wgt>
<wgt id='1527'> +1.2910836e-12 </wgt>
<wgt id='1528'> +1.2929433e-12 </wgt>
<wgt id='1529'> +1.2819490e-12 </wgt>
<wgt id='1530'> +1.2709064e-12 </wgt>
<wgt id='1531'> +1.2732508e-12 </wgt>
<wgt id='1532'> +1.3184037e-12 </wgt>
<wgt id='1533'> +1.2807063e-12 </wgt>
<wgt id='1534'> +1.2769574e-12 </wgt>
<wgt id='1535'> +1.2873941e-12 </wgt>
<wgt id='1536'> +1.2749460e-12 </wgt>
<wgt id='1537'> +1.2938359e-12 </wgt>
<wgt id='1538'> +1.2778770e-12 </wgt>
<wgt id='1539'> +1.2799940e-12 </wgt>
<wgt id='1540'> +1.2765337e-12 </wgt>
<wgt id='1541'> +1.2886852e-12 </wgt>
<wgt id='1542'> +1.2715856e-12 </wgt>
<wgt id='1543'> +1.2699622e-12 </wgt>
<wgt id='1544'> +1.2882742e-12 </wgt>
<wgt id='1545'> +1.2954292e-12 </wgt>
<wgt id='1546'> +1.2950473e-12 </wgt>
<wgt id='1547'> +1.2851367e-12 </wgt>
<wgt id='1548'> +1.2842372e-12 </wgt>
<wgt id='1549'> +1.2800312e-12 </wgt>
<wgt id='1550'> +1.2892426e-12 </wgt>
<wgt id='1551'> +1.2851279e-12 </wgt>
<wgt id='1552'> +1.2831764e-12 </wgt>
<wgt id='1553'> +1.2867032e-12 </wgt>
<wgt id='1554'> +1.2832024e-12 </wgt>
<wgt id='1555'> +1.2846668e-12 </wgt>
<wgt id='1556'> +1.2816969e-12 </wgt>
<wgt id='1557'> +1.2856979e-12 </wgt>
<wgt id='1558'> +1.2830883e-12 </wgt>
<wgt id='1559'> +1.2807619e-12 </wgt>
<wgt id='1560'> +1.2842430e-12 </wgt>
<wgt id='1561'> +1.2813762e-12 </wgt>
<wgt id='1562'> +1.2854867e-12 </wgt>
<wgt id='1563'> +1.2850319e-12 </wgt>
<wgt id='1564'> +1.2853325e-12 </wgt>
<wgt id='1565'> +1.2828834e-12 </wgt>
<wgt id='1566'> +1.2848418e-12 </wgt>
<wgt id='1567'> +1.2853114e-12 </wgt>
<wgt id='1568'> +1.2820036e-12 </wgt>
<wgt id='1569'> +1.2850856e-12 </wgt>
<wgt id='1570'> +1.2841285e-12 </wgt>
<wgt id='1571'> +1.2829399e-12 </wgt>
<wgt id='1572'> +1.2834027e-12 </wgt>
<wgt id='1573'> +1.2811507e-12 </wgt>
<wgt id='1574'> +1.2851411e-12 </wgt>
<wgt id='1575'> +1.2822761e-12 </wgt>
<wgt id='1576'> +1.2808811e-12 </wgt>
<wgt id='1577'> +1.2856454e-12 </wgt>
<wgt id='1578'> +1.2838867e-12 </wgt>
<wgt id='1579'> +1.2840866e-12 </wgt>
<wgt id='1580'> +1.2826556e-12 </wgt>
<wgt id='1581'> +1.2812830e-12 </wgt>
<wgt id='1582'> +1.2844963e-12 </wgt>
<wgt id='1583'> +1.2810026e-12 </wgt>
<wgt id='1584'> +1.2818759e-12 </wgt>
<wgt id='1585'> +1.2813331e-12 </wgt>
<wgt id='1586'> +1.2820295e-12 </wgt>
<wgt id='1587'> +1.2825020e-12 </wgt>
<wgt id='1588'> +1.2854828e-12 </wgt>
<wgt id='1589'> +1.2840967e-12 </wgt>
<wgt id='1590'> +1.2828194e-12 </wgt>
<wgt id='1591'> +1.2816508e-12 </wgt>
<wgt id='1592'> +1.2808979e-12 </wgt>
<wgt id='1593'> +1.2843355e-12 </wgt>
<wgt id='1594'> +1.2829575e-12 </wgt>
<wgt id='1595'> +1.2835274e-12 </wgt>
<wgt id='1596'> +1.2822094e-12 </wgt>
<wgt id='1597'> +1.2821393e-12 </wgt>
<wgt id='1598'> +1.2824119e-12 </wgt>
<wgt id='1599'> +1.2830913e-12 </wgt>
<wgt id='1600'> +1.2844457e-12 </wgt>
<wgt id='1601'> +1.2820792e-12 </wgt>
<wgt id='1602'> +1.2834635e-12 </wgt>
<wgt id='1603'> +1.2834408e-12 </wgt>
<wgt id='1604'> +1.2826878e-12 </wgt>
<wgt id='1605'> +1.2827430e-12 </wgt>
<wgt id='1606'> +1.2834962e-12 </wgt>
<wgt id='1607'> +1.2848420e-12 </wgt>
<wgt id='1608'> +1.2830473e-12 </wgt>
<wgt id='1609'> +1.2823535e-12 </wgt>
<wgt id='1610'> +1.2507441e-12 </wgt>
<wgt id='1611'> +1.2943170e-12 </wgt>
<wgt id='1612'> +1.4581780e-12 </wgt>
<wgt id='1613'> +1.3559205e-12 </wgt>
<wgt id='1614'> +1.4388112e-12 </wgt>
<wgt id='1615'> +1.5596014e-12 </wgt>
<wgt id='1616'> +1.3287688e-12 </wgt>
<wgt id='1617'> +1.3359907e-12 </wgt>
<wgt id='1618'> +1.3378633e-12 </wgt>
<wgt id='1619'> +1.2977252e-12 </wgt>
<wgt id='1620'> +1.4781565e-12 </wgt>
<wgt id='1621'> +1.4174575e-12 </wgt>
<wgt id='1622'> +1.4893085e-12 </wgt>
<wgt id='1623'> +1.5307814e-12 </wgt>
<wgt id='1624'> +1.4285015e-12 </wgt>
<wgt id='1625'> +1.3492284e-12 </wgt>
<wgt id='1626'> +1.5565941e-12 </wgt>
<wgt id='1627'> +1.5518176e-12 </wgt>
<wgt id='1628'> +1.4142072e-12 </wgt>
<wgt id='1629'> +1.1789776e-12 </wgt>
<wgt id='1630'> +1.4715077e-12 </wgt>
<wgt id='1631'> +1.3858009e-12 </wgt>
<wgt id='1632'> +1.5583566e-12 </wgt>
<wgt id='1633'> +1.5505863e-12 </wgt>
<wgt id='1634'> +1.5433983e-12 </wgt>
<wgt id='1635'> +1.3370886e-12 </wgt>
<wgt id='1636'> +1.2345007e-12 </wgt>
<wgt id='1637'> +1.5131499e-12 </wgt>
<wgt id='1638'> +1.5571124e-12 </wgt>
<wgt id='1639'> +1.3908655e-12 </wgt>
<wgt id='1640'> +1.5604194e-12 </wgt>
<wgt id='1641'> +1.4238580e-12 </wgt>
<wgt id='1642'> +1.5384603e-12 </wgt>
<wgt id='1643'> +1.4099659e-12 </wgt>
<wgt id='1644'> +1.6227684e-12 </wgt>
<wgt id='1645'> +1.4891998e-12 </wgt>
<wgt id='1646'> +1.5969562e-12 </wgt>
<wgt id='1647'> +1.5122618e-12 </wgt>
<wgt id='1648'> +1.3896154e-12 </wgt>
<wgt id='1649'> +1.4155920e-12 </wgt>
<wgt id='1650'> +1.4663838e-12 </wgt>
<wgt id='1651'> +1.4438769e-12 </wgt>
<wgt id='1652'> +1.5077281e-12 </wgt>
<wgt id='1653'> +1.3746356e-12 </wgt>
<wgt id='1654'> +1.4201994e-12 </wgt>
<wgt id='1655'> +1.5047059e-12 </wgt>
<wgt id='1656'> +1.6910187e-12 </wgt>
<wgt id='1657'> +1.4764135e-12 </wgt>
<wgt id='1658'> +1.5498152e-12 </wgt>
<wgt id='1659'> +1.4285015e-12 </wgt>
<wgt id='1660'> +1.3299763e-12 </wgt>
<wgt id='1661'> +1.6715184e-12 </wgt>
<wgt id='1662'> +1.5180736e-12 </wgt>
<wgt id='1663'> +1.4805768e-12 </wgt>
<wgt id='1664'> +1.5042791e-12 </wgt>
<wgt id='1665'> +1.7374426e-12 </wgt>
<wgt id='1666'> +1.5128908e-12 </wgt>
<wgt id='1667'> +1.4605985e-12 </wgt>
<wgt id='1668'> +1.3201890e-12 </wgt>
<wgt id='1669'> +1.4683909e-12 </wgt>
<wgt id='1670'> +1.4494768e-12 </wgt>
<wgt id='1671'> +1.6315418e-12 </wgt>
<wgt id='1672'> +1.5160144e-12 </wgt>
<wgt id='1673'> +1.3824415e-12 </wgt>
<wgt id='1674'> +1.4644666e-12 </wgt>
<wgt id='1675'> +1.4678294e-12 </wgt>
<wgt id='1676'> +1.3520074e-12 </wgt>
<wgt id='1677'> +1.3643343e-12 </wgt>
<wgt id='1678'> +1.4815364e-12 </wgt>
<wgt id='1679'> +1.3474316e-12 </wgt>
<wgt id='1680'> +1.4448168e-12 </wgt>
<wgt id='1681'> +1.4690378e-12 </wgt>
<wgt id='1682'> +1.4909280e-12 </wgt>
<wgt id='1683'> +1.5263884e-12 </wgt>
<wgt id='1684'> +1.6026399e-12 </wgt>
<wgt id='1685'> +1.4873626e-12 </wgt>
<wgt id='1686'> +1.4777339e-12 </wgt>
<wgt id='1687'> +1.2977366e-12 </wgt>
<wgt id='1688'> +1.4878642e-12 </wgt>
<wgt id='1689'> +1.4624550e-12 </wgt>
<wgt id='1690'> +1.4252479e-12 </wgt>
<wgt id='1691'> +1.4170671e-12 </wgt>
<wgt id='1692'> +1.3380403e-12 </wgt>
<wgt id='1693'> +1.4371438e-12 </wgt>
<wgt id='1694'> +1.5468014e-12 </wgt>
<wgt id='1695'> +1.4596135e-12 </wgt>
<wgt id='1696'> +1.4211083e-12 </wgt>
<wgt id='1697'> +1.3125779e-12 </wgt>
<wgt id='1698'> +1.5072219e-12 </wgt>
<wgt id='1699'> +1.2432284e-12 </wgt>
<wgt id='1700'> +1.5176227e-12 </wgt>
<wgt id='1701'> +1.3710985e-12 </wgt>
<wgt id='1702'> +1.3945776e-12 </wgt>
<wgt id='1703'> +1.3639324e-12 </wgt>
<wgt id='1704'> +1.5706603e-12 </wgt>
<wgt id='1705'> +1.5600629e-12 </wgt>
<wgt id='1706'> +1.3639964e-12 </wgt>
<wgt id='1707'> +1.4778358e-12 </wgt>
<wgt id='1708'> +1.4443847e-12 </wgt>
<wgt id='1709'> +1.5748023e-12 </wgt>
<wgt id='1710'> +1.4187335e-12 </wgt>
<wgt id='1711'> +1.5627425e-12 </wgt>
<wgt id='1712'> +1.4817381e-12 </wgt>
<wgt id='1713'> +1.0959057e-12 </wgt>
<wgt id='1714'> +1.0102409e-12 </wgt>
<wgt id='1715'> +1.0326831e-12 </wgt>
<wgt id='1716'> +9.9672735e-13 </wgt>
<wgt id='1717'> +1.0210428e-12 </wgt>
<wgt id='1718'> +1.0541015e-12 </wgt>
<wgt id='1719'> +1.1691116e-12 </wgt>
<wgt id='1720'> +1.0465473e-12 </wgt>
<wgt id='1721'> +1.1015102e-12 </wgt>
<wgt id='1722'> +1.1253269e-12 </wgt>
<wgt id='1723'> +1.3556760e-12 </wgt>
<wgt id='1724'> +1.1220661e-12 </wgt>
<wgt id='1725'> +1.0813256e-12 </wgt>
<wgt id='1726'> +1.0459810e-12 </wgt>
<wgt id='1727'> +1.1042830e-12 </wgt>
<wgt id='1728'> +1.1907277e-12 </wgt>
<wgt id='1729'> +1.1025051e-12 </wgt>
<wgt id='1730'> +1.1661832e-12 </wgt>
<wgt id='1731'> +1.1434701e-12 </wgt>
<wgt id='1732'> +1.0519708e-12 </wgt>
<wgt id='1733'> +9.6144963e-13 </wgt>
<wgt id='1734'> +9.9796211e-13 </wgt>
<wgt id='1735'> +1.0934253e-12 </wgt>
<wgt id='1736'> +1.1384127e-12 </wgt>
<wgt id='1737'> +9.6801785e-13 </wgt>
<wgt id='1738'> +1.0175972e-12 </wgt>
<wgt id='1739'> +1.2594362e-12 </wgt>
<wgt id='1740'> +9.9965618e-13 </wgt>
<wgt id='1741'> +1.0521173e-12 </wgt>
<wgt id='1742'> +1.0188858e-12 </wgt>
<wgt id='1743'> +1.0441411e-12 </wgt>
<wgt id='1744'> +1.0286601e-12 </wgt>
<wgt id='1745'> +1.3547580e-12 </wgt>
<wgt id='1746'> +1.1250816e-12 </wgt>
<wgt id='1747'> +1.1933904e-12 </wgt>
<wgt id='1748'> +1.0116863e-12 </wgt>
<wgt id='1749'> +1.0038041e-12 </wgt>
<wgt id='1750'> +1.0857195e-12 </wgt>
<wgt id='1751'> +1.1232576e-12 </wgt>
<wgt id='1752'> +1.0557256e-12 </wgt>
<wgt id='1753'> +1.0508072e-12 </wgt>
<wgt id='1754'> +1.0266261e-12 </wgt>
<wgt id='1755'> +1.0854713e-12 </wgt>
<wgt id='1756'> +1.1043361e-12 </wgt>
<wgt id='1757'> +1.1867989e-12 </wgt>
<wgt id='1758'> +1.1718727e-12 </wgt>
<wgt id='1759'> +1.0727394e-12 </wgt>
<wgt id='1760'> +1.2035030e-12 </wgt>
<wgt id='1761'> +1.1128437e-12 </wgt>
<wgt id='1762'> +1.0494380e-12 </wgt>
<wgt id='1763'> +1.0173844e-12 </wgt>
<wgt id='1764'> +1.0636537e-12 </wgt>
<wgt id='1765'> +1.1153460e-12 </wgt>
<wgt id='1766'> +1.3940861e-12 </wgt>
<wgt id='1767'> +1.1278167e-12 </wgt>
<wgt id='1768'> +1.1015286e-12 </wgt>
<wgt id='1769'> +1.1132629e-12 </wgt>
<wgt id='1770'> +1.0116335e-12 </wgt>
<wgt id='1771'> +1.0312844e-12 </wgt>
<wgt id='1772'> +1.0707800e-12 </wgt>
<wgt id='1773'> +1.0881887e-12 </wgt>
<wgt id='1774'> +1.1192003e-12 </wgt>
<wgt id='1775'> +1.0285854e-12 </wgt>
<wgt id='1776'> +1.0835677e-12 </wgt>
<wgt id='1777'> +1.1732282e-12 </wgt>
<wgt id='1778'> +1.0453463e-12 </wgt>
<wgt id='1779'> +1.1167430e-12 </wgt>
<wgt id='1780'> +1.3308712e-12 </wgt>
<wgt id='1781'> +1.1084357e-12 </wgt>
<wgt id='1782'> +1.1222674e-12 </wgt>
<wgt id='1783'> +1.0907577e-12 </wgt>
<wgt id='1784'> +1.1802193e-12 </wgt>
<wgt id='1785'> +1.2985614e-12 </wgt>
<wgt id='1786'> +1.1915381e-12 </wgt>
<wgt id='1787'> +1.1058841e-12 </wgt>
<wgt id='1788'> +1.0046489e-12 </wgt>
<wgt id='1789'> +1.2030135e-12 </wgt>
<wgt id='1790'> +1.1303241e-12 </wgt>
<wgt id='1791'> +1.1098045e-12 </wgt>
<wgt id='1792'> +1.1148241e-12 </wgt>
<wgt id='1793'> +1.0637349e-12 </wgt>
<wgt id='1794'> +1.0943437e-12 </wgt>
<wgt id='1795'> +1.0129024e-12 </wgt>
<wgt id='1796'> +1.0976688e-12 </wgt>
<wgt id='1797'> +1.0514841e-12 </wgt>
<wgt id='1798'> +1.0225619e-12 </wgt>
<wgt id='1799'> +1.0650520e-12 </wgt>
<wgt id='1800'> +1.0704883e-12 </wgt>
<wgt id='1801'> +1.0110330e-12 </wgt>
<wgt id='1802'> +1.0589511e-12 </wgt>
<wgt id='1803'> +1.0245343e-12 </wgt>
<wgt id='1804'> +1.0219639e-12 </wgt>
<wgt id='1805'> +1.1135963e-12 </wgt>
<wgt id='1806'> +1.0906256e-12 </wgt>
<wgt id='1807'> +1.0901710e-12 </wgt>
<wgt id='1808'> +1.0889811e-12 </wgt>
<wgt id='1809'> +1.1766135e-12 </wgt>
<wgt id='1810'> +1.0932306e-12 </wgt>
<wgt id='1811'> +1.1053049e-12 </wgt>
<wgt id='1812'> +1.0134026e-12 </wgt>
<wgt id='1813'> +1.0134081e-12 </wgt>
<wgt id='1814'> +1.1011048e-12 </wgt>
<wgt id='1815'> +1.3326809e-12 </wgt>
<wgt id='1816'> +1.0959057e-12 </wgt>
<wgt id='1817'> +1.0102409e-12 </wgt>
<wgt id='1818'> +1.0326831e-12 </wgt>
<wgt id='1819'> +9.9672735e-13 </wgt>
<wgt id='1820'> +1.0210428e-12 </wgt>
<wgt id='1821'> +1.0541015e-12 </wgt>
<wgt id='1822'> +1.1691116e-12 </wgt>
<wgt id='1823'> +1.0465473e-12 </wgt>
<wgt id='1824'> +1.1015102e-12 </wgt>
<wgt id='1825'> +1.1253269e-12 </wgt>
<wgt id='1826'> +1.3556760e-12 </wgt>
<wgt id='1827'> +1.1220661e-12 </wgt>
<wgt id='1828'> +1.0813256e-12 </wgt>
<wgt id='1829'> +1.0459810e-12 </wgt>
<wgt id='1830'> +1.1042830e-12 </wgt>
<wgt id='1831'> +1.1907277e-12 </wgt>
<wgt id='1832'> +1.1025051e-12 </wgt>
<wgt id='1833'> +1.1661832e-12 </wgt>
<wgt id='1834'> +1.1434701e-12 </wgt>
<wgt id='1835'> +1.0519708e-12 </wgt>
<wgt id='1836'> +9.6144963e-13 </wgt>
<wgt id='1837'> +9.9796211e-13 </wgt>
<wgt id='1838'> +1.0934253e-12 </wgt>
<wgt id='1839'> +1.1384127e-12 </wgt>
<wgt id='1840'> +9.6801785e-13 </wgt>
<wgt id='1841'> +1.0175972e-12 </wgt>
<wgt id='1842'> +1.2594362e-12 </wgt>
<wgt id='1843'> +9.9965618e-13 </wgt>
<wgt id='1844'> +1.0521173e-12 </wgt>
<wgt id='1845'> +1.0188858e-12 </wgt>
<wgt id='1846'> +1.0441411e-12 </wgt>
<wgt id='1847'> +1.0286601e-12 </wgt>
<wgt id='1848'> +1.3547580e-12 </wgt>
<wgt id='1849'> +1.1250816e-12 </wgt>
<wgt id='1850'> +1.1933904e-12 </wgt>
<wgt id='1851'> +1.0116863e-12 </wgt>
<wgt id='1852'> +1.0038041e-12 </wgt>
<wgt id='1853'> +1.0857195e-12 </wgt>
<wgt id='1854'> +1.1232576e-12 </wgt>
<wgt id='1855'> +1.0557256e-12 </wgt>
<wgt id='1856'> +1.0508072e-12 </wgt>
<wgt id='1857'> +1.0266261e-12 </wgt>
<wgt id='1858'> +1.0854713e-12 </wgt>
<wgt id='1859'> +1.1043361e-12 </wgt>
<wgt id='1860'> +1.1867989e-12 </wgt>
<wgt id='1861'> +1.1718727e-12 </wgt>
<wgt id='1862'> +1.0727394e-12 </wgt>
<wgt id='1863'> +1.2035030e-12 </wgt>
<wgt id='1864'> +1.1128437e-12 </wgt>
<wgt id='1865'> +1.0494380e-12 </wgt>
<wgt id='1866'> +1.0173844e-12 </wgt>
<wgt id='1867'> +1.0636537e-12 </wgt>
<wgt id='1868'> +1.1153460e-12 </wgt>
<wgt id='1869'> +1.3940861e-12 </wgt>
<wgt id='1870'> +1.1278167e-12 </wgt>
<wgt id='1871'> +1.1015286e-12 </wgt>
<wgt id='1872'> +1.1132629e-12 </wgt>
<wgt id='1873'> +1.0116335e-12 </wgt>
<wgt id='1874'> +1.0312844e-12 </wgt>
<wgt id='1875'> +1.0707800e-12 </wgt>
<wgt id='1876'> +1.0881887e-12 </wgt>
<wgt id='1877'> +1.1192003e-12 </wgt>
<wgt id='1878'> +1.0285854e-12 </wgt>
<wgt id='1879'> +1.0835677e-12 </wgt>
<wgt id='1880'> +1.1732282e-12 </wgt>
<wgt id='1881'> +1.0453463e-12 </wgt>
<wgt id='1882'> +1.1167430e-12 </wgt>
<wgt id='1883'> +1.3308712e-12 </wgt>
<wgt id='1884'> +1.1084357e-12 </wgt>
<wgt id='1885'> +1.1222674e-12 </wgt>
<wgt id='1886'> +1.0907577e-12 </wgt>
<wgt id='1887'> +1.1802193e-12 </wgt>
<wgt id='1888'> +1.2985614e-12 </wgt>
<wgt id='1889'> +1.1915381e-12 </wgt>
<wgt id='1890'> +1.1058841e-12 </wgt>
<wgt id='1891'> +1.0046489e-12 </wgt>
<wgt id='1892'> +1.2030135e-12 </wgt>
<wgt id='1893'> +1.1303241e-12 </wgt>
<wgt id='1894'> +1.1098045e-12 </wgt>
<wgt id='1895'> +1.1148241e-12 </wgt>
<wgt id='1896'> +1.0637349e-12 </wgt>
<wgt id='1897'> +1.0943437e-12 </wgt>
<wgt id='1898'> +1.0129024e-12 </wgt>
<wgt id='1899'> +1.0976688e-12 </wgt>
<wgt id='1900'> +1.0514841e-12 </wgt>
<wgt id='1901'> +1.0225619e-12 </wgt>
<wgt id='1902'> +1.0650520e-12 </wgt>
<wgt id='1903'> +1.0704883e-12 </wgt>
<wgt id='1904'> +1.0110330e-12 </wgt>
<wgt id='1905'> +1.0589511e-12 </wgt>
<wgt id='1906'> +1.0245343e-12 </wgt>
<wgt id='1907'> +1.0219639e-12 </wgt>
<wgt id='1908'> +1.1135963e-12 </wgt>
<wgt id='1909'> +1.0906256e-12 </wgt>
<wgt id='1910'> +1.0901710e-12 </wgt>
<wgt id='1911'> +1.0889811e-12 </wgt>
<wgt id='1912'> +1.1766135e-12 </wgt>
<wgt id='1913'> +1.0932306e-12 </wgt>
<wgt id='1914'> +1.1053049e-12 </wgt>
<wgt id='1915'> +1.0134026e-12 </wgt>
<wgt id='1916'> +1.0134081e-12 </wgt>
<wgt id='1917'> +1.0746330e-12 </wgt>
<wgt id='1918'> +1.1049673e-12 </wgt>
<wgt id='1919'> +1.1390896e-12 </wgt>
</rwgt>
</event>
<event>
 9      1 +1.5538000e-12 5.35058200e+01 7.81860800e-03 1.29513900e-01
       -1 -1    0    0    0  501 -0.0000000000e+00 +0.0000000000e+00 +3.4067578262e+02 3.4067578262e+02 0.0000000000e+00 0.0000e+00 1.0000e+00
       21 -1    0    0  501  502 +0.0000000000e+00 -0.0000000000e+00 -9.7295886726e+00 9.7295886726e+00 0.0000000000e+00 0.0000e+00 1.0000e+00
     1023  2    1    2    0    0 -4.4567626425e+01 +2.5526851159e+01 +9.5932966380e+01 1.0984537756e+02 1.4999315869e+01 0.0000e+00 0.0000e+00
  1000023  2    3    3    0    0 -3.3075906466e+01 +1.4380258927e+01 +6.0625520675e+01 7.0756736389e+01 5.5004137996e+00 0.0000e+00 0.0000e+00
       -1  1    1    2    0  502 +4.4567626425e+01 -2.5526851159e+01 +2.3501322757e+02 2.4055999374e+02 0.0000000000e+00 0.0000e+00 1.0000e+00
  1000022  1    4    4    0    0 -3.1587664103e+01 +1.3394340721e+01 +5.7665440357e+01 6.7286639821e+01 5.0000000000e+00 0.0000e+00 1.0000e+00
      -11  1    4    4    0    0 -1.3906307656e+00 +8.2002007072e-01 +2.5676984479e+00 3.0330450744e+00 5.1100000000e-04 0.0000e+00 1.0000e+00
       11  1    4    4    0    0 -9.7611597527e-02 +1.6589813461e-01 +3.9238186943e-01 4.3705149310e-01 5.1100000000e-04 0.0000e+00 -1.0000e+00
  1000022  1    3    3    0    0 -1.1491719959e+01 +1.1146592232e+01 +3.5307445705e+01 3.9088641166e+01 5.0000000000e+00 0.0000e+00 -1.0000e+00
<mgrwt>
<rscale>  1 0.53505821E+02</rscale>
<asrwt>0</asrwt>
<pdfrwt beam="1">  1       21 0.14968601E-02 0.53505821E+02</pdfrwt>
<pdfrwt beam="2">  1       -1 0.52411650E-01 0.53505821E+02</pdfrwt>
<totfact> 0.70121331E+05</totfact>
</mgrwt>
<rwgt>
<wgt id='1001'> +1.5538000e-12 </wgt>
<wgt id='1002'> +1.5196653e-12 </wgt>
<wgt id='1003'> +1.5191016e-12 </wgt>
<wgt id='1004'> +1.5545619e-12 </wgt>
<wgt id='1005'> +1.5126708e-12 </wgt>
<wgt id='1006'> +1.3790483e-12 </wgt>
<wgt id='1007'> +1.3662163e-12 </wgt>
<wgt id='1008'> +1.3659126e-12 </wgt>
<wgt id='1009'> +1.3790386e-12 </wgt>
<wgt id='1010'> +1.3623571e-12 </wgt>
<wgt id='1011'> +1.7814719e-12 </wgt>
<wgt id='1012'> +1.7134130e-12 </wgt>
<wgt id='1013'> +1.7124520e-12 </wgt>
<wgt id='1014'> +1.7835293e-12 </wgt>
<wgt id='1015'> +1.7016688e-12 </wgt>
<wgt id='1016'> +1.7099163e-12 </wgt>
<wgt id='1017'> +1.6330270e-12 </wgt>
<wgt id='1018'> +1.6320021e-12 </wgt>
<wgt id='1019'> +1.7124520e-12 </wgt>
<wgt id='1020'> +1.6205548e-12 </wgt>
<wgt id='1021'> +1.5176067e-12 </wgt>
<wgt id='1022'> +1.4681312e-12 </wgt>
<wgt id='1023'> +1.4674280e-12 </wgt>
<wgt id='1024'> +1.5191016e-12 </wgt>
<wgt id='1025'> +1.4595208e-12 </wgt>
<wgt id='1026'> +1.9604633e-12 </wgt>
<wgt id='1027'> +1.8412277e-12 </wgt>
<wgt id='1028'> +1.8397224e-12 </wgt>
<wgt id='1029'> +1.9646747e-12 </wgt>
<wgt id='1030'> +1.8230322e-12 </wgt>
<wgt id='1031'> +1.3599452e-12 </wgt>
<wgt id='1032'> +1.3790256e-12 </wgt>
<wgt id='1033'> +1.3790386e-12 </wgt>
<wgt id='1034'> +1.3585291e-12 </wgt>
<wgt id='1035'> +1.3788333e-12 </wgt>
<wgt id='1036'> +1.2069958e-12 </wgt>
<wgt id='1037'> +1.2397778e-12 </wgt>
<wgt id='1038'> +1.2399739e-12 </wgt>
<wgt id='1039'> +1.2051396e-12 </wgt>
<wgt id='1040'> +1.2418191e-12 </wgt>
<wgt id='1041'> +1.5592123e-12 </wgt>
<wgt id='1042'> +1.5548427e-12 </wgt>
<wgt id='1043'> +1.5545619e-12 </wgt>
<wgt id='1044'> +1.5586234e-12 </wgt>
<wgt id='1045'> +1.5511092e-12 </wgt>
<wgt id='1046'> +1.5538000e-12 </wgt>
<wgt id='1047'> +1.7095482e-12 </wgt>
<wgt id='1048'> +1.5396878e-12 </wgt>
<wgt id='1049'> +1.6239599e-12 </wgt>
<wgt id='1050'> +1.6171664e-12 </wgt>
<wgt id='1051'> +1.5062490e-12 </wgt>
<wgt id='1052'> +1.5179646e-12 </wgt>
<wgt id='1053'> +1.5159787e-12 </wgt>
<wgt id='1054'> +1.5345590e-12 </wgt>
<wgt id='1055'> +1.4937549e-12 </wgt>
<wgt id='1056'> +1.5146687e-12 </wgt>
<wgt id='1057'> +1.5694063e-12 </wgt>
<wgt id='1058'> +1.5097967e-12 </wgt>
<wgt id='1059'> +1.5722468e-12 </wgt>
<wgt id='1060'> +1.5585327e-12 </wgt>
<wgt id='1061'> +1.5139539e-12 </wgt>
<wgt id='1062'> +1.5326047e-12 </wgt>
<wgt id='1063'> +1.5992572e-12 </wgt>
<wgt id='1064'> +1.5593726e-12 </wgt>
<wgt id='1065'> +1.6142120e-12 </wgt>
<wgt id='1066'> +1.5154117e-12 </wgt>
<wgt id='1067'> +1.5729517e-12 </wgt>
<wgt id='1068'> +1.6474377e-12 </wgt>
<wgt id='1069'> +1.5586165e-12 </wgt>
<wgt id='1070'> +1.5739078e-12 </wgt>
<wgt id='1071'> +1.5001332e-12 </wgt>
<wgt id='1072'> +1.5841957e-12 </wgt>
<wgt id='1073'> +1.7054779e-12 </wgt>
<wgt id='1074'> +1.5615436e-12 </wgt>
<wgt id='1075'> +1.4983054e-12 </wgt>
<wgt id='1076'> +1.5130309e-12 </wgt>
<wgt id='1077'> +1.6117858e-12 </wgt>
<wgt id='1078'> +1.5259423e-12 </wgt>
<wgt id='1079'> +1.6356999e-12 </wgt>
<wgt id='1080'> +1.5273452e-12 </wgt>
<wgt id='1081'> +1.5984119e-12 </wgt>
<wgt id='1082'> +1.5484679e-12 </wgt>
<wgt id='1083'> +1.5969864e-12 </wgt>
<wgt id='1084'> +1.5299770e-12 </wgt>
<wgt id='1085'> +1.5152936e-12 </wgt>
<wgt id='1086'> +1.5699535e-12 </wgt>
<wgt id='1087'> +1.6003878e-12 </wgt>
<wgt id='1088'> +1.5519438e-12 </wgt>
<wgt id='1089'> +1.6642798e-12 </wgt>
<wgt id='1090'> +1.5368914e-12 </wgt>
<wgt id='1091'> +1.5559835e-12 </wgt>
<wgt id='1092'> +1.5462241e-12 </wgt>
<wgt id='1093'> +1.5411954e-12 </wgt>
<wgt id='1094'> +1.5977605e-12 </wgt>
<wgt id='1095'> +1.5101370e-12 </wgt>
<wgt id='1096'> +1.5514289e-12 </wgt>
<wgt id='1097'> +1.5236981e-12 </wgt>
<wgt id='1098'> +1.4941984e-12 </wgt>
<wgt id='1099'> +1.5414390e-12 </wgt>
<wgt id='1100'> +1.6005026e-12 </wgt>
<wgt id='1101'> +1.6580369e-12 </wgt>
<wgt id='1102'> +1.5545582e-12 </wgt>
<wgt id='1103'> +1.5872582e-12 </wgt>
<wgt id='1104'> +1.5698492e-12 </wgt>
<wgt id='1105'> +1.4671403e-12 </wgt>
<wgt id='1106'> +1.5860174e-12 </wgt>
<wgt id='1107'> +1.5571311e-12 </wgt>
<wgt id='1108'> +1.5469181e-12 </wgt>
<wgt id='1109'> +1.5945906e-12 </wgt>
<wgt id='1110'> +1.5962554e-12 </wgt>
<wgt id='1111'> +1.5943927e-12 </wgt>
<wgt id='1112'> +1.4604714e-12 </wgt>
<wgt id='1113'> +1.6177722e-12 </wgt>
<wgt id='1114'> +1.5324797e-12 </wgt>
<wgt id='1115'> +1.4808436e-12 </wgt>
<wgt id='1116'> +1.5395590e-12 </wgt>
<wgt id='1117'> +1.5502708e-12 </wgt>
<wgt id='1118'> +1.5148845e-12 </wgt>
<wgt id='1119'> +1.4261691e-12 </wgt>
<wgt id='1120'> +1.5153958e-12 </wgt>
<wgt id='1121'> +1.4853383e-12 </wgt>
<wgt id='1122'> +1.6218735e-12 </wgt>
<wgt id='1123'> +1.5626555e-12 </wgt>
<wgt id='1124'> +1.5089682e-12 </wgt>
<wgt id='1125'> +1.5165562e-12 </wgt>
<wgt id='1126'> +1.6257489e-12 </wgt>
<wgt id='1127'> +1.6055804e-12 </wgt>
<wgt id='1128'> +1.5326047e-12 </wgt>
<wgt id='1129'> +1.5474373e-12 </wgt>
<wgt id='1130'> +1.5577653e-12 </wgt>
<wgt id='1131'> +1.5277901e-12 </wgt>
<wgt id='1132'> +1.5871512e-12 </wgt>
<wgt id='1133'> +1.5060480e-12 </wgt>
<wgt id='1134'> +1.6067553e-12 </wgt>
<wgt id='1135'> +1.3549391e-12 </wgt>
<wgt id='1136'> +1.5041331e-12 </wgt>
<wgt id='1137'> +1.5410238e-12 </wgt>
<wgt id='1138'> +1.3756577e-12 </wgt>
<wgt id='1139'> +1.5044394e-12 </wgt>
<wgt id='1140'> +1.5207195e-12 </wgt>
<wgt id='1141'> +1.5860007e-12 </wgt>
<wgt id='1142'> +1.5307060e-12 </wgt>
<wgt id='1143'> +1.6340686e-12 </wgt>
<wgt id='1144'> +1.5937247e-12 </wgt>
<wgt id='1145'> +1.5922579e-12 </wgt>
<wgt id='1146'> +1.5861557e-12 </wgt>
<wgt id='1147'> +1.2909620e-12 </wgt>
<wgt id='1148'> +1.3090147e-12 </wgt>
<wgt id='1149'> +1.2867039e-12 </wgt>
<wgt id='1150'> +1.3408831e-12 </wgt>
<wgt id='1151'> +1.5192029e-12 </wgt>
<wgt id='1152'> +1.9259328e-12 </wgt>
<wgt id='1153'> +1.9164809e-12 </wgt>
<wgt id='1154'> +1.9313877e-12 </wgt>
<wgt id='1155'> +1.9339062e-12 </wgt>
<wgt id='1156'> +1.9218550e-12 </wgt>
<wgt id='1157'> +1.9362776e-12 </wgt>
<wgt id='1158'> +1.9119000e-12 </wgt>
<wgt id='1159'> +1.9333331e-12 </wgt>
<wgt id='1160'> +1.9210664e-12 </wgt>
<wgt id='1161'> +1.9193553e-12 </wgt>
<wgt id='1162'> +1.9304095e-12 </wgt>
<wgt id='1163'> +1.9277186e-12 </wgt>
<wgt id='1164'> +1.9240880e-12 </wgt>
<wgt id='1165'> +1.9293134e-12 </wgt>
<wgt id='1166'> +1.9223922e-12 </wgt>
<wgt id='1167'> +1.9194320e-12 </wgt>
<wgt id='1168'> +1.9312442e-12 </wgt>
<wgt id='1169'> +1.9180120e-12 </wgt>
<wgt id='1170'> +1.9318606e-12 </wgt>
<wgt id='1171'> +1.9243890e-12 </wgt>
<wgt id='1172'> +1.9264457e-12 </wgt>
<wgt id='1173'> +1.9010890e-12 </wgt>
<wgt id='1174'> +1.9493786e-12 </wgt>
<wgt id='1175'> +1.9497764e-12 </wgt>
<wgt id='1176'> +1.9054848e-12 </wgt>
<wgt id='1177'> +1.9241414e-12 </wgt>
<wgt id='1178'> +1.9323953e-12 </wgt>
<wgt id='1179'> +1.9282935e-12 </wgt>
<wgt id='1180'> +1.9144099e-12 </wgt>
<wgt id='1181'> +1.9209547e-12 </wgt>
<wgt id='1182'> +1.9305105e-12 </wgt>
<wgt id='1183'> +1.9258107e-12 </wgt>
<wgt id='1184'> +1.9262981e-12 </wgt>
<wgt id='1185'> +1.9294041e-12 </wgt>
<wgt id='1186'> +1.9256546e-12 </wgt>
<wgt id='1187'> +1.9245141e-12 </wgt>
<wgt id='1188'> +1.9263979e-12 </wgt>
<wgt id='1189'> +1.9284079e-12 </wgt>
<wgt id='1190'> +1.9078320e-12 </wgt>
<wgt id='1191'> +1.9142139e-12 </wgt>
<wgt id='1192'> +1.9313609e-12 </wgt>
<wgt id='1193'> +1.4059778e-12 </wgt>
<wgt id='1194'> +1.4038453e-12 </wgt>
<wgt id='1195'> +1.4077341e-12 </wgt>
<wgt id='1196'> +1.4162432e-12 </wgt>
<wgt id='1197'> +1.3946397e-12 </wgt>
<wgt id='1198'> +1.4035121e-12 </wgt>
<wgt id='1199'> +1.4098068e-12 </wgt>
<wgt id='1200'> +1.4176865e-12 </wgt>
<wgt id='1201'> +1.3982217e-12 </wgt>
<wgt id='1202'> +1.4075675e-12 </wgt>
<wgt id='1203'> +1.4038417e-12 </wgt>
<wgt id='1204'> +1.4124150e-12 </wgt>
<wgt id='1205'> +1.4019620e-12 </wgt>
<wgt id='1206'> +1.4098860e-12 </wgt>
<wgt id='1207'> +1.4008054e-12 </wgt>
<wgt id='1208'> +1.4039007e-12 </wgt>
<wgt id='1209'> +1.4067752e-12 </wgt>
<wgt id='1210'> +1.4015785e-12 </wgt>
<wgt id='1211'> +1.4044778e-12 </wgt>
<wgt id='1212'> +1.4128312e-12 </wgt>
<wgt id='1213'> +1.3994935e-12 </wgt>
<wgt id='1214'> +1.3970079e-12 </wgt>
<wgt id='1215'> +1.4193336e-12 </wgt>
<wgt id='1216'> +1.4164300e-12 </wgt>
<wgt id='1217'> +1.3978322e-12 </wgt>
<wgt id='1218'> +1.4217481e-12 </wgt>
<wgt id='1219'> +1.3984254e-12 </wgt>
<wgt id='1220'> +1.4062764e-12 </wgt>
<wgt id='1221'> +1.4092217e-12 </wgt>
<wgt id='1222'> +1.4158470e-12 </wgt>
<wgt id='1223'> +1.3858037e-12 </wgt>
<wgt id='1224'> +1.4089476e-12 </wgt>
<wgt id='1225'> +1.4050142e-12 </wgt>
<wgt id='1226'> +1.4028515e-12 </wgt>
<wgt id='1227'> +1.4087086e-12 </wgt>
<wgt id='1228'> +1.4045884e-12 </wgt>
<wgt id='1229'> +1.4065125e-12 </wgt>
<wgt id='1230'> +1.4105826e-12 </wgt>
<wgt id='1231'> +1.3986637e-12 </wgt>
<wgt id='1232'> +1.4051561e-12 </wgt>
<wgt id='1233'> +1.4062018e-12 </wgt>
<wgt id='1234'> +1.4059778e-12 </wgt>
<wgt id='1235'> +1.3997547e-12 </wgt>
<wgt id='1236'> +1.4020093e-12 </wgt>
<wgt id='1237'> +1.4041297e-12 </wgt>
<wgt id='1238'> +1.4077063e-12 </wgt>
<wgt id='1239'> +1.4090891e-12 </wgt>
<wgt id='1240'> +1.4103679e-12 </wgt>
<wgt id='1241'> +1.3307087e-12 </wgt>
<wgt id='1242'> +1.3255060e-12 </wgt>
<wgt id='1243'> +1.3358574e-12 </wgt>
<wgt id='1244'> +1.3244673e-12 </wgt>
<wgt id='1245'> +1.3353352e-12 </wgt>
<wgt id='1246'> +1.3379849e-12 </wgt>
<wgt id='1247'> +1.3245898e-12 </wgt>
<wgt id='1248'> +1.3307755e-12 </wgt>
<wgt id='1249'> +1.3305889e-12 </wgt>
<wgt id='1250'> +1.3400284e-12 </wgt>
<wgt id='1251'> +1.3241111e-12 </wgt>
<wgt id='1252'> +1.3262284e-12 </wgt>
<wgt id='1253'> +1.3342059e-12 </wgt>
<wgt id='1254'> +1.3331882e-12 </wgt>
<wgt id='1255'> +1.3291024e-12 </wgt>
<wgt id='1256'> +1.3312458e-12 </wgt>
<wgt id='1257'> +1.3295236e-12 </wgt>
<wgt id='1258'> +1.3449704e-12 </wgt>
<wgt id='1259'> +1.3176202e-12 </wgt>
<wgt id='1260'> +1.3294903e-12 </wgt>
<wgt id='1261'> +1.3324670e-12 </wgt>
<wgt id='1262'> +1.3399239e-12 </wgt>
<wgt id='1263'> +1.3259096e-12 </wgt>
<wgt id='1264'> +1.3449114e-12 </wgt>
<wgt id='1265'> +1.3238764e-12 </wgt>
<wgt id='1266'> +1.3191561e-12 </wgt>
<wgt id='1267'> +1.3391148e-12 </wgt>
<wgt id='1268'> +1.3404427e-12 </wgt>
<wgt id='1269'> +1.3199009e-12 </wgt>
<wgt id='1270'> +1.3272356e-12 </wgt>
<wgt id='1271'> +1.3274694e-12 </wgt>
<wgt id='1272'> +1.3285220e-12 </wgt>
<wgt id='1273'> +1.3311141e-12 </wgt>
<wgt id='1274'> +1.3331250e-12 </wgt>
<wgt id='1275'> +1.3269972e-12 </wgt>
<wgt id='1276'> +1.3301658e-12 </wgt>
<wgt id='1277'> +1.3303945e-12 </wgt>
<wgt id='1278'> +1.3250450e-12 </wgt>
<wgt id='1279'> +1.3356822e-12 </wgt>
<wgt id='1280'> +1.3294519e-12 </wgt>
<wgt id='1281'> +1.3376571e-12 </wgt>
<wgt id='1282'> +1.3307087e-12 </wgt>
<wgt id='1283'> +1.3249664e-12 </wgt>
<wgt id='1284'> +1.3271007e-12 </wgt>
<wgt id='1285'> +1.3291405e-12 </wgt>
<wgt id='1286'> +1.3323246e-12 </wgt>
<wgt id='1287'> +1.3335394e-12 </wgt>
<wgt id='1288'> +1.3345873e-12 </wgt>
<wgt id='1289'> +1.4540116e-12 </wgt>
<wgt id='1290'> +1.4484253e-12 </wgt>
<wgt id='1291'> +1.4600020e-12 </wgt>
<wgt id='1292'> +1.4536713e-12 </wgt>
<wgt id='1293'> +1.4542714e-12 </wgt>
<wgt id='1294'> +1.4442297e-12 </wgt>
<wgt id='1295'> +1.4635457e-12 </wgt>
<wgt id='1296'> +1.4521744e-12 </wgt>
<wgt id='1297'> +1.4563058e-12 </wgt>
<wgt id='1298'> +1.4513514e-12 </wgt>
<wgt id='1299'> +1.4573058e-12 </wgt>
<wgt id='1300'> +1.4532604e-12 </wgt>
<wgt id='1301'> +1.4555158e-12 </wgt>
<wgt id='1302'> +1.4579923e-12 </wgt>
<wgt id='1303'> +1.4485328e-12 </wgt>
<wgt id='1304'> +1.4410214e-12 </wgt>
<wgt id='1305'> +1.4629627e-12 </wgt>
<wgt id='1306'> +1.4531273e-12 </wgt>
<wgt id='1307'> +1.4551185e-12 </wgt>
<wgt id='1308'> +1.4354876e-12 </wgt>
<wgt id='1309'> +1.4681352e-12 </wgt>
<wgt id='1310'> +1.4503372e-12 </wgt>
<wgt id='1311'> +1.4580375e-12 </wgt>
<wgt id='1312'> +1.4426724e-12 </wgt>
<wgt id='1313'> +1.4655271e-12 </wgt>
<wgt id='1314'> +1.4486014e-12 </wgt>
<wgt id='1315'> +1.4556050e-12 </wgt>
<wgt id='1316'> +1.4564442e-12 </wgt>
<wgt id='1317'> +1.4566667e-12 </wgt>
<wgt id='1318'> +1.4540750e-12 </wgt>
<wgt id='1319'> +1.4532373e-12 </wgt>
<wgt id='1320'> +1.4930838e-12 </wgt>
<wgt id='1321'> +1.4249730e-12 </wgt>
<wgt id='1322'> +1.4547493e-12 </wgt>
<wgt id='1323'> +1.4514707e-12 </wgt>
<wgt id='1324'> +1.4546419e-12 </wgt>
<wgt id='1325'> +1.4561794e-12 </wgt>
<wgt id='1326'> +1.4536247e-12 </wgt>
<wgt id='1327'> +1.4562412e-12 </wgt>
<wgt id='1328'> +1.4504801e-12 </wgt>
<wgt id='1329'> +1.4568239e-12 </wgt>
<wgt id='1330'> +1.4358047e-12 </wgt>
<wgt id='1331'> +1.4861866e-12 </wgt>
<wgt id='1332'> +1.4628248e-12 </wgt>
<wgt id='1333'> +1.4495387e-12 </wgt>
<wgt id='1334'> +1.4457451e-12 </wgt>
<wgt id='1335'> +1.4777561e-12 </wgt>
<wgt id='1336'> +1.4542203e-12 </wgt>
<wgt id='1337'> +1.4528048e-12 </wgt>
<wgt id='1338'> +1.4566832e-12 </wgt>
<wgt id='1339'> +1.4539777e-12 </wgt>
<wgt id='1340'> +1.4381315e-12 </wgt>
<wgt id='1341'> +1.4324424e-12 </wgt>
<wgt id='1342'> +1.4442873e-12 </wgt>
<wgt id='1343'> +1.4377788e-12 </wgt>
<wgt id='1344'> +1.4384381e-12 </wgt>
<wgt id='1345'> +1.4282825e-12 </wgt>
<wgt id='1346'> +1.4474739e-12 </wgt>
<wgt id='1347'> +1.4368122e-12 </wgt>
<wgt id='1348'> +1.4396010e-12 </wgt>
<wgt id='1349'> +1.4357992e-12 </wgt>
<wgt id='1350'> +1.4404303e-12 </wgt>
<wgt id='1351'> +1.4372042e-12 </wgt>
<wgt id='1352'> +1.4402065e-12 </wgt>
<wgt id='1353'> +1.4419288e-12 </wgt>
<wgt id='1354'> +1.4313856e-12 </wgt>
<wgt id='1355'> +1.4233364e-12 </wgt>
<wgt id='1356'> +1.4465925e-12 </wgt>
<wgt id='1357'> +1.4326357e-12 </wgt>
<wgt id='1358'> +1.4447156e-12 </wgt>
<wgt id='1359'> +1.4215797e-12 </wgt>
<wgt id='1360'> +1.4524685e-12 </wgt>
<wgt id='1361'> +1.4350236e-12 </wgt>
<wgt id='1362'> +1.4423959e-12 </wgt>
<wgt id='1363'> +1.4236081e-12 </wgt>
<wgt id='1364'> +1.4483282e-12 </wgt>
<wgt id='1365'> +1.4370978e-12 </wgt>
<wgt id='1366'> +1.4334118e-12 </wgt>
<wgt id='1367'> +1.4408520e-12 </wgt>
<wgt id='1368'> +1.4397668e-12 </wgt>
<wgt id='1369'> +1.4361715e-12 </wgt>
<wgt id='1370'> +1.4399363e-12 </wgt>
<wgt id='1371'> +1.4665631e-12 </wgt>
<wgt id='1372'> +1.4062274e-12 </wgt>
<wgt id='1373'> +1.4337061e-12 </wgt>
<wgt id='1374'> +1.4403525e-12 </wgt>
<wgt id='1375'> +1.4382812e-12 </wgt>
<wgt id='1376'> +1.4412514e-12 </wgt>
<wgt id='1377'> +1.4381598e-12 </wgt>
<wgt id='1378'> +1.4402809e-12 </wgt>
<wgt id='1379'> +1.4344732e-12 </wgt>
<wgt id='1380'> +1.4415512e-12 </wgt>
<wgt id='1381'> +1.4202356e-12 </wgt>
<wgt id='1382'> +1.4677223e-12 </wgt>
<wgt id='1383'> +1.4517156e-12 </wgt>
<wgt id='1384'> +1.4327776e-12 </wgt>
<wgt id='1385'> +1.4295542e-12 </wgt>
<wgt id='1386'> +1.4612857e-12 </wgt>
<wgt id='1387'> +1.4368230e-12 </wgt>
<wgt id='1388'> +1.4398080e-12 </wgt>
<wgt id='1389'> +1.4394807e-12 </wgt>
<wgt id='1390'> +1.4391411e-12 </wgt>
<wgt id='1391'> +1.3962717e-12 </wgt>
<wgt id='1392'> +1.3729992e-12 </wgt>
<wgt id='1393'> +1.3822409e-12 </wgt>
<wgt id='1394'> +1.3897518e-12 </wgt>
<wgt id='1395'> +1.4055459e-12 </wgt>
<wgt id='1396'> +1.3976924e-12 </wgt>
<wgt id='1397'> +1.3575491e-12 </wgt>
<wgt id='1398'> +1.3661372e-12 </wgt>
<wgt id='1399'> +1.3745135e-12 </wgt>
<wgt id='1400'> +1.3823640e-12 </wgt>
<wgt id='1401'> +1.3900572e-12 </wgt>
<wgt id='1402'> +1.4054339e-12 </wgt>
<wgt id='1403'> +1.4130424e-12 </wgt>
<wgt id='1404'> +1.4207049e-12 </wgt>
<wgt id='1405'> +1.3976924e-12 </wgt>
<wgt id='1406'> +1.3948208e-12 </wgt>
<wgt id='1407'> +1.3964144e-12 </wgt>
<wgt id='1408'> +1.3989328e-12 </wgt>
<wgt id='1409'> +1.4005852e-12 </wgt>
<wgt id='1410'> +1.3237376e-12 </wgt>
<wgt id='1411'> +1.3192748e-12 </wgt>
<wgt id='1412'> +1.3295158e-12 </wgt>
<wgt id='1413'> +1.3188879e-12 </wgt>
<wgt id='1414'> +1.3286004e-12 </wgt>
<wgt id='1415'> +1.3226208e-12 </wgt>
<wgt id='1416'> +1.3242236e-12 </wgt>
<wgt id='1417'> +1.3158424e-12 </wgt>
<wgt id='1418'> +1.3317487e-12 </wgt>
<wgt id='1419'> +1.3224022e-12 </wgt>
<wgt id='1420'> +1.3250528e-12 </wgt>
<wgt id='1421'> +1.3232075e-12 </wgt>
<wgt id='1422'> +1.3239753e-12 </wgt>
<wgt id='1423'> +1.3301769e-12 </wgt>
<wgt id='1424'> +1.3159455e-12 </wgt>
<wgt id='1425'> +1.3209280e-12 </wgt>
<wgt id='1426'> +1.3267537e-12 </wgt>
<wgt id='1427'> +1.2981241e-12 </wgt>
<wgt id='1428'> +1.3379311e-12 </wgt>
<wgt id='1429'> +1.3362138e-12 </wgt>
<wgt id='1430'> +1.3069798e-12 </wgt>
<wgt id='1431'> +1.3217056e-12 </wgt>
<wgt id='1432'> +1.3251888e-12 </wgt>
<wgt id='1433'> +1.3183338e-12 </wgt>
<wgt id='1434'> +1.3277298e-12 </wgt>
<wgt id='1435'> +1.3272525e-12 </wgt>
<wgt id='1436'> +1.3152801e-12 </wgt>
<wgt id='1437'> +1.3288367e-12 </wgt>
<wgt id='1438'> +1.3233641e-12 </wgt>
<wgt id='1439'> +1.3184547e-12 </wgt>
<wgt id='1440'> +1.3359689e-12 </wgt>
<wgt id='1441'> +1.3401023e-12 </wgt>
<wgt id='1442'> +1.2916945e-12 </wgt>
<wgt id='1443'> +1.3188649e-12 </wgt>
<wgt id='1444'> +1.3323730e-12 </wgt>
<wgt id='1445'> +1.3245550e-12 </wgt>
<wgt id='1446'> +1.3244578e-12 </wgt>
<wgt id='1447'> +1.3207716e-12 </wgt>
<wgt id='1448'> +1.3299513e-12 </wgt>
<wgt id='1449'> +1.3211859e-12 </wgt>
<wgt id='1450'> +1.3249720e-12 </wgt>
<wgt id='1451'> +1.3409310e-12 </wgt>
<wgt id='1452'> +1.2983772e-12 </wgt>
<wgt id='1453'> +1.3245809e-12 </wgt>
<wgt id='1454'> +1.3258449e-12 </wgt>
<wgt id='1455'> +1.3212251e-12 </wgt>
<wgt id='1456'> +1.3282923e-12 </wgt>
<wgt id='1457'> +1.3405262e-12 </wgt>
<wgt id='1458'> +1.3164553e-12 </wgt>
<wgt id='1459'> +1.3251200e-12 </wgt>
<wgt id='1460'> +1.3218066e-12 </wgt>
<wgt id='1461'> +1.3237376e-12 </wgt>
<wgt id='1462'> +1.3211203e-12 </wgt>
<wgt id='1463'> +1.3297053e-12 </wgt>
<wgt id='1464'> +1.3247515e-12 </wgt>
<wgt id='1465'> +1.2855471e-12 </wgt>
<wgt id='1466'> +1.2948948e-12 </wgt>
<wgt id='1467'> +1.3031170e-12 </wgt>
<wgt id='1468'> +1.3095249e-12 </wgt>
<wgt id='1469'> +1.3179235e-12 </wgt>
<wgt id='1470'> +1.3315596e-12 </wgt>
<wgt id='1471'> +1.3357972e-12 </wgt>
<wgt id='1472'> +1.3421523e-12 </wgt>
<wgt id='1473'> +1.3247515e-12 </wgt>
<wgt id='1474'> +1.3219718e-12 </wgt>
<wgt id='1475'> +1.3230317e-12 </wgt>
<wgt id='1476'> +1.3259378e-12 </wgt>
<wgt id='1477'> +1.3270848e-12 </wgt>
<wgt id='1478'> +1.3468211e-12 </wgt>
<wgt id='1479'> +1.3436541e-12 </wgt>
<wgt id='1480'> +1.3476114e-12 </wgt>
<wgt id='1481'> +1.3472521e-12 </wgt>
<wgt id='1482'> +1.3472070e-12 </wgt>
<wgt id='1483'> +1.3324277e-12 </wgt>
<wgt id='1484'> +1.3526856e-12 </wgt>
<wgt id='1485'> +1.3488779e-12 </wgt>
<wgt id='1486'> +1.3489698e-12 </wgt>
<wgt id='1487'> +1.3108369e-12 </wgt>
<wgt id='1488'> +1.3451306e-12 </wgt>
<wgt id='1489'> +1.3535787e-12 </wgt>
<wgt id='1490'> +1.3433799e-12 </wgt>
<wgt id='1491'> +1.3514081e-12 </wgt>
<wgt id='1492'> +1.3475222e-12 </wgt>
<wgt id='1493'> +1.3293276e-12 </wgt>
<wgt id='1494'> +1.3458910e-12 </wgt>
<wgt id='1495'> +1.3491778e-12 </wgt>
<wgt id='1496'> +1.3499345e-12 </wgt>
<wgt id='1497'> +1.3318673e-12 </wgt>
<wgt id='1498'> +1.3464574e-12 </wgt>
<wgt id='1499'> +1.3467147e-12 </wgt>
<wgt id='1500'> +1.3474520e-12 </wgt>
<wgt id='1501'> +1.3474637e-12 </wgt>
<wgt id='1502'> +1.3496385e-12 </wgt>
<wgt id='1503'> +1.3467638e-12 </wgt>
<wgt id='1504'> +1.3283847e-12 </wgt>
<wgt id='1505'> +1.3456259e-12 </wgt>
<wgt id='1506'> +1.3454499e-12 </wgt>
<wgt id='1507'> +1.3438873e-12 </wgt>
<wgt id='1508'> +1.3515670e-12 </wgt>
<wgt id='1509'> +1.3777260e-12 </wgt>
<wgt id='1510'> +1.3740345e-12 </wgt>
<wgt id='1511'> +1.3820460e-12 </wgt>
<wgt id='1512'> +1.3766043e-12 </wgt>
<wgt id='1513'> +1.3801131e-12 </wgt>
<wgt id='1514'> +1.3823638e-12 </wgt>
<wgt id='1515'> +1.3800676e-12 </wgt>
<wgt id='1516'> +1.3844833e-12 </wgt>
<wgt id='1517'> +1.3896439e-12 </wgt>
<wgt id='1518'> +1.3850400e-12 </wgt>
<wgt id='1519'> +1.3710435e-12 </wgt>
<wgt id='1520'> +1.3830507e-12 </wgt>
<wgt id='1521'> +1.3837381e-12 </wgt>
<wgt id='1522'> +1.3766045e-12 </wgt>
<wgt id='1523'> +1.3845673e-12 </wgt>
<wgt id='1524'> +1.3747670e-12 </wgt>
<wgt id='1525'> +1.3843268e-12 </wgt>
<wgt id='1526'> +1.3742776e-12 </wgt>
<wgt id='1527'> +1.3741427e-12 </wgt>
<wgt id='1528'> +1.3840856e-12 </wgt>
<wgt id='1529'> +1.3772875e-12 </wgt>
<wgt id='1530'> +1.3843027e-12 </wgt>
<wgt id='1531'> +1.3774684e-12 </wgt>
<wgt id='1532'> +1.3741458e-12 </wgt>
<wgt id='1533'> +1.3704424e-12 </wgt>
<wgt id='1534'> +1.3787678e-12 </wgt>
<wgt id='1535'> +1.3648225e-12 </wgt>
<wgt id='1536'> +1.3727484e-12 </wgt>
<wgt id='1537'> +1.3799302e-12 </wgt>
<wgt id='1538'> +1.3800226e-12 </wgt>
<wgt id='1539'> +1.3686183e-12 </wgt>
<wgt id='1540'> +1.3853684e-12 </wgt>
<wgt id='1541'> +1.3837690e-12 </wgt>
<wgt id='1542'> +1.3835557e-12 </wgt>
<wgt id='1543'> +1.3710807e-12 </wgt>
<wgt id='1544'> +1.3994128e-12 </wgt>
<wgt id='1545'> +1.3845847e-12 </wgt>
<wgt id='1546'> +1.3611989e-12 </wgt>
<wgt id='1547'> +1.3848072e-12 </wgt>
<wgt id='1548'> +1.3726454e-12 </wgt>
<wgt id='1549'> +1.3783280e-12 </wgt>
<wgt id='1550'> +1.3789572e-12 </wgt>
<wgt id='1551'> +1.3842659e-12 </wgt>
<wgt id='1552'> +1.3747851e-12 </wgt>
<wgt id='1553'> +1.3826703e-12 </wgt>
<wgt id='1554'> +1.3709704e-12 </wgt>
<wgt id='1555'> +1.3741321e-12 </wgt>
<wgt id='1556'> +1.3738211e-12 </wgt>
<wgt id='1557'> +1.3788110e-12 </wgt>
<wgt id='1558'> +1.3801257e-12 </wgt>
<wgt id='1559'> +1.3754456e-12 </wgt>
<wgt id='1560'> +1.3805620e-12 </wgt>
<wgt id='1561'> +1.3715268e-12 </wgt>
<wgt id='1562'> +1.3775067e-12 </wgt>
<wgt id='1563'> +1.3804739e-12 </wgt>
<wgt id='1564'> +1.3808448e-12 </wgt>
<wgt id='1565'> +1.3832979e-12 </wgt>
<wgt id='1566'> +1.3775181e-12 </wgt>
<wgt id='1567'> +1.3854812e-12 </wgt>
<wgt id='1568'> +1.3757079e-12 </wgt>
<wgt id='1569'> +1.3726362e-12 </wgt>
<wgt id='1570'> +1.3766242e-12 </wgt>
<wgt id='1571'> +1.3768495e-12 </wgt>
<wgt id='1572'> +1.3774605e-12 </wgt>
<wgt id='1573'> +1.3746345e-12 </wgt>
<wgt id='1574'> +1.3808487e-12 </wgt>
<wgt id='1575'> +1.3743900e-12 </wgt>
<wgt id='1576'> +1.3782893e-12 </wgt>
<wgt id='1577'> +1.3782991e-12 </wgt>
<wgt id='1578'> +1.3747602e-12 </wgt>
<wgt id='1579'> +1.3787495e-12 </wgt>
<wgt id='1580'> +1.3766669e-12 </wgt>
<wgt id='1581'> +1.3765160e-12 </wgt>
<wgt id='1582'> +1.3793820e-12 </wgt>
<wgt id='1583'> +1.3775787e-12 </wgt>
<wgt id='1584'> +1.3747134e-12 </wgt>
<wgt id='1585'> +1.3793739e-12 </wgt>
<wgt id='1586'> +1.3770329e-12 </wgt>
<wgt id='1587'> +1.3769614e-12 </wgt>
<wgt id='1588'> +1.3800232e-12 </wgt>
<wgt id='1589'> +1.3733090e-12 </wgt>
<wgt id='1590'> +1.3795075e-12 </wgt>
<wgt id='1591'> +1.3784771e-12 </wgt>
<wgt id='1592'> +1.3794122e-12 </wgt>
<wgt id='1593'> +1.3762409e-12 </wgt>
<wgt id='1594'> +1.3787846e-12 </wgt>
<wgt id='1595'> +1.3760794e-12 </wgt>
<wgt id='1596'> +1.3790757e-12 </wgt>
<wgt id='1597'> +1.3793810e-12 </wgt>
<wgt id='1598'> +1.3775555e-12 </wgt>
<wgt id='1599'> +1.3791281e-12 </wgt>
<wgt id='1600'> +1.3789629e-12 </wgt>
<wgt id='1601'> +1.3783189e-12 </wgt>
<wgt id='1602'> +1.3782102e-12 </wgt>
<wgt id='1603'> +1.3778471e-12 </wgt>
<wgt id='1604'> +1.3778729e-12 </wgt>
<wgt id='1605'> +1.3777928e-12 </wgt>
<wgt id='1606'> +1.3781664e-12 </wgt>
<wgt id='1607'> +1.3761973e-12 </wgt>
<wgt id='1608'> +1.3763791e-12 </wgt>
<wgt id='1609'> +1.3772739e-12 </wgt>
<wgt id='1610'> +1.3778872e-12 </wgt>
<wgt id='1611'> +1.3819324e-12 </wgt>
<wgt id='1612'> +1.5713828e-12 </wgt>
<wgt id='1613'> +1.6729611e-12 </wgt>
<wgt id='1614'> +1.5722441e-12 </wgt>
<wgt id='1615'> +1.5460016e-12 </wgt>
<wgt id='1616'> +1.5583529e-12 </wgt>
<wgt id='1617'> +1.5558013e-12 </wgt>
<wgt id='1618'> +1.6190700e-12 </wgt>
<wgt id='1619'> +1.6391551e-12 </wgt>
<wgt id='1620'> +1.5284929e-12 </wgt>
<wgt id='1621'> +1.6075922e-12 </wgt>
<wgt id='1622'> +1.5685029e-12 </wgt>
<wgt id='1623'> +1.5645313e-12 </wgt>
<wgt id='1624'> +1.5778899e-12 </wgt>
<wgt id='1625'> +1.6040287e-12 </wgt>
<wgt id='1626'> +1.5490096e-12 </wgt>
<wgt id='1627'> +1.5833161e-12 </wgt>
<wgt id='1628'> +1.6548550e-12 </wgt>
<wgt id='1629'> +1.5606592e-12 </wgt>
<wgt id='1630'> +1.5480265e-12 </wgt>
<wgt id='1631'> +1.5695872e-12 </wgt>
<wgt id='1632'> +1.5726257e-12 </wgt>
<wgt id='1633'> +1.4811783e-12 </wgt>
<wgt id='1634'> +1.6564193e-12 </wgt>
<wgt id='1635'> +1.4933981e-12 </wgt>
<wgt id='1636'> +1.5951364e-12 </wgt>
<wgt id='1637'> +1.5397301e-12 </wgt>
<wgt id='1638'> +1.5892018e-12 </wgt>
<wgt id='1639'> +1.5256476e-12 </wgt>
<wgt id='1640'> +1.5975174e-12 </wgt>
<wgt id='1641'> +1.5641356e-12 </wgt>
<wgt id='1642'> +1.5558168e-12 </wgt>
<wgt id='1643'> +1.6189297e-12 </wgt>
<wgt id='1644'> +1.4866789e-12 </wgt>
<wgt id='1645'> +1.5944021e-12 </wgt>
<wgt id='1646'> +1.5468431e-12 </wgt>
<wgt id='1647'> +1.5647386e-12 </wgt>
<wgt id='1648'> +1.5770865e-12 </wgt>
<wgt id='1649'> +1.6672675e-12 </wgt>
<wgt id='1650'> +1.5770026e-12 </wgt>
<wgt id='1651'> +1.4780386e-12 </wgt>
<wgt id='1652'> +1.5837437e-12 </wgt>
<wgt id='1653'> +1.6211320e-12 </wgt>
<wgt id='1654'> +1.5963607e-12 </wgt>
<wgt id='1655'> +1.5591263e-12 </wgt>
<wgt id='1656'> +1.5871014e-12 </wgt>
<wgt id='1657'> +1.6172131e-12 </wgt>
<wgt id='1658'> +1.4620151e-12 </wgt>
<wgt id='1659'> +1.5778899e-12 </wgt>
<wgt id='1660'> +1.6488165e-12 </wgt>
<wgt id='1661'> +1.5777344e-12 </wgt>
<wgt id='1662'> +1.5921017e-12 </wgt>
<wgt id='1663'> +1.5129679e-12 </wgt>
<wgt id='1664'> +1.6322468e-12 </wgt>
<wgt id='1665'> +1.4874295e-12 </wgt>
<wgt id='1666'> +1.5448097e-12 </wgt>
<wgt id='1667'> +1.5940935e-12 </wgt>
<wgt id='1668'> +1.6215299e-12 </wgt>
<wgt id='1669'> +1.5920028e-12 </wgt>
<wgt id='1670'> +1.5822079e-12 </wgt>
<wgt id='1671'> +1.6173651e-12 </wgt>
<wgt id='1672'> +1.6226023e-12 </wgt>
<wgt id='1673'> +1.4728276e-12 </wgt>
<wgt id='1674'> +1.5661142e-12 </wgt>
<wgt id='1675'> +1.6239764e-12 </wgt>
<wgt id='1676'> +1.6295992e-12 </wgt>
<wgt id='1677'> +1.5519205e-12 </wgt>
<wgt id='1678'> +1.5225970e-12 </wgt>
<wgt id='1679'> +1.5416017e-12 </wgt>
<wgt id='1680'> +1.6730577e-12 </wgt>
<wgt id='1681'> +1.5514710e-12 </wgt>
<wgt id='1682'> +1.6010745e-12 </wgt>
<wgt id='1683'> +1.5120055e-12 </wgt>
<wgt id='1684'> +1.5713838e-12 </wgt>
<wgt id='1685'> +1.6035042e-12 </wgt>
<wgt id='1686'> +1.6020547e-12 </wgt>
<wgt id='1687'> +1.5726155e-12 </wgt>
<wgt id='1688'> +1.5054601e-12 </wgt>
<wgt id='1689'> +1.4896921e-12 </wgt>
<wgt id='1690'> +1.5630184e-12 </wgt>
<wgt id='1691'> +1.6108653e-12 </wgt>
<wgt id='1692'> +1.5243443e-12 </wgt>
<wgt id='1693'> +1.5696418e-12 </wgt>
<wgt id='1694'> +1.6074322e-12 </wgt>
<wgt id='1695'> +1.5268054e-12 </wgt>
<wgt id='1696'> +1.5513396e-12 </wgt>
<wgt id='1697'> +1.5266576e-12 </wgt>
<wgt id='1698'> +1.5639691e-12 </wgt>
<wgt id='1699'> +1.5712499e-12 </wgt>
<wgt id='1700'> +1.5154509e-12 </wgt>
<wgt id='1701'> +1.5490291e-12 </wgt>
<wgt id='1702'> +1.6467772e-12 </wgt>
<wgt id='1703'> +1.5713478e-12 </wgt>
<wgt id='1704'> +1.5960634e-12 </wgt>
<wgt id='1705'> +1.4820322e-12 </wgt>
<wgt id='1706'> +1.5826388e-12 </wgt>
<wgt id='1707'> +1.5892928e-12 </wgt>
<wgt id='1708'> +1.5381760e-12 </wgt>
<wgt id='1709'> +1.5751152e-12 </wgt>
<wgt id='1710'> +1.5150426e-12 </wgt>
<wgt id='1711'> +1.6058735e-12 </wgt>
<wgt id='1712'> +1.5693088e-12 </wgt>
<wgt id='1713'> +1.3196152e-12 </wgt>
<wgt id='1714'> +1.2350044e-12 </wgt>
<wgt id='1715'> +1.2915686e-12 </wgt>
<wgt id='1716'> +1.3283148e-12 </wgt>
<wgt id='1717'> +1.3094501e-12 </wgt>
<wgt id='1718'> +1.3940431e-12 </wgt>
<wgt id='1719'> +1.2727963e-12 </wgt>
<wgt id='1720'> +1.3022650e-12 </wgt>
<wgt id='1721'> +1.2967774e-12 </wgt>
<wgt id='1722'> +1.3505327e-12 </wgt>
<wgt id='1723'> +1.3459484e-12 </wgt>
<wgt id='1724'> +1.2989153e-12 </wgt>
<wgt id='1725'> +1.3316520e-12 </wgt>
<wgt id='1726'> +1.3508609e-12 </wgt>
<wgt id='1727'> +1.3274407e-12 </wgt>
<wgt id='1728'> +1.3135767e-12 </wgt>
<wgt id='1729'> +1.4045611e-12 </wgt>
<wgt id='1730'> +1.2878003e-12 </wgt>
<wgt id='1731'> +1.2742450e-12 </wgt>
<wgt id='1732'> +1.3172429e-12 </wgt>
<wgt id='1733'> +1.3877990e-12 </wgt>
<wgt id='1734'> +1.3501441e-12 </wgt>
<wgt id='1735'> +1.3120329e-12 </wgt>
<wgt id='1736'> +1.4237645e-12 </wgt>
<wgt id='1737'> +1.4220020e-12 </wgt>
<wgt id='1738'> +1.3387463e-12 </wgt>
<wgt id='1739'> +1.3117218e-12 </wgt>
<wgt id='1740'> +1.3026980e-12 </wgt>
<wgt id='1741'> +1.3260156e-12 </wgt>
<wgt id='1742'> +1.2976666e-12 </wgt>
<wgt id='1743'> +1.3365766e-12 </wgt>
<wgt id='1744'> +1.3865155e-12 </wgt>
<wgt id='1745'> +1.3238033e-12 </wgt>
<wgt id='1746'> +1.3342425e-12 </wgt>
<wgt id='1747'> +1.3631602e-12 </wgt>
<wgt id='1748'> +1.3311920e-12 </wgt>
<wgt id='1749'> +1.3173294e-12 </wgt>
<wgt id='1750'> +1.3377559e-12 </wgt>
<wgt id='1751'> +1.3281639e-12 </wgt>
<wgt id='1752'> +1.2674070e-12 </wgt>
<wgt id='1753'> +1.3358545e-12 </wgt>
<wgt id='1754'> +1.2351775e-12 </wgt>
<wgt id='1755'> +1.3075744e-12 </wgt>
<wgt id='1756'> +1.3319994e-12 </wgt>
<wgt id='1757'> +1.3253085e-12 </wgt>
<wgt id='1758'> +1.3131535e-12 </wgt>
<wgt id='1759'> +1.2671225e-12 </wgt>
<wgt id='1760'> +1.2836862e-12 </wgt>
<wgt id='1761'> +1.3034087e-12 </wgt>
<wgt id='1762'> +1.3410432e-12 </wgt>
<wgt id='1763'> +1.3080338e-12 </wgt>
<wgt id='1764'> +1.2865143e-12 </wgt>
<wgt id='1765'> +1.3215420e-12 </wgt>
<wgt id='1766'> +1.3995866e-12 </wgt>
<wgt id='1767'> +1.3260467e-12 </wgt>
<wgt id='1768'> +1.3506189e-12 </wgt>
<wgt id='1769'> +1.2484893e-12 </wgt>
<wgt id='1770'> +1.2471925e-12 </wgt>
<wgt id='1771'> +1.2837577e-12 </wgt>
<wgt id='1772'> +1.3701829e-12 </wgt>
<wgt id='1773'> +1.3107111e-12 </wgt>
<wgt id='1774'> +1.3067486e-12 </wgt>
<wgt id='1775'> +1.3235488e-12 </wgt>
<wgt id='1776'> +1.3653720e-12 </wgt>
<wgt id='1777'> +1.2271808e-12 </wgt>
<wgt id='1778'> +1.3093645e-12 </wgt>
<wgt id='1779'> +1.3756743e-12 </wgt>
<wgt id='1780'> +1.2796358e-12 </wgt>
<wgt id='1781'> +1.2987795e-12 </wgt>
<wgt id='1782'> +1.3273729e-12 </wgt>
<wgt id='1783'> +1.3946890e-12 </wgt>
<wgt id='1784'> +1.3149835e-12 </wgt>
<wgt id='1785'> +1.3659854e-12 </wgt>
<wgt id='1786'> +1.2518621e-12 </wgt>
<wgt id='1787'> +1.3800157e-12 </wgt>
<wgt id='1788'> +1.2792890e-12 </wgt>
<wgt id='1789'> +1.3689879e-12 </wgt>
<wgt id='1790'> +1.3437009e-12 </wgt>
<wgt id='1791'> +1.3243509e-12 </wgt>
<wgt id='1792'> +1.2876070e-12 </wgt>
<wgt id='1793'> +1.3692120e-12 </wgt>
<wgt id='1794'> +1.3262075e-12 </wgt>
<wgt id='1795'> +1.3106249e-12 </wgt>
<wgt id='1796'> +1.2604552e-12 </wgt>
<wgt id='1797'> +1.3248871e-12 </wgt>
<wgt id='1798'> +1.3246206e-12 </wgt>
<wgt id='1799'> +1.3028041e-12 </wgt>
<wgt id='1800'> +1.2849639e-12 </wgt>
<wgt id='1801'> +1.2593619e-12 </wgt>
<wgt id='1802'> +1.3150805e-12 </wgt>
<wgt id='1803'> +1.3604060e-12 </wgt>
<wgt id='1804'> +1.2884908e-12 </wgt>
<wgt id='1805'> +1.3703491e-12 </wgt>
<wgt id='1806'> +1.3090413e-12 </wgt>
<wgt id='1807'> +1.3221750e-12 </wgt>
<wgt id='1808'> +1.2594736e-12 </wgt>
<wgt id='1809'> +1.2873889e-12 </wgt>
<wgt id='1810'> +1.3681420e-12 </wgt>
<wgt id='1811'> +1.3275283e-12 </wgt>
<wgt id='1812'> +1.2963351e-12 </wgt>
<wgt id='1813'> +1.2490183e-12 </wgt>
<wgt id='1814'> +1.5735340e-12 </wgt>
<wgt id='1815'> +1.7586264e-12 </wgt>
<wgt id='1816'> +1.3196152e-12 </wgt>
<wgt id='1817'> +1.2350044e-12 </wgt>
<wgt id='1818'> +1.2915686e-12 </wgt>
<wgt id='1819'> +1.3283148e-12 </wgt>
<wgt id='1820'> +1.3094501e-12 </wgt>
<wgt id='1821'> +1.3940431e-12 </wgt>
<wgt id='1822'> +1.2727963e-12 </wgt>
<wgt id='1823'> +1.3022650e-12 </wgt>
<wgt id='1824'> +1.2967774e-12 </wgt>
<wgt id='1825'> +1.3505327e-12 </wgt>
<wgt id='1826'> +1.3459484e-12 </wgt>
<wgt id='1827'> +1.2989153e-12 </wgt>
<wgt id='1828'> +1.3316520e-12 </wgt>
<wgt id='1829'> +1.3508609e-12 </wgt>
<wgt id='1830'> +1.3274407e-12 </wgt>
<wgt id='1831'> +1.3135767e-12 </wgt>
<wgt id='1832'> +1.4045611e-12 </wgt>
<wgt id='1833'> +1.2878003e-12 </wgt>
<wgt id='1834'> +1.2742450e-12 </wgt>
<wgt id='1835'> +1.3172429e-12 </wgt>
<wgt id='1836'> +1.3877990e-12 </wgt>
<wgt id='1837'> +1.3501441e-12 </wgt>
<wgt id='1838'> +1.3120329e-12 </wgt>
<wgt id='1839'> +1.4237645e-12 </wgt>
<wgt id='1840'> +1.4220020e-12 </wgt>
<wgt id='1841'> +1.3387463e-12 </wgt>
<wgt id='1842'> +1.3117218e-12 </wgt>
<wgt id='1843'> +1.3026980e-12 </wgt>
<wgt id='1844'> +1.3260156e-12 </wgt>
<wgt id='1845'> +1.2976666e-12 </wgt>
<wgt id='1846'> +1.3365766e-12 </wgt>
<wgt id='1847'> +1.3865155e-12 </wgt>
<wgt id='1848'> +1.3238033e-12 </wgt>
<wgt id='1849'> +1.3342425e-12 </wgt>
<wgt id='1850'> +1.3631602e-12 </wgt>
<wgt id='1851'> +1.3311920e-12 </wgt>
<wgt id='1852'> +1.3173294e-12 </wgt>
<wgt id='1853'> +1.3377559e-12 </wgt>
<wgt id='1854'> +1.3281639e-12 </wgt>
<wgt id='1855'> +1.2674070e-12 </wgt>
<wgt id='1856'> +1.3358545e-12 </wgt>
<wgt id='1857'> +1.2351775e-12 </wgt>
<wgt id='1858'> +1.3075744e-12 </wgt>
<wgt id='1859'> +1.3319994e-12 </wgt>
<wgt id='1860'> +1.3253085e-12 </wgt>
<wgt id='1861'> +1.3131535e-12 </wgt>
<wgt id='1862'> +1.2671225e-12 </wgt>
<wgt id='1863'> +1.2836862e-12 </wgt>
<wgt id='1864'> +1.3034087e-12 </wgt>
<wgt id='1865'> +1.3410432e-12 </wgt>
<wgt id='1866'> +1.3080338e-12 </wgt>
<wgt id='1867'> +1.2865143e-12 </wgt>
<wgt id='1868'> +1.3215420e-12 </wgt>
<wgt id='1869'> +1.3995866e-12 </wgt>
<wgt id='1870'> +1.3260467e-12 </wgt>
<wgt id='1871'> +1.3506189e-12 </wgt>
<wgt id='1872'> +1.2484893e-12 </wgt>
<wgt id='1873'> +1.2471925e-12 </wgt>
<wgt id='1874'> +1.2837577e-12 </wgt>
<wgt id='1875'> +1.3701829e-12 </wgt>
<wgt id='1876'> +1.3107111e-12 </wgt>
<wgt id='1877'> +1.3067486e-12 </wgt>
<wgt id='1878'> +1.3235488e-12 </wgt>
<wgt id='1879'> +1.3653720e-12 </wgt>
<wgt id='1880'> +1.2271808e-12 </wgt>
<wgt id='1881'> +1.3093645e-12 </wgt>
<wgt id='1882'> +1.3756743e-12 </wgt>
<wgt id='1883'> +1.2796358e-12 </wgt>
<wgt id='1884'> +1.2987795e-12 </wgt>
<wgt id='1885'> +1.3273729e-12 </wgt>
<wgt id='1886'> +1.3946890e-12 </wgt>
<wgt id='1887'> +1.3149835e-12 </wgt>
<wgt id='1888'> +1.3659854e-12 </wgt>
<wgt id='1889'> +1.2518621e-12 </wgt>
<wgt id='1890'> +1.3800157e-12 </wgt>
<wgt id='1891'> +1.2792890e-12 </wgt>
<wgt id='1892'> +1.3689879e-12 </wgt>
<wgt id='1893'> +1.3437009e-12 </wgt>
<wgt id='1894'> +1.3243509e-12 </wgt>
<wgt id='1895'> +1.2876070e-12 </wgt>
<wgt id='1896'> +1.3692120e-12 </wgt>
<wgt id='1897'> +1.3262075e-12 </wgt>
<wgt id='1898'> +1.3106249e-12 </wgt>
<wgt id='1899'> +1.2604552e-12 </wgt>
<wgt id='1900'> +1.3248871e-12 </wgt>
<wgt id='1901'> +1.3246206e-12 </wgt>
<wgt id='1902'> +1.3028041e-12 </wgt>
<wgt id='1903'> +1.2849639e-12 </wgt>
<wgt id='1904'> +1.2593619e-12 </wgt>
<wgt id='1905'> +1.3150805e-12 </wgt>
<wgt id='1906'> +1.3604060e-12 </wgt>
<wgt id='1907'> +1.2884908e-12 </wgt>
<wgt id='1908'> +1.3703491e-12 </wgt>
<wgt id='1909'> +1.3090413e-12 </wgt>
<wgt id='1910'> +1.3221750e-12 </wgt>
<wgt id='1911'> +1.2594736e-12 </wgt>
<wgt id='1912'> +1.2873889e-12 </wgt>
<wgt id='1913'> +1.3681420e-12 </wgt>
<wgt id='1914'> +1.3275283e-12 </wgt>
<wgt id='1915'> +1.2963351e-12 </wgt>
<wgt id='1916'> +1.2490183e-12 </wgt>
<wgt id='1917'> +1.3084005e-12 </wgt>
<wgt id='1918'> +1.3199018e-12 </wgt>
<wgt id='1919'> +1.2937176e-12 </wgt>
</rwgt>
</event>
<event>
 9      1 +1.5538000e-12 3.84203600e+01 7.81860800e-03 1.37914600e-01
       21 -1    0    0  501  502 +0.0000000000e+00 +0.0000000000e+00 +2.7524461134e+00 2.7524461134e+00 0.0000000000e+00 0.0000e+00 -1.0000e+00
        2 -1    0    0  502    0 -0.0000000000e+00 -0.0000000000e+00 -1.1193504044e+03 1.1193504044e+03 0.0000000000e+00 0.0000e+00 -1.0000e+00
     1023  2    1    2    0    0 -2.4844542607e+01 -2.5176630720e+01 -9.8749561725e+02 9.8824274259e+02 1.5000338859e+01 0.0000e+00 0.0000e+00
  1000023  2    3    3    0    0 -4.4299396799e+00 -1.0060367450e+01 -3.7158322183e+02 3.7178646980e+02 5.5002749707e+00 0.0000e+00 0.0000e+00
        2  1    1    2  501    0 +2.4844542607e+01 +2.5176630720e+01 -1.2910234105e+02 1.3386010794e+02 0.0000000000e+00 0.0000e+00 -1.0000e+00
  1000022  1    4    4    0    0 -4.5838822685e+00 -9.8720063860e+00 -3.6775510036e+02 3.6795010848e+02 5.0000000000e+00 0.0000e+00 1.0000e+00
      -11  1    4    4    0    0 +1.4990697552e-01 -1.6553580789e-01 -3.6348612280e+00 3.6417153393e+00 5.1100000000e-04 0.0000e+00 -1.0000e+00
       11  1    4    4    0    0 +4.0356130923e-03 -2.2825256356e-02 -1.9326023775e-01 1.9464598407e-01 5.1100000000e-04 0.0000e+00 1.0000e+00
  1000022  1    3    3    0    0 -2.0414602927e+01 -1.5116263270e+01 -6.1591239542e+02 6.1645627278e+02 5.0000000000e+00 0.0000e+00 -1.0000e+00
<mgrwt>
<rscale>  1 0.38420362E+02</rscale>
<asrwt>0</asrwt>
<pdfrwt beam="1">  1       21 0.42345245E-03 0.38420362E+02</pdfrwt>
<pdfrwt beam="2">  1        2 0.17220808E+00 0.38420362E+02</pdfrwt>
<totfact> 0.30029055E+06</totfact>
</mgrwt>
<rwgt>
<wgt id='1001'> +1.5538000e-12 </wgt>
<wgt id='1002'> +1.5525223e-12 </wgt>
<wgt id='1003'> +1.5519786e-12 </wgt>
<wgt id='1004'> +1.5526402e-12 </wgt>
<wgt id='1005'> +1.5370481e-12 </wgt>
<wgt id='1006'> +1.3684352e-12 </wgt>
<wgt id='1007'> +1.3863758e-12 </wgt>
<wgt id='1008'> +1.3864786e-12 </wgt>
<wgt id='1009'> +1.3658784e-12 </wgt>
<wgt id='1010'> +1.3834553e-12 </wgt>
<wgt id='1011'> +1.7999632e-12 </wgt>
<wgt id='1012'> +1.7657746e-12 </wgt>
<wgt id='1013'> +1.7641866e-12 </wgt>
<wgt id='1014'> +1.8013503e-12 </wgt>
<wgt id='1015'> +1.7304443e-12 </wgt>
<wgt id='1016'> +1.7608515e-12 </wgt>
<wgt id='1017'> +1.7068800e-12 </wgt>
<wgt id='1018'> +1.7048106e-12 </wgt>
<wgt id='1019'> +1.7641866e-12 </wgt>
<wgt id='1020'> +1.6637867e-12 </wgt>
<wgt id='1021'> +1.5507859e-12 </wgt>
<wgt id='1022'> +1.5242147e-12 </wgt>
<wgt id='1023'> +1.5230130e-12 </wgt>
<wgt id='1024'> +1.5519786e-12 </wgt>
<wgt id='1025'> +1.4975292e-12 </wgt>
<wgt id='1026'> +2.0398172e-12 </wgt>
<wgt id='1027'> +1.9413347e-12 </wgt>
<wgt id='1028'> +1.9379160e-12 </wgt>
<wgt id='1029'> +2.0467834e-12 </wgt>
<wgt id='1030'> +1.8731296e-12 </wgt>
<wgt id='1031'> +1.3017798e-12 </wgt>
<wgt id='1032'> +1.3645649e-12 </wgt>
<wgt id='1033'> +1.3658784e-12 </wgt>
<wgt id='1034'> +1.2951928e-12 </wgt>
<wgt id='1035'> +1.3826997e-12 </wgt>
<wgt id='1036'> +1.1464804e-12 </wgt>
<wgt id='1037'> +1.2185331e-12 </wgt>
<wgt id='1038'> +1.2202238e-12 </wgt>
<wgt id='1039'> +1.1393984e-12 </wgt>
<wgt id='1040'> +1.2445305e-12 </wgt>
<wgt id='1041'> +1.5080163e-12 </wgt>
<wgt id='1042'> +1.5519996e-12 </wgt>
<wgt id='1043'> +1.5526402e-12 </wgt>
<wgt id='1044'> +1.5026637e-12 </wgt>
<wgt id='1045'> +1.5566753e-12 </wgt>
<wgt id='1046'> +1.5538000e-12 </wgt>
<wgt id='1047'> +1.5539579e-12 </wgt>
<wgt id='1048'> +1.6034909e-12 </wgt>
<wgt id='1049'> +1.5206821e-12 </wgt>
<wgt id='1050'> +1.5353028e-12 </wgt>
<wgt id='1051'> +1.5214000e-12 </wgt>
<wgt id='1052'> +1.5235917e-12 </wgt>
<wgt id='1053'> +1.6091731e-12 </wgt>
<wgt id='1054'> +1.5926637e-12 </wgt>
<wgt id='1055'> +1.5380342e-12 </wgt>
<wgt id='1056'> +1.4533774e-12 </wgt>
<wgt id='1057'> +1.5495266e-12 </wgt>
<wgt id='1058'> +1.5246826e-12 </wgt>
<wgt id='1059'> +1.5546148e-12 </wgt>
<wgt id='1060'> +1.5869610e-12 </wgt>
<wgt id='1061'> +1.5778600e-12 </wgt>
<wgt id='1062'> +1.5337265e-12 </wgt>
<wgt id='1063'> +1.5060398e-12 </wgt>
<wgt id='1064'> +1.5647907e-12 </wgt>
<wgt id='1065'> +1.5814457e-12 </wgt>
<wgt id='1066'> +1.5481210e-12 </wgt>
<wgt id='1067'> +1.5884845e-12 </wgt>
<wgt id='1068'> +1.6082870e-12 </wgt>
<wgt id='1069'> +1.6019208e-12 </wgt>
<wgt id='1070'> +1.5418742e-12 </wgt>
<wgt id='1071'> +1.5752634e-12 </wgt>
<wgt id='1072'> +1.5882080e-12 </wgt>
<wgt id='1073'> +1.5077611e-12 </wgt>
<wgt id='1074'> +1.5643410e-12 </wgt>
<wgt id='1075'> +1.5209933e-12 </wgt>
<wgt id='1076'> +1.5459161e-12 </wgt>
<wgt id='1077'> +1.5531639e-12 </wgt>
<wgt id='1078'> +1.5495679e-12 </wgt>
<wgt id='1079'> +1.5600800e-12 </wgt>
<wgt id='1080'> +1.5286648e-12 </wgt>
<wgt id='1081'> +1.5218991e-12 </wgt>
<wgt id='1082'> +1.5665010e-12 </wgt>
<wgt id='1083'> +1.5467925e-12 </wgt>
<wgt id='1084'> +1.5358038e-12 </wgt>
<wgt id='1085'> +1.5658235e-12 </wgt>
<wgt id='1086'> +1.5948270e-12 </wgt>
<wgt id='1087'> +1.5398064e-12 </wgt>
<wgt id='1088'> +1.5592845e-12 </wgt>
<wgt id='1089'> +1.5197178e-12 </wgt>
<wgt id='1090'> +1.5337854e-12 </wgt>
<wgt id='1091'> +1.5819519e-12 </wgt>
<wgt id='1092'> +1.5457719e-12 </wgt>
<wgt id='1093'> +1.5709066e-12 </wgt>
<wgt id='1094'> +1.5962228e-12 </wgt>
<wgt id='1095'> +1.5807766e-12 </wgt>
<wgt id='1096'> +1.5111144e-12 </wgt>
<wgt id='1097'> +1.5583291e-12 </wgt>
<wgt id='1098'> +1.5884550e-12 </wgt>
<wgt id='1099'> +1.5501756e-12 </wgt>
<wgt id='1100'> +1.5872683e-12 </wgt>
<wgt id='1101'> +1.5722550e-12 </wgt>
<wgt id='1102'> +1.5382617e-12 </wgt>
<wgt id='1103'> +1.5602448e-12 </wgt>
<wgt id='1104'> +1.5771969e-12 </wgt>
<wgt id='1105'> +1.5238281e-12 </wgt>
<wgt id='1106'> +1.5721024e-12 </wgt>
<wgt id='1107'> +1.5659512e-12 </wgt>
<wgt id='1108'> +1.5478577e-12 </wgt>
<wgt id='1109'> +1.5323704e-12 </wgt>
<wgt id='1110'> +1.5725622e-12 </wgt>
<wgt id='1111'> +1.5527755e-12 </wgt>
<wgt id='1112'> +1.5663420e-12 </wgt>
<wgt id='1113'> +1.5985984e-12 </wgt>
<wgt id='1114'> +1.5556458e-12 </wgt>
<wgt id='1115'> +1.5704275e-12 </wgt>
<wgt id='1116'> +1.5905583e-12 </wgt>
<wgt id='1117'> +1.5510943e-12 </wgt>
<wgt id='1118'> +1.5381921e-12 </wgt>
<wgt id='1119'> +1.5394947e-12 </wgt>
<wgt id='1120'> +1.5425808e-12 </wgt>
<wgt id='1121'> +1.5229250e-12 </wgt>
<wgt id='1122'> +1.5306241e-12 </wgt>
<wgt id='1123'> +1.5612140e-12 </wgt>
<wgt id='1124'> +1.5905208e-12 </wgt>
<wgt id='1125'> +1.5238254e-12 </wgt>
<wgt id='1126'> +1.5138985e-12 </wgt>
<wgt id='1127'> +1.5797876e-12 </wgt>
<wgt id='1128'> +1.5337265e-12 </wgt>
<wgt id='1129'> +1.5189462e-12 </wgt>
<wgt id='1130'> +1.5507935e-12 </wgt>
<wgt id='1131'> +1.5851195e-12 </wgt>
<wgt id='1132'> +1.5506161e-12 </wgt>
<wgt id='1133'> +1.5572262e-12 </wgt>
<wgt id='1134'> +1.5095565e-12 </wgt>
<wgt id='1135'> +1.4871629e-12 </wgt>
<wgt id='1136'> +1.5357968e-12 </wgt>
<wgt id='1137'> +1.5594084e-12 </wgt>
<wgt id='1138'> +1.5384152e-12 </wgt>
<wgt id='1139'> +1.5521869e-12 </wgt>
<wgt id='1140'> +1.5501208e-12 </wgt>
<wgt id='1141'> +1.5564696e-12 </wgt>
<wgt id='1142'> +1.5856281e-12 </wgt>
<wgt id='1143'> +1.5211916e-12 </wgt>
<wgt id='1144'> +1.5465962e-12 </wgt>
<wgt id='1145'> +1.6051781e-12 </wgt>
<wgt id='1146'> +1.5742278e-12 </wgt>
<wgt id='1147'> +1.4128378e-12 </wgt>
<wgt id='1148'> +1.4325351e-12 </wgt>
<wgt id='1149'> +1.3781781e-12 </wgt>
<wgt id='1150'> +1.4263482e-12 </wgt>
<wgt id='1151'> +1.6338501e-12 </wgt>
<wgt id='1152'> +2.1720662e-12 </wgt>
<wgt id='1153'> +2.1791783e-12 </wgt>
<wgt id='1154'> +2.1678066e-12 </wgt>
<wgt id='1155'> +2.1677680e-12 </wgt>
<wgt id='1156'> +2.1741845e-12 </wgt>
<wgt id='1157'> +2.1763998e-12 </wgt>
<wgt id='1158'> +2.1661299e-12 </wgt>
<wgt id='1159'> +2.1753931e-12 </wgt>
<wgt id='1160'> +2.1698586e-12 </wgt>
<wgt id='1161'> +2.1669162e-12 </wgt>
<wgt id='1162'> +2.1755166e-12 </wgt>
<wgt id='1163'> +2.1711738e-12 </wgt>
<wgt id='1164'> +2.1729396e-12 </wgt>
<wgt id='1165'> +2.1785913e-12 </wgt>
<wgt id='1166'> +2.1654800e-12 </wgt>
<wgt id='1167'> +2.1981850e-12 </wgt>
<wgt id='1168'> +2.1399993e-12 </wgt>
<wgt id='1169'> +2.1806789e-12 </wgt>
<wgt id='1170'> +2.1655448e-12 </wgt>
<wgt id='1171'> +2.1649806e-12 </wgt>
<wgt id='1172'> +2.1809348e-12 </wgt>
<wgt id='1173'> +2.1469726e-12 </wgt>
<wgt id='1174'> +2.1982200e-12 </wgt>
<wgt id='1175'> +2.1723210e-12 </wgt>
<wgt id='1176'> +2.1714863e-12 </wgt>
<wgt id='1177'> +2.1693410e-12 </wgt>
<wgt id='1178'> +2.1781413e-12 </wgt>
<wgt id='1179'> +2.1713785e-12 </wgt>
<wgt id='1180'> +2.1675837e-12 </wgt>
<wgt id='1181'> +2.1718546e-12 </wgt>
<wgt id='1182'> +2.1709866e-12 </wgt>
<wgt id='1183'> +2.1745816e-12 </wgt>
<wgt id='1184'> +2.1718646e-12 </wgt>
<wgt id='1185'> +2.1664579e-12 </wgt>
<wgt id='1186'> +2.1742266e-12 </wgt>
<wgt id='1187'> +2.1758625e-12 </wgt>
<wgt id='1188'> +2.1706743e-12 </wgt>
<wgt id='1189'> +2.1667897e-12 </wgt>
<wgt id='1190'> +2.1537476e-12 </wgt>
<wgt id='1191'> +2.1741107e-12 </wgt>
<wgt id='1192'> +2.1761448e-12 </wgt>
<wgt id='1193'> +1.4151486e-12 </wgt>
<wgt id='1194'> +1.4042469e-12 </wgt>
<wgt id='1195'> +1.4240779e-12 </wgt>
<wgt id='1196'> +1.4120811e-12 </wgt>
<wgt id='1197'> +1.4185010e-12 </wgt>
<wgt id='1198'> +1.4137905e-12 </wgt>
<wgt id='1199'> +1.4171243e-12 </wgt>
<wgt id='1200'> +1.4128339e-12 </wgt>
<wgt id='1201'> +1.4167090e-12 </wgt>
<wgt id='1202'> +1.4145925e-12 </wgt>
<wgt id='1203'> +1.4159372e-12 </wgt>
<wgt id='1204'> +1.4111772e-12 </wgt>
<wgt id='1205'> +1.4173960e-12 </wgt>
<wgt id='1206'> +1.4189014e-12 </wgt>
<wgt id='1207'> +1.4099894e-12 </wgt>
<wgt id='1208'> +1.4247280e-12 </wgt>
<wgt id='1209'> +1.4117242e-12 </wgt>
<wgt id='1210'> +1.4118632e-12 </wgt>
<wgt id='1211'> +1.4129041e-12 </wgt>
<wgt id='1212'> +1.4156806e-12 </wgt>
<wgt id='1213'> +1.4148404e-12 </wgt>
<wgt id='1214'> +1.3970772e-12 </wgt>
<wgt id='1215'> +1.4430562e-12 </wgt>
<wgt id='1216'> +1.4259340e-12 </wgt>
<wgt id='1217'> +1.4079209e-12 </wgt>
<wgt id='1218'> +1.4177838e-12 </wgt>
<wgt id='1219'> +1.4135860e-12 </wgt>
<wgt id='1220'> +1.4225085e-12 </wgt>
<wgt id='1221'> +1.4132138e-12 </wgt>
<wgt id='1222'> +1.4339184e-12 </wgt>
<wgt id='1223'> +1.3888522e-12 </wgt>
<wgt id='1224'> +1.4177872e-12 </wgt>
<wgt id='1225'> +1.4141411e-12 </wgt>
<wgt id='1226'> +1.4132966e-12 </wgt>
<wgt id='1227'> +1.4164644e-12 </wgt>
<wgt id='1228'> +1.4124204e-12 </wgt>
<wgt id='1229'> +1.4168328e-12 </wgt>
<wgt id='1230'> +1.4165708e-12 </wgt>
<wgt id='1231'> +1.4206374e-12 </wgt>
<wgt id='1232'> +1.4189708e-12 </wgt>
<wgt id='1233'> +1.4142030e-12 </wgt>
<wgt id='1234'> +1.4151486e-12 </wgt>
<wgt id='1235'> +1.4090121e-12 </wgt>
<wgt id='1236'> +1.4114018e-12 </wgt>
<wgt id='1237'> +1.4134977e-12 </wgt>
<wgt id='1238'> +1.4168981e-12 </wgt>
<wgt id='1239'> +1.4182510e-12 </wgt>
<wgt id='1240'> +1.4195924e-12 </wgt>
<wgt id='1241'> +1.3769918e-12 </wgt>
<wgt id='1242'> +1.3649325e-12 </wgt>
<wgt id='1243'> +1.3888796e-12 </wgt>
<wgt id='1244'> +1.3844459e-12 </wgt>
<wgt id='1245'> +1.3714572e-12 </wgt>
<wgt id='1246'> +1.3736731e-12 </wgt>
<wgt id='1247'> +1.3798159e-12 </wgt>
<wgt id='1248'> +1.3770093e-12 </wgt>
<wgt id='1249'> +1.3769406e-12 </wgt>
<wgt id='1250'> +1.3781908e-12 </wgt>
<wgt id='1251'> +1.3761664e-12 </wgt>
<wgt id='1252'> +1.3733413e-12 </wgt>
<wgt id='1253'> +1.3798082e-12 </wgt>
<wgt id='1254'> +1.3723565e-12 </wgt>
<wgt id='1255'> +1.3796958e-12 </wgt>
<wgt id='1256'> +1.3735706e-12 </wgt>
<wgt id='1257'> +1.3855590e-12 </wgt>
<wgt id='1258'> +1.3956015e-12 </wgt>
<wgt id='1259'> +1.3592591e-12 </wgt>
<wgt id='1260'> +1.3810378e-12 </wgt>
<wgt id='1261'> +1.3725372e-12 </wgt>
<wgt id='1262'> +1.3818193e-12 </wgt>
<wgt id='1263'> +1.3749757e-12 </wgt>
<wgt id='1264'> +1.3811363e-12 </wgt>
<wgt id='1265'> +1.3752287e-12 </wgt>
<wgt id='1266'> +1.3570116e-12 </wgt>
<wgt id='1267'> +1.3960194e-12 </wgt>
<wgt id='1268'> +1.3833840e-12 </wgt>
<wgt id='1269'> +1.3720805e-12 </wgt>
<wgt id='1270'> +1.3780526e-12 </wgt>
<wgt id='1271'> +1.3772492e-12 </wgt>
<wgt id='1272'> +1.3783243e-12 </wgt>
<wgt id='1273'> +1.3769726e-12 </wgt>
<wgt id='1274'> +1.3777667e-12 </wgt>
<wgt id='1275'> +1.3753908e-12 </wgt>
<wgt id='1276'> +1.3811896e-12 </wgt>
<wgt id='1277'> +1.3734547e-12 </wgt>
<wgt id='1278'> +1.3836146e-12 </wgt>
<wgt id='1279'> +1.3835040e-12 </wgt>
<wgt id='1280'> +1.3765188e-12 </wgt>
<wgt id='1281'> +1.3842105e-12 </wgt>
<wgt id='1282'> +1.3769918e-12 </wgt>
<wgt id='1283'> +1.3706770e-12 </wgt>
<wgt id='1284'> +1.3733034e-12 </wgt>
<wgt id='1285'> +1.3752977e-12 </wgt>
<wgt id='1286'> +1.3787311e-12 </wgt>
<wgt id='1287'> +1.3798985e-12 </wgt>
<wgt id='1288'> +1.3808714e-12 </wgt>
<wgt id='1289'> +1.4535304e-12 </wgt>
<wgt id='1290'> +1.4567418e-12 </wgt>
<wgt id='1291'> +1.4500738e-12 </wgt>
<wgt id='1292'> +1.4541585e-12 </wgt>
<wgt id='1293'> +1.4530844e-12 </wgt>
<wgt id='1294'> +1.4440847e-12 </wgt>
<wgt id='1295'> +1.4625972e-12 </wgt>
<wgt id='1296'> +1.4601939e-12 </wgt>
<wgt id='1297'> +1.4452063e-12 </wgt>
<wgt id='1298'> +1.4581818e-12 </wgt>
<wgt id='1299'> +1.4476081e-12 </wgt>
<wgt id='1300'> +1.4559522e-12 </wgt>
<wgt id='1301'> +1.4486242e-12 </wgt>
<wgt id='1302'> +1.4497631e-12 </wgt>
<wgt id='1303'> +1.4587863e-12 </wgt>
<wgt id='1304'> +1.4510212e-12 </wgt>
<wgt id='1305'> +1.4552459e-12 </wgt>
<wgt id='1306'> +1.4570368e-12 </wgt>
<wgt id='1307'> +1.4494055e-12 </wgt>
<wgt id='1308'> +1.4487475e-12 </wgt>
<wgt id='1309'> +1.4571859e-12 </wgt>
<wgt id='1310'> +1.4567174e-12 </wgt>
<wgt id='1311'> +1.4503614e-12 </wgt>
<wgt id='1312'> +1.4589806e-12 </wgt>
<wgt id='1313'> +1.4482703e-12 </wgt>
<wgt id='1314'> +1.4347346e-12 </wgt>
<wgt id='1315'> +1.4694372e-12 </wgt>
<wgt id='1316'> +1.4592048e-12 </wgt>
<wgt id='1317'> +1.4551067e-12 </wgt>
<wgt id='1318'> +1.4652127e-12 </wgt>
<wgt id='1319'> +1.4391004e-12 </wgt>
<wgt id='1320'> +1.4729126e-12 </wgt>
<wgt id='1321'> +1.4364928e-12 </wgt>
<wgt id='1322'> +1.4536263e-12 </wgt>
<wgt id='1323'> +1.4533464e-12 </wgt>
<wgt id='1324'> +1.4508282e-12 </wgt>
<wgt id='1325'> +1.4563059e-12 </wgt>
<wgt id='1326'> +1.4530053e-12 </wgt>
<wgt id='1327'> +1.4563897e-12 </wgt>
<wgt id='1328'> +1.4528593e-12 </wgt>
<wgt id='1329'> +1.4535089e-12 </wgt>
<wgt id='1330'> +1.4582268e-12 </wgt>
<wgt id='1331'> +1.4479374e-12 </wgt>
<wgt id='1332'> +1.4651736e-12 </wgt>
<wgt id='1333'> +1.4556381e-12 </wgt>
<wgt id='1334'> +1.4516388e-12 </wgt>
<wgt id='1335'> +1.4586097e-12 </wgt>
<wgt id='1336'> +1.4543732e-12 </wgt>
<wgt id='1337'> +1.4598529e-12 </wgt>
<wgt id='1338'> +1.4541734e-12 </wgt>
<wgt id='1339'> +1.4565812e-12 </wgt>
<wgt id='1340'> +1.4265981e-12 </wgt>
<wgt id='1341'> +1.4297274e-12 </wgt>
<wgt id='1342'> +1.4232534e-12 </wgt>
<wgt id='1343'> +1.4273503e-12 </wgt>
<wgt id='1344'> +1.4260835e-12 </wgt>
<wgt id='1345'> +1.4167709e-12 </wgt>
<wgt id='1346'> +1.4356850e-12 </wgt>
<wgt id='1347'> +1.4337473e-12 </wgt>
<wgt id='1348'> +1.4185767e-12 </wgt>
<wgt id='1349'> +1.4308909e-12 </wgt>
<wgt id='1350'> +1.4222820e-12 </wgt>
<wgt id='1351'> +1.4287909e-12 </wgt>
<wgt id='1352'> +1.4217718e-12 </wgt>
<wgt id='1353'> +1.4218933e-12 </wgt>
<wgt id='1354'> +1.4349662e-12 </wgt>
<wgt id='1355'> +1.4248984e-12 </wgt>
<wgt id='1356'> +1.4275256e-12 </wgt>
<wgt id='1357'> +1.4293439e-12 </wgt>
<wgt id='1358'> +1.4231611e-12 </wgt>
<wgt id='1359'> +1.4211775e-12 </wgt>
<wgt id='1360'> +1.4312684e-12 </wgt>
<wgt id='1361'> +1.4299824e-12 </wgt>
<wgt id='1362'> +1.4223642e-12 </wgt>
<wgt id='1363'> +1.4370205e-12 </wgt>
<wgt id='1364'> +1.4200850e-12 </wgt>
<wgt id='1365'> +1.4345104e-12 </wgt>
<wgt id='1366'> +1.4101807e-12 </wgt>
<wgt id='1367'> +1.4326207e-12 </wgt>
<wgt id='1368'> +1.4268483e-12 </wgt>
<wgt id='1369'> +1.4360561e-12 </wgt>
<wgt id='1370'> +1.4150192e-12 </wgt>
<wgt id='1371'> +1.4423705e-12 </wgt>
<wgt id='1372'> +1.4069710e-12 </wgt>
<wgt id='1373'> +1.4232378e-12 </wgt>
<wgt id='1374'> +1.4294295e-12 </wgt>
<wgt id='1375'> +1.4238339e-12 </wgt>
<wgt id='1376'> +1.4300710e-12 </wgt>
<wgt id='1377'> +1.4264250e-12 </wgt>
<wgt id='1378'> +1.4293801e-12 </wgt>
<wgt id='1379'> +1.4260937e-12 </wgt>
<wgt id='1380'> +1.4264254e-12 </wgt>
<wgt id='1381'> +1.4316681e-12 </wgt>
<wgt id='1382'> +1.4211690e-12 </wgt>
<wgt id='1383'> +1.4360177e-12 </wgt>
<wgt id='1384'> +1.4295410e-12 </wgt>
<wgt id='1385'> +1.4249927e-12 </wgt>
<wgt id='1386'> +1.4304583e-12 </wgt>
<wgt id='1387'> +1.4277600e-12 </wgt>
<wgt id='1388'> +1.4335780e-12 </wgt>
<wgt id='1389'> +1.4268663e-12 </wgt>
<wgt id='1390'> +1.4309760e-12 </wgt>
<wgt id='1391'> +1.4002003e-12 </wgt>
<wgt id='1392'> +1.3622047e-12 </wgt>
<wgt id='1393'> +1.3754466e-12 </wgt>
<wgt id='1394'> +1.3882626e-12 </wgt>
<wgt id='1395'> +1.4134046e-12 </wgt>
<wgt id='1396'> +1.4008756e-12 </wgt>
<wgt id='1397'> +1.3871119e-12 </wgt>
<wgt id='1398'> +1.3887629e-12 </wgt>
<wgt id='1399'> +1.3907521e-12 </wgt>
<wgt id='1400'> +1.3935933e-12 </wgt>
<wgt id='1401'> +1.3971327e-12 </wgt>
<wgt id='1402'> +1.4048530e-12 </wgt>
<wgt id='1403'> +1.4094609e-12 </wgt>
<wgt id='1404'> +1.4142451e-12 </wgt>
<wgt id='1405'> +1.4008756e-12 </wgt>
<wgt id='1406'> +1.3972824e-12 </wgt>
<wgt id='1407'> +1.3991196e-12 </wgt>
<wgt id='1408'> +1.4024323e-12 </wgt>
<wgt id='1409'> +1.4036358e-12 </wgt>
<wgt id='1410'> +1.3399812e-12 </wgt>
<wgt id='1411'> +1.3447720e-12 </wgt>
<wgt id='1412'> +1.3337743e-12 </wgt>
<wgt id='1413'> +1.3366146e-12 </wgt>
<wgt id='1414'> +1.3432929e-12 </wgt>
<wgt id='1415'> +1.3387586e-12 </wgt>
<wgt id='1416'> +1.3404287e-12 </wgt>
<wgt id='1417'> +1.3402439e-12 </wgt>
<wgt id='1418'> +1.3395991e-12 </wgt>
<wgt id='1419'> +1.3409596e-12 </wgt>
<wgt id='1420'> +1.3389907e-12 </wgt>
<wgt id='1421'> +1.3291768e-12 </wgt>
<wgt id='1422'> +1.3445039e-12 </wgt>
<wgt id='1423'> +1.3392576e-12 </wgt>
<wgt id='1424'> +1.3408030e-12 </wgt>
<wgt id='1425'> +1.3320493e-12 </wgt>
<wgt id='1426'> +1.3484712e-12 </wgt>
<wgt id='1427'> +1.3294759e-12 </wgt>
<wgt id='1428'> +1.3453175e-12 </wgt>
<wgt id='1429'> +1.3429525e-12 </wgt>
<wgt id='1430'> +1.3359316e-12 </wgt>
<wgt id='1431'> +1.3408119e-12 </wgt>
<wgt id='1432'> +1.3392749e-12 </wgt>
<wgt id='1433'> +1.3222084e-12 </wgt>
<wgt id='1434'> +1.3546364e-12 </wgt>
<wgt id='1435'> +1.3340113e-12 </wgt>
<wgt id='1436'> +1.3550401e-12 </wgt>
<wgt id='1437'> +1.3443430e-12 </wgt>
<wgt id='1438'> +1.3433747e-12 </wgt>
<wgt id='1439'> +1.3330527e-12 </wgt>
<wgt id='1440'> +1.3535959e-12 </wgt>
<wgt id='1441'> +1.3453873e-12 </wgt>
<wgt id='1442'> +1.3270740e-12 </wgt>
<wgt id='1443'> +1.3359685e-12 </wgt>
<wgt id='1444'> +1.3473482e-12 </wgt>
<wgt id='1445'> +1.3473522e-12 </wgt>
<wgt id='1446'> +1.3360621e-12 </wgt>
<wgt id='1447'> +1.3413199e-12 </wgt>
<wgt id='1448'> +1.3416394e-12 </wgt>
<wgt id='1449'> +1.3399244e-12 </wgt>
<wgt id='1450'> +1.3390827e-12 </wgt>
<wgt id='1451'> +1.3393078e-12 </wgt>
<wgt id='1452'> +1.3414249e-12 </wgt>
<wgt id='1453'> +1.3409921e-12 </wgt>
<wgt id='1454'> +1.3423964e-12 </wgt>
<wgt id='1455'> +1.3483176e-12 </wgt>
<wgt id='1456'> +1.3429751e-12 </wgt>
<wgt id='1457'> +1.3447620e-12 </wgt>
<wgt id='1458'> +1.3389408e-12 </wgt>
<wgt id='1459'> +1.3446559e-12 </wgt>
<wgt id='1460'> +1.3462366e-12 </wgt>
<wgt id='1461'> +1.3399812e-12 </wgt>
<wgt id='1462'> +1.3306579e-12 </wgt>
<wgt id='1463'> +1.3465899e-12 </wgt>
<wgt id='1464'> +1.3388324e-12 </wgt>
<wgt id='1465'> +1.3221869e-12 </wgt>
<wgt id='1466'> +1.3243427e-12 </wgt>
<wgt id='1467'> +1.3273181e-12 </wgt>
<wgt id='1468'> +1.3323429e-12 </wgt>
<wgt id='1469'> +1.3348820e-12 </wgt>
<wgt id='1470'> +1.3432461e-12 </wgt>
<wgt id='1471'> +1.3472354e-12 </wgt>
<wgt id='1472'> +1.3515059e-12 </wgt>
<wgt id='1473'> +1.3388324e-12 </wgt>
<wgt id='1474'> +1.3354549e-12 </wgt>
<wgt id='1475'> +1.3376384e-12 </wgt>
<wgt id='1476'> +1.3400167e-12 </wgt>
<wgt id='1477'> +1.3410326e-12 </wgt>
<wgt id='1478'> +1.3855104e-12 </wgt>
<wgt id='1479'> +1.3861155e-12 </wgt>
<wgt id='1480'> +1.3735472e-12 </wgt>
<wgt id='1481'> +1.3982263e-12 </wgt>
<wgt id='1482'> +1.3885328e-12 </wgt>
<wgt id='1483'> +1.3713070e-12 </wgt>
<wgt id='1484'> +1.3736220e-12 </wgt>
<wgt id='1485'> +1.3973857e-12 </wgt>
<wgt id='1486'> +1.3848433e-12 </wgt>
<wgt id='1487'> +1.3957323e-12 </wgt>
<wgt id='1488'> +1.3831239e-12 </wgt>
<wgt id='1489'> +1.3876869e-12 </wgt>
<wgt id='1490'> +1.3827485e-12 </wgt>
<wgt id='1491'> +1.3913922e-12 </wgt>
<wgt id='1492'> +1.3853451e-12 </wgt>
<wgt id='1493'> +1.3665494e-12 </wgt>
<wgt id='1494'> +1.3831275e-12 </wgt>
<wgt id='1495'> +1.3783288e-12 </wgt>
<wgt id='1496'> +1.3863278e-12 </wgt>
<wgt id='1497'> +1.3853972e-12 </wgt>
<wgt id='1498'> +1.3857364e-12 </wgt>
<wgt id='1499'> +1.3887371e-12 </wgt>
<wgt id='1500'> +1.3882675e-12 </wgt>
<wgt id='1501'> +1.3869199e-12 </wgt>
<wgt id='1502'> +1.3834854e-12 </wgt>
<wgt id='1503'> +1.3907307e-12 </wgt>
<wgt id='1504'> +1.3803748e-12 </wgt>
<wgt id='1505'> +1.3906102e-12 </wgt>
<wgt id='1506'> +1.3879600e-12 </wgt>
<wgt id='1507'> +1.3854177e-12 </wgt>
<wgt id='1508'> +1.3883437e-12 </wgt>
<wgt id='1509'> +1.3645177e-12 </wgt>
<wgt id='1510'> +1.3664250e-12 </wgt>
<wgt id='1511'> +1.3551557e-12 </wgt>
<wgt id='1512'> +1.3555520e-12 </wgt>
<wgt id='1513'> +1.3619195e-12 </wgt>
<wgt id='1514'> +1.3696775e-12 </wgt>
<wgt id='1515'> +1.3701804e-12 </wgt>
<wgt id='1516'> +1.3697969e-12 </wgt>
<wgt id='1517'> +1.3681353e-12 </wgt>
<wgt id='1518'> +1.3625130e-12 </wgt>
<wgt id='1519'> +1.3655358e-12 </wgt>
<wgt id='1520'> +1.3651571e-12 </wgt>
<wgt id='1521'> +1.3640881e-12 </wgt>
<wgt id='1522'> +1.3669367e-12 </wgt>
<wgt id='1523'> +1.3682642e-12 </wgt>
<wgt id='1524'> +1.3629886e-12 </wgt>
<wgt id='1525'> +1.3630511e-12 </wgt>
<wgt id='1526'> +1.3663365e-12 </wgt>
<wgt id='1527'> +1.3652506e-12 </wgt>
<wgt id='1528'> +1.3657090e-12 </wgt>
<wgt id='1529'> +1.3655573e-12 </wgt>
<wgt id='1530'> +1.3649646e-12 </wgt>
<wgt id='1531'> +1.3670927e-12 </wgt>
<wgt id='1532'> +1.3615518e-12 </wgt>
<wgt id='1533'> +1.3641662e-12 </wgt>
<wgt id='1534'> +1.3657038e-12 </wgt>
<wgt id='1535'> +1.3609627e-12 </wgt>
<wgt id='1536'> +1.3690417e-12 </wgt>
<wgt id='1537'> +1.3679197e-12 </wgt>
<wgt id='1538'> +1.3502797e-12 </wgt>
<wgt id='1539'> +1.3613248e-12 </wgt>
<wgt id='1540'> +1.3633496e-12 </wgt>
<wgt id='1541'> +1.3612274e-12 </wgt>
<wgt id='1542'> +1.3624925e-12 </wgt>
<wgt id='1543'> +1.3655900e-12 </wgt>
<wgt id='1544'> +1.3624747e-12 </wgt>
<wgt id='1545'> +1.3634897e-12 </wgt>
<wgt id='1546'> +1.3657386e-12 </wgt>
<wgt id='1547'> +1.3633436e-12 </wgt>
<wgt id='1548'> +1.3653195e-12 </wgt>
<wgt id='1549'> +1.3633868e-12 </wgt>
<wgt id='1550'> +1.3647151e-12 </wgt>
<wgt id='1551'> +1.3640984e-12 </wgt>
<wgt id='1552'> +1.3662167e-12 </wgt>
<wgt id='1553'> +1.3645259e-12 </wgt>
<wgt id='1554'> +1.3637943e-12 </wgt>
<wgt id='1555'> +1.3658852e-12 </wgt>
<wgt id='1556'> +1.3668637e-12 </wgt>
<wgt id='1557'> +1.3644711e-12 </wgt>
<wgt id='1558'> +1.3648195e-12 </wgt>
<wgt id='1559'> +1.3638372e-12 </wgt>
<wgt id='1560'> +1.3658501e-12 </wgt>
<wgt id='1561'> +1.3652892e-12 </wgt>
<wgt id='1562'> +1.3648499e-12 </wgt>
<wgt id='1563'> +1.3655873e-12 </wgt>
<wgt id='1564'> +1.3634400e-12 </wgt>
<wgt id='1565'> +1.3640850e-12 </wgt>
<wgt id='1566'> +1.3643955e-12 </wgt>
<wgt id='1567'> +1.3624436e-12 </wgt>
<wgt id='1568'> +1.3648812e-12 </wgt>
<wgt id='1569'> +1.3669142e-12 </wgt>
<wgt id='1570'> +1.3651676e-12 </wgt>
<wgt id='1571'> +1.3645360e-12 </wgt>
<wgt id='1572'> +1.3637083e-12 </wgt>
<wgt id='1573'> +1.3629596e-12 </wgt>
<wgt id='1574'> +1.3645649e-12 </wgt>
<wgt id='1575'> +1.3652689e-12 </wgt>
<wgt id='1576'> +1.3657507e-12 </wgt>
<wgt id='1577'> +1.3672693e-12 </wgt>
<wgt id='1578'> +1.3639141e-12 </wgt>
<wgt id='1579'> +1.3639748e-12 </wgt>
<wgt id='1580'> +1.3647044e-12 </wgt>
<wgt id='1581'> +1.3646573e-12 </wgt>
<wgt id='1582'> +1.3643794e-12 </wgt>
<wgt id='1583'> +1.3637799e-12 </wgt>
<wgt id='1584'> +1.3627321e-12 </wgt>
<wgt id='1585'> +1.3635933e-12 </wgt>
<wgt id='1586'> +1.3650208e-12 </wgt>
<wgt id='1587'> +1.3657954e-12 </wgt>
<wgt id='1588'> +1.3639240e-12 </wgt>
<wgt id='1589'> +1.3651703e-12 </wgt>
<wgt id='1590'> +1.3656620e-12 </wgt>
<wgt id='1591'> +1.3654240e-12 </wgt>
<wgt id='1592'> +1.3657624e-12 </wgt>
<wgt id='1593'> +1.3641656e-12 </wgt>
<wgt id='1594'> +1.3646947e-12 </wgt>
<wgt id='1595'> +1.3632125e-12 </wgt>
<wgt id='1596'> +1.3643766e-12 </wgt>
<wgt id='1597'> +1.3631282e-12 </wgt>
<wgt id='1598'> +1.3653601e-12 </wgt>
<wgt id='1599'> +1.3647950e-12 </wgt>
<wgt id='1600'> +1.3637782e-12 </wgt>
<wgt id='1601'> +1.3645777e-12 </wgt>
<wgt id='1602'> +1.3633102e-12 </wgt>
<wgt id='1603'> +1.3642404e-12 </wgt>
<wgt id='1604'> +1.3641221e-12 </wgt>
<wgt id='1605'> +1.3645738e-12 </wgt>
<wgt id='1606'> +1.3650557e-12 </wgt>
<wgt id='1607'> +1.3645268e-12 </wgt>
<wgt id='1608'> +1.3643382e-12 </wgt>
<wgt id='1609'> +1.3644084e-12 </wgt>
<wgt id='1610'> +1.3510999e-12 </wgt>
<wgt id='1611'> +1.3783617e-12 </wgt>
<wgt id='1612'> +1.5345980e-12 </wgt>
<wgt id='1613'> +1.5014849e-12 </wgt>
<wgt id='1614'> +1.4720046e-12 </wgt>
<wgt id='1615'> +1.5219655e-12 </wgt>
<wgt id='1616'> +1.4663921e-12 </wgt>
<wgt id='1617'> +1.5505479e-12 </wgt>
<wgt id='1618'> +1.5085794e-12 </wgt>
<wgt id='1619'> +1.4876085e-12 </wgt>
<wgt id='1620'> +1.5021137e-12 </wgt>
<wgt id='1621'> +1.5525476e-12 </wgt>
<wgt id='1622'> +1.5529985e-12 </wgt>
<wgt id='1623'> +1.5485504e-12 </wgt>
<wgt id='1624'> +1.5504770e-12 </wgt>
<wgt id='1625'> +1.5240073e-12 </wgt>
<wgt id='1626'> +1.5343234e-12 </wgt>
<wgt id='1627'> +1.5388282e-12 </wgt>
<wgt id='1628'> +1.4379904e-12 </wgt>
<wgt id='1629'> +1.5755967e-12 </wgt>
<wgt id='1630'> +1.5115157e-12 </wgt>
<wgt id='1631'> +1.5328448e-12 </wgt>
<wgt id='1632'> +1.4779237e-12 </wgt>
<wgt id='1633'> +1.5164982e-12 </wgt>
<wgt id='1634'> +1.5414578e-12 </wgt>
<wgt id='1635'> +1.5560708e-12 </wgt>
<wgt id='1636'> +1.5313356e-12 </wgt>
<wgt id='1637'> +1.5577147e-12 </wgt>
<wgt id='1638'> +1.5305144e-12 </wgt>
<wgt id='1639'> +1.5419344e-12 </wgt>
<wgt id='1640'> +1.5195304e-12 </wgt>
<wgt id='1641'> +1.5414036e-12 </wgt>
<wgt id='1642'> +1.4891642e-12 </wgt>
<wgt id='1643'> +1.5221359e-12 </wgt>
<wgt id='1644'> +1.5749343e-12 </wgt>
<wgt id='1645'> +1.5188165e-12 </wgt>
<wgt id='1646'> +1.5679271e-12 </wgt>
<wgt id='1647'> +1.5600617e-12 </wgt>
<wgt id='1648'> +1.5344527e-12 </wgt>
<wgt id='1649'> +1.5497303e-12 </wgt>
<wgt id='1650'> +1.5254844e-12 </wgt>
<wgt id='1651'> +1.5453981e-12 </wgt>
<wgt id='1652'> +1.5446579e-12 </wgt>
<wgt id='1653'> +1.5082866e-12 </wgt>
<wgt id='1654'> +1.5260851e-12 </wgt>
<wgt id='1655'> +1.5509832e-12 </wgt>
<wgt id='1656'> +1.5548209e-12 </wgt>
<wgt id='1657'> +1.5230378e-12 </wgt>
<wgt id='1658'> +1.5464234e-12 </wgt>
<wgt id='1659'> +1.5504770e-12 </wgt>
<wgt id='1660'> +1.5390599e-12 </wgt>
<wgt id='1661'> +1.5766150e-12 </wgt>
<wgt id='1662'> +1.5817519e-12 </wgt>
<wgt id='1663'> +1.5549470e-12 </wgt>
<wgt id='1664'> +1.5381211e-12 </wgt>
<wgt id='1665'> +1.5134324e-12 </wgt>
<wgt id='1666'> +1.5499354e-12 </wgt>
<wgt id='1667'> +1.5539153e-12 </wgt>
<wgt id='1668'> +1.5157693e-12 </wgt>
<wgt id='1669'> +1.5426591e-12 </wgt>
<wgt id='1670'> +1.5350487e-12 </wgt>
<wgt id='1671'> +1.5048362e-12 </wgt>
<wgt id='1672'> +1.5664683e-12 </wgt>
<wgt id='1673'> +1.5383985e-12 </wgt>
<wgt id='1674'> +1.5171822e-12 </wgt>
<wgt id='1675'> +1.5303377e-12 </wgt>
<wgt id='1676'> +1.5247863e-12 </wgt>
<wgt id='1677'> +1.5579630e-12 </wgt>
<wgt id='1678'> +1.5272493e-12 </wgt>
<wgt id='1679'> +1.5444881e-12 </wgt>
<wgt id='1680'> +1.5366836e-12 </wgt>
<wgt id='1681'> +1.5622517e-12 </wgt>
<wgt id='1682'> +1.5242846e-12 </wgt>
<wgt id='1683'> +1.5448602e-12 </wgt>
<wgt id='1684'> +1.5869571e-12 </wgt>
<wgt id='1685'> +1.5179546e-12 </wgt>
<wgt id='1686'> +1.5486404e-12 </wgt>
<wgt id='1687'> +1.5676767e-12 </wgt>
<wgt id='1688'> +1.4901881e-12 </wgt>
<wgt id='1689'> +1.5794780e-12 </wgt>
<wgt id='1690'> +1.5333630e-12 </wgt>
<wgt id='1691'> +1.4903091e-12 </wgt>
<wgt id='1692'> +1.4967667e-12 </wgt>
<wgt id='1693'> +1.5497923e-12 </wgt>
<wgt id='1694'> +1.5500317e-12 </wgt>
<wgt id='1695'> +1.5536000e-12 </wgt>
<wgt id='1696'> +1.5260219e-12 </wgt>
<wgt id='1697'> +1.5104186e-12 </wgt>
<wgt id='1698'> +1.5331971e-12 </wgt>
<wgt id='1699'> +1.5303632e-12 </wgt>
<wgt id='1700'> +1.5205406e-12 </wgt>
<wgt id='1701'> +1.5723058e-12 </wgt>
<wgt id='1702'> +1.4932183e-12 </wgt>
<wgt id='1703'> +1.5135224e-12 </wgt>
<wgt id='1704'> +1.5298990e-12 </wgt>
<wgt id='1705'> +1.4936288e-12 </wgt>
<wgt id='1706'> +1.5466748e-12 </wgt>
<wgt id='1707'> +1.5251028e-12 </wgt>
<wgt id='1708'> +1.5889723e-12 </wgt>
<wgt id='1709'> +1.5712724e-12 </wgt>
<wgt id='1710'> +1.5359492e-12 </wgt>
<wgt id='1711'> +1.5434482e-12 </wgt>
<wgt id='1712'> +1.5977196e-12 </wgt>
<wgt id='1713'> +1.3617731e-12 </wgt>
<wgt id='1714'> +1.3404221e-12 </wgt>
<wgt id='1715'> +1.3203024e-12 </wgt>
<wgt id='1716'> +1.3971816e-12 </wgt>
<wgt id='1717'> +1.3757487e-12 </wgt>
<wgt id='1718'> +1.4080556e-12 </wgt>
<wgt id='1719'> +1.3802931e-12 </wgt>
<wgt id='1720'> +1.3371016e-12 </wgt>
<wgt id='1721'> +1.3408142e-12 </wgt>
<wgt id='1722'> +1.3617157e-12 </wgt>
<wgt id='1723'> +1.3882397e-12 </wgt>
<wgt id='1724'> +1.3862917e-12 </wgt>
<wgt id='1725'> +1.3792024e-12 </wgt>
<wgt id='1726'> +1.3730162e-12 </wgt>
<wgt id='1727'> +1.3967781e-12 </wgt>
<wgt id='1728'> +1.3500722e-12 </wgt>
<wgt id='1729'> +1.3091863e-12 </wgt>
<wgt id='1730'> +1.3407535e-12 </wgt>
<wgt id='1731'> +1.3018480e-12 </wgt>
<wgt id='1732'> +1.3597094e-12 </wgt>
<wgt id='1733'> +1.3086054e-12 </wgt>
<wgt id='1734'> +1.4185379e-12 </wgt>
<wgt id='1735'> +1.3487180e-12 </wgt>
<wgt id='1736'> +1.3987662e-12 </wgt>
<wgt id='1737'> +1.3947582e-12 </wgt>
<wgt id='1738'> +1.3595828e-12 </wgt>
<wgt id='1739'> +1.3756981e-12 </wgt>
<wgt id='1740'> +1.2919531e-12 </wgt>
<wgt id='1741'> +1.3983398e-12 </wgt>
<wgt id='1742'> +1.3466029e-12 </wgt>
<wgt id='1743'> +1.3504005e-12 </wgt>
<wgt id='1744'> +1.3787109e-12 </wgt>
<wgt id='1745'> +1.3924274e-12 </wgt>
<wgt id='1746'> +1.3588260e-12 </wgt>
<wgt id='1747'> +1.4023077e-12 </wgt>
<wgt id='1748'> +1.3662540e-12 </wgt>
<wgt id='1749'> +1.3520302e-12 </wgt>
<wgt id='1750'> +1.3391817e-12 </wgt>
<wgt id='1751'> +1.3456449e-12 </wgt>
<wgt id='1752'> +1.3362440e-12 </wgt>
<wgt id='1753'> +1.3708347e-12 </wgt>
<wgt id='1754'> +1.3769051e-12 </wgt>
<wgt id='1755'> +1.3669590e-12 </wgt>
<wgt id='1756'> +1.3858558e-12 </wgt>
<wgt id='1757'> +1.3766499e-12 </wgt>
<wgt id='1758'> +1.3902463e-12 </wgt>
<wgt id='1759'> +1.3749588e-12 </wgt>
<wgt id='1760'> +1.3525480e-12 </wgt>
<wgt id='1761'> +1.3442787e-12 </wgt>
<wgt id='1762'> +1.3607730e-12 </wgt>
<wgt id='1763'> +1.3776170e-12 </wgt>
<wgt id='1764'> +1.4032293e-12 </wgt>
<wgt id='1765'> +1.3680085e-12 </wgt>
<wgt id='1766'> +1.3971002e-12 </wgt>
<wgt id='1767'> +1.3496426e-12 </wgt>
<wgt id='1768'> +1.3789120e-12 </wgt>
<wgt id='1769'> +1.3421563e-12 </wgt>
<wgt id='1770'> +1.3529738e-12 </wgt>
<wgt id='1771'> +1.4074436e-12 </wgt>
<wgt id='1772'> +1.3385794e-12 </wgt>
<wgt id='1773'> +1.3635188e-12 </wgt>
<wgt id='1774'> +1.3617243e-12 </wgt>
<wgt id='1775'> +1.3613374e-12 </wgt>
<wgt id='1776'> +1.4157661e-12 </wgt>
<wgt id='1777'> +1.3014519e-12 </wgt>
<wgt id='1778'> +1.3707065e-12 </wgt>
<wgt id='1779'> +1.3570830e-12 </wgt>
<wgt id='1780'> +1.3729830e-12 </wgt>
<wgt id='1781'> +1.3747636e-12 </wgt>
<wgt id='1782'> +1.3457094e-12 </wgt>
<wgt id='1783'> +1.3558494e-12 </wgt>
<wgt id='1784'> +1.3662064e-12 </wgt>
<wgt id='1785'> +1.3855803e-12 </wgt>
<wgt id='1786'> +1.3510723e-12 </wgt>
<wgt id='1787'> +1.4325002e-12 </wgt>
<wgt id='1788'> +1.3500261e-12 </wgt>
<wgt id='1789'> +1.4367754e-12 </wgt>
<wgt id='1790'> +1.3569803e-12 </wgt>
<wgt id='1791'> +1.3568284e-12 </wgt>
<wgt id='1792'> +1.3548642e-12 </wgt>
<wgt id='1793'> +1.3450708e-12 </wgt>
<wgt id='1794'> +1.3783996e-12 </wgt>
<wgt id='1795'> +1.3719200e-12 </wgt>
<wgt id='1796'> +1.3161322e-12 </wgt>
<wgt id='1797'> +1.3547420e-12 </wgt>
<wgt id='1798'> +1.3614996e-12 </wgt>
<wgt id='1799'> +1.3477691e-12 </wgt>
<wgt id='1800'> +1.3762509e-12 </wgt>
<wgt id='1801'> +1.3641106e-12 </wgt>
<wgt id='1802'> +1.3181726e-12 </wgt>
<wgt id='1803'> +1.3661189e-12 </wgt>
<wgt id='1804'> +1.3624684e-12 </wgt>
<wgt id='1805'> +1.3384056e-12 </wgt>
<wgt id='1806'> +1.3272165e-12 </wgt>
<wgt id='1807'> +1.3456891e-12 </wgt>
<wgt id='1808'> +1.3356412e-12 </wgt>
<wgt id='1809'> +1.3415489e-12 </wgt>
<wgt id='1810'> +1.3294262e-12 </wgt>
<wgt id='1811'> +1.3801347e-12 </wgt>
<wgt id='1812'> +1.3430517e-12 </wgt>
<wgt id='1813'> +1.2835793e-12 </wgt>
<wgt id='1814'> +1.6871473e-12 </wgt>
<wgt id='1815'> +2.0116283e-12 </wgt>
<wgt id='1816'> +1.3617731e-12 </wgt>
<wgt id='1817'> +1.3404221e-12 </wgt>
<wgt id='1818'> +1.3203024e-12 </wgt>
<wgt id='1819'> +1.3971816e-12 </wgt>
<wgt id='1820'> +1.3757487e-12 </wgt>
<wgt id='1821'> +1.4080556e-12 </wgt>
<wgt id='1822'> +1.3802931e-12 </wgt>
<wgt id='1823'> +1.3371016e-12 </wgt>
<wgt id='1824'> +1.3408142e-12 </wgt>
<wgt id='1825'> +1.3617157e-12 </wgt>
<wgt id='1826'> +1.3882397e-12 </wgt>
<wgt id='1827'> +1.3862917e-12 </wgt>
<wgt id='1828'> +1.3792024e-12 </wgt>
<wgt id='1829'> +1.3730162e-12 </wgt>
<wgt id='1830'> +1.3967781e-12 </wgt>
<wgt id='1831'> +1.3500722e-12 </wgt>
<wgt id='1832'> +1.3091863e-12 </wgt>
<wgt id='1833'> +1.3407535e-12 </wgt>
<wgt id='1834'> +1.3018480e-12 </wgt>
<wgt id='1835'> +1.3597094e-12 </wgt>
<wgt id='1836'> +1.3086054e-12 </wgt>
<wgt id='1837'> +1.4185379e-12 </wgt>
<wgt id='1838'> +1.3487180e-12 </wgt>
<wgt id='1839'> +1.3987662e-12 </wgt>
<wgt id='1840'> +1.3947582e-12 </wgt>
<wgt id='1841'> +1.3595828e-12 </wgt>
<wgt id='1842'> +1.3756981e-12 </wgt>
<wgt id='1843'> +1.2919531e-12 </wgt>
<wgt id='1844'> +1.3983398e-12 </wgt>
<wgt id='1845'> +1.3466029e-12 </wgt>
<wgt id='1846'> +1.3504005e-12 </wgt>
<wgt id='1847'> +1.3787109e-12 </wgt>
<wgt id='1848'> +1.3924274e-12 </wgt>
<wgt id='1849'> +1.3588260e-12 </wgt>
<wgt id='1850'> +1.4023077e-12 </wgt>
<wgt id='1851'> +1.3662540e-12 </wgt>
<wgt id='1852'> +1.3520302e-12 </wgt>
<wgt id='1853'> +1.3391817e-12 </wgt>
<wgt id='1854'> +1.3456449e-12 </wgt>
<wgt id='1855'> +1.3362440e-12 </wgt>
<wgt id='1856'> +1.3708347e-12 </wgt>
<wgt id='1857'> +1.3769051e-12 </wgt>
<wgt id='1858'> +1.3669590e-12 </wgt>
<wgt id='1859'> +1.3858558e-12 </wgt>
<wgt id='1860'> +1.3766499e-12 </wgt>
<wgt id='1861'> +1.3902463e-12 </wgt>
<wgt id='1862'> +1.3749588e-12 </wgt>
<wgt id='1863'> +1.3525480e-12 </wgt>
<wgt id='1864'> +1.3442787e-12 </wgt>
<wgt id='1865'> +1.3607730e-12 </wgt>
<wgt id='1866'> +1.3776170e-12 </wgt>
<wgt id='1867'> +1.4032293e-12 </wgt>
<wgt id='1868'> +1.3680085e-12 </wgt>
<wgt id='1869'> +1.3971002e-12 </wgt>
<wgt id='1870'> +1.3496426e-12 </wgt>
<wgt id='1871'> +1.3789120e-12 </wgt>
<wgt id='1872'> +1.3421563e-12 </wgt>
<wgt id='1873'> +1.3529738e-12 </wgt>
<wgt id='1874'> +1.4074436e-12 </wgt>
<wgt id='1875'> +1.3385794e-12 </wgt>
<wgt id='1876'> +1.3635188e-12 </wgt>
<wgt id='1877'> +1.3617243e-12 </wgt>
<wgt id='1878'> +1.3613374e-12 </wgt>
<wgt id='1879'> +1.4157661e-12 </wgt>
<wgt id='1880'> +1.3014519e-12 </wgt>
<wgt id='1881'> +1.3707065e-12 </wgt>
<wgt id='1882'> +1.3570830e-12 </wgt>
<wgt id='1883'> +1.3729830e-12 </wgt>
<wgt id='1884'> +1.3747636e-12 </wgt>
<wgt id='1885'> +1.3457094e-12 </wgt>
<wgt id='1886'> +1.3558494e-12 </wgt>
<wgt id='1887'> +1.3662064e-12 </wgt>
<wgt id='1888'> +1.3855803e-12 </wgt>
<wgt id='1889'> +1.3510723e-12 </wgt>
<wgt id='1890'> +1.4325002e-12 </wgt>
<wgt id='1891'> +1.3500261e-12 </wgt>
<wgt id='1892'> +1.4367754e-12 </wgt>
<wgt id='1893'> +1.3569803e-12 </wgt>
<wgt id='1894'> +1.3568284e-12 </wgt>
<wgt id='1895'> +1.3548642e-12 </wgt>
<wgt id='1896'> +1.3450708e-12 </wgt>
<wgt id='1897'> +1.3783996e-12 </wgt>
<wgt id='1898'> +1.3719200e-12 </wgt>
<wgt id='1899'> +1.3161322e-12 </wgt>
<wgt id='1900'> +1.3547420e-12 </wgt>
<wgt id='1901'> +1.3614996e-12 </wgt>
<wgt id='1902'> +1.3477691e-12 </wgt>
<wgt id='1903'> +1.3762509e-12 </wgt>
<wgt id='1904'> +1.3641106e-12 </wgt>
<wgt id='1905'> +1.3181726e-12 </wgt>
<wgt id='1906'> +1.3661189e-12 </wgt>
<wgt id='1907'> +1.3624684e-12 </wgt>
<wgt id='1908'> +1.3384056e-12 </wgt>
<wgt id='1909'> +1.3272165e-12 </wgt>
<wgt id='1910'> +1.3456891e-12 </wgt>
<wgt id='1911'> +1.3356412e-12 </wgt>
<wgt id='1912'> +1.3415489e-12 </wgt>
<wgt id='1913'> +1.3294262e-12 </wgt>
<wgt id='1914'> +1.3801347e-12 </wgt>
<wgt id='1915'> +1.3430517e-12 </wgt>
<wgt id='1916'> +1.2835793e-12 </wgt>
<wgt id='1917'> +1.3547244e-12 </wgt>
<wgt id='1918'> +1.3743000e-12 </wgt>
<wgt id='1919'> +1.3447680e-12 </wgt>
</rwgt>
</event>
<event>
 9      1 +1.5538000e-12 5.22017300e+01 7.81860800e-03 1.30102900e-01
       21 -1    0    0  501  502 +0.0000000000e+00 +0.0000000000e+00 +4.0938795126e+00 4.0938795126e+00 0.0000000000e+00 0.0000e+00 -1.0000e+00
       -1 -1    0    0    0  501 -0.0000000000e+00 -0.0000000000e+00 -1.6640819617e+02 1.6640819617e+02 0.0000000000e+00 0.0000e+00 -1.0000e+00
     1023  2    1    2    0    0 +2.1401463712e+01 -5.3343908243e+00 -1.1830730653e+02 1.2127712962e+02 1.5001500460e+01 0.0000e+00 0.0000e+00
  1000023  2    3    3    0    0 +1.5283007218e+01 -8.1796462594e+00 -7.6151621729e+01 7.8293030823e+01 5.5002055368e+00 0.0000e+00 0.0000e+00
       -1  1    1    2    0  502 -2.1401463712e+01 +5.3343908243e+00 -4.4007010126e+01 4.9224946061e+01 0.0000000000e+00 0.0000e+00 -1.0000e+00
  1000022  1    4    4    0    0 +1.4761192853e+01 -7.7000093949e+00 -7.2303020017e+01 7.4363362368e+01 5.0000000000e+00 0.0000e+00 -1.0000e+00
      -13  1    4    4    0    0 +4.6548015519e-01 -4.6713693594e-01 -3.4126262917e+00 3.4773667320e+00 1.0570000000e-01 0.0000e+00 1.0000e+00
       13  1    4    4    0    0 +5.6334209681e-02 -1.2499928562e-02 -4.3597542072e-01 4.5230172326e-01 1.0570000000e-01 0.0000e+00 1.0000e+00
  1000022  1    3    3    0    0 +6.1184564939e+00 +2.8452554351e+00 -4.2155684804e+01 4.2984098800e+01 5.0000000000e+00 0.0000e+00 -1.0000e+00
<mgrwt>
<rscale>  1 0.52201728E+02</rscale>
<asrwt>0</asrwt>
<pdfrwt beam="1">  1       21 0.62982759E-03 0.52201728E+02</pdfrwt>
<pdfrwt beam="2">  1       -1 0.25601262E-01 0.52201728E+02</pdfrwt>
<totfact> 0.82202338E+06</totfact>
</mgrwt>
<rwgt>
<wgt id='1001'> +1.5538000e-12 </wgt>
<wgt id='1002'> +1.5398380e-12 </wgt>
<wgt id='1003'> +1.5457665e-12 </wgt>
<wgt id='1004'> +1.4376151e-12 </wgt>
<wgt id='1005'> +1.5538000e-12 </wgt>
<wgt id='1006'> +1.3783022e-12 </wgt>
<wgt id='1007'> +1.3621839e-12 </wgt>
<wgt id='1008'> +1.3690002e-12 </wgt>
<wgt id='1009'> +1.2503400e-12 </wgt>
<wgt id='1010'> +1.3783022e-12 </wgt>
<wgt id='1011'> +1.7827602e-12 </wgt>
<wgt id='1012'> +1.7731595e-12 </wgt>
<wgt id='1013'> +1.7772905e-12 </wgt>
<wgt id='1014'> +1.6943006e-12 </wgt>
<wgt id='1015'> +1.7827602e-12 </wgt>
<wgt id='1016'> +1.8138967e-12 </wgt>
<wgt id='1017'> +1.8110029e-12 </wgt>
<wgt id='1018'> +1.8123038e-12 </wgt>
<wgt id='1019'> +1.7772905e-12 </wgt>
<wgt id='1020'> +1.8138967e-12 </wgt>
<wgt id='1021'> +1.6090216e-12 </wgt>
<wgt id='1022'> +1.6020640e-12 </wgt>
<wgt id='1023'> +1.6050575e-12 </wgt>
<wgt id='1024'> +1.5457665e-12 </wgt>
<wgt id='1025'> +1.6090216e-12 </wgt>
<wgt id='1026'> +2.0811834e-12 </wgt>
<wgt id='1027'> +2.0854123e-12 </wgt>
<wgt id='1028'> +2.0837495e-12 </wgt>
<wgt id='1029'> +2.0946248e-12 </wgt>
<wgt id='1030'> +2.0811834e-12 </wgt>
<wgt id='1031'> +1.2649582e-12 </wgt>
<wgt id='1032'> +1.2397144e-12 </wgt>
<wgt id='1033'> +1.2503400e-12 </wgt>
<wgt id='1034'> +1.0683466e-12 </wgt>
<wgt id='1035'> +1.2649582e-12 </wgt>
<wgt id='1036'> +1.1220843e-12 </wgt>
<wgt id='1037'> +1.0966862e-12 </wgt>
<wgt id='1038'> +1.1073572e-12 </wgt>
<wgt id='1039'> +9.2917534e-13 </wgt>
<wgt id='1040'> +1.1220843e-12 </wgt>
<wgt id='1041'> +1.4513561e-12 </wgt>
<wgt id='1042'> +1.4275602e-12 </wgt>
<wgt id='1043'> +1.4376151e-12 </wgt>
<wgt id='1044'> +1.2590994e-12 </wgt>
<wgt id='1045'> +1.4513561e-12 </wgt>
<wgt id='1046'> +1.5538000e-12 </wgt>
<wgt id='1047'> +1.7114960e-12 </wgt>
<wgt id='1048'> +1.5746493e-12 </wgt>
<wgt id='1049'> +1.5522839e-12 </wgt>
<wgt id='1050'> +1.5803604e-12 </wgt>
<wgt id='1051'> +1.4938850e-12 </wgt>
<wgt id='1052'> +1.5512105e-12 </wgt>
<wgt id='1053'> +1.5779603e-12 </wgt>
<wgt id='1054'> +1.5110258e-12 </wgt>
<wgt id='1055'> +1.5038809e-12 </wgt>
<wgt id='1056'> +1.5390437e-12 </wgt>
<wgt id='1057'> +1.5443576e-12 </wgt>
<wgt id='1058'> +1.4993082e-12 </wgt>
<wgt id='1059'> +1.5396705e-12 </wgt>
<wgt id='1060'> +1.5534901e-12 </wgt>
<wgt id='1061'> +1.5523514e-12 </wgt>
<wgt id='1062'> +1.5373268e-12 </wgt>
<wgt id='1063'> +1.5672257e-12 </wgt>
<wgt id='1064'> +1.5489369e-12 </wgt>
<wgt id='1065'> +1.5670837e-12 </wgt>
<wgt id='1066'> +1.4929161e-12 </wgt>
<wgt id='1067'> +1.5353012e-12 </wgt>
<wgt id='1068'> +1.6113142e-12 </wgt>
<wgt id='1069'> +1.5987030e-12 </wgt>
<wgt id='1070'> +1.5285064e-12 </wgt>
<wgt id='1071'> +1.5215797e-12 </wgt>
<wgt id='1072'> +1.5460995e-12 </wgt>
<wgt id='1073'> +1.6931243e-12 </wgt>
<wgt id='1074'> +1.5223721e-12 </wgt>
<wgt id='1075'> +1.5278961e-12 </wgt>
<wgt id='1076'> +1.5681939e-12 </wgt>
<wgt id='1077'> +1.5883780e-12 </wgt>
<wgt id='1078'> +1.5293136e-12 </wgt>
<wgt id='1079'> +1.6412893e-12 </wgt>
<wgt id='1080'> +1.4869899e-12 </wgt>
<wgt id='1081'> +1.5637408e-12 </wgt>
<wgt id='1082'> +1.5430030e-12 </wgt>
<wgt id='1083'> +1.5653720e-12 </wgt>
<wgt id='1084'> +1.5141875e-12 </wgt>
<wgt id='1085'> +1.5165821e-12 </wgt>
<wgt id='1086'> +1.5803612e-12 </wgt>
<wgt id='1087'> +1.5659658e-12 </wgt>
<wgt id='1088'> +1.5608434e-12 </wgt>
<wgt id='1089'> +1.6019812e-12 </wgt>
<wgt id='1090'> +1.5701529e-12 </wgt>
<wgt id='1091'> +1.5420127e-12 </wgt>
<wgt id='1092'> +1.5798784e-12 </wgt>
<wgt id='1093'> +1.5653142e-12 </wgt>
<wgt id='1094'> +1.5251982e-12 </wgt>
<wgt id='1095'> +1.5586997e-12 </wgt>
<wgt id='1096'> +1.5768567e-12 </wgt>
<wgt id='1097'> +1.5114758e-12 </wgt>
<wgt id='1098'> +1.5489180e-12 </wgt>
<wgt id='1099'> +1.5264173e-12 </wgt>
<wgt id='1100'> +1.6160522e-12 </wgt>
<wgt id='1101'> +1.6107794e-12 </wgt>
<wgt id='1102'> +1.5665879e-12 </wgt>
<wgt id='1103'> +1.6152244e-12 </wgt>
<wgt id='1104'> +1.5489109e-12 </wgt>
<wgt id='1105'> +1.4932932e-12 </wgt>
<wgt id='1106'> +1.6020169e-12 </wgt>
<wgt id='1107'> +1.6193008e-12 </wgt>
<wgt id='1108'> +1.5518822e-12 </wgt>
<wgt id='1109'> +1.5419684e-12 </wgt>
<wgt id='1110'> +1.5335184e-12 </wgt>
<wgt id='1111'> +1.5929179e-12 </wgt>
<wgt id='1112'> +1.5185124e-12 </wgt>
<wgt id='1113'> +1.6581051e-12 </wgt>
<wgt id='1114'> +1.5747030e-12 </wgt>
<wgt id='1115'> +1.5374727e-12 </wgt>
<wgt id='1116'> +1.5483307e-12 </wgt>
<wgt id='1117'> +1.5541360e-12 </wgt>
<wgt id='1118'> +1.5005771e-12 </wgt>
<wgt id='1119'> +1.4867881e-12 </wgt>
<wgt id='1120'> +1.5331104e-12 </wgt>
<wgt id='1121'> +1.4598189e-12 </wgt>
<wgt id='1122'> +1.5953721e-12 </wgt>
<wgt id='1123'> +1.6023564e-12 </wgt>
<wgt id='1124'> +1.5560191e-12 </wgt>
<wgt id='1125'> +1.5053364e-12 </wgt>
<wgt id='1126'> +1.5319695e-12 </wgt>
<wgt id='1127'> +1.6089590e-12 </wgt>
<wgt id='1128'> +1.5373268e-12 </wgt>
<wgt id='1129'> +1.5472593e-12 </wgt>
<wgt id='1130'> +1.5164365e-12 </wgt>
<wgt id='1131'> +1.5716251e-12 </wgt>
<wgt id='1132'> +1.5698268e-12 </wgt>
<wgt id='1133'> +1.5086195e-12 </wgt>
<wgt id='1134'> +1.5857853e-12 </wgt>
<wgt id='1135'> +1.3821486e-12 </wgt>
<wgt id='1136'> +1.5116227e-12 </wgt>
<wgt id='1137'> +1.5513046e-12 </wgt>
<wgt id='1138'> +1.4418312e-12 </wgt>
<wgt id='1139'> +1.4977509e-12 </wgt>
<wgt id='1140'> +1.5694485e-12 </wgt>
<wgt id='1141'> +1.6077719e-12 </wgt>
<wgt id='1142'> +1.5469013e-12 </wgt>
<wgt id='1143'> +1.6054034e-12 </wgt>
<wgt id='1144'> +1.5501707e-12 </wgt>
<wgt id='1145'> +1.6105784e-12 </wgt>
<wgt id='1146'> +1.5899527e-12 </wgt>
<wgt id='1147'> +1.2375956e-12 </wgt>
<wgt id='1148'> +1.2649849e-12 </wgt>
<wgt id='1149'> +1.2423207e-12 </wgt>
<wgt id='1150'> +1.2889392e-12 </wgt>
<wgt id='1151'> +1.4924210e-12 </wgt>
<wgt id='1152'> +1.8751930e-12 </wgt>
<wgt id='1153'> +1.8651837e-12 </wgt>
<wgt id='1154'> +1.8809742e-12 </wgt>
<wgt id='1155'> +1.8782797e-12 </wgt>
<wgt id='1156'> +1.8736620e-12 </wgt>
<wgt id='1157'> +1.8835909e-12 </wgt>
<wgt id='1158'> +1.8638186e-12 </wgt>
<wgt id='1159'> +1.8816744e-12 </wgt>
<wgt id='1160'> +1.8710655e-12 </wgt>
<wgt id='1161'> +1.8701540e-12 </wgt>
<wgt id='1162'> +1.8786404e-12 </wgt>
<wgt id='1163'> +1.8785068e-12 </wgt>
<wgt id='1164'> +1.8718722e-12 </wgt>
<wgt id='1165'> +1.8706902e-12 </wgt>
<wgt id='1166'> +1.8795103e-12 </wgt>
<wgt id='1167'> +1.8784808e-12 </wgt>
<wgt id='1168'> +1.8692071e-12 </wgt>
<wgt id='1169'> +1.8726945e-12 </wgt>
<wgt id='1170'> +1.8770790e-12 </wgt>
<wgt id='1171'> +1.8730590e-12 </wgt>
<wgt id='1172'> +1.8776333e-12 </wgt>
<wgt id='1173'> +1.8488647e-12 </wgt>
<wgt id='1174'> +1.9014712e-12 </wgt>
<wgt id='1175'> +1.8832088e-12 </wgt>
<wgt id='1176'> +1.8675830e-12 </wgt>
<wgt id='1177'> +1.8755217e-12 </wgt>
<wgt id='1178'> +1.8746647e-12 </wgt>
<wgt id='1179'> +1.8745167e-12 </wgt>
<wgt id='1180'> +1.8665841e-12 </wgt>
<wgt id='1181'> +1.8695238e-12 </wgt>
<wgt id='1182'> +1.8806505e-12 </wgt>
<wgt id='1183'> +1.8770556e-12 </wgt>
<wgt id='1184'> +1.8752300e-12 </wgt>
<wgt id='1185'> +1.8693329e-12 </wgt>
<wgt id='1186'> +1.8796251e-12 </wgt>
<wgt id='1187'> +1.8752607e-12 </wgt>
<wgt id='1188'> +1.8752181e-12 </wgt>
<wgt id='1189'> +1.8744552e-12 </wgt>
<wgt id='1190'> +1.8553578e-12 </wgt>
<wgt id='1191'> +1.8651943e-12 </wgt>
<wgt id='1192'> +1.8825872e-12 </wgt>
<wgt id='1193'> +1.2968044e-12 </wgt>
<wgt id='1194'> +1.2911354e-12 </wgt>
<wgt id='1195'> +1.3014450e-12 </wgt>
<wgt id='1196'> +1.3047809e-12 </wgt>
<wgt id='1197'> +1.2878975e-12 </wgt>
<wgt id='1198'> +1.2955209e-12 </wgt>
<wgt id='1199'> +1.2987101e-12 </wgt>
<wgt id='1200'> +1.3026552e-12 </wgt>
<wgt id='1201'> +1.2928506e-12 </wgt>
<wgt id='1202'> +1.2966414e-12 </wgt>
<wgt id='1203'> +1.2970331e-12 </wgt>
<wgt id='1204'> +1.2944596e-12 </wgt>
<wgt id='1205'> +1.2981608e-12 </wgt>
<wgt id='1206'> +1.3007582e-12 </wgt>
<wgt id='1207'> +1.2914168e-12 </wgt>
<wgt id='1208'> +1.2920469e-12 </wgt>
<wgt id='1209'> +1.2986051e-12 </wgt>
<wgt id='1210'> +1.2958393e-12 </wgt>
<wgt id='1211'> +1.2908857e-12 </wgt>
<wgt id='1212'> +1.3004564e-12 </wgt>
<wgt id='1213'> +1.2933481e-12 </wgt>
<wgt id='1214'> +1.2849275e-12 </wgt>
<wgt id='1215'> +1.3145060e-12 </wgt>
<wgt id='1216'> +1.3091191e-12 </wgt>
<wgt id='1217'> +1.2888037e-12 </wgt>
<wgt id='1218'> +1.3032687e-12 </wgt>
<wgt id='1219'> +1.2934563e-12 </wgt>
<wgt id='1220'> +1.3008090e-12 </wgt>
<wgt id='1221'> +1.2973352e-12 </wgt>
<wgt id='1222'> +1.3095351e-12 </wgt>
<wgt id='1223'> +1.2742388e-12 </wgt>
<wgt id='1224'> +1.2984527e-12 </wgt>
<wgt id='1225'> +1.2962672e-12 </wgt>
<wgt id='1226'> +1.2908397e-12 </wgt>
<wgt id='1227'> +1.3009943e-12 </wgt>
<wgt id='1228'> +1.2979598e-12 </wgt>
<wgt id='1229'> +1.2954570e-12 </wgt>
<wgt id='1230'> +1.3005114e-12 </wgt>
<wgt id='1231'> +1.2900334e-12 </wgt>
<wgt id='1232'> +1.3001940e-12 </wgt>
<wgt id='1233'> +1.2958625e-12 </wgt>
<wgt id='1234'> +1.2968044e-12 </wgt>
<wgt id='1235'> +1.2895076e-12 </wgt>
<wgt id='1236'> +1.2923397e-12 </wgt>
<wgt id='1237'> +1.2947078e-12 </wgt>
<wgt id='1238'> +1.2989761e-12 </wgt>
<wgt id='1239'> +1.3005964e-12 </wgt>
<wgt id='1240'> +1.3021813e-12 </wgt>
<wgt id='1241'> +1.2456839e-12 </wgt>
<wgt id='1242'> +1.2371184e-12 </wgt>
<wgt id='1243'> +1.2542289e-12 </wgt>
<wgt id='1244'> +1.2400403e-12 </wgt>
<wgt id='1245'> +1.2498772e-12 </wgt>
<wgt id='1246'> +1.2485182e-12 </wgt>
<wgt id='1247'> +1.2433400e-12 </wgt>
<wgt id='1248'> +1.2457165e-12 </wgt>
<wgt id='1249'> +1.2456690e-12 </wgt>
<wgt id='1250'> +1.2513352e-12 </wgt>
<wgt id='1251'> +1.2417590e-12 </wgt>
<wgt id='1252'> +1.2422680e-12 </wgt>
<wgt id='1253'> +1.2483939e-12 </wgt>
<wgt id='1254'> +1.2428350e-12 </wgt>
<wgt id='1255'> +1.2473916e-12 </wgt>
<wgt id='1256'> +1.2478852e-12 </wgt>
<wgt id='1257'> +1.2404112e-12 </wgt>
<wgt id='1258'> +1.2622322e-12 </wgt>
<wgt id='1259'> +1.2303740e-12 </wgt>
<wgt id='1260'> +1.2467750e-12 </wgt>
<wgt id='1261'> +1.2448243e-12 </wgt>
<wgt id='1262'> +1.2535401e-12 </wgt>
<wgt id='1263'> +1.2424895e-12 </wgt>
<wgt id='1264'> +1.2523626e-12 </wgt>
<wgt id='1265'> +1.2425365e-12 </wgt>
<wgt id='1266'> +1.2305659e-12 </wgt>
<wgt id='1267'> +1.2584309e-12 </wgt>
<wgt id='1268'> +1.2530863e-12 </wgt>
<wgt id='1269'> +1.2390530e-12 </wgt>
<wgt id='1270'> +1.2424388e-12 </wgt>
<wgt id='1271'> +1.2445562e-12 </wgt>
<wgt id='1272'> +1.2415403e-12 </wgt>
<wgt id='1273'> +1.2469150e-12 </wgt>
<wgt id='1274'> +1.2486372e-12 </wgt>
<wgt id='1275'> +1.2409876e-12 </wgt>
<wgt id='1276'> +1.2424359e-12 </wgt>
<wgt id='1277'> +1.2477589e-12 </wgt>
<wgt id='1278'> +1.2436425e-12 </wgt>
<wgt id='1279'> +1.2489739e-12 </wgt>
<wgt id='1280'> +1.2440372e-12 </wgt>
<wgt id='1281'> +1.2554521e-12 </wgt>
<wgt id='1282'> +1.2456839e-12 </wgt>
<wgt id='1283'> +1.2383855e-12 </wgt>
<wgt id='1284'> +1.2412446e-12 </wgt>
<wgt id='1285'> +1.2437142e-12 </wgt>
<wgt id='1286'> +1.2477737e-12 </wgt>
<wgt id='1287'> +1.2492717e-12 </wgt>
<wgt id='1288'> +1.2505286e-12 </wgt>
<wgt id='1289'> +1.3315879e-12 </wgt>
<wgt id='1290'> +1.3277926e-12 </wgt>
<wgt id='1291'> +1.3356255e-12 </wgt>
<wgt id='1292'> +1.3276536e-12 </wgt>
<wgt id='1293'> +1.3343832e-12 </wgt>
<wgt id='1294'> +1.3189749e-12 </wgt>
<wgt id='1295'> +1.3438623e-12 </wgt>
<wgt id='1296'> +1.3321162e-12 </wgt>
<wgt id='1297'> +1.3308408e-12 </wgt>
<wgt id='1298'> +1.3337063e-12 </wgt>
<wgt id='1299'> +1.3288729e-12 </wgt>
<wgt id='1300'> +1.3324439e-12 </wgt>
<wgt id='1301'> +1.3297556e-12 </wgt>
<wgt id='1302'> +1.3321561e-12 </wgt>
<wgt id='1303'> +1.3307737e-12 </wgt>
<wgt id='1304'> +1.3242839e-12 </wgt>
<wgt id='1305'> +1.3365816e-12 </wgt>
<wgt id='1306'> +1.3305836e-12 </wgt>
<wgt id='1307'> +1.3327699e-12 </wgt>
<wgt id='1308'> +1.3199843e-12 </wgt>
<wgt id='1309'> +1.3404200e-12 </wgt>
<wgt id='1310'> +1.3320375e-12 </wgt>
<wgt id='1311'> +1.3312774e-12 </wgt>
<wgt id='1312'> +1.3270924e-12 </wgt>
<wgt id='1313'> +1.3364363e-12 </wgt>
<wgt id='1314'> +1.3201066e-12 </wgt>
<wgt id='1315'> +1.3394931e-12 </wgt>
<wgt id='1316'> +1.3359562e-12 </wgt>
<wgt id='1317'> +1.3338333e-12 </wgt>
<wgt id='1318'> +1.3361149e-12 </wgt>
<wgt id='1319'> +1.3255817e-12 </wgt>
<wgt id='1320'> +1.3641446e-12 </wgt>
<wgt id='1321'> +1.3068904e-12 </wgt>
<wgt id='1322'> +1.3353691e-12 </wgt>
<wgt id='1323'> +1.3263809e-12 </wgt>
<wgt id='1324'> +1.3325932e-12 </wgt>
<wgt id='1325'> +1.3337014e-12 </wgt>
<wgt id='1326'> +1.3310001e-12 </wgt>
<wgt id='1327'> +1.3342833e-12 </wgt>
<wgt id='1328'> +1.3302418e-12 </wgt>
<wgt id='1329'> +1.3326068e-12 </wgt>
<wgt id='1330'> +1.3172276e-12 </wgt>
<wgt id='1331'> +1.3531025e-12 </wgt>
<wgt id='1332'> +1.3508717e-12 </wgt>
<wgt id='1333'> +1.3218626e-12 </wgt>
<wgt id='1334'> +1.3240680e-12 </wgt>
<wgt id='1335'> +1.3525127e-12 </wgt>
<wgt id='1336'> +1.3319975e-12 </wgt>
<wgt id='1337'> +1.3298302e-12 </wgt>
<wgt id='1338'> +1.3377017e-12 </wgt>
<wgt id='1339'> +1.3299698e-12 </wgt>
<wgt id='1340'> +1.3112766e-12 </wgt>
<wgt id='1341'> +1.3075017e-12 </wgt>
<wgt id='1342'> +1.3153085e-12 </wgt>
<wgt id='1343'> +1.3072745e-12 </wgt>
<wgt id='1344'> +1.3140022e-12 </wgt>
<wgt id='1345'> +1.2985668e-12 </wgt>
<wgt id='1346'> +1.3231876e-12 </wgt>
<wgt id='1347'> +1.3123313e-12 </wgt>
<wgt id='1348'> +1.3100058e-12 </wgt>
<wgt id='1349'> +1.3134505e-12 </wgt>
<wgt id='1350'> +1.3091721e-12 </wgt>
<wgt id='1351'> +1.3120555e-12 </wgt>
<wgt id='1352'> +1.3095900e-12 </wgt>
<wgt id='1353'> +1.3114115e-12 </wgt>
<wgt id='1354'> +1.3110683e-12 </wgt>
<wgt id='1355'> +1.3034177e-12 </wgt>
<wgt id='1356'> +1.3157495e-12 </wgt>
<wgt id='1357'> +1.3073894e-12 </wgt>
<wgt id='1358'> +1.3159546e-12 </wgt>
<wgt id='1359'> +1.3009064e-12 </wgt>
<wgt id='1360'> +1.3203417e-12 </wgt>
<wgt id='1361'> +1.3118990e-12 </wgt>
<wgt id='1362'> +1.3107167e-12 </wgt>
<wgt id='1363'> +1.3068952e-12 </wgt>
<wgt id='1364'> +1.3148310e-12 </wgt>
<wgt id='1365'> +1.3145163e-12 </wgt>
<wgt id='1366'> +1.3007796e-12 </wgt>
<wgt id='1367'> +1.3158976e-12 </wgt>
<wgt id='1368'> +1.3123345e-12 </wgt>
<wgt id='1369'> +1.3136628e-12 </wgt>
<wgt id='1370'> +1.3082045e-12 </wgt>
<wgt id='1371'> +1.3367313e-12 </wgt>
<wgt id='1372'> +1.2829975e-12 </wgt>
<wgt id='1373'> +1.3122633e-12 </wgt>
<wgt id='1374'> +1.3099071e-12 </wgt>
<wgt id='1375'> +1.3117707e-12 </wgt>
<wgt id='1376'> +1.3142641e-12 </wgt>
<wgt id='1377'> +1.3117208e-12 </wgt>
<wgt id='1378'> +1.3134770e-12 </wgt>
<wgt id='1379'> +1.3098240e-12 </wgt>
<wgt id='1380'> +1.3126054e-12 </wgt>
<wgt id='1381'> +1.2974729e-12 </wgt>
<wgt id='1382'> +1.3305063e-12 </wgt>
<wgt id='1383'> +1.3327174e-12 </wgt>
<wgt id='1384'> +1.3011732e-12 </wgt>
<wgt id='1385'> +1.3038830e-12 </wgt>
<wgt id='1386'> +1.3309745e-12 </wgt>
<wgt id='1387'> +1.3102258e-12 </wgt>
<wgt id='1388'> +1.3123314e-12 </wgt>
<wgt id='1389'> +1.3171051e-12 </wgt>
<wgt id='1390'> +1.3101404e-12 </wgt>
<wgt id='1391'> +1.2789899e-12 </wgt>
<wgt id='1392'> +1.2490276e-12 </wgt>
<wgt id='1393'> +1.2605913e-12 </wgt>
<wgt id='1394'> +1.2707143e-12 </wgt>
<wgt id='1395'> +1.2916549e-12 </wgt>
<wgt id='1396'> +1.2812091e-12 </wgt>
<wgt id='1397'> +1.2381867e-12 </wgt>
<wgt id='1398'> +1.2471868e-12 </wgt>
<wgt id='1399'> +1.2553455e-12 </wgt>
<wgt id='1400'> +1.2635998e-12 </wgt>
<wgt id='1401'> +1.2724533e-12 </wgt>
<wgt id='1402'> +1.2901383e-12 </wgt>
<wgt id='1403'> +1.2987133e-12 </wgt>
<wgt id='1404'> +1.3071771e-12 </wgt>
<wgt id='1405'> +1.2812091e-12 </wgt>
<wgt id='1406'> +1.2775210e-12 </wgt>
<wgt id='1407'> +1.2795883e-12 </wgt>
<wgt id='1408'> +1.2827762e-12 </wgt>
<wgt id='1409'> +1.2850187e-12 </wgt>
<wgt id='1410'> +1.2208545e-12 </wgt>
<wgt id='1411'> +1.2186571e-12 </wgt>
<wgt id='1412'> +1.2236250e-12 </wgt>
<wgt id='1413'> +1.2166654e-12 </wgt>
<wgt id='1414'> +1.2250625e-12 </wgt>
<wgt id='1415'> +1.2137376e-12 </wgt>
<wgt id='1416'> +1.2237437e-12 </wgt>
<wgt id='1417'> +1.2139890e-12 </wgt>
<wgt id='1418'> +1.2277355e-12 </wgt>
<wgt id='1419'> +1.2213383e-12 </wgt>
<wgt id='1420'> +1.2203962e-12 </wgt>
<wgt id='1421'> +1.2137815e-12 </wgt>
<wgt id='1422'> +1.2238973e-12 </wgt>
<wgt id='1423'> +1.2235888e-12 </wgt>
<wgt id='1424'> +1.2175390e-12 </wgt>
<wgt id='1425'> +1.2156564e-12 </wgt>
<wgt id='1426'> +1.2264630e-12 </wgt>
<wgt id='1427'> +1.1998739e-12 </wgt>
<wgt id='1428'> +1.2323765e-12 </wgt>
<wgt id='1429'> +1.2267497e-12 </wgt>
<wgt id='1430'> +1.2130412e-12 </wgt>
<wgt id='1431'> +1.2190031e-12 </wgt>
<wgt id='1432'> +1.2221069e-12 </wgt>
<wgt id='1433'> +1.2090779e-12 </wgt>
<wgt id='1434'> +1.2304586e-12 </wgt>
<wgt id='1435'> +1.2203940e-12 </wgt>
<wgt id='1436'> +1.2224247e-12 </wgt>
<wgt id='1437'> +1.2259328e-12 </wgt>
<wgt id='1438'> +1.2220761e-12 </wgt>
<wgt id='1439'> +1.2150270e-12 </wgt>
<wgt id='1440'> +1.2332776e-12 </wgt>
<wgt id='1441'> +1.2326797e-12 </wgt>
<wgt id='1442'> +1.1978420e-12 </wgt>
<wgt id='1443'> +1.2160364e-12 </wgt>
<wgt id='1444'> +1.2321778e-12 </wgt>
<wgt id='1445'> +1.2214045e-12 </wgt>
<wgt id='1446'> +1.2221962e-12 </wgt>
<wgt id='1447'> +1.2193996e-12 </wgt>
<wgt id='1448'> +1.2258854e-12 </wgt>
<wgt id='1449'> +1.2204934e-12 </wgt>
<wgt id='1450'> +1.2207429e-12 </wgt>
<wgt id='1451'> +1.2332466e-12 </wgt>
<wgt id='1452'> +1.2014516e-12 </wgt>
<wgt id='1453'> +1.2214295e-12 </wgt>
<wgt id='1454'> +1.2232147e-12 </wgt>
<wgt id='1455'> +1.2181472e-12 </wgt>
<wgt id='1456'> +1.2271392e-12 </wgt>
<wgt id='1457'> +1.2340758e-12 </wgt>
<wgt id='1458'> +1.2154752e-12 </wgt>
<wgt id='1459'> +1.2257425e-12 </wgt>
<wgt id='1460'> +1.2193847e-12 </wgt>
<wgt id='1461'> +1.2208545e-12 </wgt>
<wgt id='1462'> +1.2153071e-12 </wgt>
<wgt id='1463'> +1.2297702e-12 </wgt>
<wgt id='1464'> +1.2217322e-12 </wgt>
<wgt id='1465'> +1.1808594e-12 </wgt>
<wgt id='1466'> +1.1899784e-12 </wgt>
<wgt id='1467'> +1.1986888e-12 </wgt>
<wgt id='1468'> +1.2058286e-12 </wgt>
<wgt id='1469'> +1.2143499e-12 </wgt>
<wgt id='1470'> +1.2292302e-12 </wgt>
<wgt id='1471'> +1.2344107e-12 </wgt>
<wgt id='1472'> +1.2416431e-12 </wgt>
<wgt id='1473'> +1.2217322e-12 </wgt>
<wgt id='1474'> +1.2180169e-12 </wgt>
<wgt id='1475'> +1.2193542e-12 </wgt>
<wgt id='1476'> +1.2233025e-12 </wgt>
<wgt id='1477'> +1.2247990e-12 </wgt>
<wgt id='1478'> +1.2688778e-12 </wgt>
<wgt id='1479'> +1.2693423e-12 </wgt>
<wgt id='1480'> +1.2707674e-12 </wgt>
<wgt id='1481'> +1.2762018e-12 </wgt>
<wgt id='1482'> +1.2715576e-12 </wgt>
<wgt id='1483'> +1.2450180e-12 </wgt>
<wgt id='1484'> +1.2695262e-12 </wgt>
<wgt id='1485'> +1.2839169e-12 </wgt>
<wgt id='1486'> +1.2689882e-12 </wgt>
<wgt id='1487'> +1.2643083e-12 </wgt>
<wgt id='1488'> +1.2667636e-12 </wgt>
<wgt id='1489'> +1.2734462e-12 </wgt>
<wgt id='1490'> +1.2622904e-12 </wgt>
<wgt id='1491'> +1.2777783e-12 </wgt>
<wgt id='1492'> +1.2666671e-12 </wgt>
<wgt id='1493'> +1.2456012e-12 </wgt>
<wgt id='1494'> +1.2709233e-12 </wgt>
<wgt id='1495'> +1.2687927e-12 </wgt>
<wgt id='1496'> +1.2723156e-12 </wgt>
<wgt id='1497'> +1.2571103e-12 </wgt>
<wgt id='1498'> +1.2681409e-12 </wgt>
<wgt id='1499'> +1.2701468e-12 </wgt>
<wgt id='1500'> +1.2692136e-12 </wgt>
<wgt id='1501'> +1.2687906e-12 </wgt>
<wgt id='1502'> +1.2713778e-12 </wgt>
<wgt id='1503'> +1.2707971e-12 </wgt>
<wgt id='1504'> +1.2442702e-12 </wgt>
<wgt id='1505'> +1.2694577e-12 </wgt>
<wgt id='1506'> +1.2695040e-12 </wgt>
<wgt id='1507'> +1.2675290e-12 </wgt>
<wgt id='1508'> +1.2752852e-12 </wgt>
<wgt id='1509'> +1.3109009e-12 </wgt>
<wgt id='1510'> +1.3100847e-12 </wgt>
<wgt id='1511'> +1.3072724e-12 </wgt>
<wgt id='1512'> +1.3043116e-12 </wgt>
<wgt id='1513'> +1.3129052e-12 </wgt>
<wgt id='1514'> +1.3168655e-12 </wgt>
<wgt id='1515'> +1.3123551e-12 </wgt>
<wgt id='1516'> +1.3185096e-12 </wgt>
<wgt id='1517'> +1.3160182e-12 </wgt>
<wgt id='1518'> +1.3156792e-12 </wgt>
<wgt id='1519'> +1.3037158e-12 </wgt>
<wgt id='1520'> +1.3086362e-12 </wgt>
<wgt id='1521'> +1.3178362e-12 </wgt>
<wgt id='1522'> +1.3088563e-12 </wgt>
<wgt id='1523'> +1.3203255e-12 </wgt>
<wgt id='1524'> +1.3152343e-12 </wgt>
<wgt id='1525'> +1.3193009e-12 </wgt>
<wgt id='1526'> +1.3062492e-12 </wgt>
<wgt id='1527'> +1.3073128e-12 </wgt>
<wgt id='1528'> +1.3116005e-12 </wgt>
<wgt id='1529'> +1.3111259e-12 </wgt>
<wgt id='1530'> +1.3175142e-12 </wgt>
<wgt id='1531'> +1.3127993e-12 </wgt>
<wgt id='1532'> +1.3023126e-12 </wgt>
<wgt id='1533'> +1.3101512e-12 </wgt>
<wgt id='1534'> +1.3137807e-12 </wgt>
<wgt id='1535'> +1.3040366e-12 </wgt>
<wgt id='1536'> +1.3120358e-12 </wgt>
<wgt id='1537'> +1.3120738e-12 </wgt>
<wgt id='1538'> +1.3094853e-12 </wgt>
<wgt id='1539'> +1.2986270e-12 </wgt>
<wgt id='1540'> +1.3183512e-12 </wgt>
<wgt id='1541'> +1.3136474e-12 </wgt>
<wgt id='1542'> +1.3195454e-12 </wgt>
<wgt id='1543'> +1.3107025e-12 </wgt>
<wgt id='1544'> +1.3236283e-12 </wgt>
<wgt id='1545'> +1.3121133e-12 </wgt>
<wgt id='1546'> +1.2994691e-12 </wgt>
<wgt id='1547'> +1.3155720e-12 </wgt>
<wgt id='1548'> +1.3066016e-12 </wgt>
<wgt id='1549'> +1.3115858e-12 </wgt>
<wgt id='1550'> +1.3083427e-12 </wgt>
<wgt id='1551'> +1.3125755e-12 </wgt>
<wgt id='1552'> +1.3110692e-12 </wgt>
<wgt id='1553'> +1.3128909e-12 </wgt>
<wgt id='1554'> +1.3080919e-12 </wgt>
<wgt id='1555'> +1.3071743e-12 </wgt>
<wgt id='1556'> +1.3075123e-12 </wgt>
<wgt id='1557'> +1.3129221e-12 </wgt>
<wgt id='1558'> +1.3124657e-12 </wgt>
<wgt id='1559'> +1.3135180e-12 </wgt>
<wgt id='1560'> +1.3113846e-12 </wgt>
<wgt id='1561'> +1.3101351e-12 </wgt>
<wgt id='1562'> +1.3114771e-12 </wgt>
<wgt id='1563'> +1.3119327e-12 </wgt>
<wgt id='1564'> +1.3127437e-12 </wgt>
<wgt id='1565'> +1.3102404e-12 </wgt>
<wgt id='1566'> +1.3102419e-12 </wgt>
<wgt id='1567'> +1.3112325e-12 </wgt>
<wgt id='1568'> +1.3106844e-12 </wgt>
<wgt id='1569'> +1.3098064e-12 </wgt>
<wgt id='1570'> +1.3101118e-12 </wgt>
<wgt id='1571'> +1.3118694e-12 </wgt>
<wgt id='1572'> +1.3106206e-12 </wgt>
<wgt id='1573'> +1.3093393e-12 </wgt>
<wgt id='1574'> +1.3130464e-12 </wgt>
<wgt id='1575'> +1.3101677e-12 </wgt>
<wgt id='1576'> +1.3094615e-12 </wgt>
<wgt id='1577'> +1.3117545e-12 </wgt>
<wgt id='1578'> +1.3080717e-12 </wgt>
<wgt id='1579'> +1.3129216e-12 </wgt>
<wgt id='1580'> +1.3069417e-12 </wgt>
<wgt id='1581'> +1.3122738e-12 </wgt>
<wgt id='1582'> +1.3091104e-12 </wgt>
<wgt id='1583'> +1.3113752e-12 </wgt>
<wgt id='1584'> +1.3087440e-12 </wgt>
<wgt id='1585'> +1.3080213e-12 </wgt>
<wgt id='1586'> +1.3090978e-12 </wgt>
<wgt id='1587'> +1.3091268e-12 </wgt>
<wgt id='1588'> +1.3122690e-12 </wgt>
<wgt id='1589'> +1.3103468e-12 </wgt>
<wgt id='1590'> +1.3116422e-12 </wgt>
<wgt id='1591'> +1.3092989e-12 </wgt>
<wgt id='1592'> +1.3108923e-12 </wgt>
<wgt id='1593'> +1.3105478e-12 </wgt>
<wgt id='1594'> +1.3101447e-12 </wgt>
<wgt id='1595'> +1.3095951e-12 </wgt>
<wgt id='1596'> +1.3103832e-12 </wgt>
<wgt id='1597'> +1.3096172e-12 </wgt>
<wgt id='1598'> +1.3102901e-12 </wgt>
<wgt id='1599'> +1.3117602e-12 </wgt>
<wgt id='1600'> +1.3106869e-12 </wgt>
<wgt id='1601'> +1.3098544e-12 </wgt>
<wgt id='1602'> +1.3104190e-12 </wgt>
<wgt id='1603'> +1.3118860e-12 </wgt>
<wgt id='1604'> +1.3110011e-12 </wgt>
<wgt id='1605'> +1.3111159e-12 </wgt>
<wgt id='1606'> +1.3118188e-12 </wgt>
<wgt id='1607'> +1.3114896e-12 </wgt>
<wgt id='1608'> +1.3111108e-12 </wgt>
<wgt id='1609'> +1.3112414e-12 </wgt>
<wgt id='1610'> +1.3110961e-12 </wgt>
<wgt id='1611'> +1.3208667e-12 </wgt>
<wgt id='1612'> +1.5411421e-12 </wgt>
<wgt id='1613'> +1.5857421e-12 </wgt>
<wgt id='1614'> +1.5303547e-12 </wgt>
<wgt id='1615'> +1.5213468e-12 </wgt>
<wgt id='1616'> +1.5180993e-12 </wgt>
<wgt id='1617'> +1.5557157e-12 </wgt>
<wgt id='1618'> +1.6115868e-12 </wgt>
<wgt id='1619'> +1.5541698e-12 </wgt>
<wgt id='1620'> +1.5008510e-12 </wgt>
<wgt id='1621'> +1.5855170e-12 </wgt>
<wgt id='1622'> +1.5392389e-12 </wgt>
<wgt id='1623'> +1.5070587e-12 </wgt>
<wgt id='1624'> +1.5650572e-12 </wgt>
<wgt id='1625'> +1.6018084e-12 </wgt>
<wgt id='1626'> +1.4809675e-12 </wgt>
<wgt id='1627'> +1.5329830e-12 </wgt>
<wgt id='1628'> +1.6021110e-12 </wgt>
<wgt id='1629'> +1.5781432e-12 </wgt>
<wgt id='1630'> +1.5145330e-12 </wgt>
<wgt id='1631'> +1.5645742e-12 </wgt>
<wgt id='1632'> +1.5177793e-12 </wgt>
<wgt id='1633'> +1.4729117e-12 </wgt>
<wgt id='1634'> +1.5502009e-12 </wgt>
<wgt id='1635'> +1.5167442e-12 </wgt>
<wgt id='1636'> +1.6130882e-12 </wgt>
<wgt id='1637'> +1.5298097e-12 </wgt>
<wgt id='1638'> +1.5061397e-12 </wgt>
<wgt id='1639'> +1.5280554e-12 </wgt>
<wgt id='1640'> +1.4963949e-12 </wgt>
<wgt id='1641'> +1.5421249e-12 </wgt>
<wgt id='1642'> +1.4852387e-12 </wgt>
<wgt id='1643'> +1.6282192e-12 </wgt>
<wgt id='1644'> +1.4817300e-12 </wgt>
<wgt id='1645'> +1.5538119e-12 </wgt>
<wgt id='1646'> +1.4979078e-12 </wgt>
<wgt id='1647'> +1.5354972e-12 </wgt>
<wgt id='1648'> +1.5523062e-12 </wgt>
<wgt id='1649'> +1.6420701e-12 </wgt>
<wgt id='1650'> +1.5096080e-12 </wgt>
<wgt id='1651'> +1.5117812e-12 </wgt>
<wgt id='1652'> +1.5065473e-12 </wgt>
<wgt id='1653'> +1.5864718e-12 </wgt>
<wgt id='1654'> +1.5817384e-12 </wgt>
<wgt id='1655'> +1.5849122e-12 </wgt>
<wgt id='1656'> +1.5063181e-12 </wgt>
<wgt id='1657'> +1.5824105e-12 </wgt>
<wgt id='1658'> +1.4604457e-12 </wgt>
<wgt id='1659'> +1.5650572e-12 </wgt>
<wgt id='1660'> +1.6267199e-12 </wgt>
<wgt id='1661'> +1.5094404e-12 </wgt>
<wgt id='1662'> +1.5134411e-12 </wgt>
<wgt id='1663'> +1.5144895e-12 </wgt>
<wgt id='1664'> +1.5514838e-12 </wgt>
<wgt id='1665'> +1.4069733e-12 </wgt>
<wgt id='1666'> +1.5106607e-12 </wgt>
<wgt id='1667'> +1.5762917e-12 </wgt>
<wgt id='1668'> +1.5757350e-12 </wgt>
<wgt id='1669'> +1.5911594e-12 </wgt>
<wgt id='1670'> +1.5357246e-12 </wgt>
<wgt id='1671'> +1.5148631e-12 </wgt>
<wgt id='1672'> +1.5448943e-12 </wgt>
<wgt id='1673'> +1.5078925e-12 </wgt>
<wgt id='1674'> +1.5192626e-12 </wgt>
<wgt id='1675'> +1.5761340e-12 </wgt>
<wgt id='1676'> +1.6037520e-12 </wgt>
<wgt id='1677'> +1.5344897e-12 </wgt>
<wgt id='1678'> +1.4926689e-12 </wgt>
<wgt id='1679'> +1.5123339e-12 </wgt>
<wgt id='1680'> +1.5896896e-12 </wgt>
<wgt id='1681'> +1.5303963e-12 </wgt>
<wgt id='1682'> +1.5381219e-12 </wgt>
<wgt id='1683'> +1.5202901e-12 </wgt>
<wgt id='1684'> +1.5496218e-12 </wgt>
<wgt id='1685'> +1.5496699e-12 </wgt>
<wgt id='1686'> +1.5542472e-12 </wgt>
<wgt id='1687'> +1.5721718e-12 </wgt>
<wgt id='1688'> +1.4617388e-12 </wgt>
<wgt id='1689'> +1.5125230e-12 </wgt>
<wgt id='1690'> +1.5179058e-12 </wgt>
<wgt id='1691'> +1.5345827e-12 </wgt>
<wgt id='1692'> +1.5292242e-12 </wgt>
<wgt id='1693'> +1.5506340e-12 </wgt>
<wgt id='1694'> +1.5865856e-12 </wgt>
<wgt id='1695'> +1.4527394e-12 </wgt>
<wgt id='1696'> +1.5189272e-12 </wgt>
<wgt id='1697'> +1.5368839e-12 </wgt>
<wgt id='1698'> +1.5193863e-12 </wgt>
<wgt id='1699'> +1.6116335e-12 </wgt>
<wgt id='1700'> +1.4942634e-12 </wgt>
<wgt id='1701'> +1.5426366e-12 </wgt>
<wgt id='1702'> +1.5844876e-12 </wgt>
<wgt id='1703'> +1.5385579e-12 </wgt>
<wgt id='1704'> +1.5927559e-12 </wgt>
<wgt id='1705'> +1.4801716e-12 </wgt>
<wgt id='1706'> +1.6076355e-12 </wgt>
<wgt id='1707'> +1.5405464e-12 </wgt>
<wgt id='1708'> +1.6045240e-12 </wgt>
<wgt id='1709'> +1.5552857e-12 </wgt>
<wgt id='1710'> +1.5269103e-12 </wgt>
<wgt id='1711'> +1.5193138e-12 </wgt>
<wgt id='1712'> +1.5748957e-12 </wgt>
<wgt id='1713'> +1.2621774e-12 </wgt>
<wgt id='1714'> +1.1860562e-12 </wgt>
<wgt id='1715'> +1.2374263e-12 </wgt>
<wgt id='1716'> +1.2896662e-12 </wgt>
<wgt id='1717'> +1.2722675e-12 </wgt>
<wgt id='1718'> +1.3000774e-12 </wgt>
<wgt id='1719'> +1.2181984e-12 </wgt>
<wgt id='1720'> +1.2542534e-12 </wgt>
<wgt id='1721'> +1.2623142e-12 </wgt>
<wgt id='1722'> +1.2796116e-12 </wgt>
<wgt id='1723'> +1.2745511e-12 </wgt>
<wgt id='1724'> +1.2285700e-12 </wgt>
<wgt id='1725'> +1.2764384e-12 </wgt>
<wgt id='1726'> +1.2887068e-12 </wgt>
<wgt id='1727'> +1.2884270e-12 </wgt>
<wgt id='1728'> +1.2442597e-12 </wgt>
<wgt id='1729'> +1.2738000e-12 </wgt>
<wgt id='1730'> +1.2254018e-12 </wgt>
<wgt id='1731'> +1.2161451e-12 </wgt>
<wgt id='1732'> +1.2444513e-12 </wgt>
<wgt id='1733'> +1.3157033e-12 </wgt>
<wgt id='1734'> +1.3006518e-12 </wgt>
<wgt id='1735'> +1.2568043e-12 </wgt>
<wgt id='1736'> +1.3084151e-12 </wgt>
<wgt id='1737'> +1.3429553e-12 </wgt>
<wgt id='1738'> +1.2867723e-12 </wgt>
<wgt id='1739'> +1.2641193e-12 </wgt>
<wgt id='1740'> +1.2181869e-12 </wgt>
<wgt id='1741'> +1.2984102e-12 </wgt>
<wgt id='1742'> +1.2442947e-12 </wgt>
<wgt id='1743'> +1.2829697e-12 </wgt>
<wgt id='1744'> +1.3275913e-12 </wgt>
<wgt id='1745'> +1.2642398e-12 </wgt>
<wgt id='1746'> +1.2684468e-12 </wgt>
<wgt id='1747'> +1.2941901e-12 </wgt>
<wgt id='1748'> +1.2858694e-12 </wgt>
<wgt id='1749'> +1.2580691e-12 </wgt>
<wgt id='1750'> +1.2655460e-12 </wgt>
<wgt id='1751'> +1.2392796e-12 </wgt>
<wgt id='1752'> +1.2113790e-12 </wgt>
<wgt id='1753'> +1.2911346e-12 </wgt>
<wgt id='1754'> +1.2173998e-12 </wgt>
<wgt id='1755'> +1.2340717e-12 </wgt>
<wgt id='1756'> +1.2847117e-12 </wgt>
<wgt id='1757'> +1.2639867e-12 </wgt>
<wgt id='1758'> +1.2844866e-12 </wgt>
<wgt id='1759'> +1.2182245e-12 </wgt>
<wgt id='1760'> +1.2245745e-12 </wgt>
<wgt id='1761'> +1.2535249e-12 </wgt>
<wgt id='1762'> +1.2725864e-12 </wgt>
<wgt id='1763'> +1.2741117e-12 </wgt>
<wgt id='1764'> +1.2716013e-12 </wgt>
<wgt id='1765'> +1.2654990e-12 </wgt>
<wgt id='1766'> +1.3037829e-12 </wgt>
<wgt id='1767'> +1.2575640e-12 </wgt>
<wgt id='1768'> +1.2864301e-12 </wgt>
<wgt id='1769'> +1.2187182e-12 </wgt>
<wgt id='1770'> +1.2396677e-12 </wgt>
<wgt id='1771'> +1.2695746e-12 </wgt>
<wgt id='1772'> +1.2808579e-12 </wgt>
<wgt id='1773'> +1.2750144e-12 </wgt>
<wgt id='1774'> +1.2534850e-12 </wgt>
<wgt id='1775'> +1.2728068e-12 </wgt>
<wgt id='1776'> +1.2770505e-12 </wgt>
<wgt id='1777'> +1.2046546e-12 </wgt>
<wgt id='1778'> +1.2687447e-12 </wgt>
<wgt id='1779'> +1.2991721e-12 </wgt>
<wgt id='1780'> +1.2315005e-12 </wgt>
<wgt id='1781'> +1.2531301e-12 </wgt>
<wgt id='1782'> +1.2579502e-12 </wgt>
<wgt id='1783'> +1.3086568e-12 </wgt>
<wgt id='1784'> +1.2398336e-12 </wgt>
<wgt id='1785'> +1.2650388e-12 </wgt>
<wgt id='1786'> +1.2224934e-12 </wgt>
<wgt id='1787'> +1.3131366e-12 </wgt>
<wgt id='1788'> +1.2244466e-12 </wgt>
<wgt id='1789'> +1.3246931e-12 </wgt>
<wgt id='1790'> +1.2821832e-12 </wgt>
<wgt id='1791'> +1.2468081e-12 </wgt>
<wgt id='1792'> +1.2404237e-12 </wgt>
<wgt id='1793'> +1.3038518e-12 </wgt>
<wgt id='1794'> +1.2815003e-12 </wgt>
<wgt id='1795'> +1.2856781e-12 </wgt>
<wgt id='1796'> +1.2099528e-12 </wgt>
<wgt id='1797'> +1.2740814e-12 </wgt>
<wgt id='1798'> +1.2585288e-12 </wgt>
<wgt id='1799'> +1.2509851e-12 </wgt>
<wgt id='1800'> +1.2760437e-12 </wgt>
<wgt id='1801'> +1.2139703e-12 </wgt>
<wgt id='1802'> +1.2473180e-12 </wgt>
<wgt id='1803'> +1.2984006e-12 </wgt>
<wgt id='1804'> +1.2567450e-12 </wgt>
<wgt id='1805'> +1.3022206e-12 </wgt>
<wgt id='1806'> +1.2473550e-12 </wgt>
<wgt id='1807'> +1.2252106e-12 </wgt>
<wgt id='1808'> +1.2087261e-12 </wgt>
<wgt id='1809'> +1.2273542e-12 </wgt>
<wgt id='1810'> +1.2627716e-12 </wgt>
<wgt id='1811'> +1.2778055e-12 </wgt>
<wgt id='1812'> +1.2552356e-12 </wgt>
<wgt id='1813'> +1.1927647e-12 </wgt>
<wgt id='1814'> +1.5902685e-12 </wgt>
<wgt id='1815'> +1.8305615e-12 </wgt>
<wgt id='1816'> +1.2621774e-12 </wgt>
<wgt id='1817'> +1.1860562e-12 </wgt>
<wgt id='1818'> +1.2374263e-12 </wgt>
<wgt id='1819'> +1.2896662e-12 </wgt>
<wgt id='1820'> +1.2722675e-12 </wgt>
<wgt id='1821'> +1.3000774e-12 </wgt>
<wgt id='1822'> +1.2181984e-12 </wgt>
<wgt id='1823'> +1.2542534e-12 </wgt>
<wgt id='1824'> +1.2623142e-12 </wgt>
<wgt id='1825'> +1.2796116e-12 </wgt>
<wgt id='1826'> +1.2745511e-12 </wgt>
<wgt id='1827'> +1.2285700e-12 </wgt>
<wgt id='1828'> +1.2764384e-12 </wgt>
<wgt id='1829'> +1.2887068e-12 </wgt>
<wgt id='1830'> +1.2884270e-12 </wgt>
<wgt id='1831'> +1.2442597e-12 </wgt>
<wgt id='1832'> +1.2738000e-12 </wgt>
<wgt id='1833'> +1.2254018e-12 </wgt>
<wgt id='1834'> +1.2161451e-12 </wgt>
<wgt id='1835'> +1.2444513e-12 </wgt>
<wgt id='1836'> +1.3157033e-12 </wgt>
<wgt id='1837'> +1.3006518e-12 </wgt>
<wgt id='1838'> +1.2568043e-12 </wgt>
<wgt id='1839'> +1.3084151e-12 </wgt>
<wgt id='1840'> +1.3429553e-12 </wgt>
<wgt id='1841'> +1.2867723e-12 </wgt>
<wgt id='1842'> +1.2641193e-12 </wgt>
<wgt id='1843'> +1.2181869e-12 </wgt>
<wgt id='1844'> +1.2984102e-12 </wgt>
<wgt id='1845'> +1.2442947e-12 </wgt>
<wgt id='1846'> +1.2829697e-12 </wgt>
<wgt id='1847'> +1.3275913e-12 </wgt>
<wgt id='1848'> +1.2642398e-12 </wgt>
<wgt id='1849'> +1.2684468e-12 </wgt>
<wgt id='1850'> +1.2941901e-12 </wgt>
<wgt id='1851'> +1.2858694e-12 </wgt>
<wgt id='1852'> +1.2580691e-12 </wgt>
<wgt id='1853'> +1.2655460e-12 </wgt>
<wgt id='1854'> +1.2392796e-12 </wgt>
<wgt id='1855'> +1.2113790e-12 </wgt>
<wgt id='1856'> +1.2911346e-12 </wgt>
<wgt id='1857'> +1.2173998e-12 </wgt>
<wgt id='1858'> +1.2340717e-12 </wgt>
<wgt id='1859'> +1.2847117e-12 </wgt>
<wgt id='1860'> +1.2639867e-12 </wgt>
<wgt id='1861'> +1.2844866e-12 </wgt>
<wgt id='1862'> +1.2182245e-12 </wgt>
<wgt id='1863'> +1.2245745e-12 </wgt>
<wgt id='1864'> +1.2535249e-12 </wgt>
<wgt id='1865'> +1.2725864e-12 </wgt>
<wgt id='1866'> +1.2741117e-12 </wgt>
<wgt id='1867'> +1.2716013e-12 </wgt>
<wgt id='1868'> +1.2654990e-12 </wgt>
<wgt id='1869'> +1.3037829e-12 </wgt>
<wgt id='1870'> +1.2575640e-12 </wgt>
<wgt id='1871'> +1.2864301e-12 </wgt>
<wgt id='1872'> +1.2187182e-12 </wgt>
<wgt id='1873'> +1.2396677e-12 </wgt>
<wgt id='1874'> +1.2695746e-12 </wgt>
<wgt id='1875'> +1.2808579e-12 </wgt>
<wgt id='1876'> +1.2750144e-12 </wgt>
<wgt id='1877'> +1.2534850e-12 </wgt>
<wgt id='1878'> +1.2728068e-12 </wgt>
<wgt id='1879'> +1.2770505e-12 </wgt>
<wgt id='1880'> +1.2046546e-12 </wgt>
<wgt id='1881'> +1.2687447e-12 </wgt>
<wgt id='1882'> +1.2991721e-12 </wgt>
<wgt id='1883'> +1.2315005e-12 </wgt>
<wgt id='1884'> +1.2531301e-12 </wgt>
<wgt id='1885'> +1.2579502e-12 </wgt>
<wgt id='1886'> +1.3086568e-12 </wgt>
<wgt id='1887'> +1.2398336e-12 </wgt>
<wgt id='1888'> +1.2650388e-12 </wgt>
<wgt id='1889'> +1.2224934e-12 </wgt>
<wgt id='1890'> +1.3131366e-12 </wgt>
<wgt id='1891'> +1.2244466e-12 </wgt>
<wgt id='1892'> +1.3246931e-12 </wgt>
<wgt id='1893'> +1.2821832e-12 </wgt>
<wgt id='1894'> +1.2468081e-12 </wgt>
<wgt id='1895'> +1.2404237e-12 </wgt>
<wgt id='1896'> +1.3038518e-12 </wgt>
<wgt id='1897'> +1.2815003e-12 </wgt>
<wgt id='1898'> +1.2856781e-12 </wgt>
<wgt id='1899'> +1.2099528e-12 </wgt>
<wgt id='1900'> +1.2740814e-12 </wgt>
<wgt id='1901'> +1.2585288e-12 </wgt>
<wgt id='1902'> +1.2509851e-12 </wgt>
<wgt id='1903'> +1.2760437e-12 </wgt>
<wgt id='1904'> +1.2139703e-12 </wgt>
<wgt id='1905'> +1.2473180e-12 </wgt>
<wgt id='1906'> +1.2984006e-12 </wgt>
<wgt id='1907'> +1.2567450e-12 </wgt>
<wgt id='1908'> +1.3022206e-12 </wgt>
<wgt id='1909'> +1.2473550e-12 </wgt>
<wgt id='1910'> +1.2252106e-12 </wgt>
<wgt id='1911'> +1.2087261e-12 </wgt>
<wgt id='1912'> +1.2273542e-12 </wgt>
<wgt id='1913'> +1.2627716e-12 </wgt>
<wgt id='1914'> +1.2778055e-12 </wgt>
<wgt id='1915'> +1.2552356e-12 </wgt>
<wgt id='1916'> +1.1927647e-12 </wgt>
<wgt id='1917'> +1.2548609e-12 </wgt>
<wgt id='1918'> +1.2692596e-12 </wgt>
<wgt id='1919'> +1.2457045e-12 </wgt>
</rwgt>
</event>
<event>
 9      1 +1.5538000e-12 3.20957200e+01 7.81860800e-03 1.42968100e-01
        2 -1    0    0  502    0 -0.0000000000e+00 +0.0000000000e+00 +1.6739877531e+02 1.6739877531e+02 0.0000000000e+00 0.0000e+00 1.0000e+00
       21 -1    0    0  501  502 +0.0000000000e+00 -0.0000000000e+00 -1.9222740080e+01 1.9222740080e+01 0.0000000000e+00 0.0000e+00 1.0000e+00
     1023  2    1    2    0    0 +1.9992011797e+01 -2.0136461236e+01 +1.5429172603e+02 1.5759464369e+02 1.4999246371e+01 0.0000e+00 0.0000e+00
  1000023  2    3    3    0    0 +8.0620916741e+00 -1.3961452139e+01 +1.0011071182e+02 1.0154969715e+02 5.5015364079e+00 0.0000e+00 0.0000e+00
        2  1    1    2  501    0 -1.9992011797e+01 +2.0136461236e+01 -6.1156907990e+00 2.9026871701e+01 0.0000000000e+00 0.0000e+00 1.0000e+00
  1000022  1    4    4    0    0 +7.0744163992e+00 -1.2403196884e+01 +8.9794068977e+01 9.1059658926e+01 5.0000000000e+00 0.0000e+00 1.0000e+00
      -13  1    4    4    0    0 +7.2700564747e-01 -9.9723947700e-01 +5.8641817411e+00 5.9935651968e+00 1.0570000000e-01 0.0000e+00 1.0000e+00
       13  1    4    4    0    0 +2.6066962738e-01 -5.6101577813e-01 +4.4524611002e+00 4.4964730286e+00 1.0570000000e-01 0.0000e+00 -1.0000e+00
  1000022  1    3    3    0    0 +1.1929920123e+01 -6.1750090961e+00 +5.4181014213e+01 5.6044946540e+01 5.0000000000e+00 0.0000e+00 1.0000e+00
<mgrwt>
<rscale>  1 0.32095716E+02</rscale>
<asrwt>0</asrwt>
<pdfrwt beam="1">  1       21 0.29573447E-02 0.32095716E+02</pdfrwt>
<pdfrwt beam="2">  1        2 0.25753657E-01 0.32095716E+02</pdfrwt>
<totfact> 0.13970286E+06</totfact>
</mgrwt>
<rwgt>
<wgt id='1001'> +1.5538000e-12 </wgt>
<wgt id='1002'> +1.5490016e-12 </wgt>
<wgt id='1003'> +1.5482010e-12 </wgt>
<wgt id='1004'> +1.5524542e-12 </wgt>
<wgt id='1005'> +1.5207448e-12 </wgt>
<wgt id='1006'> +1.3621050e-12 </wgt>
<wgt id='1007'> +1.3771846e-12 </wgt>
<wgt id='1008'> +1.3773076e-12 </wgt>
<wgt id='1009'> +1.3582375e-12 </wgt>
<wgt id='1010'> +1.3692863e-12 </wgt>
<wgt id='1011'> +1.8113584e-12 </wgt>
<wgt id='1012'> +1.7718986e-12 </wgt>
<wgt id='1013'> +1.7695810e-12 </wgt>
<wgt id='1014'> +1.8146884e-12 </wgt>
<wgt id='1015'> +1.7112921e-12 </wgt>
<wgt id='1016'> +1.7635658e-12 </wgt>
<wgt id='1017'> +1.7090887e-12 </wgt>
<wgt id='1018'> +1.7062698e-12 </wgt>
<wgt id='1019'> +1.7695810e-12 </wgt>
<wgt id='1020'> +1.6405756e-12 </wgt>
<wgt id='1021'> +1.5459916e-12 </wgt>
<wgt id='1022'> +1.5195146e-12 </wgt>
<wgt id='1023'> +1.5179285e-12 </wgt>
<wgt id='1024'> +1.5482010e-12 </wgt>
<wgt id='1025'> +1.4771824e-12 </wgt>
<wgt id='1026'> +2.0558951e-12 </wgt>
<wgt id='1027'> +1.9550218e-12 </wgt>
<wgt id='1028'> +1.9502523e-12 </wgt>
<wgt id='1029'> +2.0684913e-12 </wgt>
<wgt id='1030'> +1.8461375e-12 </wgt>
<wgt id='1031'> +1.3019624e-12 </wgt>
<wgt id='1032'> +1.3565572e-12 </wgt>
<wgt id='1033'> +1.3582375e-12 </wgt>
<wgt id='1034'> +1.2920364e-12 </wgt>
<wgt id='1035'> +1.3770544e-12 </wgt>
<wgt id='1036'> +1.1413370e-12 </wgt>
<wgt id='1037'> +1.2060863e-12 </wgt>
<wgt id='1038'> +1.2083126e-12 </wgt>
<wgt id='1039'> +1.1303988e-12 </wgt>
<wgt id='1040'> +1.2399066e-12 </wgt>
<wgt id='1041'> +1.5177761e-12 </wgt>
<wgt id='1042'> +1.5517620e-12 </wgt>
<wgt id='1043'> +1.5524542e-12 </wgt>
<wgt id='1044'> +1.5102819e-12 </wgt>
<wgt id='1045'> +1.5495974e-12 </wgt>
<wgt id='1046'> +1.5538000e-12 </wgt>
<wgt id='1047'> +1.5982885e-12 </wgt>
<wgt id='1048'> +1.5424687e-12 </wgt>
<wgt id='1049'> +1.5152138e-12 </wgt>
<wgt id='1050'> +1.5215484e-12 </wgt>
<wgt id='1051'> +1.5506442e-12 </wgt>
<wgt id='1052'> +1.5420871e-12 </wgt>
<wgt id='1053'> +1.5615705e-12 </wgt>
<wgt id='1054'> +1.5502873e-12 </wgt>
<wgt id='1055'> +1.5101768e-12 </wgt>
<wgt id='1056'> +1.5306559e-12 </wgt>
<wgt id='1057'> +1.5627201e-12 </wgt>
<wgt id='1058'> +1.5120298e-12 </wgt>
<wgt id='1059'> +1.5606312e-12 </wgt>
<wgt id='1060'> +1.5431144e-12 </wgt>
<wgt id='1061'> +1.5690423e-12 </wgt>
<wgt id='1062'> +1.5733633e-12 </wgt>
<wgt id='1063'> +1.5757724e-12 </wgt>
<wgt id='1064'> +1.5514339e-12 </wgt>
<wgt id='1065'> +1.5636767e-12 </wgt>
<wgt id='1066'> +1.5398947e-12 </wgt>
<wgt id='1067'> +1.5164653e-12 </wgt>
<wgt id='1068'> +1.5761408e-12 </wgt>
<wgt id='1069'> +1.5715625e-12 </wgt>
<wgt id='1070'> +1.5738021e-12 </wgt>
<wgt id='1071'> +1.5309126e-12 </wgt>
<wgt id='1072'> +1.6152020e-12 </wgt>
<wgt id='1073'> +1.5600988e-12 </wgt>
<wgt id='1074'> +1.5284048e-12 </wgt>
<wgt id='1075'> +1.5799759e-12 </wgt>
<wgt id='1076'> +1.5212072e-12 </wgt>
<wgt id='1077'> +1.5564025e-12 </wgt>
<wgt id='1078'> +1.5033002e-12 </wgt>
<wgt id='1079'> +1.5256757e-12 </wgt>
<wgt id='1080'> +1.5356004e-12 </wgt>
<wgt id='1081'> +1.5966011e-12 </wgt>
<wgt id='1082'> +1.5384504e-12 </wgt>
<wgt id='1083'> +1.5953415e-12 </wgt>
<wgt id='1084'> +1.5392238e-12 </wgt>
<wgt id='1085'> +1.5271160e-12 </wgt>
<wgt id='1086'> +1.5654346e-12 </wgt>
<wgt id='1087'> +1.5456735e-12 </wgt>
<wgt id='1088'> +1.5419625e-12 </wgt>
<wgt id='1089'> +1.5597512e-12 </wgt>
<wgt id='1090'> +1.5288033e-12 </wgt>
<wgt id='1091'> +1.5727999e-12 </wgt>
<wgt id='1092'> +1.6037420e-12 </wgt>
<wgt id='1093'> +1.5315341e-12 </wgt>
<wgt id='1094'> +1.5674388e-12 </wgt>
<wgt id='1095'> +1.5628764e-12 </wgt>
<wgt id='1096'> +1.5921585e-12 </wgt>
<wgt id='1097'> +1.5423064e-12 </wgt>
<wgt id='1098'> +1.5418621e-12 </wgt>
<wgt id='1099'> +1.5432486e-12 </wgt>
<wgt id='1100'> +1.5788724e-12 </wgt>
<wgt id='1101'> +1.6065133e-12 </wgt>
<wgt id='1102'> +1.5401722e-12 </wgt>
<wgt id='1103'> +1.6036547e-12 </wgt>
<wgt id='1104'> +1.5320965e-12 </wgt>
<wgt id='1105'> +1.5384832e-12 </wgt>
<wgt id='1106'> +1.5834834e-12 </wgt>
<wgt id='1107'> +1.5448073e-12 </wgt>
<wgt id='1108'> +1.5691914e-12 </wgt>
<wgt id='1109'> +1.6027183e-12 </wgt>
<wgt id='1110'> +1.5457048e-12 </wgt>
<wgt id='1111'> +1.5623966e-12 </wgt>
<wgt id='1112'> +1.5469200e-12 </wgt>
<wgt id='1113'> +1.5799164e-12 </wgt>
<wgt id='1114'> +1.5610454e-12 </wgt>
<wgt id='1115'> +1.5510928e-12 </wgt>
<wgt id='1116'> +1.5525317e-12 </wgt>
<wgt id='1117'> +1.5296296e-12 </wgt>
<wgt id='1118'> +1.6350369e-12 </wgt>
<wgt id='1119'> +1.4819000e-12 </wgt>
<wgt id='1120'> +1.5290102e-12 </wgt>
<wgt id='1121'> +1.5405632e-12 </wgt>
<wgt id='1122'> +1.5698041e-12 </wgt>
<wgt id='1123'> +1.5329858e-12 </wgt>
<wgt id='1124'> +1.5271214e-12 </wgt>
<wgt id='1125'> +1.5348942e-12 </wgt>
<wgt id='1126'> +1.5604016e-12 </wgt>
<wgt id='1127'> +1.5420194e-12 </wgt>
<wgt id='1128'> +1.5733633e-12 </wgt>
<wgt id='1129'> +1.5418622e-12 </wgt>
<wgt id='1130'> +1.5522140e-12 </wgt>
<wgt id='1131'> +1.5518833e-12 </wgt>
<wgt id='1132'> +1.5483260e-12 </wgt>
<wgt id='1133'> +1.5486461e-12 </wgt>
<wgt id='1134'> +1.5498758e-12 </wgt>
<wgt id='1135'> +1.5245464e-12 </wgt>
<wgt id='1136'> +1.5320416e-12 </wgt>
<wgt id='1137'> +1.5606489e-12 </wgt>
<wgt id='1138'> +1.5527594e-12 </wgt>
<wgt id='1139'> +1.5573479e-12 </wgt>
<wgt id='1140'> +1.5718886e-12 </wgt>
<wgt id='1141'> +1.5590708e-12 </wgt>
<wgt id='1142'> +1.5270002e-12 </wgt>
<wgt id='1143'> +1.5612077e-12 </wgt>
<wgt id='1144'> +1.5604416e-12 </wgt>
<wgt id='1145'> +1.5778587e-12 </wgt>
<wgt id='1146'> +1.5806278e-12 </wgt>
<wgt id='1147'> +1.3321015e-12 </wgt>
<wgt id='1148'> +1.3537941e-12 </wgt>
<wgt id='1149'> +1.3333781e-12 </wgt>
<wgt id='1150'> +1.3469437e-12 </wgt>
<wgt id='1151'> +1.4247179e-12 </wgt>
<wgt id='1152'> +1.6968177e-12 </wgt>
<wgt id='1153'> +1.6910469e-12 </wgt>
<wgt id='1154'> +1.7001553e-12 </wgt>
<wgt id='1155'> +1.6944512e-12 </wgt>
<wgt id='1156'> +1.6980312e-12 </wgt>
<wgt id='1157'> +1.6994075e-12 </wgt>
<wgt id='1158'> +1.6933376e-12 </wgt>
<wgt id='1159'> +1.6991083e-12 </wgt>
<wgt id='1160'> +1.6954177e-12 </wgt>
<wgt id='1161'> +1.6942094e-12 </wgt>
<wgt id='1162'> +1.6986276e-12 </wgt>
<wgt id='1163'> +1.6994789e-12 </wgt>
<wgt id='1164'> +1.6941950e-12 </wgt>
<wgt id='1165'> +1.6933932e-12 </wgt>
<wgt id='1166'> +1.6998506e-12 </wgt>
<wgt id='1167'> +1.7037419e-12 </wgt>
<wgt id='1168'> +1.6867147e-12 </wgt>
<wgt id='1169'> +1.6984725e-12 </wgt>
<wgt id='1170'> +1.6955718e-12 </wgt>
<wgt id='1171'> +1.6897425e-12 </wgt>
<wgt id='1172'> +1.7053941e-12 </wgt>
<wgt id='1173'> +1.6844323e-12 </wgt>
<wgt id='1174'> +1.7085751e-12 </wgt>
<wgt id='1175'> +1.6980850e-12 </wgt>
<wgt id='1176'> +1.6949179e-12 </wgt>
<wgt id='1177'> +1.6952233e-12 </wgt>
<wgt id='1178'> +1.7013449e-12 </wgt>
<wgt id='1179'> +1.7010072e-12 </wgt>
<wgt id='1180'> +1.6866928e-12 </wgt>
<wgt id='1181'> +1.6957817e-12 </wgt>
<wgt id='1182'> +1.6971019e-12 </wgt>
<wgt id='1183'> +1.6910131e-12 </wgt>
<wgt id='1184'> +1.6973159e-12 </wgt>
<wgt id='1185'> +1.6930958e-12 </wgt>
<wgt id='1186'> +1.6994243e-12 </wgt>
<wgt id='1187'> +1.6975438e-12 </wgt>
<wgt id='1188'> +1.6965850e-12 </wgt>
<wgt id='1189'> +1.6939209e-12 </wgt>
<wgt id='1190'> +1.6874699e-12 </wgt>
<wgt id='1191'> +1.6920154e-12 </wgt>
<wgt id='1192'> +1.6972831e-12 </wgt>
<wgt id='1193'> +1.3279592e-12 </wgt>
<wgt id='1194'> +1.3270229e-12 </wgt>
<wgt id='1195'> +1.3287215e-12 </wgt>
<wgt id='1196'> +1.3332805e-12 </wgt>
<wgt id='1197'> +1.3219711e-12 </wgt>
<wgt id='1198'> +1.3274762e-12 </wgt>
<wgt id='1199'> +1.3286478e-12 </wgt>
<wgt id='1200'> +1.3278083e-12 </wgt>
<wgt id='1201'> +1.3280830e-12 </wgt>
<wgt id='1202'> +1.3268528e-12 </wgt>
<wgt id='1203'> +1.3295129e-12 </wgt>
<wgt id='1204'> +1.3214523e-12 </wgt>
<wgt id='1205'> +1.3319206e-12 </wgt>
<wgt id='1206'> +1.3311876e-12 </wgt>
<wgt id='1207'> +1.3236322e-12 </wgt>
<wgt id='1208'> +1.3250416e-12 </wgt>
<wgt id='1209'> +1.3289575e-12 </wgt>
<wgt id='1210'> +1.3297575e-12 </wgt>
<wgt id='1211'> +1.3194808e-12 </wgt>
<wgt id='1212'> +1.3289137e-12 </wgt>
<wgt id='1213'> +1.3270092e-12 </wgt>
<wgt id='1214'> +1.3137676e-12 </wgt>
<wgt id='1215'> +1.3513179e-12 </wgt>
<wgt id='1216'> +1.3304959e-12 </wgt>
<wgt id='1217'> +1.3259053e-12 </wgt>
<wgt id='1218'> +1.3323201e-12 </wgt>
<wgt id='1219'> +1.3256786e-12 </wgt>
<wgt id='1220'> +1.3319521e-12 </wgt>
<wgt id='1221'> +1.3267970e-12 </wgt>
<wgt id='1222'> +1.3331986e-12 </wgt>
<wgt id='1223'> +1.3183757e-12 </wgt>
<wgt id='1224'> +1.3308082e-12 </wgt>
<wgt id='1225'> +1.3268471e-12 </wgt>
<wgt id='1226'> +1.3263478e-12 </wgt>
<wgt id='1227'> +1.3291905e-12 </wgt>
<wgt id='1228'> +1.3150710e-12 </wgt>
<wgt id='1229'> +1.3336753e-12 </wgt>
<wgt id='1230'> +1.3218070e-12 </wgt>
<wgt id='1231'> +1.3264867e-12 </wgt>
<wgt id='1232'> +1.3243766e-12 </wgt>
<wgt id='1233'> +1.3288453e-12 </wgt>
<wgt id='1234'> +1.3279592e-12 </wgt>
<wgt id='1235'> +1.3200190e-12 </wgt>
<wgt id='1236'> +1.3229287e-12 </wgt>
<wgt id='1237'> +1.3256053e-12 </wgt>
<wgt id='1238'> +1.3300210e-12 </wgt>
<wgt id='1239'> +1.3318484e-12 </wgt>
<wgt id='1240'> +1.3336288e-12 </wgt>
<wgt id='1241'> +1.2909211e-12 </wgt>
<wgt id='1242'> +1.2868523e-12 </wgt>
<wgt id='1243'> +1.2950089e-12 </wgt>
<wgt id='1244'> +1.2855140e-12 </wgt>
<wgt id='1245'> +1.2948729e-12 </wgt>
<wgt id='1246'> +1.2898193e-12 </wgt>
<wgt id='1247'> +1.2919030e-12 </wgt>
<wgt id='1248'> +1.2908608e-12 </wgt>
<wgt id='1249'> +1.2910298e-12 </wgt>
<wgt id='1250'> +1.2927433e-12 </wgt>
<wgt id='1251'> +1.2896248e-12 </wgt>
<wgt id='1252'> +1.2885439e-12 </wgt>
<wgt id='1253'> +1.2927442e-12 </wgt>
<wgt id='1254'> +1.2839650e-12 </wgt>
<wgt id='1255'> +1.2950848e-12 </wgt>
<wgt id='1256'> +1.2928367e-12 </wgt>
<wgt id='1257'> +1.2860012e-12 </wgt>
<wgt id='1258'> +1.3080815e-12 </wgt>
<wgt id='1259'> +1.2750991e-12 </wgt>
<wgt id='1260'> +1.2936241e-12 </wgt>
<wgt id='1261'> +1.2879645e-12 </wgt>
<wgt id='1262'> +1.2882463e-12 </wgt>
<wgt id='1263'> +1.2918701e-12 </wgt>
<wgt id='1264'> +1.2959873e-12 </wgt>
<wgt id='1265'> +1.2883473e-12 </wgt>
<wgt id='1266'> +1.2810774e-12 </wgt>
<wgt id='1267'> +1.2992857e-12 </wgt>
<wgt id='1268'> +1.2938409e-12 </wgt>
<wgt id='1269'> +1.2896416e-12 </wgt>
<wgt id='1270'> +1.2847646e-12 </wgt>
<wgt id='1271'> +1.2866617e-12 </wgt>
<wgt id='1272'> +1.2902235e-12 </wgt>
<wgt id='1273'> +1.2907040e-12 </wgt>
<wgt id='1274'> +1.2924452e-12 </wgt>
<wgt id='1275'> +1.2880303e-12 </wgt>
<wgt id='1276'> +1.2994232e-12 </wgt>
<wgt id='1277'> +1.2792180e-12 </wgt>
<wgt id='1278'> +1.2913653e-12 </wgt>
<wgt id='1279'> +1.2882527e-12 </wgt>
<wgt id='1280'> +1.2919813e-12 </wgt>
<wgt id='1281'> +1.2849457e-12 </wgt>
<wgt id='1282'> +1.2909211e-12 </wgt>
<wgt id='1283'> +1.2832981e-12 </wgt>
<wgt id='1284'> +1.2862867e-12 </wgt>
<wgt id='1285'> +1.2888526e-12 </wgt>
<wgt id='1286'> +1.2930555e-12 </wgt>
<wgt id='1287'> +1.2948257e-12 </wgt>
<wgt id='1288'> +1.2961285e-12 </wgt>
<wgt id='1289'> +1.4049544e-12 </wgt>
<wgt id='1290'> +1.4024990e-12 </wgt>
<wgt id='1291'> +1.4076174e-12 </wgt>
<wgt id='1292'> +1.4026840e-12 </wgt>
<wgt id='1293'> +1.4065749e-12 </wgt>
<wgt id='1294'> +1.3998274e-12 </wgt>
<wgt id='1295'> +1.4100300e-12 </wgt>
<wgt id='1296'> +1.4015150e-12 </wgt>
<wgt id='1297'> +1.4091609e-12 </wgt>
<wgt id='1298'> +1.4070587e-12 </wgt>
<wgt id='1299'> +1.4023705e-12 </wgt>
<wgt id='1300'> +1.4067594e-12 </wgt>
<wgt id='1301'> +1.4013343e-12 </wgt>
<wgt id='1302'> +1.4029816e-12 </wgt>
<wgt id='1303'> +1.4077284e-12 </wgt>
<wgt id='1304'> +1.4026403e-12 </wgt>
<wgt id='1305'> +1.4065505e-12 </wgt>
<wgt id='1306'> +1.4012302e-12 </wgt>
<wgt id='1307'> +1.4091455e-12 </wgt>
<wgt id='1308'> +1.4003273e-12 </wgt>
<wgt id='1309'> +1.4084963e-12 </wgt>
<wgt id='1310'> +1.4028833e-12 </wgt>
<wgt id='1311'> +1.4072506e-12 </wgt>
<wgt id='1312'> +1.4062951e-12 </wgt>
<wgt id='1313'> +1.4034616e-12 </wgt>
<wgt id='1314'> +1.4020628e-12 </wgt>
<wgt id='1315'> +1.4044935e-12 </wgt>
<wgt id='1316'> +1.4123263e-12 </wgt>
<wgt id='1317'> +1.4028791e-12 </wgt>
<wgt id='1318'> +1.4167667e-12 </wgt>
<wgt id='1319'> +1.3910692e-12 </wgt>
<wgt id='1320'> +1.4128658e-12 </wgt>
<wgt id='1321'> +1.3986439e-12 </wgt>
<wgt id='1322'> +1.4045222e-12 </wgt>
<wgt id='1323'> +1.4053759e-12 </wgt>
<wgt id='1324'> +1.3988876e-12 </wgt>
<wgt id='1325'> +1.4231568e-12 </wgt>
<wgt id='1326'> +1.4047682e-12 </wgt>
<wgt id='1327'> +1.4066428e-12 </wgt>
<wgt id='1328'> +1.4054775e-12 </wgt>
<wgt id='1329'> +1.4043668e-12 </wgt>
<wgt id='1330'> +1.4048527e-12 </wgt>
<wgt id='1331'> +1.4078156e-12 </wgt>
<wgt id='1332'> +1.4193463e-12 </wgt>
<wgt id='1333'> +1.3975311e-12 </wgt>
<wgt id='1334'> +1.4024213e-12 </wgt>
<wgt id='1335'> +1.4126117e-12 </wgt>
<wgt id='1336'> +1.4001212e-12 </wgt>
<wgt id='1337'> +1.4062896e-12 </wgt>
<wgt id='1338'> +1.4011156e-12 </wgt>
<wgt id='1339'> +1.4058984e-12 </wgt>
<wgt id='1340'> +1.3824435e-12 </wgt>
<wgt id='1341'> +1.3800415e-12 </wgt>
<wgt id='1342'> +1.3850321e-12 </wgt>
<wgt id='1343'> +1.3800344e-12 </wgt>
<wgt id='1344'> +1.3840093e-12 </wgt>
<wgt id='1345'> +1.3772816e-12 </wgt>
<wgt id='1346'> +1.3872639e-12 </wgt>
<wgt id='1347'> +1.3792919e-12 </wgt>
<wgt id='1348'> +1.3858855e-12 </wgt>
<wgt id='1349'> +1.3842333e-12 </wgt>
<wgt id='1350'> +1.3806409e-12 </wgt>
<wgt id='1351'> +1.3840628e-12 </wgt>
<wgt id='1352'> +1.3789083e-12 </wgt>
<wgt id='1353'> +1.3797537e-12 </wgt>
<wgt id='1354'> +1.3871520e-12 </wgt>
<wgt id='1355'> +1.3804057e-12 </wgt>
<wgt id='1356'> +1.3835777e-12 </wgt>
<wgt id='1357'> +1.3775762e-12 </wgt>
<wgt id='1358'> +1.3881061e-12 </wgt>
<wgt id='1359'> +1.3788372e-12 </wgt>
<wgt id='1360'> +1.3855594e-12 </wgt>
<wgt id='1361'> +1.3806127e-12 </wgt>
<wgt id='1362'> +1.3849160e-12 </wgt>
<wgt id='1363'> +1.3853611e-12 </wgt>
<wgt id='1364'> +1.3804184e-12 </wgt>
<wgt id='1365'> +1.3790010e-12 </wgt>
<wgt id='1366'> +1.3813298e-12 </wgt>
<wgt id='1367'> +1.3894941e-12 </wgt>
<wgt id='1368'> +1.3803381e-12 </wgt>
<wgt id='1369'> +1.3926050e-12 </wgt>
<wgt id='1370'> +1.3703593e-12 </wgt>
<wgt id='1371'> +1.3884034e-12 </wgt>
<wgt id='1372'> +1.3755858e-12 </wgt>
<wgt id='1373'> +1.3805805e-12 </wgt>
<wgt id='1374'> +1.3840379e-12 </wgt>
<wgt id='1375'> +1.3766302e-12 </wgt>
<wgt id='1376'> +1.4013440e-12 </wgt>
<wgt id='1377'> +1.3818940e-12 </wgt>
<wgt id='1378'> +1.3845959e-12 </wgt>
<wgt id='1379'> +1.3826968e-12 </wgt>
<wgt id='1380'> +1.3819516e-12 </wgt>
<wgt id='1381'> +1.3827736e-12 </wgt>
<wgt id='1382'> +1.3842868e-12 </wgt>
<wgt id='1383'> +1.3959634e-12 </wgt>
<wgt id='1384'> +1.3765895e-12 </wgt>
<wgt id='1385'> +1.3802447e-12 </wgt>
<wgt id='1386'> +1.3887381e-12 </wgt>
<wgt id='1387'> +1.3760977e-12 </wgt>
<wgt id='1388'> +1.3839426e-12 </wgt>
<wgt id='1389'> +1.3767937e-12 </wgt>
<wgt id='1390'> +1.3837692e-12 </wgt>
<wgt id='1391'> +1.3559635e-12 </wgt>
<wgt id='1392'> +1.3249362e-12 </wgt>
<wgt id='1393'> +1.3353749e-12 </wgt>
<wgt id='1394'> +1.3463852e-12 </wgt>
<wgt id='1395'> +1.3666876e-12 </wgt>
<wgt id='1396'> +1.3568876e-12 </wgt>
<wgt id='1397'> +1.3310101e-12 </wgt>
<wgt id='1398'> +1.3362477e-12 </wgt>
<wgt id='1399'> +1.3409563e-12 </wgt>
<wgt id='1400'> +1.3459801e-12 </wgt>
<wgt id='1401'> +1.3514776e-12 </wgt>
<wgt id='1402'> +1.3621633e-12 </wgt>
<wgt id='1403'> +1.3674825e-12 </wgt>
<wgt id='1404'> +1.3728022e-12 </wgt>
<wgt id='1405'> +1.3568876e-12 </wgt>
<wgt id='1406'> +1.3524254e-12 </wgt>
<wgt id='1407'> +1.3548410e-12 </wgt>
<wgt id='1408'> +1.3587129e-12 </wgt>
<wgt id='1409'> +1.3607749e-12 </wgt>
<wgt id='1410'> +1.3177445e-12 </wgt>
<wgt id='1411'> +1.3156421e-12 </wgt>
<wgt id='1412'> +1.3205067e-12 </wgt>
<wgt id='1413'> +1.3175019e-12 </wgt>
<wgt id='1414'> +1.3180061e-12 </wgt>
<wgt id='1415'> +1.3144880e-12 </wgt>
<wgt id='1416'> +1.3190937e-12 </wgt>
<wgt id='1417'> +1.3103580e-12 </wgt>
<wgt id='1418'> +1.3251448e-12 </wgt>
<wgt id='1419'> +1.3185300e-12 </wgt>
<wgt id='1420'> +1.3170636e-12 </wgt>
<wgt id='1421'> +1.3097476e-12 </wgt>
<wgt id='1422'> +1.3212075e-12 </wgt>
<wgt id='1423'> +1.3174024e-12 </wgt>
<wgt id='1424'> +1.3182352e-12 </wgt>
<wgt id='1425'> +1.3129926e-12 </wgt>
<wgt id='1426'> +1.3229384e-12 </wgt>
<wgt id='1427'> +1.3061905e-12 </wgt>
<wgt id='1428'> +1.3240294e-12 </wgt>
<wgt id='1429'> +1.3194606e-12 </wgt>
<wgt id='1430'> +1.3155445e-12 </wgt>
<wgt id='1431'> +1.3164564e-12 </wgt>
<wgt id='1432'> +1.3185976e-12 </wgt>
<wgt id='1433'> +1.3185919e-12 </wgt>
<wgt id='1434'> +1.3160190e-12 </wgt>
<wgt id='1435'> +1.3163350e-12 </wgt>
<wgt id='1436'> +1.3209752e-12 </wgt>
<wgt id='1437'> +1.3248110e-12 </wgt>
<wgt id='1438'> +1.3150855e-12 </wgt>
<wgt id='1439'> +1.3117670e-12 </wgt>
<wgt id='1440'> +1.3322416e-12 </wgt>
<wgt id='1441'> +1.3186187e-12 </wgt>
<wgt id='1442'> +1.3170719e-12 </wgt>
<wgt id='1443'> +1.3135770e-12 </wgt>
<wgt id='1444'> +1.3271965e-12 </wgt>
<wgt id='1445'> +1.3354763e-12 </wgt>
<wgt id='1446'> +1.3112453e-12 </wgt>
<wgt id='1447'> +1.3167093e-12 </wgt>
<wgt id='1448'> +1.3210992e-12 </wgt>
<wgt id='1449'> +1.3185655e-12 </wgt>
<wgt id='1450'> +1.3169315e-12 </wgt>
<wgt id='1451'> +1.3175680e-12 </wgt>
<wgt id='1452'> +1.3168274e-12 </wgt>
<wgt id='1453'> +1.3188248e-12 </wgt>
<wgt id='1454'> +1.3090594e-12 </wgt>
<wgt id='1455'> +1.3154970e-12 </wgt>
<wgt id='1456'> +1.3179278e-12 </wgt>
<wgt id='1457'> +1.3197178e-12 </wgt>
<wgt id='1458'> +1.3166552e-12 </wgt>
<wgt id='1459'> +1.3205138e-12 </wgt>
<wgt id='1460'> +1.3139307e-12 </wgt>
<wgt id='1461'> +1.3177445e-12 </wgt>
<wgt id='1462'> +1.3089094e-12 </wgt>
<wgt id='1463'> +1.3246018e-12 </wgt>
<wgt id='1464'> +1.3176660e-12 </wgt>
<wgt id='1465'> +1.2938169e-12 </wgt>
<wgt id='1466'> +1.2985068e-12 </wgt>
<wgt id='1467'> +1.3037962e-12 </wgt>
<wgt id='1468'> +1.3082357e-12 </wgt>
<wgt id='1469'> +1.3127258e-12 </wgt>
<wgt id='1470'> +1.3229589e-12 </wgt>
<wgt id='1471'> +1.3267267e-12 </wgt>
<wgt id='1472'> +1.3316455e-12 </wgt>
<wgt id='1473'> +1.3176660e-12 </wgt>
<wgt id='1474'> +1.3132747e-12 </wgt>
<wgt id='1475'> +1.3151508e-12 </wgt>
<wgt id='1476'> +1.3195260e-12 </wgt>
<wgt id='1477'> +1.3212488e-12 </wgt>
<wgt id='1478'> +1.3180747e-12 </wgt>
<wgt id='1479'> +1.3154881e-12 </wgt>
<wgt id='1480'> +1.3079782e-12 </wgt>
<wgt id='1481'> +1.3154840e-12 </wgt>
<wgt id='1482'> +1.3152097e-12 </wgt>
<wgt id='1483'> +1.3077000e-12 </wgt>
<wgt id='1484'> +1.3164375e-12 </wgt>
<wgt id='1485'> +1.3123320e-12 </wgt>
<wgt id='1486'> +1.3181279e-12 </wgt>
<wgt id='1487'> +1.3171620e-12 </wgt>
<wgt id='1488'> +1.3161084e-12 </wgt>
<wgt id='1489'> +1.3315841e-12 </wgt>
<wgt id='1490'> +1.3140600e-12 </wgt>
<wgt id='1491'> +1.3185642e-12 </wgt>
<wgt id='1492'> +1.3224559e-12 </wgt>
<wgt id='1493'> +1.3023169e-12 </wgt>
<wgt id='1494'> +1.3215931e-12 </wgt>
<wgt id='1495'> +1.3017479e-12 </wgt>
<wgt id='1496'> +1.3175216e-12 </wgt>
<wgt id='1497'> +1.3188840e-12 </wgt>
<wgt id='1498'> +1.3184500e-12 </wgt>
<wgt id='1499'> +1.3188576e-12 </wgt>
<wgt id='1500'> +1.3172953e-12 </wgt>
<wgt id='1501'> +1.3187812e-12 </wgt>
<wgt id='1502'> +1.3218637e-12 </wgt>
<wgt id='1503'> +1.3188368e-12 </wgt>
<wgt id='1504'> +1.3181013e-12 </wgt>
<wgt id='1505'> +1.3177688e-12 </wgt>
<wgt id='1506'> +1.3173956e-12 </wgt>
<wgt id='1507'> +1.3171068e-12 </wgt>
<wgt id='1508'> +1.3228527e-12 </wgt>
<wgt id='1509'> +1.3426927e-12 </wgt>
<wgt id='1510'> +1.3412715e-12 </wgt>
<wgt id='1511'> +1.3466624e-12 </wgt>
<wgt id='1512'> +1.3449208e-12 </wgt>
<wgt id='1513'> +1.3421707e-12 </wgt>
<wgt id='1514'> +1.3439990e-12 </wgt>
<wgt id='1515'> +1.3436995e-12 </wgt>
<wgt id='1516'> +1.3437637e-12 </wgt>
<wgt id='1517'> +1.3481809e-12 </wgt>
<wgt id='1518'> +1.3434942e-12 </wgt>
<wgt id='1519'> +1.3376002e-12 </wgt>
<wgt id='1520'> +1.3489920e-12 </wgt>
<wgt id='1521'> +1.3476012e-12 </wgt>
<wgt id='1522'> +1.3451580e-12 </wgt>
<wgt id='1523'> +1.3476097e-12 </wgt>
<wgt id='1524'> +1.3442080e-12 </wgt>
<wgt id='1525'> +1.3473785e-12 </wgt>
<wgt id='1526'> +1.3412365e-12 </wgt>
<wgt id='1527'> +1.3394309e-12 </wgt>
<wgt id='1528'> +1.3436354e-12 </wgt>
<wgt id='1529'> +1.3410861e-12 </wgt>
<wgt id='1530'> +1.3482813e-12 </wgt>
<wgt id='1531'> +1.3452698e-12 </wgt>
<wgt id='1532'> +1.3370667e-12 </wgt>
<wgt id='1533'> +1.3425708e-12 </wgt>
<wgt id='1534'> +1.3462876e-12 </wgt>
<wgt id='1535'> +1.3350329e-12 </wgt>
<wgt id='1536'> +1.3413384e-12 </wgt>
<wgt id='1537'> +1.3404672e-12 </wgt>
<wgt id='1538'> +1.3403940e-12 </wgt>
<wgt id='1539'> +1.3519937e-12 </wgt>
<wgt id='1540'> +1.3447711e-12 </wgt>
<wgt id='1541'> +1.3420866e-12 </wgt>
<wgt id='1542'> +1.3406692e-12 </wgt>
<wgt id='1543'> +1.3438606e-12 </wgt>
<wgt id='1544'> +1.3430077e-12 </wgt>
<wgt id='1545'> +1.3409050e-12 </wgt>
<wgt id='1546'> +1.3391428e-12 </wgt>
<wgt id='1547'> +1.3431921e-12 </wgt>
<wgt id='1548'> +1.3415071e-12 </wgt>
<wgt id='1549'> +1.3421579e-12 </wgt>
<wgt id='1550'> +1.3429968e-12 </wgt>
<wgt id='1551'> +1.3435943e-12 </wgt>
<wgt id='1552'> +1.3443280e-12 </wgt>
<wgt id='1553'> +1.3414694e-12 </wgt>
<wgt id='1554'> +1.3433181e-12 </wgt>
<wgt id='1555'> +1.3431984e-12 </wgt>
<wgt id='1556'> +1.3422345e-12 </wgt>
<wgt id='1557'> +1.3451610e-12 </wgt>
<wgt id='1558'> +1.3391842e-12 </wgt>
<wgt id='1559'> +1.3418182e-12 </wgt>
<wgt id='1560'> +1.3443430e-12 </wgt>
<wgt id='1561'> +1.3417088e-12 </wgt>
<wgt id='1562'> +1.3438038e-12 </wgt>
<wgt id='1563'> +1.3434637e-12 </wgt>
<wgt id='1564'> +1.3451149e-12 </wgt>
<wgt id='1565'> +1.3406640e-12 </wgt>
<wgt id='1566'> +1.3434613e-12 </wgt>
<wgt id='1567'> +1.3439718e-12 </wgt>
<wgt id='1568'> +1.3411773e-12 </wgt>
<wgt id='1569'> +1.3425498e-12 </wgt>
<wgt id='1570'> +1.3428076e-12 </wgt>
<wgt id='1571'> +1.3421652e-12 </wgt>
<wgt id='1572'> +1.3421072e-12 </wgt>
<wgt id='1573'> +1.3429067e-12 </wgt>
<wgt id='1574'> +1.3418725e-12 </wgt>
<wgt id='1575'> +1.3428612e-12 </wgt>
<wgt id='1576'> +1.3422301e-12 </wgt>
<wgt id='1577'> +1.3440436e-12 </wgt>
<wgt id='1578'> +1.3440457e-12 </wgt>
<wgt id='1579'> +1.3420834e-12 </wgt>
<wgt id='1580'> +1.3417672e-12 </wgt>
<wgt id='1581'> +1.3439423e-12 </wgt>
<wgt id='1582'> +1.3450210e-12 </wgt>
<wgt id='1583'> +1.3423048e-12 </wgt>
<wgt id='1584'> +1.3433086e-12 </wgt>
<wgt id='1585'> +1.3429807e-12 </wgt>
<wgt id='1586'> +1.3428461e-12 </wgt>
<wgt id='1587'> +1.3438572e-12 </wgt>
<wgt id='1588'> +1.3432937e-12 </wgt>
<wgt id='1589'> +1.3423115e-12 </wgt>
<wgt id='1590'> +1.3427092e-12 </wgt>
<wgt id='1591'> +1.3424626e-12 </wgt>
<wgt id='1592'> +1.3435369e-12 </wgt>
<wgt id='1593'> +1.3418680e-12 </wgt>
<wgt id='1594'> +1.3422383e-12 </wgt>
<wgt id='1595'> +1.3424817e-12 </wgt>
<wgt id='1596'> +1.3419567e-12 </wgt>
<wgt id='1597'> +1.3428286e-12 </wgt>
<wgt id='1598'> +1.3427185e-12 </wgt>
<wgt id='1599'> +1.3418889e-12 </wgt>
<wgt id='1600'> +1.3436070e-12 </wgt>
<wgt id='1601'> +1.3426081e-12 </wgt>
<wgt id='1602'> +1.3427028e-12 </wgt>
<wgt id='1603'> +1.3419925e-12 </wgt>
<wgt id='1604'> +1.3420177e-12 </wgt>
<wgt id='1605'> +1.3426594e-12 </wgt>
<wgt id='1606'> +1.3426919e-12 </wgt>
<wgt id='1607'> +1.3433452e-12 </wgt>
<wgt id='1608'> +1.3428365e-12 </wgt>
<wgt id='1609'> +1.3427774e-12 </wgt>
<wgt id='1610'> +1.3307858e-12 </wgt>
<wgt id='1611'> +1.3517433e-12 </wgt>
<wgt id='1612'> +1.5276327e-12 </wgt>
<wgt id='1613'> +1.5038572e-12 </wgt>
<wgt id='1614'> +1.5274807e-12 </wgt>
<wgt id='1615'> +1.5245231e-12 </wgt>
<wgt id='1616'> +1.5351181e-12 </wgt>
<wgt id='1617'> +1.5424082e-12 </wgt>
<wgt id='1618'> +1.5289362e-12 </wgt>
<wgt id='1619'> +1.5401929e-12 </wgt>
<wgt id='1620'> +1.4869457e-12 </wgt>
<wgt id='1621'> +1.5474029e-12 </wgt>
<wgt id='1622'> +1.5235423e-12 </wgt>
<wgt id='1623'> +1.5109503e-12 </wgt>
<wgt id='1624'> +1.5002072e-12 </wgt>
<wgt id='1625'> +1.5287281e-12 </wgt>
<wgt id='1626'> +1.5123334e-12 </wgt>
<wgt id='1627'> +1.5065819e-12 </wgt>
<wgt id='1628'> +1.4825062e-12 </wgt>
<wgt id='1629'> +1.5847141e-12 </wgt>
<wgt id='1630'> +1.5267518e-12 </wgt>
<wgt id='1631'> +1.5183677e-12 </wgt>
<wgt id='1632'> +1.5090789e-12 </wgt>
<wgt id='1633'> +1.4876745e-12 </wgt>
<wgt id='1634'> +1.5728495e-12 </wgt>
<wgt id='1635'> +1.5413061e-12 </wgt>
<wgt id='1636'> +1.5580589e-12 </wgt>
<wgt id='1637'> +1.5209159e-12 </wgt>
<wgt id='1638'> +1.5619785e-12 </wgt>
<wgt id='1639'> +1.5087867e-12 </wgt>
<wgt id='1640'> +1.5503607e-12 </wgt>
<wgt id='1641'> +1.4948915e-12 </wgt>
<wgt id='1642'> +1.5389202e-12 </wgt>
<wgt id='1643'> +1.5065909e-12 </wgt>
<wgt id='1644'> +1.5233086e-12 </wgt>
<wgt id='1645'> +1.5511426e-12 </wgt>
<wgt id='1646'> +1.5312024e-12 </wgt>
<wgt id='1647'> +1.5246048e-12 </wgt>
<wgt id='1648'> +1.5627646e-12 </wgt>
<wgt id='1649'> +1.5011739e-12 </wgt>
<wgt id='1650'> +1.5042256e-12 </wgt>
<wgt id='1651'> +1.4708453e-12 </wgt>
<wgt id='1652'> +1.5094991e-12 </wgt>
<wgt id='1653'> +1.5406879e-12 </wgt>
<wgt id='1654'> +1.5210984e-12 </wgt>
<wgt id='1655'> +1.4895940e-12 </wgt>
<wgt id='1656'> +1.5097149e-12 </wgt>
<wgt id='1657'> +1.4980569e-12 </wgt>
<wgt id='1658'> +1.5029517e-12 </wgt>
<wgt id='1659'> +1.5002072e-12 </wgt>
<wgt id='1660'> +1.5681866e-12 </wgt>
<wgt id='1661'> +1.5314030e-12 </wgt>
<wgt id='1662'> +1.5404267e-12 </wgt>
<wgt id='1663'> +1.5313111e-12 </wgt>
<wgt id='1664'> +1.5383811e-12 </wgt>
<wgt id='1665'> +1.4938786e-12 </wgt>
<wgt id='1666'> +1.5167835e-12 </wgt>
<wgt id='1667'> +1.5107904e-12 </wgt>
<wgt id='1668'> +1.5493543e-12 </wgt>
<wgt id='1669'> +1.5513649e-12 </wgt>
<wgt id='1670'> +1.5627134e-12 </wgt>
<wgt id='1671'> +1.5698815e-12 </wgt>
<wgt id='1672'> +1.5679553e-12 </wgt>
<wgt id='1673'> +1.5055820e-12 </wgt>
<wgt id='1674'> +1.4852316e-12 </wgt>
<wgt id='1675'> +1.5775857e-12 </wgt>
<wgt id='1676'> +1.5476092e-12 </wgt>
<wgt id='1677'> +1.6013694e-12 </wgt>
<wgt id='1678'> +1.5270495e-12 </wgt>
<wgt id='1679'> +1.5223298e-12 </wgt>
<wgt id='1680'> +1.5366549e-12 </wgt>
<wgt id='1681'> +1.5547114e-12 </wgt>
<wgt id='1682'> +1.5399915e-12 </wgt>
<wgt id='1683'> +1.4870583e-12 </wgt>
<wgt id='1684'> +1.5263259e-12 </wgt>
<wgt id='1685'> +1.5075599e-12 </wgt>
<wgt id='1686'> +1.5313491e-12 </wgt>
<wgt id='1687'> +1.5600204e-12 </wgt>
<wgt id='1688'> +1.5167332e-12 </wgt>
<wgt id='1689'> +1.5360483e-12 </wgt>
<wgt id='1690'> +1.5810954e-12 </wgt>
<wgt id='1691'> +1.5641889e-12 </wgt>
<wgt id='1692'> +1.5877793e-12 </wgt>
<wgt id='1693'> +1.5671899e-12 </wgt>
<wgt id='1694'> +1.5179881e-12 </wgt>
<wgt id='1695'> +1.5612461e-12 </wgt>
<wgt id='1696'> +1.5670162e-12 </wgt>
<wgt id='1697'> +1.4983946e-12 </wgt>
<wgt id='1698'> +1.5108940e-12 </wgt>
<wgt id='1699'> +1.5211544e-12 </wgt>
<wgt id='1700'> +1.5159128e-12 </wgt>
<wgt id='1701'> +1.5294969e-12 </wgt>
<wgt id='1702'> +1.5177567e-12 </wgt>
<wgt id='1703'> +1.5578908e-12 </wgt>
<wgt id='1704'> +1.5103361e-12 </wgt>
<wgt id='1705'> +1.4847545e-12 </wgt>
<wgt id='1706'> +1.5266891e-12 </wgt>
<wgt id='1707'> +1.4869358e-12 </wgt>
<wgt id='1708'> +1.5034530e-12 </wgt>
<wgt id='1709'> +1.5206054e-12 </wgt>
<wgt id='1710'> +1.4983385e-12 </wgt>
<wgt id='1711'> +1.4998823e-12 </wgt>
<wgt id='1712'> +1.5169005e-12 </wgt>
<wgt id='1713'> +1.2780340e-12 </wgt>
<wgt id='1714'> +1.2455017e-12 </wgt>
<wgt id='1715'> +1.2839905e-12 </wgt>
<wgt id='1716'> +1.2820251e-12 </wgt>
<wgt id='1717'> +1.2698787e-12 </wgt>
<wgt id='1718'> +1.2792850e-12 </wgt>
<wgt id='1719'> +1.2644687e-12 </wgt>
<wgt id='1720'> +1.2922867e-12 </wgt>
<wgt id='1721'> +1.2486714e-12 </wgt>
<wgt id='1722'> +1.2569397e-12 </wgt>
<wgt id='1723'> +1.2649419e-12 </wgt>
<wgt id='1724'> +1.3576929e-12 </wgt>
<wgt id='1725'> +1.2776977e-12 </wgt>
<wgt id='1726'> +1.2799564e-12 </wgt>
<wgt id='1727'> +1.2922350e-12 </wgt>
<wgt id='1728'> +1.2892854e-12 </wgt>
<wgt id='1729'> +1.2533847e-12 </wgt>
<wgt id='1730'> +1.2767100e-12 </wgt>
<wgt id='1731'> +1.2272719e-12 </wgt>
<wgt id='1732'> +1.2900280e-12 </wgt>
<wgt id='1733'> +1.2458724e-12 </wgt>
<wgt id='1734'> +1.2967265e-12 </wgt>
<wgt id='1735'> +1.2765429e-12 </wgt>
<wgt id='1736'> +1.3354875e-12 </wgt>
<wgt id='1737'> +1.2916397e-12 </wgt>
<wgt id='1738'> +1.2936742e-12 </wgt>
<wgt id='1739'> +1.2445088e-12 </wgt>
<wgt id='1740'> +1.2416692e-12 </wgt>
<wgt id='1741'> +1.3077541e-12 </wgt>
<wgt id='1742'> +1.2616707e-12 </wgt>
<wgt id='1743'> +1.2720325e-12 </wgt>
<wgt id='1744'> +1.2852897e-12 </wgt>
<wgt id='1745'> +1.2627660e-12 </wgt>
<wgt id='1746'> +1.2867068e-12 </wgt>
<wgt id='1747'> +1.2820582e-12 </wgt>
<wgt id='1748'> +1.2599799e-12 </wgt>
<wgt id='1749'> +1.2711458e-12 </wgt>
<wgt id='1750'> +1.2688228e-12 </wgt>
<wgt id='1751'> +1.2611664e-12 </wgt>
<wgt id='1752'> +1.2588485e-12 </wgt>
<wgt id='1753'> +1.2928885e-12 </wgt>
<wgt id='1754'> +1.2968377e-12 </wgt>
<wgt id='1755'> +1.3040712e-12 </wgt>
<wgt id='1756'> +1.2929660e-12 </wgt>
<wgt id='1757'> +1.2598615e-12 </wgt>
<wgt id='1758'> +1.2957461e-12 </wgt>
<wgt id='1759'> +1.2770573e-12 </wgt>
<wgt id='1760'> +1.2536826e-12 </wgt>
<wgt id='1761'> +1.2610713e-12 </wgt>
<wgt id='1762'> +1.2498959e-12 </wgt>
<wgt id='1763'> +1.2887842e-12 </wgt>
<wgt id='1764'> +1.2939419e-12 </wgt>
<wgt id='1765'> +1.2635896e-12 </wgt>
<wgt id='1766'> +1.2948705e-12 </wgt>
<wgt id='1767'> +1.2916893e-12 </wgt>
<wgt id='1768'> +1.2805705e-12 </wgt>
<wgt id='1769'> +1.2593947e-12 </wgt>
<wgt id='1770'> +1.2690032e-12 </wgt>
<wgt id='1771'> +1.2918592e-12 </wgt>
<wgt id='1772'> +1.2861295e-12 </wgt>
<wgt id='1773'> +1.2665263e-12 </wgt>
<wgt id='1774'> +1.2538147e-12 </wgt>
<wgt id='1775'> +1.2825451e-12 </wgt>
<wgt id='1776'> +1.3170896e-12 </wgt>
<wgt id='1777'> +1.2405866e-12 </wgt>
<wgt id='1778'> +1.2665576e-12 </wgt>
<wgt id='1779'> +1.2913613e-12 </wgt>
<wgt id='1780'> +1.3064674e-12 </wgt>
<wgt id='1781'> +1.2645659e-12 </wgt>
<wgt id='1782'> +1.2790388e-12 </wgt>
<wgt id='1783'> +1.2692997e-12 </wgt>
<wgt id='1784'> +1.2974608e-12 </wgt>
<wgt id='1785'> +1.2795890e-12 </wgt>
<wgt id='1786'> +1.2876321e-12 </wgt>
<wgt id='1787'> +1.3020784e-12 </wgt>
<wgt id='1788'> +1.2923461e-12 </wgt>
<wgt id='1789'> +1.2993701e-12 </wgt>
<wgt id='1790'> +1.3032433e-12 </wgt>
<wgt id='1791'> +1.2966084e-12 </wgt>
<wgt id='1792'> +1.2665590e-12 </wgt>
<wgt id='1793'> +1.2804881e-12 </wgt>
<wgt id='1794'> +1.2954708e-12 </wgt>
<wgt id='1795'> +1.2874359e-12 </wgt>
<wgt id='1796'> +1.2522904e-12 </wgt>
<wgt id='1797'> +1.2772105e-12 </wgt>
<wgt id='1798'> +1.2768212e-12 </wgt>
<wgt id='1799'> +1.2955863e-12 </wgt>
<wgt id='1800'> +1.3011883e-12 </wgt>
<wgt id='1801'> +1.2809999e-12 </wgt>
<wgt id='1802'> +1.2705289e-12 </wgt>
<wgt id='1803'> +1.3085791e-12 </wgt>
<wgt id='1804'> +1.2416631e-12 </wgt>
<wgt id='1805'> +1.2539087e-12 </wgt>
<wgt id='1806'> +1.2471428e-12 </wgt>
<wgt id='1807'> +1.3178288e-12 </wgt>
<wgt id='1808'> +1.2602129e-12 </wgt>
<wgt id='1809'> +1.2798917e-12 </wgt>
<wgt id='1810'> +1.2704082e-12 </wgt>
<wgt id='1811'> +1.2948520e-12 </wgt>
<wgt id='1812'> +1.2671859e-12 </wgt>
<wgt id='1813'> +1.2428271e-12 </wgt>
<wgt id='1814'> +1.4401364e-12 </wgt>
<wgt id='1815'> +1.6408409e-12 </wgt>
<wgt id='1816'> +1.2780340e-12 </wgt>
<wgt id='1817'> +1.2455017e-12 </wgt>
<wgt id='1818'> +1.2839905e-12 </wgt>
<wgt id='1819'> +1.2820251e-12 </wgt>
<wgt id='1820'> +1.2698787e-12 </wgt>
<wgt id='1821'> +1.2792850e-12 </wgt>
<wgt id='1822'> +1.2644687e-12 </wgt>
<wgt id='1823'> +1.2922867e-12 </wgt>
<wgt id='1824'> +1.2486714e-12 </wgt>
<wgt id='1825'> +1.2569397e-12 </wgt>
<wgt id='1826'> +1.2649419e-12 </wgt>
<wgt id='1827'> +1.3576929e-12 </wgt>
<wgt id='1828'> +1.2776977e-12 </wgt>
<wgt id='1829'> +1.2799564e-12 </wgt>
<wgt id='1830'> +1.2922350e-12 </wgt>
<wgt id='1831'> +1.2892854e-12 </wgt>
<wgt id='1832'> +1.2533847e-12 </wgt>
<wgt id='1833'> +1.2767100e-12 </wgt>
<wgt id='1834'> +1.2272719e-12 </wgt>
<wgt id='1835'> +1.2900280e-12 </wgt>
<wgt id='1836'> +1.2458724e-12 </wgt>
<wgt id='1837'> +1.2967265e-12 </wgt>
<wgt id='1838'> +1.2765429e-12 </wgt>
<wgt id='1839'> +1.3354875e-12 </wgt>
<wgt id='1840'> +1.2916397e-12 </wgt>
<wgt id='1841'> +1.2936742e-12 </wgt>
<wgt id='1842'> +1.2445088e-12 </wgt>
<wgt id='1843'> +1.2416692e-12 </wgt>
<wgt id='1844'> +1.3077541e-12 </wgt>
<wgt id='1845'> +1.2616707e-12 </wgt>
<wgt id='1846'> +1.2720325e-12 </wgt>
<wgt id='1847'> +1.2852897e-12 </wgt>
<wgt id='1848'> +1.2627660e-12 </wgt>
<wgt id='1849'> +1.2867068e-12 </wgt>
<wgt id='1850'> +1.2820582e-12 </wgt>
<wgt id='1851'> +1.2599799e-12 </wgt>
<wgt id='1852'> +1.2711458e-12 </wgt>
<wgt id='1853'> +1.2688228e-12 </wgt>
<wgt id='1854'> +1.2611664e-12 </wgt>
<wgt id='1855'> +1.2588485e-12 </wgt>
<wgt id='1856'> +1.2928885e-12 </wgt>
<wgt id='1857'> +1.2968377e-12 </wgt>
<wgt id='1858'> +1.3040712e-12 </wgt>
<wgt id='1859'> +1.2929660e-12 </wgt>
<wgt id='1860'> +1.2598615e-12 </wgt>
<wgt id='1861'> +1.2957461e-12 </wgt>
<wgt id='1862'> +1.2770573e-12 </wgt>
<wgt id='1863'> +1.2536826e-12 </wgt>
<wgt id='1864'> +1.2610713e-12 </wgt>
<wgt id='1865'> +1.2498959e-12 </wgt>
<wgt id='1866'> +1.2887842e-12 </wgt>
<wgt id='1867'> +1.2939419e-12 </wgt>
<wgt id='1868'> +1.2635896e-12 </wgt>
<wgt id='1869'> +1.2948705e-12 </wgt>
<wgt id='1870'> +1.2916893e-12 </wgt>
<wgt id='1871'> +1.2805705e-12 </wgt>
<wgt id='1872'> +1.2593947e-12 </wgt>
<wgt id='1873'> +1.2690032e-12 </wgt>
<wgt id='1874'> +1.2918592e-12 </wgt>
<wgt id='1875'> +1.2861295e-12 </wgt>
<wgt id='1876'> +1.2665263e-12 </wgt>
<wgt id='1877'> +1.2538147e-12 </wgt>
<wgt id='1878'> +1.2825451e-12 </wgt>
<wgt id='1879'> +1.3170896e-12 </wgt>
<wgt id='1880'> +1.2405866e-12 </wgt>
<wgt id='1881'> +1.2665576e-12 </wgt>
<wgt id='1882'> +1.2913613e-12 </wgt>
<wgt id='1883'> +1.3064674e-12 </wgt>
<wgt id='1884'> +1.2645659e-12 </wgt>
<wgt id='1885'> +1.2790388e-12 </wgt>
<wgt id='1886'> +1.2692997e-12 </wgt>
<wgt id='1887'> +1.2974608e-12 </wgt>
<wgt id='1888'> +1.2795890e-12 </wgt>
<wgt id='1889'> +1.2876321e-12 </wgt>
<wgt id='1890'> +1.3020784e-12 </wgt>
<wgt id='1891'> +1.2923461e-12 </wgt>
<wgt id='1892'> +1.2993701e-12 </wgt>
<wgt id='1893'> +1.3032433e-12 </wgt>
<wgt id='1894'> +1.2966084e-12 </wgt>
<wgt id='1895'> +1.2665590e-12 </wgt>
<wgt id='1896'> +1.2804881e-12 </wgt>
<wgt id='1897'> +1.2954708e-12 </wgt>
<wgt id='1898'> +1.2874359e-12 </wgt>
<wgt id='1899'> +1.2522904e-12 </wgt>
<wgt id='1900'> +1.2772105e-12 </wgt>
<wgt id='1901'> +1.2768212e-12 </wgt>
<wgt id='1902'> +1.2955863e-12 </wgt>
<wgt id='1903'> +1.3011883e-12 </wgt>
<wgt id='1904'> +1.2809999e-12 </wgt>
<wgt id='1905'> +1.2705289e-12 </wgt>
<wgt id='1906'> +1.3085791e-12 </wgt>
<wgt id='1907'> +1.2416631e-12 </wgt>
<wgt id='1908'> +1.2539087e-12 </wgt>
<wgt id='1909'> +1.2471428e-12 </wgt>
<wgt id='1910'> +1.3178288e-12 </wgt>
<wgt id='1911'> +1.2602129e-12 </wgt>
<wgt id='1912'> +1.2798917e-12 </wgt>
<wgt id='1913'> +1.2704082e-12 </wgt>
<wgt id='1914'> +1.2948520e-12 </wgt>
<wgt id='1915'> +1.2671859e-12 </wgt>
<wgt id='1916'> +1.2428271e-12 </wgt>
<wgt id='1917'> +1.2653647e-12 </wgt>
<wgt id='1918'> +1.2810793e-12 </wgt>
<wgt id='1919'> +1.2866231e-12 </wgt>
</rwgt>
</event>
<event>
 9      1 +1.5538000e-12 3.45202700e+01 7.81860800e-03 1.40876600e-01
        2 -1    0    0  502    0 -0.0000000000e+00 +0.0000000000e+00 +2.2243133929e+03 2.2243133929e+03 0.0000000000e+00 0.0000e+00 1.0000e+00
       21 -1    0    0  501  502 +0.0000000000e+00 -0.0000000000e+00 -4.8383655684e-01 4.8383655684e-01 0.0000000000e+00 0.0000e+00 1.0000e+00
     1023  2    1    2    0    0 +1.9486062513e+01 -2.4226701690e+01 +1.1704671720e+03 1.1709761097e+03 1.5000301320e+01 0.0000e+00 0.0000e+00
  1000023  2    3    3    0    0 +4.6123007748e+00 -2.2773585610e+00 +2.4517700624e+02 2.4529263609e+02 5.5002955403e+00 0.0000e+00 0.0000e+00
        2  1    1    2  501    0 -1.9486062513e+01 +2.4226701690e+01 +1.0533623844e+03 1.0538211198e+03 0.0000000000e+00 0.0000e+00 1.0000e+00
  1000022  1    4    4    0    0 +3.9891917544e+00 -2.1840048962e+00 +2.2314668024e+02 2.2324901888e+02 5.0000000000e+00 0.0000e+00 1.0000e+00
      -11  1    4    4    0    0 +4.5677931055e-01 +2.4146038219e-03 +1.9733466434e+01 1.9738752517e+01 5.1100000000e-04 0.0000e+00 1.0000e+00
       11  1    4    4    0    0 +1.6632970987e-01 -9.5768268680e-02 +2.2968595661e+00 2.3048646948e+00 5.1100000000e-04 0.0000e+00 -1.0000e+00
  1000022  1    3    3    0    0 +1.4873761738e+01 -2.1949343129e+01 +9.2529016578e+02 9.2568347362e+02 5.0000000000e+00 0.0000e+00 1.0000e+00
<mgrwt>
<rscale>  1 0.34520266E+02</rscale>
<asrwt>0</asrwt>
<pdfrwt beam="1">  1       21 0.74438174E-04 0.34520266E+02</pdfrwt>
<pdfrwt beam="2">  1        2 0.34219387E+00 0.34520266E+02</pdfrwt>
<totfact> 0.87763567E+06</totfact>
</mgrwt>
<rwgt>
<wgt id='1001'> +1.5538000e-12 </wgt>
<wgt id='1002'> +1.5743373e-12 </wgt>
<wgt id='1003'> +1.5744898e-12 </wgt>
<wgt id='1004'> +1.5499995e-12 </wgt>
<wgt id='1005'> +1.5744936e-12 </wgt>
<wgt id='1006'> +1.3647263e-12 </wgt>
<wgt id='1007'> +1.4020339e-12 </wgt>
<wgt id='1008'> +1.4033664e-12 </wgt>
<wgt id='1009'> +1.3594970e-12 </wgt>
<wgt id='1010'> +1.4034266e-12 </wgt>
<wgt id='1011'> +1.8066247e-12 </wgt>
<wgt id='1012'> +1.7969651e-12 </wgt>
<wgt id='1013'> +1.7951186e-12 </wgt>
<wgt id='1014'> +1.8056214e-12 </wgt>
<wgt id='1015'> +1.7950273e-12 </wgt>
<wgt id='1016'> +1.7926120e-12 </wgt>
<wgt id='1017'> +1.7533398e-12 </wgt>
<wgt id='1018'> +1.7500740e-12 </wgt>
<wgt id='1019'> +1.7951186e-12 </wgt>
<wgt id='1020'> +1.7499158e-12 </wgt>
<wgt id='1021'> +1.5744785e-12 </wgt>
<wgt id='1022'> +1.5614455e-12 </wgt>
<wgt id='1023'> +1.5598672e-12 </wgt>
<wgt id='1024'> +1.5744898e-12 </wgt>
<wgt id='1025'> +1.5597894e-12 </wgt>
<wgt id='1026'> +2.0842948e-12 </wgt>
<wgt id='1027'> +2.0012806e-12 </wgt>
<wgt id='1028'> +1.9953069e-12 </wgt>
<wgt id='1029'> +2.0911650e-12 </wgt>
<wgt id='1030'> +1.9950203e-12 </wgt>
<wgt id='1031'> +1.2634724e-12 </wgt>
<wgt id='1032'> +1.3550951e-12 </wgt>
<wgt id='1033'> +1.3594970e-12 </wgt>
<wgt id='1034'> +1.2523306e-12 </wgt>
<wgt id='1035'> +1.3597016e-12 </wgt>
<wgt id='1036'> +1.1097271e-12 </wgt>
<wgt id='1037'> +1.2067867e-12 </wgt>
<wgt id='1038'> +1.2117401e-12 </wgt>
<wgt id='1039'> +1.0984130e-12 </wgt>
<wgt id='1040'> +1.2119716e-12 </wgt>
<wgt id='1041'> +1.4690568e-12 </wgt>
<wgt id='1042'> +1.5467198e-12 </wgt>
<wgt id='1043'> +1.5499995e-12 </wgt>
<wgt id='1044'> +1.4588617e-12 </wgt>
<wgt id='1045'> +1.5501503e-12 </wgt>
<wgt id='1046'> +1.5538000e-12 </wgt>
<wgt id='1047'> +1.5429780e-12 </wgt>
<wgt id='1048'> +1.5989322e-12 </wgt>
<wgt id='1049'> +1.5142226e-12 </wgt>
<wgt id='1050'> +1.5289290e-12 </wgt>
<wgt id='1051'> +1.5618738e-12 </wgt>
<wgt id='1052'> +1.5288506e-12 </wgt>
<wgt id='1053'> +1.6023174e-12 </wgt>
<wgt id='1054'> +1.5855552e-12 </wgt>
<wgt id='1055'> +1.5641044e-12 </wgt>
<wgt id='1056'> +1.4531151e-12 </wgt>
<wgt id='1057'> +1.5240258e-12 </wgt>
<wgt id='1058'> +1.5380165e-12 </wgt>
<wgt id='1059'> +1.5409498e-12 </wgt>
<wgt id='1060'> +1.5469006e-12 </wgt>
<wgt id='1061'> +1.5886904e-12 </wgt>
<wgt id='1062'> +1.5349615e-12 </wgt>
<wgt id='1063'> +1.4945524e-12 </wgt>
<wgt id='1064'> +1.5342285e-12 </wgt>
<wgt id='1065'> +1.5812740e-12 </wgt>
<wgt id='1066'> +1.5601948e-12 </wgt>
<wgt id='1067'> +1.6474899e-12 </wgt>
<wgt id='1068'> +1.6384397e-12 </wgt>
<wgt id='1069'> +1.6492464e-12 </wgt>
<wgt id='1070'> +1.5609250e-12 </wgt>
<wgt id='1071'> +1.5846894e-12 </wgt>
<wgt id='1072'> +1.5315459e-12 </wgt>
<wgt id='1073'> +1.5454001e-12 </wgt>
<wgt id='1074'> +1.5611700e-12 </wgt>
<wgt id='1075'> +1.5205403e-12 </wgt>
<wgt id='1076'> +1.5334805e-12 </wgt>
<wgt id='1077'> +1.6111109e-12 </wgt>
<wgt id='1078'> +1.5293961e-12 </wgt>
<wgt id='1079'> +1.5803801e-12 </wgt>
<wgt id='1080'> +1.5572231e-12 </wgt>
<wgt id='1081'> +1.5066177e-12 </wgt>
<wgt id='1082'> +1.5644624e-12 </wgt>
<wgt id='1083'> +1.5447675e-12 </wgt>
<wgt id='1084'> +1.5421936e-12 </wgt>
<wgt id='1085'> +1.5233166e-12 </wgt>
<wgt id='1086'> +1.6190046e-12 </wgt>
<wgt id='1087'> +1.5172356e-12 </wgt>
<wgt id='1088'> +1.5156365e-12 </wgt>
<wgt id='1089'> +1.5210788e-12 </wgt>
<wgt id='1090'> +1.5685952e-12 </wgt>
<wgt id='1091'> +1.5387236e-12 </wgt>
<wgt id='1092'> +1.5164357e-12 </wgt>
<wgt id='1093'> +1.6133692e-12 </wgt>
<wgt id='1094'> +1.5629078e-12 </wgt>
<wgt id='1095'> +1.6025768e-12 </wgt>
<wgt id='1096'> +1.5162693e-12 </wgt>
<wgt id='1097'> +1.5516073e-12 </wgt>
<wgt id='1098'> +1.6046778e-12 </wgt>
<wgt id='1099'> +1.5327949e-12 </wgt>
<wgt id='1100'> +1.6212988e-12 </wgt>
<wgt id='1101'> +1.5697837e-12 </wgt>
<wgt id='1102'> +1.4642899e-12 </wgt>
<wgt id='1103'> +1.5065735e-12 </wgt>
<wgt id='1104'> +1.5515444e-12 </wgt>
<wgt id='1105'> +1.4790427e-12 </wgt>
<wgt id='1106'> +1.5583136e-12 </wgt>
<wgt id='1107'> +1.6319896e-12 </wgt>
<wgt id='1108'> +1.5535933e-12 </wgt>
<wgt id='1109'> +1.5677379e-12 </wgt>
<wgt id='1110'> +1.5311192e-12 </wgt>
<wgt id='1111'> +1.6040022e-12 </wgt>
<wgt id='1112'> +1.5245868e-12 </wgt>
<wgt id='1113'> +1.6494879e-12 </wgt>
<wgt id='1114'> +1.5696508e-12 </wgt>
<wgt id='1115'> +1.5718259e-12 </wgt>
<wgt id='1116'> +1.6817175e-12 </wgt>
<wgt id='1117'> +1.5383457e-12 </wgt>
<wgt id='1118'> +1.4949108e-12 </wgt>
<wgt id='1119'> +1.5123323e-12 </wgt>
<wgt id='1120'> +1.5666367e-12 </wgt>
<wgt id='1121'> +1.4880392e-12 </wgt>
<wgt id='1122'> +1.5192145e-12 </wgt>
<wgt id='1123'> +1.5947670e-12 </wgt>
<wgt id='1124'> +1.6324315e-12 </wgt>
<wgt id='1125'> +1.4707495e-12 </wgt>
<wgt id='1126'> +1.4764608e-12 </wgt>
<wgt id='1127'> +1.5731493e-12 </wgt>
<wgt id='1128'> +1.5349615e-12 </wgt>
<wgt id='1129'> +1.5885579e-12 </wgt>
<wgt id='1130'> +1.5405351e-12 </wgt>
<wgt id='1131'> +1.6015119e-12 </wgt>
<wgt id='1132'> +1.5424022e-12 </wgt>
<wgt id='1133'> +1.5585945e-12 </wgt>
<wgt id='1134'> +1.5447885e-12 </wgt>
<wgt id='1135'> +1.5263352e-12 </wgt>
<wgt id='1136'> +1.5453858e-12 </wgt>
<wgt id='1137'> +1.5725442e-12 </wgt>
<wgt id='1138'> +1.5587883e-12 </wgt>
<wgt id='1139'> +1.5515809e-12 </wgt>
<wgt id='1140'> +1.5796473e-12 </wgt>
<wgt id='1141'> +1.5421543e-12 </wgt>
<wgt id='1142'> +1.6044247e-12 </wgt>
<wgt id='1143'> +1.4401050e-12 </wgt>
<wgt id='1144'> +1.5357444e-12 </wgt>
<wgt id='1145'> +1.5239328e-12 </wgt>
<wgt id='1146'> +1.5383326e-12 </wgt>
<wgt id='1147'> +1.5176219e-12 </wgt>
<wgt id='1148'> +1.5382491e-12 </wgt>
<wgt id='1149'> +1.4193777e-12 </wgt>
<wgt id='1150'> +1.5239943e-12 </wgt>
<wgt id='1151'> +2.1195185e-12 </wgt>
<wgt id='1152'> +3.0296137e-12 </wgt>
<wgt id='1153'> +3.0479633e-12 </wgt>
<wgt id='1154'> +3.0188831e-12 </wgt>
<wgt id='1155'> +3.0265335e-12 </wgt>
<wgt id='1156'> +3.0310967e-12 </wgt>
<wgt id='1157'> +3.0393577e-12 </wgt>
<wgt id='1158'> +3.0163934e-12 </wgt>
<wgt id='1159'> +3.0368785e-12 </wgt>
<wgt id='1160'> +3.0249472e-12 </wgt>
<wgt id='1161'> +3.0202794e-12 </wgt>
<wgt id='1162'> +3.0358299e-12 </wgt>
<wgt id='1163'> +3.0263764e-12 </wgt>
<wgt id='1164'> +3.0327138e-12 </wgt>
<wgt id='1165'> +3.0286131e-12 </wgt>
<wgt id='1166'> +3.0304094e-12 </wgt>
<wgt id='1167'> +3.0767527e-12 </wgt>
<wgt id='1168'> +2.9751333e-12 </wgt>
<wgt id='1169'> +3.0504259e-12 </wgt>
<wgt id='1170'> +3.0141481e-12 </wgt>
<wgt id='1171'> +3.0128394e-12 </wgt>
<wgt id='1172'> +3.0503826e-12 </wgt>
<wgt id='1173'> +2.9956297e-12 </wgt>
<wgt id='1174'> +3.0652596e-12 </wgt>
<wgt id='1175'> +3.0405159e-12 </wgt>
<wgt id='1176'> +3.0218078e-12 </wgt>
<wgt id='1177'> +3.0338790e-12 </wgt>
<wgt id='1178'> +3.0176027e-12 </wgt>
<wgt id='1179'> +3.0169502e-12 </wgt>
<wgt id='1180'> +3.0379487e-12 </wgt>
<wgt id='1181'> +3.0313339e-12 </wgt>
<wgt id='1182'> +3.0292679e-12 </wgt>
<wgt id='1183'> +3.0491502e-12 </wgt>
<wgt id='1184'> +3.0283896e-12 </wgt>
<wgt id='1185'> +3.0201908e-12 </wgt>
<wgt id='1186'> +3.0339728e-12 </wgt>
<wgt id='1187'> +3.0345682e-12 </wgt>
<wgt id='1188'> +3.0279503e-12 </wgt>
<wgt id='1189'> +3.0183261e-12 </wgt>
<wgt id='1190'> +2.9930900e-12 </wgt>
<wgt id='1191'> +3.0259779e-12 </wgt>
<wgt id='1192'> +3.0625686e-12 </wgt>
<wgt id='1193'> +1.5063018e-12 </wgt>
<wgt id='1194'> +1.4754812e-12 </wgt>
<wgt id='1195'> +1.5315991e-12 </wgt>
<wgt id='1196'> +1.4964721e-12 </wgt>
<wgt id='1197'> +1.5172616e-12 </wgt>
<wgt id='1198'> +1.5043356e-12 </wgt>
<wgt id='1199'> +1.5092959e-12 </wgt>
<wgt id='1200'> +1.5049153e-12 </wgt>
<wgt id='1201'> +1.5072160e-12 </wgt>
<wgt id='1202'> +1.5063774e-12 </wgt>
<wgt id='1203'> +1.5061083e-12 </wgt>
<wgt id='1204'> +1.5053925e-12 </wgt>
<wgt id='1205'> +1.5065676e-12 </wgt>
<wgt id='1206'> +1.5097018e-12 </wgt>
<wgt id='1207'> +1.5015486e-12 </wgt>
<wgt id='1208'> +1.5148345e-12 </wgt>
<wgt id='1209'> +1.5033151e-12 </wgt>
<wgt id='1210'> +1.5310161e-12 </wgt>
<wgt id='1211'> +1.4910959e-12 </wgt>
<wgt id='1212'> +1.4989023e-12 </wgt>
<wgt id='1213'> +1.5147752e-12 </wgt>
<wgt id='1214'> +1.4978668e-12 </wgt>
<wgt id='1215'> +1.5107272e-12 </wgt>
<wgt id='1216'> +1.5095967e-12 </wgt>
<wgt id='1217'> +1.5034909e-12 </wgt>
<wgt id='1218'> +1.5136586e-12 </wgt>
<wgt id='1219'> +1.5026214e-12 </wgt>
<wgt id='1220'> +1.5215483e-12 </wgt>
<wgt id='1221'> +1.5005920e-12 </wgt>
<wgt id='1222'> +1.5356564e-12 </wgt>
<wgt id='1223'> +1.4683567e-12 </wgt>
<wgt id='1224'> +1.5092518e-12 </wgt>
<wgt id='1225'> +1.5051303e-12 </wgt>
<wgt id='1226'> +1.5020422e-12 </wgt>
<wgt id='1227'> +1.5092361e-12 </wgt>
<wgt id='1228'> +1.5128417e-12 </wgt>
<wgt id='1229'> +1.5040502e-12 </wgt>
<wgt id='1230'> +1.5077592e-12 </wgt>
<wgt id='1231'> +1.5274045e-12 </wgt>
<wgt id='1232'> +1.5130927e-12 </wgt>
<wgt id='1233'> +1.5047839e-12 </wgt>
<wgt id='1234'> +1.5063018e-12 </wgt>
<wgt id='1235'> +1.4998007e-12 </wgt>
<wgt id='1236'> +1.5023059e-12 </wgt>
<wgt id='1237'> +1.5044648e-12 </wgt>
<wgt id='1238'> +1.5080643e-12 </wgt>
<wgt id='1239'> +1.5094896e-12 </wgt>
<wgt id='1240'> +1.5110740e-12 </wgt>
<wgt id='1241'> +1.3785637e-12 </wgt>
<wgt id='1242'> +1.3540280e-12 </wgt>
<wgt id='1243'> +1.4027636e-12 </wgt>
<wgt id='1244'> +1.3955052e-12 </wgt>
<wgt id='1245'> +1.3661534e-12 </wgt>
<wgt id='1246'> +1.3760877e-12 </wgt>
<wgt id='1247'> +1.3806823e-12 </wgt>
<wgt id='1248'> +1.3787070e-12 </wgt>
<wgt id='1249'> +1.3784418e-12 </wgt>
<wgt id='1250'> +1.3801939e-12 </wgt>
<wgt id='1251'> +1.3774622e-12 </wgt>
<wgt id='1252'> +1.3747786e-12 </wgt>
<wgt id='1253'> +1.3815093e-12 </wgt>
<wgt id='1254'> +1.3780815e-12 </wgt>
<wgt id='1255'> +1.3786855e-12 </wgt>
<wgt id='1256'> +1.3747082e-12 </wgt>
<wgt id='1257'> +1.3881976e-12 </wgt>
<wgt id='1258'> +1.3741767e-12 </wgt>
<wgt id='1259'> +1.3765911e-12 </wgt>
<wgt id='1260'> +1.3817267e-12 </wgt>
<wgt id='1261'> +1.3753315e-12 </wgt>
<wgt id='1262'> +1.3731226e-12 </wgt>
<wgt id='1263'> +1.3812351e-12 </wgt>
<wgt id='1264'> +1.3854246e-12 </wgt>
<wgt id='1265'> +1.3762986e-12 </wgt>
<wgt id='1266'> +1.3501000e-12 </wgt>
<wgt id='1267'> +1.4065553e-12 </wgt>
<wgt id='1268'> +1.3886051e-12 </wgt>
<wgt id='1269'> +1.3699141e-12 </wgt>
<wgt id='1270'> +1.4078577e-12 </wgt>
<wgt id='1271'> +1.3833509e-12 </wgt>
<wgt id='1272'> +1.3882202e-12 </wgt>
<wgt id='1273'> +1.3777766e-12 </wgt>
<wgt id='1274'> +1.3822697e-12 </wgt>
<wgt id='1275'> +1.3736152e-12 </wgt>
<wgt id='1276'> +1.3763544e-12 </wgt>
<wgt id='1277'> +1.3839041e-12 </wgt>
<wgt id='1278'> +1.4082528e-12 </wgt>
<wgt id='1279'> +1.3790224e-12 </wgt>
<wgt id='1280'> +1.3788131e-12 </wgt>
<wgt id='1281'> +1.3878388e-12 </wgt>
<wgt id='1282'> +1.3785637e-12 </wgt>
<wgt id='1283'> +1.3741610e-12 </wgt>
<wgt id='1284'> +1.3760517e-12 </wgt>
<wgt id='1285'> +1.3775600e-12 </wgt>
<wgt id='1286'> +1.3799469e-12 </wgt>
<wgt id='1287'> +1.3805753e-12 </wgt>
<wgt id='1288'> +1.3813390e-12 </wgt>
<wgt id='1289'> +1.5801864e-12 </wgt>
<wgt id='1290'> +1.5880079e-12 </wgt>
<wgt id='1291'> +1.5718041e-12 </wgt>
<wgt id='1292'> +1.5816797e-12 </wgt>
<wgt id='1293'> +1.5791171e-12 </wgt>
<wgt id='1294'> +1.5522610e-12 </wgt>
<wgt id='1295'> +1.6069490e-12 </wgt>
<wgt id='1296'> +1.6028887e-12 </wgt>
<wgt id='1297'> +1.5522401e-12 </wgt>
<wgt id='1298'> +1.5911761e-12 </wgt>
<wgt id='1299'> +1.5662985e-12 </wgt>
<wgt id='1300'> +1.5827204e-12 </wgt>
<wgt id='1301'> +1.5750345e-12 </wgt>
<wgt id='1302'> +1.5762004e-12 </wgt>
<wgt id='1303'> +1.5857529e-12 </wgt>
<wgt id='1304'> +1.5779115e-12 </wgt>
<wgt id='1305'> +1.5817361e-12 </wgt>
<wgt id='1306'> +1.5814844e-12 </wgt>
<wgt id='1307'> +1.5786614e-12 </wgt>
<wgt id='1308'> +1.5742729e-12 </wgt>
<wgt id='1309'> +1.5847170e-12 </wgt>
<wgt id='1310'> +1.5928931e-12 </wgt>
<wgt id='1311'> +1.5671300e-12 </wgt>
<wgt id='1312'> +1.5882699e-12 </wgt>
<wgt id='1313'> +1.5729849e-12 </wgt>
<wgt id='1314'> +1.5703537e-12 </wgt>
<wgt id='1315'> +1.5930654e-12 </wgt>
<wgt id='1316'> +1.5881917e-12 </wgt>
<wgt id='1317'> +1.5844618e-12 </wgt>
<wgt id='1318'> +1.5876104e-12 </wgt>
<wgt id='1319'> +1.5686227e-12 </wgt>
<wgt id='1320'> +1.5998797e-12 </wgt>
<wgt id='1321'> +1.5611617e-12 </wgt>
<wgt id='1322'> +1.5787165e-12 </wgt>
<wgt id='1323'> +1.5818095e-12 </wgt>
<wgt id='1324'> +1.5774604e-12 </wgt>
<wgt id='1325'> +1.5887980e-12 </wgt>
<wgt id='1326'> +1.5802089e-12 </wgt>
<wgt id='1327'> +1.5843648e-12 </wgt>
<wgt id='1328'> +1.5808002e-12 </wgt>
<wgt id='1329'> +1.5788827e-12 </wgt>
<wgt id='1330'> +1.5862320e-12 </wgt>
<wgt id='1331'> +1.5726387e-12 </wgt>
<wgt id='1332'> +1.5885441e-12 </wgt>
<wgt id='1333'> +1.5988741e-12 </wgt>
<wgt id='1334'> +1.5809238e-12 </wgt>
<wgt id='1335'> +1.5794531e-12 </wgt>
<wgt id='1336'> +1.5856914e-12 </wgt>
<wgt id='1337'> +1.5959762e-12 </wgt>
<wgt id='1338'> +1.5819136e-12 </wgt>
<wgt id='1339'> +1.5822532e-12 </wgt>
<wgt id='1340'> +1.5500053e-12 </wgt>
<wgt id='1341'> +1.5574818e-12 </wgt>
<wgt id='1342'> +1.5419535e-12 </wgt>
<wgt id='1343'> +1.5516817e-12 </wgt>
<wgt id='1344'> +1.5488935e-12 </wgt>
<wgt id='1345'> +1.5210629e-12 </wgt>
<wgt id='1346'> +1.5766354e-12 </wgt>
<wgt id='1347'> +1.5736281e-12 </wgt>
<wgt id='1348'> +1.5238003e-12 </wgt>
<wgt id='1349'> +1.5610266e-12 </wgt>
<wgt id='1350'> +1.5391125e-12 </wgt>
<wgt id='1351'> +1.5526338e-12 </wgt>
<wgt id='1352'> +1.5441950e-12 </wgt>
<wgt id='1353'> +1.5451265e-12 </wgt>
<wgt id='1354'> +1.5586851e-12 </wgt>
<wgt id='1355'> +1.5488073e-12 </wgt>
<wgt id='1356'> +1.5506735e-12 </wgt>
<wgt id='1357'> +1.5501891e-12 </wgt>
<wgt id='1358'> +1.5495813e-12 </wgt>
<wgt id='1359'> +1.5443488e-12 </wgt>
<wgt id='1360'> +1.5549424e-12 </wgt>
<wgt id='1361'> +1.5614033e-12 </wgt>
<wgt id='1362'> +1.5353682e-12 </wgt>
<wgt id='1363'> +1.5627098e-12 </wgt>
<wgt id='1364'> +1.5422100e-12 </wgt>
<wgt id='1365'> +1.5532151e-12 </wgt>
<wgt id='1366'> +1.5464331e-12 </wgt>
<wgt id='1367'> +1.5578849e-12 </wgt>
<wgt id='1368'> +1.5522002e-12 </wgt>
<wgt id='1369'> +1.5553214e-12 </wgt>
<wgt id='1370'> +1.5420754e-12 </wgt>
<wgt id='1371'> +1.5650975e-12 </wgt>
<wgt id='1372'> +1.5299715e-12 </wgt>
<wgt id='1373'> +1.5442036e-12 </wgt>
<wgt id='1374'> +1.5547111e-12 </wgt>
<wgt id='1375'> +1.5472183e-12 </wgt>
<wgt id='1376'> +1.5587750e-12 </wgt>
<wgt id='1377'> +1.5506299e-12 </wgt>
<wgt id='1378'> +1.5540185e-12 </wgt>
<wgt id='1379'> +1.5507366e-12 </wgt>
<wgt id='1380'> +1.5484155e-12 </wgt>
<wgt id='1381'> +1.5554765e-12 </wgt>
<wgt id='1382'> +1.5438542e-12 </wgt>
<wgt id='1383'> +1.5551971e-12 </wgt>
<wgt id='1384'> +1.5692519e-12 </wgt>
<wgt id='1385'> +1.5507343e-12 </wgt>
<wgt id='1386'> +1.5486816e-12 </wgt>
<wgt id='1387'> +1.5562139e-12 </wgt>
<wgt id='1388'> +1.5662534e-12 </wgt>
<wgt id='1389'> +1.5521634e-12 </wgt>
<wgt id='1390'> +1.5532181e-12 </wgt>
<wgt id='1391'> +1.5238960e-12 </wgt>
<wgt id='1392'> +1.4809317e-12 </wgt>
<wgt id='1393'> +1.4960735e-12 </wgt>
<wgt id='1394'> +1.5104364e-12 </wgt>
<wgt id='1395'> +1.5381739e-12 </wgt>
<wgt id='1396'> +1.5243452e-12 </wgt>
<wgt id='1397'> +1.4992319e-12 </wgt>
<wgt id='1398'> +1.5022770e-12 </wgt>
<wgt id='1399'> +1.5064026e-12 </wgt>
<wgt id='1400'> +1.5116930e-12 </wgt>
<wgt id='1401'> +1.5178495e-12 </wgt>
<wgt id='1402'> +1.5304099e-12 </wgt>
<wgt id='1403'> +1.5369925e-12 </wgt>
<wgt id='1404'> +1.5436286e-12 </wgt>
<wgt id='1405'> +1.5243452e-12 </wgt>
<wgt id='1406'> +1.5207156e-12 </wgt>
<wgt id='1407'> +1.5225189e-12 </wgt>
<wgt id='1408'> +1.5260551e-12 </wgt>
<wgt id='1409'> +1.5269355e-12 </wgt>
<wgt id='1410'> +1.3692589e-12 </wgt>
<wgt id='1411'> +1.3833058e-12 </wgt>
<wgt id='1412'> +1.3511966e-12 </wgt>
<wgt id='1413'> +1.3495865e-12 </wgt>
<wgt id='1414'> +1.3887753e-12 </wgt>
<wgt id='1415'> +1.3613356e-12 </wgt>
<wgt id='1416'> +1.3724335e-12 </wgt>
<wgt id='1417'> +1.3788144e-12 </wgt>
<wgt id='1418'> +1.3596498e-12 </wgt>
<wgt id='1419'> +1.3714427e-12 </wgt>
<wgt id='1420'> +1.3670528e-12 </wgt>
<wgt id='1421'> +1.3562304e-12 </wgt>
<wgt id='1422'> +1.3745821e-12 </wgt>
<wgt id='1423'> +1.3692581e-12 </wgt>
<wgt id='1424'> +1.3692615e-12 </wgt>
<wgt id='1425'> +1.3597090e-12 </wgt>
<wgt id='1426'> +1.3795149e-12 </wgt>
<wgt id='1427'> +1.3550746e-12 </wgt>
<wgt id='1428'> +1.3770021e-12 </wgt>
<wgt id='1429'> +1.3681004e-12 </wgt>
<wgt id='1430'> +1.3711716e-12 </wgt>
<wgt id='1431'> +1.3655892e-12 </wgt>
<wgt id='1432'> +1.3719192e-12 </wgt>
<wgt id='1433'> +1.3447473e-12 </wgt>
<wgt id='1434'> +1.3909441e-12 </wgt>
<wgt id='1435'> +1.3642108e-12 </wgt>
<wgt id='1436'> +1.3829057e-12 </wgt>
<wgt id='1437'> +1.3776460e-12 </wgt>
<wgt id='1438'> +1.3766587e-12 </wgt>
<wgt id='1439'> +1.3623013e-12 </wgt>
<wgt id='1440'> +1.3773060e-12 </wgt>
<wgt id='1441'> +1.3761661e-12 </wgt>
<wgt id='1442'> +1.3540999e-12 </wgt>
<wgt id='1443'> +1.3659052e-12 </wgt>
<wgt id='1444'> +1.3785205e-12 </wgt>
<wgt id='1445'> +1.3842026e-12 </wgt>
<wgt id='1446'> +1.3645778e-12 </wgt>
<wgt id='1447'> +1.3711844e-12 </wgt>
<wgt id='1448'> +1.3745586e-12 </wgt>
<wgt id='1449'> +1.3706596e-12 </wgt>
<wgt id='1450'> +1.3671870e-12 </wgt>
<wgt id='1451'> +1.3681322e-12 </wgt>
<wgt id='1452'> +1.3797093e-12 </wgt>
<wgt id='1453'> +1.3690819e-12 </wgt>
<wgt id='1454'> +1.3784620e-12 </wgt>
<wgt id='1455'> +1.3863661e-12 </wgt>
<wgt id='1456'> +1.3865069e-12 </wgt>
<wgt id='1457'> +1.3775122e-12 </wgt>
<wgt id='1458'> +1.3693522e-12 </wgt>
<wgt id='1459'> +1.3788290e-12 </wgt>
<wgt id='1460'> +1.3917701e-12 </wgt>
<wgt id='1461'> +1.3692589e-12 </wgt>
<wgt id='1462'> +1.3613713e-12 </wgt>
<wgt id='1463'> +1.3698866e-12 </wgt>
<wgt id='1464'> +1.3659227e-12 </wgt>
<wgt id='1465'> +1.3368590e-12 </wgt>
<wgt id='1466'> +1.3407701e-12 </wgt>
<wgt id='1467'> +1.3460282e-12 </wgt>
<wgt id='1468'> +1.3560854e-12 </wgt>
<wgt id='1469'> +1.3596232e-12 </wgt>
<wgt id='1470'> +1.3726964e-12 </wgt>
<wgt id='1471'> +1.3792573e-12 </wgt>
<wgt id='1472'> +1.3856257e-12 </wgt>
<wgt id='1473'> +1.3659227e-12 </wgt>
<wgt id='1474'> +1.3641502e-12 </wgt>
<wgt id='1475'> +1.3662096e-12 </wgt>
<wgt id='1476'> +1.3662769e-12 </wgt>
<wgt id='1477'> +1.3666488e-12 </wgt>
<wgt id='1478'> +1.4886872e-12 </wgt>
<wgt id='1479'> +1.4891387e-12 </wgt>
<wgt id='1480'> +1.4782517e-12 </wgt>
<wgt id='1481'> +1.5387992e-12 </wgt>
<wgt id='1482'> +1.4936419e-12 </wgt>
<wgt id='1483'> +1.4791697e-12 </wgt>
<wgt id='1484'> +1.4674666e-12 </wgt>
<wgt id='1485'> +1.5006216e-12 </wgt>
<wgt id='1486'> +1.4879242e-12 </wgt>
<wgt id='1487'> +1.4962411e-12 </wgt>
<wgt id='1488'> +1.4863562e-12 </wgt>
<wgt id='1489'> +1.4912385e-12 </wgt>
<wgt id='1490'> +1.4860727e-12 </wgt>
<wgt id='1491'> +1.4955027e-12 </wgt>
<wgt id='1492'> +1.4885176e-12 </wgt>
<wgt id='1493'> +1.4683100e-12 </wgt>
<wgt id='1494'> +1.4813588e-12 </wgt>
<wgt id='1495'> +1.4868835e-12 </wgt>
<wgt id='1496'> +1.4891724e-12 </wgt>
<wgt id='1497'> +1.4880656e-12 </wgt>
<wgt id='1498'> +1.4891456e-12 </wgt>
<wgt id='1499'> +1.4914993e-12 </wgt>
<wgt id='1500'> +1.4894174e-12 </wgt>
<wgt id='1501'> +1.4900112e-12 </wgt>
<wgt id='1502'> +1.4890366e-12 </wgt>
<wgt id='1503'> +1.4925596e-12 </wgt>
<wgt id='1504'> +1.4853466e-12 </wgt>
<wgt id='1505'> +1.4922646e-12 </wgt>
<wgt id='1506'> +1.4898201e-12 </wgt>
<wgt id='1507'> +1.4897554e-12 </wgt>
<wgt id='1508'> +1.4913390e-12 </wgt>
<wgt id='1509'> +1.3705896e-12 </wgt>
<wgt id='1510'> +1.3806071e-12 </wgt>
<wgt id='1511'> +1.3394475e-12 </wgt>
<wgt id='1512'> +1.3611838e-12 </wgt>
<wgt id='1513'> +1.3666836e-12 </wgt>
<wgt id='1514'> +1.3722211e-12 </wgt>
<wgt id='1515'> +1.3735140e-12 </wgt>
<wgt id='1516'> +1.3692422e-12 </wgt>
<wgt id='1517'> +1.3736691e-12 </wgt>
<wgt id='1518'> +1.3670026e-12 </wgt>
<wgt id='1519'> +1.3737630e-12 </wgt>
<wgt id='1520'> +1.3730336e-12 </wgt>
<wgt id='1521'> +1.3686002e-12 </wgt>
<wgt id='1522'> +1.3719114e-12 </wgt>
<wgt id='1523'> +1.3739326e-12 </wgt>
<wgt id='1524'> +1.3683673e-12 </wgt>
<wgt id='1525'> +1.3695568e-12 </wgt>
<wgt id='1526'> +1.3726936e-12 </wgt>
<wgt id='1527'> +1.3714603e-12 </wgt>
<wgt id='1528'> +1.3707157e-12 </wgt>
<wgt id='1529'> +1.3691558e-12 </wgt>
<wgt id='1530'> +1.3702054e-12 </wgt>
<wgt id='1531'> +1.3723183e-12 </wgt>
<wgt id='1532'> +1.3658672e-12 </wgt>
<wgt id='1533'> +1.3720199e-12 </wgt>
<wgt id='1534'> +1.3714950e-12 </wgt>
<wgt id='1535'> +1.3680933e-12 </wgt>
<wgt id='1536'> +1.3754985e-12 </wgt>
<wgt id='1537'> +1.3732861e-12 </wgt>
<wgt id='1538'> +1.3568872e-12 </wgt>
<wgt id='1539'> +1.3669497e-12 </wgt>
<wgt id='1540'> +1.3700682e-12 </wgt>
<wgt id='1541'> +1.3682251e-12 </wgt>
<wgt id='1542'> +1.3688629e-12 </wgt>
<wgt id='1543'> +1.3717092e-12 </wgt>
<wgt id='1544'> +1.3689110e-12 </wgt>
<wgt id='1545'> +1.3686104e-12 </wgt>
<wgt id='1546'> +1.3719081e-12 </wgt>
<wgt id='1547'> +1.3699786e-12 </wgt>
<wgt id='1548'> +1.3708902e-12 </wgt>
<wgt id='1549'> +1.3700257e-12 </wgt>
<wgt id='1550'> +1.3683727e-12 </wgt>
<wgt id='1551'> +1.3708634e-12 </wgt>
<wgt id='1552'> +1.3741131e-12 </wgt>
<wgt id='1553'> +1.3689816e-12 </wgt>
<wgt id='1554'> +1.3716131e-12 </wgt>
<wgt id='1555'> +1.3709950e-12 </wgt>
<wgt id='1556'> +1.3715868e-12 </wgt>
<wgt id='1557'> +1.3745650e-12 </wgt>
<wgt id='1558'> +1.3722517e-12 </wgt>
<wgt id='1559'> +1.3750938e-12 </wgt>
<wgt id='1560'> +1.3753993e-12 </wgt>
<wgt id='1561'> +1.3720990e-12 </wgt>
<wgt id='1562'> +1.3724701e-12 </wgt>
<wgt id='1563'> +1.3733534e-12 </wgt>
<wgt id='1564'> +1.3722513e-12 </wgt>
<wgt id='1565'> +1.3677246e-12 </wgt>
<wgt id='1566'> +1.3699823e-12 </wgt>
<wgt id='1567'> +1.3720190e-12 </wgt>
<wgt id='1568'> +1.3723058e-12 </wgt>
<wgt id='1569'> +1.3679498e-12 </wgt>
<wgt id='1570'> +1.3721884e-12 </wgt>
<wgt id='1571'> +1.3706672e-12 </wgt>
<wgt id='1572'> +1.3715522e-12 </wgt>
<wgt id='1573'> +1.3690222e-12 </wgt>
<wgt id='1574'> +1.3720675e-12 </wgt>
<wgt id='1575'> +1.3714110e-12 </wgt>
<wgt id='1576'> +1.3735930e-12 </wgt>
<wgt id='1577'> +1.3710990e-12 </wgt>
<wgt id='1578'> +1.3722372e-12 </wgt>
<wgt id='1579'> +1.3696210e-12 </wgt>
<wgt id='1580'> +1.3691912e-12 </wgt>
<wgt id='1581'> +1.3682448e-12 </wgt>
<wgt id='1582'> +1.3671814e-12 </wgt>
<wgt id='1583'> +1.3719094e-12 </wgt>
<wgt id='1584'> +1.3742059e-12 </wgt>
<wgt id='1585'> +1.3714439e-12 </wgt>
<wgt id='1586'> +1.3707252e-12 </wgt>
<wgt id='1587'> +1.3682015e-12 </wgt>
<wgt id='1588'> +1.3713119e-12 </wgt>
<wgt id='1589'> +1.3708091e-12 </wgt>
<wgt id='1590'> +1.3707487e-12 </wgt>
<wgt id='1591'> +1.3722554e-12 </wgt>
<wgt id='1592'> +1.3691799e-12 </wgt>
<wgt id='1593'> +1.3721456e-12 </wgt>
<wgt id='1594'> +1.3698635e-12 </wgt>
<wgt id='1595'> +1.3714790e-12 </wgt>
<wgt id='1596'> +1.3706640e-12 </wgt>
<wgt id='1597'> +1.3728161e-12 </wgt>
<wgt id='1598'> +1.3702271e-12 </wgt>
<wgt id='1599'> +1.3720351e-12 </wgt>
<wgt id='1600'> +1.3702445e-12 </wgt>
<wgt id='1601'> +1.3706715e-12 </wgt>
<wgt id='1602'> +1.3718537e-12 </wgt>
<wgt id='1603'> +1.3707163e-12 </wgt>
<wgt id='1604'> +1.3724616e-12 </wgt>
<wgt id='1605'> +1.3701466e-12 </wgt>
<wgt id='1606'> +1.3709153e-12 </wgt>
<wgt id='1607'> +1.3713404e-12 </wgt>
<wgt id='1608'> +1.3710413e-12 </wgt>
<wgt id='1609'> +1.3700847e-12 </wgt>
<wgt id='1610'> +1.3570603e-12 </wgt>
<wgt id='1611'> +1.3794187e-12 </wgt>
<wgt id='1612'> +1.5566563e-12 </wgt>
<wgt id='1613'> +1.5072718e-12 </wgt>
<wgt id='1614'> +1.4608236e-12 </wgt>
<wgt id='1615'> +1.5051834e-12 </wgt>
<wgt id='1616'> +1.5111304e-12 </wgt>
<wgt id='1617'> +1.4614008e-12 </wgt>
<wgt id='1618'> +1.5680712e-12 </wgt>
<wgt id='1619'> +1.4961551e-12 </wgt>
<wgt id='1620'> +1.5230798e-12 </wgt>
<wgt id='1621'> +1.5718292e-12 </wgt>
<wgt id='1622'> +1.5643267e-12 </wgt>
<wgt id='1623'> +1.6118865e-12 </wgt>
<wgt id='1624'> +1.6280046e-12 </wgt>
<wgt id='1625'> +1.4280480e-12 </wgt>
<wgt id='1626'> +1.5257616e-12 </wgt>
<wgt id='1627'> +1.5940457e-12 </wgt>
<wgt id='1628'> +1.5092877e-12 </wgt>
<wgt id='1629'> +1.5652243e-12 </wgt>
<wgt id='1630'> +1.4888610e-12 </wgt>
<wgt id='1631'> +1.5077975e-12 </wgt>
<wgt id='1632'> +1.5045694e-12 </wgt>
<wgt id='1633'> +1.4204221e-12 </wgt>
<wgt id='1634'> +1.5612837e-12 </wgt>
<wgt id='1635'> +1.5742899e-12 </wgt>
<wgt id='1636'> +1.5034641e-12 </wgt>
<wgt id='1637'> +1.5901361e-12 </wgt>
<wgt id='1638'> +1.6035346e-12 </wgt>
<wgt id='1639'> +1.5110539e-12 </wgt>
<wgt id='1640'> +1.5219896e-12 </wgt>
<wgt id='1641'> +1.5769376e-12 </wgt>
<wgt id='1642'> +1.4790878e-12 </wgt>
<wgt id='1643'> +1.5041856e-12 </wgt>
<wgt id='1644'> +1.5916509e-12 </wgt>
<wgt id='1645'> +1.5300291e-12 </wgt>
<wgt id='1646'> +1.5579780e-12 </wgt>
<wgt id='1647'> +1.6182053e-12 </wgt>
<wgt id='1648'> +1.5568919e-12 </wgt>
<wgt id='1649'> +1.6618576e-12 </wgt>
<wgt id='1650'> +1.5240596e-12 </wgt>
<wgt id='1651'> +1.6583498e-12 </wgt>
<wgt id='1652'> +1.4937029e-12 </wgt>
<wgt id='1653'> +1.5512182e-12 </wgt>
<wgt id='1654'> +1.5833062e-12 </wgt>
<wgt id='1655'> +1.6132723e-12 </wgt>
<wgt id='1656'> +1.4668766e-12 </wgt>
<wgt id='1657'> +1.6033436e-12 </wgt>
<wgt id='1658'> +1.5372188e-12 </wgt>
<wgt id='1659'> +1.6280046e-12 </wgt>
<wgt id='1660'> +1.5617602e-12 </wgt>
<wgt id='1661'> +1.6218377e-12 </wgt>
<wgt id='1662'> +1.6381034e-12 </wgt>
<wgt id='1663'> +1.5713676e-12 </wgt>
<wgt id='1664'> +1.5470823e-12 </wgt>
<wgt id='1665'> +1.5014718e-12 </wgt>
<wgt id='1666'> +1.5850557e-12 </wgt>
<wgt id='1667'> +1.5771760e-12 </wgt>
<wgt id='1668'> +1.6098843e-12 </wgt>
<wgt id='1669'> +1.6442342e-12 </wgt>
<wgt id='1670'> +1.4948868e-12 </wgt>
<wgt id='1671'> +1.5307686e-12 </wgt>
<wgt id='1672'> +1.5857914e-12 </wgt>
<wgt id='1673'> +1.6052196e-12 </wgt>
<wgt id='1674'> +1.5333546e-12 </wgt>
<wgt id='1675'> +1.5696193e-12 </wgt>
<wgt id='1676'> +1.5177594e-12 </wgt>
<wgt id='1677'> +1.4936927e-12 </wgt>
<wgt id='1678'> +1.5317527e-12 </wgt>
<wgt id='1679'> +1.5851363e-12 </wgt>
<wgt id='1680'> +1.6114465e-12 </wgt>
<wgt id='1681'> +1.5946791e-12 </wgt>
<wgt id='1682'> +1.5420990e-12 </wgt>
<wgt id='1683'> +1.5972411e-12 </wgt>
<wgt id='1684'> +1.6338897e-12 </wgt>
<wgt id='1685'> +1.5493479e-12 </wgt>
<wgt id='1686'> +1.5433598e-12 </wgt>
<wgt id='1687'> +1.5491589e-12 </wgt>
<wgt id='1688'> +1.5449180e-12 </wgt>
<wgt id='1689'> +1.6058021e-12 </wgt>
<wgt id='1690'> +1.6021034e-12 </wgt>
<wgt id='1691'> +1.4381257e-12 </wgt>
<wgt id='1692'> +1.5209358e-12 </wgt>
<wgt id='1693'> +1.5643343e-12 </wgt>
<wgt id='1694'> +1.5002660e-12 </wgt>
<wgt id='1695'> +1.5792196e-12 </wgt>
<wgt id='1696'> +1.5635689e-12 </wgt>
<wgt id='1697'> +1.5988453e-12 </wgt>
<wgt id='1698'> +1.5645667e-12 </wgt>
<wgt id='1699'> +1.5943322e-12 </wgt>
<wgt id='1700'> +1.5033730e-12 </wgt>
<wgt id='1701'> +1.6455298e-12 </wgt>
<wgt id='1702'> +1.5262689e-12 </wgt>
<wgt id='1703'> +1.5359535e-12 </wgt>
<wgt id='1704'> +1.4776014e-12 </wgt>
<wgt id='1705'> +1.5182445e-12 </wgt>
<wgt id='1706'> +1.6277517e-12 </wgt>
<wgt id='1707'> +1.6297744e-12 </wgt>
<wgt id='1708'> +1.6805479e-12 </wgt>
<wgt id='1709'> +1.6284983e-12 </wgt>
<wgt id='1710'> +1.5461409e-12 </wgt>
<wgt id='1711'> +1.5210607e-12 </wgt>
<wgt id='1712'> +1.6432738e-12 </wgt>
<wgt id='1713'> +1.4535640e-12 </wgt>
<wgt id='1714'> +1.4566221e-12 </wgt>
<wgt id='1715'> +1.3695200e-12 </wgt>
<wgt id='1716'> +1.4777955e-12 </wgt>
<wgt id='1717'> +1.4949217e-12 </wgt>
<wgt id='1718'> +1.4802836e-12 </wgt>
<wgt id='1719'> +1.4572311e-12 </wgt>
<wgt id='1720'> +1.3766248e-12 </wgt>
<wgt id='1721'> +1.4135777e-12 </wgt>
<wgt id='1722'> +1.4430730e-12 </wgt>
<wgt id='1723'> +1.5546031e-12 </wgt>
<wgt id='1724'> +1.4250833e-12 </wgt>
<wgt id='1725'> +1.4654499e-12 </wgt>
<wgt id='1726'> +1.4131207e-12 </wgt>
<wgt id='1727'> +1.5433646e-12 </wgt>
<wgt id='1728'> +1.4206394e-12 </wgt>
<wgt id='1729'> +1.3805427e-12 </wgt>
<wgt id='1730'> +1.4154582e-12 </wgt>
<wgt id='1731'> +1.4049998e-12 </wgt>
<wgt id='1732'> +1.4640629e-12 </wgt>
<wgt id='1733'> +1.4022884e-12 </wgt>
<wgt id='1734'> +1.5370559e-12 </wgt>
<wgt id='1735'> +1.4175180e-12 </wgt>
<wgt id='1736'> +1.4581206e-12 </wgt>
<wgt id='1737'> +1.5683499e-12 </wgt>
<wgt id='1738'> +1.4261380e-12 </wgt>
<wgt id='1739'> +1.4899159e-12 </wgt>
<wgt id='1740'> +1.3879458e-12 </wgt>
<wgt id='1741'> +1.5180130e-12 </wgt>
<wgt id='1742'> +1.4459544e-12 </wgt>
<wgt id='1743'> +1.3945590e-12 </wgt>
<wgt id='1744'> +1.4946464e-12 </wgt>
<wgt id='1745'> +1.4845575e-12 </wgt>
<wgt id='1746'> +1.4469712e-12 </wgt>
<wgt id='1747'> +1.5547574e-12 </wgt>
<wgt id='1748'> +1.4858332e-12 </wgt>
<wgt id='1749'> +1.4450380e-12 </wgt>
<wgt id='1750'> +1.3920455e-12 </wgt>
<wgt id='1751'> +1.4515903e-12 </wgt>
<wgt id='1752'> +1.4571254e-12 </wgt>
<wgt id='1753'> +1.4786010e-12 </wgt>
<wgt id='1754'> +1.4702511e-12 </wgt>
<wgt id='1755'> +1.4601817e-12 </wgt>
<wgt id='1756'> +1.4710884e-12 </wgt>
<wgt id='1757'> +1.5054994e-12 </wgt>
<wgt id='1758'> +1.5300448e-12 </wgt>
<wgt id='1759'> +1.5089089e-12 </wgt>
<wgt id='1760'> +1.4257077e-12 </wgt>
<wgt id='1761'> +1.4521657e-12 </wgt>
<wgt id='1762'> +1.4202138e-12 </wgt>
<wgt id='1763'> +1.4841059e-12 </wgt>
<wgt id='1764'> +1.5151710e-12 </wgt>
<wgt id='1765'> +1.4259220e-12 </wgt>
<wgt id='1766'> +1.4915108e-12 </wgt>
<wgt id='1767'> +1.4247069e-12 </wgt>
<wgt id='1768'> +1.4807597e-12 </wgt>
<wgt id='1769'> +1.4607126e-12 </wgt>
<wgt id='1770'> +1.4357897e-12 </wgt>
<wgt id='1771'> +1.5129161e-12 </wgt>
<wgt id='1772'> +1.4218030e-12 </wgt>
<wgt id='1773'> +1.4492620e-12 </wgt>
<wgt id='1774'> +1.4231953e-12 </wgt>
<wgt id='1775'> +1.4396380e-12 </wgt>
<wgt id='1776'> +1.5438892e-12 </wgt>
<wgt id='1777'> +1.4128813e-12 </wgt>
<wgt id='1778'> +1.5005117e-12 </wgt>
<wgt id='1779'> +1.4265692e-12 </wgt>
<wgt id='1780'> +1.4652383e-12 </wgt>
<wgt id='1781'> +1.5029548e-12 </wgt>
<wgt id='1782'> +1.4705412e-12 </wgt>
<wgt id='1783'> +1.4761324e-12 </wgt>
<wgt id='1784'> +1.4028499e-12 </wgt>
<wgt id='1785'> +1.4428020e-12 </wgt>
<wgt id='1786'> +1.4382026e-12 </wgt>
<wgt id='1787'> +1.5783750e-12 </wgt>
<wgt id='1788'> +1.4058719e-12 </wgt>
<wgt id='1789'> +1.5301767e-12 </wgt>
<wgt id='1790'> +1.4690020e-12 </wgt>
<wgt id='1791'> +1.4004253e-12 </wgt>
<wgt id='1792'> +1.4426411e-12 </wgt>
<wgt id='1793'> +1.4183962e-12 </wgt>
<wgt id='1794'> +1.4934092e-12 </wgt>
<wgt id='1795'> +1.4751528e-12 </wgt>
<wgt id='1796'> +1.4259061e-12 </wgt>
<wgt id='1797'> +1.4708507e-12 </wgt>
<wgt id='1798'> +1.4093484e-12 </wgt>
<wgt id='1799'> +1.3991107e-12 </wgt>
<wgt id='1800'> +1.4678880e-12 </wgt>
<wgt id='1801'> +1.4307381e-12 </wgt>
<wgt id='1802'> +1.3873036e-12 </wgt>
<wgt id='1803'> +1.4599273e-12 </wgt>
<wgt id='1804'> +1.5016531e-12 </wgt>
<wgt id='1805'> +1.4180437e-12 </wgt>
<wgt id='1806'> +1.4377914e-12 </wgt>
<wgt id='1807'> +1.4207172e-12 </wgt>
<wgt id='1808'> +1.3999233e-12 </wgt>
<wgt id='1809'> +1.4133452e-12 </wgt>
<wgt id='1810'> +1.4382982e-12 </wgt>
<wgt id='1811'> +1.4449197e-12 </wgt>
<wgt id='1812'> +1.4075666e-12 </wgt>
<wgt id='1813'> +1.3344252e-12 </wgt>
<wgt id='1814'> +2.1429544e-12 </wgt>
<wgt id='1815'> +2.6531467e-12 </wgt>
<wgt id='1816'> +1.4535640e-12 </wgt>
<wgt id='1817'> +1.4566221e-12 </wgt>
<wgt id='1818'> +1.3695200e-12 </wgt>
<wgt id='1819'> +1.4777955e-12 </wgt>
<wgt id='1820'> +1.4949217e-12 </wgt>
<wgt id='1821'> +1.4802836e-12 </wgt>
<wgt id='1822'> +1.4572311e-12 </wgt>
<wgt id='1823'> +1.3766248e-12 </wgt>
<wgt id='1824'> +1.4135777e-12 </wgt>
<wgt id='1825'> +1.4430730e-12 </wgt>
<wgt id='1826'> +1.5546031e-12 </wgt>
<wgt id='1827'> +1.4250833e-12 </wgt>
<wgt id='1828'> +1.4654499e-12 </wgt>
<wgt id='1829'> +1.4131207e-12 </wgt>
<wgt id='1830'> +1.5433646e-12 </wgt>
<wgt id='1831'> +1.4206394e-12 </wgt>
<wgt id='1832'> +1.3805427e-12 </wgt>
<wgt id='1833'> +1.4154582e-12 </wgt>
<wgt id='1834'> +1.4049998e-12 </wgt>
<wgt id='1835'> +1.4640629e-12 </wgt>
<wgt id='1836'> +1.4022884e-12 </wgt>
<wgt id='1837'> +1.5370559e-12 </wgt>
<wgt id='1838'> +1.4175180e-12 </wgt>
<wgt id='1839'> +1.4581206e-12 </wgt>
<wgt id='1840'> +1.5683499e-12 </wgt>
<wgt id='1841'> +1.4261380e-12 </wgt>
<wgt id='1842'> +1.4899159e-12 </wgt>
<wgt id='1843'> +1.3879458e-12 </wgt>
<wgt id='1844'> +1.5180130e-12 </wgt>
<wgt id='1845'> +1.4459544e-12 </wgt>
<wgt id='1846'> +1.3945590e-12 </wgt>
<wgt id='1847'> +1.4946464e-12 </wgt>
<wgt id='1848'> +1.4845575e-12 </wgt>
<wgt id='1849'> +1.4469712e-12 </wgt>
<wgt id='1850'> +1.5547574e-12 </wgt>
<wgt id='1851'> +1.4858332e-12 </wgt>
<wgt id='1852'> +1.4450380e-12 </wgt>
<wgt id='1853'> +1.3920455e-12 </wgt>
<wgt id='1854'> +1.4515903e-12 </wgt>
<wgt id='1855'> +1.4571254e-12 </wgt>
<wgt id='1856'> +1.4786010e-12 </wgt>
<wgt id='1857'> +1.4702511e-12 </wgt>
<wgt id='1858'> +1.4601817e-12 </wgt>
<wgt id='1859'> +1.4710884e-12 </wgt>
<wgt id='1860'> +1.5054994e-12 </wgt>
<wgt id='1861'> +1.5300448e-12 </wgt>
<wgt id='1862'> +1.5089089e-12 </wgt>
<wgt id='1863'> +1.4257077e-12 </wgt>
<wgt id='1864'> +1.4521657e-12 </wgt>
<wgt id='1865'> +1.4202138e-12 </wgt>
<wgt id='1866'> +1.4841059e-12 </wgt>
<wgt id='1867'> +1.5151710e-12 </wgt>
<wgt id='1868'> +1.4259220e-12 </wgt>
<wgt id='1869'> +1.4915108e-12 </wgt>
<wgt id='1870'> +1.4247069e-12 </wgt>
<wgt id='1871'> +1.4807597e-12 </wgt>
<wgt id='1872'> +1.4607126e-12 </wgt>
<wgt id='1873'> +1.4357897e-12 </wgt>
<wgt id='1874'> +1.5129161e-12 </wgt>
<wgt id='1875'> +1.4218030e-12 </wgt>
<wgt id='1876'> +1.4492620e-12 </wgt>
<wgt id='1877'> +1.4231953e-12 </wgt>
<wgt id='1878'> +1.4396380e-12 </wgt>
<wgt id='1879'> +1.5438892e-12 </wgt>
<wgt id='1880'> +1.4128813e-12 </wgt>
<wgt id='1881'> +1.5005117e-12 </wgt>
<wgt id='1882'> +1.4265692e-12 </wgt>
<wgt id='1883'> +1.4652383e-12 </wgt>
<wgt id='1884'> +1.5029548e-12 </wgt>
<wgt id='1885'> +1.4705412e-12 </wgt>
<wgt id='1886'> +1.4761324e-12 </wgt>
<wgt id='1887'> +1.4028499e-12 </wgt>
<wgt id='1888'> +1.4428020e-12 </wgt>
<wgt id='1889'> +1.4382026e-12 </wgt>
<wgt id='1890'> +1.5783750e-12 </wgt>
<wgt id='1891'> +1.4058719e-12 </wgt>
<wgt id='1892'> +1.5301767e-12 </wgt>
<wgt id='1893'> +1.4690020e-12 </wgt>
<wgt id='1894'> +1.4004253e-12 </wgt>
<wgt id='1895'> +1.4426411e-12 </wgt>
<wgt id='1896'> +1.4183962e-12 </wgt>
<wgt id='1897'> +1.4934092e-12 </wgt>
<wgt id='1898'> +1.4751528e-12 </wgt>
<wgt id='1899'> +1.4259061e-12 </wgt>
<wgt id='1900'> +1.4708507e-12 </wgt>
<wgt id='1901'> +1.4093484e-12 </wgt>
<wgt id='1902'> +1.3991107e-12 </wgt>
<wgt id='1903'> +1.4678880e-12 </wgt>
<wgt id='1904'> +1.4307381e-12 </wgt>
<wgt id='1905'> +1.3873036e-12 </wgt>
<wgt id='1906'> +1.4599273e-12 </wgt>
<wgt id='1907'> +1.5016531e-12 </wgt>
<wgt id='1908'> +1.4180437e-12 </wgt>
<wgt id='1909'> +1.4377914e-12 </wgt>
<wgt id='1910'> +1.4207172e-12 </wgt>
<wgt id='1911'> +1.3999233e-12 </wgt>
<wgt id='1912'> +1.4133452e-12 </wgt>
<wgt id='1913'> +1.4382982e-12 </wgt>
<wgt id='1914'> +1.4449197e-12 </wgt>
<wgt id='1915'> +1.4075666e-12 </wgt>
<wgt id='1916'> +1.3344252e-12 </wgt>
<wgt id='1917'> +1.4495151e-12 </wgt>
<wgt id='1918'> +1.4733836e-12 </wgt>
<wgt id='1919'> +1.3659694e-12 </wgt>
</rwgt>
</event>
<event>
 9      1 +1.5538000e-12 6.36320000e+01 7.81860800e-03 1.25524500e-01
        2 -1    0    0  502    0 -0.0000000000e+00 +0.0000000000e+00 +8.8151906682e+02 8.8151906682e+02 0.0000000000e+00 0.0000e+00 -1.0000e+00
       21 -1    0    0  501  502 +0.0000000000e+00 -0.0000000000e+00 -1.1483109066e+00 1.1483109066e+00 0.0000000000e+00 0.0000e+00 -1.0000e+00
     1023  2    1    2    0    0 -6.1641471975e+00 -2.7023691699e+01 +3.0369475173e+02 3.0532563281e+02 1.4998773220e+01 0.0000e+00 0.0000e+00
  1000023  2    3    3    0    0 -2.3422816968e+00 -2.2661580471e+01 +2.4839769863e+02 2.4950091829e+02 5.5007296582e+00 0.0000e+00 0.0000e+00
        2  1    1    2  501    0 +6.1641471975e+00 +2.7023691699e+01 +5.7667600418e+02 5.7734174492e+02 0.0000000000e+00 0.0000e+00 -1.0000e+00
  1000022  1    4    4    0    0 -2.3127057572e+00 -1.9778511607e+01 +2.1544328973e+02 2.1641938273e+02 5.0000000000e+00 0.0000e+00 -1.0000e+00
      -13  1    4    4    0    0 -7.6166841106e-02 -2.2478075993e+00 +2.5472899500e+01 2.5572215818e+01 1.0570000000e-01 0.0000e+00 -1.0000e+00
       13  1    4    4    0    0 +4.6590901558e-02 -6.3526126427e-01 +7.4815093997e+00 7.5093197411e+00 1.0570000000e-01 0.0000e+00 1.0000e+00
  1000022  1    3    3    0    0 -3.8218655007e+00 -4.3621112284e+00 +5.5297053100e+01 5.5824714525e+01 5.0000000000e+00 0.0000e+00 -1.0000e+00
<mgrwt>
<rscale>  1 0.63632003E+02</rscale>
<asrwt>0</asrwt>
<pdfrwt beam="1">  1       21 0.17666392E-03 0.63632003E+02</pdfrwt>
<pdfrwt beam="2">  1        2 0.13561778E+00 0.63632003E+02</pdfrwt>
<totfact> 0.15649367E+07</totfact>
</mgrwt>
<rwgt>
<wgt id='1001'> +1.5538000e-12 </wgt>
<wgt id='1002'> +1.5439332e-12 </wgt>
<wgt id='1003'> +1.5475518e-12 </wgt>
<wgt id='1004'> +1.4647953e-12 </wgt>
<wgt id='1005'> +1.5538000e-12 </wgt>
<wgt id='1006'> +1.3841171e-12 </wgt>
<wgt id='1007'> +1.3718233e-12 </wgt>
<wgt id='1008'> +1.3762891e-12 </wgt>
<wgt id='1009'> +1.2810084e-12 </wgt>
<wgt id='1010'> +1.3841171e-12 </wgt>
<wgt id='1011'> +1.7728922e-12 </wgt>
<wgt id='1012'> +1.7675421e-12 </wgt>
<wgt id='1013'> +1.7695798e-12 </wgt>
<wgt id='1014'> +1.7132138e-12 </wgt>
<wgt id='1015'> +1.7728922e-12 </wgt>
<wgt id='1016'> +1.7829571e-12 </wgt>
<wgt id='1017'> +1.7832026e-12 </wgt>
<wgt id='1018'> +1.7831771e-12 </wgt>
<wgt id='1019'> +1.7695798e-12 </wgt>
<wgt id='1020'> +1.7829571e-12 </wgt>
<wgt id='1021'> +1.5882491e-12 </wgt>
<wgt id='1022'> +1.5844202e-12 </wgt>
<wgt id='1023'> +1.5858385e-12 </wgt>
<wgt id='1024'> +1.5475518e-12 </wgt>
<wgt id='1025'> +1.5882491e-12 </wgt>
<wgt id='1026'> +2.0343614e-12 </wgt>
<wgt id='1027'> +2.0414651e-12 </wgt>
<wgt id='1028'> +2.0390104e-12 </wgt>
<wgt id='1029'> +2.0696874e-12 </wgt>
<wgt id='1030'> +2.0343614e-12 </wgt>
<wgt id='1031'> +1.2947041e-12 </wgt>
<wgt id='1032'> +1.2732298e-12 </wgt>
<wgt id='1033'> +1.2810084e-12 </wgt>
<wgt id='1034'> +1.1247530e-12 </wgt>
<wgt id='1035'> +1.2947041e-12 </wgt>
<wgt id='1036'> +1.1533159e-12 </wgt>
<wgt id='1037'> +1.1312966e-12 </wgt>
<wgt id='1038'> +1.1392433e-12 </wgt>
<wgt id='1039'> +9.8363098e-13 </wgt>
<wgt id='1040'> +1.1533159e-12 </wgt>
<wgt id='1041'> +1.4772627e-12 </wgt>
<wgt id='1042'> +1.4576325e-12 </wgt>
<wgt id='1043'> +1.4647953e-12 </wgt>
<wgt id='1044'> +1.3155028e-12 </wgt>
<wgt id='1045'> +1.4772627e-12 </wgt>
<wgt id='1046'> +1.5538000e-12 </wgt>
<wgt id='1047'> +1.5551013e-12 </wgt>
<wgt id='1048'> +1.6161447e-12 </wgt>
<wgt id='1049'> +1.5184430e-12 </wgt>
<wgt id='1050'> +1.5237504e-12 </wgt>
<wgt id='1051'> +1.5143757e-12 </wgt>
<wgt id='1052'> +1.5214577e-12 </wgt>
<wgt id='1053'> +1.6149648e-12 </wgt>
<wgt id='1054'> +1.5881264e-12 </wgt>
<wgt id='1055'> +1.5317558e-12 </wgt>
<wgt id='1056'> +1.4685841e-12 </wgt>
<wgt id='1057'> +1.5426960e-12 </wgt>
<wgt id='1058'> +1.5191972e-12 </wgt>
<wgt id='1059'> +1.5614115e-12 </wgt>
<wgt id='1060'> +1.5756037e-12 </wgt>
<wgt id='1061'> +1.5807035e-12 </wgt>
<wgt id='1062'> +1.5339784e-12 </wgt>
<wgt id='1063'> +1.4956099e-12 </wgt>
<wgt id='1064'> +1.5545900e-12 </wgt>
<wgt id='1065'> +1.5911730e-12 </wgt>
<wgt id='1066'> +1.5555068e-12 </wgt>
<wgt id='1067'> +1.5806319e-12 </wgt>
<wgt id='1068'> +1.6052352e-12 </wgt>
<wgt id='1069'> +1.6132494e-12 </wgt>
<wgt id='1070'> +1.5421334e-12 </wgt>
<wgt id='1071'> +1.5730764e-12 </wgt>
<wgt id='1072'> +1.5743245e-12 </wgt>
<wgt id='1073'> +1.5181940e-12 </wgt>
<wgt id='1074'> +1.5623634e-12 </wgt>
<wgt id='1075'> +1.5273501e-12 </wgt>
<wgt id='1076'> +1.5595855e-12 </wgt>
<wgt id='1077'> +1.5650168e-12 </wgt>
<wgt id='1078'> +1.5448543e-12 </wgt>
<wgt id='1079'> +1.5645658e-12 </wgt>
<wgt id='1080'> +1.5319684e-12 </wgt>
<wgt id='1081'> +1.5136360e-12 </wgt>
<wgt id='1082'> +1.5669892e-12 </wgt>
<wgt id='1083'> +1.5410552e-12 </wgt>
<wgt id='1084'> +1.5400384e-12 </wgt>
<wgt id='1085'> +1.5792757e-12 </wgt>
<wgt id='1086'> +1.6034777e-12 </wgt>
<wgt id='1087'> +1.5401586e-12 </wgt>
<wgt id='1088'> +1.5521932e-12 </wgt>
<wgt id='1089'> +1.5207413e-12 </wgt>
<wgt id='1090'> +1.5447633e-12 </wgt>
<wgt id='1091'> +1.5769175e-12 </wgt>
<wgt id='1092'> +1.5398779e-12 </wgt>
<wgt id='1093'> +1.5843030e-12 </wgt>
<wgt id='1094'> +1.5875657e-12 </wgt>
<wgt id='1095'> +1.5916765e-12 </wgt>
<wgt id='1096'> +1.5046020e-12 </wgt>
<wgt id='1097'> +1.5617512e-12 </wgt>
<wgt id='1098'> +1.5850366e-12 </wgt>
<wgt id='1099'> +1.5504887e-12 </wgt>
<wgt id='1100'> +1.5813927e-12 </wgt>
<wgt id='1101'> +1.5662891e-12 </wgt>
<wgt id='1102'> +1.5245880e-12 </wgt>
<wgt id='1103'> +1.5352366e-12 </wgt>
<wgt id='1104'> +1.5693542e-12 </wgt>
<wgt id='1105'> +1.5142262e-12 </wgt>
<wgt id='1106'> +1.5544480e-12 </wgt>
<wgt id='1107'> +1.5885110e-12 </wgt>
<wgt id='1108'> +1.5423129e-12 </wgt>
<wgt id='1109'> +1.5388999e-12 </wgt>
<wgt id='1110'> +1.5618427e-12 </wgt>
<wgt id='1111'> +1.5606955e-12 </wgt>
<wgt id='1112'> +1.5785629e-12 </wgt>
<wgt id='1113'> +1.6147839e-12 </wgt>
<wgt id='1114'> +1.5774806e-12 </wgt>
<wgt id='1115'> +1.5846212e-12 </wgt>
<wgt id='1116'> +1.6094026e-12 </wgt>
<wgt id='1117'> +1.5481072e-12 </wgt>
<wgt id='1118'> +1.5620016e-12 </wgt>
<wgt id='1119'> +1.5201718e-12 </wgt>
<wgt id='1120'> +1.5503294e-12 </wgt>
<wgt id='1121'> +1.5227111e-12 </wgt>
<wgt id='1122'> +1.5355187e-12 </wgt>
<wgt id='1123'> +1.5699779e-12 </wgt>
<wgt id='1124'> +1.5975131e-12 </wgt>
<wgt id='1125'> +1.5064093e-12 </wgt>
<wgt id='1126'> +1.5207794e-12 </wgt>
<wgt id='1127'> +1.5563944e-12 </wgt>
<wgt id='1128'> +1.5339784e-12 </wgt>
<wgt id='1129'> +1.5223746e-12 </wgt>
<wgt id='1130'> +1.5453428e-12 </wgt>
<wgt id='1131'> +1.5806046e-12 </wgt>
<wgt id='1132'> +1.5615903e-12 </wgt>
<wgt id='1133'> +1.5497433e-12 </wgt>
<wgt id='1134'> +1.5155690e-12 </wgt>
<wgt id='1135'> +1.4931046e-12 </wgt>
<wgt id='1136'> +1.5236994e-12 </wgt>
<wgt id='1137'> +1.5575188e-12 </wgt>
<wgt id='1138'> +1.5421520e-12 </wgt>
<wgt id='1139'> +1.5508133e-12 </wgt>
<wgt id='1140'> +1.5631242e-12 </wgt>
<wgt id='1141'> +1.5442683e-12 </wgt>
<wgt id='1142'> +1.5902829e-12 </wgt>
<wgt id='1143'> +1.5019004e-12 </wgt>
<wgt id='1144'> +1.5547483e-12 </wgt>
<wgt id='1145'> +1.5823697e-12 </wgt>
<wgt id='1146'> +1.5621364e-12 </wgt>
<wgt id='1147'> +1.4163498e-12 </wgt>
<wgt id='1148'> +1.4407054e-12 </wgt>
<wgt id='1149'> +1.3707344e-12 </wgt>
<wgt id='1150'> +1.4271801e-12 </wgt>
<wgt id='1151'> +1.6497944e-12 </wgt>
<wgt id='1152'> +2.2754239e-12 </wgt>
<wgt id='1153'> +2.2807196e-12 </wgt>
<wgt id='1154'> +2.2722724e-12 </wgt>
<wgt id='1155'> +2.2701348e-12 </wgt>
<wgt id='1156'> +2.2781215e-12 </wgt>
<wgt id='1157'> +2.2796738e-12 </wgt>
<wgt id='1158'> +2.2696602e-12 </wgt>
<wgt id='1159'> +2.2788264e-12 </wgt>
<wgt id='1160'> +2.2732064e-12 </wgt>
<wgt id='1161'> +2.2705650e-12 </wgt>
<wgt id='1162'> +2.2787563e-12 </wgt>
<wgt id='1163'> +2.2745084e-12 </wgt>
<wgt id='1164'> +2.2763656e-12 </wgt>
<wgt id='1165'> +2.2804811e-12 </wgt>
<wgt id='1166'> +2.2703263e-12 </wgt>
<wgt id='1167'> +2.3042152e-12 </wgt>
<wgt id='1168'> +2.2406700e-12 </wgt>
<wgt id='1169'> +2.2845949e-12 </wgt>
<wgt id='1170'> +2.2685585e-12 </wgt>
<wgt id='1171'> +2.2686337e-12 </wgt>
<wgt id='1172'> +2.2841296e-12 </wgt>
<wgt id='1173'> +2.2488070e-12 </wgt>
<wgt id='1174'> +2.3033593e-12 </wgt>
<wgt id='1175'> +2.2771297e-12 </wgt>
<wgt id='1176'> +2.2737203e-12 </wgt>
<wgt id='1177'> +2.2713520e-12 </wgt>
<wgt id='1178'> +2.2852307e-12 </wgt>
<wgt id='1179'> +2.2724280e-12 </wgt>
<wgt id='1180'> +2.2731529e-12 </wgt>
<wgt id='1181'> +2.2782977e-12 </wgt>
<wgt id='1182'> +2.2710874e-12 </wgt>
<wgt id='1183'> +2.2750396e-12 </wgt>
<wgt id='1184'> +2.2753684e-12 </wgt>
<wgt id='1185'> +2.2698693e-12 </wgt>
<wgt id='1186'> +2.2777232e-12 </wgt>
<wgt id='1187'> +2.2793690e-12 </wgt>
<wgt id='1188'> +2.2740276e-12 </wgt>
<wgt id='1189'> +2.2689284e-12 </wgt>
<wgt id='1190'> +2.2537143e-12 </wgt>
<wgt id='1191'> +2.2779323e-12 </wgt>
<wgt id='1192'> +2.2831754e-12 </wgt>
<wgt id='1193'> +1.4202638e-12 </wgt>
<wgt id='1194'> +1.4047827e-12 </wgt>
<wgt id='1195'> +1.4329748e-12 </wgt>
<wgt id='1196'> +1.4176180e-12 </wgt>
<wgt id='1197'> +1.4232168e-12 </wgt>
<wgt id='1198'> +1.4190639e-12 </wgt>
<wgt id='1199'> +1.4220938e-12 </wgt>
<wgt id='1200'> +1.4170220e-12 </wgt>
<wgt id='1201'> +1.4224765e-12 </wgt>
<wgt id='1202'> +1.4195727e-12 </wgt>
<wgt id='1203'> +1.4212272e-12 </wgt>
<wgt id='1204'> +1.4158089e-12 </wgt>
<wgt id='1205'> +1.4228111e-12 </wgt>
<wgt id='1206'> +1.4235062e-12 </wgt>
<wgt id='1207'> +1.4157911e-12 </wgt>
<wgt id='1208'> +1.4294797e-12 </wgt>
<wgt id='1209'> +1.4170058e-12 </wgt>
<wgt id='1210'> +1.4232317e-12 </wgt>
<wgt id='1211'> +1.4152556e-12 </wgt>
<wgt id='1212'> +1.4197579e-12 </wgt>
<wgt id='1213'> +1.4212435e-12 </wgt>
<wgt id='1214'> +1.4063107e-12 </wgt>
<wgt id='1215'> +1.4394146e-12 </wgt>
<wgt id='1216'> +1.4301788e-12 </wgt>
<wgt id='1217'> +1.4136583e-12 </wgt>
<wgt id='1218'> +1.4234362e-12 </wgt>
<wgt id='1219'> +1.4184249e-12 </wgt>
<wgt id='1220'> +1.4282604e-12 </wgt>
<wgt id='1221'> +1.4186115e-12 </wgt>
<wgt id='1222'> +1.4409595e-12 </wgt>
<wgt id='1223'> +1.3915228e-12 </wgt>
<wgt id='1224'> +1.4235551e-12 </wgt>
<wgt id='1225'> +1.4189862e-12 </wgt>
<wgt id='1226'> +1.4184869e-12 </wgt>
<wgt id='1227'> +1.4216763e-12 </wgt>
<wgt id='1228'> +1.4161484e-12 </wgt>
<wgt id='1229'> +1.4220929e-12 </wgt>
<wgt id='1230'> +1.4214750e-12 </wgt>
<wgt id='1231'> +1.4297447e-12 </wgt>
<wgt id='1232'> +1.4233399e-12 </wgt>
<wgt id='1233'> +1.4194811e-12 </wgt>
<wgt id='1234'> +1.4202638e-12 </wgt>
<wgt id='1235'> +1.4135999e-12 </wgt>
<wgt id='1236'> +1.4162090e-12 </wgt>
<wgt id='1237'> +1.4184916e-12 </wgt>
<wgt id='1238'> +1.4222034e-12 </wgt>
<wgt id='1239'> +1.4236739e-12 </wgt>
<wgt id='1240'> +1.4251831e-12 </wgt>
<wgt id='1241'> +1.3565889e-12 </wgt>
<wgt id='1242'> +1.3414779e-12 </wgt>
<wgt id='1243'> +1.3715144e-12 </wgt>
<wgt id='1244'> +1.3635422e-12 </wgt>
<wgt id='1245'> +1.3514325e-12 </wgt>
<wgt id='1246'> +1.3525190e-12 </wgt>
<wgt id='1247'> +1.3600465e-12 </wgt>
<wgt id='1248'> +1.3566127e-12 </wgt>
<wgt id='1249'> +1.3565645e-12 </wgt>
<wgt id='1250'> +1.3575919e-12 </wgt>
<wgt id='1251'> +1.3559076e-12 </wgt>
<wgt id='1252'> +1.3536134e-12 </wgt>
<wgt id='1253'> +1.3589004e-12 </wgt>
<wgt id='1254'> +1.3525557e-12 </wgt>
<wgt id='1255'> +1.3589101e-12 </wgt>
<wgt id='1256'> +1.3531879e-12 </wgt>
<wgt id='1257'> +1.3652074e-12 </wgt>
<wgt id='1258'> +1.3684590e-12 </wgt>
<wgt id='1259'> +1.3439257e-12 </wgt>
<wgt id='1260'> +1.3593111e-12 </wgt>
<wgt id='1261'> +1.3537928e-12 </wgt>
<wgt id='1262'> +1.3603401e-12 </wgt>
<wgt id='1263'> +1.3551997e-12 </wgt>
<wgt id='1264'> +1.3607758e-12 </wgt>
<wgt id='1265'> +1.3548584e-12 </wgt>
<wgt id='1266'> +1.3355903e-12 </wgt>
<wgt id='1267'> +1.3765582e-12 </wgt>
<wgt id='1268'> +1.3641412e-12 </wgt>
<wgt id='1269'> +1.3503167e-12 </wgt>
<wgt id='1270'> +1.3645004e-12 </wgt>
<wgt id='1271'> +1.3586363e-12 </wgt>
<wgt id='1272'> +1.3602825e-12 </wgt>
<wgt id='1273'> +1.3563039e-12 </wgt>
<wgt id='1274'> +1.3580046e-12 </wgt>
<wgt id='1275'> +1.3545669e-12 </wgt>
<wgt id='1276'> +1.3605008e-12 </wgt>
<wgt id='1277'> +1.3522848e-12 </wgt>
<wgt id='1278'> +1.3692862e-12 </wgt>
<wgt id='1279'> +1.3611953e-12 </wgt>
<wgt id='1280'> +1.3566474e-12 </wgt>
<wgt id='1281'> +1.3618011e-12 </wgt>
<wgt id='1282'> +1.3565889e-12 </wgt>
<wgt id='1283'> +1.3501784e-12 </wgt>
<wgt id='1284'> +1.3528554e-12 </wgt>
<wgt id='1285'> +1.3548931e-12 </wgt>
<wgt id='1286'> +1.3583425e-12 </wgt>
<wgt id='1287'> +1.3595009e-12 </wgt>
<wgt id='1288'> +1.3604429e-12 </wgt>
<wgt id='1289'> +1.4681576e-12 </wgt>
<wgt id='1290'> +1.4721433e-12 </wgt>
<wgt id='1291'> +1.4638351e-12 </wgt>
<wgt id='1292'> +1.4691799e-12 </wgt>
<wgt id='1293'> +1.4674113e-12 </wgt>
<wgt id='1294'> +1.4539035e-12 </wgt>
<wgt id='1295'> +1.4818377e-12 </wgt>
<wgt id='1296'> +1.4755306e-12 </wgt>
<wgt id='1297'> +1.4589258e-12 </wgt>
<wgt id='1298'> +1.4745532e-12 </wgt>
<wgt id='1299'> +1.4600256e-12 </wgt>
<wgt id='1300'> +1.4710557e-12 </wgt>
<wgt id='1301'> +1.4623095e-12 </wgt>
<wgt id='1302'> +1.4639185e-12 </wgt>
<wgt id='1303'> +1.4740107e-12 </wgt>
<wgt id='1304'> +1.4663969e-12 </wgt>
<wgt id='1305'> +1.4693218e-12 </wgt>
<wgt id='1306'> +1.4718720e-12 </wgt>
<wgt id='1307'> +1.4638003e-12 </wgt>
<wgt id='1308'> +1.4621040e-12 </wgt>
<wgt id='1309'> +1.4727749e-12 </wgt>
<wgt id='1310'> +1.4703461e-12 </wgt>
<wgt id='1311'> +1.4660461e-12 </wgt>
<wgt id='1312'> +1.4766079e-12 </wgt>
<wgt id='1313'> +1.4602451e-12 </wgt>
<wgt id='1314'> +1.4507520e-12 </wgt>
<wgt id='1315'> +1.4840255e-12 </wgt>
<wgt id='1316'> +1.4749361e-12 </wgt>
<wgt id='1317'> +1.4698157e-12 </wgt>
<wgt id='1318'> +1.4781995e-12 </wgt>
<wgt id='1319'> +1.4551573e-12 </wgt>
<wgt id='1320'> +1.4862444e-12 </wgt>
<wgt id='1321'> +1.4518104e-12 </wgt>
<wgt id='1322'> +1.4683409e-12 </wgt>
<wgt id='1323'> +1.4680825e-12 </wgt>
<wgt id='1324'> +1.4657612e-12 </wgt>
<wgt id='1325'> +1.4718704e-12 </wgt>
<wgt id='1326'> +1.4671354e-12 </wgt>
<wgt id='1327'> +1.4717489e-12 </wgt>
<wgt id='1328'> +1.4673982e-12 </wgt>
<wgt id='1329'> +1.4682246e-12 </wgt>
<wgt id='1330'> +1.4740030e-12 </wgt>
<wgt id='1331'> +1.4621998e-12 </wgt>
<wgt id='1332'> +1.4790957e-12 </wgt>
<wgt id='1333'> +1.4729317e-12 </wgt>
<wgt id='1334'> +1.4662510e-12 </wgt>
<wgt id='1335'> +1.4734664e-12 </wgt>
<wgt id='1336'> +1.4706256e-12 </wgt>
<wgt id='1337'> +1.4759859e-12 </wgt>
<wgt id='1338'> +1.4690254e-12 </wgt>
<wgt id='1339'> +1.4704343e-12 </wgt>
<wgt id='1340'> +1.4358946e-12 </wgt>
<wgt id='1341'> +1.4397391e-12 </wgt>
<wgt id='1342'> +1.4317806e-12 </wgt>
<wgt id='1343'> +1.4370630e-12 </wgt>
<wgt id='1344'> +1.4351137e-12 </wgt>
<wgt id='1345'> +1.4210576e-12 </wgt>
<wgt id='1346'> +1.4496010e-12 </wgt>
<wgt id='1347'> +1.4439392e-12 </wgt>
<wgt id='1348'> +1.4268460e-12 </wgt>
<wgt id='1349'> +1.4419240e-12 </wgt>
<wgt id='1350'> +1.4299308e-12 </wgt>
<wgt id='1351'> +1.4385979e-12 </wgt>
<wgt id='1352'> +1.4299876e-12 </wgt>
<wgt id='1353'> +1.4306962e-12 </wgt>
<wgt id='1354'> +1.4451667e-12 </wgt>
<wgt id='1355'> +1.4351170e-12 </wgt>
<wgt id='1356'> +1.4363111e-12 </wgt>
<wgt id='1357'> +1.4386094e-12 </wgt>
<wgt id='1358'> +1.4324632e-12 </wgt>
<wgt id='1359'> +1.4292896e-12 </wgt>
<wgt id='1360'> +1.4416209e-12 </wgt>
<wgt id='1361'> +1.4385027e-12 </wgt>
<wgt id='1362'> +1.4327087e-12 </wgt>
<wgt id='1363'> +1.4502680e-12 </wgt>
<wgt id='1364'> +1.4270361e-12 </wgt>
<wgt id='1365'> +1.4432249e-12 </wgt>
<wgt id='1366'> +1.4217879e-12 </wgt>
<wgt id='1367'> +1.4428120e-12 </wgt>
<wgt id='1368'> +1.4361981e-12 </wgt>
<wgt id='1369'> +1.4438773e-12 </wgt>
<wgt id='1370'> +1.4258439e-12 </wgt>
<wgt id='1371'> +1.4506728e-12 </wgt>
<wgt id='1372'> +1.4173472e-12 </wgt>
<wgt id='1373'> +1.4328489e-12 </wgt>
<wgt id='1374'> +1.4386867e-12 </wgt>
<wgt id='1375'> +1.4334934e-12 </wgt>
<wgt id='1376'> +1.4399832e-12 </wgt>
<wgt id='1377'> +1.4351749e-12 </wgt>
<wgt id='1378'> +1.4394724e-12 </wgt>
<wgt id='1379'> +1.4353655e-12 </wgt>
<wgt id='1380'> +1.4357637e-12 </wgt>
<wgt id='1381'> +1.4420055e-12 </wgt>
<wgt id='1382'> +1.4302324e-12 </wgt>
<wgt id='1383'> +1.4447210e-12 </wgt>
<wgt id='1384'> +1.4414110e-12 </wgt>
<wgt id='1385'> +1.4342634e-12 </wgt>
<wgt id='1386'> +1.4400678e-12 </wgt>
<wgt id='1387'> +1.4387444e-12 </wgt>
<wgt id='1388'> +1.4441178e-12 </wgt>
<wgt id='1389'> +1.4367852e-12 </wgt>
<wgt id='1390'> +1.4392492e-12 </wgt>
<wgt id='1391'> +1.4077614e-12 </wgt>
<wgt id='1392'> +1.3622771e-12 </wgt>
<wgt id='1393'> +1.3780471e-12 </wgt>
<wgt id='1394'> +1.3932383e-12 </wgt>
<wgt id='1395'> +1.4234277e-12 </wgt>
<wgt id='1396'> +1.4083124e-12 </wgt>
<wgt id='1397'> +1.3911502e-12 </wgt>
<wgt id='1398'> +1.3933742e-12 </wgt>
<wgt id='1399'> +1.3960381e-12 </wgt>
<wgt id='1400'> +1.3995513e-12 </wgt>
<wgt id='1401'> +1.4038492e-12 </wgt>
<wgt id='1402'> +1.4127747e-12 </wgt>
<wgt id='1403'> +1.4177723e-12 </wgt>
<wgt id='1404'> +1.4229287e-12 </wgt>
<wgt id='1405'> +1.4083124e-12 </wgt>
<wgt id='1406'> +1.4043837e-12 </wgt>
<wgt id='1407'> +1.4063817e-12 </wgt>
<wgt id='1408'> +1.4100384e-12 </wgt>
<wgt id='1409'> +1.4113140e-12 </wgt>
<wgt id='1410'> +1.3272512e-12 </wgt>
<wgt id='1411'> +1.3339140e-12 </wgt>
<wgt id='1412'> +1.3186658e-12 </wgt>
<wgt id='1413'> +1.3198372e-12 </wgt>
<wgt id='1414'> +1.3345903e-12 </wgt>
<wgt id='1415'> +1.3247865e-12 </wgt>
<wgt id='1416'> +1.3282333e-12 </wgt>
<wgt id='1417'> +1.3266292e-12 </wgt>
<wgt id='1418'> +1.3277788e-12 </wgt>
<wgt id='1419'> +1.3286278e-12 </wgt>
<wgt id='1420'> +1.3258694e-12 </wgt>
<wgt id='1421'> +1.3153121e-12 </wgt>
<wgt id='1422'> +1.3322601e-12 </wgt>
<wgt id='1423'> +1.3260674e-12 </wgt>
<wgt id='1424'> +1.3286677e-12 </wgt>
<wgt id='1425'> +1.3192527e-12 </wgt>
<wgt id='1426'> +1.3358466e-12 </wgt>
<wgt id='1427'> +1.3156655e-12 </wgt>
<wgt id='1428'> +1.3332660e-12 </wgt>
<wgt id='1429'> +1.3308777e-12 </wgt>
<wgt id='1430'> +1.3223965e-12 </wgt>
<wgt id='1431'> +1.3278123e-12 </wgt>
<wgt id='1432'> +1.3267964e-12 </wgt>
<wgt id='1433'> +1.3107845e-12 </wgt>
<wgt id='1434'> +1.3407250e-12 </wgt>
<wgt id='1435'> +1.3203031e-12 </wgt>
<wgt id='1436'> +1.3451068e-12 </wgt>
<wgt id='1437'> +1.3329285e-12 </wgt>
<wgt id='1438'> +1.3311367e-12 </wgt>
<wgt id='1439'> +1.3207747e-12 </wgt>
<wgt id='1440'> +1.3384296e-12 </wgt>
<wgt id='1441'> +1.3325997e-12 </wgt>
<wgt id='1442'> +1.3150585e-12 </wgt>
<wgt id='1443'> +1.3234503e-12 </wgt>
<wgt id='1444'> +1.3355660e-12 </wgt>
<wgt id='1445'> +1.3362372e-12 </wgt>
<wgt id='1446'> +1.3235554e-12 </wgt>
<wgt id='1447'> +1.3288113e-12 </wgt>
<wgt id='1448'> +1.3295923e-12 </wgt>
<wgt id='1449'> +1.3270856e-12 </wgt>
<wgt id='1450'> +1.3264814e-12 </wgt>
<wgt id='1451'> +1.3262979e-12 </wgt>
<wgt id='1452'> +1.3315960e-12 </wgt>
<wgt id='1453'> +1.3277640e-12 </wgt>
<wgt id='1454'> +1.3293933e-12 </wgt>
<wgt id='1455'> +1.3371887e-12 </wgt>
<wgt id='1456'> +1.3342380e-12 </wgt>
<wgt id='1457'> +1.3340390e-12 </wgt>
<wgt id='1458'> +1.3259700e-12 </wgt>
<wgt id='1459'> +1.3327745e-12 </wgt>
<wgt id='1460'> +1.3373879e-12 </wgt>
<wgt id='1461'> +1.3272512e-12 </wgt>
<wgt id='1462'> +1.3158722e-12 </wgt>
<wgt id='1463'> +1.3349588e-12 </wgt>
<wgt id='1464'> +1.3252836e-12 </wgt>
<wgt id='1465'> +1.3048091e-12 </wgt>
<wgt id='1466'> +1.3077810e-12 </wgt>
<wgt id='1467'> +1.3114901e-12 </wgt>
<wgt id='1468'> +1.3176474e-12 </wgt>
<wgt id='1469'> +1.3207689e-12 </wgt>
<wgt id='1470'> +1.3302063e-12 </wgt>
<wgt id='1471'> +1.3347274e-12 </wgt>
<wgt id='1472'> +1.3394763e-12 </wgt>
<wgt id='1473'> +1.3252836e-12 </wgt>
<wgt id='1474'> +1.3219412e-12 </wgt>
<wgt id='1475'> +1.3242588e-12 </wgt>
<wgt id='1476'> +1.3264698e-12 </wgt>
<wgt id='1477'> +1.3274926e-12 </wgt>
<wgt id='1478'> +1.3840142e-12 </wgt>
<wgt id='1479'> +1.3848118e-12 </wgt>
<wgt id='1480'> +1.3710486e-12 </wgt>
<wgt id='1481'> +1.4048361e-12 </wgt>
<wgt id='1482'> +1.3864262e-12 </wgt>
<wgt id='1483'> +1.3690967e-12 </wgt>
<wgt id='1484'> +1.3728886e-12 </wgt>
<wgt id='1485'> +1.3946391e-12 </wgt>
<wgt id='1486'> +1.3835416e-12 </wgt>
<wgt id='1487'> +1.3953598e-12 </wgt>
<wgt id='1488'> +1.3814429e-12 </wgt>
<wgt id='1489'> +1.3857964e-12 </wgt>
<wgt id='1490'> +1.3808298e-12 </wgt>
<wgt id='1491'> +1.3898587e-12 </wgt>
<wgt id='1492'> +1.3843241e-12 </wgt>
<wgt id='1493'> +1.3657552e-12 </wgt>
<wgt id='1494'> +1.3807081e-12 </wgt>
<wgt id='1495'> +1.3750643e-12 </wgt>
<wgt id='1496'> +1.3850301e-12 </wgt>
<wgt id='1497'> +1.3840719e-12 </wgt>
<wgt id='1498'> +1.3842941e-12 </wgt>
<wgt id='1499'> +1.3870511e-12 </wgt>
<wgt id='1500'> +1.3861865e-12 </wgt>
<wgt id='1501'> +1.3851172e-12 </wgt>
<wgt id='1502'> +1.3826254e-12 </wgt>
<wgt id='1503'> +1.3888407e-12 </wgt>
<wgt id='1504'> +1.3786092e-12 </wgt>
<wgt id='1505'> +1.3886071e-12 </wgt>
<wgt id='1506'> +1.3858205e-12 </wgt>
<wgt id='1507'> +1.3843329e-12 </wgt>
<wgt id='1508'> +1.3867723e-12 </wgt>
<wgt id='1509'> +1.3492424e-12 </wgt>
<wgt id='1510'> +1.3533197e-12 </wgt>
<wgt id='1511'> +1.3333958e-12 </wgt>
<wgt id='1512'> +1.3388966e-12 </wgt>
<wgt id='1513'> +1.3471895e-12 </wgt>
<wgt id='1514'> +1.3537457e-12 </wgt>
<wgt id='1515'> +1.3532832e-12 </wgt>
<wgt id='1516'> +1.3520431e-12 </wgt>
<wgt id='1517'> +1.3507239e-12 </wgt>
<wgt id='1518'> +1.3481217e-12 </wgt>
<wgt id='1519'> +1.3507958e-12 </wgt>
<wgt id='1520'> +1.3508526e-12 </wgt>
<wgt id='1521'> +1.3489774e-12 </wgt>
<wgt id='1522'> +1.3520120e-12 </wgt>
<wgt id='1523'> +1.3519924e-12 </wgt>
<wgt id='1524'> +1.3475744e-12 </wgt>
<wgt id='1525'> +1.3488714e-12 </wgt>
<wgt id='1526'> +1.3504215e-12 </wgt>
<wgt id='1527'> +1.3492035e-12 </wgt>
<wgt id='1528'> +1.3501722e-12 </wgt>
<wgt id='1529'> +1.3505835e-12 </wgt>
<wgt id='1530'> +1.3498249e-12 </wgt>
<wgt id='1531'> +1.3515169e-12 </wgt>
<wgt id='1532'> +1.3457427e-12 </wgt>
<wgt id='1533'> +1.3495361e-12 </wgt>
<wgt id='1534'> +1.3496162e-12 </wgt>
<wgt id='1535'> +1.3452228e-12 </wgt>
<wgt id='1536'> +1.3532028e-12 </wgt>
<wgt id='1537'> +1.3522228e-12 </wgt>
<wgt id='1538'> +1.3357891e-12 </wgt>
<wgt id='1539'> +1.3469482e-12 </wgt>
<wgt id='1540'> +1.3482632e-12 </wgt>
<wgt id='1541'> +1.3464672e-12 </wgt>
<wgt id='1542'> +1.3473778e-12 </wgt>
<wgt id='1543'> +1.3499282e-12 </wgt>
<wgt id='1544'> +1.3472961e-12 </wgt>
<wgt id='1545'> +1.3478968e-12 </wgt>
<wgt id='1546'> +1.3501741e-12 </wgt>
<wgt id='1547'> +1.3480422e-12 </wgt>
<wgt id='1548'> +1.3499952e-12 </wgt>
<wgt id='1549'> +1.3481629e-12 </wgt>
<wgt id='1550'> +1.3493475e-12 </wgt>
<wgt id='1551'> +1.3488790e-12 </wgt>
<wgt id='1552'> +1.3510110e-12 </wgt>
<wgt id='1553'> +1.3493922e-12 </wgt>
<wgt id='1554'> +1.3484152e-12 </wgt>
<wgt id='1555'> +1.3510668e-12 </wgt>
<wgt id='1556'> +1.3523041e-12 </wgt>
<wgt id='1557'> +1.3489759e-12 </wgt>
<wgt id='1558'> +1.3493164e-12 </wgt>
<wgt id='1559'> +1.3479757e-12 </wgt>
<wgt id='1560'> +1.3495835e-12 </wgt>
<wgt id='1561'> +1.3495541e-12 </wgt>
<wgt id='1562'> +1.3492276e-12 </wgt>
<wgt id='1563'> +1.3495834e-12 </wgt>
<wgt id='1564'> +1.3479879e-12 </wgt>
<wgt id='1565'> +1.3491197e-12 </wgt>
<wgt id='1566'> +1.3491949e-12 </wgt>
<wgt id='1567'> +1.3480132e-12 </wgt>
<wgt id='1568'> +1.3492838e-12 </wgt>
<wgt id='1569'> +1.3521500e-12 </wgt>
<wgt id='1570'> +1.3498798e-12 </wgt>
<wgt id='1571'> +1.3497764e-12 </wgt>
<wgt id='1572'> +1.3491392e-12 </wgt>
<wgt id='1573'> +1.3486320e-12 </wgt>
<wgt id='1574'> +1.3498672e-12 </wgt>
<wgt id='1575'> +1.3491929e-12 </wgt>
<wgt id='1576'> +1.3500165e-12 </wgt>
<wgt id='1577'> +1.3511732e-12 </wgt>
<wgt id='1578'> +1.3494997e-12 </wgt>
<wgt id='1579'> +1.3484990e-12 </wgt>
<wgt id='1580'> +1.3491149e-12 </wgt>
<wgt id='1581'> +1.3494458e-12 </wgt>
<wgt id='1582'> +1.3497190e-12 </wgt>
<wgt id='1583'> +1.3484464e-12 </wgt>
<wgt id='1584'> +1.3482520e-12 </wgt>
<wgt id='1585'> +1.3490062e-12 </wgt>
<wgt id='1586'> +1.3493042e-12 </wgt>
<wgt id='1587'> +1.3500233e-12 </wgt>
<wgt id='1588'> +1.3479709e-12 </wgt>
<wgt id='1589'> +1.3504567e-12 </wgt>
<wgt id='1590'> +1.3498050e-12 </wgt>
<wgt id='1591'> +1.3495835e-12 </wgt>
<wgt id='1592'> +1.3497708e-12 </wgt>
<wgt id='1593'> +1.3498555e-12 </wgt>
<wgt id='1594'> +1.3490858e-12 </wgt>
<wgt id='1595'> +1.3483611e-12 </wgt>
<wgt id='1596'> +1.3486531e-12 </wgt>
<wgt id='1597'> +1.3483555e-12 </wgt>
<wgt id='1598'> +1.3497369e-12 </wgt>
<wgt id='1599'> +1.3499057e-12 </wgt>
<wgt id='1600'> +1.3482842e-12 </wgt>
<wgt id='1601'> +1.3496008e-12 </wgt>
<wgt id='1602'> +1.3487103e-12 </wgt>
<wgt id='1603'> +1.3499509e-12 </wgt>
<wgt id='1604'> +1.3492513e-12 </wgt>
<wgt id='1605'> +1.3498436e-12 </wgt>
<wgt id='1606'> +1.3494725e-12 </wgt>
<wgt id='1607'> +1.3495374e-12 </wgt>
<wgt id='1608'> +1.3495724e-12 </wgt>
<wgt id='1609'> +1.3493911e-12 </wgt>
<wgt id='1610'> +1.3320730e-12 </wgt>
<wgt id='1611'> +1.3645641e-12 </wgt>
<wgt id='1612'> +1.5369290e-12 </wgt>
<wgt id='1613'> +1.5060489e-12 </wgt>
<wgt id='1614'> +1.4678889e-12 </wgt>
<wgt id='1615'> +1.5148122e-12 </wgt>
<wgt id='1616'> +1.4748116e-12 </wgt>
<wgt id='1617'> +1.5121589e-12 </wgt>
<wgt id='1618'> +1.5256316e-12 </wgt>
<wgt id='1619'> +1.5036336e-12 </wgt>
<wgt id='1620'> +1.5162689e-12 </wgt>
<wgt id='1621'> +1.5396889e-12 </wgt>
<wgt id='1622'> +1.5485227e-12 </wgt>
<wgt id='1623'> +1.5558962e-12 </wgt>
<wgt id='1624'> +1.5720289e-12 </wgt>
<wgt id='1625'> +1.4898915e-12 </wgt>
<wgt id='1626'> +1.5308815e-12 </wgt>
<wgt id='1627'> +1.5550160e-12 </wgt>
<wgt id='1628'> +1.4421988e-12 </wgt>
<wgt id='1629'> +1.5707565e-12 </wgt>
<wgt id='1630'> +1.4993790e-12 </wgt>
<wgt id='1631'> +1.5048645e-12 </wgt>
<wgt id='1632'> +1.4717551e-12 </wgt>
<wgt id='1633'> +1.4774018e-12 </wgt>
<wgt id='1634'> +1.5349006e-12 </wgt>
<wgt id='1635'> +1.5519396e-12 </wgt>
<wgt id='1636'> +1.5331935e-12 </wgt>
<wgt id='1637'> +1.5683466e-12 </wgt>
<wgt id='1638'> +1.5398132e-12 </wgt>
<wgt id='1639'> +1.5305522e-12 </wgt>
<wgt id='1640'> +1.5275657e-12 </wgt>
<wgt id='1641'> +1.5427497e-12 </wgt>
<wgt id='1642'> +1.4790077e-12 </wgt>
<wgt id='1643'> +1.5133935e-12 </wgt>
<wgt id='1644'> +1.5676156e-12 </wgt>
<wgt id='1645'> +1.4998299e-12 </wgt>
<wgt id='1646'> +1.5586311e-12 </wgt>
<wgt id='1647'> +1.5789026e-12 </wgt>
<wgt id='1648'> +1.5338939e-12 </wgt>
<wgt id='1649'> +1.5927116e-12 </wgt>
<wgt id='1650'> +1.5080785e-12 </wgt>
<wgt id='1651'> +1.5609802e-12 </wgt>
<wgt id='1652'> +1.5285074e-12 </wgt>
<wgt id='1653'> +1.5280708e-12 </wgt>
<wgt id='1654'> +1.5403331e-12 </wgt>
<wgt id='1655'> +1.5702230e-12 </wgt>
<wgt id='1656'> +1.5341596e-12 </wgt>
<wgt id='1657'> +1.5417943e-12 </wgt>
<wgt id='1658'> +1.5251095e-12 </wgt>
<wgt id='1659'> +1.5720289e-12 </wgt>
<wgt id='1660'> +1.5479404e-12 </wgt>
<wgt id='1661'> +1.5805416e-12 </wgt>
<wgt id='1662'> +1.5991757e-12 </wgt>
<wgt id='1663'> +1.5407729e-12 </wgt>
<wgt id='1664'> +1.5234535e-12 </wgt>
<wgt id='1665'> +1.5193657e-12 </wgt>
<wgt id='1666'> +1.5602090e-12 </wgt>
<wgt id='1667'> +1.5567260e-12 </wgt>
<wgt id='1668'> +1.5573133e-12 </wgt>
<wgt id='1669'> +1.5485289e-12 </wgt>
<wgt id='1670'> +1.5145103e-12 </wgt>
<wgt id='1671'> +1.5063199e-12 </wgt>
<wgt id='1672'> +1.5660483e-12 </wgt>
<wgt id='1673'> +1.5438597e-12 </wgt>
<wgt id='1674'> +1.5276406e-12 </wgt>
<wgt id='1675'> +1.5223160e-12 </wgt>
<wgt id='1676'> +1.5151079e-12 </wgt>
<wgt id='1677'> +1.5403373e-12 </wgt>
<wgt id='1678'> +1.5234574e-12 </wgt>
<wgt id='1679'> +1.5527009e-12 </wgt>
<wgt id='1680'> +1.5552187e-12 </wgt>
<wgt id='1681'> +1.5708821e-12 </wgt>
<wgt id='1682'> +1.5281932e-12 </wgt>
<wgt id='1683'> +1.5570756e-12 </wgt>
<wgt id='1684'> +1.6027983e-12 </wgt>
<wgt id='1685'> +1.5262180e-12 </wgt>
<wgt id='1686'> +1.5350766e-12 </wgt>
<wgt id='1687'> +1.5725541e-12 </wgt>
<wgt id='1688'> +1.5022571e-12 </wgt>
<wgt id='1689'> +1.5998555e-12 </wgt>
<wgt id='1690'> +1.5403098e-12 </wgt>
<wgt id='1691'> +1.4722532e-12 </wgt>
<wgt id='1692'> +1.5231631e-12 </wgt>
<wgt id='1693'> +1.5506439e-12 </wgt>
<wgt id='1694'> +1.5292622e-12 </wgt>
<wgt id='1695'> +1.5491382e-12 </wgt>
<wgt id='1696'> +1.5257600e-12 </wgt>
<wgt id='1697'> +1.5226610e-12 </wgt>
<wgt id='1698'> +1.5470572e-12 </wgt>
<wgt id='1699'> +1.5566696e-12 </wgt>
<wgt id='1700'> +1.5137732e-12 </wgt>
<wgt id='1701'> +1.5911224e-12 </wgt>
<wgt id='1702'> +1.4959296e-12 </wgt>
<wgt id='1703'> +1.5165471e-12 </wgt>
<wgt id='1704'> +1.5107824e-12 </wgt>
<wgt id='1705'> +1.4842567e-12 </wgt>
<wgt id='1706'> +1.5660362e-12 </wgt>
<wgt id='1707'> +1.5506769e-12 </wgt>
<wgt id='1708'> +1.6123049e-12 </wgt>
<wgt id='1709'> +1.5878796e-12 </wgt>
<wgt id='1710'> +1.5395562e-12 </wgt>
<wgt id='1711'> +1.5511949e-12 </wgt>
<wgt id='1712'> +1.6141120e-12 </wgt>
<wgt id='1713'> +1.3520643e-12 </wgt>
<wgt id='1714'> +1.3376679e-12 </wgt>
<wgt id='1715'> +1.3089494e-12 </wgt>
<wgt id='1716'> +1.3815418e-12 </wgt>
<wgt id='1717'> +1.3635335e-12 </wgt>
<wgt id='1718'> +1.3920785e-12 </wgt>
<wgt id='1719'> +1.3729242e-12 </wgt>
<wgt id='1720'> +1.3134395e-12 </wgt>
<wgt id='1721'> +1.3279014e-12 </wgt>
<wgt id='1722'> +1.3452702e-12 </wgt>
<wgt id='1723'> +1.3956390e-12 </wgt>
<wgt id='1724'> +1.3548835e-12 </wgt>
<wgt id='1725'> +1.3710513e-12 </wgt>
<wgt id='1726'> +1.3597071e-12 </wgt>
<wgt id='1727'> +1.3943647e-12 </wgt>
<wgt id='1728'> +1.3359144e-12 </wgt>
<wgt id='1729'> +1.2945098e-12 </wgt>
<wgt id='1730'> +1.3271140e-12 </wgt>
<wgt id='1731'> +1.2935754e-12 </wgt>
<wgt id='1732'> +1.3537630e-12 </wgt>
<wgt id='1733'> +1.2934237e-12 </wgt>
<wgt id='1734'> +1.4138025e-12 </wgt>
<wgt id='1735'> +1.3243103e-12 </wgt>
<wgt id='1736'> +1.3815463e-12 </wgt>
<wgt id='1737'> +1.3909768e-12 </wgt>
<wgt id='1738'> +1.3471769e-12 </wgt>
<wgt id='1739'> +1.3616784e-12 </wgt>
<wgt id='1740'> +1.2823546e-12 </wgt>
<wgt id='1741'> +1.3919133e-12 </wgt>
<wgt id='1742'> +1.3360733e-12 </wgt>
<wgt id='1743'> +1.3299473e-12 </wgt>
<wgt id='1744'> +1.3734009e-12 </wgt>
<wgt id='1745'> +1.3721997e-12 </wgt>
<wgt id='1746'> +1.3419511e-12 </wgt>
<wgt id='1747'> +1.4038115e-12 </wgt>
<wgt id='1748'> +1.3584161e-12 </wgt>
<wgt id='1749'> +1.3528608e-12 </wgt>
<wgt id='1750'> +1.3265002e-12 </wgt>
<wgt id='1751'> +1.3413141e-12 </wgt>
<wgt id='1752'> +1.3316375e-12 </wgt>
<wgt id='1753'> +1.3582202e-12 </wgt>
<wgt id='1754'> +1.3651424e-12 </wgt>
<wgt id='1755'> +1.3640867e-12 </wgt>
<wgt id='1756'> +1.3749700e-12 </wgt>
<wgt id='1757'> +1.3721711e-12 </wgt>
<wgt id='1758'> +1.3940861e-12 </wgt>
<wgt id='1759'> +1.3770731e-12 </wgt>
<wgt id='1760'> +1.3489996e-12 </wgt>
<wgt id='1761'> +1.3449116e-12 </wgt>
<wgt id='1762'> +1.3404968e-12 </wgt>
<wgt id='1763'> +1.3725768e-12 </wgt>
<wgt id='1764'> +1.4011740e-12 </wgt>
<wgt id='1765'> +1.3556172e-12 </wgt>
<wgt id='1766'> +1.3865239e-12 </wgt>
<wgt id='1767'> +1.3388716e-12 </wgt>
<wgt id='1768'> +1.3761239e-12 </wgt>
<wgt id='1769'> +1.3454476e-12 </wgt>
<wgt id='1770'> +1.3456263e-12 </wgt>
<wgt id='1771'> +1.4038518e-12 </wgt>
<wgt id='1772'> +1.3319941e-12 </wgt>
<wgt id='1773'> +1.3603067e-12 </wgt>
<wgt id='1774'> +1.3461104e-12 </wgt>
<wgt id='1775'> +1.3517185e-12 </wgt>
<wgt id='1776'> +1.4038275e-12 </wgt>
<wgt id='1777'> +1.2944333e-12 </wgt>
<wgt id='1778'> +1.3674948e-12 </wgt>
<wgt id='1779'> +1.3377075e-12 </wgt>
<wgt id='1780'> +1.3560040e-12 </wgt>
<wgt id='1781'> +1.3755793e-12 </wgt>
<wgt id='1782'> +1.3458857e-12 </wgt>
<wgt id='1783'> +1.3544043e-12 </wgt>
<wgt id='1784'> +1.3481243e-12 </wgt>
<wgt id='1785'> +1.3670053e-12 </wgt>
<wgt id='1786'> +1.3400068e-12 </wgt>
<wgt id='1787'> +1.4341174e-12 </wgt>
<wgt id='1788'> +1.3344938e-12 </wgt>
<wgt id='1789'> +1.4298168e-12 </wgt>
<wgt id='1790'> +1.3491748e-12 </wgt>
<wgt id='1791'> +1.3373719e-12 </wgt>
<wgt id='1792'> +1.3372964e-12 </wgt>
<wgt id='1793'> +1.3330014e-12 </wgt>
<wgt id='1794'> +1.3717497e-12 </wgt>
<wgt id='1795'> +1.3610342e-12 </wgt>
<wgt id='1796'> +1.3117851e-12 </wgt>
<wgt id='1797'> +1.3491606e-12 </wgt>
<wgt id='1798'> +1.3467504e-12 </wgt>
<wgt id='1799'> +1.3330448e-12 </wgt>
<wgt id='1800'> +1.3716679e-12 </wgt>
<wgt id='1801'> +1.3513010e-12 </wgt>
<wgt id='1802'> +1.3090362e-12 </wgt>
<wgt id='1803'> +1.3553449e-12 </wgt>
<wgt id='1804'> +1.3619826e-12 </wgt>
<wgt id='1805'> +1.3194353e-12 </wgt>
<wgt id='1806'> +1.3202227e-12 </wgt>
<wgt id='1807'> +1.3269595e-12 </wgt>
<wgt id='1808'> +1.3249567e-12 </wgt>
<wgt id='1809'> +1.3290019e-12 </wgt>
<wgt id='1810'> +1.3214270e-12 </wgt>
<wgt id='1811'> +1.3646997e-12 </wgt>
<wgt id='1812'> +1.3300285e-12 </wgt>
<wgt id='1813'> +1.2744597e-12 </wgt>
<wgt id='1814'> +1.6949012e-12 </wgt>
<wgt id='1815'> +2.0538732e-12 </wgt>
<wgt id='1816'> +1.3520643e-12 </wgt>
<wgt id='1817'> +1.3376679e-12 </wgt>
<wgt id='1818'> +1.3089494e-12 </wgt>
<wgt id='1819'> +1.3815418e-12 </wgt>
<wgt id='1820'> +1.3635335e-12 </wgt>
<wgt id='1821'> +1.3920785e-12 </wgt>
<wgt id='1822'> +1.3729242e-12 </wgt>
<wgt id='1823'> +1.3134395e-12 </wgt>
<wgt id='1824'> +1.3279014e-12 </wgt>
<wgt id='1825'> +1.3452702e-12 </wgt>
<wgt id='1826'> +1.3956390e-12 </wgt>
<wgt id='1827'> +1.3548835e-12 </wgt>
<wgt id='1828'> +1.3710513e-12 </wgt>
<wgt id='1829'> +1.3597071e-12 </wgt>
<wgt id='1830'> +1.3943647e-12 </wgt>
<wgt id='1831'> +1.3359144e-12 </wgt>
<wgt id='1832'> +1.2945098e-12 </wgt>
<wgt id='1833'> +1.3271140e-12 </wgt>
<wgt id='1834'> +1.2935754e-12 </wgt>
<wgt id='1835'> +1.3537630e-12 </wgt>
<wgt id='1836'> +1.2934237e-12 </wgt>
<wgt id='1837'> +1.4138025e-12 </wgt>
<wgt id='1838'> +1.3243103e-12 </wgt>
<wgt id='1839'> +1.3815463e-12 </wgt>
<wgt id='1840'> +1.3909768e-12 </wgt>
<wgt id='1841'> +1.3471769e-12 </wgt>
<wgt id='1842'> +1.3616784e-12 </wgt>
<wgt id='1843'> +1.2823546e-12 </wgt>
<wgt id='1844'> +1.3919133e-12 </wgt>
<wgt id='1845'> +1.3360733e-12 </wgt>
<wgt id='1846'> +1.3299473e-12 </wgt>
<wgt id='1847'> +1.3734009e-12 </wgt>
<wgt id='1848'> +1.3721997e-12 </wgt>
<wgt id='1849'> +1.3419511e-12 </wgt>
<wgt id='1850'> +1.4038115e-12 </wgt>
<wgt id='1851'> +1.3584161e-12 </wgt>
<wgt id='1852'> +1.3528608e-12 </wgt>
<wgt id='1853'> +1.3265002e-12 </wgt>
<wgt id='1854'> +1.3413141e-12 </wgt>
<wgt id='1855'> +1.3316375e-12 </wgt>
<wgt id='1856'> +1.3582202e-12 </wgt>
<wgt id='1857'> +1.3651424e-12 </wgt>
<wgt id='1858'> +1.3640867e-12 </wgt>
<wgt id='1859'> +1.3749700e-12 </wgt>
<wgt id='1860'> +1.3721711e-12 </wgt>
<wgt id='1861'> +1.3940861e-12 </wgt>
<wgt id='1862'> +1.3770731e-12 </wgt>
<wgt id='1863'> +1.3489996e-12 </wgt>
<wgt id='1864'> +1.3449116e-12 </wgt>
<wgt id='1865'> +1.3404968e-12 </wgt>
<wgt id='1866'> +1.3725768e-12 </wgt>
<wgt id='1867'> +1.4011740e-12 </wgt>
<wgt id='1868'> +1.3556172e-12 </wgt>
<wgt id='1869'> +1.3865239e-12 </wgt>
<wgt id='1870'> +1.3388716e-12 </wgt>
<wgt id='1871'> +1.3761239e-12 </wgt>
<wgt id='1872'> +1.3454476e-12 </wgt>
<wgt id='1873'> +1.3456263e-12 </wgt>
<wgt id='1874'> +1.4038518e-12 </wgt>
<wgt id='1875'> +1.3319941e-12 </wgt>
<wgt id='1876'> +1.3603067e-12 </wgt>
<wgt id='1877'> +1.3461104e-12 </wgt>
<wgt id='1878'> +1.3517185e-12 </wgt>
<wgt id='1879'> +1.4038275e-12 </wgt>
<wgt id='1880'> +1.2944333e-12 </wgt>
<wgt id='1881'> +1.3674948e-12 </wgt>
<wgt id='1882'> +1.3377075e-12 </wgt>
<wgt id='1883'> +1.3560040e-12 </wgt>
<wgt id='1884'> +1.3755793e-12 </wgt>
<wgt id='1885'> +1.3458857e-12 </wgt>
<wgt id='1886'> +1.3544043e-12 </wgt>
<wgt id='1887'> +1.3481243e-12 </wgt>
<wgt id='1888'> +1.3670053e-12 </wgt>
<wgt id='1889'> +1.3400068e-12 </wgt>
<wgt id='1890'> +1.4341174e-12 </wgt>
<wgt id='1891'> +1.3344938e-12 </wgt>
<wgt id='1892'> +1.4298168e-12 </wgt>
<wgt id='1893'> +1.3491748e-12 </wgt>
<wgt id='1894'> +1.3373719e-12 </wgt>
<wgt id='1895'> +1.3372964e-12 </wgt>
<wgt id='1896'> +1.3330014e-12 </wgt>
<wgt id='1897'> +1.3717497e-12 </wgt>
<wgt id='1898'> +1.3610342e-12 </wgt>
<wgt id='1899'> +1.3117851e-12 </wgt>
<wgt id='1900'> +1.3491606e-12 </wgt>
<wgt id='1901'> +1.3467504e-12 </wgt>
<wgt id='1902'> +1.3330448e-12 </wgt>
<wgt id='1903'> +1.3716679e-12 </wgt>
<wgt id='1904'> +1.3513010e-12 </wgt>
<wgt id='1905'> +1.3090362e-12 </wgt>
<wgt id='1906'> +1.3553449e-12 </wgt>
<wgt id='1907'> +1.3619826e-12 </wgt>
<wgt id='1908'> +1.3194353e-12 </wgt>
<wgt id='1909'> +1.3202227e-12 </wgt>
<wgt id='1910'> +1.3269595e-12 </wgt>
<wgt id='1911'> +1.3249567e-12 </wgt>
<wgt id='1912'> +1.3290019e-12 </wgt>
<wgt id='1913'> +1.3214270e-12 </wgt>
<wgt id='1914'> +1.3646997e-12 </wgt>
<wgt id='1915'> +1.3300285e-12 </wgt>
<wgt id='1916'> +1.2744597e-12 </wgt>
<wgt id='1917'> +1.3442557e-12 </wgt>
<wgt id='1918'> +1.3683738e-12 </wgt>
<wgt id='1919'> +1.3176837e-12 </wgt>
</rwgt>
</event>
<event>
 9      1 +1.5538000e-12 3.10599900e+01 7.81860800e-03 1.43932000e-01
        2 -1    0    0  502    0 -0.0000000000e+00 +0.0000000000e+00 +2.3632842413e+00 2.3632842413e+00 0.0000000000e+00 0.0000e+00 1.0000e+00
       21 -1    0    0  501  502 +0.0000000000e+00 -0.0000000000e+00 -3.7557816313e+02 3.7557816313e+02 0.0000000000e+00 0.0000e+00 1.0000e+00
     1023  2    1    2    0    0 +1.4463235411e+01 -2.3030805157e+01 -1.5882672265e+02 1.6183525889e+02 1.5004000378e+01 0.0000e+00 0.0000e+00
  1000023  2    3    3    0    0 +6.5576866210e+00 -1.6384023188e+01 -7.5907982039e+01 7.8126269188e+01 5.5002482177e+00 0.0000e+00 0.0000e+00
        2  1    1    2  501    0 -1.4463235411e+01 +2.3030805157e+01 -2.1438815624e+02 2.1610618848e+02 0.0000000000e+00 0.0000e+00 1.0000e+00
  1000022  1    4    4    0    0 +5.6575492338e+00 -1.4255901066e+01 -6.4761450484e+01 6.6740422888e+01 5.0000000000e+00 0.0000e+00 1.0000e+00
      -13  1    4    4    0    0 +3.9266940797e-01 -8.9366543578e-01 -4.5193739252e+00 4.6247962485e+00 1.0570000000e-01 0.0000e+00 1.0000e+00
       13  1    4    4    0    0 +5.0746797927e-01 -1.2344566862e+00 -6.6271576299e+00 6.7610500517e+00 1.0570000000e-01 0.0000e+00 -1.0000e+00
  1000022  1    3    3    0    0 +7.9055487896e+00 -6.6467819688e+00 -8.2918740608e+01 8.3708989698e+01 5.0000000000e+00 0.0000e+00 1.0000e+00
<mgrwt>
<rscale>  1 0.31059993E+02</rscale>
<asrwt>0</asrwt>
<pdfrwt beam="1">  1       21 0.57781274E-01 0.31059993E+02</pdfrwt>
<pdfrwt beam="2">  1        2 0.36358208E-03 0.31059993E+02</pdfrwt>
<totfact> 0.19271795E+06</totfact>
</mgrwt>
<rwgt>
<wgt id='1001'> +1.5538000e-12 </wgt>
<wgt id='1002'> +1.5210814e-12 </wgt>
<wgt id='1003'> +1.5188320e-12 </wgt>
<wgt id='1004'> +1.5573835e-12 </wgt>
<wgt id='1005'> +1.5159600e-12 </wgt>
<wgt id='1006'> +1.3608924e-12 </wgt>
<wgt id='1007'> +1.3509410e-12 </wgt>
<wgt id='1008'> +1.3499154e-12 </wgt>
<wgt id='1009'> +1.3608847e-12 </wgt>
<wgt id='1010'> +1.3485689e-12 </wgt>
<wgt id='1011'> +1.8135537e-12 </wgt>
<wgt id='1012'> +1.7423635e-12 </wgt>
<wgt id='1013'> +1.7381369e-12 </wgt>
<wgt id='1014'> +1.8235390e-12 </wgt>
<wgt id='1015'> +1.7328249e-12 </wgt>
<wgt id='1016'> +1.7275653e-12 </wgt>
<wgt id='1017'> +1.6548622e-12 </wgt>
<wgt id='1018'> +1.6506420e-12 </wgt>
<wgt id='1019'> +1.7381369e-12 </wgt>
<wgt id='1020'> +1.6453574e-12 </wgt>
<wgt id='1021'> +1.5130844e-12 </wgt>
<wgt id='1022'> +1.4697577e-12 </wgt>
<wgt id='1023'> +1.4670662e-12 </wgt>
<wgt id='1024'> +1.5188320e-12 </wgt>
<wgt id='1025'> +1.4636783e-12 </wgt>
<wgt id='1026'> +2.0163680e-12 </wgt>
<wgt id='1027'> +1.8956062e-12 </wgt>
<wgt id='1028'> +1.8889791e-12 </wgt>
<wgt id='1029'> +2.0351830e-12 </wgt>
<wgt id='1030'> +1.8807331e-12 </wgt>
<wgt id='1031'> +1.3456274e-12 </wgt>
<wgt id='1032'> +1.3607567e-12 </wgt>
<wgt id='1033'> +1.3608847e-12 </wgt>
<wgt id='1034'> +1.3409255e-12 </wgt>
<wgt id='1035'> +1.3609409e-12 </wgt>
<wgt id='1036'> +1.1785649e-12 </wgt>
<wgt id='1037'> +1.2085494e-12 </wgt>
<wgt id='1038'> +1.2095342e-12 </wgt>
<wgt id='1039'> +1.1717377e-12 </wgt>
<wgt id='1040'> +1.2106669e-12 </wgt>
<wgt id='1041'> +1.5705803e-12 </wgt>
<wgt id='1042'> +1.5587152e-12 </wgt>
<wgt id='1043'> +1.5573835e-12 </wgt>
<wgt id='1044'> +1.5700884e-12 </wgt>
<wgt id='1045'> +1.5556296e-12 </wgt>
<wgt id='1046'> +1.5538000e-12 </wgt>
<wgt id='1047'> +1.5767768e-12 </wgt>
<wgt id='1048'> +1.5490901e-12 </wgt>
<wgt id='1049'> +1.5558714e-12 </wgt>
<wgt id='1050'> +1.5581840e-12 </wgt>
<wgt id='1051'> +1.5126708e-12 </wgt>
<wgt id='1052'> +1.6082473e-12 </wgt>
<wgt id='1053'> +1.5627871e-12 </wgt>
<wgt id='1054'> +1.5511443e-12 </wgt>
<wgt id='1055'> +1.5331766e-12 </wgt>
<wgt id='1056'> +1.5851828e-12 </wgt>
<wgt id='1057'> +1.5916908e-12 </wgt>
<wgt id='1058'> +1.5445149e-12 </wgt>
<wgt id='1059'> +1.5548324e-12 </wgt>
<wgt id='1060'> +1.5636374e-12 </wgt>
<wgt id='1061'> +1.5225719e-12 </wgt>
<wgt id='1062'> +1.5400624e-12 </wgt>
<wgt id='1063'> +1.5678941e-12 </wgt>
<wgt id='1064'> +1.5320494e-12 </wgt>
<wgt id='1065'> +1.5282902e-12 </wgt>
<wgt id='1066'> +1.5260907e-12 </wgt>
<wgt id='1067'> +1.5290210e-12 </wgt>
<wgt id='1068'> +1.5333270e-12 </wgt>
<wgt id='1069'> +1.5326261e-12 </wgt>
<wgt id='1070'> +1.5167556e-12 </wgt>
<wgt id='1071'> +1.5171011e-12 </wgt>
<wgt id='1072'> +1.5573252e-12 </wgt>
<wgt id='1073'> +1.5963498e-12 </wgt>
<wgt id='1074'> +1.5544178e-12 </wgt>
<wgt id='1075'> +1.5626461e-12 </wgt>
<wgt id='1076'> +1.6141765e-12 </wgt>
<wgt id='1077'> +1.5957625e-12 </wgt>
<wgt id='1078'> +1.5808811e-12 </wgt>
<wgt id='1079'> +1.5356201e-12 </wgt>
<wgt id='1080'> +1.5605464e-12 </wgt>
<wgt id='1081'> +1.5498745e-12 </wgt>
<wgt id='1082'> +1.5534993e-12 </wgt>
<wgt id='1083'> +1.5148378e-12 </wgt>
<wgt id='1084'> +1.5478618e-12 </wgt>
<wgt id='1085'> +1.5427084e-12 </wgt>
<wgt id='1086'> +1.5810427e-12 </wgt>
<wgt id='1087'> +1.5483543e-12 </wgt>
<wgt id='1088'> +1.5732244e-12 </wgt>
<wgt id='1089'> +1.5616609e-12 </wgt>
<wgt id='1090'> +1.5637846e-12 </wgt>
<wgt id='1091'> +1.5055723e-12 </wgt>
<wgt id='1092'> +1.5647852e-12 </wgt>
<wgt id='1093'> +1.5776701e-12 </wgt>
<wgt id='1094'> +1.5744307e-12 </wgt>
<wgt id='1095'> +1.5868354e-12 </wgt>
<wgt id='1096'> +1.5660367e-12 </wgt>
<wgt id='1097'> +1.5551832e-12 </wgt>
<wgt id='1098'> +1.5344029e-12 </wgt>
<wgt id='1099'> +1.5699422e-12 </wgt>
<wgt id='1100'> +1.5679710e-12 </wgt>
<wgt id='1101'> +1.5519149e-12 </wgt>
<wgt id='1102'> +1.5347052e-12 </wgt>
<wgt id='1103'> +1.5310522e-12 </wgt>
<wgt id='1104'> +1.5090300e-12 </wgt>
<wgt id='1105'> +1.5672521e-12 </wgt>
<wgt id='1106'> +1.5416662e-12 </wgt>
<wgt id='1107'> +1.5887893e-12 </wgt>
<wgt id='1108'> +1.5328756e-12 </wgt>
<wgt id='1109'> +1.5466029e-12 </wgt>
<wgt id='1110'> +1.5603686e-12 </wgt>
<wgt id='1111'> +1.5329580e-12 </wgt>
<wgt id='1112'> +1.5401158e-12 </wgt>
<wgt id='1113'> +1.5359715e-12 </wgt>
<wgt id='1114'> +1.5735812e-12 </wgt>
<wgt id='1115'> +1.5676345e-12 </wgt>
<wgt id='1116'> +1.5671330e-12 </wgt>
<wgt id='1117'> +1.5522792e-12 </wgt>
<wgt id='1118'> +1.5278166e-12 </wgt>
<wgt id='1119'> +1.5235555e-12 </wgt>
<wgt id='1120'> +1.5704644e-12 </wgt>
<wgt id='1121'> +1.5578242e-12 </wgt>
<wgt id='1122'> +1.5749962e-12 </wgt>
<wgt id='1123'> +1.5628411e-12 </wgt>
<wgt id='1124'> +1.5557145e-12 </wgt>
<wgt id='1125'> +1.5208974e-12 </wgt>
<wgt id='1126'> +1.5666360e-12 </wgt>
<wgt id='1127'> +1.5471055e-12 </wgt>
<wgt id='1128'> +1.5400624e-12 </wgt>
<wgt id='1129'> +1.5730639e-12 </wgt>
<wgt id='1130'> +1.5397373e-12 </wgt>
<wgt id='1131'> +1.5743885e-12 </wgt>
<wgt id='1132'> +1.5695279e-12 </wgt>
<wgt id='1133'> +1.5465435e-12 </wgt>
<wgt id='1134'> +1.6214171e-12 </wgt>
<wgt id='1135'> +1.5717212e-12 </wgt>
<wgt id='1136'> +1.5330886e-12 </wgt>
<wgt id='1137'> +1.5309115e-12 </wgt>
<wgt id='1138'> +1.5444363e-12 </wgt>
<wgt id='1139'> +1.5454568e-12 </wgt>
<wgt id='1140'> +1.5616276e-12 </wgt>
<wgt id='1141'> +1.5502719e-12 </wgt>
<wgt id='1142'> +1.5502827e-12 </wgt>
<wgt id='1143'> +1.5386267e-12 </wgt>
<wgt id='1144'> +1.5725446e-12 </wgt>
<wgt id='1145'> +1.5561789e-12 </wgt>
<wgt id='1146'> +1.5250193e-12 </wgt>
<wgt id='1147'> +1.2092671e-12 </wgt>
<wgt id='1148'> +1.2336999e-12 </wgt>
<wgt id='1149'> +1.3422736e-12 </wgt>
<wgt id='1150'> +1.2562130e-12 </wgt>
<wgt id='1151'> +1.1191260e-12 </wgt>
<wgt id='1152'> +1.5473046e-12 </wgt>
<wgt id='1153'> +1.5399420e-12 </wgt>
<wgt id='1154'> +1.5515242e-12 </wgt>
<wgt id='1155'> +1.5474008e-12 </wgt>
<wgt id='1156'> +1.5472006e-12 </wgt>
<wgt id='1157'> +1.5481568e-12 </wgt>
<wgt id='1158'> +1.5460582e-12 </wgt>
<wgt id='1159'> +1.5480157e-12 </wgt>
<wgt id='1160'> +1.5467856e-12 </wgt>
<wgt id='1161'> +1.5428110e-12 </wgt>
<wgt id='1162'> +1.5502928e-12 </wgt>
<wgt id='1163'> +1.5519839e-12 </wgt>
<wgt id='1164'> +1.5425425e-12 </wgt>
<wgt id='1165'> +1.5371296e-12 </wgt>
<wgt id='1166'> +1.5572235e-12 </wgt>
<wgt id='1167'> +1.5517992e-12 </wgt>
<wgt id='1168'> +1.5406098e-12 </wgt>
<wgt id='1169'> +1.5480407e-12 </wgt>
<wgt id='1170'> +1.5467526e-12 </wgt>
<wgt id='1171'> +1.5486741e-12 </wgt>
<wgt id='1172'> +1.5454313e-12 </wgt>
<wgt id='1173'> +1.5493350e-12 </wgt>
<wgt id='1174'> +1.5442041e-12 </wgt>
<wgt id='1175'> +1.5450757e-12 </wgt>
<wgt id='1176'> +1.5484130e-12 </wgt>
<wgt id='1177'> +1.5479282e-12 </wgt>
<wgt id='1178'> +1.5460898e-12 </wgt>
<wgt id='1179'> +1.5607571e-12 </wgt>
<wgt id='1180'> +1.5309131e-12 </wgt>
<wgt id='1181'> +1.5410185e-12 </wgt>
<wgt id='1182'> +1.5537482e-12 </wgt>
<wgt id='1183'> +1.5473229e-12 </wgt>
<wgt id='1184'> +1.5473876e-12 </wgt>
<wgt id='1185'> +1.5452261e-12 </wgt>
<wgt id='1186'> +1.5484005e-12 </wgt>
<wgt id='1187'> +1.5458778e-12 </wgt>
<wgt id='1188'> +1.5477250e-12 </wgt>
<wgt id='1189'> +1.5512658e-12 </wgt>
<wgt id='1190'> +1.5189150e-12 </wgt>
<wgt id='1191'> +1.5362092e-12 </wgt>
<wgt id='1192'> +1.5618996e-12 </wgt>
<wgt id='1193'> +1.2875014e-12 </wgt>
<wgt id='1194'> +1.2760523e-12 </wgt>
<wgt id='1195'> +1.2968110e-12 </wgt>
<wgt id='1196'> +1.2906744e-12 </wgt>
<wgt id='1197'> +1.2838352e-12 </wgt>
<wgt id='1198'> +1.2883858e-12 </wgt>
<wgt id='1199'> +1.2862417e-12 </wgt>
<wgt id='1200'> +1.2890499e-12 </wgt>
<wgt id='1201'> +1.2864479e-12 </wgt>
<wgt id='1202'> +1.2849636e-12 </wgt>
<wgt id='1203'> +1.2910422e-12 </wgt>
<wgt id='1204'> +1.2727554e-12 </wgt>
<wgt id='1205'> +1.2965581e-12 </wgt>
<wgt id='1206'> +1.2914314e-12 </wgt>
<wgt id='1207'> +1.2821109e-12 </wgt>
<wgt id='1208'> +1.2817462e-12 </wgt>
<wgt id='1209'> +1.2896893e-12 </wgt>
<wgt id='1210'> +1.2801163e-12 </wgt>
<wgt id='1211'> +1.2912252e-12 </wgt>
<wgt id='1212'> +1.2880906e-12 </wgt>
<wgt id='1213'> +1.2871012e-12 </wgt>
<wgt id='1214'> +1.2847685e-12 </wgt>
<wgt id='1215'> +1.2869852e-12 </wgt>
<wgt id='1216'> +1.2859001e-12 </wgt>
<wgt id='1217'> +1.2876271e-12 </wgt>
<wgt id='1218'> +1.2883662e-12 </wgt>
<wgt id='1219'> +1.2866497e-12 </wgt>
<wgt id='1220'> +1.2914407e-12 </wgt>
<wgt id='1221'> +1.2890382e-12 </wgt>
<wgt id='1222'> +1.2888631e-12 </wgt>
<wgt id='1223'> +1.2883790e-12 </wgt>
<wgt id='1224'> +1.2877030e-12 </wgt>
<wgt id='1225'> +1.2874098e-12 </wgt>
<wgt id='1226'> +1.2855601e-12 </wgt>
<wgt id='1227'> +1.2888884e-12 </wgt>
<wgt id='1228'> +1.2880726e-12 </wgt>
<wgt id='1229'> +1.2866199e-12 </wgt>
<wgt id='1230'> +1.3096319e-12 </wgt>
<wgt id='1231'> +1.2732408e-12 </wgt>
<wgt id='1232'> +1.2884319e-12 </wgt>
<wgt id='1233'> +1.2872118e-12 </wgt>
<wgt id='1234'> +1.2875014e-12 </wgt>
<wgt id='1235'> +1.2814003e-12 </wgt>
<wgt id='1236'> +1.2837929e-12 </wgt>
<wgt id='1237'> +1.2857827e-12 </wgt>
<wgt id='1238'> +1.2895035e-12 </wgt>
<wgt id='1239'> +1.2908583e-12 </wgt>
<wgt id='1240'> +1.2922326e-12 </wgt>
<wgt id='1241'> +1.3241701e-12 </wgt>
<wgt id='1242'> +1.3124959e-12 </wgt>
<wgt id='1243'> +1.3356957e-12 </wgt>
<wgt id='1244'> +1.3200826e-12 </wgt>
<wgt id='1245'> +1.3271939e-12 </wgt>
<wgt id='1246'> +1.3246819e-12 </wgt>
<wgt id='1247'> +1.3238079e-12 </wgt>
<wgt id='1248'> +1.3241046e-12 </wgt>
<wgt id='1249'> +1.3243074e-12 </wgt>
<wgt id='1250'> +1.3238886e-12 </wgt>
<wgt id='1251'> +1.3243824e-12 </wgt>
<wgt id='1252'> +1.3223365e-12 </wgt>
<wgt id='1253'> +1.3256409e-12 </wgt>
<wgt id='1254'> +1.3119855e-12 </wgt>
<wgt id='1255'> +1.3314900e-12 </wgt>
<wgt id='1256'> +1.3277584e-12 </wgt>
<wgt id='1257'> +1.3152506e-12 </wgt>
<wgt id='1258'> +1.3221302e-12 </wgt>
<wgt id='1259'> +1.3238449e-12 </wgt>
<wgt id='1260'> +1.3247787e-12 </wgt>
<wgt id='1261'> +1.3239119e-12 </wgt>
<wgt id='1262'> +1.3228389e-12 </wgt>
<wgt id='1263'> +1.3246289e-12 </wgt>
<wgt id='1264'> +1.3267549e-12 </wgt>
<wgt id='1265'> +1.3232467e-12 </wgt>
<wgt id='1266'> +1.3268065e-12 </wgt>
<wgt id='1267'> +1.3233315e-12 </wgt>
<wgt id='1268'> +1.3243534e-12 </wgt>
<wgt id='1269'> +1.3281569e-12 </wgt>
<wgt id='1270'> +1.3327772e-12 </wgt>
<wgt id='1271'> +1.3239065e-12 </wgt>
<wgt id='1272'> +1.3275926e-12 </wgt>
<wgt id='1273'> +1.3237210e-12 </wgt>
<wgt id='1274'> +1.3259540e-12 </wgt>
<wgt id='1275'> +1.3213470e-12 </wgt>
<wgt id='1276'> +1.3221084e-12 </wgt>
<wgt id='1277'> +1.3255396e-12 </wgt>
<wgt id='1278'> +1.3204090e-12 </wgt>
<wgt id='1279'> +1.3347984e-12 </wgt>
<wgt id='1280'> +1.3235752e-12 </wgt>
<wgt id='1281'> +1.3304846e-12 </wgt>
<wgt id='1282'> +1.3241701e-12 </wgt>
<wgt id='1283'> +1.3172237e-12 </wgt>
<wgt id='1284'> +1.3201718e-12 </wgt>
<wgt id='1285'> +1.3224476e-12 </wgt>
<wgt id='1286'> +1.3262646e-12 </wgt>
<wgt id='1287'> +1.3275087e-12 </wgt>
<wgt id='1288'> +1.3287714e-12 </wgt>
<wgt id='1289'> +1.3163998e-12 </wgt>
<wgt id='1290'> +1.3253914e-12 </wgt>
<wgt id='1291'> +1.3067842e-12 </wgt>
<wgt id='1292'> +1.3137943e-12 </wgt>
<wgt id='1293'> +1.3183698e-12 </wgt>
<wgt id='1294'> +1.3118644e-12 </wgt>
<wgt id='1295'> +1.3205988e-12 </wgt>
<wgt id='1296'> +1.3131625e-12 </wgt>
<wgt id='1297'> +1.3204139e-12 </wgt>
<wgt id='1298'> +1.3240526e-12 </wgt>
<wgt id='1299'> +1.3068724e-12 </wgt>
<wgt id='1300'> +1.3199686e-12 </wgt>
<wgt id='1301'> +1.3091324e-12 </wgt>
<wgt id='1302'> +1.3153714e-12 </wgt>
<wgt id='1303'> +1.3178329e-12 </wgt>
<wgt id='1304'> +1.3145902e-12 </wgt>
<wgt id='1305'> +1.3175658e-12 </wgt>
<wgt id='1306'> +1.3113060e-12 </wgt>
<wgt id='1307'> +1.3222362e-12 </wgt>
<wgt id='1308'> +1.3264717e-12 </wgt>
<wgt id='1309'> +1.3087032e-12 </wgt>
<wgt id='1310'> +1.3149956e-12 </wgt>
<wgt id='1311'> +1.3181817e-12 </wgt>
<wgt id='1312'> +1.3109016e-12 </wgt>
<wgt id='1313'> +1.3224381e-12 </wgt>
<wgt id='1314'> +1.3109122e-12 </wgt>
<wgt id='1315'> +1.3161133e-12 </wgt>
<wgt id='1316'> +1.3227834e-12 </wgt>
<wgt id='1317'> +1.3179273e-12 </wgt>
<wgt id='1318'> +1.3159410e-12 </wgt>
<wgt id='1319'> +1.3154152e-12 </wgt>
<wgt id='1320'> +1.3121050e-12 </wgt>
<wgt id='1321'> +1.3172700e-12 </wgt>
<wgt id='1322'> +1.3162586e-12 </wgt>
<wgt id='1323'> +1.3163068e-12 </wgt>
<wgt id='1324'> +1.3174223e-12 </wgt>
<wgt id='1325'> +1.3195503e-12 </wgt>
<wgt id='1326'> +1.3164482e-12 </wgt>
<wgt id='1327'> +1.3190041e-12 </wgt>
<wgt id='1328'> +1.3151141e-12 </wgt>
<wgt id='1329'> +1.3174566e-12 </wgt>
<wgt id='1330'> +1.2899508e-12 </wgt>
<wgt id='1331'> +1.3329183e-12 </wgt>
<wgt id='1332'> +1.3405000e-12 </wgt>
<wgt id='1333'> +1.3054124e-12 </wgt>
<wgt id='1334'> +1.3123558e-12 </wgt>
<wgt id='1335'> +1.3264390e-12 </wgt>
<wgt id='1336'> +1.3325586e-12 </wgt>
<wgt id='1337'> +1.3003648e-12 </wgt>
<wgt id='1338'> +1.3211975e-12 </wgt>
<wgt id='1339'> +1.3142711e-12 </wgt>
<wgt id='1340'> +1.2843862e-12 </wgt>
<wgt id='1341'> +1.2932241e-12 </wgt>
<wgt id='1342'> +1.2748407e-12 </wgt>
<wgt id='1343'> +1.2817790e-12 </wgt>
<wgt id='1344'> +1.2861842e-12 </wgt>
<wgt id='1345'> +1.2793718e-12 </wgt>
<wgt id='1346'> +1.2888439e-12 </wgt>
<wgt id='1347'> +1.2813164e-12 </wgt>
<wgt id='1348'> +1.2878750e-12 </wgt>
<wgt id='1349'> +1.2913882e-12 </wgt>
<wgt id='1350'> +1.2776316e-12 </wgt>
<wgt id='1351'> +1.2880476e-12 </wgt>
<wgt id='1352'> +1.2763263e-12 </wgt>
<wgt id='1353'> +1.2830035e-12 </wgt>
<wgt id='1354'> +1.2869074e-12 </wgt>
<wgt id='1355'> +1.2828183e-12 </wgt>
<wgt id='1356'> +1.2852654e-12 </wgt>
<wgt id='1357'> +1.2821497e-12 </wgt>
<wgt id='1358'> +1.2872027e-12 </wgt>
<wgt id='1359'> +1.2957568e-12 </wgt>
<wgt id='1360'> +1.2745647e-12 </wgt>
<wgt id='1361'> +1.2830288e-12 </wgt>
<wgt id='1362'> +1.2864050e-12 </wgt>
<wgt id='1363'> +1.2779663e-12 </wgt>
<wgt id='1364'> +1.2893984e-12 </wgt>
<wgt id='1365'> +1.2868756e-12 </wgt>
<wgt id='1366'> +1.2735742e-12 </wgt>
<wgt id='1367'> +1.2903293e-12 </wgt>
<wgt id='1368'> +1.2851205e-12 </wgt>
<wgt id='1369'> +1.2845921e-12 </wgt>
<wgt id='1370'> +1.2835610e-12 </wgt>
<wgt id='1371'> +1.2820123e-12 </wgt>
<wgt id='1372'> +1.2852436e-12 </wgt>
<wgt id='1373'> +1.2844844e-12 </wgt>
<wgt id='1374'> +1.2837673e-12 </wgt>
<wgt id='1375'> +1.2852857e-12 </wgt>
<wgt id='1376'> +1.2870662e-12 </wgt>
<wgt id='1377'> +1.2849971e-12 </wgt>
<wgt id='1378'> +1.2868287e-12 </wgt>
<wgt id='1379'> +1.2829856e-12 </wgt>
<wgt id='1380'> +1.2858461e-12 </wgt>
<wgt id='1381'> +1.2566132e-12 </wgt>
<wgt id='1382'> +1.2999718e-12 </wgt>
<wgt id='1383'> +1.3090737e-12 </wgt>
<wgt id='1384'> +1.2700167e-12 </wgt>
<wgt id='1385'> +1.2797462e-12 </wgt>
<wgt id='1386'> +1.2949012e-12 </wgt>
<wgt id='1387'> +1.3030292e-12 </wgt>
<wgt id='1388'> +1.2658856e-12 </wgt>
<wgt id='1389'> +1.2921904e-12 </wgt>
<wgt id='1390'> +1.2808621e-12 </wgt>
<wgt id='1391'> +1.2709529e-12 </wgt>
<wgt id='1392'> +1.2276011e-12 </wgt>
<wgt id='1393'> +1.2410977e-12 </wgt>
<wgt id='1394'> +1.2556433e-12 </wgt>
<wgt id='1395'> +1.2829207e-12 </wgt>
<wgt id='1396'> +1.2697772e-12 </wgt>
<wgt id='1397'> +1.2418568e-12 </wgt>
<wgt id='1398'> +1.2475978e-12 </wgt>
<wgt id='1399'> +1.2531911e-12 </wgt>
<wgt id='1400'> +1.2586931e-12 </wgt>
<wgt id='1401'> +1.2642042e-12 </wgt>
<wgt id='1402'> +1.2743527e-12 </wgt>
<wgt id='1403'> +1.2792630e-12 </wgt>
<wgt id='1404'> +1.2834280e-12 </wgt>
<wgt id='1405'> +1.2697772e-12 </wgt>
<wgt id='1406'> +1.2665565e-12 </wgt>
<wgt id='1407'> +1.2683800e-12 </wgt>
<wgt id='1408'> +1.2713474e-12 </wgt>
<wgt id='1409'> +1.2720735e-12 </wgt>
<wgt id='1410'> +1.2847439e-12 </wgt>
<wgt id='1411'> +1.2926682e-12 </wgt>
<wgt id='1412'> +1.2746112e-12 </wgt>
<wgt id='1413'> +1.2868675e-12 </wgt>
<wgt id='1414'> +1.2826069e-12 </wgt>
<wgt id='1415'> +1.2805388e-12 </wgt>
<wgt id='1416'> +1.2864587e-12 </wgt>
<wgt id='1417'> +1.2768397e-12 </wgt>
<wgt id='1418'> +1.2927221e-12 </wgt>
<wgt id='1419'> +1.2870406e-12 </wgt>
<wgt id='1420'> +1.2825848e-12 </wgt>
<wgt id='1421'> +1.2710718e-12 </wgt>
<wgt id='1422'> +1.2906553e-12 </wgt>
<wgt id='1423'> +1.2843900e-12 </wgt>
<wgt id='1424'> +1.2851690e-12 </wgt>
<wgt id='1425'> +1.2810630e-12 </wgt>
<wgt id='1426'> +1.2887883e-12 </wgt>
<wgt id='1427'> +1.2819455e-12 </wgt>
<wgt id='1428'> +1.2861224e-12 </wgt>
<wgt id='1429'> +1.2774233e-12 </wgt>
<wgt id='1430'> +1.2947438e-12 </wgt>
<wgt id='1431'> +1.2914520e-12 </wgt>
<wgt id='1432'> +1.2800188e-12 </wgt>
<wgt id='1433'> +1.2848135e-12 </wgt>
<wgt id='1434'> +1.2821325e-12 </wgt>
<wgt id='1435'> +1.2868880e-12 </wgt>
<wgt id='1436'> +1.2800428e-12 </wgt>
<wgt id='1437'> +1.2911765e-12 </wgt>
<wgt id='1438'> +1.2864405e-12 </wgt>
<wgt id='1439'> +1.2834117e-12 </wgt>
<wgt id='1440'> +1.2830998e-12 </wgt>
<wgt id='1441'> +1.2843611e-12 </wgt>
<wgt id='1442'> +1.2861197e-12 </wgt>
<wgt id='1443'> +1.2853660e-12 </wgt>
<wgt id='1444'> +1.2861326e-12 </wgt>
<wgt id='1445'> +1.2883307e-12 </wgt>
<wgt id='1446'> +1.2851825e-12 </wgt>
<wgt id='1447'> +1.2858581e-12 </wgt>
<wgt id='1448'> +1.2870414e-12 </wgt>
<wgt id='1449'> +1.2830499e-12 </wgt>
<wgt id='1450'> +1.2857623e-12 </wgt>
<wgt id='1451'> +1.2930905e-12 </wgt>
<wgt id='1452'> +1.2654101e-12 </wgt>
<wgt id='1453'> +1.2867988e-12 </wgt>
<wgt id='1454'> +1.2717357e-12 </wgt>
<wgt id='1455'> +1.2688190e-12 </wgt>
<wgt id='1456'> +1.3059706e-12 </wgt>
<wgt id='1457'> +1.2987535e-12 </wgt>
<wgt id='1458'> +1.2801951e-12 </wgt>
<wgt id='1459'> +1.2864041e-12 </wgt>
<wgt id='1460'> +1.2931924e-12 </wgt>
<wgt id='1461'> +1.2847439e-12 </wgt>
<wgt id='1462'> +1.2726931e-12 </wgt>
<wgt id='1463'> +1.2957569e-12 </wgt>
<wgt id='1464'> +1.2840183e-12 </wgt>
<wgt id='1465'> +1.2591468e-12 </wgt>
<wgt id='1466'> +1.2643479e-12 </wgt>
<wgt id='1467'> +1.2696424e-12 </wgt>
<wgt id='1468'> +1.2752446e-12 </wgt>
<wgt id='1469'> +1.2795868e-12 </wgt>
<wgt id='1470'> +1.2883719e-12 </wgt>
<wgt id='1471'> +1.2919972e-12 </wgt>
<wgt id='1472'> +1.2960459e-12 </wgt>
<wgt id='1473'> +1.2840183e-12 </wgt>
<wgt id='1474'> +1.2801028e-12 </wgt>
<wgt id='1475'> +1.2819272e-12 </wgt>
<wgt id='1476'> +1.2855521e-12 </wgt>
<wgt id='1477'> +1.2872227e-12 </wgt>
<wgt id='1478'> +1.2562363e-12 </wgt>
<wgt id='1479'> +1.2559508e-12 </wgt>
<wgt id='1480'> +1.2674119e-12 </wgt>
<wgt id='1481'> +1.2599877e-12 </wgt>
<wgt id='1482'> +1.2588397e-12 </wgt>
<wgt id='1483'> +1.2350885e-12 </wgt>
<wgt id='1484'> +1.2592110e-12 </wgt>
<wgt id='1485'> +1.2652741e-12 </wgt>
<wgt id='1486'> +1.2566438e-12 </wgt>
<wgt id='1487'> +1.2622429e-12 </wgt>
<wgt id='1488'> +1.2514687e-12 </wgt>
<wgt id='1489'> +1.2595924e-12 </wgt>
<wgt id='1490'> +1.2569231e-12 </wgt>
<wgt id='1491'> +1.2538133e-12 </wgt>
<wgt id='1492'> +1.2551704e-12 </wgt>
<wgt id='1493'> +1.2550256e-12 </wgt>
<wgt id='1494'> +1.2786671e-12 </wgt>
<wgt id='1495'> +1.2610807e-12 </wgt>
<wgt id='1496'> +1.2547626e-12 </wgt>
<wgt id='1497'> +1.2592599e-12 </wgt>
<wgt id='1498'> +1.2544105e-12 </wgt>
<wgt id='1499'> +1.2591939e-12 </wgt>
<wgt id='1500'> +1.2564515e-12 </wgt>
<wgt id='1501'> +1.2553183e-12 </wgt>
<wgt id='1502'> +1.2561218e-12 </wgt>
<wgt id='1503'> +1.2613371e-12 </wgt>
<wgt id='1504'> +1.2576210e-12 </wgt>
<wgt id='1505'> +1.2555146e-12 </wgt>
<wgt id='1506'> +1.2554853e-12 </wgt>
<wgt id='1507'> +1.2538215e-12 </wgt>
<wgt id='1508'> +1.2678797e-12 </wgt>
<wgt id='1509'> +1.3084246e-12 </wgt>
<wgt id='1510'> +1.3077025e-12 </wgt>
<wgt id='1511'> +1.3025637e-12 </wgt>
<wgt id='1512'> +1.3027143e-12 </wgt>
<wgt id='1513'> +1.3217520e-12 </wgt>
<wgt id='1514'> +1.3087577e-12 </wgt>
<wgt id='1515'> +1.3029230e-12 </wgt>
<wgt id='1516'> +1.3089324e-12 </wgt>
<wgt id='1517'> +1.3039917e-12 </wgt>
<wgt id='1518'> +1.3154814e-12 </wgt>
<wgt id='1519'> +1.3060613e-12 </wgt>
<wgt id='1520'> +1.3040385e-12 </wgt>
<wgt id='1521'> +1.3125258e-12 </wgt>
<wgt id='1522'> +1.3062217e-12 </wgt>
<wgt id='1523'> +1.3110276e-12 </wgt>
<wgt id='1524'> +1.3075294e-12 </wgt>
<wgt id='1525'> +1.3092571e-12 </wgt>
<wgt id='1526'> +1.3055276e-12 </wgt>
<wgt id='1527'> +1.3094362e-12 </wgt>
<wgt id='1528'> +1.3143753e-12 </wgt>
<wgt id='1529'> +1.3134912e-12 </wgt>
<wgt id='1530'> +1.3126732e-12 </wgt>
<wgt id='1531'> +1.3113512e-12 </wgt>
<wgt id='1532'> +1.3135612e-12 </wgt>
<wgt id='1533'> +1.3064125e-12 </wgt>
<wgt id='1534'> +1.3154118e-12 </wgt>
<wgt id='1535'> +1.3096250e-12 </wgt>
<wgt id='1536'> +1.3043250e-12 </wgt>
<wgt id='1537'> +1.3053313e-12 </wgt>
<wgt id='1538'> +1.3116584e-12 </wgt>
<wgt id='1539'> +1.3065971e-12 </wgt>
<wgt id='1540'> +1.3108540e-12 </wgt>
<wgt id='1541'> +1.3062308e-12 </wgt>
<wgt id='1542'> +1.3092529e-12 </wgt>
<wgt id='1543'> +1.3118999e-12 </wgt>
<wgt id='1544'> +1.3081453e-12 </wgt>
<wgt id='1545'> +1.3098070e-12 </wgt>
<wgt id='1546'> +1.3113602e-12 </wgt>
<wgt id='1547'> +1.3079197e-12 </wgt>
<wgt id='1548'> +1.3066711e-12 </wgt>
<wgt id='1549'> +1.3092397e-12 </wgt>
<wgt id='1550'> +1.3089128e-12 </wgt>
<wgt id='1551'> +1.3081929e-12 </wgt>
<wgt id='1552'> +1.3079134e-12 </wgt>
<wgt id='1553'> +1.3088026e-12 </wgt>
<wgt id='1554'> +1.3073656e-12 </wgt>
<wgt id='1555'> +1.3078332e-12 </wgt>
<wgt id='1556'> +1.3094263e-12 </wgt>
<wgt id='1557'> +1.3072742e-12 </wgt>
<wgt id='1558'> +1.3093484e-12 </wgt>
<wgt id='1559'> +1.3088506e-12 </wgt>
<wgt id='1560'> +1.3095269e-12 </wgt>
<wgt id='1561'> +1.3090840e-12 </wgt>
<wgt id='1562'> +1.3087725e-12 </wgt>
<wgt id='1563'> +1.3080566e-12 </wgt>
<wgt id='1564'> +1.3085707e-12 </wgt>
<wgt id='1565'> +1.3084983e-12 </wgt>
<wgt id='1566'> +1.3096873e-12 </wgt>
<wgt id='1567'> +1.3089643e-12 </wgt>
<wgt id='1568'> +1.3083286e-12 </wgt>
<wgt id='1569'> +1.3086862e-12 </wgt>
<wgt id='1570'> +1.3076042e-12 </wgt>
<wgt id='1571'> +1.3082277e-12 </wgt>
<wgt id='1572'> +1.3087401e-12 </wgt>
<wgt id='1573'> +1.3082124e-12 </wgt>
<wgt id='1574'> +1.3088871e-12 </wgt>
<wgt id='1575'> +1.3076286e-12 </wgt>
<wgt id='1576'> +1.3081933e-12 </wgt>
<wgt id='1577'> +1.3093797e-12 </wgt>
<wgt id='1578'> +1.3087594e-12 </wgt>
<wgt id='1579'> +1.3080943e-12 </wgt>
<wgt id='1580'> +1.3081859e-12 </wgt>
<wgt id='1581'> +1.3087016e-12 </wgt>
<wgt id='1582'> +1.3088865e-12 </wgt>
<wgt id='1583'> +1.3087768e-12 </wgt>
<wgt id='1584'> +1.3085749e-12 </wgt>
<wgt id='1585'> +1.3086623e-12 </wgt>
<wgt id='1586'> +1.3086724e-12 </wgt>
<wgt id='1587'> +1.3084563e-12 </wgt>
<wgt id='1588'> +1.3086563e-12 </wgt>
<wgt id='1589'> +1.3090296e-12 </wgt>
<wgt id='1590'> +1.3086156e-12 </wgt>
<wgt id='1591'> +1.3089387e-12 </wgt>
<wgt id='1592'> +1.3081168e-12 </wgt>
<wgt id='1593'> +1.3084390e-12 </wgt>
<wgt id='1594'> +1.3087197e-12 </wgt>
<wgt id='1595'> +1.3082018e-12 </wgt>
<wgt id='1596'> +1.3085713e-12 </wgt>
<wgt id='1597'> +1.3084157e-12 </wgt>
<wgt id='1598'> +1.3082275e-12 </wgt>
<wgt id='1599'> +1.3084430e-12 </wgt>
<wgt id='1600'> +1.3086602e-12 </wgt>
<wgt id='1601'> +1.3084890e-12 </wgt>
<wgt id='1602'> +1.3082175e-12 </wgt>
<wgt id='1603'> +1.3083549e-12 </wgt>
<wgt id='1604'> +1.3088119e-12 </wgt>
<wgt id='1605'> +1.3085549e-12 </wgt>
<wgt id='1606'> +1.3084544e-12 </wgt>
<wgt id='1607'> +1.3085255e-12 </wgt>
<wgt id='1608'> +1.3082610e-12 </wgt>
<wgt id='1609'> +1.3087028e-12 </wgt>
<wgt id='1610'> +1.2799003e-12 </wgt>
<wgt id='1611'> +1.3400914e-12 </wgt>
<wgt id='1612'> +1.5059004e-12 </wgt>
<wgt id='1613'> +1.5026570e-12 </wgt>
<wgt id='1614'> +1.5531586e-12 </wgt>
<wgt id='1615'> +1.4954778e-12 </wgt>
<wgt id='1616'> +1.5472817e-12 </wgt>
<wgt id='1617'> +1.5346981e-12 </wgt>
<wgt id='1618'> +1.5403884e-12 </wgt>
<wgt id='1619'> +1.5166648e-12 </wgt>
<wgt id='1620'> +1.4957473e-12 </wgt>
<wgt id='1621'> +1.5273416e-12 </wgt>
<wgt id='1622'> +1.4854313e-12 </wgt>
<wgt id='1623'> +1.5383244e-12 </wgt>
<wgt id='1624'> +1.5315018e-12 </wgt>
<wgt id='1625'> +1.4584027e-12 </wgt>
<wgt id='1626'> +1.4727348e-12 </wgt>
<wgt id='1627'> +1.5307375e-12 </wgt>
<wgt id='1628'> +1.5467806e-12 </wgt>
<wgt id='1629'> +1.4755665e-12 </wgt>
<wgt id='1630'> +1.4687788e-12 </wgt>
<wgt id='1631'> +1.5152993e-12 </wgt>
<wgt id='1632'> +1.4817707e-12 </wgt>
<wgt id='1633'> +1.4990098e-12 </wgt>
<wgt id='1634'> +1.4916004e-12 </wgt>
<wgt id='1635'> +1.4703592e-12 </wgt>
<wgt id='1636'> +1.5709191e-12 </wgt>
<wgt id='1637'> +1.4885906e-12 </wgt>
<wgt id='1638'> +1.4969182e-12 </wgt>
<wgt id='1639'> +1.5038391e-12 </wgt>
<wgt id='1640'> +1.4605972e-12 </wgt>
<wgt id='1641'> +1.5051585e-12 </wgt>
<wgt id='1642'> +1.4876955e-12 </wgt>
<wgt id='1643'> +1.5600729e-12 </wgt>
<wgt id='1644'> +1.4385103e-12 </wgt>
<wgt id='1645'> +1.4829675e-12 </wgt>
<wgt id='1646'> +1.4954755e-12 </wgt>
<wgt id='1647'> +1.5022059e-12 </wgt>
<wgt id='1648'> +1.5071739e-12 </wgt>
<wgt id='1649'> +1.5870346e-12 </wgt>
<wgt id='1650'> +1.5096563e-12 </wgt>
<wgt id='1651'> +1.5449862e-12 </wgt>
<wgt id='1652'> +1.5114102e-12 </wgt>
<wgt id='1653'> +1.5193147e-12 </wgt>
<wgt id='1654'> +1.5288364e-12 </wgt>
<wgt id='1655'> +1.5411336e-12 </wgt>
<wgt id='1656'> +1.4331543e-12 </wgt>
<wgt id='1657'> +1.5254129e-12 </wgt>
<wgt id='1658'> +1.5264020e-12 </wgt>
<wgt id='1659'> +1.5315018e-12 </wgt>
<wgt id='1660'> +1.5255550e-12 </wgt>
<wgt id='1661'> +1.4950352e-12 </wgt>
<wgt id='1662'> +1.5025373e-12 </wgt>
<wgt id='1663'> +1.4754126e-12 </wgt>
<wgt id='1664'> +1.4671240e-12 </wgt>
<wgt id='1665'> +1.5070197e-12 </wgt>
<wgt id='1666'> +1.5349292e-12 </wgt>
<wgt id='1667'> +1.5098065e-12 </wgt>
<wgt id='1668'> +1.5480890e-12 </wgt>
<wgt id='1669'> +1.4512329e-12 </wgt>
<wgt id='1670'> +1.4965536e-12 </wgt>
<wgt id='1671'> +1.4450789e-12 </wgt>
<wgt id='1672'> +1.4570126e-12 </wgt>
<wgt id='1673'> +1.4853977e-12 </wgt>
<wgt id='1674'> +1.4918727e-12 </wgt>
<wgt id='1675'> +1.4714631e-12 </wgt>
<wgt id='1676'> +1.4783563e-12 </wgt>
<wgt id='1677'> +1.5401712e-12 </wgt>
<wgt id='1678'> +1.4945482e-12 </wgt>
<wgt id='1679'> +1.5099228e-12 </wgt>
<wgt id='1680'> +1.5133642e-12 </wgt>
<wgt id='1681'> +1.4683748e-12 </wgt>
<wgt id='1682'> +1.4970532e-12 </wgt>
<wgt id='1683'> +1.4965864e-12 </wgt>
<wgt id='1684'> +1.5295025e-12 </wgt>
<wgt id='1685'> +1.4894124e-12 </wgt>
<wgt id='1686'> +1.5100534e-12 </wgt>
<wgt id='1687'> +1.5264907e-12 </wgt>
<wgt id='1688'> +1.5372447e-12 </wgt>
<wgt id='1689'> +1.4947825e-12 </wgt>
<wgt id='1690'> +1.4211524e-12 </wgt>
<wgt id='1691'> +1.4728968e-12 </wgt>
<wgt id='1692'> +1.5257980e-12 </wgt>
<wgt id='1693'> +1.5265828e-12 </wgt>
<wgt id='1694'> +1.4805488e-12 </wgt>
<wgt id='1695'> +1.5303599e-12 </wgt>
<wgt id='1696'> +1.4860122e-12 </wgt>
<wgt id='1697'> +1.5387384e-12 </wgt>
<wgt id='1698'> +1.4943406e-12 </wgt>
<wgt id='1699'> +1.5256277e-12 </wgt>
<wgt id='1700'> +1.5224760e-12 </wgt>
<wgt id='1701'> +1.5236801e-12 </wgt>
<wgt id='1702'> +1.4898349e-12 </wgt>
<wgt id='1703'> +1.4910424e-12 </wgt>
<wgt id='1704'> +1.5184846e-12 </wgt>
<wgt id='1705'> +1.4888594e-12 </wgt>
<wgt id='1706'> +1.5253095e-12 </wgt>
<wgt id='1707'> +1.5449418e-12 </wgt>
<wgt id='1708'> +1.5237699e-12 </wgt>
<wgt id='1709'> +1.4962971e-12 </wgt>
<wgt id='1710'> +1.5019571e-12 </wgt>
<wgt id='1711'> +1.5617293e-12 </wgt>
<wgt id='1712'> +1.5157227e-12 </wgt>
<wgt id='1713'> +1.2807113e-12 </wgt>
<wgt id='1714'> +1.2824217e-12 </wgt>
<wgt id='1715'> +1.2713011e-12 </wgt>
<wgt id='1716'> +1.3080624e-12 </wgt>
<wgt id='1717'> +1.2753245e-12 </wgt>
<wgt id='1718'> +1.3245715e-12 </wgt>
<wgt id='1719'> +1.3391732e-12 </wgt>
<wgt id='1720'> +1.2595828e-12 </wgt>
<wgt id='1721'> +1.2774527e-12 </wgt>
<wgt id='1722'> +1.2946274e-12 </wgt>
<wgt id='1723'> +1.2668575e-12 </wgt>
<wgt id='1724'> +1.0640599e-12 </wgt>
<wgt id='1725'> +1.3287497e-12 </wgt>
<wgt id='1726'> +1.3280410e-12 </wgt>
<wgt id='1727'> +1.2571696e-12 </wgt>
<wgt id='1728'> +1.2958910e-12 </wgt>
<wgt id='1729'> +1.2666505e-12 </wgt>
<wgt id='1730'> +1.2700433e-12 </wgt>
<wgt id='1731'> +1.2624817e-12 </wgt>
<wgt id='1732'> +1.3142647e-12 </wgt>
<wgt id='1733'> +1.3259358e-12 </wgt>
<wgt id='1734'> +1.3229116e-12 </wgt>
<wgt id='1735'> +1.2222248e-12 </wgt>
<wgt id='1736'> +1.3568127e-12 </wgt>
<wgt id='1737'> +1.3278028e-12 </wgt>
<wgt id='1738'> +1.2713960e-12 </wgt>
<wgt id='1739'> +1.2994114e-12 </wgt>
<wgt id='1740'> +1.2496939e-12 </wgt>
<wgt id='1741'> +1.2847484e-12 </wgt>
<wgt id='1742'> +1.3140506e-12 </wgt>
<wgt id='1743'> +1.3175735e-12 </wgt>
<wgt id='1744'> +1.3157297e-12 </wgt>
<wgt id='1745'> +1.1866295e-12 </wgt>
<wgt id='1746'> +1.2851725e-12 </wgt>
<wgt id='1747'> +1.3146458e-12 </wgt>
<wgt id='1748'> +1.2763535e-12 </wgt>
<wgt id='1749'> +1.2799318e-12 </wgt>
<wgt id='1750'> +1.2997670e-12 </wgt>
<wgt id='1751'> +1.2162758e-12 </wgt>
<wgt id='1752'> +1.2839866e-12 </wgt>
<wgt id='1753'> +1.2774425e-12 </wgt>
<wgt id='1754'> +1.3006192e-12 </wgt>
<wgt id='1755'> +1.2710229e-12 </wgt>
<wgt id='1756'> +1.2674602e-12 </wgt>
<wgt id='1757'> +1.2859607e-12 </wgt>
<wgt id='1758'> +1.2961525e-12 </wgt>
<wgt id='1759'> +1.3206957e-12 </wgt>
<wgt id='1760'> +1.2645377e-12 </wgt>
<wgt id='1761'> +1.2905391e-12 </wgt>
<wgt id='1762'> +1.3119256e-12 </wgt>
<wgt id='1763'> +1.2844197e-12 </wgt>
<wgt id='1764'> +1.2876249e-12 </wgt>
<wgt id='1765'> +1.2585816e-12 </wgt>
<wgt id='1766'> +1.3218154e-12 </wgt>
<wgt id='1767'> +1.2867717e-12 </wgt>
<wgt id='1768'> +1.2587363e-12 </wgt>
<wgt id='1769'> +1.2743651e-12 </wgt>
<wgt id='1770'> +1.3070321e-12 </wgt>
<wgt id='1771'> +1.2749867e-12 </wgt>
<wgt id='1772'> +1.3363156e-12 </wgt>
<wgt id='1773'> +1.2785599e-12 </wgt>
<wgt id='1774'> +1.2817469e-12 </wgt>
<wgt id='1775'> +1.2919768e-12 </wgt>
<wgt id='1776'> +1.2927806e-12 </wgt>
<wgt id='1777'> +1.2313734e-12 </wgt>
<wgt id='1778'> +1.2509095e-12 </wgt>
<wgt id='1779'> +1.2830607e-12 </wgt>
<wgt id='1780'> +1.3016401e-12 </wgt>
<wgt id='1781'> +1.2904952e-12 </wgt>
<wgt id='1782'> +1.2224208e-12 </wgt>
<wgt id='1783'> +1.2572774e-12 </wgt>
<wgt id='1784'> +1.2515074e-12 </wgt>
<wgt id='1785'> +1.2689952e-12 </wgt>
<wgt id='1786'> +1.1977590e-12 </wgt>
<wgt id='1787'> +1.3296900e-12 </wgt>
<wgt id='1788'> +1.2667255e-12 </wgt>
<wgt id='1789'> +1.1887919e-12 </wgt>
<wgt id='1790'> +1.2545937e-12 </wgt>
<wgt id='1791'> +1.2776032e-12 </wgt>
<wgt id='1792'> +1.2383383e-12 </wgt>
<wgt id='1793'> +1.2716287e-12 </wgt>
<wgt id='1794'> +1.2739259e-12 </wgt>
<wgt id='1795'> +1.2904292e-12 </wgt>
<wgt id='1796'> +1.3160842e-12 </wgt>
<wgt id='1797'> +1.2776929e-12 </wgt>
<wgt id='1798'> +1.2734903e-12 </wgt>
<wgt id='1799'> +1.2656531e-12 </wgt>
<wgt id='1800'> +1.2760523e-12 </wgt>
<wgt id='1801'> +1.2656100e-12 </wgt>
<wgt id='1802'> +1.3023742e-12 </wgt>
<wgt id='1803'> +1.2934051e-12 </wgt>
<wgt id='1804'> +1.2940641e-12 </wgt>
<wgt id='1805'> +1.2532738e-12 </wgt>
<wgt id='1806'> +1.2789625e-12 </wgt>
<wgt id='1807'> +1.2754350e-12 </wgt>
<wgt id='1808'> +1.2796882e-12 </wgt>
<wgt id='1809'> +1.2716979e-12 </wgt>
<wgt id='1810'> +1.3107058e-12 </wgt>
<wgt id='1811'> +1.3084042e-12 </wgt>
<wgt id='1812'> +1.3036367e-12 </wgt>
<wgt id='1813'> +1.3260554e-12 </wgt>
<wgt id='1814'> +1.2677228e-12 </wgt>
<wgt id='1815'> +1.4030789e-12 </wgt>
<wgt id='1816'> +1.2807113e-12 </wgt>
<wgt id='1817'> +1.2824217e-12 </wgt>
<wgt id='1818'> +1.2713011e-12 </wgt>
<wgt id='1819'> +1.3080624e-12 </wgt>
<wgt id='1820'> +1.2753245e-12 </wgt>
<wgt id='1821'> +1.3245715e-12 </wgt>
<wgt id='1822'> +1.3391732e-12 </wgt>
<wgt id='1823'> +1.2595828e-12 </wgt>
<wgt id='1824'> +1.2774527e-12 </wgt>
<wgt id='1825'> +1.2946274e-12 </wgt>
<wgt id='1826'> +1.2668575e-12 </wgt>
<wgt id='1827'> +1.0640599e-12 </wgt>
<wgt id='1828'> +1.3287497e-12 </wgt>
<wgt id='1829'> +1.3280410e-12 </wgt>
<wgt id='1830'> +1.2571696e-12 </wgt>
<wgt id='1831'> +1.2958910e-12 </wgt>
<wgt id='1832'> +1.2666505e-12 </wgt>
<wgt id='1833'> +1.2700433e-12 </wgt>
<wgt id='1834'> +1.2624817e-12 </wgt>
<wgt id='1835'> +1.3142647e-12 </wgt>
<wgt id='1836'> +1.3259358e-12 </wgt>
<wgt id='1837'> +1.3229116e-12 </wgt>
<wgt id='1838'> +1.2222248e-12 </wgt>
<wgt id='1839'> +1.3568127e-12 </wgt>
<wgt id='1840'> +1.3278028e-12 </wgt>
<wgt id='1841'> +1.2713960e-12 </wgt>
<wgt id='1842'> +1.2994114e-12 </wgt>
<wgt id='1843'> +1.2496939e-12 </wgt>
<wgt id='1844'> +1.2847484e-12 </wgt>
<wgt id='1845'> +1.3140506e-12 </wgt>
<wgt id='1846'> +1.3175735e-12 </wgt>
<wgt id='1847'> +1.3157297e-12 </wgt>
<wgt id='1848'> +1.1866295e-12 </wgt>
<wgt id='1849'> +1.2851725e-12 </wgt>
<wgt id='1850'> +1.3146458e-12 </wgt>
<wgt id='1851'> +1.2763535e-12 </wgt>
<wgt id='1852'> +1.2799318e-12 </wgt>
<wgt id='1853'> +1.2997670e-12 </wgt>
<wgt id='1854'> +1.2162758e-12 </wgt>
<wgt id='1855'> +1.2839866e-12 </wgt>
<wgt id='1856'> +1.2774425e-12 </wgt>
<wgt id='1857'> +1.3006192e-12 </wgt>
<wgt id='1858'> +1.2710229e-12 </wgt>
<wgt id='1859'> +1.2674602e-12 </wgt>
<wgt id='1860'> +1.2859607e-12 </wgt>
<wgt id='1861'> +1.2961525e-12 </wgt>
<wgt id='1862'> +1.3206957e-12 </wgt>
<wgt id='1863'> +1.2645377e-12 </wgt>
<wgt id='1864'> +1.2905391e-12 </wgt>
<wgt id='1865'> +1.3119256e-12 </wgt>
<wgt id='1866'> +1.2844197e-12 </wgt>
<wgt id='1867'> +1.2876249e-12 </wgt>
<wgt id='1868'> +1.2585816e-12 </wgt>
<wgt id='1869'> +1.3218154e-12 </wgt>
<wgt id='1870'> +1.2867717e-12 </wgt>
<wgt id='1871'> +1.2587363e-12 </wgt>
<wgt id='1872'> +1.2743651e-12 </wgt>
<wgt id='1873'> +1.3070321e-12 </wgt>
<wgt id='1874'> +1.2749867e-12 </wgt>
<wgt id='1875'> +1.3363156e-12 </wgt>
<wgt id='1876'> +1.2785599e-12 </wgt>
<wgt id='1877'> +1.2817469e-12 </wgt>
<wgt id='1878'> +1.2919768e-12 </wgt>
<wgt id='1879'> +1.2927806e-12 </wgt>
<wgt id='1880'> +1.2313734e-12 </wgt>
<wgt id='1881'> +1.2509095e-12 </wgt>
<wgt id='1882'> +1.2830607e-12 </wgt>
<wgt id='1883'> +1.3016401e-12 </wgt>
<wgt id='1884'> +1.2904952e-12 </wgt>
<wgt id='1885'> +1.2224208e-12 </wgt>
<wgt id='1886'> +1.2572774e-12 </wgt>
<wgt id='1887'> +1.2515074e-12 </wgt>
<wgt id='1888'> +1.2689952e-12 </wgt>
<wgt id='1889'> +1.1977590e-12 </wgt>
<wgt id='1890'> +1.3296900e-12 </wgt>
<wgt id='1891'> +1.2667255e-12 </wgt>
<wgt id='1892'> +1.1887919e-12 </wgt>
<wgt id='1893'> +1.2545937e-12 </wgt>
<wgt id='1894'> +1.2776032e-12 </wgt>
<wgt id='1895'> +1.2383383e-12 </wgt>
<wgt id='1896'> +1.2716287e-12 </wgt>
<wgt id='1897'> +1.2739259e-12 </wgt>
<wgt id='1898'> +1.2904292e-12 </wgt>
<wgt id='1899'> +1.3160842e-12 </wgt>
<wgt id='1900'> +1.2776929e-12 </wgt>
<wgt id='1901'> +1.2734903e-12 </wgt>
<wgt id='1902'> +1.2656531e-12 </wgt>
<wgt id='1903'> +1.2760523e-12 </wgt>
<wgt id='1904'> +1.2656100e-12 </wgt>
<wgt id='1905'> +1.3023742e-12 </wgt>
<wgt id='1906'> +1.2934051e-12 </wgt>
<wgt id='1907'> +1.2940641e-12 </wgt>
<wgt id='1908'> +1.2532738e-12 </wgt>
<wgt id='1909'> +1.2789625e-12 </wgt>
<wgt id='1910'> +1.2754350e-12 </wgt>
<wgt id='1911'> +1.2796882e-12 </wgt>
<wgt id='1912'> +1.2716979e-12 </wgt>
<wgt id='1913'> +1.3107058e-12 </wgt>
<wgt id='1914'> +1.3084042e-12 </wgt>
<wgt id='1915'> +1.3036367e-12 </wgt>
<wgt id='1916'> +1.3260554e-12 </wgt>
<wgt id='1917'> +1.2697571e-12 </wgt>
<wgt id='1918'> +1.2955593e-12 </wgt>
<wgt id='1919'> +1.2986313e-12 </wgt>
</rwgt>
</event>
<event>
 9      1 +1.5538000e-12 7.28996100e+01 7.81860800e-03 1.22568400e-01
       21 -1    0    0  501  502 +0.0000000000e+00 +0.0000000000e+00 +1.3046991333e+02 1.3046991333e+02 0.0000000000e+00 0.0000e+00 -1.0000e+00
        2 -1    0    0  502    0 -0.0000000000e+00 -0.0000000000e+00 -1.0183100607e+01 1.0183100607e+01 0.0000000000e+00 0.0000e+00 -1.0000e+00
     1023  2    1    2    0    0 +2.5459239015e+01 -9.4696647757e+00 +2.0390525788e+01 3.7129511554e+01 1.4999322789e+01 0.0000e+00 0.0000e+00
  1000023  2    3    3    0    0 +7.0356386849e+00 -4.6408811878e+00 +1.2167173179e+01 1.5790117744e+01 5.4999750251e+00 0.0000e+00 0.0000e+00
        2  1    1    2  501    0 -2.5459239015e+01 +9.4696647757e+00 +9.9896286937e+01 1.0352350238e+02 0.0000000000e+00 0.0000e+00 -1.0000e+00
  1000022  1    4    4    0    0 +6.4264286943e+00 -4.2955350156e+00 +1.1459460237e+01 1.4699314125e+01 5.0000000000e+00 0.0000e+00 -1.0000e+00
      -13  1    4    4    0    0 +5.0985170863e-02 +5.8528993163e-02 +1.3976313438e-01 1.9165425751e-01 1.0570000000e-01 0.0000e+00 1.0000e+00
       13  1    4    4    0    0 +5.5822481973e-01 -4.0387516539e-01 +5.6794980821e-01 8.9914936091e-01 1.0570000000e-01 0.0000e+00 -1.0000e+00
  1000022  1    3    3    0    0 +1.8423600330e+01 -4.8287835878e+00 +8.2233526082e+00 2.1339393810e+01 5.0000000000e+00 0.0000e+00 -1.0000e+00
<mgrwt>
<rscale>  1 0.72899609E+02</rscale>
<asrwt>0</asrwt>
<pdfrwt beam="1">  1       21 0.20072293E-01 0.72899609E+02</pdfrwt>
<pdfrwt beam="2">  1        2 0.15666310E-02 0.72899609E+02</pdfrwt>
<totfact> 0.24022347E+06</totfact>
</mgrwt>
<rwgt>
<wgt id='1001'> +1.5538000e-12 </wgt>
<wgt id='1002'> +1.5636105e-12 </wgt>
<wgt id='1003'> +1.5629880e-12 </wgt>
<wgt id='1004'> +1.5712890e-12 </wgt>
<wgt id='1005'> +1.5538000e-12 </wgt>
<wgt id='1006'> +1.3878898e-12 </wgt>
<wgt id='1007'> +1.3889968e-12 </wgt>
<wgt id='1008'> +1.3890388e-12 </wgt>
<wgt id='1009'> +1.3728777e-12 </wgt>
<wgt id='1010'> +1.3878898e-12 </wgt>
<wgt id='1011'> +1.7666139e-12 </wgt>
<wgt id='1012'> +1.7905962e-12 </wgt>
<wgt id='1013'> +1.7888745e-12 </wgt>
<wgt id='1014'> +1.8401149e-12 </wgt>
<wgt id='1015'> +1.7666138e-12 </wgt>
<wgt id='1016'> +1.6986407e-12 </wgt>
<wgt id='1017'> +1.7256095e-12 </wgt>
<wgt id='1018'> +1.7236167e-12 </wgt>
<wgt id='1019'> +1.7888745e-12 </wgt>
<wgt id='1020'> +1.6986407e-12 </wgt>
<wgt id='1021'> +1.5172649e-12 </wgt>
<wgt id='1022'> +1.5329048e-12 </wgt>
<wgt id='1023'> +1.5317906e-12 </wgt>
<wgt id='1024'> +1.5629880e-12 </wgt>
<wgt id='1025'> +1.5172649e-12 </wgt>
<wgt id='1026'> +1.9312925e-12 </wgt>
<wgt id='1027'> +1.9761123e-12 </wgt>
<wgt id='1028'> +1.9727175e-12 </wgt>
<wgt id='1029'> +2.0949262e-12 </wgt>
<wgt id='1030'> +1.9312925e-12 </wgt>
<wgt id='1031'> +1.3825310e-12 </wgt>
<wgt id='1032'> +1.3718694e-12 </wgt>
<wgt id='1033'> +1.3728777e-12 </wgt>
<wgt id='1034'> +1.3148889e-12 </wgt>
<wgt id='1035'> +1.3825310e-12 </wgt>
<wgt id='1036'> +1.2349084e-12 </wgt>
<wgt id='1037'> +1.2186681e-12 </wgt>
<wgt id='1038'> +1.2200864e-12 </wgt>
<wgt id='1039'> +1.1488540e-12 </wgt>
<wgt id='1040'> +1.2349084e-12 </wgt>
<wgt id='1041'> +1.5718873e-12 </wgt>
<wgt id='1042'> +1.5710205e-12 </wgt>
<wgt id='1043'> +1.5712890e-12 </wgt>
<wgt id='1044'> +1.5398483e-12 </wgt>
<wgt id='1045'> +1.5718873e-12 </wgt>
<wgt id='1046'> +1.5538000e-12 </wgt>
<wgt id='1047'> +1.5621561e-12 </wgt>
<wgt id='1048'> +1.5357622e-12 </wgt>
<wgt id='1049'> +1.5869752e-12 </wgt>
<wgt id='1050'> +1.5509224e-12 </wgt>
<wgt id='1051'> +1.5560721e-12 </wgt>
<wgt id='1052'> +1.5650961e-12 </wgt>
<wgt id='1053'> +1.5310626e-12 </wgt>
<wgt id='1054'> +1.5353433e-12 </wgt>
<wgt id='1055'> +1.5500079e-12 </wgt>
<wgt id='1056'> +1.5733654e-12 </wgt>
<wgt id='1057'> +1.5826321e-12 </wgt>
<wgt id='1058'> +1.5216703e-12 </wgt>
<wgt id='1059'> +1.5492598e-12 </wgt>
<wgt id='1060'> +1.5463968e-12 </wgt>
<wgt id='1061'> +1.5787159e-12 </wgt>
<wgt id='1062'> +1.5699577e-12 </wgt>
<wgt id='1063'> +1.5954328e-12 </wgt>
<wgt id='1064'> +1.5360249e-12 </wgt>
<wgt id='1065'> +1.5453972e-12 </wgt>
<wgt id='1066'> +1.5436896e-12 </wgt>
<wgt id='1067'> +1.5023561e-12 </wgt>
<wgt id='1068'> +1.5457900e-12 </wgt>
<wgt id='1069'> +1.5350014e-12 </wgt>
<wgt id='1070'> +1.5267326e-12 </wgt>
<wgt id='1071'> +1.5189544e-12 </wgt>
<wgt id='1072'> +1.5695046e-12 </wgt>
<wgt id='1073'> +1.6018745e-12 </wgt>
<wgt id='1074'> +1.5210404e-12 </wgt>
<wgt id='1075'> +1.5756102e-12 </wgt>
<wgt id='1076'> +1.5940801e-12 </wgt>
<wgt id='1077'> +1.5656598e-12 </wgt>
<wgt id='1078'> +1.5528982e-12 </wgt>
<wgt id='1079'> +1.5428861e-12 </wgt>
<wgt id='1080'> +1.5292953e-12 </wgt>
<wgt id='1081'> +1.5912313e-12 </wgt>
<wgt id='1082'> +1.5413232e-12 </wgt>
<wgt id='1083'> +1.5441179e-12 </wgt>
<wgt id='1084'> +1.5472907e-12 </wgt>
<wgt id='1085'> +1.5497165e-12 </wgt>
<wgt id='1086'> +1.5510352e-12 </wgt>
<wgt id='1087'> +1.5727855e-12 </wgt>
<wgt id='1088'> +1.5343176e-12 </wgt>
<wgt id='1089'> +1.5709536e-12 </wgt>
<wgt id='1090'> +1.5416642e-12 </wgt>
<wgt id='1091'> +1.5386099e-12 </wgt>
<wgt id='1092'> +1.5718766e-12 </wgt>
<wgt id='1093'> +1.5241603e-12 </wgt>
<wgt id='1094'> +1.5495531e-12 </wgt>
<wgt id='1095'> +1.5923690e-12 </wgt>
<wgt id='1096'> +1.5862836e-12 </wgt>
<wgt id='1097'> +1.5343270e-12 </wgt>
<wgt id='1098'> +1.5177710e-12 </wgt>
<wgt id='1099'> +1.5782810e-12 </wgt>
<wgt id='1100'> +1.5446763e-12 </wgt>
<wgt id='1101'> +1.5496263e-12 </wgt>
<wgt id='1102'> +1.5457551e-12 </wgt>
<wgt id='1103'> +1.5572035e-12 </wgt>
<wgt id='1104'> +1.5226432e-12 </wgt>
<wgt id='1105'> +1.5933518e-12 </wgt>
<wgt id='1106'> +1.5543982e-12 </wgt>
<wgt id='1107'> +1.5626564e-12 </wgt>
<wgt id='1108'> +1.5421075e-12 </wgt>
<wgt id='1109'> +1.5576837e-12 </wgt>
<wgt id='1110'> +1.5494587e-12 </wgt>
<wgt id='1111'> +1.5436837e-12 </wgt>
<wgt id='1112'> +1.5597645e-12 </wgt>
<wgt id='1113'> +1.5346762e-12 </wgt>
<wgt id='1114'> +1.5729520e-12 </wgt>
<wgt id='1115'> +1.5345038e-12 </wgt>
<wgt id='1116'> +1.5117927e-12 </wgt>
<wgt id='1117'> +1.5747740e-12 </wgt>
<wgt id='1118'> +1.5766132e-12 </wgt>
<wgt id='1119'> +1.5377516e-12 </wgt>
<wgt id='1120'> +1.5760219e-12 </wgt>
<wgt id='1121'> +1.5635686e-12 </wgt>
<wgt id='1122'> +1.6052354e-12 </wgt>
<wgt id='1123'> +1.5263675e-12 </wgt>
<wgt id='1124'> +1.5572716e-12 </wgt>
<wgt id='1125'> +1.5561180e-12 </wgt>
<wgt id='1126'> +1.5631554e-12 </wgt>
<wgt id='1127'> +1.5266626e-12 </wgt>
<wgt id='1128'> +1.5699577e-12 </wgt>
<wgt id='1129'> +1.5537900e-12 </wgt>
<wgt id='1130'> +1.5575081e-12 </wgt>
<wgt id='1131'> +1.5709411e-12 </wgt>
<wgt id='1132'> +1.5325041e-12 </wgt>
<wgt id='1133'> +1.5693651e-12 </wgt>
<wgt id='1134'> +1.5890052e-12 </wgt>
<wgt id='1135'> +1.5684599e-12 </wgt>
<wgt id='1136'> +1.5217589e-12 </wgt>
<wgt id='1137'> +1.5294364e-12 </wgt>
<wgt id='1138'> +1.5689598e-12 </wgt>
<wgt id='1139'> +1.5682353e-12 </wgt>
<wgt id='1140'> +1.5563641e-12 </wgt>
<wgt id='1141'> +1.5220493e-12 </wgt>
<wgt id='1142'> +1.5400983e-12 </wgt>
<wgt id='1143'> +1.5540537e-12 </wgt>
<wgt id='1144'> +1.5638007e-12 </wgt>
<wgt id='1145'> +1.5670813e-12 </wgt>
<wgt id='1146'> +1.5414398e-12 </wgt>
<wgt id='1147'> +1.2364695e-12 </wgt>
<wgt id='1148'> +1.2600646e-12 </wgt>
<wgt id='1149'> +1.3330717e-12 </wgt>
<wgt id='1150'> +1.2707142e-12 </wgt>
<wgt id='1151'> +1.1398190e-12 </wgt>
<wgt id='1152'> +1.4665533e-12 </wgt>
<wgt id='1153'> +1.4594019e-12 </wgt>
<wgt id='1154'> +1.4706723e-12 </wgt>
<wgt id='1155'> +1.4665224e-12 </wgt>
<wgt id='1156'> +1.4665088e-12 </wgt>
<wgt id='1157'> +1.4676811e-12 </wgt>
<wgt id='1158'> +1.4649228e-12 </wgt>
<wgt id='1159'> +1.4675228e-12 </wgt>
<wgt id='1160'> +1.4658954e-12 </wgt>
<wgt id='1161'> +1.4629720e-12 </wgt>
<wgt id='1162'> +1.4689976e-12 </wgt>
<wgt id='1163'> +1.4704976e-12 </wgt>
<wgt id='1164'> +1.4626021e-12 </wgt>
<wgt id='1165'> +1.4577117e-12 </wgt>
<wgt id='1166'> +1.4750110e-12 </wgt>
<wgt id='1167'> +1.4700160e-12 </wgt>
<wgt id='1168'> +1.4604624e-12 </wgt>
<wgt id='1169'> +1.4674886e-12 </wgt>
<wgt id='1170'> +1.4657427e-12 </wgt>
<wgt id='1171'> +1.4659000e-12 </wgt>
<wgt id='1172'> +1.4672087e-12 </wgt>
<wgt id='1173'> +1.4638050e-12 </wgt>
<wgt id='1174'> +1.4685610e-12 </wgt>
<wgt id='1175'> +1.4647239e-12 </wgt>
<wgt id='1176'> +1.4671903e-12 </wgt>
<wgt id='1177'> +1.4678104e-12 </wgt>
<wgt id='1178'> +1.4632878e-12 </wgt>
<wgt id='1179'> +1.4789216e-12 </wgt>
<wgt id='1180'> +1.4499710e-12 </wgt>
<wgt id='1181'> +1.4592949e-12 </wgt>
<wgt id='1182'> +1.4736233e-12 </wgt>
<wgt id='1183'> +1.4672343e-12 </wgt>
<wgt id='1184'> +1.4664565e-12 </wgt>
<wgt id='1185'> +1.4627581e-12 </wgt>
<wgt id='1186'> +1.4684265e-12 </wgt>
<wgt id='1187'> +1.4652456e-12 </wgt>
<wgt id='1188'> +1.4670091e-12 </wgt>
<wgt id='1189'> +1.4656970e-12 </wgt>
<wgt id='1190'> +1.4527692e-12 </wgt>
<wgt id='1191'> +1.4583559e-12 </wgt>
<wgt id='1192'> +1.4706958e-12 </wgt>
<wgt id='1193'> +1.2988611e-12 </wgt>
<wgt id='1194'> +1.2972756e-12 </wgt>
<wgt id='1195'> +1.3000138e-12 </wgt>
<wgt id='1196'> +1.3039012e-12 </wgt>
<wgt id='1197'> +1.2932814e-12 </wgt>
<wgt id='1198'> +1.2996098e-12 </wgt>
<wgt id='1199'> +1.2977264e-12 </wgt>
<wgt id='1200'> +1.3007313e-12 </wgt>
<wgt id='1201'> +1.2975920e-12 </wgt>
<wgt id='1202'> +1.2968086e-12 </wgt>
<wgt id='1203'> +1.3017275e-12 </wgt>
<wgt id='1204'> +1.2867024e-12 </wgt>
<wgt id='1205'> +1.3063379e-12 </wgt>
<wgt id='1206'> +1.3029912e-12 </wgt>
<wgt id='1207'> +1.2931549e-12 </wgt>
<wgt id='1208'> +1.2914594e-12 </wgt>
<wgt id='1209'> +1.3015056e-12 </wgt>
<wgt id='1210'> +1.2992493e-12 </wgt>
<wgt id='1211'> +1.2911566e-12 </wgt>
<wgt id='1212'> +1.2988438e-12 </wgt>
<wgt id='1213'> +1.2987946e-12 </wgt>
<wgt id='1214'> +1.2882733e-12 </wgt>
<wgt id='1215'> +1.3152413e-12 </wgt>
<wgt id='1216'> +1.3040631e-12 </wgt>
<wgt id='1217'> +1.2951080e-12 </wgt>
<wgt id='1218'> +1.3019711e-12 </wgt>
<wgt id='1219'> +1.2970870e-12 </wgt>
<wgt id='1220'> +1.3017344e-12 </wgt>
<wgt id='1221'> +1.2990527e-12 </wgt>
<wgt id='1222'> +1.2946917e-12 </wgt>
<wgt id='1223'> +1.3060979e-12 </wgt>
<wgt id='1224'> +1.2997232e-12 </wgt>
<wgt id='1225'> +1.2984760e-12 </wgt>
<wgt id='1226'> +1.2975323e-12 </wgt>
<wgt id='1227'> +1.2997744e-12 </wgt>
<wgt id='1228'> +1.2965166e-12 </wgt>
<wgt id='1229'> +1.2996455e-12 </wgt>
<wgt id='1230'> +1.3018010e-12 </wgt>
<wgt id='1231'> +1.2873492e-12 </wgt>
<wgt id='1232'> +1.2975184e-12 </wgt>
<wgt id='1233'> +1.2991906e-12 </wgt>
<wgt id='1234'> +1.2988611e-12 </wgt>
<wgt id='1235'> +1.2915238e-12 </wgt>
<wgt id='1236'> +1.2943037e-12 </wgt>
<wgt id='1237'> +1.2966879e-12 </wgt>
<wgt id='1238'> +1.3009953e-12 </wgt>
<wgt id='1239'> +1.3027116e-12 </wgt>
<wgt id='1240'> +1.3042669e-12 </wgt>
<wgt id='1241'> +1.3133696e-12 </wgt>
<wgt id='1242'> +1.3090909e-12 </wgt>
<wgt id='1243'> +1.3176832e-12 </wgt>
<wgt id='1244'> +1.3064257e-12 </wgt>
<wgt id='1245'> +1.3186077e-12 </wgt>
<wgt id='1246'> +1.3143637e-12 </wgt>
<wgt id='1247'> +1.3126324e-12 </wgt>
<wgt id='1248'> +1.3133304e-12 </wgt>
<wgt id='1249'> +1.3135612e-12 </wgt>
<wgt id='1250'> +1.3136716e-12 </wgt>
<wgt id='1251'> +1.3132465e-12 </wgt>
<wgt id='1252'> +1.3108412e-12 </wgt>
<wgt id='1253'> +1.3154345e-12 </wgt>
<wgt id='1254'> +1.3016452e-12 </wgt>
<wgt id='1255'> +1.3205332e-12 </wgt>
<wgt id='1256'> +1.3177640e-12 </wgt>
<wgt id='1257'> +1.3025510e-12 </wgt>
<wgt id='1258'> +1.3274456e-12 </wgt>
<wgt id='1259'> +1.3001484e-12 </wgt>
<wgt id='1260'> +1.3164538e-12 </wgt>
<wgt id='1261'> +1.3100893e-12 </wgt>
<wgt id='1262'> +1.3148742e-12 </wgt>
<wgt id='1263'> +1.3126642e-12 </wgt>
<wgt id='1264'> +1.3168786e-12 </wgt>
<wgt id='1265'> +1.3117657e-12 </wgt>
<wgt id='1266'> +1.3147573e-12 </wgt>
<wgt id='1267'> +1.3128771e-12 </wgt>
<wgt id='1268'> +1.3122738e-12 </wgt>
<wgt id='1269'> +1.3184415e-12 </wgt>
<wgt id='1270'> +1.3096113e-12 </wgt>
<wgt id='1271'> +1.3079731e-12 </wgt>
<wgt id='1272'> +1.3145108e-12 </wgt>
<wgt id='1273'> +1.3127187e-12 </wgt>
<wgt id='1274'> +1.3148799e-12 </wgt>
<wgt id='1275'> +1.3102186e-12 </wgt>
<wgt id='1276'> +1.3139519e-12 </wgt>
<wgt id='1277'> +1.3119515e-12 </wgt>
<wgt id='1278'> +1.3103887e-12 </wgt>
<wgt id='1279'> +1.3115760e-12 </wgt>
<wgt id='1280'> +1.3138892e-12 </wgt>
<wgt id='1281'> +1.3110192e-12 </wgt>
<wgt id='1282'> +1.3133696e-12 </wgt>
<wgt id='1283'> +1.3051558e-12 </wgt>
<wgt id='1284'> +1.3083141e-12 </wgt>
<wgt id='1285'> +1.3111676e-12 </wgt>
<wgt id='1286'> +1.3157291e-12 </wgt>
<wgt id='1287'> +1.3176076e-12 </wgt>
<wgt id='1288'> +1.3191802e-12 </wgt>
<wgt id='1289'> +1.3432791e-12 </wgt>
<wgt id='1290'> +1.3473663e-12 </wgt>
<wgt id='1291'> +1.3389923e-12 </wgt>
<wgt id='1292'> +1.3393663e-12 </wgt>
<wgt id='1293'> +1.3461699e-12 </wgt>
<wgt id='1294'> +1.3448871e-12 </wgt>
<wgt id='1295'> +1.3416872e-12 </wgt>
<wgt id='1296'> +1.3373138e-12 </wgt>
<wgt id='1297'> +1.3507260e-12 </wgt>
<wgt id='1298'> +1.3483191e-12 </wgt>
<wgt id='1299'> +1.3370371e-12 </wgt>
<wgt id='1300'> +1.3462721e-12 </wgt>
<wgt id='1301'> +1.3373285e-12 </wgt>
<wgt id='1302'> +1.3425245e-12 </wgt>
<wgt id='1303'> +1.3443406e-12 </wgt>
<wgt id='1304'> +1.3410180e-12 </wgt>
<wgt id='1305'> +1.3448065e-12 </wgt>
<wgt id='1306'> +1.3380900e-12 </wgt>
<wgt id='1307'> +1.3492969e-12 </wgt>
<wgt id='1308'> +1.3524910e-12 </wgt>
<wgt id='1309'> +1.3363445e-12 </wgt>
<wgt id='1310'> +1.3422061e-12 </wgt>
<wgt id='1311'> +1.3445854e-12 </wgt>
<wgt id='1312'> +1.3385413e-12 </wgt>
<wgt id='1313'> +1.3483121e-12 </wgt>
<wgt id='1314'> +1.3500346e-12 </wgt>
<wgt id='1315'> +1.3306058e-12 </wgt>
<wgt id='1316'> +1.3483145e-12 </wgt>
<wgt id='1317'> +1.3437172e-12 </wgt>
<wgt id='1318'> +1.3490471e-12 </wgt>
<wgt id='1319'> +1.3361559e-12 </wgt>
<wgt id='1320'> +1.3466990e-12 </wgt>
<wgt id='1321'> +1.3395092e-12 </wgt>
<wgt id='1322'> +1.3429378e-12 </wgt>
<wgt id='1323'> +1.3434740e-12 </wgt>
<wgt id='1324'> +1.3426229e-12 </wgt>
<wgt id='1325'> +1.3485029e-12 </wgt>
<wgt id='1326'> +1.3434914e-12 </wgt>
<wgt id='1327'> +1.3448551e-12 </wgt>
<wgt id='1328'> +1.3431966e-12 </wgt>
<wgt id='1329'> +1.3432557e-12 </wgt>
<wgt id='1330'> +1.3205826e-12 </wgt>
<wgt id='1331'> +1.3583897e-12 </wgt>
<wgt id='1332'> +1.3627205e-12 </wgt>
<wgt id='1333'> +1.3303095e-12 </wgt>
<wgt id='1334'> +1.3392331e-12 </wgt>
<wgt id='1335'> +1.3530691e-12 </wgt>
<wgt id='1336'> +1.3452102e-12 </wgt>
<wgt id='1337'> +1.3331214e-12 </wgt>
<wgt id='1338'> +1.3439797e-12 </wgt>
<wgt id='1339'> +1.3426661e-12 </wgt>
<wgt id='1340'> +1.3223219e-12 </wgt>
<wgt id='1341'> +1.3264553e-12 </wgt>
<wgt id='1342'> +1.3178146e-12 </wgt>
<wgt id='1343'> +1.3183235e-12 </wgt>
<wgt id='1344'> +1.3250270e-12 </wgt>
<wgt id='1345'> +1.3238294e-12 </wgt>
<wgt id='1346'> +1.3208875e-12 </wgt>
<wgt id='1347'> +1.3162186e-12 </wgt>
<wgt id='1348'> +1.3290797e-12 </wgt>
<wgt id='1349'> +1.3267939e-12 </wgt>
<wgt id='1350'> +1.3179019e-12 </wgt>
<wgt id='1351'> +1.3253601e-12 </wgt>
<wgt id='1352'> +1.3157206e-12 </wgt>
<wgt id='1353'> +1.3211228e-12 </wgt>
<wgt id='1354'> +1.3243968e-12 </wgt>
<wgt id='1355'> +1.3200765e-12 </wgt>
<wgt id='1356'> +1.3235095e-12 </wgt>
<wgt id='1357'> +1.3193184e-12 </wgt>
<wgt id='1358'> +1.3258576e-12 </wgt>
<wgt id='1359'> +1.3328802e-12 </wgt>
<wgt id='1360'> +1.3131579e-12 </wgt>
<wgt id='1361'> +1.3209853e-12 </wgt>
<wgt id='1362'> +1.3242283e-12 </wgt>
<wgt id='1363'> +1.3151349e-12 </wgt>
<wgt id='1364'> +1.3275670e-12 </wgt>
<wgt id='1365'> +1.3118837e-12 </wgt>
<wgt id='1366'> +1.3275593e-12 </wgt>
<wgt id='1367'> +1.3267233e-12 </wgt>
<wgt id='1368'> +1.3225505e-12 </wgt>
<wgt id='1369'> +1.3274115e-12 </wgt>
<wgt id='1370'> +1.3160748e-12 </wgt>
<wgt id='1371'> +1.3247441e-12 </wgt>
<wgt id='1372'> +1.3185457e-12 </wgt>
<wgt id='1373'> +1.3215512e-12 </wgt>
<wgt id='1374'> +1.3226040e-12 </wgt>
<wgt id='1375'> +1.3216532e-12 </wgt>
<wgt id='1376'> +1.3274474e-12 </wgt>
<wgt id='1377'> +1.3227089e-12 </wgt>
<wgt id='1378'> +1.3239634e-12 </wgt>
<wgt id='1379'> +1.3218361e-12 </wgt>
<wgt id='1380'> +1.3226581e-12 </wgt>
<wgt id='1381'> +1.2988038e-12 </wgt>
<wgt id='1382'> +1.3362152e-12 </wgt>
<wgt id='1383'> +1.3426699e-12 </wgt>
<wgt id='1384'> +1.3067240e-12 </wgt>
<wgt id='1385'> +1.3180413e-12 </wgt>
<wgt id='1386'> +1.3319515e-12 </wgt>
<wgt id='1387'> +1.3245016e-12 </wgt>
<wgt id='1388'> +1.3101742e-12 </wgt>
<wgt id='1389'> +1.3230880e-12 </wgt>
<wgt id='1390'> +1.3211129e-12 </wgt>
<wgt id='1391'> +1.2866081e-12 </wgt>
<wgt id='1392'> +1.2589521e-12 </wgt>
<wgt id='1393'> +1.2676611e-12 </wgt>
<wgt id='1394'> +1.2770267e-12 </wgt>
<wgt id='1395'> +1.2937937e-12 </wgt>
<wgt id='1396'> +1.2859707e-12 </wgt>
<wgt id='1397'> +1.2563167e-12 </wgt>
<wgt id='1398'> +1.2626809e-12 </wgt>
<wgt id='1399'> +1.2685300e-12 </wgt>
<wgt id='1400'> +1.2742132e-12 </wgt>
<wgt id='1401'> +1.2801303e-12 </wgt>
<wgt id='1402'> +1.2910146e-12 </wgt>
<wgt id='1403'> +1.2962839e-12 </wgt>
<wgt id='1404'> +1.3009868e-12 </wgt>
<wgt id='1405'> +1.2859707e-12 </wgt>
<wgt id='1406'> +1.2822810e-12 </wgt>
<wgt id='1407'> +1.2843229e-12 </wgt>
<wgt id='1408'> +1.2875657e-12 </wgt>
<wgt id='1409'> +1.2888022e-12 </wgt>
<wgt id='1410'> +1.2992693e-12 </wgt>
<wgt id='1411'> +1.3017147e-12 </wgt>
<wgt id='1412'> +1.2961367e-12 </wgt>
<wgt id='1413'> +1.3053808e-12 </wgt>
<wgt id='1414'> +1.2932465e-12 </wgt>
<wgt id='1415'> +1.2953256e-12 </wgt>
<wgt id='1416'> +1.3008624e-12 </wgt>
<wgt id='1417'> +1.2916220e-12 </wgt>
<wgt id='1418'> +1.3068655e-12 </wgt>
<wgt id='1419'> +1.3008399e-12 </wgt>
<wgt id='1420'> +1.2976697e-12 </wgt>
<wgt id='1421'> +1.2881716e-12 </wgt>
<wgt id='1422'> +1.3040381e-12 </wgt>
<wgt id='1423'> +1.2990150e-12 </wgt>
<wgt id='1424'> +1.2995543e-12 </wgt>
<wgt id='1425'> +1.2964546e-12 </wgt>
<wgt id='1426'> +1.3023062e-12 </wgt>
<wgt id='1427'> +1.3026789e-12 </wgt>
<wgt id='1428'> +1.2972445e-12 </wgt>
<wgt id='1429'> +1.2922851e-12 </wgt>
<wgt id='1430'> +1.3086710e-12 </wgt>
<wgt id='1431'> +1.3039092e-12 </wgt>
<wgt id='1432'> +1.2959607e-12 </wgt>
<wgt id='1433'> +1.3075800e-12 </wgt>
<wgt id='1434'> +1.2902606e-12 </wgt>
<wgt id='1435'> +1.3035557e-12 </wgt>
<wgt id='1436'> +1.2889626e-12 </wgt>
<wgt id='1437'> +1.3047391e-12 </wgt>
<wgt id='1438'> +1.2983443e-12 </wgt>
<wgt id='1439'> +1.2946746e-12 </wgt>
<wgt id='1440'> +1.3095483e-12 </wgt>
<wgt id='1441'> +1.3002617e-12 </wgt>
<wgt id='1442'> +1.2976715e-12 </wgt>
<wgt id='1443'> +1.2983417e-12 </wgt>
<wgt id='1444'> +1.3022889e-12 </wgt>
<wgt id='1445'> +1.3051114e-12 </wgt>
<wgt id='1446'> +1.2977086e-12 </wgt>
<wgt id='1447'> +1.3000810e-12 </wgt>
<wgt id='1448'> +1.2998314e-12 </wgt>
<wgt id='1449'> +1.2991889e-12 </wgt>
<wgt id='1450'> +1.2991834e-12 </wgt>
<wgt id='1451'> +1.3074422e-12 </wgt>
<wgt id='1452'> +1.2768611e-12 </wgt>
<wgt id='1453'> +1.3013509e-12 </wgt>
<wgt id='1454'> +1.2862061e-12 </wgt>
<wgt id='1455'> +1.2829808e-12 </wgt>
<wgt id='1456'> +1.3084540e-12 </wgt>
<wgt id='1457'> +1.3068888e-12 </wgt>
<wgt id='1458'> +1.2958760e-12 </wgt>
<wgt id='1459'> +1.3001947e-12 </wgt>
<wgt id='1460'> +1.2968337e-12 </wgt>
<wgt id='1461'> +1.2992693e-12 </wgt>
<wgt id='1462'> +1.2924577e-12 </wgt>
<wgt id='1463'> +1.3074707e-12 </wgt>
<wgt id='1464'> +1.3001548e-12 </wgt>
<wgt id='1465'> +1.2776132e-12 </wgt>
<wgt id='1466'> +1.2825269e-12 </wgt>
<wgt id='1467'> +1.2875183e-12 </wgt>
<wgt id='1468'> +1.2914262e-12 </wgt>
<wgt id='1469'> +1.2959372e-12 </wgt>
<wgt id='1470'> +1.3046604e-12 </wgt>
<wgt id='1471'> +1.3079298e-12 </wgt>
<wgt id='1472'> +1.3121016e-12 </wgt>
<wgt id='1473'> +1.3001548e-12 </wgt>
<wgt id='1474'> +1.2959128e-12 </wgt>
<wgt id='1475'> +1.2975526e-12 </wgt>
<wgt id='1476'> +1.3019037e-12 </wgt>
<wgt id='1477'> +1.3037086e-12 </wgt>
<wgt id='1478'> +1.2652751e-12 </wgt>
<wgt id='1479'> +1.2639018e-12 </wgt>
<wgt id='1480'> +1.2712332e-12 </wgt>
<wgt id='1481'> +1.2583928e-12 </wgt>
<wgt id='1482'> +1.2647507e-12 </wgt>
<wgt id='1483'> +1.2509205e-12 </wgt>
<wgt id='1484'> +1.2675944e-12 </wgt>
<wgt id='1485'> +1.2660764e-12 </wgt>
<wgt id='1486'> +1.2659714e-12 </wgt>
<wgt id='1487'> +1.2653976e-12 </wgt>
<wgt id='1488'> +1.2616132e-12 </wgt>
<wgt id='1489'> +1.2865904e-12 </wgt>
<wgt id='1490'> +1.2647155e-12 </wgt>
<wgt id='1491'> +1.2630366e-12 </wgt>
<wgt id='1492'> +1.2656198e-12 </wgt>
<wgt id='1493'> +1.2637777e-12 </wgt>
<wgt id='1494'> +1.2815168e-12 </wgt>
<wgt id='1495'> +1.2654506e-12 </wgt>
<wgt id='1496'> +1.2642367e-12 </wgt>
<wgt id='1497'> +1.2652983e-12 </wgt>
<wgt id='1498'> +1.2641700e-12 </wgt>
<wgt id='1499'> +1.2668951e-12 </wgt>
<wgt id='1500'> +1.2662226e-12 </wgt>
<wgt id='1501'> +1.2647042e-12 </wgt>
<wgt id='1502'> +1.2648284e-12 </wgt>
<wgt id='1503'> +1.2673816e-12 </wgt>
<wgt id='1504'> +1.2644916e-12 </wgt>
<wgt id='1505'> +1.2650279e-12 </wgt>
<wgt id='1506'> +1.2636115e-12 </wgt>
<wgt id='1507'> +1.2636363e-12 </wgt>
<wgt id='1508'> +1.2712090e-12 </wgt>
<wgt id='1509'> +1.3263660e-12 </wgt>
<wgt id='1510'> +1.3245810e-12 </wgt>
<wgt id='1511'> +1.3304145e-12 </wgt>
<wgt id='1512'> +1.3285455e-12 </wgt>
<wgt id='1513'> +1.3335963e-12 </wgt>
<wgt id='1514'> +1.3244310e-12 </wgt>
<wgt id='1515'> +1.3211089e-12 </wgt>
<wgt id='1516'> +1.3227772e-12 </wgt>
<wgt id='1517'> +1.3223921e-12 </wgt>
<wgt id='1518'> +1.3318825e-12 </wgt>
<wgt id='1519'> +1.3226016e-12 </wgt>
<wgt id='1520'> +1.3270822e-12 </wgt>
<wgt id='1521'> +1.3335876e-12 </wgt>
<wgt id='1522'> +1.3313602e-12 </wgt>
<wgt id='1523'> +1.3341194e-12 </wgt>
<wgt id='1524'> +1.3288089e-12 </wgt>
<wgt id='1525'> +1.3275511e-12 </wgt>
<wgt id='1526'> +1.3239432e-12 </wgt>
<wgt id='1527'> +1.3292384e-12 </wgt>
<wgt id='1528'> +1.3290958e-12 </wgt>
<wgt id='1529'> +1.3319677e-12 </wgt>
<wgt id='1530'> +1.3280451e-12 </wgt>
<wgt id='1531'> +1.3295909e-12 </wgt>
<wgt id='1532'> +1.3291604e-12 </wgt>
<wgt id='1533'> +1.3257295e-12 </wgt>
<wgt id='1534'> +1.3299837e-12 </wgt>
<wgt id='1535'> +1.3216230e-12 </wgt>
<wgt id='1536'> +1.3223426e-12 </wgt>
<wgt id='1537'> +1.3262090e-12 </wgt>
<wgt id='1538'> +1.3279115e-12 </wgt>
<wgt id='1539'> +1.3285762e-12 </wgt>
<wgt id='1540'> +1.3267535e-12 </wgt>
<wgt id='1541'> +1.3272408e-12 </wgt>
<wgt id='1542'> +1.3269973e-12 </wgt>
<wgt id='1543'> +1.3246793e-12 </wgt>
<wgt id='1544'> +1.3258183e-12 </wgt>
<wgt id='1545'> +1.3275861e-12 </wgt>
<wgt id='1546'> +1.3270538e-12 </wgt>
<wgt id='1547'> +1.3272289e-12 </wgt>
<wgt id='1548'> +1.3249739e-12 </wgt>
<wgt id='1549'> +1.3246154e-12 </wgt>
<wgt id='1550'> +1.3275618e-12 </wgt>
<wgt id='1551'> +1.3261298e-12 </wgt>
<wgt id='1552'> +1.3263902e-12 </wgt>
<wgt id='1553'> +1.3276521e-12 </wgt>
<wgt id='1554'> +1.3267950e-12 </wgt>
<wgt id='1555'> +1.3267585e-12 </wgt>
<wgt id='1556'> +1.3259406e-12 </wgt>
<wgt id='1557'> +1.3259755e-12 </wgt>
<wgt id='1558'> +1.3272656e-12 </wgt>
<wgt id='1559'> +1.3275356e-12 </wgt>
<wgt id='1560'> +1.3270464e-12 </wgt>
<wgt id='1561'> +1.3271766e-12 </wgt>
<wgt id='1562'> +1.3269986e-12 </wgt>
<wgt id='1563'> +1.3268387e-12 </wgt>
<wgt id='1564'> +1.3253452e-12 </wgt>
<wgt id='1565'> +1.3262150e-12 </wgt>
<wgt id='1566'> +1.3259322e-12 </wgt>
<wgt id='1567'> +1.3248323e-12 </wgt>
<wgt id='1568'> +1.3276091e-12 </wgt>
<wgt id='1569'> +1.3269823e-12 </wgt>
<wgt id='1570'> +1.3258148e-12 </wgt>
<wgt id='1571'> +1.3265287e-12 </wgt>
<wgt id='1572'> +1.3266253e-12 </wgt>
<wgt id='1573'> +1.3261716e-12 </wgt>
<wgt id='1574'> +1.3266583e-12 </wgt>
<wgt id='1575'> +1.3260696e-12 </wgt>
<wgt id='1576'> +1.3263926e-12 </wgt>
<wgt id='1577'> +1.3259382e-12 </wgt>
<wgt id='1578'> +1.3265674e-12 </wgt>
<wgt id='1579'> +1.3262766e-12 </wgt>
<wgt id='1580'> +1.3261044e-12 </wgt>
<wgt id='1581'> +1.3262018e-12 </wgt>
<wgt id='1582'> +1.3265777e-12 </wgt>
<wgt id='1583'> +1.3262243e-12 </wgt>
<wgt id='1584'> +1.3261876e-12 </wgt>
<wgt id='1585'> +1.3270542e-12 </wgt>
<wgt id='1586'> +1.3262565e-12 </wgt>
<wgt id='1587'> +1.3258847e-12 </wgt>
<wgt id='1588'> +1.3261726e-12 </wgt>
<wgt id='1589'> +1.3258804e-12 </wgt>
<wgt id='1590'> +1.3265090e-12 </wgt>
<wgt id='1591'> +1.3262611e-12 </wgt>
<wgt id='1592'> +1.3265465e-12 </wgt>
<wgt id='1593'> +1.3259568e-12 </wgt>
<wgt id='1594'> +1.3264569e-12 </wgt>
<wgt id='1595'> +1.3261912e-12 </wgt>
<wgt id='1596'> +1.3262297e-12 </wgt>
<wgt id='1597'> +1.3266722e-12 </wgt>
<wgt id='1598'> +1.3265632e-12 </wgt>
<wgt id='1599'> +1.3258932e-12 </wgt>
<wgt id='1600'> +1.3263246e-12 </wgt>
<wgt id='1601'> +1.3263867e-12 </wgt>
<wgt id='1602'> +1.3261588e-12 </wgt>
<wgt id='1603'> +1.3263047e-12 </wgt>
<wgt id='1604'> +1.3263969e-12 </wgt>
<wgt id='1605'> +1.3264370e-12 </wgt>
<wgt id='1606'> +1.3267853e-12 </wgt>
<wgt id='1607'> +1.3264805e-12 </wgt>
<wgt id='1608'> +1.3268588e-12 </wgt>
<wgt id='1609'> +1.3265651e-12 </wgt>
<wgt id='1610'> +1.3064227e-12 </wgt>
<wgt id='1611'> +1.3436665e-12 </wgt>
<wgt id='1612'> +1.5067980e-12 </wgt>
<wgt id='1613'> +1.5010039e-12 </wgt>
<wgt id='1614'> +1.5245525e-12 </wgt>
<wgt id='1615'> +1.4832748e-12 </wgt>
<wgt id='1616'> +1.5567164e-12 </wgt>
<wgt id='1617'> +1.5321197e-12 </wgt>
<wgt id='1618'> +1.4862908e-12 </wgt>
<wgt id='1619'> +1.5255245e-12 </wgt>
<wgt id='1620'> +1.4910803e-12 </wgt>
<wgt id='1621'> +1.5082947e-12 </wgt>
<wgt id='1622'> +1.5011501e-12 </wgt>
<wgt id='1623'> +1.5289268e-12 </wgt>
<wgt id='1624'> +1.4865259e-12 </wgt>
<wgt id='1625'> +1.4920567e-12 </wgt>
<wgt id='1626'> +1.4970160e-12 </wgt>
<wgt id='1627'> +1.5004828e-12 </wgt>
<wgt id='1628'> +1.5362561e-12 </wgt>
<wgt id='1629'> +1.5455415e-12 </wgt>
<wgt id='1630'> +1.5236683e-12 </wgt>
<wgt id='1631'> +1.4871538e-12 </wgt>
<wgt id='1632'> +1.4865631e-12 </wgt>
<wgt id='1633'> +1.4775363e-12 </wgt>
<wgt id='1634'> +1.5491364e-12 </wgt>
<wgt id='1635'> +1.5044900e-12 </wgt>
<wgt id='1636'> +1.5473743e-12 </wgt>
<wgt id='1637'> +1.4595464e-12 </wgt>
<wgt id='1638'> +1.5182546e-12 </wgt>
<wgt id='1639'> +1.5354454e-12 </wgt>
<wgt id='1640'> +1.5237540e-12 </wgt>
<wgt id='1641'> +1.4969983e-12 </wgt>
<wgt id='1642'> +1.4987915e-12 </wgt>
<wgt id='1643'> +1.5501128e-12 </wgt>
<wgt id='1644'> +1.4347326e-12 </wgt>
<wgt id='1645'> +1.5061963e-12 </wgt>
<wgt id='1646'> +1.5216837e-12 </wgt>
<wgt id='1647'> +1.5147538e-12 </wgt>
<wgt id='1648'> +1.5074122e-12 </wgt>
<wgt id='1649'> +1.5153980e-12 </wgt>
<wgt id='1650'> +1.4933975e-12 </wgt>
<wgt id='1651'> +1.4808480e-12 </wgt>
<wgt id='1652'> +1.5138723e-12 </wgt>
<wgt id='1653'> +1.5285705e-12 </wgt>
<wgt id='1654'> +1.5065633e-12 </wgt>
<wgt id='1655'> +1.4856920e-12 </wgt>
<wgt id='1656'> +1.4512020e-12 </wgt>
<wgt id='1657'> +1.4951666e-12 </wgt>
<wgt id='1658'> +1.4874529e-12 </wgt>
<wgt id='1659'> +1.4865259e-12 </wgt>
<wgt id='1660'> +1.4975533e-12 </wgt>
<wgt id='1661'> +1.4970176e-12 </wgt>
<wgt id='1662'> +1.4872874e-12 </wgt>
<wgt id='1663'> +1.4962476e-12 </wgt>
<wgt id='1664'> +1.4984995e-12 </wgt>
<wgt id='1665'> +1.4738502e-12 </wgt>
<wgt id='1666'> +1.5167429e-12 </wgt>
<wgt id='1667'> +1.5098158e-12 </wgt>
<wgt id='1668'> +1.5566300e-12 </wgt>
<wgt id='1669'> +1.4532661e-12 </wgt>
<wgt id='1670'> +1.5119197e-12 </wgt>
<wgt id='1671'> +1.4841655e-12 </wgt>
<wgt id='1672'> +1.4997252e-12 </wgt>
<wgt id='1673'> +1.4794793e-12 </wgt>
<wgt id='1674'> +1.4961695e-12 </wgt>
<wgt id='1675'> +1.5220277e-12 </wgt>
<wgt id='1676'> +1.5272154e-12 </wgt>
<wgt id='1677'> +1.5569174e-12 </wgt>
<wgt id='1678'> +1.5022581e-12 </wgt>
<wgt id='1679'> +1.5418642e-12 </wgt>
<wgt id='1680'> +1.4951986e-12 </wgt>
<wgt id='1681'> +1.5240681e-12 </wgt>
<wgt id='1682'> +1.5136911e-12 </wgt>
<wgt id='1683'> +1.4911789e-12 </wgt>
<wgt id='1684'> +1.4895752e-12 </wgt>
<wgt id='1685'> +1.4926005e-12 </wgt>
<wgt id='1686'> +1.5066771e-12 </wgt>
<wgt id='1687'> +1.5482169e-12 </wgt>
<wgt id='1688'> +1.5108552e-12 </wgt>
<wgt id='1689'> +1.4807705e-12 </wgt>
<wgt id='1690'> +1.5294117e-12 </wgt>
<wgt id='1691'> +1.5412711e-12 </wgt>
<wgt id='1692'> +1.5246801e-12 </wgt>
<wgt id='1693'> +1.5348665e-12 </wgt>
<wgt id='1694'> +1.4527599e-12 </wgt>
<wgt id='1695'> +1.5190922e-12 </wgt>
<wgt id='1696'> +1.5438377e-12 </wgt>
<wgt id='1697'> +1.5020961e-12 </wgt>
<wgt id='1698'> +1.4946927e-12 </wgt>
<wgt id='1699'> +1.5163657e-12 </wgt>
<wgt id='1700'> +1.4989381e-12 </wgt>
<wgt id='1701'> +1.5002514e-12 </wgt>
<wgt id='1702'> +1.5121168e-12 </wgt>
<wgt id='1703'> +1.5236635e-12 </wgt>
<wgt id='1704'> +1.4879180e-12 </wgt>
<wgt id='1705'> +1.4964359e-12 </wgt>
<wgt id='1706'> +1.5056858e-12 </wgt>
<wgt id='1707'> +1.5143864e-12 </wgt>
<wgt id='1708'> +1.4811788e-12 </wgt>
<wgt id='1709'> +1.4977840e-12 </wgt>
<wgt id='1710'> +1.4954161e-12 </wgt>
<wgt id='1711'> +1.5652727e-12 </wgt>
<wgt id='1712'> +1.4982371e-12 </wgt>
<wgt id='1713'> +1.2610081e-12 </wgt>
<wgt id='1714'> +1.2388161e-12 </wgt>
<wgt id='1715'> +1.2678927e-12 </wgt>
<wgt id='1716'> +1.2622689e-12 </wgt>
<wgt id='1717'> +1.2621057e-12 </wgt>
<wgt id='1718'> +1.2474811e-12 </wgt>
<wgt id='1719'> +1.2815739e-12 </wgt>
<wgt id='1720'> +1.2740148e-12 </wgt>
<wgt id='1721'> +1.2521077e-12 </wgt>
<wgt id='1722'> +1.2522943e-12 </wgt>
<wgt id='1723'> +1.2033375e-12 </wgt>
<wgt id='1724'> +1.1383419e-12 </wgt>
<wgt id='1725'> +1.2965848e-12 </wgt>
<wgt id='1726'> +1.3242224e-12 </wgt>
<wgt id='1727'> +1.2155626e-12 </wgt>
<wgt id='1728'> +1.2645959e-12 </wgt>
<wgt id='1729'> +1.2621064e-12 </wgt>
<wgt id='1730'> +1.2398854e-12 </wgt>
<wgt id='1731'> +1.2375727e-12 </wgt>
<wgt id='1732'> +1.2886171e-12 </wgt>
<wgt id='1733'> +1.2932886e-12 </wgt>
<wgt id='1734'> +1.2753750e-12 </wgt>
<wgt id='1735'> +1.2096844e-12 </wgt>
<wgt id='1736'> +1.3363753e-12 </wgt>
<wgt id='1737'> +1.2844903e-12 </wgt>
<wgt id='1738'> +1.2792230e-12 </wgt>
<wgt id='1739'> +1.2417618e-12 </wgt>
<wgt id='1740'> +1.2518225e-12 </wgt>
<wgt id='1741'> +1.2616793e-12 </wgt>
<wgt id='1742'> +1.2605257e-12 </wgt>
<wgt id='1743'> +1.2937709e-12 </wgt>
<wgt id='1744'> +1.2961041e-12 </wgt>
<wgt id='1745'> +1.1753106e-12 </wgt>
<wgt id='1746'> +1.2845710e-12 </wgt>
<wgt id='1747'> +1.2794457e-12 </wgt>
<wgt id='1748'> +1.2632036e-12 </wgt>
<wgt id='1749'> +1.3006087e-12 </wgt>
<wgt id='1750'> +1.2820711e-12 </wgt>
<wgt id='1751'> +1.2182018e-12 </wgt>
<wgt id='1752'> +1.2417284e-12 </wgt>
<wgt id='1753'> +1.2794044e-12 </wgt>
<wgt id='1754'> +1.2745560e-12 </wgt>
<wgt id='1755'> +1.2748327e-12 </wgt>
<wgt id='1756'> +1.2687133e-12 </wgt>
<wgt id='1757'> +1.2468726e-12 </wgt>
<wgt id='1758'> +1.2715710e-12 </wgt>
<wgt id='1759'> +1.2827838e-12 </wgt>
<wgt id='1760'> +1.2370559e-12 </wgt>
<wgt id='1761'> +1.2484060e-12 </wgt>
<wgt id='1762'> +1.2781102e-12 </wgt>
<wgt id='1763'> +1.2789054e-12 </wgt>
<wgt id='1764'> +1.2616473e-12 </wgt>
<wgt id='1765'> +1.2547897e-12 </wgt>
<wgt id='1766'> +1.2771330e-12 </wgt>
<wgt id='1767'> +1.2673312e-12 </wgt>
<wgt id='1768'> +1.2613430e-12 </wgt>
<wgt id='1769'> +1.2324861e-12 </wgt>
<wgt id='1770'> +1.3222261e-12 </wgt>
<wgt id='1771'> +1.2547695e-12 </wgt>
<wgt id='1772'> +1.2973095e-12 </wgt>
<wgt id='1773'> +1.2626240e-12 </wgt>
<wgt id='1774'> +1.2816928e-12 </wgt>
<wgt id='1775'> +1.2641962e-12 </wgt>
<wgt id='1776'> +1.2941760e-12 </wgt>
<wgt id='1777'> +1.2019998e-12 </wgt>
<wgt id='1778'> +1.2495026e-12 </wgt>
<wgt id='1779'> +1.2775860e-12 </wgt>
<wgt id='1780'> +1.2663137e-12 </wgt>
<wgt id='1781'> +1.2571456e-12 </wgt>
<wgt id='1782'> +1.2227036e-12 </wgt>
<wgt id='1783'> +1.2597109e-12 </wgt>
<wgt id='1784'> +1.2724089e-12 </wgt>
<wgt id='1785'> +1.2327722e-12 </wgt>
<wgt id='1786'> +1.1521357e-12 </wgt>
<wgt id='1787'> +1.2843270e-12 </wgt>
<wgt id='1788'> +1.2652418e-12 </wgt>
<wgt id='1789'> +1.1708506e-12 </wgt>
<wgt id='1790'> +1.2530811e-12 </wgt>
<wgt id='1791'> +1.2857398e-12 </wgt>
<wgt id='1792'> +1.2328243e-12 </wgt>
<wgt id='1793'> +1.2602580e-12 </wgt>
<wgt id='1794'> +1.2584279e-12 </wgt>
<wgt id='1795'> +1.2728560e-12 </wgt>
<wgt id='1796'> +1.2678744e-12 </wgt>
<wgt id='1797'> +1.2713464e-12 </wgt>
<wgt id='1798'> +1.2451307e-12 </wgt>
<wgt id='1799'> +1.2516124e-12 </wgt>
<wgt id='1800'> +1.2479784e-12 </wgt>
<wgt id='1801'> +1.2608757e-12 </wgt>
<wgt id='1802'> +1.2669308e-12 </wgt>
<wgt id='1803'> +1.2669395e-12 </wgt>
<wgt id='1804'> +1.2565555e-12 </wgt>
<wgt id='1805'> +1.2751636e-12 </wgt>
<wgt id='1806'> +1.2594761e-12 </wgt>
<wgt id='1807'> +1.2663794e-12 </wgt>
<wgt id='1808'> +1.2615892e-12 </wgt>
<wgt id='1809'> +1.2594323e-12 </wgt>
<wgt id='1810'> +1.2716713e-12 </wgt>
<wgt id='1811'> +1.3140691e-12 </wgt>
<wgt id='1812'> +1.3057567e-12 </wgt>
<wgt id='1813'> +1.2771760e-12 </wgt>
<wgt id='1814'> +1.2798932e-12 </wgt>
<wgt id='1815'> +1.4017703e-12 </wgt>
<wgt id='1816'> +1.2610081e-12 </wgt>
<wgt id='1817'> +1.2388161e-12 </wgt>
<wgt id='1818'> +1.2678927e-12 </wgt>
<wgt id='1819'> +1.2622689e-12 </wgt>
<wgt id='1820'> +1.2621057e-12 </wgt>
<wgt id='1821'> +1.2474811e-12 </wgt>
<wgt id='1822'> +1.2815739e-12 </wgt>
<wgt id='1823'> +1.2740148e-12 </wgt>
<wgt id='1824'> +1.2521077e-12 </wgt>
<wgt id='1825'> +1.2522943e-12 </wgt>
<wgt id='1826'> +1.2033375e-12 </wgt>
<wgt id='1827'> +1.1383419e-12 </wgt>
<wgt id='1828'> +1.2965848e-12 </wgt>
<wgt id='1829'> +1.3242224e-12 </wgt>
<wgt id='1830'> +1.2155626e-12 </wgt>
<wgt id='1831'> +1.2645959e-12 </wgt>
<wgt id='1832'> +1.2621064e-12 </wgt>
<wgt id='1833'> +1.2398854e-12 </wgt>
<wgt id='1834'> +1.2375727e-12 </wgt>
<wgt id='1835'> +1.2886171e-12 </wgt>
<wgt id='1836'> +1.2932886e-12 </wgt>
<wgt id='1837'> +1.2753750e-12 </wgt>
<wgt id='1838'> +1.2096844e-12 </wgt>
<wgt id='1839'> +1.3363753e-12 </wgt>
<wgt id='1840'> +1.2844903e-12 </wgt>
<wgt id='1841'> +1.2792230e-12 </wgt>
<wgt id='1842'> +1.2417618e-12 </wgt>
<wgt id='1843'> +1.2518225e-12 </wgt>
<wgt id='1844'> +1.2616793e-12 </wgt>
<wgt id='1845'> +1.2605257e-12 </wgt>
<wgt id='1846'> +1.2937709e-12 </wgt>
<wgt id='1847'> +1.2961041e-12 </wgt>
<wgt id='1848'> +1.1753106e-12 </wgt>
<wgt id='1849'> +1.2845710e-12 </wgt>
<wgt id='1850'> +1.2794457e-12 </wgt>
<wgt id='1851'> +1.2632036e-12 </wgt>
<wgt id='1852'> +1.3006087e-12 </wgt>
<wgt id='1853'> +1.2820711e-12 </wgt>
<wgt id='1854'> +1.2182018e-12 </wgt>
<wgt id='1855'> +1.2417284e-12 </wgt>
<wgt id='1856'> +1.2794044e-12 </wgt>
<wgt id='1857'> +1.2745560e-12 </wgt>
<wgt id='1858'> +1.2748327e-12 </wgt>
<wgt id='1859'> +1.2687133e-12 </wgt>
<wgt id='1860'> +1.2468726e-12 </wgt>
<wgt id='1861'> +1.2715710e-12 </wgt>
<wgt id='1862'> +1.2827838e-12 </wgt>
<wgt id='1863'> +1.2370559e-12 </wgt>
<wgt id='1864'> +1.2484060e-12 </wgt>
<wgt id='1865'> +1.2781102e-12 </wgt>
<wgt id='1866'> +1.2789054e-12 </wgt>
<wgt id='1867'> +1.2616473e-12 </wgt>
<wgt id='1868'> +1.2547897e-12 </wgt>
<wgt id='1869'> +1.2771330e-12 </wgt>
<wgt id='1870'> +1.2673312e-12 </wgt>
<wgt id='1871'> +1.2613430e-12 </wgt>
<wgt id='1872'> +1.2324861e-12 </wgt>
<wgt id='1873'> +1.3222261e-12 </wgt>
<wgt id='1874'> +1.2547695e-12 </wgt>
<wgt id='1875'> +1.2973095e-12 </wgt>
<wgt id='1876'> +1.2626240e-12 </wgt>
<wgt id='1877'> +1.2816928e-12 </wgt>
<wgt id='1878'> +1.2641962e-12 </wgt>
<wgt id='1879'> +1.2941760e-12 </wgt>
<wgt id='1880'> +1.2019998e-12 </wgt>
<wgt id='1881'> +1.2495026e-12 </wgt>
<wgt id='1882'> +1.2775860e-12 </wgt>
<wgt id='1883'> +1.2663137e-12 </wgt>
<wgt id='1884'> +1.2571456e-12 </wgt>
<wgt id='1885'> +1.2227036e-12 </wgt>
<wgt id='1886'> +1.2597109e-12 </wgt>
<wgt id='1887'> +1.2724089e-12 </wgt>
<wgt id='1888'> +1.2327722e-12 </wgt>
<wgt id='1889'> +1.1521357e-12 </wgt>
<wgt id='1890'> +1.2843270e-12 </wgt>
<wgt id='1891'> +1.2652418e-12 </wgt>
<wgt id='1892'> +1.1708506e-12 </wgt>
<wgt id='1893'> +1.2530811e-12 </wgt>
<wgt id='1894'> +1.2857398e-12 </wgt>
<wgt id='1895'> +1.2328243e-12 </wgt>
<wgt id='1896'> +1.2602580e-12 </wgt>
<wgt id='1897'> +1.2584279e-12 </wgt>
<wgt id='1898'> +1.2728560e-12 </wgt>
<wgt id='1899'> +1.2678744e-12 </wgt>
<wgt id='1900'> +1.2713464e-12 </wgt>
<wgt id='1901'> +1.2451307e-12 </wgt>
<wgt id='1902'> +1.2516124e-12 </wgt>
<wgt id='1903'> +1.2479784e-12 </wgt>
<wgt id='1904'> +1.2608757e-12 </wgt>
<wgt id='1905'> +1.2669308e-12 </wgt>
<wgt id='1906'> +1.2669395e-12 </wgt>
<wgt id='1907'> +1.2565555e-12 </wgt>
<wgt id='1908'> +1.2751636e-12 </wgt>
<wgt id='1909'> +1.2594761e-12 </wgt>
<wgt id='1910'> +1.2663794e-12 </wgt>
<wgt id='1911'> +1.2615892e-12 </wgt>
<wgt id='1912'> +1.2594323e-12 </wgt>
<wgt id='1913'> +1.2716713e-12 </wgt>
<wgt id='1914'> +1.3140691e-12 </wgt>
<wgt id='1915'> +1.3057567e-12 </wgt>
<wgt id='1916'> +1.2771760e-12 </wgt>
<wgt id='1917'> +1.2537764e-12 </wgt>
<wgt id='1918'> +1.2695240e-12 </wgt>
<wgt id='1919'> +1.3008510e-12 </wgt>
</rwgt>
</event>
<event>
 9      1 +1.5538000e-12 4.80027100e+01 7.81860800e-03 1.32147400e-01
       -2 -1    0    0    0  501 -0.0000000000e+00 +0.0000000000e+00 +1.8341193799e+01 1.8341193799e+01 0.0000000000e+00 0.0000e+00 1.0000e+00
       21 -1    0    0  501  502 +0.0000000000e+00 -0.0000000000e+00 -3.1408263016e+01 3.1408263016e+01 0.0000000000e+00 0.0000e+00 1.0000e+00
     1023  2    1    2    0    0 +1.2807673380e+01 -1.5944264977e+01 +2.1535930538e-01 2.5363415920e+01 1.5000013482e+01 0.0000e+00 0.0000e+00
  1000023  2    3    3    0    0 +2.9401970325e-01 -3.3764451618e+00 -2.0964275919e+00 6.7923098170e+00 5.5003303979e+00 0.0000e+00 0.0000e+00
       -2  1    1    2    0  502 -1.2807673380e+01 +1.5944264977e+01 -1.3282428522e+01 2.4386040894e+01 0.0000000000e+00 0.0000e+00 1.0000e+00
  1000022  1    4    4    0    0 +5.5410082901e-01 -2.9464268794e+00 -1.5870939356e+00 6.0421292807e+00 5.0000000000e+00 0.0000e+00 1.0000e+00
      -13  1    4    4    0    0 -1.3072616443e-01 -2.1025698478e-01 -1.9853809462e-01 3.3449543305e-01 1.0570000000e-01 0.0000e+00 -1.0000e+00
       13  1    4    4    0    0 -1.2935496133e-01 -2.1976129763e-01 -3.1079556165e-01 4.1568510330e-01 1.0570000000e-01 0.0000e+00 -1.0000e+00
  1000022  1    3    3    0    0 +1.2513653677e+01 -1.2567819815e+01 +2.3117868973e+00 1.8571106103e+01 5.0000000000e+00 0.0000e+00 1.0000e+00
<mgrwt>
<rscale>  1 0.48002710E+02</rscale>
<asrwt>0</asrwt>
<pdfrwt beam="1">  1       21 0.48320404E-02 0.48002710E+02</pdfrwt>
<pdfrwt beam="2">  1       -2 0.28217222E-02 0.48002710E+02</pdfrwt>
<totfact> 0.97215888E+06</totfact>
</mgrwt>
<rwgt>
<wgt id='1001'> +1.5538000e-12 </wgt>
<wgt id='1002'> +1.5465539e-12 </wgt>
<wgt id='1003'> +1.5477738e-12 </wgt>
<wgt id='1004'> +1.4507265e-12 </wgt>
<wgt id='1005'> +1.5538000e-12 </wgt>
<wgt id='1006'> +1.3757101e-12 </wgt>
<wgt id='1007'> +1.3670618e-12 </wgt>
<wgt id='1008'> +1.3685088e-12 </wgt>
<wgt id='1009'> +1.2589786e-12 </wgt>
<wgt id='1010'> +1.3757101e-12 </wgt>
<wgt id='1011'> +1.7872217e-12 </wgt>
<wgt id='1012'> +1.7827478e-12 </wgt>
<wgt id='1013'> +1.7835064e-12 </wgt>
<wgt id='1014'> +1.7150593e-12 </wgt>
<wgt id='1015'> +1.7872217e-12 </wgt>
<wgt id='1016'> +1.8122995e-12 </wgt>
<wgt id='1017'> +1.8111340e-12 </wgt>
<wgt id='1018'> +1.8113478e-12 </wgt>
<wgt id='1019'> +1.7835064e-12 </wgt>
<wgt id='1020'> +1.8122995e-12 </wgt>
<wgt id='1021'> +1.6045814e-12 </wgt>
<wgt id='1022'> +1.6009349e-12 </wgt>
<wgt id='1023'> +1.6015554e-12 </wgt>
<wgt id='1024'> +1.5477738e-12 </wgt>
<wgt id='1025'> +1.6045814e-12 </wgt>
<wgt id='1026'> +2.0845546e-12 </wgt>
<wgt id='1027'> +2.0877353e-12 </wgt>
<wgt id='1028'> +2.0872239e-12 </wgt>
<wgt id='1029'> +2.1084741e-12 </wgt>
<wgt id='1030'> +2.0845546e-12 </wgt>
<wgt id='1031'> +1.2701543e-12 </wgt>
<wgt id='1032'> +1.2567266e-12 </wgt>
<wgt id='1033'> +1.2589786e-12 </wgt>
<wgt id='1034'> +1.0922077e-12 </wgt>
<wgt id='1035'> +1.2701543e-12 </wgt>
<wgt id='1036'> +1.1245747e-12 </wgt>
<wgt id='1037'> +1.1108717e-12 </wgt>
<wgt id='1038'> +1.1131623e-12 </wgt>
<wgt id='1039'> +9.4784660e-13 </wgt>
<wgt id='1040'> +1.1245747e-12 </wgt>
<wgt id='1041'> +1.4609650e-12 </wgt>
<wgt id='1042'> +1.4486572e-12 </wgt>
<wgt id='1043'> +1.4507265e-12 </wgt>
<wgt id='1044'> +1.2912159e-12 </wgt>
<wgt id='1045'> +1.4609650e-12 </wgt>
<wgt id='1046'> +1.5538000e-12 </wgt>
<wgt id='1047'> +1.5791012e-12 </wgt>
<wgt id='1048'> +1.5383679e-12 </wgt>
<wgt id='1049'> +1.5233548e-12 </wgt>
<wgt id='1050'> +1.5381533e-12 </wgt>
<wgt id='1051'> +1.5433351e-12 </wgt>
<wgt id='1052'> +1.5580569e-12 </wgt>
<wgt id='1053'> +1.5422315e-12 </wgt>
<wgt id='1054'> +1.5446884e-12 </wgt>
<wgt id='1055'> +1.5259108e-12 </wgt>
<wgt id='1056'> +1.5461950e-12 </wgt>
<wgt id='1057'> +1.5922633e-12 </wgt>
<wgt id='1058'> +1.5042882e-12 </wgt>
<wgt id='1059'> +1.5545381e-12 </wgt>
<wgt id='1060'> +1.5602188e-12 </wgt>
<wgt id='1061'> +1.5696975e-12 </wgt>
<wgt id='1062'> +1.5651501e-12 </wgt>
<wgt id='1063'> +1.5753662e-12 </wgt>
<wgt id='1064'> +1.5466919e-12 </wgt>
<wgt id='1065'> +1.5571039e-12 </wgt>
<wgt id='1066'> +1.5443300e-12 </wgt>
<wgt id='1067'> +1.4974523e-12 </wgt>
<wgt id='1068'> +1.5623086e-12 </wgt>
<wgt id='1069'> +1.5507661e-12 </wgt>
<wgt id='1070'> +1.5450397e-12 </wgt>
<wgt id='1071'> +1.5350492e-12 </wgt>
<wgt id='1072'> +1.6059304e-12 </wgt>
<wgt id='1073'> +1.5905567e-12 </wgt>
<wgt id='1074'> +1.5248651e-12 </wgt>
<wgt id='1075'> +1.5642474e-12 </wgt>
<wgt id='1076'> +1.5686485e-12 </wgt>
<wgt id='1077'> +1.5586976e-12 </wgt>
<wgt id='1078'> +1.5311386e-12 </wgt>
<wgt id='1079'> +1.5530696e-12 </wgt>
<wgt id='1080'> +1.5355788e-12 </wgt>
<wgt id='1081'> +1.5989485e-12 </wgt>
<wgt id='1082'> +1.5523004e-12 </wgt>
<wgt id='1083'> +1.5675599e-12 </wgt>
<wgt id='1084'> +1.5611652e-12 </wgt>
<wgt id='1085'> +1.5266058e-12 </wgt>
<wgt id='1086'> +1.5744978e-12 </wgt>
<wgt id='1087'> +1.5852191e-12 </wgt>
<wgt id='1088'> +1.5412957e-12 </wgt>
<wgt id='1089'> +1.5623561e-12 </wgt>
<wgt id='1090'> +1.5393198e-12 </wgt>
<wgt id='1091'> +1.5511441e-12 </wgt>
<wgt id='1092'> +1.5819244e-12 </wgt>
<wgt id='1093'> +1.5564379e-12 </wgt>
<wgt id='1094'> +1.5786052e-12 </wgt>
<wgt id='1095'> +1.5722487e-12 </wgt>
<wgt id='1096'> +1.5658408e-12 </wgt>
<wgt id='1097'> +1.5061403e-12 </wgt>
<wgt id='1098'> +1.5313263e-12 </wgt>
<wgt id='1099'> +1.5729185e-12 </wgt>
<wgt id='1100'> +1.5398055e-12 </wgt>
<wgt id='1101'> +1.5928182e-12 </wgt>
<wgt id='1102'> +1.5331455e-12 </wgt>
<wgt id='1103'> +1.5592637e-12 </wgt>
<wgt id='1104'> +1.5438371e-12 </wgt>
<wgt id='1105'> +1.5834842e-12 </wgt>
<wgt id='1106'> +1.5736615e-12 </wgt>
<wgt id='1107'> +1.5508986e-12 </wgt>
<wgt id='1108'> +1.5472091e-12 </wgt>
<wgt id='1109'> +1.5679859e-12 </wgt>
<wgt id='1110'> +1.5513260e-12 </wgt>
<wgt id='1111'> +1.5726617e-12 </wgt>
<wgt id='1112'> +1.5862759e-12 </wgt>
<wgt id='1113'> +1.5352934e-12 </wgt>
<wgt id='1114'> +1.5726695e-12 </wgt>
<wgt id='1115'> +1.5501086e-12 </wgt>
<wgt id='1116'> +1.5168872e-12 </wgt>
<wgt id='1117'> +1.5504710e-12 </wgt>
<wgt id='1118'> +1.5513570e-12 </wgt>
<wgt id='1119'> +1.5218602e-12 </wgt>
<wgt id='1120'> +1.5512622e-12 </wgt>
<wgt id='1121'> +1.5593570e-12 </wgt>
<wgt id='1122'> +1.6004133e-12 </wgt>
<wgt id='1123'> +1.5260493e-12 </wgt>
<wgt id='1124'> +1.5484265e-12 </wgt>
<wgt id='1125'> +1.5629533e-12 </wgt>
<wgt id='1126'> +1.5751946e-12 </wgt>
<wgt id='1127'> +1.5241821e-12 </wgt>
<wgt id='1128'> +1.5651501e-12 </wgt>
<wgt id='1129'> +1.5582898e-12 </wgt>
<wgt id='1130'> +1.5495944e-12 </wgt>
<wgt id='1131'> +1.5670976e-12 </wgt>
<wgt id='1132'> +1.5390511e-12 </wgt>
<wgt id='1133'> +1.5412603e-12 </wgt>
<wgt id='1134'> +1.5734352e-12 </wgt>
<wgt id='1135'> +1.5594260e-12 </wgt>
<wgt id='1136'> +1.5178172e-12 </wgt>
<wgt id='1137'> +1.5354287e-12 </wgt>
<wgt id='1138'> +1.5622723e-12 </wgt>
<wgt id='1139'> +1.5598486e-12 </wgt>
<wgt id='1140'> +1.5399113e-12 </wgt>
<wgt id='1141'> +1.5096455e-12 </wgt>
<wgt id='1142'> +1.5480679e-12 </wgt>
<wgt id='1143'> +1.5689195e-12 </wgt>
<wgt id='1144'> +1.5563474e-12 </wgt>
<wgt id='1145'> +1.5703955e-12 </wgt>
<wgt id='1146'> +1.5488205e-12 </wgt>
<wgt id='1147'> +1.1911451e-12 </wgt>
<wgt id='1148'> +1.2218229e-12 </wgt>
<wgt id='1149'> +1.2667708e-12 </wgt>
<wgt id='1150'> +1.2183188e-12 </wgt>
<wgt id='1151'> +1.1850428e-12 </wgt>
<wgt id='1152'> +1.5205342e-12 </wgt>
<wgt id='1153'> +1.5127878e-12 </wgt>
<wgt id='1154'> +1.5250340e-12 </wgt>
<wgt id='1155'> +1.5200902e-12 </wgt>
<wgt id='1156'> +1.5207473e-12 </wgt>
<wgt id='1157'> +1.5237491e-12 </wgt>
<wgt id='1158'> +1.5161917e-12 </wgt>
<wgt id='1159'> +1.5231752e-12 </wgt>
<wgt id='1160'> +1.5188297e-12 </wgt>
<wgt id='1161'> +1.5164291e-12 </wgt>
<wgt id='1162'> +1.5232490e-12 </wgt>
<wgt id='1163'> +1.5244417e-12 </wgt>
<wgt id='1164'> +1.5166247e-12 </wgt>
<wgt id='1165'> +1.5105027e-12 </wgt>
<wgt id='1166'> +1.5302467e-12 </wgt>
<wgt id='1167'> +1.5307042e-12 </wgt>
<wgt id='1168'> +1.5066858e-12 </wgt>
<wgt id='1169'> +1.5232439e-12 </wgt>
<wgt id='1170'> +1.5184888e-12 </wgt>
<wgt id='1171'> +1.5172037e-12 </wgt>
<wgt id='1172'> +1.5243803e-12 </wgt>
<wgt id='1173'> +1.5104321e-12 </wgt>
<wgt id='1174'> +1.5299321e-12 </wgt>
<wgt id='1175'> +1.5200411e-12 </wgt>
<wgt id='1176'> +1.5200414e-12 </wgt>
<wgt id='1177'> +1.5210142e-12 </wgt>
<wgt id='1178'> +1.5194148e-12 </wgt>
<wgt id='1179'> +1.5304237e-12 </wgt>
<wgt id='1180'> +1.5049559e-12 </wgt>
<wgt id='1181'> +1.5152445e-12 </wgt>
<wgt id='1182'> +1.5254498e-12 </wgt>
<wgt id='1183'> +1.5190057e-12 </wgt>
<wgt id='1184'> +1.5206674e-12 </wgt>
<wgt id='1185'> +1.5126235e-12 </wgt>
<wgt id='1186'> +1.5245932e-12 </wgt>
<wgt id='1187'> +1.5194954e-12 </wgt>
<wgt id='1188'> +1.5208548e-12 </wgt>
<wgt id='1189'> +1.5144030e-12 </wgt>
<wgt id='1190'> +1.5095326e-12 </wgt>
<wgt id='1191'> +1.5178141e-12 </wgt>
<wgt id='1192'> +1.5206311e-12 </wgt>
<wgt id='1193'> +1.2405583e-12 </wgt>
<wgt id='1194'> +1.2386292e-12 </wgt>
<wgt id='1195'> +1.2420182e-12 </wgt>
<wgt id='1196'> +1.2462984e-12 </wgt>
<wgt id='1197'> +1.2341251e-12 </wgt>
<wgt id='1198'> +1.2410005e-12 </wgt>
<wgt id='1199'> +1.2397584e-12 </wgt>
<wgt id='1200'> +1.2424125e-12 </wgt>
<wgt id='1201'> +1.2393010e-12 </wgt>
<wgt id='1202'> +1.2384982e-12 </wgt>
<wgt id='1203'> +1.2433453e-12 </wgt>
<wgt id='1204'> +1.2285150e-12 </wgt>
<wgt id='1205'> +1.2479735e-12 </wgt>
<wgt id='1206'> +1.2453831e-12 </wgt>
<wgt id='1207'> +1.2338955e-12 </wgt>
<wgt id='1208'> +1.2329303e-12 </wgt>
<wgt id='1209'> +1.2433232e-12 </wgt>
<wgt id='1210'> +1.2415880e-12 </wgt>
<wgt id='1211'> +1.2301889e-12 </wgt>
<wgt id='1212'> +1.2411351e-12 </wgt>
<wgt id='1213'> +1.2398878e-12 </wgt>
<wgt id='1214'> +1.2230058e-12 </wgt>
<wgt id='1215'> +1.2693870e-12 </wgt>
<wgt id='1216'> +1.2490289e-12 </wgt>
<wgt id='1217'> +1.2346551e-12 </wgt>
<wgt id='1218'> +1.2448929e-12 </wgt>
<wgt id='1219'> +1.2381186e-12 </wgt>
<wgt id='1220'> +1.2453582e-12 </wgt>
<wgt id='1221'> +1.2396003e-12 </wgt>
<wgt id='1222'> +1.2399573e-12 </wgt>
<wgt id='1223'> +1.2417945e-12 </wgt>
<wgt id='1224'> +1.2422891e-12 </wgt>
<wgt id='1225'> +1.2398718e-12 </wgt>
<wgt id='1226'> +1.2382042e-12 </wgt>
<wgt id='1227'> +1.2421539e-12 </wgt>
<wgt id='1228'> +1.2373265e-12 </wgt>
<wgt id='1229'> +1.2417462e-12 </wgt>
<wgt id='1230'> +1.2343077e-12 </wgt>
<wgt id='1231'> +1.2365809e-12 </wgt>
<wgt id='1232'> +1.2394385e-12 </wgt>
<wgt id='1233'> +1.2408162e-12 </wgt>
<wgt id='1234'> +1.2405583e-12 </wgt>
<wgt id='1235'> +1.2313150e-12 </wgt>
<wgt id='1236'> +1.2346974e-12 </wgt>
<wgt id='1237'> +1.2378810e-12 </wgt>
<wgt id='1238'> +1.2430258e-12 </wgt>
<wgt id='1239'> +1.2451950e-12 </wgt>
<wgt id='1240'> +1.2472119e-12 </wgt>
<wgt id='1241'> +1.2598486e-12 </wgt>
<wgt id='1242'> +1.2535473e-12 </wgt>
<wgt id='1243'> +1.2660280e-12 </wgt>
<wgt id='1244'> +1.2528206e-12 </wgt>
<wgt id='1245'> +1.2649863e-12 </wgt>
<wgt id='1246'> +1.2605282e-12 </wgt>
<wgt id='1247'> +1.2592528e-12 </wgt>
<wgt id='1248'> +1.2597371e-12 </wgt>
<wgt id='1249'> +1.2599275e-12 </wgt>
<wgt id='1250'> +1.2608125e-12 </wgt>
<wgt id='1251'> +1.2591284e-12 </wgt>
<wgt id='1252'> +1.2564834e-12 </wgt>
<wgt id='1253'> +1.2624131e-12 </wgt>
<wgt id='1254'> +1.2480360e-12 </wgt>
<wgt id='1255'> +1.2668718e-12 </wgt>
<wgt id='1256'> +1.2642710e-12 </wgt>
<wgt id='1257'> +1.2487275e-12 </wgt>
<wgt id='1258'> +1.2820247e-12 </wgt>
<wgt id='1259'> +1.2388158e-12 </wgt>
<wgt id='1260'> +1.2641165e-12 </wgt>
<wgt id='1261'> +1.2549378e-12 </wgt>
<wgt id='1262'> +1.2617978e-12 </wgt>
<wgt id='1263'> +1.2587892e-12 </wgt>
<wgt id='1264'> +1.2644315e-12 </wgt>
<wgt id='1265'> +1.2574831e-12 </wgt>
<wgt id='1266'> +1.2556003e-12 </wgt>
<wgt id='1267'> +1.2641434e-12 </wgt>
<wgt id='1268'> +1.2600496e-12 </wgt>
<wgt id='1269'> +1.2635086e-12 </wgt>
<wgt id='1270'> +1.2522349e-12 </wgt>
<wgt id='1271'> +1.2509633e-12 </wgt>
<wgt id='1272'> +1.2604071e-12 </wgt>
<wgt id='1273'> +1.2588769e-12 </wgt>
<wgt id='1274'> +1.2618788e-12 </wgt>
<wgt id='1275'> +1.2550579e-12 </wgt>
<wgt id='1276'> +1.2613962e-12 </wgt>
<wgt id='1277'> +1.2573283e-12 </wgt>
<wgt id='1278'> +1.2584035e-12 </wgt>
<wgt id='1279'> +1.2583220e-12 </wgt>
<wgt id='1280'> +1.2602290e-12 </wgt>
<wgt id='1281'> +1.2584046e-12 </wgt>
<wgt id='1282'> +1.2598486e-12 </wgt>
<wgt id='1283'> +1.2499667e-12 </wgt>
<wgt id='1284'> +1.2537081e-12 </wgt>
<wgt id='1285'> +1.2571164e-12 </wgt>
<wgt id='1286'> +1.2626660e-12 </wgt>
<wgt id='1287'> +1.2648420e-12 </wgt>
<wgt id='1288'> +1.2667031e-12 </wgt>
<wgt id='1289'> +1.2552417e-12 </wgt>
<wgt id='1290'> +1.2582853e-12 </wgt>
<wgt id='1291'> +1.2518896e-12 </wgt>
<wgt id='1292'> +1.2496978e-12 </wgt>
<wgt id='1293'> +1.2591956e-12 </wgt>
<wgt id='1294'> +1.2549816e-12 </wgt>
<wgt id='1295'> +1.2554570e-12 </wgt>
<wgt id='1296'> +1.2504087e-12 </wgt>
<wgt id='1297'> +1.2611617e-12 </wgt>
<wgt id='1298'> +1.2605208e-12 </wgt>
<wgt id='1299'> +1.2484694e-12 </wgt>
<wgt id='1300'> +1.2584418e-12 </wgt>
<wgt id='1301'> +1.2488710e-12 </wgt>
<wgt id='1302'> +1.2538153e-12 </wgt>
<wgt id='1303'> +1.2571364e-12 </wgt>
<wgt id='1304'> +1.2527756e-12 </wgt>
<wgt id='1305'> +1.2568795e-12 </wgt>
<wgt id='1306'> +1.2520655e-12 </wgt>
<wgt id='1307'> +1.2588709e-12 </wgt>
<wgt id='1308'> +1.2637278e-12 </wgt>
<wgt id='1309'> +1.2486835e-12 </wgt>
<wgt id='1310'> +1.2545063e-12 </wgt>
<wgt id='1311'> +1.2560862e-12 </wgt>
<wgt id='1312'> +1.2545970e-12 </wgt>
<wgt id='1313'> +1.2560096e-12 </wgt>
<wgt id='1314'> +1.2580105e-12 </wgt>
<wgt id='1315'> +1.2464681e-12 </wgt>
<wgt id='1316'> +1.2617719e-12 </wgt>
<wgt id='1317'> +1.2551393e-12 </wgt>
<wgt id='1318'> +1.2657034e-12 </wgt>
<wgt id='1319'> +1.2426240e-12 </wgt>
<wgt id='1320'> +1.2657846e-12 </wgt>
<wgt id='1321'> +1.2459388e-12 </wgt>
<wgt id='1322'> +1.2544730e-12 </wgt>
<wgt id='1323'> +1.2558594e-12 </wgt>
<wgt id='1324'> +1.2528886e-12 </wgt>
<wgt id='1325'> +1.2645458e-12 </wgt>
<wgt id='1326'> +1.2546813e-12 </wgt>
<wgt id='1327'> +1.2575631e-12 </wgt>
<wgt id='1328'> +1.2559683e-12 </wgt>
<wgt id='1329'> +1.2542779e-12 </wgt>
<wgt id='1330'> +1.2348208e-12 </wgt>
<wgt id='1331'> +1.2673702e-12 </wgt>
<wgt id='1332'> +1.2766340e-12 </wgt>
<wgt id='1333'> +1.2408419e-12 </wgt>
<wgt id='1334'> +1.2503552e-12 </wgt>
<wgt id='1335'> +1.2671540e-12 </wgt>
<wgt id='1336'> +1.2506764e-12 </wgt>
<wgt id='1337'> +1.2535452e-12 </wgt>
<wgt id='1338'> +1.2532647e-12 </wgt>
<wgt id='1339'> +1.2557612e-12 </wgt>
<wgt id='1340'> +1.2325726e-12 </wgt>
<wgt id='1341'> +1.2359056e-12 </wgt>
<wgt id='1342'> +1.2290383e-12 </wgt>
<wgt id='1343'> +1.2269181e-12 </wgt>
<wgt id='1344'> +1.2363996e-12 </wgt>
<wgt id='1345'> +1.2322464e-12 </wgt>
<wgt id='1346'> +1.2328575e-12 </wgt>
<wgt id='1347'> +1.2277713e-12 </wgt>
<wgt id='1348'> +1.2379154e-12 </wgt>
<wgt id='1349'> +1.2372664e-12 </wgt>
<wgt id='1350'> +1.2278983e-12 </wgt>
<wgt id='1351'> +1.2357497e-12 </wgt>
<wgt id='1352'> +1.2256375e-12 </wgt>
<wgt id='1353'> +1.2306439e-12 </wgt>
<wgt id='1354'> +1.2359985e-12 </wgt>
<wgt id='1355'> +1.2304167e-12 </wgt>
<wgt id='1356'> +1.2337397e-12 </wgt>
<wgt id='1357'> +1.2317571e-12 </wgt>
<wgt id='1358'> +1.2336846e-12 </wgt>
<wgt id='1359'> +1.2420100e-12 </wgt>
<wgt id='1360'> +1.2244295e-12 </wgt>
<wgt id='1361'> +1.2318452e-12 </wgt>
<wgt id='1362'> +1.2336989e-12 </wgt>
<wgt id='1363'> +1.2316742e-12 </wgt>
<wgt id='1364'> +1.2336250e-12 </wgt>
<wgt id='1365'> +1.2227143e-12 </wgt>
<wgt id='1366'> +1.2364605e-12 </wgt>
<wgt id='1367'> +1.2385698e-12 </wgt>
<wgt id='1368'> +1.2322579e-12 </wgt>
<wgt id='1369'> +1.2415256e-12 </wgt>
<wgt id='1370'> +1.2218425e-12 </wgt>
<wgt id='1371'> +1.2405284e-12 </wgt>
<wgt id='1372'> +1.2226963e-12 </wgt>
<wgt id='1373'> +1.2300814e-12 </wgt>
<wgt id='1374'> +1.2344649e-12 </wgt>
<wgt id='1375'> +1.2303534e-12 </wgt>
<wgt id='1376'> +1.2418125e-12 </wgt>
<wgt id='1377'> +1.2321524e-12 </wgt>
<wgt id='1378'> +1.2352074e-12 </wgt>
<wgt id='1379'> +1.2329908e-12 </wgt>
<wgt id='1380'> +1.2319271e-12 </wgt>
<wgt id='1381'> +1.2113468e-12 </wgt>
<wgt id='1382'> +1.2436393e-12 </wgt>
<wgt id='1383'> +1.2542674e-12 </wgt>
<wgt id='1384'> +1.2162996e-12 </wgt>
<wgt id='1385'> +1.2277018e-12 </wgt>
<wgt id='1386'> +1.2437994e-12 </wgt>
<wgt id='1387'> +1.2268494e-12 </wgt>
<wgt id='1388'> +1.2300691e-12 </wgt>
<wgt id='1389'> +1.2286894e-12 </wgt>
<wgt id='1390'> +1.2335947e-12 </wgt>
<wgt id='1391'> +1.2065748e-12 </wgt>
<wgt id='1392'> +1.1758835e-12 </wgt>
<wgt id='1393'> +1.1858256e-12 </wgt>
<wgt id='1394'> +1.1960353e-12 </wgt>
<wgt id='1395'> +1.2155595e-12 </wgt>
<wgt id='1396'> +1.2064319e-12 </wgt>
<wgt id='1397'> +1.1718254e-12 </wgt>
<wgt id='1398'> +1.1790254e-12 </wgt>
<wgt id='1399'> +1.1855015e-12 </wgt>
<wgt id='1400'> +1.1921078e-12 </wgt>
<wgt id='1401'> +1.1992490e-12 </wgt>
<wgt id='1402'> +1.2128000e-12 </wgt>
<wgt id='1403'> +1.2195226e-12 </wgt>
<wgt id='1404'> +1.2256297e-12 </wgt>
<wgt id='1405'> +1.2064319e-12 </wgt>
<wgt id='1406'> +1.2019227e-12 </wgt>
<wgt id='1407'> +1.2044989e-12 </wgt>
<wgt id='1408'> +1.2083697e-12 </wgt>
<wgt id='1409'> +1.2099992e-12 </wgt>
<wgt id='1410'> +1.2232008e-12 </wgt>
<wgt id='1411'> +1.2249909e-12 </wgt>
<wgt id='1412'> +1.2208315e-12 </wgt>
<wgt id='1413'> +1.2293950e-12 </wgt>
<wgt id='1414'> +1.2170624e-12 </wgt>
<wgt id='1415'> +1.2168212e-12 </wgt>
<wgt id='1416'> +1.2257561e-12 </wgt>
<wgt id='1417'> +1.2154842e-12 </wgt>
<wgt id='1418'> +1.2309360e-12 </wgt>
<wgt id='1419'> +1.2248918e-12 </wgt>
<wgt id='1420'> +1.2215401e-12 </wgt>
<wgt id='1421'> +1.2106026e-12 </wgt>
<wgt id='1422'> +1.2286762e-12 </wgt>
<wgt id='1423'> +1.2228327e-12 </wgt>
<wgt id='1424'> +1.2235823e-12 </wgt>
<wgt id='1425'> +1.2191051e-12 </wgt>
<wgt id='1426'> +1.2276429e-12 </wgt>
<wgt id='1427'> +1.2259136e-12 </wgt>
<wgt id='1428'> +1.2215231e-12 </wgt>
<wgt id='1429'> +1.2169297e-12 </wgt>
<wgt id='1430'> +1.2316992e-12 </wgt>
<wgt id='1431'> +1.2284832e-12 </wgt>
<wgt id='1432'> +1.2194977e-12 </wgt>
<wgt id='1433'> +1.2275852e-12 </wgt>
<wgt id='1434'> +1.2178565e-12 </wgt>
<wgt id='1435'> +1.2246595e-12 </wgt>
<wgt id='1436'> +1.2198006e-12 </wgt>
<wgt id='1437'> +1.2296245e-12 </wgt>
<wgt id='1438'> +1.2222640e-12 </wgt>
<wgt id='1439'> +1.2163931e-12 </wgt>
<wgt id='1440'> +1.2392386e-12 </wgt>
<wgt id='1441'> +1.2256933e-12 </wgt>
<wgt id='1442'> +1.2184268e-12 </wgt>
<wgt id='1443'> +1.2207174e-12 </wgt>
<wgt id='1444'> +1.2292423e-12 </wgt>
<wgt id='1445'> +1.2342240e-12 </wgt>
<wgt id='1446'> +1.2194120e-12 </wgt>
<wgt id='1447'> +1.2243176e-12 </wgt>
<wgt id='1448'> +1.2238797e-12 </wgt>
<wgt id='1449'> +1.2244697e-12 </wgt>
<wgt id='1450'> +1.2220016e-12 </wgt>
<wgt id='1451'> +1.2317277e-12 </wgt>
<wgt id='1452'> +1.1989620e-12 </wgt>
<wgt id='1453'> +1.2253218e-12 </wgt>
<wgt id='1454'> +1.2092614e-12 </wgt>
<wgt id='1455'> +1.2109374e-12 </wgt>
<wgt id='1456'> +1.2281618e-12 </wgt>
<wgt id='1457'> +1.2294209e-12 </wgt>
<wgt id='1458'> +1.2202525e-12 </wgt>
<wgt id='1459'> +1.2273484e-12 </wgt>
<wgt id='1460'> +1.2175217e-12 </wgt>
<wgt id='1461'> +1.2232008e-12 </wgt>
<wgt id='1462'> +1.2152303e-12 </wgt>
<wgt id='1463'> +1.2337706e-12 </wgt>
<wgt id='1464'> +1.2246175e-12 </wgt>
<wgt id='1465'> +1.1968854e-12 </wgt>
<wgt id='1466'> +1.2026531e-12 </wgt>
<wgt id='1467'> +1.2088306e-12 </wgt>
<wgt id='1468'> +1.2134736e-12 </wgt>
<wgt id='1469'> +1.2192096e-12 </wgt>
<wgt id='1470'> +1.2305727e-12 </wgt>
<wgt id='1471'> +1.2351671e-12 </wgt>
<wgt id='1472'> +1.2407770e-12 </wgt>
<wgt id='1473'> +1.2246175e-12 </wgt>
<wgt id='1474'> +1.2194065e-12 </wgt>
<wgt id='1475'> +1.2213394e-12 </wgt>
<wgt id='1476'> +1.2268431e-12 </wgt>
<wgt id='1477'> +1.2289373e-12 </wgt>
<wgt id='1478'> +1.1919834e-12 </wgt>
<wgt id='1479'> +1.1904093e-12 </wgt>
<wgt id='1480'> +1.1906239e-12 </wgt>
<wgt id='1481'> +1.1864848e-12 </wgt>
<wgt id='1482'> +1.1911446e-12 </wgt>
<wgt id='1483'> +1.1724806e-12 </wgt>
<wgt id='1484'> +1.1904172e-12 </wgt>
<wgt id='1485'> +1.1932149e-12 </wgt>
<wgt id='1486'> +1.1928828e-12 </wgt>
<wgt id='1487'> +1.1972672e-12 </wgt>
<wgt id='1488'> +1.1894226e-12 </wgt>
<wgt id='1489'> +1.2120461e-12 </wgt>
<wgt id='1490'> +1.1902259e-12 </wgt>
<wgt id='1491'> +1.1922183e-12 </wgt>
<wgt id='1492'> +1.1937975e-12 </wgt>
<wgt id='1493'> +1.1782473e-12 </wgt>
<wgt id='1494'> +1.2070320e-12 </wgt>
<wgt id='1495'> +1.1853638e-12 </wgt>
<wgt id='1496'> +1.1907231e-12 </wgt>
<wgt id='1497'> +1.1917891e-12 </wgt>
<wgt id='1498'> +1.1910711e-12 </wgt>
<wgt id='1499'> +1.1936318e-12 </wgt>
<wgt id='1500'> +1.1932864e-12 </wgt>
<wgt id='1501'> +1.1906749e-12 </wgt>
<wgt id='1502'> +1.1902640e-12 </wgt>
<wgt id='1503'> +1.1933686e-12 </wgt>
<wgt id='1504'> +1.1878376e-12 </wgt>
<wgt id='1505'> +1.1923443e-12 </wgt>
<wgt id='1506'> +1.1907964e-12 </wgt>
<wgt id='1507'> +1.1909876e-12 </wgt>
<wgt id='1508'> +1.1961587e-12 </wgt>
<wgt id='1509'> +1.2754381e-12 </wgt>
<wgt id='1510'> +1.2740067e-12 </wgt>
<wgt id='1511'> +1.2806995e-12 </wgt>
<wgt id='1512'> +1.2783482e-12 </wgt>
<wgt id='1513'> +1.2809833e-12 </wgt>
<wgt id='1514'> +1.2740831e-12 </wgt>
<wgt id='1515'> +1.2724980e-12 </wgt>
<wgt id='1516'> +1.2746411e-12 </wgt>
<wgt id='1517'> +1.2766925e-12 </wgt>
<wgt id='1518'> +1.2788019e-12 </wgt>
<wgt id='1519'> +1.2704102e-12 </wgt>
<wgt id='1520'> +1.2796818e-12 </wgt>
<wgt id='1521'> +1.2827853e-12 </wgt>
<wgt id='1522'> +1.2810340e-12 </wgt>
<wgt id='1523'> +1.2813992e-12 </wgt>
<wgt id='1524'> +1.2759901e-12 </wgt>
<wgt id='1525'> +1.2773667e-12 </wgt>
<wgt id='1526'> +1.2735965e-12 </wgt>
<wgt id='1527'> +1.2749616e-12 </wgt>
<wgt id='1528'> +1.2784950e-12 </wgt>
<wgt id='1529'> +1.2768723e-12 </wgt>
<wgt id='1530'> +1.2807575e-12 </wgt>
<wgt id='1531'> +1.2766826e-12 </wgt>
<wgt id='1532'> +1.2745193e-12 </wgt>
<wgt id='1533'> +1.2731150e-12 </wgt>
<wgt id='1534'> +1.2798194e-12 </wgt>
<wgt id='1535'> +1.2692733e-12 </wgt>
<wgt id='1536'> +1.2725887e-12 </wgt>
<wgt id='1537'> +1.2762208e-12 </wgt>
<wgt id='1538'> +1.2729340e-12 </wgt>
<wgt id='1539'> +1.2729749e-12 </wgt>
<wgt id='1540'> +1.2762320e-12 </wgt>
<wgt id='1541'> +1.2748209e-12 </wgt>
<wgt id='1542'> +1.2773723e-12 </wgt>
<wgt id='1543'> +1.2742824e-12 </wgt>
<wgt id='1544'> +1.2718068e-12 </wgt>
<wgt id='1545'> +1.2765785e-12 </wgt>
<wgt id='1546'> +1.2758752e-12 </wgt>
<wgt id='1547'> +1.2759738e-12 </wgt>
<wgt id='1548'> +1.2739184e-12 </wgt>
<wgt id='1549'> +1.2730373e-12 </wgt>
<wgt id='1550'> +1.2778288e-12 </wgt>
<wgt id='1551'> +1.2729131e-12 </wgt>
<wgt id='1552'> +1.2757650e-12 </wgt>
<wgt id='1553'> +1.2767621e-12 </wgt>
<wgt id='1554'> +1.2765890e-12 </wgt>
<wgt id='1555'> +1.2778127e-12 </wgt>
<wgt id='1556'> +1.2756330e-12 </wgt>
<wgt id='1557'> +1.2758929e-12 </wgt>
<wgt id='1558'> +1.2731030e-12 </wgt>
<wgt id='1559'> +1.2735489e-12 </wgt>
<wgt id='1560'> +1.2750911e-12 </wgt>
<wgt id='1561'> +1.2744170e-12 </wgt>
<wgt id='1562'> +1.2756162e-12 </wgt>
<wgt id='1563'> +1.2757689e-12 </wgt>
<wgt id='1564'> +1.2761768e-12 </wgt>
<wgt id='1565'> +1.2753205e-12 </wgt>
<wgt id='1566'> +1.2758022e-12 </wgt>
<wgt id='1567'> +1.2755862e-12 </wgt>
<wgt id='1568'> +1.2746602e-12 </wgt>
<wgt id='1569'> +1.2746344e-12 </wgt>
<wgt id='1570'> +1.2755623e-12 </wgt>
<wgt id='1571'> +1.2755588e-12 </wgt>
<wgt id='1572'> +1.2759287e-12 </wgt>
<wgt id='1573'> +1.2765083e-12 </wgt>
<wgt id='1574'> +1.2749224e-12 </wgt>
<wgt id='1575'> +1.2751232e-12 </wgt>
<wgt id='1576'> +1.2755214e-12 </wgt>
<wgt id='1577'> +1.2755486e-12 </wgt>
<wgt id='1578'> +1.2750300e-12 </wgt>
<wgt id='1579'> +1.2757827e-12 </wgt>
<wgt id='1580'> +1.2752045e-12 </wgt>
<wgt id='1581'> +1.2753602e-12 </wgt>
<wgt id='1582'> +1.2745676e-12 </wgt>
<wgt id='1583'> +1.2757143e-12 </wgt>
<wgt id='1584'> +1.2753724e-12 </wgt>
<wgt id='1585'> +1.2750877e-12 </wgt>
<wgt id='1586'> +1.2756630e-12 </wgt>
<wgt id='1587'> +1.2746600e-12 </wgt>
<wgt id='1588'> +1.2760635e-12 </wgt>
<wgt id='1589'> +1.2753285e-12 </wgt>
<wgt id='1590'> +1.2753846e-12 </wgt>
<wgt id='1591'> +1.2752921e-12 </wgt>
<wgt id='1592'> +1.2754978e-12 </wgt>
<wgt id='1593'> +1.2753567e-12 </wgt>
<wgt id='1594'> +1.2753309e-12 </wgt>
<wgt id='1595'> +1.2748041e-12 </wgt>
<wgt id='1596'> +1.2753020e-12 </wgt>
<wgt id='1597'> +1.2754843e-12 </wgt>
<wgt id='1598'> +1.2752476e-12 </wgt>
<wgt id='1599'> +1.2757248e-12 </wgt>
<wgt id='1600'> +1.2748395e-12 </wgt>
<wgt id='1601'> +1.2752447e-12 </wgt>
<wgt id='1602'> +1.2753959e-12 </wgt>
<wgt id='1603'> +1.2757613e-12 </wgt>
<wgt id='1604'> +1.2754401e-12 </wgt>
<wgt id='1605'> +1.2755382e-12 </wgt>
<wgt id='1606'> +1.2757215e-12 </wgt>
<wgt id='1607'> +1.2750076e-12 </wgt>
<wgt id='1608'> +1.2754583e-12 </wgt>
<wgt id='1609'> +1.2758658e-12 </wgt>
<wgt id='1610'> +1.2626300e-12 </wgt>
<wgt id='1611'> +1.2879609e-12 </wgt>
<wgt id='1612'> +1.4892295e-12 </wgt>
<wgt id='1613'> +1.4689758e-12 </wgt>
<wgt id='1614'> +1.4984871e-12 </wgt>
<wgt id='1615'> +1.4716144e-12 </wgt>
<wgt id='1616'> +1.5519875e-12 </wgt>
<wgt id='1617'> +1.5192611e-12 </wgt>
<wgt id='1618'> +1.4509734e-12 </wgt>
<wgt id='1619'> +1.4985954e-12 </wgt>
<wgt id='1620'> +1.4583705e-12 </wgt>
<wgt id='1621'> +1.4868899e-12 </wgt>
<wgt id='1622'> +1.4918895e-12 </wgt>
<wgt id='1623'> +1.5026338e-12 </wgt>
<wgt id='1624'> +1.4551524e-12 </wgt>
<wgt id='1625'> +1.4641329e-12 </wgt>
<wgt id='1626'> +1.4783479e-12 </wgt>
<wgt id='1627'> +1.4681693e-12 </wgt>
<wgt id='1628'> +1.4655101e-12 </wgt>
<wgt id='1629'> +1.5386275e-12 </wgt>
<wgt id='1630'> +1.4971737e-12 </wgt>
<wgt id='1631'> +1.4663364e-12 </wgt>
<wgt id='1632'> +1.4391342e-12 </wgt>
<wgt id='1633'> +1.4478678e-12 </wgt>
<wgt id='1634'> +1.5466508e-12 </wgt>
<wgt id='1635'> +1.4903024e-12 </wgt>
<wgt id='1636'> +1.4991215e-12 </wgt>
<wgt id='1637'> +1.4655937e-12 </wgt>
<wgt id='1638'> +1.4835816e-12 </wgt>
<wgt id='1639'> +1.4992955e-12 </wgt>
<wgt id='1640'> +1.5011468e-12 </wgt>
<wgt id='1641'> +1.4664881e-12 </wgt>
<wgt id='1642'> +1.4860057e-12 </wgt>
<wgt id='1643'> +1.5326213e-12 </wgt>
<wgt id='1644'> +1.4286589e-12 </wgt>
<wgt id='1645'> +1.4862154e-12 </wgt>
<wgt id='1646'> +1.4989694e-12 </wgt>
<wgt id='1647'> +1.4957658e-12 </wgt>
<wgt id='1648'> +1.4835280e-12 </wgt>
<wgt id='1649'> +1.4859407e-12 </wgt>
<wgt id='1650'> +1.4792918e-12 </wgt>
<wgt id='1651'> +1.4476064e-12 </wgt>
<wgt id='1652'> +1.4841655e-12 </wgt>
<wgt id='1653'> +1.5332679e-12 </wgt>
<wgt id='1654'> +1.4784598e-12 </wgt>
<wgt id='1655'> +1.4559948e-12 </wgt>
<wgt id='1656'> +1.4509290e-12 </wgt>
<wgt id='1657'> +1.4722165e-12 </wgt>
<wgt id='1658'> +1.4359268e-12 </wgt>
<wgt id='1659'> +1.4551524e-12 </wgt>
<wgt id='1660'> +1.4948070e-12 </wgt>
<wgt id='1661'> +1.4975180e-12 </wgt>
<wgt id='1662'> +1.4920449e-12 </wgt>
<wgt id='1663'> +1.5180019e-12 </wgt>
<wgt id='1664'> +1.4739651e-12 </wgt>
<wgt id='1665'> +1.4288211e-12 </wgt>
<wgt id='1666'> +1.5150695e-12 </wgt>
<wgt id='1667'> +1.4863462e-12 </wgt>
<wgt id='1668'> +1.5249955e-12 </wgt>
<wgt id='1669'> +1.4417053e-12 </wgt>
<wgt id='1670'> +1.5097239e-12 </wgt>
<wgt id='1671'> +1.4829035e-12 </wgt>
<wgt id='1672'> +1.4899878e-12 </wgt>
<wgt id='1673'> +1.5240103e-12 </wgt>
<wgt id='1674'> +1.4689872e-12 </wgt>
<wgt id='1675'> +1.5265269e-12 </wgt>
<wgt id='1676'> +1.5188915e-12 </wgt>
<wgt id='1677'> +1.5723125e-12 </wgt>
<wgt id='1678'> +1.4870125e-12 </wgt>
<wgt id='1679'> +1.5286243e-12 </wgt>
<wgt id='1680'> +1.5093052e-12 </wgt>
<wgt id='1681'> +1.5089833e-12 </wgt>
<wgt id='1682'> +1.5021837e-12 </wgt>
<wgt id='1683'> +1.4683970e-12 </wgt>
<wgt id='1684'> +1.4809097e-12 </wgt>
<wgt id='1685'> +1.4659972e-12 </wgt>
<wgt id='1686'> +1.4961659e-12 </wgt>
<wgt id='1687'> +1.5348115e-12 </wgt>
<wgt id='1688'> +1.4997486e-12 </wgt>
<wgt id='1689'> +1.4680191e-12 </wgt>
<wgt id='1690'> +1.4890604e-12 </wgt>
<wgt id='1691'> +1.4999708e-12 </wgt>
<wgt id='1692'> +1.5420053e-12 </wgt>
<wgt id='1693'> +1.5440621e-12 </wgt>
<wgt id='1694'> +1.4425055e-12 </wgt>
<wgt id='1695'> +1.4937431e-12 </wgt>
<wgt id='1696'> +1.5287912e-12 </wgt>
<wgt id='1697'> +1.4990492e-12 </wgt>
<wgt id='1698'> +1.4687462e-12 </wgt>
<wgt id='1699'> +1.4996872e-12 </wgt>
<wgt id='1700'> +1.4696500e-12 </wgt>
<wgt id='1701'> +1.5148121e-12 </wgt>
<wgt id='1702'> +1.4922405e-12 </wgt>
<wgt id='1703'> +1.5040650e-12 </wgt>
<wgt id='1704'> +1.4657227e-12 </wgt>
<wgt id='1705'> +1.4723122e-12 </wgt>
<wgt id='1706'> +1.4787140e-12 </wgt>
<wgt id='1707'> +1.4800459e-12 </wgt>
<wgt id='1708'> +1.4699949e-12 </wgt>
<wgt id='1709'> +1.4816720e-12 </wgt>
<wgt id='1710'> +1.4765823e-12 </wgt>
<wgt id='1711'> +1.5501416e-12 </wgt>
<wgt id='1712'> +1.4830914e-12 </wgt>
<wgt id='1713'> +1.1759697e-12 </wgt>
<wgt id='1714'> +1.1448474e-12 </wgt>
<wgt id='1715'> +1.1934628e-12 </wgt>
<wgt id='1716'> +1.2169088e-12 </wgt>
<wgt id='1717'> +1.1840576e-12 </wgt>
<wgt id='1718'> +1.1887918e-12 </wgt>
<wgt id='1719'> +1.1858675e-12 </wgt>
<wgt id='1720'> +1.1894143e-12 </wgt>
<wgt id='1721'> +1.1579307e-12 </wgt>
<wgt id='1722'> +1.1665712e-12 </wgt>
<wgt id='1723'> +1.1274058e-12 </wgt>
<wgt id='1724'> +1.1280077e-12 </wgt>
<wgt id='1725'> +1.1986078e-12 </wgt>
<wgt id='1726'> +1.2158077e-12 </wgt>
<wgt id='1727'> +1.1541997e-12 </wgt>
<wgt id='1728'> +1.1842832e-12 </wgt>
<wgt id='1729'> +1.1740810e-12 </wgt>
<wgt id='1730'> +1.1509280e-12 </wgt>
<wgt id='1731'> +1.1370461e-12 </wgt>
<wgt id='1732'> +1.1754712e-12 </wgt>
<wgt id='1733'> +1.1789438e-12 </wgt>
<wgt id='1734'> +1.2041171e-12 </wgt>
<wgt id='1735'> +1.1438748e-12 </wgt>
<wgt id='1736'> +1.2570470e-12 </wgt>
<wgt id='1737'> +1.2068441e-12 </wgt>
<wgt id='1738'> +1.1867790e-12 </wgt>
<wgt id='1739'> +1.1783743e-12 </wgt>
<wgt id='1740'> +1.1563868e-12 </wgt>
<wgt id='1741'> +1.1700637e-12 </wgt>
<wgt id='1742'> +1.1753826e-12 </wgt>
<wgt id='1743'> +1.2045061e-12 </wgt>
<wgt id='1744'> +1.2099881e-12 </wgt>
<wgt id='1745'> +1.1087834e-12 </wgt>
<wgt id='1746'> +1.1951507e-12 </wgt>
<wgt id='1747'> +1.1984394e-12 </wgt>
<wgt id='1748'> +1.1929419e-12 </wgt>
<wgt id='1749'> +1.1899470e-12 </wgt>
<wgt id='1750'> +1.1822628e-12 </wgt>
<wgt id='1751'> +1.1020317e-12 </wgt>
<wgt id='1752'> +1.1611638e-12 </wgt>
<wgt id='1753'> +1.1954510e-12 </wgt>
<wgt id='1754'> +1.1733933e-12 </wgt>
<wgt id='1755'> +1.1942835e-12 </wgt>
<wgt id='1756'> +1.1886610e-12 </wgt>
<wgt id='1757'> +1.1639883e-12 </wgt>
<wgt id='1758'> +1.1965504e-12 </wgt>
<wgt id='1759'> +1.1853690e-12 </wgt>
<wgt id='1760'> +1.1431178e-12 </wgt>
<wgt id='1761'> +1.1546195e-12 </wgt>
<wgt id='1762'> +1.1867332e-12 </wgt>
<wgt id='1763'> +1.2005840e-12 </wgt>
<wgt id='1764'> +1.1778047e-12 </wgt>
<wgt id='1765'> +1.1814949e-12 </wgt>
<wgt id='1766'> +1.2001281e-12 </wgt>
<wgt id='1767'> +1.1854545e-12 </wgt>
<wgt id='1768'> +1.1735993e-12 </wgt>
<wgt id='1769'> +1.1440609e-12 </wgt>
<wgt id='1770'> +1.2266237e-12 </wgt>
<wgt id='1771'> +1.1872045e-12 </wgt>
<wgt id='1772'> +1.2109455e-12 </wgt>
<wgt id='1773'> +1.1685208e-12 </wgt>
<wgt id='1774'> +1.1839555e-12 </wgt>
<wgt id='1775'> +1.1803579e-12 </wgt>
<wgt id='1776'> +1.2074969e-12 </wgt>
<wgt id='1777'> +1.1124021e-12 </wgt>
<wgt id='1778'> +1.1602163e-12 </wgt>
<wgt id='1779'> +1.1984382e-12 </wgt>
<wgt id='1780'> +1.1731444e-12 </wgt>
<wgt id='1781'> +1.1677684e-12 </wgt>
<wgt id='1782'> +1.1362007e-12 </wgt>
<wgt id='1783'> +1.1720119e-12 </wgt>
<wgt id='1784'> +1.1838230e-12 </wgt>
<wgt id='1785'> +1.1398372e-12 </wgt>
<wgt id='1786'> +1.0891388e-12 </wgt>
<wgt id='1787'> +1.2203266e-12 </wgt>
<wgt id='1788'> +1.1618441e-12 </wgt>
<wgt id='1789'> +1.1372693e-12 </wgt>
<wgt id='1790'> +1.1737408e-12 </wgt>
<wgt id='1791'> +1.1934562e-12 </wgt>
<wgt id='1792'> +1.1381498e-12 </wgt>
<wgt id='1793'> +1.1961046e-12 </wgt>
<wgt id='1794'> +1.1850779e-12 </wgt>
<wgt id='1795'> +1.1986263e-12 </wgt>
<wgt id='1796'> +1.1535348e-12 </wgt>
<wgt id='1797'> +1.1791733e-12 </wgt>
<wgt id='1798'> +1.1604169e-12 </wgt>
<wgt id='1799'> +1.1618801e-12 </wgt>
<wgt id='1800'> +1.1812026e-12 </wgt>
<wgt id='1801'> +1.1778839e-12 </wgt>
<wgt id='1802'> +1.1552263e-12 </wgt>
<wgt id='1803'> +1.1931117e-12 </wgt>
<wgt id='1804'> +1.1509134e-12 </wgt>
<wgt id='1805'> +1.1711869e-12 </wgt>
<wgt id='1806'> +1.1631260e-12 </wgt>
<wgt id='1807'> +1.1951646e-12 </wgt>
<wgt id='1808'> +1.1781397e-12 </wgt>
<wgt id='1809'> +1.1578096e-12 </wgt>
<wgt id='1810'> +1.1771003e-12 </wgt>
<wgt id='1811'> +1.2274022e-12 </wgt>
<wgt id='1812'> +1.2029241e-12 </wgt>
<wgt id='1813'> +1.1921333e-12 </wgt>
<wgt id='1814'> +1.2979008e-12 </wgt>
<wgt id='1815'> +1.4704510e-12 </wgt>
<wgt id='1816'> +1.1759697e-12 </wgt>
<wgt id='1817'> +1.1448474e-12 </wgt>
<wgt id='1818'> +1.1934628e-12 </wgt>
<wgt id='1819'> +1.2169088e-12 </wgt>
<wgt id='1820'> +1.1840576e-12 </wgt>
<wgt id='1821'> +1.1887918e-12 </wgt>
<wgt id='1822'> +1.1858675e-12 </wgt>
<wgt id='1823'> +1.1894143e-12 </wgt>
<wgt id='1824'> +1.1579307e-12 </wgt>
<wgt id='1825'> +1.1665712e-12 </wgt>
<wgt id='1826'> +1.1274058e-12 </wgt>
<wgt id='1827'> +1.1280077e-12 </wgt>
<wgt id='1828'> +1.1986078e-12 </wgt>
<wgt id='1829'> +1.2158077e-12 </wgt>
<wgt id='1830'> +1.1541997e-12 </wgt>
<wgt id='1831'> +1.1842832e-12 </wgt>
<wgt id='1832'> +1.1740810e-12 </wgt>
<wgt id='1833'> +1.1509280e-12 </wgt>
<wgt id='1834'> +1.1370461e-12 </wgt>
<wgt id='1835'> +1.1754712e-12 </wgt>
<wgt id='1836'> +1.1789438e-12 </wgt>
<wgt id='1837'> +1.2041171e-12 </wgt>
<wgt id='1838'> +1.1438748e-12 </wgt>
<wgt id='1839'> +1.2570470e-12 </wgt>
<wgt id='1840'> +1.2068441e-12 </wgt>
<wgt id='1841'> +1.1867790e-12 </wgt>
<wgt id='1842'> +1.1783743e-12 </wgt>
<wgt id='1843'> +1.1563868e-12 </wgt>
<wgt id='1844'> +1.1700637e-12 </wgt>
<wgt id='1845'> +1.1753826e-12 </wgt>
<wgt id='1846'> +1.2045061e-12 </wgt>
<wgt id='1847'> +1.2099881e-12 </wgt>
<wgt id='1848'> +1.1087834e-12 </wgt>
<wgt id='1849'> +1.1951507e-12 </wgt>
<wgt id='1850'> +1.1984394e-12 </wgt>
<wgt id='1851'> +1.1929419e-12 </wgt>
<wgt id='1852'> +1.1899470e-12 </wgt>
<wgt id='1853'> +1.1822628e-12 </wgt>
<wgt id='1854'> +1.1020317e-12 </wgt>
<wgt id='1855'> +1.1611638e-12 </wgt>
<wgt id='1856'> +1.1954510e-12 </wgt>
<wgt id='1857'> +1.1733933e-12 </wgt>
<wgt id='1858'> +1.1942835e-12 </wgt>
<wgt id='1859'> +1.1886610e-12 </wgt>
<wgt id='1860'> +1.1639883e-12 </wgt>
<wgt id='1861'> +1.1965504e-12 </wgt>
<wgt id='1862'> +1.1853690e-12 </wgt>
<wgt id='1863'> +1.1431178e-12 </wgt>
<wgt id='1864'> +1.1546195e-12 </wgt>
<wgt id='1865'> +1.1867332e-12 </wgt>
<wgt id='1866'> +1.2005840e-12 </wgt>
<wgt id='1867'> +1.1778047e-12 </wgt>
<wgt id='1868'> +1.1814949e-12 </wgt>
<wgt id='1869'> +1.2001281e-12 </wgt>
<wgt id='1870'> +1.1854545e-12 </wgt>
<wgt id='1871'> +1.1735993e-12 </wgt>
<wgt id='1872'> +1.1440609e-12 </wgt>
<wgt id='1873'> +1.2266237e-12 </wgt>
<wgt id='1874'> +1.1872045e-12 </wgt>
<wgt id='1875'> +1.2109455e-12 </wgt>
<wgt id='1876'> +1.1685208e-12 </wgt>
<wgt id='1877'> +1.1839555e-12 </wgt>
<wgt id='1878'> +1.1803579e-12 </wgt>
<wgt id='1879'> +1.2074969e-12 </wgt>
<wgt id='1880'> +1.1124021e-12 </wgt>
<wgt id='1881'> +1.1602163e-12 </wgt>
<wgt id='1882'> +1.1984382e-12 </wgt>
<wgt id='1883'> +1.1731444e-12 </wgt>
<wgt id='1884'> +1.1677684e-12 </wgt>
<wgt id='1885'> +1.1362007e-12 </wgt>
<wgt id='1886'> +1.1720119e-12 </wgt>
<wgt id='1887'> +1.1838230e-12 </wgt>
<wgt id='1888'> +1.1398372e-12 </wgt>
<wgt id='1889'> +1.0891388e-12 </wgt>
<wgt id='1890'> +1.2203266e-12 </wgt>
<wgt id='1891'> +1.1618441e-12 </wgt>
<wgt id='1892'> +1.1372693e-12 </wgt>
<wgt id='1893'> +1.1737408e-12 </wgt>
<wgt id='1894'> +1.1934562e-12 </wgt>
<wgt id='1895'> +1.1381498e-12 </wgt>
<wgt id='1896'> +1.1961046e-12 </wgt>
<wgt id='1897'> +1.1850779e-12 </wgt>
<wgt id='1898'> +1.1986263e-12 </wgt>
<wgt id='1899'> +1.1535348e-12 </wgt>
<wgt id='1900'> +1.1791733e-12 </wgt>
<wgt id='1901'> +1.1604169e-12 </wgt>
<wgt id='1902'> +1.1618801e-12 </wgt>
<wgt id='1903'> +1.1812026e-12 </wgt>
<wgt id='1904'> +1.1778839e-12 </wgt>
<wgt id='1905'> +1.1552263e-12 </wgt>
<wgt id='1906'> +1.1931117e-12 </wgt>
<wgt id='1907'> +1.1509134e-12 </wgt>
<wgt id='1908'> +1.1711869e-12 </wgt>
<wgt id='1909'> +1.1631260e-12 </wgt>
<wgt id='1910'> +1.1951646e-12 </wgt>
<wgt id='1911'> +1.1781397e-12 </wgt>
<wgt id='1912'> +1.1578096e-12 </wgt>
<wgt id='1913'> +1.1771003e-12 </wgt>
<wgt id='1914'> +1.2274022e-12 </wgt>
<wgt id='1915'> +1.2029241e-12 </wgt>
<wgt id='1916'> +1.1921333e-12 </wgt>
<wgt id='1917'> +1.1666079e-12 </wgt>
<wgt id='1918'> +1.1807530e-12 </wgt>
<wgt id='1919'> +1.2255668e-12 </wgt>
</rwgt>
</event>
<event>
 9      1 +1.5538000e-12 3.42107700e+01 7.81860800e-03 1.41131700e-01
        4 -1    0    0  502    0 -0.0000000000e+00 +0.0000000000e+00 -1.3462529978e-01 1.4263674041e+00 0.0000000000e+00 0.0000e+00 1.0000e+00
       21 -1    0    0  501  502 +0.0000000000e+00 -0.0000000000e+00 -2.6194886213e+03 2.6194886213e+03 1.4200000000e+00 0.0000e+00 1.0000e+00
     1023  2    1    2    0    0 +2.4978031213e+01 -1.7929979811e+01 -5.5004380097e+02 5.5110666802e+02 1.4999677533e+01 0.0000e+00 0.0000e+00
  1000023  2    3    3    0    0 +1.9145249867e+01 -1.1855574217e+01 -3.1119242075e+02 3.1205457835e+02 5.4992638483e+00 0.0000e+00 0.0000e+00
        4  1    1    2  501    0 -2.4978031213e+01 +1.7929979811e+01 -2.0695794457e+03 2.0698083207e+03 1.4200000000e+00 0.0000e+00 1.0000e+00
  1000022  1    4    4    0    0 +1.6379516018e+01 -9.8371343306e+00 -2.6547936896e+02 2.6621298447e+02 5.0000000000e+00 0.0000e+00 1.0000e+00
      -13  1    4    4    0    0 +1.2854298426e+00 -9.3022241648e-01 -2.1109024441e+01 2.1168838631e+01 1.0570000000e-01 0.0000e+00 1.0000e+00
       13  1    4    4    0    0 +1.4803040072e+00 -1.0882174698e+00 -2.4604027351e+01 2.4672755249e+01 1.0570000000e-01 0.0000e+00 -1.0000e+00
  1000022  1    3    3    0    0 +5.8327813452e+00 -6.0744055944e+00 -2.3885138022e+02 2.3905208967e+02 5.0000000000e+00 0.0000e+00 -1.0000e+00
<mgrwt>
<rscale>  1 0.34210767E+02</rscale>
<asrwt>0</asrwt>
<pdfrwt beam="1">  1       21 0.40301030E+00 0.34210767E+02</pdfrwt>
<pdfrwt beam="2">  1        4 0.99391412E-04 0.34210767E+02</pdfrwt>
<totfact> 0.22723812E+04</totfact>
</mgrwt>
<rwgt>
<wgt id='1001'> +1.5538000e-12 </wgt>
<wgt id='1002'> +1.4045839e-12 </wgt>
<wgt id='1003'> +1.3966626e-12 </wgt>
<wgt id='1004'> +1.5723022e-12 </wgt>
<wgt id='1005'> +1.3362911e-12 </wgt>
<wgt id='1006'> +1.3644075e-12 </wgt>
<wgt id='1007'> +1.2504029e-12 </wgt>
<wgt id='1008'> +1.2441888e-12 </wgt>
<wgt id='1009'> +1.3780703e-12 </wgt>
<wgt id='1010'> +1.1963657e-12 </wgt>
<wgt id='1011'> +1.8072009e-12 </wgt>
<wgt id='1012'> +1.6039787e-12 </wgt>
<wgt id='1013'> +1.5935150e-12 </wgt>
<wgt id='1014'> +1.8333867e-12 </wgt>
<wgt id='1015'> +1.5147504e-12 </wgt>
<wgt id='1016'> +1.5711949e-12 </wgt>
<wgt id='1017'> +1.3997207e-12 </wgt>
<wgt id='1018'> +1.3910176e-12 </wgt>
<wgt id='1019'> +1.5935150e-12 </wgt>
<wgt id='1020'> +1.3253281e-12 </wgt>
<wgt id='1021'> +1.3796821e-12 </wgt>
<wgt id='1022'> +1.2460736e-12 </wgt>
<wgt id='1023'> +1.2391600e-12 </wgt>
<wgt id='1024'> +1.3966626e-12 </wgt>
<wgt id='1025'> +1.1865507e-12 </wgt>
<wgt id='1026'> +1.8274326e-12 </wgt>
<wgt id='1027'> +1.5984251e-12 </wgt>
<wgt id='1028'> +1.5870744e-12 </wgt>
<wgt id='1029'> +1.8581219e-12 </wgt>
<wgt id='1030'> +1.5023233e-12 </wgt>
<wgt id='1031'> +1.4904983e-12 </wgt>
<wgt id='1032'> +1.3844309e-12 </wgt>
<wgt id='1033'> +1.3780703e-12 </wgt>
<wgt id='1034'> +1.5015496e-12 </wgt>
<wgt id='1035'> +1.3286438e-12 </wgt>
<wgt id='1036'> +1.3088216e-12 </wgt>
<wgt id='1037'> +1.2324622e-12 </wgt>
<wgt id='1038'> +1.2276262e-12 </wgt>
<wgt id='1039'> +1.3160580e-12 </wgt>
<wgt id='1040'> +1.1895192e-12 </wgt>
<wgt id='1041'> +1.7335756e-12 </wgt>
<wgt id='1042'> +1.5809648e-12 </wgt>
<wgt id='1043'> +1.5723022e-12 </wgt>
<wgt id='1044'> +1.7508854e-12 </wgt>
<wgt id='1045'> +1.5060819e-12 </wgt>
<wgt id='1046'> +1.5538000e-12 </wgt>
<wgt id='1047'> +1.4877115e-12 </wgt>
<wgt id='1048'> +1.6194537e-12 </wgt>
<wgt id='1049'> +1.5386041e-12 </wgt>
<wgt id='1050'> +1.5787999e-12 </wgt>
<wgt id='1051'> +1.3647927e-12 </wgt>
<wgt id='1052'> +1.6720400e-12 </wgt>
<wgt id='1053'> +1.6449848e-12 </wgt>
<wgt id='1054'> +1.5339736e-12 </wgt>
<wgt id='1055'> +1.6662538e-12 </wgt>
<wgt id='1056'> +1.5821875e-12 </wgt>
<wgt id='1057'> +1.2081044e-12 </wgt>
<wgt id='1058'> +1.5839104e-12 </wgt>
<wgt id='1059'> +1.4732778e-12 </wgt>
<wgt id='1060'> +1.5804387e-12 </wgt>
<wgt id='1061'> +1.3228196e-12 </wgt>
<wgt id='1062'> +1.5136899e-12 </wgt>
<wgt id='1063'> +1.4137889e-12 </wgt>
<wgt id='1064'> +1.4693327e-12 </wgt>
<wgt id='1065'> +1.4018762e-12 </wgt>
<wgt id='1066'> +1.4001065e-12 </wgt>
<wgt id='1067'> +1.5694028e-12 </wgt>
<wgt id='1068'> +1.5329176e-12 </wgt>
<wgt id='1069'> +1.4190415e-12 </wgt>
<wgt id='1070'> +1.6270877e-12 </wgt>
<wgt id='1071'> +1.5941978e-12 </wgt>
<wgt id='1072'> +1.5198447e-12 </wgt>
<wgt id='1073'> +1.6733462e-12 </wgt>
<wgt id='1074'> +1.6981493e-12 </wgt>
<wgt id='1075'> +1.4551968e-12 </wgt>
<wgt id='1076'> +1.6987988e-12 </wgt>
<wgt id='1077'> +1.7391070e-12 </wgt>
<wgt id='1078'> +1.2774495e-12 </wgt>
<wgt id='1079'> +1.4241664e-12 </wgt>
<wgt id='1080'> +1.6874585e-12 </wgt>
<wgt id='1081'> +1.4857513e-12 </wgt>
<wgt id='1082'> +1.5908324e-12 </wgt>
<wgt id='1083'> +1.4047991e-12 </wgt>
<wgt id='1084'> +1.8304111e-12 </wgt>
<wgt id='1085'> +1.6936629e-12 </wgt>
<wgt id='1086'> +1.8475158e-12 </wgt>
<wgt id='1087'> +1.6050533e-12 </wgt>
<wgt id='1088'> +1.8352626e-12 </wgt>
<wgt id='1089'> +1.5957954e-12 </wgt>
<wgt id='1090'> +1.6261333e-12 </wgt>
<wgt id='1091'> +1.3846045e-12 </wgt>
<wgt id='1092'> +1.6208630e-12 </wgt>
<wgt id='1093'> +1.4375480e-12 </wgt>
<wgt id='1094'> +1.6611032e-12 </wgt>
<wgt id='1095'> +1.4236894e-12 </wgt>
<wgt id='1096'> +1.7478150e-12 </wgt>
<wgt id='1097'> +1.3436673e-12 </wgt>
<wgt id='1098'> +1.8118621e-12 </wgt>
<wgt id='1099'> +1.4567229e-12 </wgt>
<wgt id='1100'> +1.6343460e-12 </wgt>
<wgt id='1101'> +1.3945115e-12 </wgt>
<wgt id='1102'> +1.6246155e-12 </wgt>
<wgt id='1103'> +1.3596562e-12 </wgt>
<wgt id='1104'> +1.7698837e-12 </wgt>
<wgt id='1105'> +1.5424214e-12 </wgt>
<wgt id='1106'> +1.3654849e-12 </wgt>
<wgt id='1107'> +1.7339180e-12 </wgt>
<wgt id='1108'> +1.6483826e-12 </wgt>
<wgt id='1109'> +1.3776654e-12 </wgt>
<wgt id='1110'> +1.4460480e-12 </wgt>
<wgt id='1111'> +1.4818230e-12 </wgt>
<wgt id='1112'> +1.7175572e-12 </wgt>
<wgt id='1113'> +1.6036858e-12 </wgt>
<wgt id='1114'> +1.6193593e-12 </wgt>
<wgt id='1115'> +1.4421713e-12 </wgt>
<wgt id='1116'> +1.7154189e-12 </wgt>
<wgt id='1117'> +1.4062886e-12 </wgt>
<wgt id='1118'> +1.3311761e-12 </wgt>
<wgt id='1119'> +1.4237078e-12 </wgt>
<wgt id='1120'> +1.4207450e-12 </wgt>
<wgt id='1121'> +1.4706947e-12 </wgt>
<wgt id='1122'> +1.3555836e-12 </wgt>
<wgt id='1123'> +1.6671293e-12 </wgt>
<wgt id='1124'> +1.2318133e-12 </wgt>
<wgt id='1125'> +1.2816132e-12 </wgt>
<wgt id='1126'> +1.6587001e-12 </wgt>
<wgt id='1127'> +1.6379865e-12 </wgt>
<wgt id='1128'> +1.5136899e-12 </wgt>
<wgt id='1129'> +1.6384792e-12 </wgt>
<wgt id='1130'> +1.5809725e-12 </wgt>
<wgt id='1131'> +1.6735195e-12 </wgt>
<wgt id='1132'> +1.8094207e-12 </wgt>
<wgt id='1133'> +1.6704406e-12 </wgt>
<wgt id='1134'> +1.6639266e-12 </wgt>
<wgt id='1135'> +1.8737063e-12 </wgt>
<wgt id='1136'> +1.6168148e-12 </wgt>
<wgt id='1137'> +1.6994611e-12 </wgt>
<wgt id='1138'> +1.4285689e-12 </wgt>
<wgt id='1139'> +1.5702598e-12 </wgt>
<wgt id='1140'> +1.4679880e-12 </wgt>
<wgt id='1141'> +1.5768478e-12 </wgt>
<wgt id='1142'> +1.7355659e-12 </wgt>
<wgt id='1143'> +1.6366322e-12 </wgt>
<wgt id='1144'> +1.4878920e-12 </wgt>
<wgt id='1145'> +1.4879136e-12 </wgt>
<wgt id='1146'> +1.4910096e-12 </wgt>
<wgt id='1147'> +1.8439311e-12 </wgt>
<wgt id='1148'> +1.8649676e-12 </wgt>
<wgt id='1149'> +1.6168632e-12 </wgt>
<wgt id='1150'> +1.5559078e-12 </wgt>
<wgt id='1151'> +1.9434132e-12 </wgt>
<wgt id='1152'> +2.4462748e-12 </wgt>
<wgt id='1153'> +2.4382997e-12 </wgt>
<wgt id='1154'> +2.4510266e-12 </wgt>
<wgt id='1155'> +2.4473557e-12 </wgt>
<wgt id='1156'> +2.4457432e-12 </wgt>
<wgt id='1157'> +2.4389245e-12 </wgt>
<wgt id='1158'> +2.4562269e-12 </wgt>
<wgt id='1159'> +2.4398825e-12 </wgt>
<wgt id='1160'> +2.4503966e-12 </wgt>
<wgt id='1161'> +2.4329157e-12 </wgt>
<wgt id='1162'> +2.4554767e-12 </wgt>
<wgt id='1163'> +2.4565443e-12 </wgt>
<wgt id='1164'> +2.4361188e-12 </wgt>
<wgt id='1165'> +2.4315262e-12 </wgt>
<wgt id='1166'> +2.4608181e-12 </wgt>
<wgt id='1167'> +2.4156622e-12 </wgt>
<wgt id='1168'> +2.4837287e-12 </wgt>
<wgt id='1169'> +2.4312191e-12 </wgt>
<wgt id='1170'> +2.4584933e-12 </wgt>
<wgt id='1171'> +2.4898371e-12 </wgt>
<wgt id='1172'> +2.3935833e-12 </wgt>
<wgt id='1173'> +2.5706489e-12 </wgt>
<wgt id='1174'> +2.3252762e-12 </wgt>
<wgt id='1175'> +2.4562616e-12 </wgt>
<wgt id='1176'> +2.4371350e-12 </wgt>
<wgt id='1177'> +2.4490927e-12 </wgt>
<wgt id='1178'> +2.4424709e-12 </wgt>
<wgt id='1179'> +2.2653223e-12 </wgt>
<wgt id='1180'> +2.6213961e-12 </wgt>
<wgt id='1181'> +2.5080136e-12 </wgt>
<wgt id='1182'> +2.3923749e-12 </wgt>
<wgt id='1183'> +2.4590203e-12 </wgt>
<wgt id='1184'> +2.4451438e-12 </wgt>
<wgt id='1185'> +2.4661167e-12 </wgt>
<wgt id='1186'> +2.4370310e-12 </wgt>
<wgt id='1187'> +2.4460565e-12 </wgt>
<wgt id='1188'> +2.4462837e-12 </wgt>
<wgt id='1189'> +2.4185527e-12 </wgt>
<wgt id='1190'> +2.4167839e-12 </wgt>
<wgt id='1191'> +2.5815533e-12 </wgt>
<wgt id='1192'> +2.3667534e-12 </wgt>
<wgt id='1193'> +1.6653143e-12 </wgt>
<wgt id='1194'> +1.6322883e-12 </wgt>
<wgt id='1195'> +1.6923142e-12 </wgt>
<wgt id='1196'> +1.6606732e-12 </wgt>
<wgt id='1197'> +1.6704880e-12 </wgt>
<wgt id='1198'> +1.6682799e-12 </wgt>
<wgt id='1199'> +1.6609369e-12 </wgt>
<wgt id='1200'> +1.6658907e-12 </wgt>
<wgt id='1201'> +1.6649192e-12 </wgt>
<wgt id='1202'> +1.6595492e-12 </wgt>
<wgt id='1203'> +1.6734785e-12 </wgt>
<wgt id='1204'> +1.6317885e-12 </wgt>
<wgt id='1205'> +1.6859418e-12 </wgt>
<wgt id='1206'> +1.6712562e-12 </wgt>
<wgt id='1207'> +1.6570802e-12 </wgt>
<wgt id='1208'> +1.6573690e-12 </wgt>
<wgt id='1209'> +1.6683799e-12 </wgt>
<wgt id='1210'> +1.6288507e-12 </wgt>
<wgt id='1211'> +1.7259084e-12 </wgt>
<wgt id='1212'> +1.6649329e-12 </wgt>
<wgt id='1213'> +1.6675144e-12 </wgt>
<wgt id='1214'> +1.7806172e-12 </wgt>
<wgt id='1215'> +1.4731007e-12 </wgt>
<wgt id='1216'> +1.5925081e-12 </wgt>
<wgt id='1217'> +1.7114721e-12 </wgt>
<wgt id='1218'> +1.6333183e-12 </wgt>
<wgt id='1219'> +1.6802427e-12 </wgt>
<wgt id='1220'> +1.6586457e-12 </wgt>
<wgt id='1221'> +1.6885022e-12 </wgt>
<wgt id='1222'> +1.6699541e-12 </wgt>
<wgt id='1223'> +1.6686935e-12 </wgt>
<wgt id='1224'> +1.6495054e-12 </wgt>
<wgt id='1225'> +1.6716740e-12 </wgt>
<wgt id='1226'> +1.6697332e-12 </wgt>
<wgt id='1227'> +1.6631107e-12 </wgt>
<wgt id='1228'> +1.7029257e-12 </wgt>
<wgt id='1229'> +1.6431428e-12 </wgt>
<wgt id='1230'> +1.5683221e-12 </wgt>
<wgt id='1231'> +1.8367775e-12 </wgt>
<wgt id='1232'> +1.6762815e-12 </wgt>
<wgt id='1233'> +1.6625888e-12 </wgt>
<wgt id='1234'> +1.6653143e-12 </wgt>
<wgt id='1235'> +1.6645718e-12 </wgt>
<wgt id='1236'> +1.6664505e-12 </wgt>
<wgt id='1237'> +1.6670395e-12 </wgt>
<wgt id='1238'> +1.6705059e-12 </wgt>
<wgt id='1239'> +1.6704217e-12 </wgt>
<wgt id='1240'> +1.6716404e-12 </wgt>
<wgt id='1241'> +1.4465725e-12 </wgt>
<wgt id='1242'> +1.4222058e-12 </wgt>
<wgt id='1243'> +1.4703838e-12 </wgt>
<wgt id='1244'> +1.4501906e-12 </wgt>
<wgt id='1245'> +1.4439172e-12 </wgt>
<wgt id='1246'> +1.4463185e-12 </wgt>
<wgt id='1247'> +1.4467436e-12 </wgt>
<wgt id='1248'> +1.4464431e-12 </wgt>
<wgt id='1249'> +1.4466894e-12 </wgt>
<wgt id='1250'> +1.4423339e-12 </wgt>
<wgt id='1251'> +1.4495688e-12 </wgt>
<wgt id='1252'> +1.4460550e-12 </wgt>
<wgt id='1253'> +1.4468992e-12 </wgt>
<wgt id='1254'> +1.4294709e-12 </wgt>
<wgt id='1255'> +1.4567571e-12 </wgt>
<wgt id='1256'> +1.4496491e-12 </wgt>
<wgt id='1257'> +1.4387137e-12 </wgt>
<wgt id='1258'> +1.3276323e-12 </wgt>
<wgt id='1259'> +1.5475820e-12 </wgt>
<wgt id='1260'> +1.4256828e-12 </wgt>
<wgt id='1261'> +1.4738278e-12 </wgt>
<wgt id='1262'> +1.4246119e-12 </wgt>
<wgt id='1263'> +1.4559539e-12 </wgt>
<wgt id='1264'> +1.4356415e-12 </wgt>
<wgt id='1265'> +1.4526352e-12 </wgt>
<wgt id='1266'> +1.4839172e-12 </wgt>
<wgt id='1267'> +1.4182754e-12 </wgt>
<wgt id='1268'> +1.4421547e-12 </wgt>
<wgt id='1269'> +1.4627590e-12 </wgt>
<wgt id='1270'> +1.3680259e-12 </wgt>
<wgt id='1271'> +1.5323368e-12 </wgt>
<wgt id='1272'> +1.3977187e-12 </wgt>
<wgt id='1273'> +1.4647628e-12 </wgt>
<wgt id='1274'> +1.4275431e-12 </wgt>
<wgt id='1275'> +1.4815519e-12 </wgt>
<wgt id='1276'> +1.4150452e-12 </wgt>
<wgt id='1277'> +1.4779458e-12 </wgt>
<wgt id='1278'> +1.5272471e-12 </wgt>
<wgt id='1279'> +1.4347541e-12 </wgt>
<wgt id='1280'> +1.4486234e-12 </wgt>
<wgt id='1281'> +1.4507197e-12 </wgt>
<wgt id='1282'> +1.4465725e-12 </wgt>
<wgt id='1283'> +1.4482247e-12 </wgt>
<wgt id='1284'> +1.4493393e-12 </wgt>
<wgt id='1285'> +1.4482050e-12 </wgt>
<wgt id='1286'> +1.4490164e-12 </wgt>
<wgt id='1287'> +1.4475902e-12 </wgt>
<wgt id='1288'> +1.4475385e-12 </wgt>
<wgt id='1289'> +1.5923608e-12 </wgt>
<wgt id='1290'> +1.6019712e-12 </wgt>
<wgt id='1291'> +1.5821758e-12 </wgt>
<wgt id='1292'> +1.5948758e-12 </wgt>
<wgt id='1293'> +1.5905858e-12 </wgt>
<wgt id='1294'> +1.5672271e-12 </wgt>
<wgt id='1295'> +1.6162378e-12 </wgt>
<wgt id='1296'> +1.6035781e-12 </wgt>
<wgt id='1297'> +1.5783810e-12 </wgt>
<wgt id='1298'> +1.6148185e-12 </wgt>
<wgt id='1299'> +1.5644862e-12 </wgt>
<wgt id='1300'> +1.5986205e-12 </wgt>
<wgt id='1301'> +1.5798548e-12 </wgt>
<wgt id='1302'> +1.5895352e-12 </wgt>
<wgt id='1303'> +1.5963738e-12 </wgt>
<wgt id='1304'> +1.5917100e-12 </wgt>
<wgt id='1305'> +1.5927956e-12 </wgt>
<wgt id='1306'> +1.5792335e-12 </wgt>
<wgt id='1307'> +1.6073096e-12 </wgt>
<wgt id='1308'> +1.5852550e-12 </wgt>
<wgt id='1309'> +1.5978672e-12 </wgt>
<wgt id='1310'> +1.5847983e-12 </wgt>
<wgt id='1311'> +1.6006970e-12 </wgt>
<wgt id='1312'> +1.5792993e-12 </wgt>
<wgt id='1313'> +1.6068113e-12 </wgt>
<wgt id='1314'> +1.5475934e-12 </wgt>
<wgt id='1315'> +1.6463138e-12 </wgt>
<wgt id='1316'> +1.5966937e-12 </wgt>
<wgt id='1317'> +1.6015536e-12 </wgt>
<wgt id='1318'> +1.5241900e-12 </wgt>
<wgt id='1319'> +1.6739274e-12 </wgt>
<wgt id='1320'> +1.4868864e-12 </wgt>
<wgt id='1321'> +1.6761504e-12 </wgt>
<wgt id='1322'> +1.6015316e-12 </wgt>
<wgt id='1323'> +1.5801610e-12 </wgt>
<wgt id='1324'> +1.6117570e-12 </wgt>
<wgt id='1325'> +1.5615685e-12 </wgt>
<wgt id='1326'> +1.5893764e-12 </wgt>
<wgt id='1327'> +1.5956567e-12 </wgt>
<wgt id='1328'> +1.5729605e-12 </wgt>
<wgt id='1329'> +1.6113220e-12 </wgt>
<wgt id='1330'> +1.5573554e-12 </wgt>
<wgt id='1331'> +1.6372515e-12 </wgt>
<wgt id='1332'> +1.6101938e-12 </wgt>
<wgt id='1333'> +1.6127766e-12 </wgt>
<wgt id='1334'> +1.5869346e-12 </wgt>
<wgt id='1335'> +1.6083926e-12 </wgt>
<wgt id='1336'> +1.5377777e-12 </wgt>
<wgt id='1337'> +1.7344228e-12 </wgt>
<wgt id='1338'> +1.5621396e-12 </wgt>
<wgt id='1339'> +1.6098633e-12 </wgt>
<wgt id='1340'> +1.4599798e-12 </wgt>
<wgt id='1341'> +1.4684590e-12 </wgt>
<wgt id='1342'> +1.4508638e-12 </wgt>
<wgt id='1343'> +1.4624728e-12 </wgt>
<wgt id='1344'> +1.4582899e-12 </wgt>
<wgt id='1345'> +1.4355673e-12 </wgt>
<wgt id='1346'> +1.4822557e-12 </wgt>
<wgt id='1347'> +1.4714232e-12 </wgt>
<wgt id='1348'> +1.4470436e-12 </wgt>
<wgt id='1349'> +1.4797041e-12 </wgt>
<wgt id='1350'> +1.4406989e-12 </wgt>
<wgt id='1351'> +1.4659832e-12 </wgt>
<wgt id='1352'> +1.4469298e-12 </wgt>
<wgt id='1353'> +1.4566399e-12 </wgt>
<wgt id='1354'> +1.4659306e-12 </wgt>
<wgt id='1355'> +1.4603292e-12 </wgt>
<wgt id='1356'> +1.4597904e-12 </wgt>
<wgt id='1357'> +1.4468584e-12 </wgt>
<wgt id='1358'> +1.4753811e-12 </wgt>
<wgt id='1359'> +1.4565768e-12 </wgt>
<wgt id='1360'> +1.4629940e-12 </wgt>
<wgt id='1361'> +1.4544185e-12 </wgt>
<wgt id='1362'> +1.4674194e-12 </wgt>
<wgt id='1363'> +1.4510138e-12 </wgt>
<wgt id='1364'> +1.4670741e-12 </wgt>
<wgt id='1365'> +1.5135221e-12 </wgt>
<wgt id='1366'> +1.4045272e-12 </wgt>
<wgt id='1367'> +1.4644917e-12 </wgt>
<wgt id='1368'> +1.4649928e-12 </wgt>
<wgt id='1369'> +1.4117891e-12 </wgt>
<wgt id='1370'> +1.5189760e-12 </wgt>
<wgt id='1371'> +1.3928355e-12 </wgt>
<wgt id='1372'> +1.5399020e-12 </wgt>
<wgt id='1373'> +1.4841218e-12 </wgt>
<wgt id='1374'> +1.4365619e-12 </wgt>
<wgt id='1375'> +1.4757592e-12 </wgt>
<wgt id='1376'> +1.4314249e-12 </wgt>
<wgt id='1377'> +1.4599412e-12 </wgt>
<wgt id='1378'> +1.4600036e-12 </wgt>
<wgt id='1379'> +1.4446185e-12 </wgt>
<wgt id='1380'> +1.4774507e-12 </wgt>
<wgt id='1381'> +1.4270586e-12 </wgt>
<wgt id='1382'> +1.4993225e-12 </wgt>
<wgt id='1383'> +1.4725053e-12 </wgt>
<wgt id='1384'> +1.4792850e-12 </wgt>
<wgt id='1385'> +1.4537736e-12 </wgt>
<wgt id='1386'> +1.4766906e-12 </wgt>
<wgt id='1387'> +1.4072661e-12 </wgt>
<wgt id='1388'> +1.5885064e-12 </wgt>
<wgt id='1389'> +1.4197945e-12 </wgt>
<wgt id='1390'> +1.4845370e-12 </wgt>
<wgt id='1391'> +1.5357830e-12 </wgt>
<wgt id='1392'> +1.3608933e-12 </wgt>
<wgt id='1393'> +1.4093135e-12 </wgt>
<wgt id='1394'> +1.4835482e-12 </wgt>
<wgt id='1395'> +1.6353298e-12 </wgt>
<wgt id='1396'> +1.5495588e-12 </wgt>
<wgt id='1397'> +1.5680916e-12 </wgt>
<wgt id='1398'> +1.5661269e-12 </wgt>
<wgt id='1399'> +1.5588195e-12 </wgt>
<wgt id='1400'> +1.5558794e-12 </wgt>
<wgt id='1401'> +1.5535400e-12 </wgt>
<wgt id='1402'> +1.5497757e-12 </wgt>
<wgt id='1403'> +1.5449623e-12 </wgt>
<wgt id='1404'> +1.5391196e-12 </wgt>
<wgt id='1405'> +1.5495588e-12 </wgt>
<wgt id='1406'> +1.5416616e-12 </wgt>
<wgt id='1407'> +1.5454197e-12 </wgt>
<wgt id='1408'> +1.5541833e-12 </wgt>
<wgt id='1409'> +1.5646366e-12 </wgt>
<wgt id='1410'> +1.7054401e-12 </wgt>
<wgt id='1411'> +1.7238249e-12 </wgt>
<wgt id='1412'> +1.6817591e-12 </wgt>
<wgt id='1413'> +1.6851268e-12 </wgt>
<wgt id='1414'> +1.7254490e-12 </wgt>
<wgt id='1415'> +1.6988220e-12 </wgt>
<wgt id='1416'> +1.7080771e-12 </wgt>
<wgt id='1417'> +1.7044372e-12 </wgt>
<wgt id='1418'> +1.7064034e-12 </wgt>
<wgt id='1419'> +1.7151056e-12 </wgt>
<wgt id='1420'> +1.6961251e-12 </wgt>
<wgt id='1421'> +1.6686936e-12 </wgt>
<wgt id='1422'> +1.7211358e-12 </wgt>
<wgt id='1423'> +1.7037397e-12 </wgt>
<wgt id='1424'> +1.7075560e-12 </wgt>
<wgt id='1425'> +1.6953191e-12 </wgt>
<wgt id='1426'> +1.7163035e-12 </wgt>
<wgt id='1427'> +1.6596814e-12 </wgt>
<wgt id='1428'> +1.7312447e-12 </wgt>
<wgt id='1429'> +1.7002855e-12 </wgt>
<wgt id='1430'> +1.7129148e-12 </wgt>
<wgt id='1431'> +1.7147441e-12 </wgt>
<wgt id='1432'> +1.6990520e-12 </wgt>
<wgt id='1433'> +1.6838005e-12 </wgt>
<wgt id='1434'> +1.7227071e-12 </wgt>
<wgt id='1435'> +1.7011877e-12 </wgt>
<wgt id='1436'> +1.7183471e-12 </wgt>
<wgt id='1437'> +1.7035735e-12 </wgt>
<wgt id='1438'> +1.7274726e-12 </wgt>
<wgt id='1439'> +1.7631436e-12 </wgt>
<wgt id='1440'> +1.5521675e-12 </wgt>
<wgt id='1441'> +1.6666384e-12 </wgt>
<wgt id='1442'> +1.7931923e-12 </wgt>
<wgt id='1443'> +1.7275436e-12 </wgt>
<wgt id='1444'> +1.6722170e-12 </wgt>
<wgt id='1445'> +1.6440804e-12 </wgt>
<wgt id='1446'> +1.7415506e-12 </wgt>
<wgt id='1447'> +1.7045275e-12 </wgt>
<wgt id='1448'> +1.7186156e-12 </wgt>
<wgt id='1449'> +1.6768695e-12 </wgt>
<wgt id='1450'> +1.7266300e-12 </wgt>
<wgt id='1451'> +1.7783568e-12 </wgt>
<wgt id='1452'> +1.6180866e-12 </wgt>
<wgt id='1453'> +1.7100260e-12 </wgt>
<wgt id='1454'> +1.6801109e-12 </wgt>
<wgt id='1455'> +1.7941469e-12 </wgt>
<wgt id='1456'> +1.6818605e-12 </wgt>
<wgt id='1457'> +1.6901832e-12 </wgt>
<wgt id='1458'> +1.7172085e-12 </wgt>
<wgt id='1459'> +1.7999537e-12 </wgt>
<wgt id='1460'> +1.6768257e-12 </wgt>
<wgt id='1461'> +1.7054401e-12 </wgt>
<wgt id='1462'> +1.6096060e-12 </wgt>
<wgt id='1463'> +1.8650008e-12 </wgt>
<wgt id='1464'> +1.7374032e-12 </wgt>
<wgt id='1465'> +1.8028056e-12 </wgt>
<wgt id='1466'> +1.7866856e-12 </wgt>
<wgt id='1467'> +1.7740869e-12 </wgt>
<wgt id='1468'> +1.7687323e-12 </wgt>
<wgt id='1469'> +1.7499249e-12 </wgt>
<wgt id='1470'> +1.7226262e-12 </wgt>
<wgt id='1471'> +1.7091633e-12 </wgt>
<wgt id='1472'> +1.6952891e-12 </wgt>
<wgt id='1473'> +1.7374032e-12 </wgt>
<wgt id='1474'> +1.7274065e-12 </wgt>
<wgt id='1475'> +1.7334361e-12 </wgt>
<wgt id='1476'> +1.7426722e-12 </wgt>
<wgt id='1477'> +1.7476319e-12 </wgt>
<wgt id='1478'> +1.5544671e-12 </wgt>
<wgt id='1479'> +1.5812953e-12 </wgt>
<wgt id='1480'> +1.5719411e-12 </wgt>
<wgt id='1481'> +1.5967397e-12 </wgt>
<wgt id='1482'> +1.5587446e-12 </wgt>
<wgt id='1483'> +1.4997895e-12 </wgt>
<wgt id='1484'> +1.6079985e-12 </wgt>
<wgt id='1485'> +1.6053283e-12 </wgt>
<wgt id='1486'> +1.5476761e-12 </wgt>
<wgt id='1487'> +1.6143877e-12 </wgt>
<wgt id='1488'> +1.5837722e-12 </wgt>
<wgt id='1489'> +1.4503193e-12 </wgt>
<wgt id='1490'> +1.5750015e-12 </wgt>
<wgt id='1491'> +1.6420204e-12 </wgt>
<wgt id='1492'> +1.5610619e-12 </wgt>
<wgt id='1493'> +1.5642687e-12 </wgt>
<wgt id='1494'> +1.5677998e-12 </wgt>
<wgt id='1495'> +1.6073626e-12 </wgt>
<wgt id='1496'> +1.4950299e-12 </wgt>
<wgt id='1497'> +1.5349024e-12 </wgt>
<wgt id='1498'> +1.5179043e-12 </wgt>
<wgt id='1499'> +1.5408044e-12 </wgt>
<wgt id='1500'> +1.5790700e-12 </wgt>
<wgt id='1501'> +1.4825456e-12 </wgt>
<wgt id='1502'> +1.5394040e-12 </wgt>
<wgt id='1503'> +1.5599638e-12 </wgt>
<wgt id='1504'> +1.5391935e-12 </wgt>
<wgt id='1505'> +1.5209434e-12 </wgt>
<wgt id='1506'> +1.5168586e-12 </wgt>
<wgt id='1507'> +1.5772715e-12 </wgt>
<wgt id='1508'> +1.4738692e-12 </wgt>
<wgt id='1509'> +1.3712885e-12 </wgt>
<wgt id='1510'> +1.3805293e-12 </wgt>
<wgt id='1511'> +1.3306471e-12 </wgt>
<wgt id='1512'> +1.3486268e-12 </wgt>
<wgt id='1513'> +1.3826726e-12 </wgt>
<wgt id='1514'> +1.3813179e-12 </wgt>
<wgt id='1515'> +1.3672207e-12 </wgt>
<wgt id='1516'> +1.3872343e-12 </wgt>
<wgt id='1517'> +1.3693811e-12 </wgt>
<wgt id='1518'> +1.3851161e-12 </wgt>
<wgt id='1519'> +1.3648672e-12 </wgt>
<wgt id='1520'> +1.3664875e-12 </wgt>
<wgt id='1521'> +1.3493439e-12 </wgt>
<wgt id='1522'> +1.3395875e-12 </wgt>
<wgt id='1523'> +1.3559372e-12 </wgt>
<wgt id='1524'> +1.3624908e-12 </wgt>
<wgt id='1525'> +1.3751476e-12 </wgt>
<wgt id='1526'> +1.3708175e-12 </wgt>
<wgt id='1527'> +1.3601461e-12 </wgt>
<wgt id='1528'> +1.3641764e-12 </wgt>
<wgt id='1529'> +1.3497547e-12 </wgt>
<wgt id='1530'> +1.3711958e-12 </wgt>
<wgt id='1531'> +1.3538135e-12 </wgt>
<wgt id='1532'> +1.3734265e-12 </wgt>
<wgt id='1533'> +1.3563147e-12 </wgt>
<wgt id='1534'> +1.3548643e-12 </wgt>
<wgt id='1535'> +1.3830193e-12 </wgt>
<wgt id='1536'> +1.3621788e-12 </wgt>
<wgt id='1537'> +1.3602814e-12 </wgt>
<wgt id='1538'> +1.4103601e-12 </wgt>
<wgt id='1539'> +1.3732226e-12 </wgt>
<wgt id='1540'> +1.3729864e-12 </wgt>
<wgt id='1541'> +1.3795685e-12 </wgt>
<wgt id='1542'> +1.3762994e-12 </wgt>
<wgt id='1543'> +1.3907887e-12 </wgt>
<wgt id='1544'> +1.3716228e-12 </wgt>
<wgt id='1545'> +1.3593169e-12 </wgt>
<wgt id='1546'> +1.4054199e-12 </wgt>
<wgt id='1547'> +1.3913952e-12 </wgt>
<wgt id='1548'> +1.3530478e-12 </wgt>
<wgt id='1549'> +1.3402442e-12 </wgt>
<wgt id='1550'> +1.3498022e-12 </wgt>
<wgt id='1551'> +1.3806439e-12 </wgt>
<wgt id='1552'> +1.4089965e-12 </wgt>
<wgt id='1553'> +1.3879476e-12 </wgt>
<wgt id='1554'> +1.3681267e-12 </wgt>
<wgt id='1555'> +1.3474661e-12 </wgt>
<wgt id='1556'> +1.3468435e-12 </wgt>
<wgt id='1557'> +1.3754424e-12 </wgt>
<wgt id='1558'> +1.3789118e-12 </wgt>
<wgt id='1559'> +1.3385989e-12 </wgt>
<wgt id='1560'> +1.3550782e-12 </wgt>
<wgt id='1561'> +1.3691789e-12 </wgt>
<wgt id='1562'> +1.3737010e-12 </wgt>
<wgt id='1563'> +1.3659725e-12 </wgt>
<wgt id='1564'> +1.3482649e-12 </wgt>
<wgt id='1565'> +1.3714696e-12 </wgt>
<wgt id='1566'> +1.3704968e-12 </wgt>
<wgt id='1567'> +1.3688408e-12 </wgt>
<wgt id='1568'> +1.3611291e-12 </wgt>
<wgt id='1569'> +1.3619453e-12 </wgt>
<wgt id='1570'> +1.3679738e-12 </wgt>
<wgt id='1571'> +1.3484213e-12 </wgt>
<wgt id='1572'> +1.3893137e-12 </wgt>
<wgt id='1573'> +1.3848809e-12 </wgt>
<wgt id='1574'> +1.3784557e-12 </wgt>
<wgt id='1575'> +1.3946139e-12 </wgt>
<wgt id='1576'> +1.3672362e-12 </wgt>
<wgt id='1577'> +1.3707814e-12 </wgt>
<wgt id='1578'> +1.3794272e-12 </wgt>
<wgt id='1579'> +1.3394679e-12 </wgt>
<wgt id='1580'> +1.3674445e-12 </wgt>
<wgt id='1581'> +1.3767955e-12 </wgt>
<wgt id='1582'> +1.3483076e-12 </wgt>
<wgt id='1583'> +1.3606546e-12 </wgt>
<wgt id='1584'> +1.3607122e-12 </wgt>
<wgt id='1585'> +1.3834793e-12 </wgt>
<wgt id='1586'> +1.3423001e-12 </wgt>
<wgt id='1587'> +1.3839473e-12 </wgt>
<wgt id='1588'> +1.3802186e-12 </wgt>
<wgt id='1589'> +1.3757731e-12 </wgt>
<wgt id='1590'> +1.3768163e-12 </wgt>
<wgt id='1591'> +1.3825407e-12 </wgt>
<wgt id='1592'> +1.3697570e-12 </wgt>
<wgt id='1593'> +1.3658298e-12 </wgt>
<wgt id='1594'> +1.3667911e-12 </wgt>
<wgt id='1595'> +1.3719534e-12 </wgt>
<wgt id='1596'> +1.3640726e-12 </wgt>
<wgt id='1597'> +1.3731638e-12 </wgt>
<wgt id='1598'> +1.3762677e-12 </wgt>
<wgt id='1599'> +1.3700947e-12 </wgt>
<wgt id='1600'> +1.3675490e-12 </wgt>
<wgt id='1601'> +1.3640039e-12 </wgt>
<wgt id='1602'> +1.3741898e-12 </wgt>
<wgt id='1603'> +1.3695711e-12 </wgt>
<wgt id='1604'> +1.3761204e-12 </wgt>
<wgt id='1605'> +1.3686358e-12 </wgt>
<wgt id='1606'> +1.3768878e-12 </wgt>
<wgt id='1607'> +1.3686860e-12 </wgt>
<wgt id='1608'> +1.3674509e-12 </wgt>
<wgt id='1609'> +1.3747334e-12 </wgt>
<wgt id='1610'> +1.2813183e-12 </wgt>
<wgt id='1611'> +1.4873456e-12 </wgt>
<wgt id='1612'> +1.6704729e-12 </wgt>
<wgt id='1613'> +2.0476319e-12 </wgt>
<wgt id='1614'> +1.5662380e-12 </wgt>
<wgt id='1615'> +1.6876785e-12 </wgt>
<wgt id='1616'> +1.7267923e-12 </wgt>
<wgt id='1617'> +1.6867887e-12 </wgt>
<wgt id='1618'> +1.9283670e-12 </wgt>
<wgt id='1619'> +2.0168315e-12 </wgt>
<wgt id='1620'> +1.6960623e-12 </wgt>
<wgt id='1621'> +1.6065780e-12 </wgt>
<wgt id='1622'> +1.3905305e-12 </wgt>
<wgt id='1623'> +1.5351237e-12 </wgt>
<wgt id='1624'> +1.8263645e-12 </wgt>
<wgt id='1625'> +1.8925145e-12 </wgt>
<wgt id='1626'> +2.0033712e-12 </wgt>
<wgt id='1627'> +1.7163411e-12 </wgt>
<wgt id='1628'> +1.7258552e-12 </wgt>
<wgt id='1629'> +1.5094037e-12 </wgt>
<wgt id='1630'> +1.4494324e-12 </wgt>
<wgt id='1631'> +1.2676300e-12 </wgt>
<wgt id='1632'> +1.8971779e-12 </wgt>
<wgt id='1633'> +2.0279658e-12 </wgt>
<wgt id='1634'> +1.8092095e-12 </wgt>
<wgt id='1635'> +1.6426627e-12 </wgt>
<wgt id='1636'> +1.8381304e-12 </wgt>
<wgt id='1637'> +2.0851047e-12 </wgt>
<wgt id='1638'> +1.5918445e-12 </wgt>
<wgt id='1639'> +1.5859277e-12 </wgt>
<wgt id='1640'> +1.5319465e-12 </wgt>
<wgt id='1641'> +1.6829454e-12 </wgt>
<wgt id='1642'> +1.5420606e-12 </wgt>
<wgt id='1643'> +1.8373142e-12 </wgt>
<wgt id='1644'> +1.8914696e-12 </wgt>
<wgt id='1645'> +1.7814445e-12 </wgt>
<wgt id='1646'> +1.6729572e-12 </wgt>
<wgt id='1647'> +1.6440298e-12 </wgt>
<wgt id='1648'> +1.4970774e-12 </wgt>
<wgt id='1649'> +1.8194400e-12 </wgt>
<wgt id='1650'> +1.4371831e-12 </wgt>
<wgt id='1651'> +1.6751972e-12 </wgt>
<wgt id='1652'> +1.7414334e-12 </wgt>
<wgt id='1653'> +1.3868014e-12 </wgt>
<wgt id='1654'> +1.8710170e-12 </wgt>
<wgt id='1655'> +2.0705084e-12 </wgt>
<wgt id='1656'> +1.6042946e-12 </wgt>
<wgt id='1657'> +1.8067803e-12 </wgt>
<wgt id='1658'> +1.5379994e-12 </wgt>
<wgt id='1659'> +1.8263645e-12 </wgt>
<wgt id='1660'> +1.6330034e-12 </wgt>
<wgt id='1661'> +1.7276646e-12 </wgt>
<wgt id='1662'> +1.5746527e-12 </wgt>
<wgt id='1663'> +1.3418731e-12 </wgt>
<wgt id='1664'> +1.3106421e-12 </wgt>
<wgt id='1665'> +1.5954065e-12 </wgt>
<wgt id='1666'> +1.9240725e-12 </wgt>
<wgt id='1667'> +1.6425233e-12 </wgt>
<wgt id='1668'> +1.7927589e-12 </wgt>
<wgt id='1669'> +1.3953417e-12 </wgt>
<wgt id='1670'> +1.5485098e-12 </wgt>
<wgt id='1671'> +1.5495537e-12 </wgt>
<wgt id='1672'> +1.4443138e-12 </wgt>
<wgt id='1673'> +1.7544950e-12 </wgt>
<wgt id='1674'> +1.6224708e-12 </wgt>
<wgt id='1675'> +1.5060784e-12 </wgt>
<wgt id='1676'> +1.5096230e-12 </wgt>
<wgt id='1677'> +1.4969214e-12 </wgt>
<wgt id='1678'> +1.7383870e-12 </wgt>
<wgt id='1679'> +1.3128793e-12 </wgt>
<wgt id='1680'> +1.6443132e-12 </wgt>
<wgt id='1681'> +1.4094190e-12 </wgt>
<wgt id='1682'> +1.5553057e-12 </wgt>
<wgt id='1683'> +1.3810084e-12 </wgt>
<wgt id='1684'> +1.8050883e-12 </wgt>
<wgt id='1685'> +1.8705310e-12 </wgt>
<wgt id='1686'> +1.5685567e-12 </wgt>
<wgt id='1687'> +1.5518976e-12 </wgt>
<wgt id='1688'> +1.8924848e-12 </wgt>
<wgt id='1689'> +1.6304100e-12 </wgt>
<wgt id='1690'> +1.5158286e-12 </wgt>
<wgt id='1691'> +1.6686887e-12 </wgt>
<wgt id='1692'> +1.5893118e-12 </wgt>
<wgt id='1693'> +1.6309086e-12 </wgt>
<wgt id='1694'> +1.8346782e-12 </wgt>
<wgt id='1695'> +1.6504883e-12 </wgt>
<wgt id='1696'> +1.5109659e-12 </wgt>
<wgt id='1697'> +1.5330063e-12 </wgt>
<wgt id='1698'> +1.6535078e-12 </wgt>
<wgt id='1699'> +1.6681802e-12 </wgt>
<wgt id='1700'> +1.6508102e-12 </wgt>
<wgt id='1701'> +1.8579075e-12 </wgt>
<wgt id='1702'> +1.5605422e-12 </wgt>
<wgt id='1703'> +1.5594780e-12 </wgt>
<wgt id='1704'> +1.7841853e-12 </wgt>
<wgt id='1705'> +1.5634617e-12 </wgt>
<wgt id='1706'> +1.6954473e-12 </wgt>
<wgt id='1707'> +1.8944888e-12 </wgt>
<wgt id='1708'> +1.8919227e-12 </wgt>
<wgt id='1709'> +1.7608097e-12 </wgt>
<wgt id='1710'> +1.9018456e-12 </wgt>
<wgt id='1711'> +1.5674206e-12 </wgt>
<wgt id='1712'> +1.6322113e-12 </wgt>
<wgt id='1713'> +1.6839399e-12 </wgt>
<wgt id='1714'> +1.6683429e-12 </wgt>
<wgt id='1715'> +1.8994369e-12 </wgt>
<wgt id='1716'> +2.0014436e-12 </wgt>
<wgt id='1717'> +1.7431382e-12 </wgt>
<wgt id='1718'> +1.4805717e-12 </wgt>
<wgt id='1719'> +1.8850033e-12 </wgt>
<wgt id='1720'> +1.2302022e-12 </wgt>
<wgt id='1721'> +1.8020354e-12 </wgt>
<wgt id='1722'> +1.7106323e-12 </wgt>
<wgt id='1723'> +1.8930271e-12 </wgt>
<wgt id='1724'> +1.6939016e-12 </wgt>
<wgt id='1725'> +1.5562514e-12 </wgt>
<wgt id='1726'> +1.7304078e-12 </wgt>
<wgt id='1727'> +1.7832682e-12 </wgt>
<wgt id='1728'> +1.6074233e-12 </wgt>
<wgt id='1729'> +1.5288790e-12 </wgt>
<wgt id='1730'> +2.5849185e-12 </wgt>
<wgt id='1731'> +1.8552045e-12 </wgt>
<wgt id='1732'> +1.5592595e-12 </wgt>
<wgt id='1733'> +1.5474721e-12 </wgt>
<wgt id='1734'> +1.4580895e-12 </wgt>
<wgt id='1735'> +1.1169699e-12 </wgt>
<wgt id='1736'> +1.2057859e-12 </wgt>
<wgt id='1737'> +1.5930615e-12 </wgt>
<wgt id='1738'> +1.6552643e-12 </wgt>
<wgt id='1739'> +1.5486369e-12 </wgt>
<wgt id='1740'> +2.2337388e-12 </wgt>
<wgt id='1741'> +2.0973841e-12 </wgt>
<wgt id='1742'> +2.1037970e-12 </wgt>
<wgt id='1743'> +1.5133383e-12 </wgt>
<wgt id='1744'> +1.5781698e-12 </wgt>
<wgt id='1745'> +1.4537946e-12 </wgt>
<wgt id='1746'> +1.6263768e-12 </wgt>
<wgt id='1747'> +1.2817715e-12 </wgt>
<wgt id='1748'> +2.0269291e-12 </wgt>
<wgt id='1749'> +1.4871423e-12 </wgt>
<wgt id='1750'> +1.8474335e-12 </wgt>
<wgt id='1751'> +1.3234921e-12 </wgt>
<wgt id='1752'> +1.5384095e-12 </wgt>
<wgt id='1753'> +1.6586075e-12 </wgt>
<wgt id='1754'> +1.3092518e-12 </wgt>
<wgt id='1755'> +1.8060626e-12 </wgt>
<wgt id='1756'> +1.5704586e-12 </wgt>
<wgt id='1757'> +2.0362749e-12 </wgt>
<wgt id='1758'> +1.3907861e-12 </wgt>
<wgt id='1759'> +1.1643331e-12 </wgt>
<wgt id='1760'> +2.0636705e-12 </wgt>
<wgt id='1761'> +1.9738091e-12 </wgt>
<wgt id='1762'> +1.7433633e-12 </wgt>
<wgt id='1763'> +1.7024824e-12 </wgt>
<wgt id='1764'> +1.8472184e-12 </wgt>
<wgt id='1765'> +1.5296166e-12 </wgt>
<wgt id='1766'> +1.3961892e-12 </wgt>
<wgt id='1767'> +1.9488851e-12 </wgt>
<wgt id='1768'> +1.7234226e-12 </wgt>
<wgt id='1769'> +2.2178733e-12 </wgt>
<wgt id='1770'> +1.4499998e-12 </wgt>
<wgt id='1771'> +1.8931583e-12 </wgt>
<wgt id='1772'> +1.6666650e-12 </wgt>
<wgt id='1773'> +1.4685405e-12 </wgt>
<wgt id='1774'> +1.3409056e-12 </wgt>
<wgt id='1775'> +1.5611417e-12 </wgt>
<wgt id='1776'> +1.8400327e-12 </wgt>
<wgt id='1777'> +2.1900158e-12 </wgt>
<wgt id='1778'> +2.0994249e-12 </wgt>
<wgt id='1779'> +1.4680724e-12 </wgt>
<wgt id='1780'> +1.3339452e-12 </wgt>
<wgt id='1781'> +1.7164839e-12 </wgt>
<wgt id='1782'> +1.9648700e-12 </wgt>
<wgt id='1783'> +2.1451983e-12 </wgt>
<wgt id='1784'> +1.1329725e-12 </wgt>
<wgt id='1785'> +1.5068673e-12 </wgt>
<wgt id='1786'> +1.6017598e-12 </wgt>
<wgt id='1787'> +1.9983888e-12 </wgt>
<wgt id='1788'> +1.6166594e-12 </wgt>
<wgt id='1789'> +1.4926535e-12 </wgt>
<wgt id='1790'> +1.3782840e-12 </wgt>
<wgt id='1791'> +1.7410365e-12 </wgt>
<wgt id='1792'> +1.5696054e-12 </wgt>
<wgt id='1793'> +1.6061036e-12 </wgt>
<wgt id='1794'> +1.2627366e-12 </wgt>
<wgt id='1795'> +1.5356386e-12 </wgt>
<wgt id='1796'> +1.9467390e-12 </wgt>
<wgt id='1797'> +1.5501960e-12 </wgt>
<wgt id='1798'> +2.0070445e-12 </wgt>
<wgt id='1799'> +2.0512509e-12 </wgt>
<wgt id='1800'> +1.7304468e-12 </wgt>
<wgt id='1801'> +1.8520228e-12 </wgt>
<wgt id='1802'> +1.6544688e-12 </wgt>
<wgt id='1803'> +1.7377835e-12 </wgt>
<wgt id='1804'> +1.7706043e-12 </wgt>
<wgt id='1805'> +1.3684051e-12 </wgt>
<wgt id='1806'> +1.7437571e-12 </wgt>
<wgt id='1807'> +1.4518422e-12 </wgt>
<wgt id='1808'> +2.2211549e-12 </wgt>
<wgt id='1809'> +1.6208016e-12 </wgt>
<wgt id='1810'> +1.6486194e-12 </wgt>
<wgt id='1811'> +1.0915292e-12 </wgt>
<wgt id='1812'> +1.7318187e-12 </wgt>
<wgt id='1813'> +2.0955138e-12 </wgt>
<wgt id='1814'> +1.2348179e-12 </wgt>
<wgt id='1815'> +1.1622761e-12 </wgt>
<wgt id='1816'> +1.6839399e-12 </wgt>
<wgt id='1817'> +1.6683429e-12 </wgt>
<wgt id='1818'> +1.8994369e-12 </wgt>
<wgt id='1819'> +2.0014436e-12 </wgt>
<wgt id='1820'> +1.7431382e-12 </wgt>
<wgt id='1821'> +1.4805717e-12 </wgt>
<wgt id='1822'> +1.8850033e-12 </wgt>
<wgt id='1823'> +1.2302022e-12 </wgt>
<wgt id='1824'> +1.8020354e-12 </wgt>
<wgt id='1825'> +1.7106323e-12 </wgt>
<wgt id='1826'> +1.8930271e-12 </wgt>
<wgt id='1827'> +1.6939016e-12 </wgt>
<wgt id='1828'> +1.5562514e-12 </wgt>
<wgt id='1829'> +1.7304078e-12 </wgt>
<wgt id='1830'> +1.7832682e-12 </wgt>
<wgt id='1831'> +1.6074233e-12 </wgt>
<wgt id='1832'> +1.5288790e-12 </wgt>
<wgt id='1833'> +2.5849185e-12 </wgt>
<wgt id='1834'> +1.8552045e-12 </wgt>
<wgt id='1835'> +1.5592595e-12 </wgt>
<wgt id='1836'> +1.5474721e-12 </wgt>
<wgt id='1837'> +1.4580895e-12 </wgt>
<wgt id='1838'> +1.1169699e-12 </wgt>
<wgt id='1839'> +1.2057859e-12 </wgt>
<wgt id='1840'> +1.5930615e-12 </wgt>
<wgt id='1841'> +1.6552643e-12 </wgt>
<wgt id='1842'> +1.5486369e-12 </wgt>
<wgt id='1843'> +2.2337388e-12 </wgt>
<wgt id='1844'> +2.0973841e-12 </wgt>
<wgt id='1845'> +2.1037970e-12 </wgt>
<wgt id='1846'> +1.5133383e-12 </wgt>
<wgt id='1847'> +1.5781698e-12 </wgt>
<wgt id='1848'> +1.4537946e-12 </wgt>
<wgt id='1849'> +1.6263768e-12 </wgt>
<wgt id='1850'> +1.2817715e-12 </wgt>
<wgt id='1851'> +2.0269291e-12 </wgt>
<wgt id='1852'> +1.4871423e-12 </wgt>
<wgt id='1853'> +1.8474335e-12 </wgt>
<wgt id='1854'> +1.3234921e-12 </wgt>
<wgt id='1855'> +1.5384095e-12 </wgt>
<wgt id='1856'> +1.6586075e-12 </wgt>
<wgt id='1857'> +1.3092518e-12 </wgt>
<wgt id='1858'> +1.8060626e-12 </wgt>
<wgt id='1859'> +1.5704586e-12 </wgt>
<wgt id='1860'> +2.0362749e-12 </wgt>
<wgt id='1861'> +1.3907861e-12 </wgt>
<wgt id='1862'> +1.1643331e-12 </wgt>
<wgt id='1863'> +2.0636705e-12 </wgt>
<wgt id='1864'> +1.9738091e-12 </wgt>
<wgt id='1865'> +1.7433633e-12 </wgt>
<wgt id='1866'> +1.7024824e-12 </wgt>
<wgt id='1867'> +1.8472184e-12 </wgt>
<wgt id='1868'> +1.5296166e-12 </wgt>
<wgt id='1869'> +1.3961892e-12 </wgt>
<wgt id='1870'> +1.9488851e-12 </wgt>
<wgt id='1871'> +1.7234226e-12 </wgt>
<wgt id='1872'> +2.2178733e-12 </wgt>
<wgt id='1873'> +1.4499998e-12 </wgt>
<wgt id='1874'> +1.8931583e-12 </wgt>
<wgt id='1875'> +1.6666650e-12 </wgt>
<wgt id='1876'> +1.4685405e-12 </wgt>
<wgt id='1877'> +1.3409056e-12 </wgt>
<wgt id='1878'> +1.5611417e-12 </wgt>
<wgt id='1879'> +1.8400327e-12 </wgt>
<wgt id='1880'> +2.1900158e-12 </wgt>
<wgt id='1881'> +2.0994249e-12 </wgt>
<wgt id='1882'> +1.4680724e-12 </wgt>
<wgt id='1883'> +1.3339452e-12 </wgt>
<wgt id='1884'> +1.7164839e-12 </wgt>
<wgt id='1885'> +1.9648700e-12 </wgt>
<wgt id='1886'> +2.1451983e-12 </wgt>
<wgt id='1887'> +1.1329725e-12 </wgt>
<wgt id='1888'> +1.5068673e-12 </wgt>
<wgt id='1889'> +1.6017598e-12 </wgt>
<wgt id='1890'> +1.9983888e-12 </wgt>
<wgt id='1891'> +1.6166594e-12 </wgt>
<wgt id='1892'> +1.4926535e-12 </wgt>
<wgt id='1893'> +1.3782840e-12 </wgt>
<wgt id='1894'> +1.7410365e-12 </wgt>
<wgt id='1895'> +1.5696054e-12 </wgt>
<wgt id='1896'> +1.6061036e-12 </wgt>
<wgt id='1897'> +1.2627366e-12 </wgt>
<wgt id='1898'> +1.5356386e-12 </wgt>
<wgt id='1899'> +1.9467390e-12 </wgt>
<wgt id='1900'> +1.5501960e-12 </wgt>
<wgt id='1901'> +2.0070445e-12 </wgt>
<wgt id='1902'> +2.0512509e-12 </wgt>
<wgt id='1903'> +1.7304468e-12 </wgt>
<wgt id='1904'> +1.8520228e-12 </wgt>
<wgt id='1905'> +1.6544688e-12 </wgt>
<wgt id='1906'> +1.7377835e-12 </wgt>
<wgt id='1907'> +1.7706043e-12 </wgt>
<wgt id='1908'> +1.3684051e-12 </wgt>
<wgt id='1909'> +1.7437571e-12 </wgt>
<wgt id='1910'> +1.4518422e-12 </wgt>
<wgt id='1911'> +2.2211549e-12 </wgt>
<wgt id='1912'> +1.6208016e-12 </wgt>
<wgt id='1913'> +1.6486194e-12 </wgt>
<wgt id='1914'> +1.0915292e-12 </wgt>
<wgt id='1915'> +1.7318187e-12 </wgt>
<wgt id='1916'> +2.0955138e-12 </wgt>
<wgt id='1917'> +1.6233295e-12 </wgt>
<wgt id='1918'> +1.8219495e-12 </wgt>
<wgt id='1919'> +1.5298323e-12 </wgt>
</rwgt>
</event>
<event>
 9      1 +1.5538000e-12 5.22708700e+01 7.81860800e-03 1.30071200e-01
        2 -1    0    0  502    0 -0.0000000000e+00 +0.0000000000e+00 +1.1769571870e+03 1.1769571870e+03 0.0000000000e+00 0.0000e+00 -1.0000e+00
       21 -1    0    0  501  502 +0.0000000000e+00 -0.0000000000e+00 -7.5254420372e+00 7.5254420372e+00 0.0000000000e+00 0.0000e+00 -1.0000e+00
     1023  2    1    2    0    0 -7.1225557893e-02 -5.0072281199e+01 +1.0854403473e+03 1.0866982064e+03 1.5000198336e+01 0.0000e+00 0.0000e+00
  1000023  2    3    3    0    0 -4.8050217761e+00 -1.7221137630e+01 +3.8648298971e+02 3.8693539364e+02 5.4992459800e+00 0.0000e+00 0.0000e+00
        2  1    1    2  501    0 +7.1225557893e-02 +5.0072281199e+01 +8.3991397640e+01 9.7784422559e+01 0.0000000000e+00 0.0000e+00 -1.0000e+00
  1000022  1    4    4    0    0 -4.3577731488e+00 -1.4783509740e+01 +3.3864708192e+02 3.3903449447e+02 5.0000000000e+00 0.0000e+00 -1.0000e+00
      -13  1    4    4    0    0 -3.1538180737e-01 -1.9448648227e+00 +3.7506847268e+01 3.7558710432e+01 1.0570000000e-01 0.0000e+00 -1.0000e+00
       13  1    4    4    0    0 -1.3186681995e-01 -4.9276306705e-01 +1.0329060522e+01 1.0342188746e+01 1.0570000000e-01 0.0000e+00 -1.0000e+00
  1000022  1    3    3    0    0 +4.7337962182e+00 -3.2851143569e+01 +6.9895735759e+02 6.9976281281e+02 5.0000000000e+00 0.0000e+00 -1.0000e+00
<mgrwt>
<rscale>  1 0.52270875E+02</rscale>
<asrwt>0</asrwt>
<pdfrwt beam="1">  1       21 0.11577612E-02 0.52270875E+02</pdfrwt>
<pdfrwt beam="2">  1        2 0.18107019E+00 0.52270875E+02</pdfrwt>
<totfact> 0.69220446E+05</totfact>
</mgrwt>
<rwgt>
<wgt id='1001'> +1.5538000e-12 </wgt>
<wgt id='1002'> +1.4839402e-12 </wgt>
<wgt id='1003'> +1.4826260e-12 </wgt>
<wgt id='1004'> +1.5558108e-12 </wgt>
<wgt id='1005'> +1.4114882e-12 </wgt>
<wgt id='1006'> +1.3783424e-12 </wgt>
<wgt id='1007'> +1.3335214e-12 </wgt>
<wgt id='1008'> +1.3326080e-12 </wgt>
<wgt id='1009'> +1.3794744e-12 </wgt>
<wgt id='1010'> +1.2809238e-12 </wgt>
<wgt id='1011'> +1.7826906e-12 </wgt>
<wgt id='1012'> +1.6740615e-12 </wgt>
<wgt id='1013'> +1.6721481e-12 </wgt>
<wgt id='1014'> +1.7861234e-12 </wgt>
<wgt id='1015'> +1.5726962e-12 </wgt>
<wgt id='1016'> +1.6686187e-12 </wgt>
<wgt id='1017'> +1.5611470e-12 </wgt>
<wgt id='1018'> +1.5593048e-12 </wgt>
<wgt id='1019'> +1.6721481e-12 </wgt>
<wgt id='1020'> +1.4648810e-12 </wgt>
<wgt id='1021'> +1.4801956e-12 </wgt>
<wgt id='1022'> +1.4029022e-12 </wgt>
<wgt id='1023'> +1.4015282e-12 </wgt>
<wgt id='1024'> +1.4826260e-12 </wgt>
<wgt id='1025'> +1.3293776e-12 </wgt>
<wgt id='1026'> +1.9144233e-12 </wgt>
<wgt id='1027'> +1.7611600e-12 </wgt>
<wgt id='1028'> +1.7586287e-12 </wgt>
<wgt id='1029'> +1.9196825e-12 </wgt>
<wgt id='1030'> +1.6321870e-12 </wgt>
<wgt id='1031'> +1.3995425e-12 </wgt>
<wgt id='1032'> +1.3800778e-12 </wgt>
<wgt id='1033'> +1.3794744e-12 </wgt>
<wgt id='1034'> +1.3995677e-12 </wgt>
<wgt id='1035'> +1.3391547e-12 </wgt>
<wgt id='1036'> +1.2415038e-12 </wgt>
<wgt id='1037'> +1.2401870e-12 </wgt>
<wgt id='1038'> +1.2398937e-12 </wgt>
<wgt id='1039'> +1.2409400e-12 </wgt>
<wgt id='1040'> +1.2152813e-12 </wgt>
<wgt id='1041'> +1.6057093e-12 </wgt>
<wgt id='1042'> +1.5568924e-12 </wgt>
<wgt id='1043'> +1.5558108e-12 </wgt>
<wgt id='1044'> +1.6067511e-12 </wgt>
<wgt id='1045'> +1.4921014e-12 </wgt>
<wgt id='1046'> +1.5538000e-12 </wgt>
<wgt id='1047'> +1.5519910e-12 </wgt>
<wgt id='1048'> +1.5802741e-12 </wgt>
<wgt id='1049'> +1.5353424e-12 </wgt>
<wgt id='1050'> +1.5287006e-12 </wgt>
<wgt id='1051'> +1.5469122e-12 </wgt>
<wgt id='1052'> +1.5212117e-12 </wgt>
<wgt id='1053'> +1.5909639e-12 </wgt>
<wgt id='1054'> +1.5883271e-12 </wgt>
<wgt id='1055'> +1.5498230e-12 </wgt>
<wgt id='1056'> +1.4557730e-12 </wgt>
<wgt id='1057'> +1.5528163e-12 </wgt>
<wgt id='1058'> +1.5432097e-12 </wgt>
<wgt id='1059'> +1.5533691e-12 </wgt>
<wgt id='1060'> +1.5855887e-12 </wgt>
<wgt id='1061'> +1.5716018e-12 </wgt>
<wgt id='1062'> +1.5501480e-12 </wgt>
<wgt id='1063'> +1.5272263e-12 </wgt>
<wgt id='1064'> +1.5690417e-12 </wgt>
<wgt id='1065'> +1.5693930e-12 </wgt>
<wgt id='1066'> +1.5454143e-12 </wgt>
<wgt id='1067'> +1.5725715e-12 </wgt>
<wgt id='1068'> +1.5952905e-12 </wgt>
<wgt id='1069'> +1.5837379e-12 </wgt>
<wgt id='1070'> +1.5549407e-12 </wgt>
<wgt id='1071'> +1.5841820e-12 </wgt>
<wgt id='1072'> +1.6080055e-12 </wgt>
<wgt id='1073'> +1.4976958e-12 </wgt>
<wgt id='1074'> +1.5661805e-12 </wgt>
<wgt id='1075'> +1.5267975e-12 </wgt>
<wgt id='1076'> +1.5326855e-12 </wgt>
<wgt id='1077'> +1.5413465e-12 </wgt>
<wgt id='1078'> +1.5505543e-12 </wgt>
<wgt id='1079'> +1.5561868e-12 </wgt>
<wgt id='1080'> +1.5267605e-12 </wgt>
<wgt id='1081'> +1.5402880e-12 </wgt>
<wgt id='1082'> +1.5746907e-12 </wgt>
<wgt id='1083'> +1.5754293e-12 </wgt>
<wgt id='1084'> +1.5363725e-12 </wgt>
<wgt id='1085'> +1.5440147e-12 </wgt>
<wgt id='1086'> +1.5727099e-12 </wgt>
<wgt id='1087'> +1.5475803e-12 </wgt>
<wgt id='1088'> +1.5563438e-12 </wgt>
<wgt id='1089'> +1.5249838e-12 </wgt>
<wgt id='1090'> +1.5208527e-12 </wgt>
<wgt id='1091'> +1.5765065e-12 </wgt>
<wgt id='1092'> +1.5524487e-12 </wgt>
<wgt id='1093'> +1.5483916e-12 </wgt>
<wgt id='1094'> +1.5982771e-12 </wgt>
<wgt id='1095'> +1.5634242e-12 </wgt>
<wgt id='1096'> +1.5286097e-12 </wgt>
<wgt id='1097'> +1.5446952e-12 </wgt>
<wgt id='1098'> +1.5823056e-12 </wgt>
<wgt id='1099'> +1.5533010e-12 </wgt>
<wgt id='1100'> +1.5707672e-12 </wgt>
<wgt id='1101'> +1.5943377e-12 </wgt>
<wgt id='1102'> +1.5442543e-12 </wgt>
<wgt id='1103'> +1.5838854e-12 </wgt>
<wgt id='1104'> +1.5856132e-12 </wgt>
<wgt id='1105'> +1.5501024e-12 </wgt>
<wgt id='1106'> +1.5857964e-12 </wgt>
<wgt id='1107'> +1.5315215e-12 </wgt>
<wgt id='1108'> +1.5570410e-12 </wgt>
<wgt id='1109'> +1.5368500e-12 </wgt>
<wgt id='1110'> +1.5798743e-12 </wgt>
<wgt id='1111'> +1.5624484e-12 </wgt>
<wgt id='1112'> +1.5765952e-12 </wgt>
<wgt id='1113'> +1.5625929e-12 </wgt>
<wgt id='1114'> +1.5409188e-12 </wgt>
<wgt id='1115'> +1.5533964e-12 </wgt>
<wgt id='1116'> +1.5476964e-12 </wgt>
<wgt id='1117'> +1.5531344e-12 </wgt>
<wgt id='1118'> +1.5257517e-12 </wgt>
<wgt id='1119'> +1.5563163e-12 </wgt>
<wgt id='1120'> +1.5373911e-12 </wgt>
<wgt id='1121'> +1.5299850e-12 </wgt>
<wgt id='1122'> +1.5392548e-12 </wgt>
<wgt id='1123'> +1.5398352e-12 </wgt>
<wgt id='1124'> +1.5748943e-12 </wgt>
<wgt id='1125'> +1.5468905e-12 </wgt>
<wgt id='1126'> +1.5090952e-12 </wgt>
<wgt id='1127'> +1.5664984e-12 </wgt>
<wgt id='1128'> +1.5501480e-12 </wgt>
<wgt id='1129'> +1.5054905e-12 </wgt>
<wgt id='1130'> +1.5686574e-12 </wgt>
<wgt id='1131'> +1.5806425e-12 </wgt>
<wgt id='1132'> +1.5336380e-12 </wgt>
<wgt id='1133'> +1.5686001e-12 </wgt>
<wgt id='1134'> +1.5033310e-12 </wgt>
<wgt id='1135'> +1.4880148e-12 </wgt>
<wgt id='1136'> +1.5552355e-12 </wgt>
<wgt id='1137'> +1.5641954e-12 </wgt>
<wgt id='1138'> +1.5448207e-12 </wgt>
<wgt id='1139'> +1.5513987e-12 </wgt>
<wgt id='1140'> +1.5373021e-12 </wgt>
<wgt id='1141'> +1.5656369e-12 </wgt>
<wgt id='1142'> +1.5741390e-12 </wgt>
<wgt id='1143'> +1.5362758e-12 </wgt>
<wgt id='1144'> +1.5527365e-12 </wgt>
<wgt id='1145'> +1.6082009e-12 </wgt>
<wgt id='1146'> +1.5939301e-12 </wgt>
<wgt id='1147'> +1.4186207e-12 </wgt>
<wgt id='1148'> +1.4315499e-12 </wgt>
<wgt id='1149'> +1.3978258e-12 </wgt>
<wgt id='1150'> +1.4301451e-12 </wgt>
<wgt id='1151'> +1.5372263e-12 </wgt>
<wgt id='1152'> +1.9409606e-12 </wgt>
<wgt id='1153'> +1.9483271e-12 </wgt>
<wgt id='1154'> +1.9366207e-12 </wgt>
<wgt id='1155'> +1.9374141e-12 </wgt>
<wgt id='1156'> +1.9427487e-12 </wgt>
<wgt id='1157'> +1.9447800e-12 </wgt>
<wgt id='1158'> +1.9358115e-12 </wgt>
<wgt id='1159'> +1.9438766e-12 </wgt>
<wgt id='1160'> +1.9390558e-12 </wgt>
<wgt id='1161'> +1.9367321e-12 </wgt>
<wgt id='1162'> +1.9438809e-12 </wgt>
<wgt id='1163'> +1.9404306e-12 </wgt>
<wgt id='1164'> +1.9414788e-12 </wgt>
<wgt id='1165'> +1.9489401e-12 </wgt>
<wgt id='1166'> +1.9329082e-12 </wgt>
<wgt id='1167'> +1.9593363e-12 </wgt>
<wgt id='1168'> +1.9176430e-12 </wgt>
<wgt id='1169'> +1.9475935e-12 </wgt>
<wgt id='1170'> +1.9359460e-12 </wgt>
<wgt id='1171'> +1.9347939e-12 </wgt>
<wgt id='1172'> +1.9486339e-12 </wgt>
<wgt id='1173'> +1.9210007e-12 </wgt>
<wgt id='1174'> +1.9617108e-12 </wgt>
<wgt id='1175'> +1.9390450e-12 </wgt>
<wgt id='1176'> +1.9421894e-12 </wgt>
<wgt id='1177'> +1.9389350e-12 </wgt>
<wgt id='1178'> +1.9455037e-12 </wgt>
<wgt id='1179'> +1.9439883e-12 </wgt>
<wgt id='1180'> +1.9334888e-12 </wgt>
<wgt id='1181'> +1.9389182e-12 </wgt>
<wgt id='1182'> +1.9418566e-12 </wgt>
<wgt id='1183'> +1.9439888e-12 </wgt>
<wgt id='1184'> +1.9408082e-12 </wgt>
<wgt id='1185'> +1.9365149e-12 </wgt>
<wgt id='1186'> +1.9425989e-12 </wgt>
<wgt id='1187'> +1.9442704e-12 </wgt>
<wgt id='1188'> +1.9398118e-12 </wgt>
<wgt id='1189'> +1.9371816e-12 </wgt>
<wgt id='1190'> +1.9297182e-12 </wgt>
<wgt id='1191'> +1.9406551e-12 </wgt>
<wgt id='1192'> +1.9412689e-12 </wgt>
<wgt id='1193'> +1.4241122e-12 </wgt>
<wgt id='1194'> +1.4198474e-12 </wgt>
<wgt id='1195'> +1.4276003e-12 </wgt>
<wgt id='1196'> +1.4215435e-12 </wgt>
<wgt id='1197'> +1.4269897e-12 </wgt>
<wgt id='1198'> +1.4224527e-12 </wgt>
<wgt id='1199'> +1.4266035e-12 </wgt>
<wgt id='1200'> +1.4222750e-12 </wgt>
<wgt id='1201'> +1.4253786e-12 </wgt>
<wgt id='1202'> +1.4239714e-12 </wgt>
<wgt id='1203'> +1.4243764e-12 </wgt>
<wgt id='1204'> +1.4223356e-12 </wgt>
<wgt id='1205'> +1.4250876e-12 </wgt>
<wgt id='1206'> +1.4278263e-12 </wgt>
<wgt id='1207'> +1.4190590e-12 </wgt>
<wgt id='1208'> +1.4335621e-12 </wgt>
<wgt id='1209'> +1.4207187e-12 </wgt>
<wgt id='1210'> +1.4215173e-12 </wgt>
<wgt id='1211'> +1.4201933e-12 </wgt>
<wgt id='1212'> +1.4247934e-12 </wgt>
<wgt id='1213'> +1.4235417e-12 </wgt>
<wgt id='1214'> +1.4047190e-12 </wgt>
<wgt id='1215'> +1.4565691e-12 </wgt>
<wgt id='1216'> +1.4357965e-12 </wgt>
<wgt id='1217'> +1.4166292e-12 </wgt>
<wgt id='1218'> +1.4258112e-12 </wgt>
<wgt id='1219'> +1.4231614e-12 </wgt>
<wgt id='1220'> +1.4293874e-12 </wgt>
<wgt id='1221'> +1.4225000e-12 </wgt>
<wgt id='1222'> +1.4367047e-12 </wgt>
<wgt id='1223'> +1.4063952e-12 </wgt>
<wgt id='1224'> +1.4265179e-12 </wgt>
<wgt id='1225'> +1.4232289e-12 </wgt>
<wgt id='1226'> +1.4232169e-12 </wgt>
<wgt id='1227'> +1.4248199e-12 </wgt>
<wgt id='1228'> +1.4210802e-12 </wgt>
<wgt id='1229'> +1.4263877e-12 </wgt>
<wgt id='1230'> +1.4224609e-12 </wgt>
<wgt id='1231'> +1.4256953e-12 </wgt>
<wgt id='1232'> +1.4272392e-12 </wgt>
<wgt id='1233'> +1.4233532e-12 </wgt>
<wgt id='1234'> +1.4241122e-12 </wgt>
<wgt id='1235'> +1.4184029e-12 </wgt>
<wgt id='1236'> +1.4205510e-12 </wgt>
<wgt id='1237'> +1.4225054e-12 </wgt>
<wgt id='1238'> +1.4256399e-12 </wgt>
<wgt id='1239'> +1.4269122e-12 </wgt>
<wgt id='1240'> +1.4281534e-12 </wgt>
<wgt id='1241'> +1.4046095e-12 </wgt>
<wgt id='1242'> +1.3984322e-12 </wgt>
<wgt id='1243'> +1.4106694e-12 </wgt>
<wgt id='1244'> +1.4110124e-12 </wgt>
<wgt id='1245'> +1.3998050e-12 </wgt>
<wgt id='1246'> +1.4017418e-12 </wgt>
<wgt id='1247'> +1.4070182e-12 </wgt>
<wgt id='1248'> +1.4046280e-12 </wgt>
<wgt id='1249'> +1.4045533e-12 </wgt>
<wgt id='1250'> +1.4062348e-12 </wgt>
<wgt id='1251'> +1.4034545e-12 </wgt>
<wgt id='1252'> +1.4005893e-12 </wgt>
<wgt id='1253'> +1.4076781e-12 </wgt>
<wgt id='1254'> +1.4000917e-12 </wgt>
<wgt id='1255'> +1.4072182e-12 </wgt>
<wgt id='1256'> +1.4012476e-12 </wgt>
<wgt id='1257'> +1.4128579e-12 </wgt>
<wgt id='1258'> +1.4271382e-12 </wgt>
<wgt id='1259'> +1.3842128e-12 </wgt>
<wgt id='1260'> +1.4092400e-12 </wgt>
<wgt id='1261'> +1.3993606e-12 </wgt>
<wgt id='1262'> +1.4099041e-12 </wgt>
<wgt id='1263'> +1.4023648e-12 </wgt>
<wgt id='1264'> +1.4070159e-12 </wgt>
<wgt id='1265'> +1.4035041e-12 </wgt>
<wgt id='1266'> +1.3885202e-12 </wgt>
<wgt id='1267'> +1.4197910e-12 </wgt>
<wgt id='1268'> +1.4091225e-12 </wgt>
<wgt id='1269'> +1.4014789e-12 </wgt>
<wgt id='1270'> +1.4011706e-12 </wgt>
<wgt id='1271'> +1.4011721e-12 </wgt>
<wgt id='1272'> +1.4054283e-12 </wgt>
<wgt id='1273'> +1.4041904e-12 </wgt>
<wgt id='1274'> +1.4050789e-12 </wgt>
<wgt id='1275'> +1.4030233e-12 </wgt>
<wgt id='1276'> +1.4096798e-12 </wgt>
<wgt id='1277'> +1.4006806e-12 </wgt>
<wgt id='1278'> +1.4058843e-12 </wgt>
<wgt id='1279'> +1.4083924e-12 </wgt>
<wgt id='1280'> +1.4041576e-12 </wgt>
<wgt id='1281'> +1.4098396e-12 </wgt>
<wgt id='1282'> +1.4046095e-12 </wgt>
<wgt id='1283'> +1.3985665e-12 </wgt>
<wgt id='1284'> +1.4010166e-12 </wgt>
<wgt id='1285'> +1.4029846e-12 </wgt>
<wgt id='1286'> +1.4062701e-12 </wgt>
<wgt id='1287'> +1.4074849e-12 </wgt>
<wgt id='1288'> +1.4084557e-12 </wgt>
<wgt id='1289'> +1.4682146e-12 </wgt>
<wgt id='1290'> +1.4698647e-12 </wgt>
<wgt id='1291'> +1.4664995e-12 </wgt>
<wgt id='1292'> +1.4686020e-12 </wgt>
<wgt id='1293'> +1.4679828e-12 </wgt>
<wgt id='1294'> +1.4650670e-12 </wgt>
<wgt id='1295'> +1.4712499e-12 </wgt>
<wgt id='1296'> +1.4727508e-12 </wgt>
<wgt id='1297'> +1.4626390e-12 </wgt>
<wgt id='1298'> +1.4695415e-12 </wgt>
<wgt id='1299'> +1.4664806e-12 </wgt>
<wgt id='1300'> +1.4698436e-12 </wgt>
<wgt id='1301'> +1.4649974e-12 </wgt>
<wgt id='1302'> +1.4649563e-12 </wgt>
<wgt id='1303'> +1.4727915e-12 </wgt>
<wgt id='1304'> +1.4654144e-12 </wgt>
<wgt id='1305'> +1.4701484e-12 </wgt>
<wgt id='1306'> +1.4721325e-12 </wgt>
<wgt id='1307'> +1.4637055e-12 </wgt>
<wgt id='1308'> +1.4648560e-12 </wgt>
<wgt id='1309'> +1.4708164e-12 </wgt>
<wgt id='1310'> +1.4714456e-12 </wgt>
<wgt id='1311'> +1.4650113e-12 </wgt>
<wgt id='1312'> +1.4732592e-12 </wgt>
<wgt id='1313'> +1.4631719e-12 </wgt>
<wgt id='1314'> +1.4563964e-12 </wgt>
<wgt id='1315'> +1.4771595e-12 </wgt>
<wgt id='1316'> +1.4727396e-12 </wgt>
<wgt id='1317'> +1.4688699e-12 </wgt>
<wgt id='1318'> +1.4815931e-12 </wgt>
<wgt id='1319'> +1.4525147e-12 </wgt>
<wgt id='1320'> +1.4862729e-12 </wgt>
<wgt id='1321'> +1.4528416e-12 </wgt>
<wgt id='1322'> +1.4685310e-12 </wgt>
<wgt id='1323'> +1.4678583e-12 </wgt>
<wgt id='1324'> +1.4650090e-12 </wgt>
<wgt id='1325'> +1.4706580e-12 </wgt>
<wgt id='1326'> +1.4677813e-12 </wgt>
<wgt id='1327'> +1.4703361e-12 </wgt>
<wgt id='1328'> +1.4676891e-12 </wgt>
<wgt id='1329'> +1.4681401e-12 </wgt>
<wgt id='1330'> +1.4705470e-12 </wgt>
<wgt id='1331'> +1.4650417e-12 </wgt>
<wgt id='1332'> +1.4777853e-12 </wgt>
<wgt id='1333'> +1.4676971e-12 </wgt>
<wgt id='1334'> +1.4661943e-12 </wgt>
<wgt id='1335'> +1.4735251e-12 </wgt>
<wgt id='1336'> +1.4661249e-12 </wgt>
<wgt id='1337'> +1.4722253e-12 </wgt>
<wgt id='1338'> +1.4681120e-12 </wgt>
<wgt id='1339'> +1.4716437e-12 </wgt>
<wgt id='1340'> +1.4456620e-12 </wgt>
<wgt id='1341'> +1.4472910e-12 </wgt>
<wgt id='1342'> +1.4439192e-12 </wgt>
<wgt id='1343'> +1.4460870e-12 </wgt>
<wgt id='1344'> +1.4453422e-12 </wgt>
<wgt id='1345'> +1.4423492e-12 </wgt>
<wgt id='1346'> +1.4487097e-12 </wgt>
<wgt id='1347'> +1.4504027e-12 </wgt>
<wgt id='1348'> +1.4403238e-12 </wgt>
<wgt id='1349'> +1.4467258e-12 </wgt>
<wgt id='1350'> +1.4444727e-12 </wgt>
<wgt id='1351'> +1.4469419e-12 </wgt>
<wgt id='1352'> +1.4428101e-12 </wgt>
<wgt id='1353'> +1.4415285e-12 </wgt>
<wgt id='1354'> +1.4529781e-12 </wgt>
<wgt id='1355'> +1.4435189e-12 </wgt>
<wgt id='1356'> +1.4468580e-12 </wgt>
<wgt id='1357'> +1.4489570e-12 </wgt>
<wgt id='1358'> +1.4415410e-12 </wgt>
<wgt id='1359'> +1.4415220e-12 </wgt>
<wgt id='1360'> +1.4492443e-12 </wgt>
<wgt id='1361'> +1.4488572e-12 </wgt>
<wgt id='1362'> +1.4416082e-12 </wgt>
<wgt id='1363'> +1.4543547e-12 </wgt>
<wgt id='1364'> +1.4399957e-12 </wgt>
<wgt id='1365'> +1.4480606e-12 </wgt>
<wgt id='1366'> +1.4367738e-12 </wgt>
<wgt id='1367'> +1.4504334e-12 </wgt>
<wgt id='1368'> +1.4454878e-12 </wgt>
<wgt id='1369'> +1.4565932e-12 </wgt>
<wgt id='1370'> +1.4326751e-12 </wgt>
<wgt id='1371'> +1.4600230e-12 </wgt>
<wgt id='1372'> +1.4279939e-12 </wgt>
<wgt id='1373'> +1.4430566e-12 </wgt>
<wgt id='1374'> +1.4478069e-12 </wgt>
<wgt id='1375'> +1.4424547e-12 </wgt>
<wgt id='1376'> +1.4487824e-12 </wgt>
<wgt id='1377'> +1.4455203e-12 </wgt>
<wgt id='1378'> +1.4476777e-12 </wgt>
<wgt id='1379'> +1.4451765e-12 </wgt>
<wgt id='1380'> +1.4454628e-12 </wgt>
<wgt id='1381'> +1.4483594e-12 </wgt>
<wgt id='1382'> +1.4424670e-12 </wgt>
<wgt id='1383'> +1.4536163e-12 </wgt>
<wgt id='1384'> +1.4458062e-12 </wgt>
<wgt id='1385'> +1.4437944e-12 </wgt>
<wgt id='1386'> +1.4499083e-12 </wgt>
<wgt id='1387'> +1.4435857e-12 </wgt>
<wgt id='1388'> +1.4504623e-12 </wgt>
<wgt id='1389'> +1.4446778e-12 </wgt>
<wgt id='1390'> +1.4504364e-12 </wgt>
<wgt id='1391'> +1.4102032e-12 </wgt>
<wgt id='1392'> +1.3786823e-12 </wgt>
<wgt id='1393'> +1.3897659e-12 </wgt>
<wgt id='1394'> +1.4002933e-12 </wgt>
<wgt id='1395'> +1.4206899e-12 </wgt>
<wgt id='1396'> +1.4105895e-12 </wgt>
<wgt id='1397'> +1.4031503e-12 </wgt>
<wgt id='1398'> +1.4038475e-12 </wgt>
<wgt id='1399'> +1.4047728e-12 </wgt>
<wgt id='1400'> +1.4062939e-12 </wgt>
<wgt id='1401'> +1.4083723e-12 </wgt>
<wgt id='1402'> +1.4131465e-12 </wgt>
<wgt id='1403'> +1.4161679e-12 </wgt>
<wgt id='1404'> +1.4194968e-12 </wgt>
<wgt id='1405'> +1.4105895e-12 </wgt>
<wgt id='1406'> +1.4073714e-12 </wgt>
<wgt id='1407'> +1.4090609e-12 </wgt>
<wgt id='1408'> +1.4120149e-12 </wgt>
<wgt id='1409'> +1.4130608e-12 </wgt>
<wgt id='1410'> +1.3744552e-12 </wgt>
<wgt id='1411'> +1.3764956e-12 </wgt>
<wgt id='1412'> +1.3718973e-12 </wgt>
<wgt id='1413'> +1.3748162e-12 </wgt>
<wgt id='1414'> +1.3740812e-12 </wgt>
<wgt id='1415'> +1.3747753e-12 </wgt>
<wgt id='1416'> +1.3743391e-12 </wgt>
<wgt id='1417'> +1.3756534e-12 </wgt>
<wgt id='1418'> +1.3731799e-12 </wgt>
<wgt id='1419'> +1.3743675e-12 </wgt>
<wgt id='1420'> +1.3745033e-12 </wgt>
<wgt id='1421'> +1.3679445e-12 </wgt>
<wgt id='1422'> +1.3771793e-12 </wgt>
<wgt id='1423'> +1.3740141e-12 </wgt>
<wgt id='1424'> +1.3750094e-12 </wgt>
<wgt id='1425'> +1.3677894e-12 </wgt>
<wgt id='1426'> +1.3816616e-12 </wgt>
<wgt id='1427'> +1.3700926e-12 </wgt>
<wgt id='1428'> +1.3764839e-12 </wgt>
<wgt id='1429'> +1.3776832e-12 </wgt>
<wgt id='1430'> +1.3700329e-12 </wgt>
<wgt id='1431'> +1.3741557e-12 </wgt>
<wgt id='1432'> +1.3745894e-12 </wgt>
<wgt id='1433'> +1.3622453e-12 </wgt>
<wgt id='1434'> +1.3846873e-12 </wgt>
<wgt id='1435'> +1.3700749e-12 </wgt>
<wgt id='1436'> +1.3852584e-12 </wgt>
<wgt id='1437'> +1.3777105e-12 </wgt>
<wgt id='1438'> +1.3761705e-12 </wgt>
<wgt id='1439'> +1.3669875e-12 </wgt>
<wgt id='1440'> +1.3919075e-12 </wgt>
<wgt id='1441'> +1.3788916e-12 </wgt>
<wgt id='1442'> +1.3633166e-12 </wgt>
<wgt id='1443'> +1.3702317e-12 </wgt>
<wgt id='1444'> +1.3811465e-12 </wgt>
<wgt id='1445'> +1.3805231e-12 </wgt>
<wgt id='1446'> +1.3703039e-12 </wgt>
<wgt id='1447'> +1.3755190e-12 </wgt>
<wgt id='1448'> +1.3749996e-12 </wgt>
<wgt id='1449'> +1.3744494e-12 </wgt>
<wgt id='1450'> +1.3736741e-12 </wgt>
<wgt id='1451'> +1.3741289e-12 </wgt>
<wgt id='1452'> +1.3726996e-12 </wgt>
<wgt id='1453'> +1.3758750e-12 </wgt>
<wgt id='1454'> +1.3757146e-12 </wgt>
<wgt id='1455'> +1.3788228e-12 </wgt>
<wgt id='1456'> +1.3733879e-12 </wgt>
<wgt id='1457'> +1.3773056e-12 </wgt>
<wgt id='1458'> +1.3734592e-12 </wgt>
<wgt id='1459'> +1.3771374e-12 </wgt>
<wgt id='1460'> +1.3755155e-12 </wgt>
<wgt id='1461'> +1.3744552e-12 </wgt>
<wgt id='1462'> +1.3663981e-12 </wgt>
<wgt id='1463'> +1.3806449e-12 </wgt>
<wgt id='1464'> +1.3739940e-12 </wgt>
<wgt id='1465'> +1.3645063e-12 </wgt>
<wgt id='1466'> +1.3654738e-12 </wgt>
<wgt id='1467'> +1.3671497e-12 </wgt>
<wgt id='1468'> +1.3699644e-12 </wgt>
<wgt id='1469'> +1.3714284e-12 </wgt>
<wgt id='1470'> +1.3771174e-12 </wgt>
<wgt id='1471'> +1.3796166e-12 </wgt>
<wgt id='1472'> +1.3825092e-12 </wgt>
<wgt id='1473'> +1.3739940e-12 </wgt>
<wgt id='1474'> +1.3705951e-12 </wgt>
<wgt id='1475'> +1.3726187e-12 </wgt>
<wgt id='1476'> +1.3752715e-12 </wgt>
<wgt id='1477'> +1.3763727e-12 </wgt>
<wgt id='1478'> +1.3972069e-12 </wgt>
<wgt id='1479'> +1.3972923e-12 </wgt>
<wgt id='1480'> +1.3868526e-12 </wgt>
<wgt id='1481'> +1.3982822e-12 </wgt>
<wgt id='1482'> +1.3997631e-12 </wgt>
<wgt id='1483'> +1.3850068e-12 </wgt>
<wgt id='1484'> +1.3851513e-12 </wgt>
<wgt id='1485'> +1.4065009e-12 </wgt>
<wgt id='1486'> +1.3966199e-12 </wgt>
<wgt id='1487'> +1.4045072e-12 </wgt>
<wgt id='1488'> +1.3952300e-12 </wgt>
<wgt id='1489'> +1.4034256e-12 </wgt>
<wgt id='1490'> +1.3953516e-12 </wgt>
<wgt id='1491'> +1.4017550e-12 </wgt>
<wgt id='1492'> +1.3973734e-12 </wgt>
<wgt id='1493'> +1.3813788e-12 </wgt>
<wgt id='1494'> +1.3965771e-12 </wgt>
<wgt id='1495'> +1.3904464e-12 </wgt>
<wgt id='1496'> +1.3982353e-12 </wgt>
<wgt id='1497'> +1.3973945e-12 </wgt>
<wgt id='1498'> +1.3971378e-12 </wgt>
<wgt id='1499'> +1.4001551e-12 </wgt>
<wgt id='1500'> +1.4002974e-12 </wgt>
<wgt id='1501'> +1.3987153e-12 </wgt>
<wgt id='1502'> +1.3948472e-12 </wgt>
<wgt id='1503'> +1.4006968e-12 </wgt>
<wgt id='1504'> +1.3936222e-12 </wgt>
<wgt id='1505'> +1.4018256e-12 </wgt>
<wgt id='1506'> +1.3996364e-12 </wgt>
<wgt id='1507'> +1.3968105e-12 </wgt>
<wgt id='1508'> +1.4002641e-12 </wgt>
<wgt id='1509'> +1.4072513e-12 </wgt>
<wgt id='1510'> +1.4064991e-12 </wgt>
<wgt id='1511'> +1.4078999e-12 </wgt>
<wgt id='1512'> +1.4061554e-12 </wgt>
<wgt id='1513'> +1.4036444e-12 </wgt>
<wgt id='1514'> +1.4095782e-12 </wgt>
<wgt id='1515'> +1.4128361e-12 </wgt>
<wgt id='1516'> +1.4106094e-12 </wgt>
<wgt id='1517'> +1.4143612e-12 </wgt>
<wgt id='1518'> +1.4036853e-12 </wgt>
<wgt id='1519'> +1.4069388e-12 </wgt>
<wgt id='1520'> +1.4110409e-12 </wgt>
<wgt id='1521'> +1.4077687e-12 </wgt>
<wgt id='1522'> +1.4092939e-12 </wgt>
<wgt id='1523'> +1.4107798e-12 </wgt>
<wgt id='1524'> +1.4058409e-12 </wgt>
<wgt id='1525'> +1.4069355e-12 </wgt>
<wgt id='1526'> +1.4090245e-12 </wgt>
<wgt id='1527'> +1.4079096e-12 </wgt>
<wgt id='1528'> +1.4085748e-12 </wgt>
<wgt id='1529'> +1.4092630e-12 </wgt>
<wgt id='1530'> +1.4069828e-12 </wgt>
<wgt id='1531'> +1.4097614e-12 </wgt>
<wgt id='1532'> +1.4044083e-12 </wgt>
<wgt id='1533'> +1.4069604e-12 </wgt>
<wgt id='1534'> +1.4081712e-12 </wgt>
<wgt id='1535'> +1.4036817e-12 </wgt>
<wgt id='1536'> +1.4117146e-12 </wgt>
<wgt id='1537'> +1.4104454e-12 </wgt>
<wgt id='1538'> +1.3924518e-12 </wgt>
<wgt id='1539'> +1.4037566e-12 </wgt>
<wgt id='1540'> +1.4062220e-12 </wgt>
<wgt id='1541'> +1.4035292e-12 </wgt>
<wgt id='1542'> +1.4050664e-12 </wgt>
<wgt id='1543'> +1.4084046e-12 </wgt>
<wgt id='1544'> +1.4051268e-12 </wgt>
<wgt id='1545'> +1.4061609e-12 </wgt>
<wgt id='1546'> +1.4085775e-12 </wgt>
<wgt id='1547'> +1.4060052e-12 </wgt>
<wgt id='1548'> +1.4080544e-12 </wgt>
<wgt id='1549'> +1.4059658e-12 </wgt>
<wgt id='1550'> +1.4073906e-12 </wgt>
<wgt id='1551'> +1.4068129e-12 </wgt>
<wgt id='1552'> +1.4089934e-12 </wgt>
<wgt id='1553'> +1.4071138e-12 </wgt>
<wgt id='1554'> +1.4065345e-12 </wgt>
<wgt id='1555'> +1.4085397e-12 </wgt>
<wgt id='1556'> +1.4094985e-12 </wgt>
<wgt id='1557'> +1.4074114e-12 </wgt>
<wgt id='1558'> +1.4076677e-12 </wgt>
<wgt id='1559'> +1.4069027e-12 </wgt>
<wgt id='1560'> +1.4089741e-12 </wgt>
<wgt id='1561'> +1.4080625e-12 </wgt>
<wgt id='1562'> +1.4078027e-12 </wgt>
<wgt id='1563'> +1.4085264e-12 </wgt>
<wgt id='1564'> +1.4062948e-12 </wgt>
<wgt id='1565'> +1.4066336e-12 </wgt>
<wgt id='1566'> +1.4070479e-12 </wgt>
<wgt id='1567'> +1.4051064e-12 </wgt>
<wgt id='1568'> +1.4077146e-12 </wgt>
<wgt id='1569'> +1.4093777e-12 </wgt>
<wgt id='1570'> +1.4079151e-12 </wgt>
<wgt id='1571'> +1.4071813e-12 </wgt>
<wgt id='1572'> +1.4063183e-12 </wgt>
<wgt id='1573'> +1.4053970e-12 </wgt>
<wgt id='1574'> +1.4072291e-12 </wgt>
<wgt id='1575'> +1.4081921e-12 </wgt>
<wgt id='1576'> +1.4086298e-12 </wgt>
<wgt id='1577'> +1.4101619e-12 </wgt>
<wgt id='1578'> +1.4066613e-12 </wgt>
<wgt id='1579'> +1.4068765e-12 </wgt>
<wgt id='1580'> +1.4074052e-12 </wgt>
<wgt id='1581'> +1.4073779e-12 </wgt>
<wgt id='1582'> +1.4068081e-12 </wgt>
<wgt id='1583'> +1.4066624e-12 </wgt>
<wgt id='1584'> +1.4054288e-12 </wgt>
<wgt id='1585'> +1.4063107e-12 </wgt>
<wgt id='1586'> +1.4079829e-12 </wgt>
<wgt id='1587'> +1.4085067e-12 </wgt>
<wgt id='1588'> +1.4070712e-12 </wgt>
<wgt id='1589'> +1.4076802e-12 </wgt>
<wgt id='1590'> +1.4085033e-12 </wgt>
<wgt id='1591'> +1.4083195e-12 </wgt>
<wgt id='1592'> +1.4085267e-12 </wgt>
<wgt id='1593'> +1.4067519e-12 </wgt>
<wgt id='1594'> +1.4074998e-12 </wgt>
<wgt id='1595'> +1.4059602e-12 </wgt>
<wgt id='1596'> +1.4071552e-12 </wgt>
<wgt id='1597'> +1.4060241e-12 </wgt>
<wgt id='1598'> +1.4080117e-12 </wgt>
<wgt id='1599'> +1.4073512e-12 </wgt>
<wgt id='1600'> +1.4066501e-12 </wgt>
<wgt id='1601'> +1.4073579e-12 </wgt>
<wgt id='1602'> +1.4060394e-12 </wgt>
<wgt id='1603'> +1.4068263e-12 </wgt>
<wgt id='1604'> +1.4068216e-12 </wgt>
<wgt id='1605'> +1.4071458e-12 </wgt>
<wgt id='1606'> +1.4077697e-12 </wgt>
<wgt id='1607'> +1.4070840e-12 </wgt>
<wgt id='1608'> +1.4069880e-12 </wgt>
<wgt id='1609'> +1.4069679e-12 </wgt>
<wgt id='1610'> +1.3936197e-12 </wgt>
<wgt id='1611'> +1.4198907e-12 </wgt>
<wgt id='1612'> +1.5314570e-12 </wgt>
<wgt id='1613'> +1.5049493e-12 </wgt>
<wgt id='1614'> +1.5017899e-12 </wgt>
<wgt id='1615'> +1.5218258e-12 </wgt>
<wgt id='1616'> +1.4792848e-12 </wgt>
<wgt id='1617'> +1.5502485e-12 </wgt>
<wgt id='1618'> +1.4801295e-12 </wgt>
<wgt id='1619'> +1.4874073e-12 </wgt>
<wgt id='1620'> +1.5127152e-12 </wgt>
<wgt id='1621'> +1.5422155e-12 </wgt>
<wgt id='1622'> +1.5532478e-12 </wgt>
<wgt id='1623'> +1.5360118e-12 </wgt>
<wgt id='1624'> +1.5188699e-12 </wgt>
<wgt id='1625'> +1.5366150e-12 </wgt>
<wgt id='1626'> +1.5458433e-12 </wgt>
<wgt id='1627'> +1.5163747e-12 </wgt>
<wgt id='1628'> +1.4261865e-12 </wgt>
<wgt id='1629'> +1.5775176e-12 </wgt>
<wgt id='1630'> +1.5349363e-12 </wgt>
<wgt id='1631'> +1.5371829e-12 </wgt>
<wgt id='1632'> +1.4815452e-12 </wgt>
<wgt id='1633'> +1.5229683e-12 </wgt>
<wgt id='1634'> +1.5626639e-12 </wgt>
<wgt id='1635'> +1.5453420e-12 </wgt>
<wgt id='1636'> +1.5165062e-12 </wgt>
<wgt id='1637'> +1.5422701e-12 </wgt>
<wgt id='1638'> +1.5287012e-12 </wgt>
<wgt id='1639'> +1.5418285e-12 </wgt>
<wgt id='1640'> +1.5286098e-12 </wgt>
<wgt id='1641'> +1.5351031e-12 </wgt>
<wgt id='1642'> +1.5087895e-12 </wgt>
<wgt id='1643'> +1.5327946e-12 </wgt>
<wgt id='1644'> +1.5706949e-12 </wgt>
<wgt id='1645'> +1.5301367e-12 </wgt>
<wgt id='1646'> +1.5817499e-12 </wgt>
<wgt id='1647'> +1.5477799e-12 </wgt>
<wgt id='1648'> +1.5461477e-12 </wgt>
<wgt id='1649'> +1.4918316e-12 </wgt>
<wgt id='1650'> +1.5190557e-12 </wgt>
<wgt id='1651'> +1.5155429e-12 </wgt>
<wgt id='1652'> +1.5510875e-12 </wgt>
<wgt id='1653'> +1.5000183e-12 </wgt>
<wgt id='1654'> +1.5044813e-12 </wgt>
<wgt id='1655'> +1.5159957e-12 </wgt>
<wgt id='1656'> +1.5554417e-12 </wgt>
<wgt id='1657'> +1.5016096e-12 </wgt>
<wgt id='1658'> +1.5370808e-12 </wgt>
<wgt id='1659'> +1.5188699e-12 </wgt>
<wgt id='1660'> +1.5223290e-12 </wgt>
<wgt id='1661'> +1.5895733e-12 </wgt>
<wgt id='1662'> +1.5632091e-12 </wgt>
<wgt id='1663'> +1.5720654e-12 </wgt>
<wgt id='1664'> +1.5371274e-12 </wgt>
<wgt id='1665'> +1.5164107e-12 </wgt>
<wgt id='1666'> +1.5414051e-12 </wgt>
<wgt id='1667'> +1.5508288e-12 </wgt>
<wgt id='1668'> +1.4938783e-12 </wgt>
<wgt id='1669'> +1.5437947e-12 </wgt>
<wgt id='1670'> +1.5499180e-12 </wgt>
<wgt id='1671'> +1.5263807e-12 </wgt>
<wgt id='1672'> +1.5701047e-12 </wgt>
<wgt id='1673'> +1.5285044e-12 </wgt>
<wgt id='1674'> +1.5290262e-12 </wgt>
<wgt id='1675'> +1.5482115e-12 </wgt>
<wgt id='1676'> +1.5232546e-12 </wgt>
<wgt id='1677'> +1.5819961e-12 </wgt>
<wgt id='1678'> +1.5306730e-12 </wgt>
<wgt id='1679'> +1.5471422e-12 </wgt>
<wgt id='1680'> +1.5176068e-12 </wgt>
<wgt id='1681'> +1.5631720e-12 </wgt>
<wgt id='1682'> +1.5347660e-12 </wgt>
<wgt id='1683'> +1.5330111e-12 </wgt>
<wgt id='1684'> +1.5644844e-12 </wgt>
<wgt id='1685'> +1.5103206e-12 </wgt>
<wgt id='1686'> +1.5574800e-12 </wgt>
<wgt id='1687'> +1.5653800e-12 </wgt>
<wgt id='1688'> +1.4841663e-12 </wgt>
<wgt id='1689'> +1.5528292e-12 </wgt>
<wgt id='1690'> +1.5472462e-12 </wgt>
<wgt id='1691'> +1.5113238e-12 </wgt>
<wgt id='1692'> +1.4927080e-12 </wgt>
<wgt id='1693'> +1.5639583e-12 </wgt>
<wgt id='1694'> +1.5449424e-12 </wgt>
<wgt id='1695'> +1.5707138e-12 </wgt>
<wgt id='1696'> +1.5481247e-12 </wgt>
<wgt id='1697'> +1.4989632e-12 </wgt>
<wgt id='1698'> +1.5147548e-12 </wgt>
<wgt id='1699'> +1.5096625e-12 </wgt>
<wgt id='1700'> +1.5229006e-12 </wgt>
<wgt id='1701'> +1.5481404e-12 </wgt>
<wgt id='1702'> +1.5093948e-12 </wgt>
<wgt id='1703'> +1.5302512e-12 </wgt>
<wgt id='1704'> +1.5203225e-12 </wgt>
<wgt id='1705'> +1.5074878e-12 </wgt>
<wgt id='1706'> +1.5225907e-12 </wgt>
<wgt id='1707'> +1.4974665e-12 </wgt>
<wgt id='1708'> +1.5495738e-12 </wgt>
<wgt id='1709'> +1.5443008e-12 </wgt>
<wgt id='1710'> +1.5313201e-12 </wgt>
<wgt id='1711'> +1.5374548e-12 </wgt>
<wgt id='1712'> +1.5746087e-12 </wgt>
<wgt id='1713'> +1.3797755e-12 </wgt>
<wgt id='1714'> +1.3553424e-12 </wgt>
<wgt id='1715'> +1.3553663e-12 </wgt>
<wgt id='1716'> +1.4103966e-12 </wgt>
<wgt id='1717'> +1.3921458e-12 </wgt>
<wgt id='1718'> +1.4216891e-12 </wgt>
<wgt id='1719'> +1.3905899e-12 </wgt>
<wgt id='1720'> +1.3768640e-12 </wgt>
<wgt id='1721'> +1.3582258e-12 </wgt>
<wgt id='1722'> +1.3777691e-12 </wgt>
<wgt id='1723'> +1.3857162e-12 </wgt>
<wgt id='1724'> +1.4281510e-12 </wgt>
<wgt id='1725'> +1.3968461e-12 </wgt>
<wgt id='1726'> +1.3981077e-12 </wgt>
<wgt id='1727'> +1.3953779e-12 </wgt>
<wgt id='1728'> +1.3802931e-12 </wgt>
<wgt id='1729'> +1.3455552e-12 </wgt>
<wgt id='1730'> +1.3571880e-12 </wgt>
<wgt id='1731'> +1.3248741e-12 </wgt>
<wgt id='1732'> +1.3728039e-12 </wgt>
<wgt id='1733'> +1.3407685e-12 </wgt>
<wgt id='1734'> +1.4159820e-12 </wgt>
<wgt id='1735'> +1.3800317e-12 </wgt>
<wgt id='1736'> +1.4396771e-12 </wgt>
<wgt id='1737'> +1.3945598e-12 </wgt>
<wgt id='1738'> +1.3841805e-12 </wgt>
<wgt id='1739'> +1.3848877e-12 </wgt>
<wgt id='1740'> +1.3203262e-12 </wgt>
<wgt id='1741'> +1.3972506e-12 </wgt>
<wgt id='1742'> +1.3626319e-12 </wgt>
<wgt id='1743'> +1.3827966e-12 </wgt>
<wgt id='1744'> +1.3884168e-12 </wgt>
<wgt id='1745'> +1.4056050e-12 </wgt>
<wgt id='1746'> +1.3853495e-12 </wgt>
<wgt id='1747'> +1.4074767e-12 </wgt>
<wgt id='1748'> +1.3819195e-12 </wgt>
<wgt id='1749'> +1.3681368e-12 </wgt>
<wgt id='1750'> +1.3598357e-12 </wgt>
<wgt id='1751'> +1.3662402e-12 </wgt>
<wgt id='1752'> +1.3522203e-12 </wgt>
<wgt id='1753'> +1.3916288e-12 </wgt>
<wgt id='1754'> +1.3921819e-12 </wgt>
<wgt id='1755'> +1.3878542e-12 </wgt>
<wgt id='1756'> +1.4029814e-12 </wgt>
<wgt id='1757'> +1.3854434e-12 </wgt>
<wgt id='1758'> +1.3919703e-12 </wgt>
<wgt id='1759'> +1.3841229e-12 </wgt>
<wgt id='1760'> +1.3614057e-12 </wgt>
<wgt id='1761'> +1.3523747e-12 </wgt>
<wgt id='1762'> +1.3817572e-12 </wgt>
<wgt id='1763'> +1.3909322e-12 </wgt>
<wgt id='1764'> +1.4060127e-12 </wgt>
<wgt id='1765'> +1.3896680e-12 </wgt>
<wgt id='1766'> +1.4143112e-12 </wgt>
<wgt id='1767'> +1.3739343e-12 </wgt>
<wgt id='1768'> +1.3849806e-12 </wgt>
<wgt id='1769'> +1.3474314e-12 </wgt>
<wgt id='1770'> +1.3779601e-12 </wgt>
<wgt id='1771'> +1.4068503e-12 </wgt>
<wgt id='1772'> +1.3598379e-12 </wgt>
<wgt id='1773'> +1.3754588e-12 </wgt>
<wgt id='1774'> +1.3805681e-12 </wgt>
<wgt id='1775'> +1.3776540e-12 </wgt>
<wgt id='1776'> +1.4243007e-12 </wgt>
<wgt id='1777'> +1.3200552e-12 </wgt>
<wgt id='1778'> +1.3800922e-12 </wgt>
<wgt id='1779'> +1.3853879e-12 </wgt>
<wgt id='1780'> +1.4041553e-12 </wgt>
<wgt id='1781'> +1.3776747e-12 </wgt>
<wgt id='1782'> +1.3613448e-12 </wgt>
<wgt id='1783'> +1.3649418e-12 </wgt>
<wgt id='1784'> +1.3974637e-12 </wgt>
<wgt id='1785'> +1.4049454e-12 </wgt>
<wgt id='1786'> +1.3736292e-12 </wgt>
<wgt id='1787'> +1.4275609e-12 </wgt>
<wgt id='1788'> +1.3728129e-12 </wgt>
<wgt id='1789'> +1.4367151e-12 </wgt>
<wgt id='1790'> +1.3876723e-12 </wgt>
<wgt id='1791'> +1.3945844e-12 </wgt>
<wgt id='1792'> +1.3795195e-12 </wgt>
<wgt id='1793'> +1.3709439e-12 </wgt>
<wgt id='1794'> +1.3933035e-12 </wgt>
<wgt id='1795'> +1.3920783e-12 </wgt>
<wgt id='1796'> +1.3318115e-12 </wgt>
<wgt id='1797'> +1.3697385e-12 </wgt>
<wgt id='1798'> +1.3713844e-12 </wgt>
<wgt id='1799'> +1.3678272e-12 </wgt>
<wgt id='1800'> +1.3913870e-12 </wgt>
<wgt id='1801'> +1.3874495e-12 </wgt>
<wgt id='1802'> +1.3427121e-12 </wgt>
<wgt id='1803'> +1.3821887e-12 </wgt>
<wgt id='1804'> +1.3619633e-12 </wgt>
<wgt id='1805'> +1.3715368e-12 </wgt>
<wgt id='1806'> +1.3463445e-12 </wgt>
<wgt id='1807'> +1.3861369e-12 </wgt>
<wgt id='1808'> +1.3483463e-12 </wgt>
<wgt id='1809'> +1.3674210e-12 </wgt>
<wgt id='1810'> +1.3523055e-12 </wgt>
<wgt id='1811'> +1.4070565e-12 </wgt>
<wgt id='1812'> +1.3711172e-12 </wgt>
<wgt id='1813'> +1.3171988e-12 </wgt>
<wgt id='1814'> +1.6132532e-12 </wgt>
<wgt id='1815'> +1.8658452e-12 </wgt>
<wgt id='1816'> +1.3797755e-12 </wgt>
<wgt id='1817'> +1.3553424e-12 </wgt>
<wgt id='1818'> +1.3553663e-12 </wgt>
<wgt id='1819'> +1.4103966e-12 </wgt>
<wgt id='1820'> +1.3921458e-12 </wgt>
<wgt id='1821'> +1.4216891e-12 </wgt>
<wgt id='1822'> +1.3905899e-12 </wgt>
<wgt id='1823'> +1.3768640e-12 </wgt>
<wgt id='1824'> +1.3582258e-12 </wgt>
<wgt id='1825'> +1.3777691e-12 </wgt>
<wgt id='1826'> +1.3857162e-12 </wgt>
<wgt id='1827'> +1.4281510e-12 </wgt>
<wgt id='1828'> +1.3968461e-12 </wgt>
<wgt id='1829'> +1.3981077e-12 </wgt>
<wgt id='1830'> +1.3953779e-12 </wgt>
<wgt id='1831'> +1.3802931e-12 </wgt>
<wgt id='1832'> +1.3455552e-12 </wgt>
<wgt id='1833'> +1.3571880e-12 </wgt>
<wgt id='1834'> +1.3248741e-12 </wgt>
<wgt id='1835'> +1.3728039e-12 </wgt>
<wgt id='1836'> +1.3407685e-12 </wgt>
<wgt id='1837'> +1.4159820e-12 </wgt>
<wgt id='1838'> +1.3800317e-12 </wgt>
<wgt id='1839'> +1.4396771e-12 </wgt>
<wgt id='1840'> +1.3945598e-12 </wgt>
<wgt id='1841'> +1.3841805e-12 </wgt>
<wgt id='1842'> +1.3848877e-12 </wgt>
<wgt id='1843'> +1.3203262e-12 </wgt>
<wgt id='1844'> +1.3972506e-12 </wgt>
<wgt id='1845'> +1.3626319e-12 </wgt>
<wgt id='1846'> +1.3827966e-12 </wgt>
<wgt id='1847'> +1.3884168e-12 </wgt>
<wgt id='1848'> +1.4056050e-12 </wgt>
<wgt id='1849'> +1.3853495e-12 </wgt>
<wgt id='1850'> +1.4074767e-12 </wgt>
<wgt id='1851'> +1.3819195e-12 </wgt>
<wgt id='1852'> +1.3681368e-12 </wgt>
<wgt id='1853'> +1.3598357e-12 </wgt>
<wgt id='1854'> +1.3662402e-12 </wgt>
<wgt id='1855'> +1.3522203e-12 </wgt>
<wgt id='1856'> +1.3916288e-12 </wgt>
<wgt id='1857'> +1.3921819e-12 </wgt>
<wgt id='1858'> +1.3878542e-12 </wgt>
<wgt id='1859'> +1.4029814e-12 </wgt>
<wgt id='1860'> +1.3854434e-12 </wgt>
<wgt id='1861'> +1.3919703e-12 </wgt>
<wgt id='1862'> +1.3841229e-12 </wgt>
<wgt id='1863'> +1.3614057e-12 </wgt>
<wgt id='1864'> +1.3523747e-12 </wgt>
<wgt id='1865'> +1.3817572e-12 </wgt>
<wgt id='1866'> +1.3909322e-12 </wgt>
<wgt id='1867'> +1.4060127e-12 </wgt>
<wgt id='1868'> +1.3896680e-12 </wgt>
<wgt id='1869'> +1.4143112e-12 </wgt>
<wgt id='1870'> +1.3739343e-12 </wgt>
<wgt id='1871'> +1.3849806e-12 </wgt>
<wgt id='1872'> +1.3474314e-12 </wgt>
<wgt id='1873'> +1.3779601e-12 </wgt>
<wgt id='1874'> +1.4068503e-12 </wgt>
<wgt id='1875'> +1.3598379e-12 </wgt>
<wgt id='1876'> +1.3754588e-12 </wgt>
<wgt id='1877'> +1.3805681e-12 </wgt>
<wgt id='1878'> +1.3776540e-12 </wgt>
<wgt id='1879'> +1.4243007e-12 </wgt>
<wgt id='1880'> +1.3200552e-12 </wgt>
<wgt id='1881'> +1.3800922e-12 </wgt>
<wgt id='1882'> +1.3853879e-12 </wgt>
<wgt id='1883'> +1.4041553e-12 </wgt>
<wgt id='1884'> +1.3776747e-12 </wgt>
<wgt id='1885'> +1.3613448e-12 </wgt>
<wgt id='1886'> +1.3649418e-12 </wgt>
<wgt id='1887'> +1.3974637e-12 </wgt>
<wgt id='1888'> +1.4049454e-12 </wgt>
<wgt id='1889'> +1.3736292e-12 </wgt>
<wgt id='1890'> +1.4275609e-12 </wgt>
<wgt id='1891'> +1.3728129e-12 </wgt>
<wgt id='1892'> +1.4367151e-12 </wgt>
<wgt id='1893'> +1.3876723e-12 </wgt>
<wgt id='1894'> +1.3945844e-12 </wgt>
<wgt id='1895'> +1.3795195e-12 </wgt>
<wgt id='1896'> +1.3709439e-12 </wgt>
<wgt id='1897'> +1.3933035e-12 </wgt>
<wgt id='1898'> +1.3920783e-12 </wgt>
<wgt id='1899'> +1.3318115e-12 </wgt>
<wgt id='1900'> +1.3697385e-12 </wgt>
<wgt id='1901'> +1.3713844e-12 </wgt>
<wgt id='1902'> +1.3678272e-12 </wgt>
<wgt id='1903'> +1.3913870e-12 </wgt>
<wgt id='1904'> +1.3874495e-12 </wgt>
<wgt id='1905'> +1.3427121e-12 </wgt>
<wgt id='1906'> +1.3821887e-12 </wgt>
<wgt id='1907'> +1.3619633e-12 </wgt>
<wgt id='1908'> +1.3715368e-12 </wgt>
<wgt id='1909'> +1.3463445e-12 </wgt>
<wgt id='1910'> +1.3861369e-12 </wgt>
<wgt id='1911'> +1.3483463e-12 </wgt>
<wgt id='1912'> +1.3674210e-12 </wgt>
<wgt id='1913'> +1.3523055e-12 </wgt>
<wgt id='1914'> +1.4070565e-12 </wgt>
<wgt id='1915'> +1.3711172e-12 </wgt>
<wgt id='1916'> +1.3171988e-12 </wgt>
<wgt id='1917'> +1.3716410e-12 </wgt>
<wgt id='1918'> +1.3876541e-12 </wgt>
<wgt id='1919'> +1.3828663e-12 </wgt>
</rwgt>
</event>
<event>
 9      1 +1.5538000e-12 9.19015200e+01 7.81860800e-03 1.17849600e-01
       -4 -1    0    0    0  501 -0.0000000000e+00 +0.0000000000e+00 +9.9322429536e+01 9.9332579796e+01 0.0000000000e+00 0.0000e+00 -1.0000e+00
       21 -1    0    0  501  502 +0.0000000000e+00 -0.0000000000e+00 -9.0919487778e+01 9.0919487778e+01 1.4200000000e+00 0.0000e+00 1.0000e+00
     1023  2    1    2    0    0 +4.5973965968e+01 +7.8148612813e+01 -2.2204745157e+01 9.4545964687e+01 1.5002583099e+01 0.0000e+00 0.0000e+00
  1000023  2    3    3    0    0 +2.8729764634e+01 +4.4886325426e+01 -8.0201119038e+00 5.4173374203e+01 5.5000628534e+00 0.0000e+00 0.0000e+00
       -4  1    1    2    0  502 -4.5973965968e+01 -7.8148612813e+01 +3.0607686916e+01 9.5706102887e+01 1.4200000000e+00 0.0000e+00 -1.0000e+00
  1000022  1    4    4    0    0 +2.4532973149e+01 +3.8631264167e+01 -6.9395457155e+00 4.6555328776e+01 5.0000000000e+00 0.0000e+00 1.0000e+00
      -13  1    4    4    0    0 +9.1726390204e-01 +1.2320936954e+00 -1.5710414219e-01 1.5476699072e+00 1.0570000000e-01 0.0000e+00 1.0000e+00
       13  1    4    4    0    0 +3.2795275822e+00 +5.0229675639e+00 -9.2346204610e-01 6.0703755198e+00 1.0570000000e-01 0.0000e+00 -1.0000e+00
  1000022  1    3    3    0    0 +1.7244201334e+01 +3.3262287388e+01 -1.4184633253e+01 4.0372590484e+01 5.0000000000e+00 0.0000e+00 1.0000e+00
<mgrwt>
<rscale>  1 0.91901516E+02</rscale>
<asrwt>0</asrwt>
<pdfrwt beam="1">  1       21 0.13987614E-01 0.91901516E+02</pdfrwt>
<pdfrwt beam="2">  1       -4 0.15282008E-01 0.91901516E+02</pdfrwt>
<totfact> 0.86486589E+04</totfact>
</mgrwt>
<rwgt>
<wgt id='1001'> +1.5538000e-12 </wgt>
<wgt id='1002'> +1.5064096e-12 </wgt>
<wgt id='1003'> +1.5063879e-12 </wgt>
<wgt id='1004'> +1.5543234e-12 </wgt>
<wgt id='1005'> +1.5028751e-12 </wgt>
<wgt id='1006'> +1.3939358e-12 </wgt>
<wgt id='1007'> +1.3663979e-12 </wgt>
<wgt id='1008'> +1.3663836e-12 </wgt>
<wgt id='1009'> +1.3941642e-12 </wgt>
<wgt id='1010'> +1.3640492e-12 </wgt>
<wgt id='1011'> +1.7567135e-12 </wgt>
<wgt id='1012'> +1.6794716e-12 </wgt>
<wgt id='1013'> +1.6794392e-12 </wgt>
<wgt id='1014'> +1.7576950e-12 </wgt>
<wgt id='1015'> +1.6742312e-12 </wgt>
<wgt id='1016'> +1.6782838e-12 </wgt>
<wgt id='1017'> +1.5934625e-12 </wgt>
<wgt id='1018'> +1.5934286e-12 </wgt>
<wgt id='1019'> +1.6794392e-12 </wgt>
<wgt id='1020'> +1.5879839e-12 </wgt>
<wgt id='1021'> +1.5056120e-12 </wgt>
<wgt id='1022'> +1.4453597e-12 </wgt>
<wgt id='1023'> +1.4453347e-12 </wgt>
<wgt id='1024'> +1.5063879e-12 </wgt>
<wgt id='1025'> +1.4412961e-12 </wgt>
<wgt id='1026'> +1.8974539e-12 </wgt>
<wgt id='1027'> +1.7765254e-12 </wgt>
<wgt id='1028'> +1.7764790e-12 </wgt>
<wgt id='1029'> +1.8991813e-12 </wgt>
<wgt id='1030'> +1.7690439e-12 </wgt>
<wgt id='1031'> +1.3941256e-12 </wgt>
<wgt id='1032'> +1.3941705e-12 </wgt>
<wgt id='1033'> +1.3941642e-12 </wgt>
<wgt id='1034'> +1.3938510e-12 </wgt>
<wgt id='1035'> +1.3930909e-12 </wgt>
<wgt id='1036'> +1.2506897e-12 </wgt>
<wgt id='1037'> +1.2645908e-12 </wgt>
<wgt id='1038'> +1.2645900e-12 </wgt>
<wgt id='1039'> +1.2502271e-12 </wgt>
<wgt id='1040'> +1.2644061e-12 </wgt>
<wgt id='1041'> +1.5761870e-12 </wgt>
<wgt id='1042'> +1.5543380e-12 </wgt>
<wgt id='1043'> +1.5543234e-12 </wgt>
<wgt id='1044'> +1.5762260e-12 </wgt>
<wgt id='1045'> +1.5519295e-12 </wgt>
<wgt id='1046'> +1.5538000e-12 </wgt>
<wgt id='1047'> +1.3883883e-12 </wgt>
<wgt id='1048'> +1.5583156e-12 </wgt>
<wgt id='1049'> +1.6275282e-12 </wgt>
<wgt id='1050'> +1.5790086e-12 </wgt>
<wgt id='1051'> +1.5698480e-12 </wgt>
<wgt id='1052'> +1.4836055e-12 </wgt>
<wgt id='1053'> +1.5528791e-12 </wgt>
<wgt id='1054'> +1.5889206e-12 </wgt>
<wgt id='1055'> +1.6640156e-12 </wgt>
<wgt id='1056'> +1.6112818e-12 </wgt>
<wgt id='1057'> +1.5639466e-12 </wgt>
<wgt id='1058'> +1.5495133e-12 </wgt>
<wgt id='1059'> +1.5610472e-12 </wgt>
<wgt id='1060'> +1.5152807e-12 </wgt>
<wgt id='1061'> +1.6267744e-12 </wgt>
<wgt id='1062'> +1.5887119e-12 </wgt>
<wgt id='1063'> +1.5968254e-12 </wgt>
<wgt id='1064'> +1.5462263e-12 </wgt>
<wgt id='1065'> +1.5384512e-12 </wgt>
<wgt id='1066'> +1.6360617e-12 </wgt>
<wgt id='1067'> +1.5556134e-12 </wgt>
<wgt id='1068'> +1.5053540e-12 </wgt>
<wgt id='1069'> +1.5176671e-12 </wgt>
<wgt id='1070'> +1.5233152e-12 </wgt>
<wgt id='1071'> +1.5696153e-12 </wgt>
<wgt id='1072'> +1.5148047e-12 </wgt>
<wgt id='1073'> +1.5515669e-12 </wgt>
<wgt id='1074'> +1.5307091e-12 </wgt>
<wgt id='1075'> +1.5723206e-12 </wgt>
<wgt id='1076'> +1.6211349e-12 </wgt>
<wgt id='1077'> +1.4964580e-12 </wgt>
<wgt id='1078'> +1.6102952e-12 </wgt>
<wgt id='1079'> +1.5184209e-12 </wgt>
<wgt id='1080'> +1.5367133e-12 </wgt>
<wgt id='1081'> +1.5564862e-12 </wgt>
<wgt id='1082'> +1.5288204e-12 </wgt>
<wgt id='1083'> +1.5490449e-12 </wgt>
<wgt id='1084'> +1.5685218e-12 </wgt>
<wgt id='1085'> +1.5586783e-12 </wgt>
<wgt id='1086'> +1.5386486e-12 </wgt>
<wgt id='1087'> +1.5769975e-12 </wgt>
<wgt id='1088'> +1.4914209e-12 </wgt>
<wgt id='1089'> +1.5091323e-12 </wgt>
<wgt id='1090'> +1.4806076e-12 </wgt>
<wgt id='1091'> +1.5271419e-12 </wgt>
<wgt id='1092'> +1.4883344e-12 </wgt>
<wgt id='1093'> +1.4913056e-12 </wgt>
<wgt id='1094'> +1.5282773e-12 </wgt>
<wgt id='1095'> +1.5601977e-12 </wgt>
<wgt id='1096'> +1.5384600e-12 </wgt>
<wgt id='1097'> +1.5285316e-12 </wgt>
<wgt id='1098'> +1.5882938e-12 </wgt>
<wgt id='1099'> +1.5847636e-12 </wgt>
<wgt id='1100'> +1.4802750e-12 </wgt>
<wgt id='1101'> +1.4763503e-12 </wgt>
<wgt id='1102'> +1.5259823e-12 </wgt>
<wgt id='1103'> +1.4806507e-12 </wgt>
<wgt id='1104'> +1.5566796e-12 </wgt>
<wgt id='1105'> +1.6698874e-12 </wgt>
<wgt id='1106'> +1.5078561e-12 </wgt>
<wgt id='1107'> +1.5399045e-12 </wgt>
<wgt id='1108'> +1.5733445e-12 </wgt>
<wgt id='1109'> +1.4894895e-12 </wgt>
<wgt id='1110'> +1.5748281e-12 </wgt>
<wgt id='1111'> +1.5078449e-12 </wgt>
<wgt id='1112'> +1.5176621e-12 </wgt>
<wgt id='1113'> +1.4414864e-12 </wgt>
<wgt id='1114'> +1.5980966e-12 </wgt>
<wgt id='1115'> +1.5465645e-12 </wgt>
<wgt id='1116'> +1.5224193e-12 </wgt>
<wgt id='1117'> +1.6543200e-12 </wgt>
<wgt id='1118'> +1.5272281e-12 </wgt>
<wgt id='1119'> +1.6844498e-12 </wgt>
<wgt id='1120'> +1.6952573e-12 </wgt>
<wgt id='1121'> +1.6029845e-12 </wgt>
<wgt id='1122'> +1.5031810e-12 </wgt>
<wgt id='1123'> +1.6412275e-12 </wgt>
<wgt id='1124'> +1.5872491e-12 </wgt>
<wgt id='1125'> +1.5856612e-12 </wgt>
<wgt id='1126'> +1.5328026e-12 </wgt>
<wgt id='1127'> +1.5027409e-12 </wgt>
<wgt id='1128'> +1.5887119e-12 </wgt>
<wgt id='1129'> +1.5170879e-12 </wgt>
<wgt id='1130'> +1.5927462e-12 </wgt>
<wgt id='1131'> +1.5936144e-12 </wgt>
<wgt id='1132'> +1.4255621e-12 </wgt>
<wgt id='1133'> +1.5870059e-12 </wgt>
<wgt id='1134'> +1.5472613e-12 </wgt>
<wgt id='1135'> +1.7232953e-12 </wgt>
<wgt id='1136'> +1.5234106e-12 </wgt>
<wgt id='1137'> +1.5146062e-12 </wgt>
<wgt id='1138'> +1.6502747e-12 </wgt>
<wgt id='1139'> +1.6010657e-12 </wgt>
<wgt id='1140'> +1.5720230e-12 </wgt>
<wgt id='1141'> +1.5128989e-12 </wgt>
<wgt id='1142'> +1.5453396e-12 </wgt>
<wgt id='1143'> +1.4563427e-12 </wgt>
<wgt id='1144'> +1.6105196e-12 </wgt>
<wgt id='1145'> +1.5828873e-12 </wgt>
<wgt id='1146'> +1.5685112e-12 </wgt>
<wgt id='1147'> +1.3767969e-12 </wgt>
<wgt id='1148'> +1.3999421e-12 </wgt>
<wgt id='1149'> +1.4344334e-12 </wgt>
<wgt id='1150'> +1.3979411e-12 </wgt>
<wgt id='1151'> +1.0169973e-12 </wgt>
<wgt id='1152'> +1.4248497e-12 </wgt>
<wgt id='1153'> +1.4193996e-12 </wgt>
<wgt id='1154'> +1.4279532e-12 </wgt>
<wgt id='1155'> +1.4255718e-12 </wgt>
<wgt id='1156'> +1.4244811e-12 </wgt>
<wgt id='1157'> +1.4210115e-12 </wgt>
<wgt id='1158'> +1.4298862e-12 </wgt>
<wgt id='1159'> +1.4216669e-12 </wgt>
<wgt id='1160'> +1.4268461e-12 </wgt>
<wgt id='1161'> +1.4180938e-12 </wgt>
<wgt id='1162'> +1.4294378e-12 </wgt>
<wgt id='1163'> +1.4297882e-12 </wgt>
<wgt id='1164'> +1.4198860e-12 </wgt>
<wgt id='1165'> +1.4151255e-12 </wgt>
<wgt id='1166'> +1.4340262e-12 </wgt>
<wgt id='1167'> +1.4262942e-12 </wgt>
<wgt id='1168'> +1.4198165e-12 </wgt>
<wgt id='1169'> +1.4264705e-12 </wgt>
<wgt id='1170'> +1.4234935e-12 </wgt>
<wgt id='1171'> +1.4242272e-12 </wgt>
<wgt id='1172'> +1.4255330e-12 </wgt>
<wgt id='1173'> +1.4221315e-12 </wgt>
<wgt id='1174'> +1.4267854e-12 </wgt>
<wgt id='1175'> +1.4212432e-12 </wgt>
<wgt id='1176'> +1.4266536e-12 </wgt>
<wgt id='1177'> +1.4249673e-12 </wgt>
<wgt id='1178'> +1.4248017e-12 </wgt>
<wgt id='1179'> +1.4453021e-12 </wgt>
<wgt id='1180'> +1.4003660e-12 </wgt>
<wgt id='1181'> +1.4162804e-12 </wgt>
<wgt id='1182'> +1.4329659e-12 </wgt>
<wgt id='1183'> +1.4242206e-12 </wgt>
<wgt id='1184'> +1.4249355e-12 </wgt>
<wgt id='1185'> +1.4275673e-12 </wgt>
<wgt id='1186'> +1.4234510e-12 </wgt>
<wgt id='1187'> +1.4240209e-12 </wgt>
<wgt id='1188'> +1.4250604e-12 </wgt>
<wgt id='1189'> +1.4261342e-12 </wgt>
<wgt id='1190'> +1.4133142e-12 </wgt>
<wgt id='1191'> +1.4048617e-12 </wgt>
<wgt id='1192'> +1.4323323e-12 </wgt>
<wgt id='1193'> +1.4429432e-12 </wgt>
<wgt id='1194'> +1.4475496e-12 </wgt>
<wgt id='1195'> +1.4391375e-12 </wgt>
<wgt id='1196'> +1.4454154e-12 </wgt>
<wgt id='1197'> +1.4402423e-12 </wgt>
<wgt id='1198'> +1.4449932e-12 </wgt>
<wgt id='1199'> +1.4399017e-12 </wgt>
<wgt id='1200'> +1.4446670e-12 </wgt>
<wgt id='1201'> +1.4418195e-12 </wgt>
<wgt id='1202'> +1.4397599e-12 </wgt>
<wgt id='1203'> +1.4475110e-12 </wgt>
<wgt id='1204'> +1.4244280e-12 </wgt>
<wgt id='1205'> +1.4544578e-12 </wgt>
<wgt id='1206'> +1.4482328e-12 </wgt>
<wgt id='1207'> +1.4357706e-12 </wgt>
<wgt id='1208'> +1.4353495e-12 </wgt>
<wgt id='1209'> +1.4456996e-12 </wgt>
<wgt id='1210'> +1.4546880e-12 </wgt>
<wgt id='1211'> +1.4250701e-12 </wgt>
<wgt id='1212'> +1.4387909e-12 </wgt>
<wgt id='1213'> +1.4468995e-12 </wgt>
<wgt id='1214'> +1.4395581e-12 </wgt>
<wgt id='1215'> +1.4479778e-12 </wgt>
<wgt id='1216'> +1.4491257e-12 </wgt>
<wgt id='1217'> +1.4390199e-12 </wgt>
<wgt id='1218'> +1.4473935e-12 </wgt>
<wgt id='1219'> +1.4407235e-12 </wgt>
<wgt id='1220'> +1.4431587e-12 </wgt>
<wgt id='1221'> +1.4445195e-12 </wgt>
<wgt id='1222'> +1.4313535e-12 </wgt>
<wgt id='1223'> +1.4635105e-12 </wgt>
<wgt id='1224'> +1.4437587e-12 </wgt>
<wgt id='1225'> +1.4426281e-12 </wgt>
<wgt id='1226'> +1.4455814e-12 </wgt>
<wgt id='1227'> +1.4413771e-12 </wgt>
<wgt id='1228'> +1.4379163e-12 </wgt>
<wgt id='1229'> +1.4456155e-12 </wgt>
<wgt id='1230'> +1.4489846e-12 </wgt>
<wgt id='1231'> +1.4180205e-12 </wgt>
<wgt id='1232'> +1.4386886e-12 </wgt>
<wgt id='1233'> +1.4441629e-12 </wgt>
<wgt id='1234'> +1.4429432e-12 </wgt>
<wgt id='1235'> +1.4334976e-12 </wgt>
<wgt id='1236'> +1.4371331e-12 </wgt>
<wgt id='1237'> +1.4403239e-12 </wgt>
<wgt id='1238'> +1.4461766e-12 </wgt>
<wgt id='1239'> +1.4485043e-12 </wgt>
<wgt id='1240'> +1.4507274e-12 </wgt>
<wgt id='1241'> +1.3778963e-12 </wgt>
<wgt id='1242'> +1.3799329e-12 </wgt>
<wgt id='1243'> +1.3759225e-12 </wgt>
<wgt id='1244'> +1.3700774e-12 </wgt>
<wgt id='1245'> +1.3837248e-12 </wgt>
<wgt id='1246'> +1.3798120e-12 </wgt>
<wgt id='1247'> +1.3763132e-12 </wgt>
<wgt id='1248'> +1.3777736e-12 </wgt>
<wgt id='1249'> +1.3781072e-12 </wgt>
<wgt id='1250'> +1.3744598e-12 </wgt>
<wgt id='1251'> +1.3803636e-12 </wgt>
<wgt id='1252'> +1.3748857e-12 </wgt>
<wgt id='1253'> +1.3802525e-12 </wgt>
<wgt id='1254'> +1.3576166e-12 </wgt>
<wgt id='1255'> +1.3901855e-12 </wgt>
<wgt id='1256'> +1.3832726e-12 </wgt>
<wgt id='1257'> +1.3644185e-12 </wgt>
<wgt id='1258'> +1.3882445e-12 </wgt>
<wgt id='1259'> +1.3690322e-12 </wgt>
<wgt id='1260'> +1.3816146e-12 </wgt>
<wgt id='1261'> +1.3737087e-12 </wgt>
<wgt id='1262'> +1.3805800e-12 </wgt>
<wgt id='1263'> +1.3766874e-12 </wgt>
<wgt id='1264'> +1.3839626e-12 </wgt>
<wgt id='1265'> +1.3748988e-12 </wgt>
<wgt id='1266'> +1.3824736e-12 </wgt>
<wgt id='1267'> +1.3749399e-12 </wgt>
<wgt id='1268'> +1.3756233e-12 </wgt>
<wgt id='1269'> +1.3843588e-12 </wgt>
<wgt id='1270'> +1.3739597e-12 </wgt>
<wgt id='1271'> +1.3733091e-12 </wgt>
<wgt id='1272'> +1.3800093e-12 </wgt>
<wgt id='1273'> +1.3768923e-12 </wgt>
<wgt id='1274'> +1.3779545e-12 </wgt>
<wgt id='1275'> +1.3771959e-12 </wgt>
<wgt id='1276'> +1.3789996e-12 </wgt>
<wgt id='1277'> +1.3761544e-12 </wgt>
<wgt id='1278'> +1.3733194e-12 </wgt>
<wgt id='1279'> +1.3661767e-12 </wgt>
<wgt id='1280'> +1.3795078e-12 </wgt>
<wgt id='1281'> +1.3671294e-12 </wgt>
<wgt id='1282'> +1.3778963e-12 </wgt>
<wgt id='1283'> +1.3675938e-12 </wgt>
<wgt id='1284'> +1.3714442e-12 </wgt>
<wgt id='1285'> +1.3749067e-12 </wgt>
<wgt id='1286'> +1.3807243e-12 </wgt>
<wgt id='1287'> +1.3832003e-12 </wgt>
<wgt id='1288'> +1.3853462e-12 </wgt>
<wgt id='1289'> +1.5092200e-12 </wgt>
<wgt id='1290'> +1.5100001e-12 </wgt>
<wgt id='1291'> +1.5083880e-12 </wgt>
<wgt id='1292'> +1.5104701e-12 </wgt>
<wgt id='1293'> +1.5082731e-12 </wgt>
<wgt id='1294'> +1.5161999e-12 </wgt>
<wgt id='1295'> +1.5024482e-12 </wgt>
<wgt id='1296'> +1.5016201e-12 </wgt>
<wgt id='1297'> +1.5186841e-12 </wgt>
<wgt id='1298'> +1.5143355e-12 </wgt>
<wgt id='1299'> +1.5028379e-12 </wgt>
<wgt id='1300'> +1.5125515e-12 </wgt>
<wgt id='1301'> +1.5025404e-12 </wgt>
<wgt id='1302'> +1.5083962e-12 </wgt>
<wgt id='1303'> +1.5103533e-12 </wgt>
<wgt id='1304'> +1.5045033e-12 </wgt>
<wgt id='1305'> +1.5124333e-12 </wgt>
<wgt id='1306'> +1.5002934e-12 </wgt>
<wgt id='1307'> +1.5192910e-12 </wgt>
<wgt id='1308'> +1.5092810e-12 </wgt>
<wgt id='1309'> +1.5091684e-12 </wgt>
<wgt id='1310'> +1.5052829e-12 </wgt>
<wgt id='1311'> +1.5134471e-12 </wgt>
<wgt id='1312'> +1.5025312e-12 </wgt>
<wgt id='1313'> +1.5160808e-12 </wgt>
<wgt id='1314'> +1.5334181e-12 </wgt>
<wgt id='1315'> +1.4794182e-12 </wgt>
<wgt id='1316'> +1.5138235e-12 </wgt>
<wgt id='1317'> +1.5085956e-12 </wgt>
<wgt id='1318'> +1.5198160e-12 </wgt>
<wgt id='1319'> +1.4971903e-12 </wgt>
<wgt id='1320'> +1.5059782e-12 </wgt>
<wgt id='1321'> +1.5109742e-12 </wgt>
<wgt id='1322'> +1.5116051e-12 </wgt>
<wgt id='1323'> +1.5059405e-12 </wgt>
<wgt id='1324'> +1.5084000e-12 </wgt>
<wgt id='1325'> +1.5133216e-12 </wgt>
<wgt id='1326'> +1.5120737e-12 </wgt>
<wgt id='1327'> +1.5081833e-12 </wgt>
<wgt id='1328'> +1.5074075e-12 </wgt>
<wgt id='1329'> +1.5109162e-12 </wgt>
<wgt id='1330'> +1.5013274e-12 </wgt>
<wgt id='1331'> +1.5187779e-12 </wgt>
<wgt id='1332'> +1.5304769e-12 </wgt>
<wgt id='1333'> +1.4989327e-12 </wgt>
<wgt id='1334'> +1.5073175e-12 </wgt>
<wgt id='1335'> +1.5141911e-12 </wgt>
<wgt id='1336'> +1.5097849e-12 </wgt>
<wgt id='1337'> +1.4920481e-12 </wgt>
<wgt id='1338'> +1.5096248e-12 </wgt>
<wgt id='1339'> +1.5085701e-12 </wgt>
<wgt id='1340'> +1.4773837e-12 </wgt>
<wgt id='1341'> +1.4782628e-12 </wgt>
<wgt id='1342'> +1.4764384e-12 </wgt>
<wgt id='1343'> +1.4786896e-12 </wgt>
<wgt id='1344'> +1.4764872e-12 </wgt>
<wgt id='1345'> +1.4844158e-12 </wgt>
<wgt id='1346'> +1.4708608e-12 </wgt>
<wgt id='1347'> +1.4694844e-12 </wgt>
<wgt id='1348'> +1.4862081e-12 </wgt>
<wgt id='1349'> +1.4820351e-12 </wgt>
<wgt id='1350'> +1.4728127e-12 </wgt>
<wgt id='1351'> +1.4806994e-12 </wgt>
<wgt id='1352'> +1.4701427e-12 </wgt>
<wgt id='1353'> +1.4758096e-12 </wgt>
<wgt id='1354'> +1.4801864e-12 </wgt>
<wgt id='1355'> +1.4723495e-12 </wgt>
<wgt id='1356'> +1.4802264e-12 </wgt>
<wgt id='1357'> +1.4676203e-12 </wgt>
<wgt id='1358'> +1.4888719e-12 </wgt>
<wgt id='1359'> +1.4797049e-12 </wgt>
<wgt id='1360'> +1.4753450e-12 </wgt>
<wgt id='1361'> +1.4731602e-12 </wgt>
<wgt id='1362'> +1.4830264e-12 </wgt>
<wgt id='1363'> +1.4652083e-12 </wgt>
<wgt id='1364'> +1.4858549e-12 </wgt>
<wgt id='1365'> +1.4546430e-12 </wgt>
<wgt id='1366'> +1.4996745e-12 </wgt>
<wgt id='1367'> +1.4810574e-12 </wgt>
<wgt id='1368'> +1.4772358e-12 </wgt>
<wgt id='1369'> +1.4863129e-12 </wgt>
<wgt id='1370'> +1.4670880e-12 </wgt>
<wgt id='1371'> +1.4752030e-12 </wgt>
<wgt id='1372'> +1.4793153e-12 </wgt>
<wgt id='1373'> +1.4818578e-12 </wgt>
<wgt id='1374'> +1.4727715e-12 </wgt>
<wgt id='1375'> +1.4766981e-12 </wgt>
<wgt id='1376'> +1.4813986e-12 </wgt>
<wgt id='1377'> +1.4801602e-12 </wgt>
<wgt id='1378'> +1.4768708e-12 </wgt>
<wgt id='1379'> +1.4753072e-12 </wgt>
<wgt id='1380'> +1.4796644e-12 </wgt>
<wgt id='1381'> +1.4707468e-12 </wgt>
<wgt id='1382'> +1.4850457e-12 </wgt>
<wgt id='1383'> +1.4987165e-12 </wgt>
<wgt id='1384'> +1.4667400e-12 </wgt>
<wgt id='1385'> +1.4756006e-12 </wgt>
<wgt id='1386'> +1.4819165e-12 </wgt>
<wgt id='1387'> +1.4787340e-12 </wgt>
<wgt id='1388'> +1.4582869e-12 </wgt>
<wgt id='1389'> +1.4782069e-12 </wgt>
<wgt id='1390'> +1.4757504e-12 </wgt>
<wgt id='1391'> +1.4430151e-12 </wgt>
<wgt id='1392'> +1.3993395e-12 </wgt>
<wgt id='1393'> +1.4138325e-12 </wgt>
<wgt id='1394'> +1.4286827e-12 </wgt>
<wgt id='1395'> +1.4554689e-12 </wgt>
<wgt id='1396'> +1.4422015e-12 </wgt>
<wgt id='1397'> +1.5253034e-12 </wgt>
<wgt id='1398'> +1.5068703e-12 </wgt>
<wgt id='1399'> +1.4899084e-12 </wgt>
<wgt id='1400'> +1.4735945e-12 </wgt>
<wgt id='1401'> +1.4576024e-12 </wgt>
<wgt id='1402'> +1.4278640e-12 </wgt>
<wgt id='1403'> +1.4139476e-12 </wgt>
<wgt id='1404'> +1.4006197e-12 </wgt>
<wgt id='1405'> +1.4422015e-12 </wgt>
<wgt id='1406'> +1.4353145e-12 </wgt>
<wgt id='1407'> +1.4388456e-12 </wgt>
<wgt id='1408'> +1.4454106e-12 </wgt>
<wgt id='1409'> +1.4480677e-12 </wgt>
<wgt id='1410'> +1.3977144e-12 </wgt>
<wgt id='1411'> +1.3972013e-12 </wgt>
<wgt id='1412'> +1.3983176e-12 </wgt>
<wgt id='1413'> +1.4032188e-12 </wgt>
<wgt id='1414'> +1.3922095e-12 </wgt>
<wgt id='1415'> +1.4019259e-12 </wgt>
<wgt id='1416'> +1.3959970e-12 </wgt>
<wgt id='1417'> +1.3922642e-12 </wgt>
<wgt id='1418'> +1.4031015e-12 </wgt>
<wgt id='1419'> +1.4003214e-12 </wgt>
<wgt id='1420'> +1.3951848e-12 </wgt>
<wgt id='1421'> +1.3840472e-12 </wgt>
<wgt id='1422'> +1.4036143e-12 </wgt>
<wgt id='1423'> +1.3976615e-12 </wgt>
<wgt id='1424'> +1.3977359e-12 </wgt>
<wgt id='1425'> +1.3940646e-12 </wgt>
<wgt id='1426'> +1.4016024e-12 </wgt>
<wgt id='1427'> +1.3966664e-12 </wgt>
<wgt id='1428'> +1.3982170e-12 </wgt>
<wgt id='1429'> +1.3963766e-12 </wgt>
<wgt id='1430'> +1.3994779e-12 </wgt>
<wgt id='1431'> +1.3952729e-12 </wgt>
<wgt id='1432'> +1.3993992e-12 </wgt>
<wgt id='1433'> +1.4212019e-12 </wgt>
<wgt id='1434'> +1.3754433e-12 </wgt>
<wgt id='1435'> +1.4059888e-12 </wgt>
<wgt id='1436'> +1.3773602e-12 </wgt>
<wgt id='1437'> +1.4044048e-12 </wgt>
<wgt id='1438'> +1.3937689e-12 </wgt>
<wgt id='1439'> +1.3907545e-12 </wgt>
<wgt id='1440'> +1.4165241e-12 </wgt>
<wgt id='1441'> +1.3961833e-12 </wgt>
<wgt id='1442'> +1.4010768e-12 </wgt>
<wgt id='1443'> +1.3958516e-12 </wgt>
<wgt id='1444'> +1.4018003e-12 </wgt>
<wgt id='1445'> +1.4003682e-12 </wgt>
<wgt id='1446'> +1.3970068e-12 </wgt>
<wgt id='1447'> +1.3981647e-12 </wgt>
<wgt id='1448'> +1.3976994e-12 </wgt>
<wgt id='1449'> +1.3953628e-12 </wgt>
<wgt id='1450'> +1.3993874e-12 </wgt>
<wgt id='1451'> +1.3951883e-12 </wgt>
<wgt id='1452'> +1.3983678e-12 </wgt>
<wgt id='1453'> +1.3993457e-12 </wgt>
<wgt id='1454'> +1.3881350e-12 </wgt>
<wgt id='1455'> +1.3800818e-12 </wgt>
<wgt id='1456'> +1.4034902e-12 </wgt>
<wgt id='1457'> +1.4006496e-12 </wgt>
<wgt id='1458'> +1.3956802e-12 </wgt>
<wgt id='1459'> +1.3940647e-12 </wgt>
<wgt id='1460'> +1.3947135e-12 </wgt>
<wgt id='1461'> +1.3977144e-12 </wgt>
<wgt id='1462'> +1.3889844e-12 </wgt>
<wgt id='1463'> +1.4044206e-12 </wgt>
<wgt id='1464'> +1.3975379e-12 </wgt>
<wgt id='1465'> +1.4778914e-12 </wgt>
<wgt id='1466'> +1.4600147e-12 </wgt>
<wgt id='1467'> +1.4430397e-12 </wgt>
<wgt id='1468'> +1.4276554e-12 </wgt>
<wgt id='1469'> +1.4119628e-12 </wgt>
<wgt id='1470'> +1.3844290e-12 </wgt>
<wgt id='1471'> +1.3698556e-12 </wgt>
<wgt id='1472'> +1.3570640e-12 </wgt>
<wgt id='1473'> +1.3975379e-12 </wgt>
<wgt id='1474'> +1.3907646e-12 </wgt>
<wgt id='1475'> +1.3944756e-12 </wgt>
<wgt id='1476'> +1.4004818e-12 </wgt>
<wgt id='1477'> +1.4030336e-12 </wgt>
<wgt id='1478'> +1.4172290e-12 </wgt>
<wgt id='1479'> +1.4181177e-12 </wgt>
<wgt id='1480'> +1.4268700e-12 </wgt>
<wgt id='1481'> +1.3977961e-12 </wgt>
<wgt id='1482'> +1.4241064e-12 </wgt>
<wgt id='1483'> +1.4108972e-12 </wgt>
<wgt id='1484'> +1.4164388e-12 </wgt>
<wgt id='1485'> +1.4354704e-12 </wgt>
<wgt id='1486'> +1.4165094e-12 </wgt>
<wgt id='1487'> +1.4167321e-12 </wgt>
<wgt id='1488'> +1.4102645e-12 </wgt>
<wgt id='1489'> +1.4524051e-12 </wgt>
<wgt id='1490'> +1.4225014e-12 </wgt>
<wgt id='1491'> +1.4175414e-12 </wgt>
<wgt id='1492'> +1.4124702e-12 </wgt>
<wgt id='1493'> +1.4256972e-12 </wgt>
<wgt id='1494'> +1.4219670e-12 </wgt>
<wgt id='1495'> +1.4319092e-12 </wgt>
<wgt id='1496'> +1.4160303e-12 </wgt>
<wgt id='1497'> +1.4245310e-12 </wgt>
<wgt id='1498'> +1.4138815e-12 </wgt>
<wgt id='1499'> +1.4218644e-12 </wgt>
<wgt id='1500'> +1.4165192e-12 </wgt>
<wgt id='1501'> +1.4153969e-12 </wgt>
<wgt id='1502'> +1.4174039e-12 </wgt>
<wgt id='1503'> +1.4180451e-12 </wgt>
<wgt id='1504'> +1.4215184e-12 </wgt>
<wgt id='1505'> +1.4158884e-12 </wgt>
<wgt id='1506'> +1.4201672e-12 </wgt>
<wgt id='1507'> +1.4156834e-12 </wgt>
<wgt id='1508'> +1.4283112e-12 </wgt>
<wgt id='1509'> +1.3278452e-12 </wgt>
<wgt id='1510'> +1.3243612e-12 </wgt>
<wgt id='1511'> +1.3307751e-12 </wgt>
<wgt id='1512'> +1.3329224e-12 </wgt>
<wgt id='1513'> +1.3279947e-12 </wgt>
<wgt id='1514'> +1.3223029e-12 </wgt>
<wgt id='1515'> +1.3238613e-12 </wgt>
<wgt id='1516'> +1.3221232e-12 </wgt>
<wgt id='1517'> +1.3234512e-12 </wgt>
<wgt id='1518'> +1.3248520e-12 </wgt>
<wgt id='1519'> +1.3322809e-12 </wgt>
<wgt id='1520'> +1.3369994e-12 </wgt>
<wgt id='1521'> +1.3343179e-12 </wgt>
<wgt id='1522'> +1.3459459e-12 </wgt>
<wgt id='1523'> +1.3293365e-12 </wgt>
<wgt id='1524'> +1.3270702e-12 </wgt>
<wgt id='1525'> +1.3161450e-12 </wgt>
<wgt id='1526'> +1.3321333e-12 </wgt>
<wgt id='1527'> +1.3416421e-12 </wgt>
<wgt id='1528'> +1.3263162e-12 </wgt>
<wgt id='1529'> +1.3381211e-12 </wgt>
<wgt id='1530'> +1.3137422e-12 </wgt>
<wgt id='1531'> +1.3290085e-12 </wgt>
<wgt id='1532'> +1.3386292e-12 </wgt>
<wgt id='1533'> +1.3250713e-12 </wgt>
<wgt id='1534'> +1.3224890e-12 </wgt>
<wgt id='1535'> +1.3400945e-12 </wgt>
<wgt id='1536'> +1.3281998e-12 </wgt>
<wgt id='1537'> +1.3290852e-12 </wgt>
<wgt id='1538'> +1.3307961e-12 </wgt>
<wgt id='1539'> +1.3235830e-12 </wgt>
<wgt id='1540'> +1.3219346e-12 </wgt>
<wgt id='1541'> +1.3263445e-12 </wgt>
<wgt id='1542'> +1.3260032e-12 </wgt>
<wgt id='1543'> +1.3285757e-12 </wgt>
<wgt id='1544'> +1.3266056e-12 </wgt>
<wgt id='1545'> +1.3260324e-12 </wgt>
<wgt id='1546'> +1.3321707e-12 </wgt>
<wgt id='1547'> +1.3247462e-12 </wgt>
<wgt id='1548'> +1.3313557e-12 </wgt>
<wgt id='1549'> +1.3277715e-12 </wgt>
<wgt id='1550'> +1.3260089e-12 </wgt>
<wgt id='1551'> +1.3289387e-12 </wgt>
<wgt id='1552'> +1.3274877e-12 </wgt>
<wgt id='1553'> +1.3249552e-12 </wgt>
<wgt id='1554'> +1.3211130e-12 </wgt>
<wgt id='1555'> +1.3245916e-12 </wgt>
<wgt id='1556'> +1.3322624e-12 </wgt>
<wgt id='1557'> +1.3224452e-12 </wgt>
<wgt id='1558'> +1.3319556e-12 </wgt>
<wgt id='1559'> +1.3252893e-12 </wgt>
<wgt id='1560'> +1.3245419e-12 </wgt>
<wgt id='1561'> +1.3316073e-12 </wgt>
<wgt id='1562'> +1.3276212e-12 </wgt>
<wgt id='1563'> +1.3278168e-12 </wgt>
<wgt id='1564'> +1.3289028e-12 </wgt>
<wgt id='1565'> +1.3292197e-12 </wgt>
<wgt id='1566'> +1.3238107e-12 </wgt>
<wgt id='1567'> +1.3226393e-12 </wgt>
<wgt id='1568'> +1.3294929e-12 </wgt>
<wgt id='1569'> +1.3265310e-12 </wgt>
<wgt id='1570'> +1.3325197e-12 </wgt>
<wgt id='1571'> +1.3267031e-12 </wgt>
<wgt id='1572'> +1.3309712e-12 </wgt>
<wgt id='1573'> +1.3299191e-12 </wgt>
<wgt id='1574'> +1.3254591e-12 </wgt>
<wgt id='1575'> +1.3276828e-12 </wgt>
<wgt id='1576'> +1.3302196e-12 </wgt>
<wgt id='1577'> +1.3258426e-12 </wgt>
<wgt id='1578'> +1.3258109e-12 </wgt>
<wgt id='1579'> +1.3294793e-12 </wgt>
<wgt id='1580'> +1.3330248e-12 </wgt>
<wgt id='1581'> +1.3253121e-12 </wgt>
<wgt id='1582'> +1.3253643e-12 </wgt>
<wgt id='1583'> +1.3287617e-12 </wgt>
<wgt id='1584'> +1.3286718e-12 </wgt>
<wgt id='1585'> +1.3277707e-12 </wgt>
<wgt id='1586'> +1.3314795e-12 </wgt>
<wgt id='1587'> +1.3262684e-12 </wgt>
<wgt id='1588'> +1.3262734e-12 </wgt>
<wgt id='1589'> +1.3272005e-12 </wgt>
<wgt id='1590'> +1.3270185e-12 </wgt>
<wgt id='1591'> +1.3271612e-12 </wgt>
<wgt id='1592'> +1.3283865e-12 </wgt>
<wgt id='1593'> +1.3295084e-12 </wgt>
<wgt id='1594'> +1.3286504e-12 </wgt>
<wgt id='1595'> +1.3257675e-12 </wgt>
<wgt id='1596'> +1.3266067e-12 </wgt>
<wgt id='1597'> +1.3275833e-12 </wgt>
<wgt id='1598'> +1.3285366e-12 </wgt>
<wgt id='1599'> +1.3284846e-12 </wgt>
<wgt id='1600'> +1.3244725e-12 </wgt>
<wgt id='1601'> +1.3286950e-12 </wgt>
<wgt id='1602'> +1.3271368e-12 </wgt>
<wgt id='1603'> +1.3294643e-12 </wgt>
<wgt id='1604'> +1.3278235e-12 </wgt>
<wgt id='1605'> +1.3291655e-12 </wgt>
<wgt id='1606'> +1.3259480e-12 </wgt>
<wgt id='1607'> +1.3272471e-12 </wgt>
<wgt id='1608'> +1.3275818e-12 </wgt>
<wgt id='1609'> +1.3293013e-12 </wgt>
<wgt id='1610'> +1.2832096e-12 </wgt>
<wgt id='1611'> +1.3661672e-12 </wgt>
<wgt id='1612'> +1.4672293e-12 </wgt>
<wgt id='1613'> +1.5420813e-12 </wgt>
<wgt id='1614'> +1.4877823e-12 </wgt>
<wgt id='1615'> +1.4512590e-12 </wgt>
<wgt id='1616'> +1.5219022e-12 </wgt>
<wgt id='1617'> +1.3641165e-12 </wgt>
<wgt id='1618'> +1.2720099e-12 </wgt>
<wgt id='1619'> +1.5080153e-12 </wgt>
<wgt id='1620'> +1.5271776e-12 </wgt>
<wgt id='1621'> +1.4361832e-12 </wgt>
<wgt id='1622'> +1.4570769e-12 </wgt>
<wgt id='1623'> +1.5350779e-12 </wgt>
<wgt id='1624'> +1.4503871e-12 </wgt>
<wgt id='1625'> +1.5003045e-12 </wgt>
<wgt id='1626'> +1.5527681e-12 </wgt>
<wgt id='1627'> +1.4718775e-12 </wgt>
<wgt id='1628'> +1.5173840e-12 </wgt>
<wgt id='1629'> +1.5207140e-12 </wgt>
<wgt id='1630'> +1.5066550e-12 </wgt>
<wgt id='1631'> +1.4337152e-12 </wgt>
<wgt id='1632'> +1.5590953e-12 </wgt>
<wgt id='1633'> +1.4803673e-12 </wgt>
<wgt id='1634'> +1.4928087e-12 </wgt>
<wgt id='1635'> +1.4619890e-12 </wgt>
<wgt id='1636'> +1.4216204e-12 </wgt>
<wgt id='1637'> +1.3985904e-12 </wgt>
<wgt id='1638'> +1.4916143e-12 </wgt>
<wgt id='1639'> +1.5529352e-12 </wgt>
<wgt id='1640'> +1.5523370e-12 </wgt>
<wgt id='1641'> +1.4834465e-12 </wgt>
<wgt id='1642'> +1.4871489e-12 </wgt>
<wgt id='1643'> +1.5390228e-12 </wgt>
<wgt id='1644'> +1.3937643e-12 </wgt>
<wgt id='1645'> +1.4874228e-12 </wgt>
<wgt id='1646'> +1.5499897e-12 </wgt>
<wgt id='1647'> +1.5402426e-12 </wgt>
<wgt id='1648'> +1.4247199e-12 </wgt>
<wgt id='1649'> +1.2731657e-12 </wgt>
<wgt id='1650'> +1.5352627e-12 </wgt>
<wgt id='1651'> +1.4936499e-12 </wgt>
<wgt id='1652'> +1.5696274e-12 </wgt>
<wgt id='1653'> +1.3716893e-12 </wgt>
<wgt id='1654'> +1.3849596e-12 </wgt>
<wgt id='1655'> +1.4050317e-12 </wgt>
<wgt id='1656'> +1.4806427e-12 </wgt>
<wgt id='1657'> +1.4543582e-12 </wgt>
<wgt id='1658'> +1.4885205e-12 </wgt>
<wgt id='1659'> +1.4503871e-12 </wgt>
<wgt id='1660'> +1.3764246e-12 </wgt>
<wgt id='1661'> +1.4200244e-12 </wgt>
<wgt id='1662'> +1.4612432e-12 </wgt>
<wgt id='1663'> +1.4799986e-12 </wgt>
<wgt id='1664'> +1.5329487e-12 </wgt>
<wgt id='1665'> +1.5425632e-12 </wgt>
<wgt id='1666'> +1.4643179e-12 </wgt>
<wgt id='1667'> +1.4522800e-12 </wgt>
<wgt id='1668'> +1.4636690e-12 </wgt>
<wgt id='1669'> +1.4319156e-12 </wgt>
<wgt id='1670'> +1.4884415e-12 </wgt>
<wgt id='1671'> +1.4995696e-12 </wgt>
<wgt id='1672'> +1.4272958e-12 </wgt>
<wgt id='1673'> +1.4208612e-12 </wgt>
<wgt id='1674'> +1.4995263e-12 </wgt>
<wgt id='1675'> +1.4829980e-12 </wgt>
<wgt id='1676'> +1.4392498e-12 </wgt>
<wgt id='1677'> +1.4477258e-12 </wgt>
<wgt id='1678'> +1.5032225e-12 </wgt>
<wgt id='1679'> +1.5068176e-12 </wgt>
<wgt id='1680'> +1.4369601e-12 </wgt>
<wgt id='1681'> +1.5025061e-12 </wgt>
<wgt id='1682'> +1.4527829e-12 </wgt>
<wgt id='1683'> +1.4527702e-12 </wgt>
<wgt id='1684'> +1.4545481e-12 </wgt>
<wgt id='1685'> +1.4636236e-12 </wgt>
<wgt id='1686'> +1.4898656e-12 </wgt>
<wgt id='1687'> +1.5109562e-12 </wgt>
<wgt id='1688'> +1.4912581e-12 </wgt>
<wgt id='1689'> +1.4292665e-12 </wgt>
<wgt id='1690'> +1.4372307e-12 </wgt>
<wgt id='1691'> +1.4641567e-12 </wgt>
<wgt id='1692'> +1.4549174e-12 </wgt>
<wgt id='1693'> +1.5369893e-12 </wgt>
<wgt id='1694'> +1.3653493e-12 </wgt>
<wgt id='1695'> +1.4606137e-12 </wgt>
<wgt id='1696'> +1.5244269e-12 </wgt>
<wgt id='1697'> +1.3813251e-12 </wgt>
<wgt id='1698'> +1.4588817e-12 </wgt>
<wgt id='1699'> +1.4109711e-12 </wgt>
<wgt id='1700'> +1.4701107e-12 </wgt>
<wgt id='1701'> +1.4616531e-12 </wgt>
<wgt id='1702'> +1.4042736e-12 </wgt>
<wgt id='1703'> +1.4745173e-12 </wgt>
<wgt id='1704'> +1.4301172e-12 </wgt>
<wgt id='1705'> +1.5648777e-12 </wgt>
<wgt id='1706'> +1.3594115e-12 </wgt>
<wgt id='1707'> +1.4776493e-12 </wgt>
<wgt id='1708'> +1.4015494e-12 </wgt>
<wgt id='1709'> +1.4733662e-12 </wgt>
<wgt id='1710'> +1.4836337e-12 </wgt>
<wgt id='1711'> +1.4927664e-12 </wgt>
<wgt id='1712'> +1.4494088e-12 </wgt>
<wgt id='1713'> +1.4488247e-12 </wgt>
<wgt id='1714'> +1.4285025e-12 </wgt>
<wgt id='1715'> +1.4422332e-12 </wgt>
<wgt id='1716'> +1.4195953e-12 </wgt>
<wgt id='1717'> +1.4371129e-12 </wgt>
<wgt id='1718'> +1.3868684e-12 </wgt>
<wgt id='1719'> +1.4656479e-12 </wgt>
<wgt id='1720'> +1.4684766e-12 </wgt>
<wgt id='1721'> +1.4448623e-12 </wgt>
<wgt id='1722'> +1.4385214e-12 </wgt>
<wgt id='1723'> +1.3648743e-12 </wgt>
<wgt id='1724'> +1.3722135e-12 </wgt>
<wgt id='1725'> +1.4859965e-12 </wgt>
<wgt id='1726'> +1.4798342e-12 </wgt>
<wgt id='1727'> +1.3647417e-12 </wgt>
<wgt id='1728'> +1.4450481e-12 </wgt>
<wgt id='1729'> +1.4825590e-12 </wgt>
<wgt id='1730'> +1.4167961e-12 </wgt>
<wgt id='1731'> +1.4450660e-12 </wgt>
<wgt id='1732'> +1.4852801e-12 </wgt>
<wgt id='1733'> +1.4861970e-12 </wgt>
<wgt id='1734'> +1.4506724e-12 </wgt>
<wgt id='1735'> +1.4248324e-12 </wgt>
<wgt id='1736'> +1.5745899e-12 </wgt>
<wgt id='1737'> +1.4314488e-12 </wgt>
<wgt id='1738'> +1.4754069e-12 </wgt>
<wgt id='1739'> +1.4254122e-12 </wgt>
<wgt id='1740'> +1.4239588e-12 </wgt>
<wgt id='1741'> +1.4381198e-12 </wgt>
<wgt id='1742'> +1.4255371e-12 </wgt>
<wgt id='1743'> +1.4848075e-12 </wgt>
<wgt id='1744'> +1.4350710e-12 </wgt>
<wgt id='1745'> +1.3730214e-12 </wgt>
<wgt id='1746'> +1.4846576e-12 </wgt>
<wgt id='1747'> +1.4566231e-12 </wgt>
<wgt id='1748'> +1.4361435e-12 </wgt>
<wgt id='1749'> +1.5237946e-12 </wgt>
<wgt id='1750'> +1.4714580e-12 </wgt>
<wgt id='1751'> +1.4501931e-12 </wgt>
<wgt id='1752'> +1.4057285e-12 </wgt>
<wgt id='1753'> +1.4762516e-12 </wgt>
<wgt id='1754'> +1.4579999e-12 </wgt>
<wgt id='1755'> +1.4683890e-12 </wgt>
<wgt id='1756'> +1.4667383e-12 </wgt>
<wgt id='1757'> +1.4293548e-12 </wgt>
<wgt id='1758'> +1.4635296e-12 </wgt>
<wgt id='1759'> +1.4654639e-12 </wgt>
<wgt id='1760'> +1.4285079e-12 </wgt>
<wgt id='1761'> +1.4260689e-12 </wgt>
<wgt id='1762'> +1.4631849e-12 </wgt>
<wgt id='1763'> +1.4537997e-12 </wgt>
<wgt id='1764'> +1.4518806e-12 </wgt>
<wgt id='1765'> +1.4338335e-12 </wgt>
<wgt id='1766'> +1.4783756e-12 </wgt>
<wgt id='1767'> +1.4492375e-12 </wgt>
<wgt id='1768'> +1.4536434e-12 </wgt>
<wgt id='1769'> +1.4027915e-12 </wgt>
<wgt id='1770'> +1.5411918e-12 </wgt>
<wgt id='1771'> +1.4307765e-12 </wgt>
<wgt id='1772'> +1.4624381e-12 </wgt>
<wgt id='1773'> +1.4510090e-12 </wgt>
<wgt id='1774'> +1.4813560e-12 </wgt>
<wgt id='1775'> +1.4484145e-12 </wgt>
<wgt id='1776'> +1.4821128e-12 </wgt>
<wgt id='1777'> +1.4152216e-12 </wgt>
<wgt id='1778'> +1.4441969e-12 </wgt>
<wgt id='1779'> +1.4455872e-12 </wgt>
<wgt id='1780'> +1.5210199e-12 </wgt>
<wgt id='1781'> +1.4197704e-12 </wgt>
<wgt id='1782'> +1.3908502e-12 </wgt>
<wgt id='1783'> +1.4534604e-12 </wgt>
<wgt id='1784'> +1.4987035e-12 </wgt>
<wgt id='1785'> +1.4339608e-12 </wgt>
<wgt id='1786'> +1.3328127e-12 </wgt>
<wgt id='1787'> +1.4477007e-12 </wgt>
<wgt id='1788'> +1.4390207e-12 </wgt>
<wgt id='1789'> +1.3888063e-12 </wgt>
<wgt id='1790'> +1.4527257e-12 </wgt>
<wgt id='1791'> +1.5105140e-12 </wgt>
<wgt id='1792'> +1.4492288e-12 </wgt>
<wgt id='1793'> +1.4580709e-12 </wgt>
<wgt id='1794'> +1.4355139e-12 </wgt>
<wgt id='1795'> +1.4244315e-12 </wgt>
<wgt id='1796'> +1.4765772e-12 </wgt>
<wgt id='1797'> +1.4621792e-12 </wgt>
<wgt id='1798'> +1.3957692e-12 </wgt>
<wgt id='1799'> +1.4389995e-12 </wgt>
<wgt id='1800'> +1.4184130e-12 </wgt>
<wgt id='1801'> +1.4492072e-12 </wgt>
<wgt id='1802'> +1.5056090e-12 </wgt>
<wgt id='1803'> +1.4278567e-12 </wgt>
<wgt id='1804'> +1.4170143e-12 </wgt>
<wgt id='1805'> +1.5013754e-12 </wgt>
<wgt id='1806'> +1.4434941e-12 </wgt>
<wgt id='1807'> +1.4748078e-12 </wgt>
<wgt id='1808'> +1.4167166e-12 </wgt>
<wgt id='1809'> +1.4666764e-12 </wgt>
<wgt id='1810'> +1.4656385e-12 </wgt>
<wgt id='1811'> +1.5162565e-12 </wgt>
<wgt id='1812'> +1.5137413e-12 </wgt>
<wgt id='1813'> +1.4366874e-12 </wgt>
<wgt id='1814'> +1.2539320e-12 </wgt>
<wgt id='1815'> +1.3872593e-12 </wgt>
<wgt id='1816'> +1.4488247e-12 </wgt>
<wgt id='1817'> +1.4285025e-12 </wgt>
<wgt id='1818'> +1.4422332e-12 </wgt>
<wgt id='1819'> +1.4195953e-12 </wgt>
<wgt id='1820'> +1.4371129e-12 </wgt>
<wgt id='1821'> +1.3868684e-12 </wgt>
<wgt id='1822'> +1.4656479e-12 </wgt>
<wgt id='1823'> +1.4684766e-12 </wgt>
<wgt id='1824'> +1.4448623e-12 </wgt>
<wgt id='1825'> +1.4385214e-12 </wgt>
<wgt id='1826'> +1.3648743e-12 </wgt>
<wgt id='1827'> +1.3722135e-12 </wgt>
<wgt id='1828'> +1.4859965e-12 </wgt>
<wgt id='1829'> +1.4798342e-12 </wgt>
<wgt id='1830'> +1.3647417e-12 </wgt>
<wgt id='1831'> +1.4450481e-12 </wgt>
<wgt id='1832'> +1.4825590e-12 </wgt>
<wgt id='1833'> +1.4167961e-12 </wgt>
<wgt id='1834'> +1.4450660e-12 </wgt>
<wgt id='1835'> +1.4852801e-12 </wgt>
<wgt id='1836'> +1.4861970e-12 </wgt>
<wgt id='1837'> +1.4506724e-12 </wgt>
<wgt id='1838'> +1.4248324e-12 </wgt>
<wgt id='1839'> +1.5745899e-12 </wgt>
<wgt id='1840'> +1.4314488e-12 </wgt>
<wgt id='1841'> +1.4754069e-12 </wgt>
<wgt id='1842'> +1.4254122e-12 </wgt>
<wgt id='1843'> +1.4239588e-12 </wgt>
<wgt id='1844'> +1.4381198e-12 </wgt>
<wgt id='1845'> +1.4255371e-12 </wgt>
<wgt id='1846'> +1.4848075e-12 </wgt>
<wgt id='1847'> +1.4350710e-12 </wgt>
<wgt id='1848'> +1.3730214e-12 </wgt>
<wgt id='1849'> +1.4846576e-12 </wgt>
<wgt id='1850'> +1.4566231e-12 </wgt>
<wgt id='1851'> +1.4361435e-12 </wgt>
<wgt id='1852'> +1.5237946e-12 </wgt>
<wgt id='1853'> +1.4714580e-12 </wgt>
<wgt id='1854'> +1.4501931e-12 </wgt>
<wgt id='1855'> +1.4057285e-12 </wgt>
<wgt id='1856'> +1.4762516e-12 </wgt>
<wgt id='1857'> +1.4579999e-12 </wgt>
<wgt id='1858'> +1.4683890e-12 </wgt>
<wgt id='1859'> +1.4667383e-12 </wgt>
<wgt id='1860'> +1.4293548e-12 </wgt>
<wgt id='1861'> +1.4635296e-12 </wgt>
<wgt id='1862'> +1.4654639e-12 </wgt>
<wgt id='1863'> +1.4285079e-12 </wgt>
<wgt id='1864'> +1.4260689e-12 </wgt>
<wgt id='1865'> +1.4631849e-12 </wgt>
<wgt id='1866'> +1.4537997e-12 </wgt>
<wgt id='1867'> +1.4518806e-12 </wgt>
<wgt id='1868'> +1.4338335e-12 </wgt>
<wgt id='1869'> +1.4783756e-12 </wgt>
<wgt id='1870'> +1.4492375e-12 </wgt>
<wgt id='1871'> +1.4536434e-12 </wgt>
<wgt id='1872'> +1.4027915e-12 </wgt>
<wgt id='1873'> +1.5411918e-12 </wgt>
<wgt id='1874'> +1.4307765e-12 </wgt>
<wgt id='1875'> +1.4624381e-12 </wgt>
<wgt id='1876'> +1.4510090e-12 </wgt>
<wgt id='1877'> +1.4813560e-12 </wgt>
<wgt id='1878'> +1.4484145e-12 </wgt>
<wgt id='1879'> +1.4821128e-12 </wgt>
<wgt id='1880'> +1.4152216e-12 </wgt>
<wgt id='1881'> +1.4441969e-12 </wgt>
<wgt id='1882'> +1.4455872e-12 </wgt>
<wgt id='1883'> +1.5210199e-12 </wgt>
<wgt id='1884'> +1.4197704e-12 </wgt>
<wgt id='1885'> +1.3908502e-12 </wgt>
<wgt id='1886'> +1.4534604e-12 </wgt>
<wgt id='1887'> +1.4987035e-12 </wgt>
<wgt id='1888'> +1.4339608e-12 </wgt>
<wgt id='1889'> +1.3328127e-12 </wgt>
<wgt id='1890'> +1.4477007e-12 </wgt>
<wgt id='1891'> +1.4390207e-12 </wgt>
<wgt id='1892'> +1.3888063e-12 </wgt>
<wgt id='1893'> +1.4527257e-12 </wgt>
<wgt id='1894'> +1.5105140e-12 </wgt>
<wgt id='1895'> +1.4492288e-12 </wgt>
<wgt id='1896'> +1.4580709e-12 </wgt>
<wgt id='1897'> +1.4355139e-12 </wgt>
<wgt id='1898'> +1.4244315e-12 </wgt>
<wgt id='1899'> +1.4765772e-12 </wgt>
<wgt id='1900'> +1.4621792e-12 </wgt>
<wgt id='1901'> +1.3957692e-12 </wgt>
<wgt id='1902'> +1.4389995e-12 </wgt>
<wgt id='1903'> +1.4184130e-12 </wgt>
<wgt id='1904'> +1.4492072e-12 </wgt>
<wgt id='1905'> +1.5056090e-12 </wgt>
<wgt id='1906'> +1.4278567e-12 </wgt>
<wgt id='1907'> +1.4170143e-12 </wgt>
<wgt id='1908'> +1.5013754e-12 </wgt>
<wgt id='1909'> +1.4434941e-12 </wgt>
<wgt id='1910'> +1.4748078e-12 </wgt>
<wgt id='1911'> +1.4167166e-12 </wgt>
<wgt id='1912'> +1.4666764e-12 </wgt>
<wgt id='1913'> +1.4656385e-12 </wgt>
<wgt id='1914'> +1.5162565e-12 </wgt>
<wgt id='1915'> +1.5137413e-12 </wgt>
<wgt id='1916'> +1.4366874e-12 </wgt>
<wgt id='1917'> +1.4312520e-12 </wgt>
<wgt id='1918'> +1.4619193e-12 </wgt>
<wgt id='1919'> +1.4554821e-12 </wgt>
</rwgt>
</event>
<event>
 9      1 +1.5538000e-12 5.42826700e+01 7.81860800e-03 1.29172300e-01
       21 -1    0    0  501  502 +0.0000000000e+00 +0.0000000000e+00 +6.6097922312e+01 6.6097922312e+01 0.0000000000e+00 0.0000e+00 -1.0000e+00
       -2 -1    0    0    0  501 -0.0000000000e+00 -0.0000000000e+00 -1.1144860228e+01 1.1144860228e+01 0.0000000000e+00 0.0000e+00 -1.0000e+00
     1023  2    1    2    0    0 +1.6774811141e+01 +1.8038295823e+01 +3.6199559318e+01 4.6283643808e+01 1.4999772809e+01 0.0000e+00 0.0000e+00
  1000023  2    3    3    0    0 +1.2651057349e+01 +6.3746181599e+00 +2.2575211651e+01 2.7213521331e+01 5.5000503069e+00 0.0000e+00 0.0000e+00
       -2  1    1    2    0  502 -1.6774811141e+01 -1.8038295823e+01 +1.8753502765e+01 3.0959138731e+01 0.0000000000e+00 0.0000e+00 -1.0000e+00
  1000022  1    4    4    0    0 +1.0900474547e+01 +5.5275271101e+00 +1.9827143453e+01 2.3822038511e+01 5.0000000000e+00 0.0000e+00 -1.0000e+00
      -11  1    4    4    0    0 +6.7689564773e-01 +1.1418849376e-01 +1.0035240630e+00 1.2158484841e+00 5.1100000000e-04 0.0000e+00 -1.0000e+00
       11  1    4    4    0    0 +1.0736871546e+00 +7.3290255605e-01 +1.7445441352e+00 2.1756343359e+00 5.1100000000e-04 0.0000e+00 1.0000e+00
  1000022  1    3    3    0    0 +4.1237537916e+00 +1.1663677663e+01 +1.3624347667e+01 1.9070122478e+01 5.0000000000e+00 0.0000e+00 -1.0000e+00
<mgrwt>
<rscale>  1 0.54282671E+02</rscale>
<asrwt>0</asrwt>
<pdfrwt beam="1">  1       21 0.10168911E-01 0.54282671E+02</pdfrwt>
<pdfrwt beam="2">  1       -2 0.17145939E-02 0.54282671E+02</pdfrwt>
<totfact> 0.60681219E+06</totfact>
</mgrwt>
<rwgt>
<wgt id='1001'> +1.5538000e-12 </wgt>
<wgt id='1002'> +1.5516374e-12 </wgt>
<wgt id='1003'> +1.5528006e-12 </wgt>
<wgt id='1004'> +1.4993033e-12 </wgt>
<wgt id='1005'> +1.5538000e-12 </wgt>
<wgt id='1006'> +1.3794810e-12 </wgt>
<wgt id='1007'> +1.3762307e-12 </wgt>
<wgt id='1008'> +1.3779704e-12 </wgt>
<wgt id='1009'> +1.3074511e-12 </wgt>
<wgt id='1010'> +1.3794810e-12 </wgt>
<wgt id='1011'> +1.7807288e-12 </wgt>
<wgt id='1012'> +1.7805437e-12 </wgt>
<wgt id='1013'> +1.7806548e-12 </wgt>
<wgt id='1014'> +1.7605254e-12 </wgt>
<wgt id='1015'> +1.7807288e-12 </wgt>
<wgt id='1016'> +1.7703339e-12 </wgt>
<wgt id='1017'> +1.7716225e-12 </wgt>
<wgt id='1018'> +1.7709481e-12 </wgt>
<wgt id='1019'> +1.7806548e-12 </wgt>
<wgt id='1020'> +1.7703339e-12 </wgt>
<wgt id='1021'> +1.5717222e-12 </wgt>
<wgt id='1022'> +1.5713473e-12 </wgt>
<wgt id='1023'> +1.5715567e-12 </wgt>
<wgt id='1024'> +1.5528006e-12 </wgt>
<wgt id='1025'> +1.5717222e-12 </wgt>
<wgt id='1026'> +2.0288869e-12 </wgt>
<wgt id='1027'> +2.0329822e-12 </wgt>
<wgt id='1028'> +2.0308128e-12 </wgt>
<wgt id='1029'> +2.0908965e-12 </wgt>
<wgt id='1030'> +2.0288869e-12 </wgt>
<wgt id='1031'> +1.3102155e-12 </wgt>
<wgt id='1032'> +1.3042963e-12 </wgt>
<wgt id='1033'> +1.3074511e-12 </wgt>
<wgt id='1034'> +1.1869647e-12 </wgt>
<wgt id='1035'> +1.3102155e-12 </wgt>
<wgt id='1036'> +1.1632240e-12 </wgt>
<wgt id='1037'> +1.1568505e-12 </wgt>
<wgt id='1038'> +1.1602449e-12 </wgt>
<wgt id='1039'> +1.0350796e-12 </wgt>
<wgt id='1040'> +1.1632240e-12 </wgt>
<wgt id='1041'> +1.5015694e-12 </wgt>
<wgt id='1042'> +1.4967134e-12 </wgt>
<wgt id='1043'> +1.4993033e-12 </wgt>
<wgt id='1044'> +1.3937683e-12 </wgt>
<wgt id='1045'> +1.5015694e-12 </wgt>
<wgt id='1046'> +1.5538000e-12 </wgt>
<wgt id='1047'> +1.5638939e-12 </wgt>
<wgt id='1048'> +1.5314593e-12 </wgt>
<wgt id='1049'> +1.5402792e-12 </wgt>
<wgt id='1050'> +1.5429121e-12 </wgt>
<wgt id='1051'> +1.5443637e-12 </wgt>
<wgt id='1052'> +1.5604978e-12 </wgt>
<wgt id='1053'> +1.5358675e-12 </wgt>
<wgt id='1054'> +1.5423326e-12 </wgt>
<wgt id='1055'> +1.5388370e-12 </wgt>
<wgt id='1056'> +1.5579460e-12 </wgt>
<wgt id='1057'> +1.5887276e-12 </wgt>
<wgt id='1058'> +1.5072733e-12 </wgt>
<wgt id='1059'> +1.5532475e-12 </wgt>
<wgt id='1060'> +1.5520954e-12 </wgt>
<wgt id='1061'> +1.5791034e-12 </wgt>
<wgt id='1062'> +1.5710722e-12 </wgt>
<wgt id='1063'> +1.5914069e-12 </wgt>
<wgt id='1064'> +1.5373036e-12 </wgt>
<wgt id='1065'> +1.5609492e-12 </wgt>
<wgt id='1066'> +1.5524126e-12 </wgt>
<wgt id='1067'> +1.4985593e-12 </wgt>
<wgt id='1068'> +1.5543833e-12 </wgt>
<wgt id='1069'> +1.5443541e-12 </wgt>
<wgt id='1070'> +1.5383634e-12 </wgt>
<wgt id='1071'> +1.5320807e-12 </wgt>
<wgt id='1072'> +1.5947429e-12 </wgt>
<wgt id='1073'> +1.6043436e-12 </wgt>
<wgt id='1074'> +1.5260848e-12 </wgt>
<wgt id='1075'> +1.5805165e-12 </wgt>
<wgt id='1076'> +1.5819335e-12 </wgt>
<wgt id='1077'> +1.5533040e-12 </wgt>
<wgt id='1078'> +1.5342375e-12 </wgt>
<wgt id='1079'> +1.5472480e-12 </wgt>
<wgt id='1080'> +1.5363135e-12 </wgt>
<wgt id='1081'> +1.5938549e-12 </wgt>
<wgt id='1082'> +1.5506423e-12 </wgt>
<wgt id='1083'> +1.5568297e-12 </wgt>
<wgt id='1084'> +1.5615149e-12 </wgt>
<wgt id='1085'> +1.5280224e-12 </wgt>
<wgt id='1086'> +1.5666468e-12 </wgt>
<wgt id='1087'> +1.5843062e-12 </wgt>
<wgt id='1088'> +1.5324736e-12 </wgt>
<wgt id='1089'> +1.5604252e-12 </wgt>
<wgt id='1090'> +1.5367263e-12 </wgt>
<wgt id='1091'> +1.5443328e-12 </wgt>
<wgt id='1092'> +1.5783300e-12 </wgt>
<wgt id='1093'> +1.5408292e-12 </wgt>
<wgt id='1094'> +1.5666445e-12 </wgt>
<wgt id='1095'> +1.5721782e-12 </wgt>
<wgt id='1096'> +1.5761352e-12 </wgt>
<wgt id='1097'> +1.5191738e-12 </wgt>
<wgt id='1098'> +1.5244018e-12 </wgt>
<wgt id='1099'> +1.5830652e-12 </wgt>
<wgt id='1100'> +1.5285016e-12 </wgt>
<wgt id='1101'> +1.5765435e-12 </wgt>
<wgt id='1102'> +1.5339333e-12 </wgt>
<wgt id='1103'> +1.5546196e-12 </wgt>
<wgt id='1104'> +1.5359044e-12 </wgt>
<wgt id='1105'> +1.5990936e-12 </wgt>
<wgt id='1106'> +1.5643467e-12 </wgt>
<wgt id='1107'> +1.5462713e-12 </wgt>
<wgt id='1108'> +1.5420926e-12 </wgt>
<wgt id='1109'> +1.5603619e-12 </wgt>
<wgt id='1110'> +1.5554003e-12 </wgt>
<wgt id='1111'> +1.5596746e-12 </wgt>
<wgt id='1112'> +1.5693495e-12 </wgt>
<wgt id='1113'> +1.5263052e-12 </wgt>
<wgt id='1114'> +1.5749618e-12 </wgt>
<wgt id='1115'> +1.5467184e-12 </wgt>
<wgt id='1116'> +1.5162941e-12 </wgt>
<wgt id='1117'> +1.5670701e-12 </wgt>
<wgt id='1118'> +1.5731838e-12 </wgt>
<wgt id='1119'> +1.5301771e-12 </wgt>
<wgt id='1120'> +1.5673360e-12 </wgt>
<wgt id='1121'> +1.5608353e-12 </wgt>
<wgt id='1122'> +1.6148912e-12 </wgt>
<wgt id='1123'> +1.5254837e-12 </wgt>
<wgt id='1124'> +1.5553032e-12 </wgt>
<wgt id='1125'> +1.5671470e-12 </wgt>
<wgt id='1126'> +1.5593204e-12 </wgt>
<wgt id='1127'> +1.5234508e-12 </wgt>
<wgt id='1128'> +1.5710722e-12 </wgt>
<wgt id='1129'> +1.5543645e-12 </wgt>
<wgt id='1130'> +1.5563236e-12 </wgt>
<wgt id='1131'> +1.5551547e-12 </wgt>
<wgt id='1132'> +1.5271645e-12 </wgt>
<wgt id='1133'> +1.5535179e-12 </wgt>
<wgt id='1134'> +1.5698527e-12 </wgt>
<wgt id='1135'> +1.5752581e-12 </wgt>
<wgt id='1136'> +1.5147070e-12 </wgt>
<wgt id='1137'> +1.5361229e-12 </wgt>
<wgt id='1138'> +1.5749472e-12 </wgt>
<wgt id='1139'> +1.5668920e-12 </wgt>
<wgt id='1140'> +1.5427870e-12 </wgt>
<wgt id='1141'> +1.5069786e-12 </wgt>
<wgt id='1142'> +1.5446988e-12 </wgt>
<wgt id='1143'> +1.5573291e-12 </wgt>
<wgt id='1144'> +1.5604034e-12 </wgt>
<wgt id='1145'> +1.5718865e-12 </wgt>
<wgt id='1146'> +1.5504911e-12 </wgt>
<wgt id='1147'> +1.2028257e-12 </wgt>
<wgt id='1148'> +1.2314831e-12 </wgt>
<wgt id='1149'> +1.2934832e-12 </wgt>
<wgt id='1150'> +1.2330967e-12 </wgt>
<wgt id='1151'> +1.1420019e-12 </wgt>
<wgt id='1152'> +1.4700377e-12 </wgt>
<wgt id='1153'> +1.4629596e-12 </wgt>
<wgt id='1154'> +1.4741382e-12 </wgt>
<wgt id='1155'> +1.4698055e-12 </wgt>
<wgt id='1156'> +1.4702357e-12 </wgt>
<wgt id='1157'> +1.4723957e-12 </wgt>
<wgt id='1158'> +1.4668405e-12 </wgt>
<wgt id='1159'> +1.4719681e-12 </wgt>
<wgt id='1160'> +1.4687574e-12 </wgt>
<wgt id='1161'> +1.4660057e-12 </wgt>
<wgt id='1162'> +1.4727587e-12 </wgt>
<wgt id='1163'> +1.4739244e-12 </wgt>
<wgt id='1164'> +1.4662201e-12 </wgt>
<wgt id='1165'> +1.4607470e-12 </wgt>
<wgt id='1166'> +1.4789947e-12 </wgt>
<wgt id='1167'> +1.4787038e-12 </wgt>
<wgt id='1168'> +1.4580242e-12 </wgt>
<wgt id='1169'> +1.4723690e-12 </wgt>
<wgt id='1170'> +1.4682394e-12 </wgt>
<wgt id='1171'> +1.4678343e-12 </wgt>
<wgt id='1172'> +1.4725924e-12 </wgt>
<wgt id='1173'> +1.4625601e-12 </wgt>
<wgt id='1174'> +1.4767589e-12 </wgt>
<wgt id='1175'> +1.4688127e-12 </wgt>
<wgt id='1176'> +1.4702323e-12 </wgt>
<wgt id='1177'> +1.4702891e-12 </wgt>
<wgt id='1178'> +1.4695337e-12 </wgt>
<wgt id='1179'> +1.4815761e-12 </wgt>
<wgt id='1180'> +1.4536551e-12 </wgt>
<wgt id='1181'> +1.4645068e-12 </wgt>
<wgt id='1182'> +1.4751704e-12 </wgt>
<wgt id='1183'> +1.4687336e-12 </wgt>
<wgt id='1184'> +1.4701131e-12 </wgt>
<wgt id='1185'> +1.4637049e-12 </wgt>
<wgt id='1186'> +1.4732434e-12 </wgt>
<wgt id='1187'> +1.4689790e-12 </wgt>
<wgt id='1188'> +1.4704150e-12 </wgt>
<wgt id='1189'> +1.4658136e-12 </wgt>
<wgt id='1190'> +1.4573653e-12 </wgt>
<wgt id='1191'> +1.4657216e-12 </wgt>
<wgt id='1192'> +1.4719466e-12 </wgt>
<wgt id='1193'> +1.2572249e-12 </wgt>
<wgt id='1194'> +1.2548884e-12 </wgt>
<wgt id='1195'> +1.2590600e-12 </wgt>
<wgt id='1196'> +1.2624624e-12 </wgt>
<wgt id='1197'> +1.2514534e-12 </wgt>
<wgt id='1198'> +1.2578611e-12 </wgt>
<wgt id='1199'> +1.2563129e-12 </wgt>
<wgt id='1200'> +1.2590854e-12 </wgt>
<wgt id='1201'> +1.2560189e-12 </wgt>
<wgt id='1202'> +1.2551340e-12 </wgt>
<wgt id='1203'> +1.2601753e-12 </wgt>
<wgt id='1204'> +1.2448868e-12 </wgt>
<wgt id='1205'> +1.2649028e-12 </wgt>
<wgt id='1206'> +1.2619957e-12 </wgt>
<wgt id='1207'> +1.2507022e-12 </wgt>
<wgt id='1208'> +1.2501274e-12 </wgt>
<wgt id='1209'> +1.2598977e-12 </wgt>
<wgt id='1210'> +1.2580814e-12 </wgt>
<wgt id='1211'> +1.2476343e-12 </wgt>
<wgt id='1212'> +1.2575538e-12 </wgt>
<wgt id='1213'> +1.2569045e-12 </wgt>
<wgt id='1214'> +1.2417625e-12 </wgt>
<wgt id='1215'> +1.2822914e-12 </wgt>
<wgt id='1216'> +1.2650427e-12 </wgt>
<wgt id='1217'> +1.2519183e-12 </wgt>
<wgt id='1218'> +1.2611202e-12 </wgt>
<wgt id='1219'> +1.2550607e-12 </wgt>
<wgt id='1220'> +1.2615285e-12 </wgt>
<wgt id='1221'> +1.2568062e-12 </wgt>
<wgt id='1222'> +1.2551859e-12 </wgt>
<wgt id='1223'> +1.2612997e-12 </wgt>
<wgt id='1224'> +1.2589014e-12 </wgt>
<wgt id='1225'> +1.2566063e-12 </wgt>
<wgt id='1226'> +1.2555784e-12 </wgt>
<wgt id='1227'> +1.2585043e-12 </wgt>
<wgt id='1228'> +1.2535863e-12 </wgt>
<wgt id='1229'> +1.2587968e-12 </wgt>
<wgt id='1230'> +1.2543745e-12 </wgt>
<wgt id='1231'> +1.2509751e-12 </wgt>
<wgt id='1232'> +1.2556997e-12 </wgt>
<wgt id='1233'> +1.2577061e-12 </wgt>
<wgt id='1234'> +1.2572249e-12 </wgt>
<wgt id='1235'> +1.2486370e-12 </wgt>
<wgt id='1236'> +1.2518133e-12 </wgt>
<wgt id='1237'> +1.2548278e-12 </wgt>
<wgt id='1238'> +1.2597075e-12 </wgt>
<wgt id='1239'> +1.2617431e-12 </wgt>
<wgt id='1240'> +1.2636436e-12 </wgt>
<wgt id='1241'> +1.2783049e-12 </wgt>
<wgt id='1242'> +1.2723247e-12 </wgt>
<wgt id='1243'> +1.2842664e-12 </wgt>
<wgt id='1244'> +1.2716735e-12 </wgt>
<wgt id='1245'> +1.2832368e-12 </wgt>
<wgt id='1246'> +1.2791287e-12 </wgt>
<wgt id='1247'> +1.2776755e-12 </wgt>
<wgt id='1248'> +1.2782300e-12 </wgt>
<wgt id='1249'> +1.2784253e-12 </wgt>
<wgt id='1250'> +1.2788485e-12 </wgt>
<wgt id='1251'> +1.2779052e-12 </wgt>
<wgt id='1252'> +1.2751110e-12 </wgt>
<wgt id='1253'> +1.2808429e-12 </wgt>
<wgt id='1254'> +1.2660549e-12 </wgt>
<wgt id='1255'> +1.2856885e-12 </wgt>
<wgt id='1256'> +1.2826379e-12 </wgt>
<wgt id='1257'> +1.2675167e-12 </wgt>
<wgt id='1258'> +1.2982178e-12 </wgt>
<wgt id='1259'> +1.2595168e-12 </wgt>
<wgt id='1260'> +1.2823770e-12 </wgt>
<wgt id='1261'> +1.2737528e-12 </wgt>
<wgt id='1262'> +1.2804187e-12 </wgt>
<wgt id='1263'> +1.2772530e-12 </wgt>
<wgt id='1264'> +1.2826396e-12 </wgt>
<wgt id='1265'> +1.2761799e-12 </wgt>
<wgt id='1266'> +1.2761311e-12 </wgt>
<wgt id='1267'> +1.2809648e-12 </wgt>
<wgt id='1268'> +1.2779709e-12 </wgt>
<wgt id='1269'> +1.2827785e-12 </wgt>
<wgt id='1270'> +1.2722028e-12 </wgt>
<wgt id='1271'> +1.2709016e-12 </wgt>
<wgt id='1272'> +1.2794533e-12 </wgt>
<wgt id='1273'> +1.2773699e-12 </wgt>
<wgt id='1274'> +1.2801504e-12 </wgt>
<wgt id='1275'> +1.2741635e-12 </wgt>
<wgt id='1276'> +1.2802131e-12 </wgt>
<wgt id='1277'> +1.2755442e-12 </wgt>
<wgt id='1278'> +1.2771657e-12 </wgt>
<wgt id='1279'> +1.2763211e-12 </wgt>
<wgt id='1280'> +1.2789744e-12 </wgt>
<wgt id='1281'> +1.2757134e-12 </wgt>
<wgt id='1282'> +1.2783049e-12 </wgt>
<wgt id='1283'> +1.2687712e-12 </wgt>
<wgt id='1284'> +1.2724303e-12 </wgt>
<wgt id='1285'> +1.2756752e-12 </wgt>
<wgt id='1286'> +1.2810170e-12 </wgt>
<wgt id='1287'> +1.2832173e-12 </wgt>
<wgt id='1288'> +1.2849679e-12 </wgt>
<wgt id='1289'> +1.2822985e-12 </wgt>
<wgt id='1290'> +1.2865435e-12 </wgt>
<wgt id='1291'> +1.2777173e-12 </wgt>
<wgt id='1292'> +1.2775261e-12 </wgt>
<wgt id='1293'> +1.2856561e-12 </wgt>
<wgt id='1294'> +1.2829695e-12 </wgt>
<wgt id='1295'> +1.2815486e-12 </wgt>
<wgt id='1296'> +1.2769197e-12 </wgt>
<wgt id='1297'> +1.2888956e-12 </wgt>
<wgt id='1298'> +1.2874538e-12 </wgt>
<wgt id='1299'> +1.2756653e-12 </wgt>
<wgt id='1300'> +1.2855006e-12 </wgt>
<wgt id='1301'> +1.2757513e-12 </wgt>
<wgt id='1302'> +1.2811037e-12 </wgt>
<wgt id='1303'> +1.2838554e-12 </wgt>
<wgt id='1304'> +1.2797854e-12 </wgt>
<wgt id='1305'> +1.2839677e-12 </wgt>
<wgt id='1306'> +1.2786937e-12 </wgt>
<wgt id='1307'> +1.2863851e-12 </wgt>
<wgt id='1308'> +1.2920567e-12 </wgt>
<wgt id='1309'> +1.2747603e-12 </wgt>
<wgt id='1310'> +1.2809791e-12 </wgt>
<wgt id='1311'> +1.2837480e-12 </wgt>
<wgt id='1312'> +1.2809040e-12 </wgt>
<wgt id='1313'> +1.2838507e-12 </wgt>
<wgt id='1314'> +1.2867864e-12 </wgt>
<wgt id='1315'> +1.2714050e-12 </wgt>
<wgt id='1316'> +1.2888207e-12 </wgt>
<wgt id='1317'> +1.2822146e-12 </wgt>
<wgt id='1318'> +1.2919978e-12 </wgt>
<wgt id='1319'> +1.2705281e-12 </wgt>
<wgt id='1320'> +1.2896577e-12 </wgt>
<wgt id='1321'> +1.2752362e-12 </wgt>
<wgt id='1322'> +1.2817658e-12 </wgt>
<wgt id='1323'> +1.2825510e-12 </wgt>
<wgt id='1324'> +1.2798430e-12 </wgt>
<wgt id='1325'> +1.2915767e-12 </wgt>
<wgt id='1326'> +1.2820559e-12 </wgt>
<wgt id='1327'> +1.2844042e-12 </wgt>
<wgt id='1328'> +1.2829617e-12 </wgt>
<wgt id='1329'> +1.2814211e-12 </wgt>
<wgt id='1330'> +1.2604920e-12 </wgt>
<wgt id='1331'> +1.2951521e-12 </wgt>
<wgt id='1332'> +1.3027051e-12 </wgt>
<wgt id='1333'> +1.2687848e-12 </wgt>
<wgt id='1334'> +1.2777489e-12 </wgt>
<wgt id='1335'> +1.2932300e-12 </wgt>
<wgt id='1336'> +1.2798078e-12 </wgt>
<wgt id='1337'> +1.2782831e-12 </wgt>
<wgt id='1338'> +1.2811215e-12 </wgt>
<wgt id='1339'> +1.2824958e-12 </wgt>
<wgt id='1340'> +1.2589741e-12 </wgt>
<wgt id='1341'> +1.2634057e-12 </wgt>
<wgt id='1342'> +1.2542896e-12 </wgt>
<wgt id='1343'> +1.2541809e-12 </wgt>
<wgt id='1344'> +1.2622116e-12 </wgt>
<wgt id='1345'> +1.2595726e-12 </wgt>
<wgt id='1346'> +1.2584372e-12 </wgt>
<wgt id='1347'> +1.2536336e-12 </wgt>
<wgt id='1348'> +1.2650124e-12 </wgt>
<wgt id='1349'> +1.2635928e-12 </wgt>
<wgt id='1350'> +1.2544352e-12 </wgt>
<wgt id='1351'> +1.2622611e-12 </wgt>
<wgt id='1352'> +1.2519256e-12 </wgt>
<wgt id='1353'> +1.2573174e-12 </wgt>
<wgt id='1354'> +1.2620160e-12 </wgt>
<wgt id='1355'> +1.2567116e-12 </wgt>
<wgt id='1356'> +1.2602732e-12 </wgt>
<wgt id='1357'> +1.2581490e-12 </wgt>
<wgt id='1358'> +1.2602201e-12 </wgt>
<wgt id='1359'> +1.2697730e-12 </wgt>
<wgt id='1360'> +1.2497096e-12 </wgt>
<wgt id='1361'> +1.2576973e-12 </wgt>
<wgt id='1362'> +1.2609005e-12 </wgt>
<wgt id='1363'> +1.2568676e-12 </wgt>
<wgt id='1364'> +1.2608706e-12 </wgt>
<wgt id='1365'> +1.2480754e-12 </wgt>
<wgt id='1366'> +1.2638608e-12 </wgt>
<wgt id='1367'> +1.2648384e-12 </wgt>
<wgt id='1368'> +1.2587483e-12 </wgt>
<wgt id='1369'> +1.2674532e-12 </wgt>
<wgt id='1370'> +1.2489296e-12 </wgt>
<wgt id='1371'> +1.2646630e-12 </wgt>
<wgt id='1372'> +1.2516301e-12 </wgt>
<wgt id='1373'> +1.2574131e-12 </wgt>
<wgt id='1374'> +1.2600941e-12 </wgt>
<wgt id='1375'> +1.2567820e-12 </wgt>
<wgt id='1376'> +1.2682428e-12 </wgt>
<wgt id='1377'> +1.2588738e-12 </wgt>
<wgt id='1378'> +1.2614281e-12 </wgt>
<wgt id='1379'> +1.2593101e-12 </wgt>
<wgt id='1380'> +1.2585256e-12 </wgt>
<wgt id='1381'> +1.2361568e-12 </wgt>
<wgt id='1382'> +1.2709588e-12 </wgt>
<wgt id='1383'> +1.2798864e-12 </wgt>
<wgt id='1384'> +1.2431802e-12 </wgt>
<wgt id='1385'> +1.2543131e-12 </wgt>
<wgt id='1386'> +1.2695513e-12 </wgt>
<wgt id='1387'> +1.2559218e-12 </wgt>
<wgt id='1388'> +1.2535485e-12 </wgt>
<wgt id='1389'> +1.2567058e-12 </wgt>
<wgt id='1390'> +1.2594104e-12 </wgt>
<wgt id='1391'> +1.2312205e-12 </wgt>
<wgt id='1392'> +1.2001528e-12 </wgt>
<wgt id='1393'> +1.2098925e-12 </wgt>
<wgt id='1394'> +1.2202842e-12 </wgt>
<wgt id='1395'> +1.2395425e-12 </wgt>
<wgt id='1396'> +1.2306033e-12 </wgt>
<wgt id='1397'> +1.1990300e-12 </wgt>
<wgt id='1398'> +1.2056214e-12 </wgt>
<wgt id='1399'> +1.2116192e-12 </wgt>
<wgt id='1400'> +1.2176873e-12 </wgt>
<wgt id='1401'> +1.2241297e-12 </wgt>
<wgt id='1402'> +1.2361439e-12 </wgt>
<wgt id='1403'> +1.2421816e-12 </wgt>
<wgt id='1404'> +1.2475237e-12 </wgt>
<wgt id='1405'> +1.2306033e-12 </wgt>
<wgt id='1406'> +1.2262909e-12 </wgt>
<wgt id='1407'> +1.2287074e-12 </wgt>
<wgt id='1408'> +1.2325033e-12 </wgt>
<wgt id='1409'> +1.2338543e-12 </wgt>
<wgt id='1410'> +1.2503709e-12 </wgt>
<wgt id='1411'> +1.2529609e-12 </wgt>
<wgt id='1412'> +1.2469336e-12 </wgt>
<wgt id='1413'> +1.2567733e-12 </wgt>
<wgt id='1414'> +1.2439829e-12 </wgt>
<wgt id='1415'> +1.2452878e-12 </wgt>
<wgt id='1416'> +1.2523964e-12 </wgt>
<wgt id='1417'> +1.2424837e-12 </wgt>
<wgt id='1418'> +1.2581444e-12 </wgt>
<wgt id='1419'> +1.2519515e-12 </wgt>
<wgt id='1420'> +1.2488141e-12 </wgt>
<wgt id='1421'> +1.2381602e-12 </wgt>
<wgt id='1422'> +1.2557123e-12 </wgt>
<wgt id='1423'> +1.2500519e-12 </wgt>
<wgt id='1424'> +1.2506797e-12 </wgt>
<wgt id='1425'> +1.2466840e-12 </wgt>
<wgt id='1426'> +1.2543448e-12 </wgt>
<wgt id='1427'> +1.2544238e-12 </wgt>
<wgt id='1428'> +1.2479356e-12 </wgt>
<wgt id='1429'> +1.2437063e-12 </wgt>
<wgt id='1430'> +1.2594243e-12 </wgt>
<wgt id='1431'> +1.2561391e-12 </wgt>
<wgt id='1432'> +1.2462872e-12 </wgt>
<wgt id='1433'> +1.2569464e-12 </wgt>
<wgt id='1434'> +1.2428731e-12 </wgt>
<wgt id='1435'> +1.2525880e-12 </wgt>
<wgt id='1436'> +1.2449408e-12 </wgt>
<wgt id='1437'> +1.2569823e-12 </wgt>
<wgt id='1438'> +1.2492787e-12 </wgt>
<wgt id='1439'> +1.2439217e-12 </wgt>
<wgt id='1440'> +1.2653628e-12 </wgt>
<wgt id='1441'> +1.2518966e-12 </wgt>
<wgt id='1442'> +1.2476534e-12 </wgt>
<wgt id='1443'> +1.2480327e-12 </wgt>
<wgt id='1444'> +1.2562431e-12 </wgt>
<wgt id='1445'> +1.2608171e-12 </wgt>
<wgt id='1446'> +1.2467932e-12 </wgt>
<wgt id='1447'> +1.2514255e-12 </wgt>
<wgt id='1448'> +1.2510520e-12 </wgt>
<wgt id='1449'> +1.2513307e-12 </wgt>
<wgt id='1450'> +1.2494053e-12 </wgt>
<wgt id='1451'> +1.2585735e-12 </wgt>
<wgt id='1452'> +1.2268185e-12 </wgt>
<wgt id='1453'> +1.2525700e-12 </wgt>
<wgt id='1454'> +1.2364255e-12 </wgt>
<wgt id='1455'> +1.2367340e-12 </wgt>
<wgt id='1456'> +1.2570601e-12 </wgt>
<wgt id='1457'> +1.2569927e-12 </wgt>
<wgt id='1458'> +1.2473569e-12 </wgt>
<wgt id='1459'> +1.2537034e-12 </wgt>
<wgt id='1460'> +1.2460213e-12 </wgt>
<wgt id='1461'> +1.2503709e-12 </wgt>
<wgt id='1462'> +1.2424164e-12 </wgt>
<wgt id='1463'> +1.2602223e-12 </wgt>
<wgt id='1464'> +1.2515568e-12 </wgt>
<wgt id='1465'> +1.2265426e-12 </wgt>
<wgt id='1466'> +1.2318167e-12 </wgt>
<wgt id='1467'> +1.2372313e-12 </wgt>
<wgt id='1468'> +1.2416596e-12 </wgt>
<wgt id='1469'> +1.2466848e-12 </wgt>
<wgt id='1470'> +1.2569097e-12 </wgt>
<wgt id='1471'> +1.2610390e-12 </wgt>
<wgt id='1472'> +1.2660577e-12 </wgt>
<wgt id='1473'> +1.2515568e-12 </wgt>
<wgt id='1474'> +1.2465381e-12 </wgt>
<wgt id='1475'> +1.2484601e-12 </wgt>
<wgt id='1476'> +1.2536574e-12 </wgt>
<wgt id='1477'> +1.2556794e-12 </wgt>
<wgt id='1478'> +1.2129635e-12 </wgt>
<wgt id='1479'> +1.2114092e-12 </wgt>
<wgt id='1480'> +1.2132369e-12 </wgt>
<wgt id='1481'> +1.2064722e-12 </wgt>
<wgt id='1482'> +1.2118341e-12 </wgt>
<wgt id='1483'> +1.1951189e-12 </wgt>
<wgt id='1484'> +1.2121142e-12 </wgt>
<wgt id='1485'> +1.2131061e-12 </wgt>
<wgt id='1486'> +1.2138357e-12 </wgt>
<wgt id='1487'> +1.2168351e-12 </wgt>
<wgt id='1488'> +1.2097899e-12 </wgt>
<wgt id='1489'> +1.2362281e-12 </wgt>
<wgt id='1490'> +1.2118075e-12 </wgt>
<wgt id='1491'> +1.2116447e-12 </wgt>
<wgt id='1492'> +1.2145236e-12 </wgt>
<wgt id='1493'> +1.2043556e-12 </wgt>
<wgt id='1494'> +1.2300785e-12 </wgt>
<wgt id='1495'> +1.2072671e-12 </wgt>
<wgt id='1496'> +1.2116932e-12 </wgt>
<wgt id='1497'> +1.2129159e-12 </wgt>
<wgt id='1498'> +1.2121778e-12 </wgt>
<wgt id='1499'> +1.2146730e-12 </wgt>
<wgt id='1500'> +1.2143775e-12 </wgt>
<wgt id='1501'> +1.2118822e-12 </wgt>
<wgt id='1502'> +1.2111788e-12 </wgt>
<wgt id='1503'> +1.2151487e-12 </wgt>
<wgt id='1504'> +1.2103054e-12 </wgt>
<wgt id='1505'> +1.2135266e-12 </wgt>
<wgt id='1506'> +1.2113611e-12 </wgt>
<wgt id='1507'> +1.2117110e-12 </wgt>
<wgt id='1508'> +1.2174816e-12 </wgt>
<wgt id='1509'> +1.2880540e-12 </wgt>
<wgt id='1510'> +1.2865064e-12 </wgt>
<wgt id='1511'> +1.2932433e-12 </wgt>
<wgt id='1512'> +1.2912795e-12 </wgt>
<wgt id='1513'> +1.2949483e-12 </wgt>
<wgt id='1514'> +1.2859517e-12 </wgt>
<wgt id='1515'> +1.2836002e-12 </wgt>
<wgt id='1516'> +1.2853354e-12 </wgt>
<wgt id='1517'> +1.2862007e-12 </wgt>
<wgt id='1518'> +1.2930404e-12 </wgt>
<wgt id='1519'> +1.2836289e-12 </wgt>
<wgt id='1520'> +1.2911834e-12 </wgt>
<wgt id='1521'> +1.2960118e-12 </wgt>
<wgt id='1522'> +1.2951354e-12 </wgt>
<wgt id='1523'> +1.2950983e-12 </wgt>
<wgt id='1524'> +1.2889227e-12 </wgt>
<wgt id='1525'> +1.2884421e-12 </wgt>
<wgt id='1526'> +1.2861169e-12 </wgt>
<wgt id='1527'> +1.2905600e-12 </wgt>
<wgt id='1528'> +1.2913464e-12 </wgt>
<wgt id='1529'> +1.2918320e-12 </wgt>
<wgt id='1530'> +1.2915364e-12 </wgt>
<wgt id='1531'> +1.2890762e-12 </wgt>
<wgt id='1532'> +1.2890505e-12 </wgt>
<wgt id='1533'> +1.2866411e-12 </wgt>
<wgt id='1534'> +1.2906936e-12 </wgt>
<wgt id='1535'> +1.2814765e-12 </wgt>
<wgt id='1536'> +1.2848907e-12 </wgt>
<wgt id='1537'> +1.2892322e-12 </wgt>
<wgt id='1538'> +1.2867606e-12 </wgt>
<wgt id='1539'> +1.2875881e-12 </wgt>
<wgt id='1540'> +1.2889257e-12 </wgt>
<wgt id='1541'> +1.2869241e-12 </wgt>
<wgt id='1542'> +1.2894306e-12 </wgt>
<wgt id='1543'> +1.2878301e-12 </wgt>
<wgt id='1544'> +1.2854231e-12 </wgt>
<wgt id='1545'> +1.2894214e-12 </wgt>
<wgt id='1546'> +1.2885273e-12 </wgt>
<wgt id='1547'> +1.2887168e-12 </wgt>
<wgt id='1548'> +1.2860840e-12 </wgt>
<wgt id='1549'> +1.2867955e-12 </wgt>
<wgt id='1550'> +1.2901110e-12 </wgt>
<wgt id='1551'> +1.2858693e-12 </wgt>
<wgt id='1552'> +1.2888496e-12 </wgt>
<wgt id='1553'> +1.2887570e-12 </wgt>
<wgt id='1554'> +1.2884319e-12 </wgt>
<wgt id='1555'> +1.2892627e-12 </wgt>
<wgt id='1556'> +1.2887936e-12 </wgt>
<wgt id='1557'> +1.2882911e-12 </wgt>
<wgt id='1558'> +1.2862595e-12 </wgt>
<wgt id='1559'> +1.2870354e-12 </wgt>
<wgt id='1560'> +1.2875821e-12 </wgt>
<wgt id='1561'> +1.2879508e-12 </wgt>
<wgt id='1562'> +1.2879535e-12 </wgt>
<wgt id='1563'> +1.2882939e-12 </wgt>
<wgt id='1564'> +1.2889514e-12 </wgt>
<wgt id='1565'> +1.2878285e-12 </wgt>
<wgt id='1566'> +1.2879283e-12 </wgt>
<wgt id='1567'> +1.2884208e-12 </wgt>
<wgt id='1568'> +1.2877130e-12 </wgt>
<wgt id='1569'> +1.2870697e-12 </wgt>
<wgt id='1570'> +1.2886782e-12 </wgt>
<wgt id='1571'> +1.2880407e-12 </wgt>
<wgt id='1572'> +1.2886139e-12 </wgt>
<wgt id='1573'> +1.2883759e-12 </wgt>
<wgt id='1574'> +1.2881355e-12 </wgt>
<wgt id='1575'> +1.2879714e-12 </wgt>
<wgt id='1576'> +1.2882657e-12 </wgt>
<wgt id='1577'> +1.2875833e-12 </wgt>
<wgt id='1578'> +1.2873445e-12 </wgt>
<wgt id='1579'> +1.2882280e-12 </wgt>
<wgt id='1580'> +1.2875314e-12 </wgt>
<wgt id='1581'> +1.2881589e-12 </wgt>
<wgt id='1582'> +1.2874070e-12 </wgt>
<wgt id='1583'> +1.2880576e-12 </wgt>
<wgt id='1584'> +1.2881888e-12 </wgt>
<wgt id='1585'> +1.2879655e-12 </wgt>
<wgt id='1586'> +1.2883005e-12 </wgt>
<wgt id='1587'> +1.2876680e-12 </wgt>
<wgt id='1588'> +1.2880410e-12 </wgt>
<wgt id='1589'> +1.2879765e-12 </wgt>
<wgt id='1590'> +1.2882208e-12 </wgt>
<wgt id='1591'> +1.2881139e-12 </wgt>
<wgt id='1592'> +1.2885257e-12 </wgt>
<wgt id='1593'> +1.2878997e-12 </wgt>
<wgt id='1594'> +1.2880476e-12 </wgt>
<wgt id='1595'> +1.2871834e-12 </wgt>
<wgt id='1596'> +1.2880590e-12 </wgt>
<wgt id='1597'> +1.2879970e-12 </wgt>
<wgt id='1598'> +1.2877028e-12 </wgt>
<wgt id='1599'> +1.2880046e-12 </wgt>
<wgt id='1600'> +1.2871831e-12 </wgt>
<wgt id='1601'> +1.2879606e-12 </wgt>
<wgt id='1602'> +1.2882823e-12 </wgt>
<wgt id='1603'> +1.2885496e-12 </wgt>
<wgt id='1604'> +1.2878118e-12 </wgt>
<wgt id='1605'> +1.2879111e-12 </wgt>
<wgt id='1606'> +1.2880116e-12 </wgt>
<wgt id='1607'> +1.2878298e-12 </wgt>
<wgt id='1608'> +1.2880965e-12 </wgt>
<wgt id='1609'> +1.2882400e-12 </wgt>
<wgt id='1610'> +1.2709061e-12 </wgt>
<wgt id='1611'> +1.3031577e-12 </wgt>
<wgt id='1612'> +1.4908901e-12 </wgt>
<wgt id='1613'> +1.4811609e-12 </wgt>
<wgt id='1614'> +1.5031254e-12 </wgt>
<wgt id='1615'> +1.4622259e-12 </wgt>
<wgt id='1616'> +1.5589314e-12 </wgt>
<wgt id='1617'> +1.5161816e-12 </wgt>
<wgt id='1618'> +1.4436701e-12 </wgt>
<wgt id='1619'> +1.5129014e-12 </wgt>
<wgt id='1620'> +1.4661653e-12 </wgt>
<wgt id='1621'> +1.4853510e-12 </wgt>
<wgt id='1622'> +1.4814878e-12 </wgt>
<wgt id='1623'> +1.5114020e-12 </wgt>
<wgt id='1624'> +1.4602390e-12 </wgt>
<wgt id='1625'> +1.4691176e-12 </wgt>
<wgt id='1626'> +1.4820859e-12 </wgt>
<wgt id='1627'> +1.4689632e-12 </wgt>
<wgt id='1628'> +1.4841160e-12 </wgt>
<wgt id='1629'> +1.5291324e-12 </wgt>
<wgt id='1630'> +1.5050427e-12 </wgt>
<wgt id='1631'> +1.4663271e-12 </wgt>
<wgt id='1632'> +1.4610776e-12 </wgt>
<wgt id='1633'> +1.4522353e-12 </wgt>
<wgt id='1634'> +1.5387416e-12 </wgt>
<wgt id='1635'> +1.4955826e-12 </wgt>
<wgt id='1636'> +1.5004779e-12 </wgt>
<wgt id='1637'> +1.4567711e-12 </wgt>
<wgt id='1638'> +1.4906107e-12 </wgt>
<wgt id='1639'> +1.5129888e-12 </wgt>
<wgt id='1640'> +1.5132896e-12 </wgt>
<wgt id='1641'> +1.4774815e-12 </wgt>
<wgt id='1642'> +1.4834775e-12 </wgt>
<wgt id='1643'> +1.5328984e-12 </wgt>
<wgt id='1644'> +1.4224902e-12 </wgt>
<wgt id='1645'> +1.4882270e-12 </wgt>
<wgt id='1646'> +1.5124508e-12 </wgt>
<wgt id='1647'> +1.5040232e-12 </wgt>
<wgt id='1648'> +1.4843666e-12 </wgt>
<wgt id='1649'> +1.4782122e-12 </wgt>
<wgt id='1650'> +1.4790761e-12 </wgt>
<wgt id='1651'> +1.4525575e-12 </wgt>
<wgt id='1652'> +1.4946064e-12 </wgt>
<wgt id='1653'> +1.5232023e-12 </wgt>
<wgt id='1654'> +1.4793981e-12 </wgt>
<wgt id='1655'> +1.4571046e-12 </wgt>
<wgt id='1656'> +1.4498079e-12 </wgt>
<wgt id='1657'> +1.4699316e-12 </wgt>
<wgt id='1658'> +1.4437251e-12 </wgt>
<wgt id='1659'> +1.4602390e-12 </wgt>
<wgt id='1660'> +1.4827901e-12 </wgt>
<wgt id='1661'> +1.4912792e-12 </wgt>
<wgt id='1662'> +1.4904786e-12 </wgt>
<wgt id='1663'> +1.5168600e-12 </wgt>
<wgt id='1664'> +1.4801384e-12 </wgt>
<wgt id='1665'> +1.4400311e-12 </wgt>
<wgt id='1666'> +1.5142756e-12 </wgt>
<wgt id='1667'> +1.4897943e-12 </wgt>
<wgt id='1668'> +1.5328166e-12 </wgt>
<wgt id='1669'> +1.4348295e-12 </wgt>
<wgt id='1670'> +1.5072775e-12 </wgt>
<wgt id='1671'> +1.4865882e-12 </wgt>
<wgt id='1672'> +1.4869210e-12 </wgt>
<wgt id='1673'> +1.5091086e-12 </wgt>
<wgt id='1674'> +1.4713725e-12 </wgt>
<wgt id='1675'> +1.5171045e-12 </wgt>
<wgt id='1676'> +1.5155220e-12 </wgt>
<wgt id='1677'> +1.5665993e-12 </wgt>
<wgt id='1678'> +1.4880430e-12 </wgt>
<wgt id='1679'> +1.5282686e-12 </wgt>
<wgt id='1680'> +1.5038081e-12 </wgt>
<wgt id='1681'> +1.5124606e-12 </wgt>
<wgt id='1682'> +1.5011400e-12 </wgt>
<wgt id='1683'> +1.4797713e-12 </wgt>
<wgt id='1684'> +1.4843057e-12 </wgt>
<wgt id='1685'> +1.4692541e-12 </wgt>
<wgt id='1686'> +1.4950616e-12 </wgt>
<wgt id='1687'> +1.5391063e-12 </wgt>
<wgt id='1688'> +1.5045460e-12 </wgt>
<wgt id='1689'> +1.4696686e-12 </wgt>
<wgt id='1690'> +1.4919440e-12 </wgt>
<wgt id='1691'> +1.5129616e-12 </wgt>
<wgt id='1692'> +1.5331968e-12 </wgt>
<wgt id='1693'> +1.5421613e-12 </wgt>
<wgt id='1694'> +1.4294377e-12 </wgt>
<wgt id='1695'> +1.4956219e-12 </wgt>
<wgt id='1696'> +1.5407816e-12 </wgt>
<wgt id='1697'> +1.4930380e-12 </wgt>
<wgt id='1698'> +1.4731557e-12 </wgt>
<wgt id='1699'> +1.4953498e-12 </wgt>
<wgt id='1700'> +1.4724204e-12 </wgt>
<wgt id='1701'> +1.5082090e-12 </wgt>
<wgt id='1702'> +1.4946330e-12 </wgt>
<wgt id='1703'> +1.5078057e-12 </wgt>
<wgt id='1704'> +1.4697632e-12 </wgt>
<wgt id='1705'> +1.4796826e-12 </wgt>
<wgt id='1706'> +1.4812075e-12 </wgt>
<wgt id='1707'> +1.4977858e-12 </wgt>
<wgt id='1708'> +1.4680273e-12 </wgt>
<wgt id='1709'> +1.4834238e-12 </wgt>
<wgt id='1710'> +1.4795150e-12 </wgt>
<wgt id='1711'> +1.5529730e-12 </wgt>
<wgt id='1712'> +1.4795099e-12 </wgt>
<wgt id='1713'> +1.2001743e-12 </wgt>
<wgt id='1714'> +1.1695173e-12 </wgt>
<wgt id='1715'> +1.2154825e-12 </wgt>
<wgt id='1716'> +1.2169474e-12 </wgt>
<wgt id='1717'> +1.2063221e-12 </wgt>
<wgt id='1718'> +1.1977157e-12 </wgt>
<wgt id='1719'> +1.2133975e-12 </wgt>
<wgt id='1720'> +1.2118296e-12 </wgt>
<wgt id='1721'> +1.1795369e-12 </wgt>
<wgt id='1722'> +1.1882338e-12 </wgt>
<wgt id='1723'> +1.1526987e-12 </wgt>
<wgt id='1724'> +1.1162867e-12 </wgt>
<wgt id='1725'> +1.2324499e-12 </wgt>
<wgt id='1726'> +1.2489769e-12 </wgt>
<wgt id='1727'> +1.1666443e-12 </wgt>
<wgt id='1728'> +1.1975059e-12 </wgt>
<wgt id='1729'> +1.1979706e-12 </wgt>
<wgt id='1730'> +1.1762774e-12 </wgt>
<wgt id='1731'> +1.1666305e-12 </wgt>
<wgt id='1732'> +1.2114888e-12 </wgt>
<wgt id='1733'> +1.2083359e-12 </wgt>
<wgt id='1734'> +1.2259846e-12 </wgt>
<wgt id='1735'> +1.1564048e-12 </wgt>
<wgt id='1736'> +1.2816852e-12 </wgt>
<wgt id='1737'> +1.2274974e-12 </wgt>
<wgt id='1738'> +1.2128485e-12 </wgt>
<wgt id='1739'> +1.2033094e-12 </wgt>
<wgt id='1740'> +1.1795599e-12 </wgt>
<wgt id='1741'> +1.2005733e-12 </wgt>
<wgt id='1742'> +1.1919808e-12 </wgt>
<wgt id='1743'> +1.2266826e-12 </wgt>
<wgt id='1744'> +1.2340231e-12 </wgt>
<wgt id='1745'> +1.1212843e-12 </wgt>
<wgt id='1746'> +1.2320636e-12 </wgt>
<wgt id='1747'> +1.2272159e-12 </wgt>
<wgt id='1748'> +1.2087710e-12 </wgt>
<wgt id='1749'> +1.2302696e-12 </wgt>
<wgt id='1750'> +1.2067162e-12 </wgt>
<wgt id='1751'> +1.1260566e-12 </wgt>
<wgt id='1752'> +1.1798493e-12 </wgt>
<wgt id='1753'> +1.2184492e-12 </wgt>
<wgt id='1754'> +1.2067709e-12 </wgt>
<wgt id='1755'> +1.2213475e-12 </wgt>
<wgt id='1756'> +1.2096377e-12 </wgt>
<wgt id='1757'> +1.1863739e-12 </wgt>
<wgt id='1758'> +1.2257646e-12 </wgt>
<wgt id='1759'> +1.2119275e-12 </wgt>
<wgt id='1760'> +1.1734379e-12 </wgt>
<wgt id='1761'> +1.1817209e-12 </wgt>
<wgt id='1762'> +1.2214597e-12 </wgt>
<wgt id='1763'> +1.2222260e-12 </wgt>
<wgt id='1764'> +1.2051366e-12 </wgt>
<wgt id='1765'> +1.2006634e-12 </wgt>
<wgt id='1766'> +1.2285277e-12 </wgt>
<wgt id='1767'> +1.2054153e-12 </wgt>
<wgt id='1768'> +1.2024064e-12 </wgt>
<wgt id='1769'> +1.1662572e-12 </wgt>
<wgt id='1770'> +1.2623644e-12 </wgt>
<wgt id='1771'> +1.2055445e-12 </wgt>
<wgt id='1772'> +1.2342448e-12 </wgt>
<wgt id='1773'> +1.1959368e-12 </wgt>
<wgt id='1774'> +1.2214920e-12 </wgt>
<wgt id='1775'> +1.2028537e-12 </wgt>
<wgt id='1776'> +1.2458018e-12 </wgt>
<wgt id='1777'> +1.1405795e-12 </wgt>
<wgt id='1778'> +1.1894696e-12 </wgt>
<wgt id='1779'> +1.2176580e-12 </wgt>
<wgt id='1780'> +1.1950053e-12 </wgt>
<wgt id='1781'> +1.1980297e-12 </wgt>
<wgt id='1782'> +1.1625158e-12 </wgt>
<wgt id='1783'> +1.1978267e-12 </wgt>
<wgt id='1784'> +1.2165890e-12 </wgt>
<wgt id='1785'> +1.1638284e-12 </wgt>
<wgt id='1786'> +1.1087307e-12 </wgt>
<wgt id='1787'> +1.2357745e-12 </wgt>
<wgt id='1788'> +1.1888666e-12 </wgt>
<wgt id='1789'> +1.1380743e-12 </wgt>
<wgt id='1790'> +1.1899470e-12 </wgt>
<wgt id='1791'> +1.2227895e-12 </wgt>
<wgt id='1792'> +1.1686940e-12 </wgt>
<wgt id='1793'> +1.2130386e-12 </wgt>
<wgt id='1794'> +1.2056404e-12 </wgt>
<wgt id='1795'> +1.2197178e-12 </wgt>
<wgt id='1796'> +1.1844320e-12 </wgt>
<wgt id='1797'> +1.2072633e-12 </wgt>
<wgt id='1798'> +1.1795077e-12 </wgt>
<wgt id='1799'> +1.1872435e-12 </wgt>
<wgt id='1800'> +1.2017391e-12 </wgt>
<wgt id='1801'> +1.2017876e-12 </wgt>
<wgt id='1802'> +1.1870136e-12 </wgt>
<wgt id='1803'> +1.2127208e-12 </wgt>
<wgt id='1804'> +1.1792363e-12 </wgt>
<wgt id='1805'> +1.2031973e-12 </wgt>
<wgt id='1806'> +1.1874922e-12 </wgt>
<wgt id='1807'> +1.2185139e-12 </wgt>
<wgt id='1808'> +1.1985767e-12 </wgt>
<wgt id='1809'> +1.1919222e-12 </wgt>
<wgt id='1810'> +1.2083160e-12 </wgt>
<wgt id='1811'> +1.2608788e-12 </wgt>
<wgt id='1812'> +1.2369824e-12 </wgt>
<wgt id='1813'> +1.2049101e-12 </wgt>
<wgt id='1814'> +1.2592519e-12 </wgt>
<wgt id='1815'> +1.4166659e-12 </wgt>
<wgt id='1816'> +1.2001743e-12 </wgt>
<wgt id='1817'> +1.1695173e-12 </wgt>
<wgt id='1818'> +1.2154825e-12 </wgt>
<wgt id='1819'> +1.2169474e-12 </wgt>
<wgt id='1820'> +1.2063221e-12 </wgt>
<wgt id='1821'> +1.1977157e-12 </wgt>
<wgt id='1822'> +1.2133975e-12 </wgt>
<wgt id='1823'> +1.2118296e-12 </wgt>
<wgt id='1824'> +1.1795369e-12 </wgt>
<wgt id='1825'> +1.1882338e-12 </wgt>
<wgt id='1826'> +1.1526987e-12 </wgt>
<wgt id='1827'> +1.1162867e-12 </wgt>
<wgt id='1828'> +1.2324499e-12 </wgt>
<wgt id='1829'> +1.2489769e-12 </wgt>
<wgt id='1830'> +1.1666443e-12 </wgt>
<wgt id='1831'> +1.1975059e-12 </wgt>
<wgt id='1832'> +1.1979706e-12 </wgt>
<wgt id='1833'> +1.1762774e-12 </wgt>
<wgt id='1834'> +1.1666305e-12 </wgt>
<wgt id='1835'> +1.2114888e-12 </wgt>
<wgt id='1836'> +1.2083359e-12 </wgt>
<wgt id='1837'> +1.2259846e-12 </wgt>
<wgt id='1838'> +1.1564048e-12 </wgt>
<wgt id='1839'> +1.2816852e-12 </wgt>
<wgt id='1840'> +1.2274974e-12 </wgt>
<wgt id='1841'> +1.2128485e-12 </wgt>
<wgt id='1842'> +1.2033094e-12 </wgt>
<wgt id='1843'> +1.1795599e-12 </wgt>
<wgt id='1844'> +1.2005733e-12 </wgt>
<wgt id='1845'> +1.1919808e-12 </wgt>
<wgt id='1846'> +1.2266826e-12 </wgt>
<wgt id='1847'> +1.2340231e-12 </wgt>
<wgt id='1848'> +1.1212843e-12 </wgt>
<wgt id='1849'> +1.2320636e-12 </wgt>
<wgt id='1850'> +1.2272159e-12 </wgt>
<wgt id='1851'> +1.2087710e-12 </wgt>
<wgt id='1852'> +1.2302696e-12 </wgt>
<wgt id='1853'> +1.2067162e-12 </wgt>
<wgt id='1854'> +1.1260566e-12 </wgt>
<wgt id='1855'> +1.1798493e-12 </wgt>
<wgt id='1856'> +1.2184492e-12 </wgt>
<wgt id='1857'> +1.2067709e-12 </wgt>
<wgt id='1858'> +1.2213475e-12 </wgt>
<wgt id='1859'> +1.2096377e-12 </wgt>
<wgt id='1860'> +1.1863739e-12 </wgt>
<wgt id='1861'> +1.2257646e-12 </wgt>
<wgt id='1862'> +1.2119275e-12 </wgt>
<wgt id='1863'> +1.1734379e-12 </wgt>
<wgt id='1864'> +1.1817209e-12 </wgt>
<wgt id='1865'> +1.2214597e-12 </wgt>
<wgt id='1866'> +1.2222260e-12 </wgt>
<wgt id='1867'> +1.2051366e-12 </wgt>
<wgt id='1868'> +1.2006634e-12 </wgt>
<wgt id='1869'> +1.2285277e-12 </wgt>
<wgt id='1870'> +1.2054153e-12 </wgt>
<wgt id='1871'> +1.2024064e-12 </wgt>
<wgt id='1872'> +1.1662572e-12 </wgt>
<wgt id='1873'> +1.2623644e-12 </wgt>
<wgt id='1874'> +1.2055445e-12 </wgt>
<wgt id='1875'> +1.2342448e-12 </wgt>
<wgt id='1876'> +1.1959368e-12 </wgt>
<wgt id='1877'> +1.2214920e-12 </wgt>
<wgt id='1878'> +1.2028537e-12 </wgt>
<wgt id='1879'> +1.2458018e-12 </wgt>
<wgt id='1880'> +1.1405795e-12 </wgt>
<wgt id='1881'> +1.1894696e-12 </wgt>
<wgt id='1882'> +1.2176580e-12 </wgt>
<wgt id='1883'> +1.1950053e-12 </wgt>
<wgt id='1884'> +1.1980297e-12 </wgt>
<wgt id='1885'> +1.1625158e-12 </wgt>
<wgt id='1886'> +1.1978267e-12 </wgt>
<wgt id='1887'> +1.2165890e-12 </wgt>
<wgt id='1888'> +1.1638284e-12 </wgt>
<wgt id='1889'> +1.1087307e-12 </wgt>
<wgt id='1890'> +1.2357745e-12 </wgt>
<wgt id='1891'> +1.1888666e-12 </wgt>
<wgt id='1892'> +1.1380743e-12 </wgt>
<wgt id='1893'> +1.1899470e-12 </wgt>
<wgt id='1894'> +1.2227895e-12 </wgt>
<wgt id='1895'> +1.1686940e-12 </wgt>
<wgt id='1896'> +1.2130386e-12 </wgt>
<wgt id='1897'> +1.2056404e-12 </wgt>
<wgt id='1898'> +1.2197178e-12 </wgt>
<wgt id='1899'> +1.1844320e-12 </wgt>
<wgt id='1900'> +1.2072633e-12 </wgt>
<wgt id='1901'> +1.1795077e-12 </wgt>
<wgt id='1902'> +1.1872435e-12 </wgt>
<wgt id='1903'> +1.2017391e-12 </wgt>
<wgt id='1904'> +1.2017876e-12 </wgt>
<wgt id='1905'> +1.1870136e-12 </wgt>
<wgt id='1906'> +1.2127208e-12 </wgt>
<wgt id='1907'> +1.1792363e-12 </wgt>
<wgt id='1908'> +1.2031973e-12 </wgt>
<wgt id='1909'> +1.1874922e-12 </wgt>
<wgt id='1910'> +1.2185139e-12 </wgt>
<wgt id='1911'> +1.1985767e-12 </wgt>
<wgt id='1912'> +1.1919222e-12 </wgt>
<wgt id='1913'> +1.2083160e-12 </wgt>
<wgt id='1914'> +1.2608788e-12 </wgt>
<wgt id='1915'> +1.2369824e-12 </wgt>
<wgt id='1916'> +1.2049101e-12 </wgt>
<wgt id='1917'> +1.1910252e-12 </wgt>
<wgt id='1918'> +1.2059071e-12 </wgt>
<wgt id='1919'> +1.2484253e-12 </wgt>
</rwgt>
</event>
<event>
 9      1 +1.5538000e-12 8.69331500e+01 7.81860800e-03 1.18948000e-01
       21 -1    0    0  501  502 +0.0000000000e+00 +0.0000000000e+00 +3.2804544256e+00 3.2804544256e+00 0.0000000000e+00 0.0000e+00 -1.0000e+00
        1 -1    0    0  502    0 -0.0000000000e+00 -0.0000000000e+00 -5.7593944433e+02 5.7593944433e+02 0.0000000000e+00 0.0000e+00 1.0000e+00
     1023  2    1    2    0    0 +1.0428130799e+01 +3.7707135093e+01 -1.8994180462e+02 1.9450829527e+02 1.5000461176e+01 0.0000e+00 0.0000e+00
  1000023  2    3    3    0    0 +1.0326711313e+01 +2.6805518536e+01 -1.4911033062e+02 1.5195168828e+02 5.4998255789e+00 0.0000e+00 0.0000e+00
        1  1    1    2  501    0 -1.0428130799e+01 -3.7707135093e+01 -3.8271718529e+02 3.8471160349e+02 0.0000000000e+00 0.0000e+00 1.0000e+00
  1000022  1    4    4    0    0 +8.8567825894e+00 +2.3799236404e+01 -1.3154775627e+02 1.3406960294e+02 5.0000000000e+00 0.0000e+00 -1.0000e+00
      -13  1    4    4    0    0 +3.3930323528e-01 +5.1309954782e-01 -3.4709357549e+00 3.5266081915e+00 1.0570000000e-01 0.0000e+00 1.0000e+00
       13  1    4    4    0    0 +1.1306254883e+00 +2.4931825840e+00 -1.4091638595e+01 1.4355477149e+01 1.0570000000e-01 0.0000e+00 -1.0000e+00
  1000022  1    3    3    0    0 +1.0141948612e-01 +1.0901616557e+01 -4.0831474002e+01 4.2556606991e+01 5.0000000000e+00 0.0000e+00 -1.0000e+00
<mgrwt>
<rscale>  1 0.86933149E+02</rscale>
<asrwt>0</asrwt>
<pdfrwt beam="1">  1       21 0.50468561E-03 0.86933149E+02</pdfrwt>
<pdfrwt beam="2">  1        1 0.88606014E-01 0.86933149E+02</pdfrwt>
<totfact> 0.38061909E+06</totfact>
</mgrwt>
<rwgt>
<wgt id='1001'> +1.5538000e-12 </wgt>
<wgt id='1002'> +1.5543561e-12 </wgt>
<wgt id='1003'> +1.5542925e-12 </wgt>
<wgt id='1004'> +1.5402810e-12 </wgt>
<wgt id='1005'> +1.5538000e-12 </wgt>
<wgt id='1006'> +1.3925212e-12 </wgt>
<wgt id='1007'> +1.3904874e-12 </wgt>
<wgt id='1008'> +1.3909247e-12 </wgt>
<wgt id='1009'> +1.3580350e-12 </wgt>
<wgt id='1010'> +1.3925212e-12 </wgt>
<wgt id='1011'> +1.7589922e-12 </wgt>
<wgt id='1012'> +1.7637635e-12 </wgt>
<wgt id='1013'> +1.7628759e-12 </wgt>
<wgt id='1014'> +1.7816573e-12 </wgt>
<wgt id='1015'> +1.7589922e-12 </wgt>
<wgt id='1016'> +1.7147063e-12 </wgt>
<wgt id='1017'> +1.7218805e-12 </wgt>
<wgt id='1018'> +1.7205165e-12 </wgt>
<wgt id='1019'> +1.7628759e-12 </wgt>
<wgt id='1020'> +1.7147063e-12 </wgt>
<wgt id='1021'> +1.5367260e-12 </wgt>
<wgt id='1022'> +1.5403504e-12 </wgt>
<wgt id='1023'> +1.5396773e-12 </wgt>
<wgt id='1024'> +1.5542925e-12 </wgt>
<wgt id='1025'> +1.5367260e-12 </wgt>
<wgt id='1026'> +1.9411475e-12 </wgt>
<wgt id='1027'> +1.9538573e-12 </wgt>
<wgt id='1028'> +1.9514069e-12 </wgt>
<wgt id='1029'> +2.0391350e-12 </wgt>
<wgt id='1030'> +1.9411475e-12 </wgt>
<wgt id='1031'> +1.3637187e-12 </wgt>
<wgt id='1032'> +1.3565871e-12 </wgt>
<wgt id='1033'> +1.3580350e-12 </wgt>
<wgt id='1034'> +1.2778454e-12 </wgt>
<wgt id='1035'> +1.3637187e-12 </wgt>
<wgt id='1036'> +1.2221696e-12 </wgt>
<wgt id='1037'> +1.2135683e-12 </wgt>
<wgt id='1038'> +1.2152953e-12 </wgt>
<wgt id='1039'> +1.1266508e-12 </wgt>
<wgt id='1040'> +1.2221696e-12 </wgt>
<wgt id='1041'> +1.5438091e-12 </wgt>
<wgt id='1042'> +1.5393505e-12 </wgt>
<wgt id='1043'> +1.5402810e-12 </wgt>
<wgt id='1044'> +1.4780956e-12 </wgt>
<wgt id='1045'> +1.5438091e-12 </wgt>
<wgt id='1046'> +1.5538000e-12 </wgt>
<wgt id='1047'> +1.5613867e-12 </wgt>
<wgt id='1048'> +1.5977744e-12 </wgt>
<wgt id='1049'> +1.5057761e-12 </wgt>
<wgt id='1050'> +1.5413596e-12 </wgt>
<wgt id='1051'> +1.5624460e-12 </wgt>
<wgt id='1052'> +1.5269711e-12 </wgt>
<wgt id='1053'> +1.6041407e-12 </wgt>
<wgt id='1054'> +1.5720178e-12 </wgt>
<wgt id='1055'> +1.5782104e-12 </wgt>
<wgt id='1056'> +1.4540298e-12 </wgt>
<wgt id='1057'> +1.5170029e-12 </wgt>
<wgt id='1058'> +1.5355624e-12 </wgt>
<wgt id='1059'> +1.5350721e-12 </wgt>
<wgt id='1060'> +1.5392231e-12 </wgt>
<wgt id='1061'> +1.5853506e-12 </wgt>
<wgt id='1062'> +1.5389028e-12 </wgt>
<wgt id='1063'> +1.5424621e-12 </wgt>
<wgt id='1064'> +1.5797220e-12 </wgt>
<wgt id='1065'> +1.5782092e-12 </wgt>
<wgt id='1066'> +1.5582417e-12 </wgt>
<wgt id='1067'> +1.5833283e-12 </wgt>
<wgt id='1068'> +1.6118350e-12 </wgt>
<wgt id='1069'> +1.6064552e-12 </wgt>
<wgt id='1070'> +1.5451226e-12 </wgt>
<wgt id='1071'> +1.5769195e-12 </wgt>
<wgt id='1072'> +1.5477163e-12 </wgt>
<wgt id='1073'> +1.5229293e-12 </wgt>
<wgt id='1074'> +1.5778465e-12 </wgt>
<wgt id='1075'> +1.5161554e-12 </wgt>
<wgt id='1076'> +1.5719300e-12 </wgt>
<wgt id='1077'> +1.5743713e-12 </wgt>
<wgt id='1078'> +1.5634888e-12 </wgt>
<wgt id='1079'> +1.5836378e-12 </wgt>
<wgt id='1080'> +1.5369324e-12 </wgt>
<wgt id='1081'> +1.5139621e-12 </wgt>
<wgt id='1082'> +1.5432178e-12 </wgt>
<wgt id='1083'> +1.5557168e-12 </wgt>
<wgt id='1084'> +1.5218069e-12 </wgt>
<wgt id='1085'> +1.5527966e-12 </wgt>
<wgt id='1086'> +1.5360794e-12 </wgt>
<wgt id='1087'> +1.5594121e-12 </wgt>
<wgt id='1088'> +1.5737136e-12 </wgt>
<wgt id='1089'> +1.5597197e-12 </wgt>
<wgt id='1090'> +1.5455708e-12 </wgt>
<wgt id='1091'> +1.5587316e-12 </wgt>
<wgt id='1092'> +1.5290855e-12 </wgt>
<wgt id='1093'> +1.5638144e-12 </wgt>
<wgt id='1094'> +1.5801299e-12 </wgt>
<wgt id='1095'> +1.5893451e-12 </wgt>
<wgt id='1096'> +1.5344048e-12 </wgt>
<wgt id='1097'> +1.5485286e-12 </wgt>
<wgt id='1098'> +1.6004646e-12 </wgt>
<wgt id='1099'> +1.5444924e-12 </wgt>
<wgt id='1100'> +1.5813265e-12 </wgt>
<wgt id='1101'> +1.5324573e-12 </wgt>
<wgt id='1102'> +1.5658991e-12 </wgt>
<wgt id='1103'> +1.5863811e-12 </wgt>
<wgt id='1104'> +1.6026408e-12 </wgt>
<wgt id='1105'> +1.5296000e-12 </wgt>
<wgt id='1106'> +1.5825381e-12 </wgt>
<wgt id='1107'> +1.5649614e-12 </wgt>
<wgt id='1108'> +1.5631095e-12 </wgt>
<wgt id='1109'> +1.5180805e-12 </wgt>
<wgt id='1110'> +1.5360199e-12 </wgt>
<wgt id='1111'> +1.5580012e-12 </wgt>
<wgt id='1112'> +1.5353471e-12 </wgt>
<wgt id='1113'> +1.5587234e-12 </wgt>
<wgt id='1114'> +1.5699551e-12 </wgt>
<wgt id='1115'> +1.5541181e-12 </wgt>
<wgt id='1116'> +1.5803936e-12 </wgt>
<wgt id='1117'> +1.5891372e-12 </wgt>
<wgt id='1118'> +1.5579657e-12 </wgt>
<wgt id='1119'> +1.5377410e-12 </wgt>
<wgt id='1120'> +1.5150008e-12 </wgt>
<wgt id='1121'> +1.5278395e-12 </wgt>
<wgt id='1122'> +1.5244022e-12 </wgt>
<wgt id='1123'> +1.5563242e-12 </wgt>
<wgt id='1124'> +1.5982987e-12 </wgt>
<wgt id='1125'> +1.5388728e-12 </wgt>
<wgt id='1126'> +1.4916138e-12 </wgt>
<wgt id='1127'> +1.5856508e-12 </wgt>
<wgt id='1128'> +1.5389028e-12 </wgt>
<wgt id='1129'> +1.4549793e-12 </wgt>
<wgt id='1130'> +1.5562908e-12 </wgt>
<wgt id='1131'> +1.5756186e-12 </wgt>
<wgt id='1132'> +1.6042757e-12 </wgt>
<wgt id='1133'> +1.5530078e-12 </wgt>
<wgt id='1134'> +1.5327025e-12 </wgt>
<wgt id='1135'> +1.3993136e-12 </wgt>
<wgt id='1136'> +1.5463494e-12 </wgt>
<wgt id='1137'> +1.5768324e-12 </wgt>
<wgt id='1138'> +1.5355479e-12 </wgt>
<wgt id='1139'> +1.5570314e-12 </wgt>
<wgt id='1140'> +1.5736986e-12 </wgt>
<wgt id='1141'> +1.5858824e-12 </wgt>
<wgt id='1142'> +1.6036411e-12 </wgt>
<wgt id='1143'> +1.5214972e-12 </wgt>
<wgt id='1144'> +1.5297116e-12 </wgt>
<wgt id='1145'> +1.5468253e-12 </wgt>
<wgt id='1146'> +1.6020563e-12 </wgt>
<wgt id='1147'> +1.3939521e-12 </wgt>
<wgt id='1148'> +1.4135470e-12 </wgt>
<wgt id='1149'> +1.3683901e-12 </wgt>
<wgt id='1150'> +1.4107585e-12 </wgt>
<wgt id='1151'> +1.5333722e-12 </wgt>
<wgt id='1152'> +1.9628945e-12 </wgt>
<wgt id='1153'> +1.9566727e-12 </wgt>
<wgt id='1154'> +1.9664818e-12 </wgt>
<wgt id='1155'> +1.9704605e-12 </wgt>
<wgt id='1156'> +1.9590836e-12 </wgt>
<wgt id='1157'> +1.9650341e-12 </wgt>
<wgt id='1158'> +1.9599866e-12 </wgt>
<wgt id='1159'> +1.9649391e-12 </wgt>
<wgt id='1160'> +1.9616089e-12 </wgt>
<wgt id='1161'> +1.9730792e-12 </wgt>
<wgt id='1162'> +1.9557328e-12 </wgt>
<wgt id='1163'> +1.9620575e-12 </wgt>
<wgt id='1164'> +1.9637487e-12 </wgt>
<wgt id='1165'> +1.9622959e-12 </wgt>
<wgt id='1166'> +1.9634616e-12 </wgt>
<wgt id='1167'> +1.9761813e-12 </wgt>
<wgt id='1168'> +1.9456316e-12 </wgt>
<wgt id='1169'> +1.9857022e-12 </wgt>
<wgt id='1170'> +1.9439656e-12 </wgt>
<wgt id='1171'> +1.9542527e-12 </wgt>
<wgt id='1172'> +1.9726023e-12 </wgt>
<wgt id='1173'> +1.9454273e-12 </wgt>
<wgt id='1174'> +1.9792300e-12 </wgt>
<wgt id='1175'> +1.9515093e-12 </wgt>
<wgt id='1176'> +1.9708661e-12 </wgt>
<wgt id='1177'> +1.9642905e-12 </wgt>
<wgt id='1178'> +1.9532324e-12 </wgt>
<wgt id='1179'> +1.9574123e-12 </wgt>
<wgt id='1180'> +1.9587497e-12 </wgt>
<wgt id='1181'> +1.9507934e-12 </wgt>
<wgt id='1182'> +1.9645851e-12 </wgt>
<wgt id='1183'> +1.9624351e-12 </wgt>
<wgt id='1184'> +1.9626847e-12 </wgt>
<wgt id='1185'> +1.9584658e-12 </wgt>
<wgt id='1186'> +1.9646979e-12 </wgt>
<wgt id='1187'> +1.9684085e-12 </wgt>
<wgt id='1188'> +1.9609671e-12 </wgt>
<wgt id='1189'> +1.9592775e-12 </wgt>
<wgt id='1190'> +1.9481146e-12 </wgt>
<wgt id='1191'> +1.9627809e-12 </wgt>
<wgt id='1192'> +1.9644099e-12 </wgt>
<wgt id='1193'> +1.4136009e-12 </wgt>
<wgt id='1194'> +1.4064527e-12 </wgt>
<wgt id='1195'> +1.4194766e-12 </wgt>
<wgt id='1196'> +1.4177585e-12 </wgt>
<wgt id='1197'> +1.4089679e-12 </wgt>
<wgt id='1198'> +1.4137189e-12 </wgt>
<wgt id='1199'> +1.4134478e-12 </wgt>
<wgt id='1200'> +1.4211077e-12 </wgt>
<wgt id='1201'> +1.4085747e-12 </wgt>
<wgt id='1202'> +1.4129242e-12 </wgt>
<wgt id='1203'> +1.4145716e-12 </wgt>
<wgt id='1204'> +1.4090584e-12 </wgt>
<wgt id='1205'> +1.4163108e-12 </wgt>
<wgt id='1206'> +1.4104883e-12 </wgt>
<wgt id='1207'> +1.4176088e-12 </wgt>
<wgt id='1208'> +1.4142427e-12 </wgt>
<wgt id='1209'> +1.4134638e-12 </wgt>
<wgt id='1210'> +1.4088189e-12 </wgt>
<wgt id='1211'> +1.4129900e-12 </wgt>
<wgt id='1212'> +1.4038011e-12 </wgt>
<wgt id='1213'> +1.4216551e-12 </wgt>
<wgt id='1214'> +1.3936349e-12 </wgt>
<wgt id='1215'> +1.4455020e-12 </wgt>
<wgt id='1216'> +1.4207483e-12 </wgt>
<wgt id='1217'> +1.4074562e-12 </wgt>
<wgt id='1218'> +1.4100508e-12 </wgt>
<wgt id='1219'> +1.4147244e-12 </wgt>
<wgt id='1220'> +1.4105672e-12 </wgt>
<wgt id='1221'> +1.4022738e-12 </wgt>
<wgt id='1222'> +1.4274243e-12 </wgt>
<wgt id='1223'> +1.3899242e-12 </wgt>
<wgt id='1224'> +1.4111119e-12 </wgt>
<wgt id='1225'> +1.4145444e-12 </wgt>
<wgt id='1226'> +1.4090506e-12 </wgt>
<wgt id='1227'> +1.4165809e-12 </wgt>
<wgt id='1228'> +1.4128154e-12 </wgt>
<wgt id='1229'> +1.4119139e-12 </wgt>
<wgt id='1230'> +1.4155722e-12 </wgt>
<wgt id='1231'> +1.4146975e-12 </wgt>
<wgt id='1232'> +1.4202447e-12 </wgt>
<wgt id='1233'> +1.4111625e-12 </wgt>
<wgt id='1234'> +1.4136009e-12 </wgt>
<wgt id='1235'> +1.4074589e-12 </wgt>
<wgt id='1236'> +1.4098096e-12 </wgt>
<wgt id='1237'> +1.4118807e-12 </wgt>
<wgt id='1238'> +1.4152632e-12 </wgt>
<wgt id='1239'> +1.4166775e-12 </wgt>
<wgt id='1240'> +1.4179362e-12 </wgt>
<wgt id='1241'> +1.3966837e-12 </wgt>
<wgt id='1242'> +1.3868308e-12 </wgt>
<wgt id='1243'> +1.4064800e-12 </wgt>
<wgt id='1244'> +1.3941404e-12 </wgt>
<wgt id='1245'> +1.3985742e-12 </wgt>
<wgt id='1246'> +1.4018436e-12 </wgt>
<wgt id='1247'> +1.3923414e-12 </wgt>
<wgt id='1248'> +1.3966169e-12 </wgt>
<wgt id='1249'> +1.3968225e-12 </wgt>
<wgt id='1250'> +1.3990315e-12 </wgt>
<wgt id='1251'> +1.3950319e-12 </wgt>
<wgt id='1252'> +1.4015654e-12 </wgt>
<wgt id='1253'> +1.3927954e-12 </wgt>
<wgt id='1254'> +1.3959899e-12 </wgt>
<wgt id='1255'> +1.3970384e-12 </wgt>
<wgt id='1256'> +1.3965397e-12 </wgt>
<wgt id='1257'> +1.3973759e-12 </wgt>
<wgt id='1258'> +1.4104051e-12 </wgt>
<wgt id='1259'> +1.3833445e-12 </wgt>
<wgt id='1260'> +1.4077591e-12 </wgt>
<wgt id='1261'> +1.3817399e-12 </wgt>
<wgt id='1262'> +1.3968051e-12 </wgt>
<wgt id='1263'> +1.3958712e-12 </wgt>
<wgt id='1264'> +1.3961970e-12 </wgt>
<wgt id='1265'> +1.3965619e-12 </wgt>
<wgt id='1266'> +1.3761525e-12 </wgt>
<wgt id='1267'> +1.4141770e-12 </wgt>
<wgt id='1268'> +1.3952256e-12 </wgt>
<wgt id='1269'> +1.3888408e-12 </wgt>
<wgt id='1270'> +1.3971287e-12 </wgt>
<wgt id='1271'> +1.3946706e-12 </wgt>
<wgt id='1272'> +1.3910990e-12 </wgt>
<wgt id='1273'> +1.3979047e-12 </wgt>
<wgt id='1274'> +1.3976504e-12 </wgt>
<wgt id='1275'> +1.3951049e-12 </wgt>
<wgt id='1276'> +1.3950159e-12 </wgt>
<wgt id='1277'> +1.3951397e-12 </wgt>
<wgt id='1278'> +1.3982946e-12 </wgt>
<wgt id='1279'> +1.4026706e-12 </wgt>
<wgt id='1280'> +1.3949479e-12 </wgt>
<wgt id='1281'> +1.4031353e-12 </wgt>
<wgt id='1282'> +1.3966837e-12 </wgt>
<wgt id='1283'> +1.3903139e-12 </wgt>
<wgt id='1284'> +1.3929373e-12 </wgt>
<wgt id='1285'> +1.3950463e-12 </wgt>
<wgt id='1286'> +1.3984428e-12 </wgt>
<wgt id='1287'> +1.3996547e-12 </wgt>
<wgt id='1288'> +1.4005978e-12 </wgt>
<wgt id='1289'> +1.4424200e-12 </wgt>
<wgt id='1290'> +1.4429734e-12 </wgt>
<wgt id='1291'> +1.4418373e-12 </wgt>
<wgt id='1292'> +1.4434060e-12 </wgt>
<wgt id='1293'> +1.4417110e-12 </wgt>
<wgt id='1294'> +1.4342563e-12 </wgt>
<wgt id='1295'> +1.4503284e-12 </wgt>
<wgt id='1296'> +1.4413207e-12 </wgt>
<wgt id='1297'> +1.4437453e-12 </wgt>
<wgt id='1298'> +1.4478475e-12 </wgt>
<wgt id='1299'> +1.4357186e-12 </wgt>
<wgt id='1300'> +1.4427122e-12 </wgt>
<wgt id='1301'> +1.4418149e-12 </wgt>
<wgt id='1302'> +1.4457489e-12 </wgt>
<wgt id='1303'> +1.4378093e-12 </wgt>
<wgt id='1304'> +1.4380835e-12 </wgt>
<wgt id='1305'> +1.4453769e-12 </wgt>
<wgt id='1306'> +1.4396073e-12 </wgt>
<wgt id='1307'> +1.4456219e-12 </wgt>
<wgt id='1308'> +1.4328215e-12 </wgt>
<wgt id='1309'> +1.4497653e-12 </wgt>
<wgt id='1310'> +1.4540877e-12 </wgt>
<wgt id='1311'> +1.4300274e-12 </wgt>
<wgt id='1312'> +1.4474249e-12 </wgt>
<wgt id='1313'> +1.4378151e-12 </wgt>
<wgt id='1314'> +1.4278472e-12 </wgt>
<wgt id='1315'> +1.4543194e-12 </wgt>
<wgt id='1316'> +1.4387256e-12 </wgt>
<wgt id='1317'> +1.4463066e-12 </wgt>
<wgt id='1318'> +1.4536296e-12 </wgt>
<wgt id='1319'> +1.4284486e-12 </wgt>
<wgt id='1320'> +1.4704470e-12 </wgt>
<wgt id='1321'> +1.4201060e-12 </wgt>
<wgt id='1322'> +1.4434604e-12 </wgt>
<wgt id='1323'> +1.4397013e-12 </wgt>
<wgt id='1324'> +1.4433711e-12 </wgt>
<wgt id='1325'> +1.4428983e-12 </wgt>
<wgt id='1326'> +1.4408930e-12 </wgt>
<wgt id='1327'> +1.4418835e-12 </wgt>
<wgt id='1328'> +1.4383429e-12 </wgt>
<wgt id='1329'> +1.4458205e-12 </wgt>
<wgt id='1330'> +1.4291576e-12 </wgt>
<wgt id='1331'> +1.4601938e-12 </wgt>
<wgt id='1332'> +1.4486738e-12 </wgt>
<wgt id='1333'> +1.4407724e-12 </wgt>
<wgt id='1334'> +1.4376638e-12 </wgt>
<wgt id='1335'> +1.4559934e-12 </wgt>
<wgt id='1336'> +1.4408372e-12 </wgt>
<wgt id='1337'> +1.4473965e-12 </wgt>
<wgt id='1338'> +1.4414338e-12 </wgt>
<wgt id='1339'> +1.4417070e-12 </wgt>
<wgt id='1340'> +1.4240460e-12 </wgt>
<wgt id='1341'> +1.4245092e-12 </wgt>
<wgt id='1342'> +1.4235318e-12 </wgt>
<wgt id='1343'> +1.4250885e-12 </wgt>
<wgt id='1344'> +1.4233386e-12 </wgt>
<wgt id='1345'> +1.4154124e-12 </wgt>
<wgt id='1346'> +1.4320720e-12 </wgt>
<wgt id='1347'> +1.4233524e-12 </wgt>
<wgt id='1348'> +1.4247791e-12 </wgt>
<wgt id='1349'> +1.4295424e-12 </wgt>
<wgt id='1350'> +1.4186730e-12 </wgt>
<wgt id='1351'> +1.4246360e-12 </wgt>
<wgt id='1352'> +1.4226985e-12 </wgt>
<wgt id='1353'> +1.4276359e-12 </wgt>
<wgt id='1354'> +1.4175914e-12 </wgt>
<wgt id='1355'> +1.4188222e-12 </wgt>
<wgt id='1356'> +1.4269834e-12 </wgt>
<wgt id='1357'> +1.4189540e-12 </wgt>
<wgt id='1358'> +1.4300332e-12 </wgt>
<wgt id='1359'> +1.4158887e-12 </wgt>
<wgt id='1360'> +1.4310969e-12 </wgt>
<wgt id='1361'> +1.4341224e-12 </wgt>
<wgt id='1362'> +1.4107665e-12 </wgt>
<wgt id='1363'> +1.4325198e-12 </wgt>
<wgt id='1364'> +1.4190785e-12 </wgt>
<wgt id='1365'> +1.4280831e-12 </wgt>
<wgt id='1366'> +1.4129088e-12 </wgt>
<wgt id='1367'> +1.4210303e-12 </wgt>
<wgt id='1368'> +1.4265674e-12 </wgt>
<wgt id='1369'> +1.4324070e-12 </wgt>
<wgt id='1370'> +1.4134480e-12 </wgt>
<wgt id='1371'> +1.4462932e-12 </wgt>
<wgt id='1372'> +1.3977709e-12 </wgt>
<wgt id='1373'> +1.4209560e-12 </wgt>
<wgt id='1374'> +1.4253662e-12 </wgt>
<wgt id='1375'> +1.4247778e-12 </wgt>
<wgt id='1376'> +1.4249172e-12 </wgt>
<wgt id='1377'> +1.4242305e-12 </wgt>
<wgt id='1378'> +1.4243053e-12 </wgt>
<wgt id='1379'> +1.4200437e-12 </wgt>
<wgt id='1380'> +1.4279065e-12 </wgt>
<wgt id='1381'> +1.4110436e-12 </wgt>
<wgt id='1382'> +1.4404200e-12 </wgt>
<wgt id='1383'> +1.4332639e-12 </wgt>
<wgt id='1384'> +1.4220845e-12 </wgt>
<wgt id='1385'> +1.4188728e-12 </wgt>
<wgt id='1386'> +1.4376649e-12 </wgt>
<wgt id='1387'> +1.4209499e-12 </wgt>
<wgt id='1388'> +1.4294680e-12 </wgt>
<wgt id='1389'> +1.4212543e-12 </wgt>
<wgt id='1390'> +1.4239235e-12 </wgt>
<wgt id='1391'> +1.3797114e-12 </wgt>
<wgt id='1392'> +1.3532413e-12 </wgt>
<wgt id='1393'> +1.3633484e-12 </wgt>
<wgt id='1394'> +1.3720262e-12 </wgt>
<wgt id='1395'> +1.3899428e-12 </wgt>
<wgt id='1396'> +1.3808131e-12 </wgt>
<wgt id='1397'> +1.3548739e-12 </wgt>
<wgt id='1398'> +1.3596416e-12 </wgt>
<wgt id='1399'> +1.3643250e-12 </wgt>
<wgt id='1400'> +1.3694033e-12 </wgt>
<wgt id='1401'> +1.3751386e-12 </wgt>
<wgt id='1402'> +1.3868973e-12 </wgt>
<wgt id='1403'> +1.3932047e-12 </wgt>
<wgt id='1404'> +1.3997022e-12 </wgt>
<wgt id='1405'> +1.3808131e-12 </wgt>
<wgt id='1406'> +1.3777229e-12 </wgt>
<wgt id='1407'> +1.3793586e-12 </wgt>
<wgt id='1408'> +1.3821102e-12 </wgt>
<wgt id='1409'> +1.3834825e-12 </wgt>
<wgt id='1410'> +1.3533808e-12 </wgt>
<wgt id='1411'> +1.3550841e-12 </wgt>
<wgt id='1412'> +1.3511375e-12 </wgt>
<wgt id='1413'> +1.3503136e-12 </wgt>
<wgt id='1414'> +1.3564058e-12 </wgt>
<wgt id='1415'> +1.3535734e-12 </wgt>
<wgt id='1416'> +1.3532663e-12 </wgt>
<wgt id='1417'> +1.3466454e-12 </wgt>
<wgt id='1418'> +1.3601026e-12 </wgt>
<wgt id='1419'> +1.3561160e-12 </wgt>
<wgt id='1420'> +1.3507157e-12 </wgt>
<wgt id='1421'> +1.3436928e-12 </wgt>
<wgt id='1422'> +1.3575150e-12 </wgt>
<wgt id='1423'> +1.3569768e-12 </wgt>
<wgt id='1424'> +1.3489965e-12 </wgt>
<wgt id='1425'> +1.3517394e-12 </wgt>
<wgt id='1426'> +1.3549934e-12 </wgt>
<wgt id='1427'> +1.3396160e-12 </wgt>
<wgt id='1428'> +1.3607316e-12 </wgt>
<wgt id='1429'> +1.3534263e-12 </wgt>
<wgt id='1430'> +1.3533939e-12 </wgt>
<wgt id='1431'> +1.3426702e-12 </wgt>
<wgt id='1432'> +1.3606132e-12 </wgt>
<wgt id='1433'> +1.3377637e-12 </wgt>
<wgt id='1434'> +1.3662621e-12 </wgt>
<wgt id='1435'> +1.3502969e-12 </wgt>
<wgt id='1436'> +1.3615126e-12 </wgt>
<wgt id='1437'> +1.3523734e-12 </wgt>
<wgt id='1438'> +1.3567963e-12 </wgt>
<wgt id='1439'> +1.3458766e-12 </wgt>
<wgt id='1440'> +1.3699408e-12 </wgt>
<wgt id='1441'> +1.3616411e-12 </wgt>
<wgt id='1442'> +1.3362909e-12 </wgt>
<wgt id='1443'> +1.3495726e-12 </wgt>
<wgt id='1444'> +1.3601640e-12 </wgt>
<wgt id='1445'> +1.3570908e-12 </wgt>
<wgt id='1446'> +1.3521366e-12 </wgt>
<wgt id='1447'> +1.3548163e-12 </wgt>
<wgt id='1448'> +1.3457168e-12 </wgt>
<wgt id='1449'> +1.3498646e-12 </wgt>
<wgt id='1450'> +1.3551884e-12 </wgt>
<wgt id='1451'> +1.3654297e-12 </wgt>
<wgt id='1452'> +1.3349912e-12 </wgt>
<wgt id='1453'> +1.3536225e-12 </wgt>
<wgt id='1454'> +1.3503981e-12 </wgt>
<wgt id='1455'> +1.3556230e-12 </wgt>
<wgt id='1456'> +1.3580428e-12 </wgt>
<wgt id='1457'> +1.3613004e-12 </wgt>
<wgt id='1458'> +1.3505864e-12 </wgt>
<wgt id='1459'> +1.3566568e-12 </wgt>
<wgt id='1460'> +1.3562128e-12 </wgt>
<wgt id='1461'> +1.3533808e-12 </wgt>
<wgt id='1462'> +1.3477780e-12 </wgt>
<wgt id='1463'> +1.3595855e-12 </wgt>
<wgt id='1464'> +1.3529433e-12 </wgt>
<wgt id='1465'> +1.3276460e-12 </wgt>
<wgt id='1466'> +1.3325051e-12 </wgt>
<wgt id='1467'> +1.3372649e-12 </wgt>
<wgt id='1468'> +1.3428090e-12 </wgt>
<wgt id='1469'> +1.3478164e-12 </wgt>
<wgt id='1470'> +1.3584194e-12 </wgt>
<wgt id='1471'> +1.3627583e-12 </wgt>
<wgt id='1472'> +1.3680759e-12 </wgt>
<wgt id='1473'> +1.3529433e-12 </wgt>
<wgt id='1474'> +1.3498754e-12 </wgt>
<wgt id='1475'> +1.3516592e-12 </wgt>
<wgt id='1476'> +1.3542266e-12 </wgt>
<wgt id='1477'> +1.3552012e-12 </wgt>
<wgt id='1478'> +1.3720875e-12 </wgt>
<wgt id='1479'> +1.3725176e-12 </wgt>
<wgt id='1480'> +1.3714739e-12 </wgt>
<wgt id='1481'> +1.3758981e-12 </wgt>
<wgt id='1482'> +1.3741735e-12 </wgt>
<wgt id='1483'> +1.3497593e-12 </wgt>
<wgt id='1484'> +1.3630913e-12 </wgt>
<wgt id='1485'> +1.3783461e-12 </wgt>
<wgt id='1486'> +1.3713204e-12 </wgt>
<wgt id='1487'> +1.3764490e-12 </wgt>
<wgt id='1488'> +1.3700534e-12 </wgt>
<wgt id='1489'> +1.3775312e-12 </wgt>
<wgt id='1490'> +1.3668294e-12 </wgt>
<wgt id='1491'> +1.3799676e-12 </wgt>
<wgt id='1492'> +1.3727249e-12 </wgt>
<wgt id='1493'> +1.3516165e-12 </wgt>
<wgt id='1494'> +1.3640291e-12 </wgt>
<wgt id='1495'> +1.3681923e-12 </wgt>
<wgt id='1496'> +1.3799456e-12 </wgt>
<wgt id='1497'> +1.3715924e-12 </wgt>
<wgt id='1498'> +1.3752528e-12 </wgt>
<wgt id='1499'> +1.3739504e-12 </wgt>
<wgt id='1500'> +1.3735047e-12 </wgt>
<wgt id='1501'> +1.3753367e-12 </wgt>
<wgt id='1502'> +1.3698841e-12 </wgt>
<wgt id='1503'> +1.3740430e-12 </wgt>
<wgt id='1504'> +1.3684966e-12 </wgt>
<wgt id='1505'> +1.3906561e-12 </wgt>
<wgt id='1506'> +1.3720107e-12 </wgt>
<wgt id='1507'> +1.3717279e-12 </wgt>
<wgt id='1508'> +1.3741989e-12 </wgt>
<wgt id='1509'> +1.3766017e-12 </wgt>
<wgt id='1510'> +1.3775177e-12 </wgt>
<wgt id='1511'> +1.3716654e-12 </wgt>
<wgt id='1512'> +1.3711108e-12 </wgt>
<wgt id='1513'> +1.3737816e-12 </wgt>
<wgt id='1514'> +1.3801219e-12 </wgt>
<wgt id='1515'> +1.3805634e-12 </wgt>
<wgt id='1516'> +1.3798759e-12 </wgt>
<wgt id='1517'> +1.3789254e-12 </wgt>
<wgt id='1518'> +1.3743706e-12 </wgt>
<wgt id='1519'> +1.3756096e-12 </wgt>
<wgt id='1520'> +1.3735545e-12 </wgt>
<wgt id='1521'> +1.3756686e-12 </wgt>
<wgt id='1522'> +1.3766719e-12 </wgt>
<wgt id='1523'> +1.3768550e-12 </wgt>
<wgt id='1524'> +1.3790927e-12 </wgt>
<wgt id='1525'> +1.3773833e-12 </wgt>
<wgt id='1526'> +1.3759923e-12 </wgt>
<wgt id='1527'> +1.3764632e-12 </wgt>
<wgt id='1528'> +1.3734364e-12 </wgt>
<wgt id='1529'> +1.3748234e-12 </wgt>
<wgt id='1530'> +1.3775643e-12 </wgt>
<wgt id='1531'> +1.3786587e-12 </wgt>
<wgt id='1532'> +1.3713130e-12 </wgt>
<wgt id='1533'> +1.3849090e-12 </wgt>
<wgt id='1534'> +1.3762571e-12 </wgt>
<wgt id='1535'> +1.3733889e-12 </wgt>
<wgt id='1536'> +1.3830496e-12 </wgt>
<wgt id='1537'> +1.3810828e-12 </wgt>
<wgt id='1538'> +1.3596761e-12 </wgt>
<wgt id='1539'> +1.3752737e-12 </wgt>
<wgt id='1540'> +1.3750129e-12 </wgt>
<wgt id='1541'> +1.3740737e-12 </wgt>
<wgt id='1542'> +1.3728844e-12 </wgt>
<wgt id='1543'> +1.3762840e-12 </wgt>
<wgt id='1544'> +1.3789194e-12 </wgt>
<wgt id='1545'> +1.3760334e-12 </wgt>
<wgt id='1546'> +1.3800471e-12 </wgt>
<wgt id='1547'> +1.3752366e-12 </wgt>
<wgt id='1548'> +1.3777322e-12 </wgt>
<wgt id='1549'> +1.3762348e-12 </wgt>
<wgt id='1550'> +1.3753605e-12 </wgt>
<wgt id='1551'> +1.3758604e-12 </wgt>
<wgt id='1552'> +1.3755593e-12 </wgt>
<wgt id='1553'> +1.3797968e-12 </wgt>
<wgt id='1554'> +1.3728907e-12 </wgt>
<wgt id='1555'> +1.3790585e-12 </wgt>
<wgt id='1556'> +1.3812446e-12 </wgt>
<wgt id='1557'> +1.3746923e-12 </wgt>
<wgt id='1558'> +1.3809980e-12 </wgt>
<wgt id='1559'> +1.3779505e-12 </wgt>
<wgt id='1560'> +1.3778512e-12 </wgt>
<wgt id='1561'> +1.3753230e-12 </wgt>
<wgt id='1562'> +1.3745822e-12 </wgt>
<wgt id='1563'> +1.3765982e-12 </wgt>
<wgt id='1564'> +1.3730588e-12 </wgt>
<wgt id='1565'> +1.3790023e-12 </wgt>
<wgt id='1566'> +1.3749423e-12 </wgt>
<wgt id='1567'> +1.3765413e-12 </wgt>
<wgt id='1568'> +1.3773485e-12 </wgt>
<wgt id='1569'> +1.3770941e-12 </wgt>
<wgt id='1570'> +1.3755455e-12 </wgt>
<wgt id='1571'> +1.3783032e-12 </wgt>
<wgt id='1572'> +1.3773988e-12 </wgt>
<wgt id='1573'> +1.3749169e-12 </wgt>
<wgt id='1574'> +1.3774133e-12 </wgt>
<wgt id='1575'> +1.3765847e-12 </wgt>
<wgt id='1576'> +1.3773255e-12 </wgt>
<wgt id='1577'> +1.3779846e-12 </wgt>
<wgt id='1578'> +1.3755783e-12 </wgt>
<wgt id='1579'> +1.3755099e-12 </wgt>
<wgt id='1580'> +1.3746494e-12 </wgt>
<wgt id='1581'> +1.3790343e-12 </wgt>
<wgt id='1582'> +1.3743939e-12 </wgt>
<wgt id='1583'> +1.3778185e-12 </wgt>
<wgt id='1584'> +1.3760173e-12 </wgt>
<wgt id='1585'> +1.3756495e-12 </wgt>
<wgt id='1586'> +1.3773674e-12 </wgt>
<wgt id='1587'> +1.3762242e-12 </wgt>
<wgt id='1588'> +1.3776010e-12 </wgt>
<wgt id='1589'> +1.3778434e-12 </wgt>
<wgt id='1590'> +1.3759514e-12 </wgt>
<wgt id='1591'> +1.3765770e-12 </wgt>
<wgt id='1592'> +1.3757994e-12 </wgt>
<wgt id='1593'> +1.3754663e-12 </wgt>
<wgt id='1594'> +1.3767164e-12 </wgt>
<wgt id='1595'> +1.3768373e-12 </wgt>
<wgt id='1596'> +1.3758054e-12 </wgt>
<wgt id='1597'> +1.3762644e-12 </wgt>
<wgt id='1598'> +1.3766814e-12 </wgt>
<wgt id='1599'> +1.3769081e-12 </wgt>
<wgt id='1600'> +1.3780580e-12 </wgt>
<wgt id='1601'> +1.3756610e-12 </wgt>
<wgt id='1602'> +1.3758012e-12 </wgt>
<wgt id='1603'> +1.3760320e-12 </wgt>
<wgt id='1604'> +1.3760973e-12 </wgt>
<wgt id='1605'> +1.3758148e-12 </wgt>
<wgt id='1606'> +1.3781346e-12 </wgt>
<wgt id='1607'> +1.3763368e-12 </wgt>
<wgt id='1608'> +1.3759802e-12 </wgt>
<wgt id='1609'> +1.3779783e-12 </wgt>
<wgt id='1610'> +1.3635249e-12 </wgt>
<wgt id='1611'> +1.3895703e-12 </wgt>
<wgt id='1612'> +1.5466812e-12 </wgt>
<wgt id='1613'> +1.5289478e-12 </wgt>
<wgt id='1614'> +1.5390420e-12 </wgt>
<wgt id='1615'> +1.5126622e-12 </wgt>
<wgt id='1616'> +1.4849010e-12 </wgt>
<wgt id='1617'> +1.5720793e-12 </wgt>
<wgt id='1618'> +1.5286050e-12 </wgt>
<wgt id='1619'> +1.4806538e-12 </wgt>
<wgt id='1620'> +1.5437372e-12 </wgt>
<wgt id='1621'> +1.5534753e-12 </wgt>
<wgt id='1622'> +1.5414232e-12 </wgt>
<wgt id='1623'> +1.5396430e-12 </wgt>
<wgt id='1624'> +1.5549788e-12 </wgt>
<wgt id='1625'> +1.5573959e-12 </wgt>
<wgt id='1626'> +1.5382187e-12 </wgt>
<wgt id='1627'> +1.5445265e-12 </wgt>
<wgt id='1628'> +1.4668050e-12 </wgt>
<wgt id='1629'> +1.5617877e-12 </wgt>
<wgt id='1630'> +1.5417427e-12 </wgt>
<wgt id='1631'> +1.5779127e-12 </wgt>
<wgt id='1632'> +1.4399146e-12 </wgt>
<wgt id='1633'> +1.5598103e-12 </wgt>
<wgt id='1634'> +1.5315354e-12 </wgt>
<wgt id='1635'> +1.5775900e-12 </wgt>
<wgt id='1636'> +1.5528544e-12 </wgt>
<wgt id='1637'> +1.5595018e-12 </wgt>
<wgt id='1638'> +1.5440513e-12 </wgt>
<wgt id='1639'> +1.5641995e-12 </wgt>
<wgt id='1640'> +1.5150387e-12 </wgt>
<wgt id='1641'> +1.5372777e-12 </wgt>
<wgt id='1642'> +1.4923736e-12 </wgt>
<wgt id='1643'> +1.5370013e-12 </wgt>
<wgt id='1644'> +1.6047198e-12 </wgt>
<wgt id='1645'> +1.5233771e-12 </wgt>
<wgt id='1646'> +1.5756432e-12 </wgt>
<wgt id='1647'> +1.5620944e-12 </wgt>
<wgt id='1648'> +1.5669305e-12 </wgt>
<wgt id='1649'> +1.5715127e-12 </wgt>
<wgt id='1650'> +1.5309255e-12 </wgt>
<wgt id='1651'> +1.5411528e-12 </wgt>
<wgt id='1652'> +1.5419479e-12 </wgt>
<wgt id='1653'> +1.5573845e-12 </wgt>
<wgt id='1654'> +1.5600772e-12 </wgt>
<wgt id='1655'> +1.5563319e-12 </wgt>
<wgt id='1656'> +1.5569280e-12 </wgt>
<wgt id='1657'> +1.5398060e-12 </wgt>
<wgt id='1658'> +1.5380105e-12 </wgt>
<wgt id='1659'> +1.5549788e-12 </wgt>
<wgt id='1660'> +1.5259191e-12 </wgt>
<wgt id='1661'> +1.5791648e-12 </wgt>
<wgt id='1662'> +1.5724554e-12 </wgt>
<wgt id='1663'> +1.5648032e-12 </wgt>
<wgt id='1664'> +1.5522425e-12 </wgt>
<wgt id='1665'> +1.5223667e-12 </wgt>
<wgt id='1666'> +1.5530864e-12 </wgt>
<wgt id='1667'> +1.5768942e-12 </wgt>
<wgt id='1668'> +1.5200250e-12 </wgt>
<wgt id='1669'> +1.5794754e-12 </wgt>
<wgt id='1670'> +1.5475739e-12 </wgt>
<wgt id='1671'> +1.5296644e-12 </wgt>
<wgt id='1672'> +1.5596640e-12 </wgt>
<wgt id='1673'> +1.5712322e-12 </wgt>
<wgt id='1674'> +1.5619922e-12 </wgt>
<wgt id='1675'> +1.5550958e-12 </wgt>
<wgt id='1676'> +1.5647939e-12 </wgt>
<wgt id='1677'> +1.5495230e-12 </wgt>
<wgt id='1678'> +1.5500791e-12 </wgt>
<wgt id='1679'> +1.5867197e-12 </wgt>
<wgt id='1680'> +1.5791319e-12 </wgt>
<wgt id='1681'> +1.5640095e-12 </wgt>
<wgt id='1682'> +1.5367396e-12 </wgt>
<wgt id='1683'> +1.5700579e-12 </wgt>
<wgt id='1684'> +1.5603531e-12 </wgt>
<wgt id='1685'> +1.5580830e-12 </wgt>
<wgt id='1686'> +1.5490388e-12 </wgt>
<wgt id='1687'> +1.5414361e-12 </wgt>
<wgt id='1688'> +1.4770974e-12 </wgt>
<wgt id='1689'> +1.5727329e-12 </wgt>
<wgt id='1690'> +1.5524615e-12 </wgt>
<wgt id='1691'> +1.5429564e-12 </wgt>
<wgt id='1692'> +1.4484644e-12 </wgt>
<wgt id='1693'> +1.5372380e-12 </wgt>
<wgt id='1694'> +1.5428668e-12 </wgt>
<wgt id='1695'> +1.5251984e-12 </wgt>
<wgt id='1696'> +1.5681297e-12 </wgt>
<wgt id='1697'> +1.5646260e-12 </wgt>
<wgt id='1698'> +1.5282052e-12 </wgt>
<wgt id='1699'> +1.5710133e-12 </wgt>
<wgt id='1700'> +1.5404122e-12 </wgt>
<wgt id='1701'> +1.5809843e-12 </wgt>
<wgt id='1702'> +1.5505343e-12 </wgt>
<wgt id='1703'> +1.5084237e-12 </wgt>
<wgt id='1704'> +1.5478435e-12 </wgt>
<wgt id='1705'> +1.4826564e-12 </wgt>
<wgt id='1706'> +1.5882385e-12 </wgt>
<wgt id='1707'> +1.5196932e-12 </wgt>
<wgt id='1708'> +1.6098565e-12 </wgt>
<wgt id='1709'> +1.5729822e-12 </wgt>
<wgt id='1710'> +1.5538605e-12 </wgt>
<wgt id='1711'> +1.5344470e-12 </wgt>
<wgt id='1712'> +1.6007633e-12 </wgt>
<wgt id='1713'> +1.3501270e-12 </wgt>
<wgt id='1714'> +1.3464920e-12 </wgt>
<wgt id='1715'> +1.3306387e-12 </wgt>
<wgt id='1716'> +1.3445818e-12 </wgt>
<wgt id='1717'> +1.3828405e-12 </wgt>
<wgt id='1718'> +1.3395732e-12 </wgt>
<wgt id='1719'> +1.3625281e-12 </wgt>
<wgt id='1720'> +1.3575482e-12 </wgt>
<wgt id='1721'> +1.3559372e-12 </wgt>
<wgt id='1722'> +1.3431585e-12 </wgt>
<wgt id='1723'> +1.3867903e-12 </wgt>
<wgt id='1724'> +1.4026816e-12 </wgt>
<wgt id='1725'> +1.3249120e-12 </wgt>
<wgt id='1726'> +1.3490405e-12 </wgt>
<wgt id='1727'> +1.3529655e-12 </wgt>
<wgt id='1728'> +1.3461819e-12 </wgt>
<wgt id='1729'> +1.3099223e-12 </wgt>
<wgt id='1730'> +1.3038437e-12 </wgt>
<wgt id='1731'> +1.2429621e-12 </wgt>
<wgt id='1732'> +1.3585043e-12 </wgt>
<wgt id='1733'> +1.3586365e-12 </wgt>
<wgt id='1734'> +1.4145482e-12 </wgt>
<wgt id='1735'> +1.3915462e-12 </wgt>
<wgt id='1736'> +1.3765965e-12 </wgt>
<wgt id='1737'> +1.3571972e-12 </wgt>
<wgt id='1738'> +1.3295710e-12 </wgt>
<wgt id='1739'> +1.3404055e-12 </wgt>
<wgt id='1740'> +1.2702125e-12 </wgt>
<wgt id='1741'> +1.3521802e-12 </wgt>
<wgt id='1742'> +1.3444311e-12 </wgt>
<wgt id='1743'> +1.3365277e-12 </wgt>
<wgt id='1744'> +1.3656145e-12 </wgt>
<wgt id='1745'> +1.4030167e-12 </wgt>
<wgt id='1746'> +1.3805034e-12 </wgt>
<wgt id='1747'> +1.3644746e-12 </wgt>
<wgt id='1748'> +1.3462886e-12 </wgt>
<wgt id='1749'> +1.3139301e-12 </wgt>
<wgt id='1750'> +1.3098465e-12 </wgt>
<wgt id='1751'> +1.3528723e-12 </wgt>
<wgt id='1752'> +1.3317356e-12 </wgt>
<wgt id='1753'> +1.3655003e-12 </wgt>
<wgt id='1754'> +1.3888139e-12 </wgt>
<wgt id='1755'> +1.3586997e-12 </wgt>
<wgt id='1756'> +1.3739792e-12 </wgt>
<wgt id='1757'> +1.3662811e-12 </wgt>
<wgt id='1758'> +1.3996150e-12 </wgt>
<wgt id='1759'> +1.3438327e-12 </wgt>
<wgt id='1760'> +1.3511100e-12 </wgt>
<wgt id='1761'> +1.3408015e-12 </wgt>
<wgt id='1762'> +1.3219271e-12 </wgt>
<wgt id='1763'> +1.3654111e-12 </wgt>
<wgt id='1764'> +1.3843963e-12 </wgt>
<wgt id='1765'> +1.3587542e-12 </wgt>
<wgt id='1766'> +1.3396407e-12 </wgt>
<wgt id='1767'> +1.3701475e-12 </wgt>
<wgt id='1768'> +1.3669068e-12 </wgt>
<wgt id='1769'> +1.3063365e-12 </wgt>
<wgt id='1770'> +1.3081911e-12 </wgt>
<wgt id='1771'> +1.3807831e-12 </wgt>
<wgt id='1772'> +1.3172842e-12 </wgt>
<wgt id='1773'> +1.3757462e-12 </wgt>
<wgt id='1774'> +1.3355972e-12 </wgt>
<wgt id='1775'> +1.3440526e-12 </wgt>
<wgt id='1776'> +1.3264767e-12 </wgt>
<wgt id='1777'> +1.2625520e-12 </wgt>
<wgt id='1778'> +1.3503871e-12 </wgt>
<wgt id='1779'> +1.3399911e-12 </wgt>
<wgt id='1780'> +1.4589067e-12 </wgt>
<wgt id='1781'> +1.3531101e-12 </wgt>
<wgt id='1782'> +1.3321009e-12 </wgt>
<wgt id='1783'> +1.3774030e-12 </wgt>
<wgt id='1784'> +1.3662732e-12 </wgt>
<wgt id='1785'> +1.3460747e-12 </wgt>
<wgt id='1786'> +1.3835132e-12 </wgt>
<wgt id='1787'> +1.3802277e-12 </wgt>
<wgt id='1788'> +1.3380018e-12 </wgt>
<wgt id='1789'> +1.4263880e-12 </wgt>
<wgt id='1790'> +1.3556457e-12 </wgt>
<wgt id='1791'> +1.3710571e-12 </wgt>
<wgt id='1792'> +1.3541462e-12 </wgt>
<wgt id='1793'> +1.3537079e-12 </wgt>
<wgt id='1794'> +1.3803880e-12 </wgt>
<wgt id='1795'> +1.3625844e-12 </wgt>
<wgt id='1796'> +1.3470146e-12 </wgt>
<wgt id='1797'> +1.3438465e-12 </wgt>
<wgt id='1798'> +1.3544514e-12 </wgt>
<wgt id='1799'> +1.3398314e-12 </wgt>
<wgt id='1800'> +1.3879309e-12 </wgt>
<wgt id='1801'> +1.3516935e-12 </wgt>
<wgt id='1802'> +1.3100117e-12 </wgt>
<wgt id='1803'> +1.3502615e-12 </wgt>
<wgt id='1804'> +1.3577350e-12 </wgt>
<wgt id='1805'> +1.3525428e-12 </wgt>
<wgt id='1806'> +1.3200173e-12 </wgt>
<wgt id='1807'> +1.3682767e-12 </wgt>
<wgt id='1808'> +1.2912442e-12 </wgt>
<wgt id='1809'> +1.3440371e-12 </wgt>
<wgt id='1810'> +1.2956876e-12 </wgt>
<wgt id='1811'> +1.3510375e-12 </wgt>
<wgt id='1812'> +1.3338213e-12 </wgt>
<wgt id='1813'> +1.2540698e-12 </wgt>
<wgt id='1814'> +1.6173546e-12 </wgt>
<wgt id='1815'> +1.9189793e-12 </wgt>
<wgt id='1816'> +1.3501270e-12 </wgt>
<wgt id='1817'> +1.3464920e-12 </wgt>
<wgt id='1818'> +1.3306387e-12 </wgt>
<wgt id='1819'> +1.3445818e-12 </wgt>
<wgt id='1820'> +1.3828405e-12 </wgt>
<wgt id='1821'> +1.3395732e-12 </wgt>
<wgt id='1822'> +1.3625281e-12 </wgt>
<wgt id='1823'> +1.3575482e-12 </wgt>
<wgt id='1824'> +1.3559372e-12 </wgt>
<wgt id='1825'> +1.3431585e-12 </wgt>
<wgt id='1826'> +1.3867903e-12 </wgt>
<wgt id='1827'> +1.4026816e-12 </wgt>
<wgt id='1828'> +1.3249120e-12 </wgt>
<wgt id='1829'> +1.3490405e-12 </wgt>
<wgt id='1830'> +1.3529655e-12 </wgt>
<wgt id='1831'> +1.3461819e-12 </wgt>
<wgt id='1832'> +1.3099223e-12 </wgt>
<wgt id='1833'> +1.3038437e-12 </wgt>
<wgt id='1834'> +1.2429621e-12 </wgt>
<wgt id='1835'> +1.3585043e-12 </wgt>
<wgt id='1836'> +1.3586365e-12 </wgt>
<wgt id='1837'> +1.4145482e-12 </wgt>
<wgt id='1838'> +1.3915462e-12 </wgt>
<wgt id='1839'> +1.3765965e-12 </wgt>
<wgt id='1840'> +1.3571972e-12 </wgt>
<wgt id='1841'> +1.3295710e-12 </wgt>
<wgt id='1842'> +1.3404055e-12 </wgt>
<wgt id='1843'> +1.2702125e-12 </wgt>
<wgt id='1844'> +1.3521802e-12 </wgt>
<wgt id='1845'> +1.3444311e-12 </wgt>
<wgt id='1846'> +1.3365277e-12 </wgt>
<wgt id='1847'> +1.3656145e-12 </wgt>
<wgt id='1848'> +1.4030167e-12 </wgt>
<wgt id='1849'> +1.3805034e-12 </wgt>
<wgt id='1850'> +1.3644746e-12 </wgt>
<wgt id='1851'> +1.3462886e-12 </wgt>
<wgt id='1852'> +1.3139301e-12 </wgt>
<wgt id='1853'> +1.3098465e-12 </wgt>
<wgt id='1854'> +1.3528723e-12 </wgt>
<wgt id='1855'> +1.3317356e-12 </wgt>
<wgt id='1856'> +1.3655003e-12 </wgt>
<wgt id='1857'> +1.3888139e-12 </wgt>
<wgt id='1858'> +1.3586997e-12 </wgt>
<wgt id='1859'> +1.3739792e-12 </wgt>
<wgt id='1860'> +1.3662811e-12 </wgt>
<wgt id='1861'> +1.3996150e-12 </wgt>
<wgt id='1862'> +1.3438327e-12 </wgt>
<wgt id='1863'> +1.3511100e-12 </wgt>
<wgt id='1864'> +1.3408015e-12 </wgt>
<wgt id='1865'> +1.3219271e-12 </wgt>
<wgt id='1866'> +1.3654111e-12 </wgt>
<wgt id='1867'> +1.3843963e-12 </wgt>
<wgt id='1868'> +1.3587542e-12 </wgt>
<wgt id='1869'> +1.3396407e-12 </wgt>
<wgt id='1870'> +1.3701475e-12 </wgt>
<wgt id='1871'> +1.3669068e-12 </wgt>
<wgt id='1872'> +1.3063365e-12 </wgt>
<wgt id='1873'> +1.3081911e-12 </wgt>
<wgt id='1874'> +1.3807831e-12 </wgt>
<wgt id='1875'> +1.3172842e-12 </wgt>
<wgt id='1876'> +1.3757462e-12 </wgt>
<wgt id='1877'> +1.3355972e-12 </wgt>
<wgt id='1878'> +1.3440526e-12 </wgt>
<wgt id='1879'> +1.3264767e-12 </wgt>
<wgt id='1880'> +1.2625520e-12 </wgt>
<wgt id='1881'> +1.3503871e-12 </wgt>
<wgt id='1882'> +1.3399911e-12 </wgt>
<wgt id='1883'> +1.4589067e-12 </wgt>
<wgt id='1884'> +1.3531101e-12 </wgt>
<wgt id='1885'> +1.3321009e-12 </wgt>
<wgt id='1886'> +1.3774030e-12 </wgt>
<wgt id='1887'> +1.3662732e-12 </wgt>
<wgt id='1888'> +1.3460747e-12 </wgt>
<wgt id='1889'> +1.3835132e-12 </wgt>
<wgt id='1890'> +1.3802277e-12 </wgt>
<wgt id='1891'> +1.3380018e-12 </wgt>
<wgt id='1892'> +1.4263880e-12 </wgt>
<wgt id='1893'> +1.3556457e-12 </wgt>
<wgt id='1894'> +1.3710571e-12 </wgt>
<wgt id='1895'> +1.3541462e-12 </wgt>
<wgt id='1896'> +1.3537079e-12 </wgt>
<wgt id='1897'> +1.3803880e-12 </wgt>
<wgt id='1898'> +1.3625844e-12 </wgt>
<wgt id='1899'> +1.3470146e-12 </wgt>
<wgt id='1900'> +1.3438465e-12 </wgt>
<wgt id='1901'> +1.3544514e-12 </wgt>
<wgt id='1902'> +1.3398314e-12 </wgt>
<wgt id='1903'> +1.3879309e-12 </wgt>
<wgt id='1904'> +1.3516935e-12 </wgt>
<wgt id='1905'> +1.3100117e-12 </wgt>
<wgt id='1906'> +1.3502615e-12 </wgt>
<wgt id='1907'> +1.3577350e-12 </wgt>
<wgt id='1908'> +1.3525428e-12 </wgt>
<wgt id='1909'> +1.3200173e-12 </wgt>
<wgt id='1910'> +1.3682767e-12 </wgt>
<wgt id='1911'> +1.2912442e-12 </wgt>
<wgt id='1912'> +1.3440371e-12 </wgt>
<wgt id='1913'> +1.2956876e-12 </wgt>
<wgt id='1914'> +1.3510375e-12 </wgt>
<wgt id='1915'> +1.3338213e-12 </wgt>
<wgt id='1916'> +1.2540698e-12 </wgt>
<wgt id='1917'> +1.3461374e-12 </wgt>
<wgt id='1918'> +1.3616974e-12 </wgt>
<wgt id='1919'> +1.3481068e-12 </wgt>
</rwgt>
</event>
<event>
 9      1 +1.5538000e-12 2.80570200e+01 7.81860800e-03 1.47005000e-01
       21 -1    0    0  501  502 +0.0000000000e+00 +0.0000000000e+00 +1.0638638568e+00 1.0638638568e+00 0.0000000000e+00 0.0000e+00 1.0000e+00
        4 -1    0    0  502    0 -0.0000000000e+00 -0.0000000000e+00 -1.2287305750e+03 1.2287313955e+03 1.4200000000e+00 0.0000e+00 1.0000e+00
     1023  2    1    2    0    0 +5.5818836838e+00 +2.3044103033e+01 -1.0682768672e+03 1.0686452459e+03 1.5000278598e+01 0.0000e+00 0.0000e+00
  1000023  2    3    3    0    0 +2.5661528874e+00 +3.3088304678e+00 -1.8608279932e+02 1.8621114121e+02 5.4997644052e+00 0.0000e+00 0.0000e+00
        4  1    1    2  501    0 -5.5818836838e+00 -2.3044103033e+01 -1.5938984392e+02 1.6115001351e+02 1.4200000000e+00 0.0000e+00 1.0000e+00
  1000022  1    4    4    0    0 +2.1851205878e+00 +2.9408048795e+00 -1.6375197471e+02 1.6386925370e+02 5.0000000000e+00 0.0000e+00 1.0000e+00
      -13  1    4    4    0    0 +1.4268528848e-01 +4.0255667115e-01 -1.3919502686e+01 1.3926454627e+01 1.0570000000e-01 0.0000e+00 -1.0000e+00
       13  1    4    4    0    0 +2.3834701114e-01 -3.4531082868e-02 -8.4113219182e+00 8.4154328822e+00 1.0570000000e-01 0.0000e+00 1.0000e+00
  1000022  1    3    3    0    0 +3.0157307964e+00 +1.9735272565e+01 -8.8219406791e+02 8.8243410467e+02 5.0000000000e+00 0.0000e+00 1.0000e+00
<mgrwt>
<rscale>  1 0.28057022E+02</rscale>
<asrwt>0</asrwt>
<pdfrwt beam="1">  1       21 0.16367216E-03 0.28057022E+02</pdfrwt>
<pdfrwt beam="2">  1        4 0.18910751E+00 0.28057022E+02</pdfrwt>
<totfact> 0.17100252E+05</totfact>
</mgrwt>
<rwgt>
<wgt id='1001'> +1.5538000e-12 </wgt>
<wgt id='1002'> +1.6877554e-12 </wgt>
<wgt id='1003'> +1.7007265e-12 </wgt>
<wgt id='1004'> +1.5259251e-12 </wgt>
<wgt id='1005'> +1.7596531e-12 </wgt>
<wgt id='1006'> +1.3570738e-12 </wgt>
<wgt id='1007'> +1.4943170e-12 </wgt>
<wgt id='1008'> +1.5080101e-12 </wgt>
<wgt id='1009'> +1.3292164e-12 </wgt>
<wgt id='1010'> +1.5715193e-12 </wgt>
<wgt id='1011'> +1.8206077e-12 </wgt>
<wgt id='1012'> +1.9412925e-12 </wgt>
<wgt id='1013'> +1.9524144e-12 </wgt>
<wgt id='1014'> +1.7944787e-12 </wgt>
<wgt id='1015'> +2.0010623e-12 </wgt>
<wgt id='1016'> +1.9668226e-12 </wgt>
<wgt id='1017'> +2.0295226e-12 </wgt>
<wgt id='1018'> +2.0348089e-12 </wgt>
<wgt id='1019'> +1.9524144e-12 </wgt>
<wgt id='1020'> +2.0549356e-12 </wgt>
<wgt id='1021'> +1.7178037e-12 </wgt>
<wgt id='1022'> +1.7969132e-12 </wgt>
<wgt id='1023'> +1.8042362e-12 </wgt>
<wgt id='1024'> +1.7007265e-12 </wgt>
<wgt id='1025'> +1.8352315e-12 </wgt>
<wgt id='1026'> +2.3045517e-12 </wgt>
<wgt id='1027'> +2.3344003e-12 </wgt>
<wgt id='1028'> +2.3359371e-12 </wgt>
<wgt id='1029'> +2.2960275e-12 </wgt>
<wgt id='1030'> +2.3368549e-12 </wgt>
<wgt id='1031'> +1.1048930e-12 </wgt>
<wgt id='1032'> +1.3081379e-12 </wgt>
<wgt id='1033'> +1.3292164e-12 </wgt>
<wgt id='1034'> +1.0649207e-12 </wgt>
<wgt id='1035'> +1.4272550e-12 </wgt>
<wgt id='1036'> +9.6500274e-13 </wgt>
<wgt id='1037'> +1.1582085e-12 </wgt>
<wgt id='1038'> +1.1785974e-12 </wgt>
<wgt id='1039'> +9.2764060e-13 </wgt>
<wgt id='1040'> +1.2746596e-12 </wgt>
<wgt id='1041'> +1.2946175e-12 </wgt>
<wgt id='1042'> +1.5046482e-12 </wgt>
<wgt id='1043'> +1.5259251e-12 </wgt>
<wgt id='1044'> +1.2523403e-12 </wgt>
<wgt id='1045'> +1.6230620e-12 </wgt>
<wgt id='1046'> +1.5538000e-12 </wgt>
<wgt id='1047'> +1.6217262e-12 </wgt>
<wgt id='1048'> +1.3107557e-12 </wgt>
<wgt id='1049'> +2.3320387e-12 </wgt>
<wgt id='1050'> +2.2461408e-12 </wgt>
<wgt id='1051'> +1.6135761e-12 </wgt>
<wgt id='1052'> +1.8795062e-12 </wgt>
<wgt id='1053'> +1.1774403e-12 </wgt>
<wgt id='1054'> +1.2726843e-12 </wgt>
<wgt id='1055'> +1.4140475e-12 </wgt>
<wgt id='1056'> +3.0113563e-12 </wgt>
<wgt id='1057'> +2.1093439e-12 </wgt>
<wgt id='1058'> +1.1842409e-12 </wgt>
<wgt id='1059'> +1.9921473e-12 </wgt>
<wgt id='1060'> +1.0731531e-12 </wgt>
<wgt id='1061'> +1.3482413e-12 </wgt>
<wgt id='1062'> +1.7947882e-12 </wgt>
<wgt id='1063'> +1.3595004e-12 </wgt>
<wgt id='1064'> +1.3277908e-12 </wgt>
<wgt id='1065'> +1.0355831e-12 </wgt>
<wgt id='1066'> +1.7276640e-12 </wgt>
<wgt id='1067'> +9.4544891e-13 </wgt>
<wgt id='1068'> +6.6085614e-13 </wgt>
<wgt id='1069'> +1.2721703e-12 </wgt>
<wgt id='1070'> +1.6889688e-12 </wgt>
<wgt id='1071'> +6.0914216e-13 </wgt>
<wgt id='1072'> +1.1307915e-12 </wgt>
<wgt id='1073'> +3.2190432e-12 </wgt>
<wgt id='1074'> +1.4108980e-12 </wgt>
<wgt id='1075'> +1.8657046e-12 </wgt>
<wgt id='1076'> +1.9837555e-12 </wgt>
<wgt id='1077'> +2.3350487e-12 </wgt>
<wgt id='1078'> +1.5700179e-12 </wgt>
<wgt id='1079'> +1.2936588e-12 </wgt>
<wgt id='1080'> +1.6566583e-12 </wgt>
<wgt id='1081'> +2.2919869e-12 </wgt>
<wgt id='1082'> +8.8301535e-13 </wgt>
<wgt id='1083'> +1.0878518e-12 </wgt>
<wgt id='1084'> +2.0658602e-12 </wgt>
<wgt id='1085'> +1.3723449e-12 </wgt>
<wgt id='1086'> +1.6258283e-12 </wgt>
<wgt id='1087'> +1.1087204e-12 </wgt>
<wgt id='1088'> +1.1793861e-12 </wgt>
<wgt id='1089'> +1.7436333e-12 </wgt>
<wgt id='1090'> +1.4389462e-12 </wgt>
<wgt id='1091'> +1.4770093e-12 </wgt>
<wgt id='1092'> +1.3317132e-12 </wgt>
<wgt id='1093'> +1.9855446e-12 </wgt>
<wgt id='1094'> +1.5287265e-12 </wgt>
<wgt id='1095'> +1.3878140e-12 </wgt>
<wgt id='1096'> +1.8966362e-12 </wgt>
<wgt id='1097'> +1.3764926e-12 </wgt>
<wgt id='1098'> +1.3159087e-12 </wgt>
<wgt id='1099'> +1.5573165e-12 </wgt>
<wgt id='1100'> +6.9507113e-13 </wgt>
<wgt id='1101'> +1.2249882e-12 </wgt>
<wgt id='1102'> +1.3809801e-12 </wgt>
<wgt id='1103'> +6.7418915e-13 </wgt>
<wgt id='1104'> +2.0642066e-13 </wgt>
<wgt id='1105'> +1.0818170e-12 </wgt>
<wgt id='1106'> +6.2824263e-13 </wgt>
<wgt id='1107'> +2.1765006e-12 </wgt>
<wgt id='1108'> +1.1514455e-12 </wgt>
<wgt id='1109'> +2.2596819e-12 </wgt>
<wgt id='1110'> +1.2177295e-12 </wgt>
<wgt id='1111'> +1.1844508e-12 </wgt>
<wgt id='1112'> +1.1271156e-12 </wgt>
<wgt id='1113'> +1.6038692e-12 </wgt>
<wgt id='1114'> +1.7602938e-12 </wgt>
<wgt id='1115'> +1.9637265e-12 </wgt>
<wgt id='1116'> +1.9580659e-12 </wgt>
<wgt id='1117'> +8.7326045e-13 </wgt>
<wgt id='1118'> +2.4172016e-12 </wgt>
<wgt id='1119'> +1.8125628e-12 </wgt>
<wgt id='1120'> +2.2751359e-12 </wgt>
<wgt id='1121'> +1.3774797e-12 </wgt>
<wgt id='1122'> +1.4791865e-12 </wgt>
<wgt id='1123'> +2.2679763e-12 </wgt>
<wgt id='1124'> +7.6188696e-13 </wgt>
<wgt id='1125'> +1.7264029e-12 </wgt>
<wgt id='1126'> +2.7285643e-12 </wgt>
<wgt id='1127'> +2.0519740e-12 </wgt>
<wgt id='1128'> +1.7947882e-12 </wgt>
<wgt id='1129'> +2.5989809e-12 </wgt>
<wgt id='1130'> +1.5511653e-12 </wgt>
<wgt id='1131'> +1.4614309e-12 </wgt>
<wgt id='1132'> +2.2049406e-12 </wgt>
<wgt id='1133'> +1.0795079e-12 </wgt>
<wgt id='1134'> +2.5667863e-12 </wgt>
<wgt id='1135'> +2.5661041e-12 </wgt>
<wgt id='1136'> +1.3338306e-12 </wgt>
<wgt id='1137'> +8.9406232e-13 </wgt>
<wgt id='1138'> +1.4843392e-12 </wgt>
<wgt id='1139'> +1.2844190e-12 </wgt>
<wgt id='1140'> +1.7709997e-12 </wgt>
<wgt id='1141'> +1.6287634e-12 </wgt>
<wgt id='1142'> +7.3573264e-13 </wgt>
<wgt id='1143'> +1.6858732e-12 </wgt>
<wgt id='1144'> +1.3928572e-12 </wgt>
<wgt id='1145'> +1.2280265e-12 </wgt>
<wgt id='1146'> +1.0775175e-12 </wgt>
<wgt id='1147'> +1.3076952e-12 </wgt>
<wgt id='1148'> +1.3404794e-12 </wgt>
<wgt id='1149'> +1.6057587e-12 </wgt>
<wgt id='1150'> +1.4000674e-12 </wgt>
<wgt id='1151'> +2.3754025e-12 </wgt>
<wgt id='1152'> +3.4256520e-12 </wgt>
<wgt id='1153'> +3.4062843e-12 </wgt>
<wgt id='1154'> +3.4368950e-12 </wgt>
<wgt id='1155'> +3.4280442e-12 </wgt>
<wgt id='1156'> +3.4245035e-12 </wgt>
<wgt id='1157'> +3.4112302e-12 </wgt>
<wgt id='1158'> +3.4450554e-12 </wgt>
<wgt id='1159'> +3.4134018e-12 </wgt>
<wgt id='1160'> +3.4334559e-12 </wgt>
<wgt id='1161'> +3.4009857e-12 </wgt>
<wgt id='1162'> +3.4425058e-12 </wgt>
<wgt id='1163'> +3.4440618e-12 </wgt>
<wgt id='1164'> +3.4073205e-12 </wgt>
<wgt id='1165'> +3.4034331e-12 </wgt>
<wgt id='1166'> +3.4468947e-12 </wgt>
<wgt id='1167'> +3.3855535e-12 </wgt>
<wgt id='1168'> +3.4690842e-12 </wgt>
<wgt id='1169'> +3.4084250e-12 </wgt>
<wgt id='1170'> +3.4392663e-12 </wgt>
<wgt id='1171'> +3.4563364e-12 </wgt>
<wgt id='1172'> +3.3876591e-12 </wgt>
<wgt id='1173'> +3.5168479e-12 </wgt>
<wgt id='1174'> +3.3298797e-12 </wgt>
<wgt id='1175'> +3.4082490e-12 </wgt>
<wgt id='1176'> +3.4373917e-12 </wgt>
<wgt id='1177'> +3.4291361e-12 </wgt>
<wgt id='1178'> +3.4191291e-12 </wgt>
<wgt id='1179'> +3.3757979e-12 </wgt>
<wgt id='1180'> +3.4600632e-12 </wgt>
<wgt id='1181'> +3.4386572e-12 </wgt>
<wgt id='1182'> +3.4167459e-12 </wgt>
<wgt id='1183'> +3.4334686e-12 </wgt>
<wgt id='1184'> +3.4250386e-12 </wgt>
<wgt id='1185'> +3.4611458e-12 </wgt>
<wgt id='1186'> +3.4088416e-12 </wgt>
<wgt id='1187'> +3.4253204e-12 </wgt>
<wgt id='1188'> +3.4256721e-12 </wgt>
<wgt id='1189'> +3.4547413e-12 </wgt>
<wgt id='1190'> +3.3438610e-12 </wgt>
<wgt id='1191'> +3.4340775e-12 </wgt>
<wgt id='1192'> +3.4235821e-12 </wgt>
<wgt id='1193'> +1.4222053e-12 </wgt>
<wgt id='1194'> +1.4043830e-12 </wgt>
<wgt id='1195'> +1.4367667e-12 </wgt>
<wgt id='1196'> +1.4214343e-12 </wgt>
<wgt id='1197'> +1.4231466e-12 </wgt>
<wgt id='1198'> +1.4255387e-12 </wgt>
<wgt id='1199'> +1.4173473e-12 </wgt>
<wgt id='1200'> +1.4235471e-12 </wgt>
<wgt id='1201'> +1.4213184e-12 </wgt>
<wgt id='1202'> +1.4168131e-12 </wgt>
<wgt id='1203'> +1.4298818e-12 </wgt>
<wgt id='1204'> +1.3908798e-12 </wgt>
<wgt id='1205'> +1.4416062e-12 </wgt>
<wgt id='1206'> +1.4288486e-12 </wgt>
<wgt id='1207'> +1.4131707e-12 </wgt>
<wgt id='1208'> +1.4155220e-12 </wgt>
<wgt id='1209'> +1.4247782e-12 </wgt>
<wgt id='1210'> +1.3903852e-12 </wgt>
<wgt id='1211'> +1.4653831e-12 </wgt>
<wgt id='1212'> +1.4237198e-12 </wgt>
<wgt id='1213'> +1.4217034e-12 </wgt>
<wgt id='1214'> +1.4781075e-12 </wgt>
<wgt id='1215'> +1.3208006e-12 </wgt>
<wgt id='1216'> +1.3816818e-12 </wgt>
<wgt id='1217'> +1.4469782e-12 </wgt>
<wgt id='1218'> +1.4054623e-12 </wgt>
<wgt id='1219'> +1.4297848e-12 </wgt>
<wgt id='1220'> +1.4219912e-12 </wgt>
<wgt id='1221'> +1.4330647e-12 </wgt>
<wgt id='1222'> +1.4258181e-12 </wgt>
<wgt id='1223'> +1.4241606e-12 </wgt>
<wgt id='1224'> +1.4135079e-12 </wgt>
<wgt id='1225'> +1.4257138e-12 </wgt>
<wgt id='1226'> +1.4253074e-12 </wgt>
<wgt id='1227'> +1.4206655e-12 </wgt>
<wgt id='1228'> +1.4401540e-12 </wgt>
<wgt id='1229'> +1.4111038e-12 </wgt>
<wgt id='1230'> +1.4026891e-12 </wgt>
<wgt id='1231'> +1.4781374e-12 </wgt>
<wgt id='1232'> +1.4284359e-12 </wgt>
<wgt id='1233'> +1.4206209e-12 </wgt>
<wgt id='1234'> +1.4222053e-12 </wgt>
<wgt id='1235'> +1.4128136e-12 </wgt>
<wgt id='1236'> +1.4164664e-12 </wgt>
<wgt id='1237'> +1.4193062e-12 </wgt>
<wgt id='1238'> +1.4250856e-12 </wgt>
<wgt id='1239'> +1.4269134e-12 </wgt>
<wgt id='1240'> +1.4290006e-12 </wgt>
<wgt id='1241'> +1.3331983e-12 </wgt>
<wgt id='1242'> +1.3172736e-12 </wgt>
<wgt id='1243'> +1.3487929e-12 </wgt>
<wgt id='1244'> +1.3301016e-12 </wgt>
<wgt id='1245'> +1.3355118e-12 </wgt>
<wgt id='1246'> +1.3343365e-12 </wgt>
<wgt id='1247'> +1.3323112e-12 </wgt>
<wgt id='1248'> +1.3330697e-12 </wgt>
<wgt id='1249'> +1.3333840e-12 </wgt>
<wgt id='1250'> +1.3281296e-12 </wgt>
<wgt id='1251'> +1.3368074e-12 </wgt>
<wgt id='1252'> +1.3311116e-12 </wgt>
<wgt id='1253'> +1.3348055e-12 </wgt>
<wgt id='1254'> +1.3108226e-12 </wgt>
<wgt id='1255'> +1.3466805e-12 </wgt>
<wgt id='1256'> +1.3373046e-12 </wgt>
<wgt id='1257'> +1.3229722e-12 </wgt>
<wgt id='1258'> +1.2508443e-12 </wgt>
<wgt id='1259'> +1.4002844e-12 </wgt>
<wgt id='1260'> +1.3199764e-12 </wgt>
<wgt id='1261'> +1.3504717e-12 </wgt>
<wgt id='1262'> +1.3172139e-12 </wgt>
<wgt id='1263'> +1.3399725e-12 </wgt>
<wgt id='1264'> +1.3268550e-12 </wgt>
<wgt id='1265'> +1.3367515e-12 </wgt>
<wgt id='1266'> +1.3553295e-12 </wgt>
<wgt id='1267'> +1.3167131e-12 </wgt>
<wgt id='1268'> +1.3327100e-12 </wgt>
<wgt id='1269'> +1.3416187e-12 </wgt>
<wgt id='1270'> +1.3335676e-12 </wgt>
<wgt id='1271'> +1.3524510e-12 </wgt>
<wgt id='1272'> +1.3253473e-12 </wgt>
<wgt id='1273'> +1.3374294e-12 </wgt>
<wgt id='1274'> +1.3281687e-12 </wgt>
<wgt id='1275'> +1.3429985e-12 </wgt>
<wgt id='1276'> +1.3151995e-12 </wgt>
<wgt id='1277'> +1.3501268e-12 </wgt>
<wgt id='1278'> +1.3587722e-12 </wgt>
<wgt id='1279'> +1.3499287e-12 </wgt>
<wgt id='1280'> +1.3327090e-12 </wgt>
<wgt id='1281'> +1.3464449e-12 </wgt>
<wgt id='1282'> +1.3331983e-12 </wgt>
<wgt id='1283'> +1.3229563e-12 </wgt>
<wgt id='1284'> +1.3268868e-12 </wgt>
<wgt id='1285'> +1.3300372e-12 </wgt>
<wgt id='1286'> +1.3354306e-12 </wgt>
<wgt id='1287'> +1.3370099e-12 </wgt>
<wgt id='1288'> +1.3383762e-12 </wgt>
<wgt id='1289'> +1.3787140e-12 </wgt>
<wgt id='1290'> +1.3855678e-12 </wgt>
<wgt id='1291'> +1.3714276e-12 </wgt>
<wgt id='1292'> +1.3802714e-12 </wgt>
<wgt id='1293'> +1.3776665e-12 </wgt>
<wgt id='1294'> +1.3666433e-12 </wgt>
<wgt id='1295'> +1.3900654e-12 </wgt>
<wgt id='1296'> +1.3805703e-12 </wgt>
<wgt id='1297'> +1.3762935e-12 </wgt>
<wgt id='1298'> +1.3957426e-12 </wgt>
<wgt id='1299'> +1.3576079e-12 </wgt>
<wgt id='1300'> +1.3845765e-12 </wgt>
<wgt id='1301'> +1.3670596e-12 </wgt>
<wgt id='1302'> +1.3762691e-12 </wgt>
<wgt id='1303'> +1.3821334e-12 </wgt>
<wgt id='1304'> +1.3752897e-12 </wgt>
<wgt id='1305'> +1.3810878e-12 </wgt>
<wgt id='1306'> +1.3661582e-12 </wgt>
<wgt id='1307'> +1.3930234e-12 </wgt>
<wgt id='1308'> +1.3723013e-12 </wgt>
<wgt id='1309'> +1.3836643e-12 </wgt>
<wgt id='1310'> +1.3739492e-12 </wgt>
<wgt id='1311'> +1.3840427e-12 </wgt>
<wgt id='1312'> +1.3648410e-12 </wgt>
<wgt id='1313'> +1.3935826e-12 </wgt>
<wgt id='1314'> +1.3473832e-12 </wgt>
<wgt id='1315'> +1.4133187e-12 </wgt>
<wgt id='1316'> +1.3845439e-12 </wgt>
<wgt id='1317'> +1.3832899e-12 </wgt>
<wgt id='1318'> +1.3431610e-12 </wgt>
<wgt id='1319'> +1.4194061e-12 </wgt>
<wgt id='1320'> +1.3164951e-12 </wgt>
<wgt id='1321'> +1.4247050e-12 </wgt>
<wgt id='1322'> +1.3854702e-12 </wgt>
<wgt id='1323'> +1.3696160e-12 </wgt>
<wgt id='1324'> +1.3900853e-12 </wgt>
<wgt id='1325'> +1.3613976e-12 </wgt>
<wgt id='1326'> +1.3799026e-12 </wgt>
<wgt id='1327'> +1.3809752e-12 </wgt>
<wgt id='1328'> +1.3661518e-12 </wgt>
<wgt id='1329'> +1.3908807e-12 </wgt>
<wgt id='1330'> +1.3591014e-12 </wgt>
<wgt id='1331'> +1.4038422e-12 </wgt>
<wgt id='1332'> +1.4031977e-12 </wgt>
<wgt id='1333'> +1.3846197e-12 </wgt>
<wgt id='1334'> +1.3758903e-12 </wgt>
<wgt id='1335'> +1.3874568e-12 </wgt>
<wgt id='1336'> +1.3689887e-12 </wgt>
<wgt id='1337'> +1.4260036e-12 </wgt>
<wgt id='1338'> +1.3696289e-12 </wgt>
<wgt id='1339'> +1.3845067e-12 </wgt>
<wgt id='1340'> +1.2897063e-12 </wgt>
<wgt id='1341'> +1.2960936e-12 </wgt>
<wgt id='1342'> +1.2828615e-12 </wgt>
<wgt id='1343'> +1.2912990e-12 </wgt>
<wgt id='1344'> +1.2886109e-12 </wgt>
<wgt id='1345'> +1.2773201e-12 </wgt>
<wgt id='1346'> +1.3009139e-12 </wgt>
<wgt id='1347'> +1.2918950e-12 </wgt>
<wgt id='1348'> +1.2870807e-12 </wgt>
<wgt id='1349'> +1.3050229e-12 </wgt>
<wgt id='1350'> +1.2747308e-12 </wgt>
<wgt id='1351'> +1.2954294e-12 </wgt>
<wgt id='1352'> +1.2771778e-12 </wgt>
<wgt id='1353'> +1.2864219e-12 </wgt>
<wgt id='1354'> +1.2955240e-12 </wgt>
<wgt id='1355'> +1.2867310e-12 </wgt>
<wgt id='1356'> +1.2913181e-12 </wgt>
<wgt id='1357'> +1.2762566e-12 </wgt>
<wgt id='1358'> +1.3055366e-12 </wgt>
<wgt id='1359'> +1.2867662e-12 </wgt>
<wgt id='1360'> +1.2922731e-12 </wgt>
<wgt id='1361'> +1.2860323e-12 </wgt>
<wgt id='1362'> +1.2947161e-12 </wgt>
<wgt id='1363'> +1.2770317e-12 </wgt>
<wgt id='1364'> +1.2991839e-12 </wgt>
<wgt id='1365'> +1.3294387e-12 </wgt>
<wgt id='1366'> +1.2455590e-12 </wgt>
<wgt id='1367'> +1.2956276e-12 </wgt>
<wgt id='1368'> +1.2919070e-12 </wgt>
<wgt id='1369'> +1.2638257e-12 </wgt>
<wgt id='1370'> +1.3203185e-12 </wgt>
<wgt id='1371'> +1.2498869e-12 </wgt>
<wgt id='1372'> +1.3342238e-12 </wgt>
<wgt id='1373'> +1.3058283e-12 </wgt>
<wgt id='1374'> +1.2736148e-12 </wgt>
<wgt id='1375'> +1.2994102e-12 </wgt>
<wgt id='1376'> +1.2727748e-12 </wgt>
<wgt id='1377'> +1.2923775e-12 </wgt>
<wgt id='1378'> +1.2907036e-12 </wgt>
<wgt id='1379'> +1.2792058e-12 </wgt>
<wgt id='1380'> +1.3015161e-12 </wgt>
<wgt id='1381'> +1.2715137e-12 </wgt>
<wgt id='1382'> +1.3116542e-12 </wgt>
<wgt id='1383'> +1.3106752e-12 </wgt>
<wgt id='1384'> +1.2953575e-12 </wgt>
<wgt id='1385'> +1.2861085e-12 </wgt>
<wgt id='1386'> +1.2993294e-12 </wgt>
<wgt id='1387'> +1.2784952e-12 </wgt>
<wgt id='1388'> +1.3366750e-12 </wgt>
<wgt id='1389'> +1.2766936e-12 </wgt>
<wgt id='1390'> +1.2985762e-12 </wgt>
<wgt id='1391'> +1.3326458e-12 </wgt>
<wgt id='1392'> +1.2088691e-12 </wgt>
<wgt id='1393'> +1.2476582e-12 </wgt>
<wgt id='1394'> +1.2915489e-12 </wgt>
<wgt id='1395'> +1.3879776e-12 </wgt>
<wgt id='1396'> +1.3366206e-12 </wgt>
<wgt id='1397'> +1.4983589e-12 </wgt>
<wgt id='1398'> +1.4607409e-12 </wgt>
<wgt id='1399'> +1.4259895e-12 </wgt>
<wgt id='1400'> +1.3943787e-12 </wgt>
<wgt id='1401'> +1.3646817e-12 </wgt>
<wgt id='1402'> +1.3106367e-12 </wgt>
<wgt id='1403'> +1.2857126e-12 </wgt>
<wgt id='1404'> +1.2619962e-12 </wgt>
<wgt id='1405'> +1.3366206e-12 </wgt>
<wgt id='1406'> +1.3277949e-12 </wgt>
<wgt id='1407'> +1.3321407e-12 </wgt>
<wgt id='1408'> +1.3410976e-12 </wgt>
<wgt id='1409'> +1.3462844e-12 </wgt>
<wgt id='1410'> +1.3411130e-12 </wgt>
<wgt id='1411'> +1.3514449e-12 </wgt>
<wgt id='1412'> +1.3278966e-12 </wgt>
<wgt id='1413'> +1.3339826e-12 </wgt>
<wgt id='1414'> +1.3481213e-12 </wgt>
<wgt id='1415'> +1.3388827e-12 </wgt>
<wgt id='1416'> +1.3420472e-12 </wgt>
<wgt id='1417'> +1.3360562e-12 </wgt>
<wgt id='1418'> +1.3461934e-12 </wgt>
<wgt id='1419'> +1.3480089e-12 </wgt>
<wgt id='1420'> +1.3344784e-12 </wgt>
<wgt id='1421'> +1.3125966e-12 </wgt>
<wgt id='1422'> +1.3534306e-12 </wgt>
<wgt id='1423'> +1.3402594e-12 </wgt>
<wgt id='1424'> +1.3421970e-12 </wgt>
<wgt id='1425'> +1.3327333e-12 </wgt>
<wgt id='1426'> +1.3501768e-12 </wgt>
<wgt id='1427'> +1.3103368e-12 </wgt>
<wgt id='1428'> +1.3582861e-12 </wgt>
<wgt id='1429'> +1.3383486e-12 </wgt>
<wgt id='1430'> +1.3451776e-12 </wgt>
<wgt id='1431'> +1.3445861e-12 </wgt>
<wgt id='1432'> +1.3387183e-12 </wgt>
<wgt id='1433'> +1.3313902e-12 </wgt>
<wgt id='1434'> +1.3475547e-12 </wgt>
<wgt id='1435'> +1.3411488e-12 </wgt>
<wgt id='1436'> +1.3423096e-12 </wgt>
<wgt id='1437'> +1.3448532e-12 </wgt>
<wgt id='1438'> +1.3498086e-12 </wgt>
<wgt id='1439'> +1.3644136e-12 </wgt>
<wgt id='1440'> +1.2738686e-12 </wgt>
<wgt id='1441'> +1.3237834e-12 </wgt>
<wgt id='1442'> +1.3793775e-12 </wgt>
<wgt id='1443'> +1.3501936e-12 </wgt>
<wgt id='1444'> +1.3285592e-12 </wgt>
<wgt id='1445'> +1.3143748e-12 </wgt>
<wgt id='1446'> +1.3573907e-12 </wgt>
<wgt id='1447'> +1.3413559e-12 </wgt>
<wgt id='1448'> +1.3480240e-12 </wgt>
<wgt id='1449'> +1.3257918e-12 </wgt>
<wgt id='1450'> +1.3523378e-12 </wgt>
<wgt id='1451'> +1.3642761e-12 </wgt>
<wgt id='1452'> +1.3163824e-12 </wgt>
<wgt id='1453'> +1.3434750e-12 </wgt>
<wgt id='1454'> +1.3279588e-12 </wgt>
<wgt id='1455'> +1.3587034e-12 </wgt>
<wgt id='1456'> +1.3529930e-12 </wgt>
<wgt id='1457'> +1.3463667e-12 </wgt>
<wgt id='1458'> +1.3419907e-12 </wgt>
<wgt id='1459'> +1.3666946e-12 </wgt>
<wgt id='1460'> +1.3464298e-12 </wgt>
<wgt id='1461'> +1.3411130e-12 </wgt>
<wgt id='1462'> +1.2918001e-12 </wgt>
<wgt id='1463'> +1.4051185e-12 </wgt>
<wgt id='1464'> +1.3476323e-12 </wgt>
<wgt id='1465'> +1.5291889e-12 </wgt>
<wgt id='1466'> +1.4855886e-12 </wgt>
<wgt id='1467'> +1.4464984e-12 </wgt>
<wgt id='1468'> +1.4146944e-12 </wgt>
<wgt id='1469'> +1.3789401e-12 </wgt>
<wgt id='1470'> +1.3170640e-12 </wgt>
<wgt id='1471'> +1.2881946e-12 </wgt>
<wgt id='1472'> +1.2616666e-12 </wgt>
<wgt id='1473'> +1.3476323e-12 </wgt>
<wgt id='1474'> +1.3370260e-12 </wgt>
<wgt id='1475'> +1.3431418e-12 </wgt>
<wgt id='1476'> +1.3525490e-12 </wgt>
<wgt id='1477'> +1.3572802e-12 </wgt>
<wgt id='1478'> +1.3028270e-12 </wgt>
<wgt id='1479'> +1.3092890e-12 </wgt>
<wgt id='1480'> +1.2841664e-12 </wgt>
<wgt id='1481'> +1.3237915e-12 </wgt>
<wgt id='1482'> +1.3035091e-12 </wgt>
<wgt id='1483'> +1.2520374e-12 </wgt>
<wgt id='1484'> +1.3236468e-12 </wgt>
<wgt id='1485'> +1.3155090e-12 </wgt>
<wgt id='1486'> +1.3010883e-12 </wgt>
<wgt id='1487'> +1.3535501e-12 </wgt>
<wgt id='1488'> +1.3100665e-12 </wgt>
<wgt id='1489'> +1.2592742e-12 </wgt>
<wgt id='1490'> +1.3018809e-12 </wgt>
<wgt id='1491'> +1.2853194e-12 </wgt>
<wgt id='1492'> +1.3030924e-12 </wgt>
<wgt id='1493'> +1.2930402e-12 </wgt>
<wgt id='1494'> +1.3060070e-12 </wgt>
<wgt id='1495'> +1.3110316e-12 </wgt>
<wgt id='1496'> +1.2766296e-12 </wgt>
<wgt id='1497'> +1.2926832e-12 </wgt>
<wgt id='1498'> +1.2898631e-12 </wgt>
<wgt id='1499'> +1.2983822e-12 </wgt>
<wgt id='1500'> +1.3172717e-12 </wgt>
<wgt id='1501'> +1.2870132e-12 </wgt>
<wgt id='1502'> +1.2890462e-12 </wgt>
<wgt id='1503'> +1.3035342e-12 </wgt>
<wgt id='1504'> +1.2945403e-12 </wgt>
<wgt id='1505'> +1.2998942e-12 </wgt>
<wgt id='1506'> +1.2934132e-12 </wgt>
<wgt id='1507'> +1.3093194e-12 </wgt>
<wgt id='1508'> +1.2702951e-12 </wgt>
<wgt id='1509'> +1.2528764e-12 </wgt>
<wgt id='1510'> +1.2473054e-12 </wgt>
<wgt id='1511'> +1.1976260e-12 </wgt>
<wgt id='1512'> +1.2050906e-12 </wgt>
<wgt id='1513'> +1.3219438e-12 </wgt>
<wgt id='1514'> +1.2800273e-12 </wgt>
<wgt id='1515'> +1.1920660e-12 </wgt>
<wgt id='1516'> +1.3081640e-12 </wgt>
<wgt id='1517'> +1.2526002e-12 </wgt>
<wgt id='1518'> +1.2854758e-12 </wgt>
<wgt id='1519'> +1.2049438e-12 </wgt>
<wgt id='1520'> +1.2722868e-12 </wgt>
<wgt id='1521'> +1.2907629e-12 </wgt>
<wgt id='1522'> +1.2419933e-12 </wgt>
<wgt id='1523'> +1.2084559e-12 </wgt>
<wgt id='1524'> +1.2482862e-12 </wgt>
<wgt id='1525'> +1.2556783e-12 </wgt>
<wgt id='1526'> +1.2337682e-12 </wgt>
<wgt id='1527'> +1.2469941e-12 </wgt>
<wgt id='1528'> +1.2628215e-12 </wgt>
<wgt id='1529'> +1.2531333e-12 </wgt>
<wgt id='1530'> +1.2582975e-12 </wgt>
<wgt id='1531'> +1.1973697e-12 </wgt>
<wgt id='1532'> +1.3239338e-12 </wgt>
<wgt id='1533'> +1.2128717e-12 </wgt>
<wgt id='1534'> +1.2452898e-12 </wgt>
<wgt id='1535'> +1.2803743e-12 </wgt>
<wgt id='1536'> +1.1484388e-12 </wgt>
<wgt id='1537'> +1.1896596e-12 </wgt>
<wgt id='1538'> +1.5168282e-12 </wgt>
<wgt id='1539'> +1.3173478e-12 </wgt>
<wgt id='1540'> +1.2816471e-12 </wgt>
<wgt id='1541'> +1.3255075e-12 </wgt>
<wgt id='1542'> +1.2906091e-12 </wgt>
<wgt id='1543'> +1.2120857e-12 </wgt>
<wgt id='1544'> +1.2691648e-12 </wgt>
<wgt id='1545'> +1.2882126e-12 </wgt>
<wgt id='1546'> +1.2031302e-12 </wgt>
<wgt id='1547'> +1.2670874e-12 </wgt>
<wgt id='1548'> +1.2715637e-12 </wgt>
<wgt id='1549'> +1.2927193e-12 </wgt>
<wgt id='1550'> +1.2715565e-12 </wgt>
<wgt id='1551'> +1.2411210e-12 </wgt>
<wgt id='1552'> +1.2071820e-12 </wgt>
<wgt id='1553'> +1.2311710e-12 </wgt>
<wgt id='1554'> +1.2625718e-12 </wgt>
<wgt id='1555'> +1.2263046e-12 </wgt>
<wgt id='1556'> +1.2058467e-12 </wgt>
<wgt id='1557'> +1.2338625e-12 </wgt>
<wgt id='1558'> +1.2561662e-12 </wgt>
<wgt id='1559'> +1.2300093e-12 </wgt>
<wgt id='1560'> +1.2227417e-12 </wgt>
<wgt id='1561'> +1.2464424e-12 </wgt>
<wgt id='1562'> +1.2273711e-12 </wgt>
<wgt id='1563'> +1.2246053e-12 </wgt>
<wgt id='1564'> +1.2704228e-12 </wgt>
<wgt id='1565'> +1.2720851e-12 </wgt>
<wgt id='1566'> +1.2725616e-12 </wgt>
<wgt id='1567'> +1.2697249e-12 </wgt>
<wgt id='1568'> +1.2396613e-12 </wgt>
<wgt id='1569'> +1.2184591e-12 </wgt>
<wgt id='1570'> +1.2685489e-12 </wgt>
<wgt id='1571'> +1.2435923e-12 </wgt>
<wgt id='1572'> +1.2612489e-12 </wgt>
<wgt id='1573'> +1.3206629e-12 </wgt>
<wgt id='1574'> +1.2009246e-12 </wgt>
<wgt id='1575'> +1.2428648e-12 </wgt>
<wgt id='1576'> +1.2316428e-12 </wgt>
<wgt id='1577'> +1.1971221e-12 </wgt>
<wgt id='1578'> +1.2355403e-12 </wgt>
<wgt id='1579'> +1.2772293e-12 </wgt>
<wgt id='1580'> +1.2828299e-12 </wgt>
<wgt id='1581'> +1.2295297e-12 </wgt>
<wgt id='1582'> +1.2730852e-12 </wgt>
<wgt id='1583'> +1.2980785e-12 </wgt>
<wgt id='1584'> +1.2753222e-12 </wgt>
<wgt id='1585'> +1.2373157e-12 </wgt>
<wgt id='1586'> +1.2644424e-12 </wgt>
<wgt id='1587'> +1.2481706e-12 </wgt>
<wgt id='1588'> +1.2257827e-12 </wgt>
<wgt id='1589'> +1.2379127e-12 </wgt>
<wgt id='1590'> +1.2317453e-12 </wgt>
<wgt id='1591'> +1.2303738e-12 </wgt>
<wgt id='1592'> +1.2622619e-12 </wgt>
<wgt id='1593'> +1.2572298e-12 </wgt>
<wgt id='1594'> +1.2735494e-12 </wgt>
<wgt id='1595'> +1.2794677e-12 </wgt>
<wgt id='1596'> +1.2723446e-12 </wgt>
<wgt id='1597'> +1.2497671e-12 </wgt>
<wgt id='1598'> +1.2626169e-12 </wgt>
<wgt id='1599'> +1.2667671e-12 </wgt>
<wgt id='1600'> +1.2419941e-12 </wgt>
<wgt id='1601'> +1.2166415e-12 </wgt>
<wgt id='1602'> +1.2995131e-12 </wgt>
<wgt id='1603'> +1.2165678e-12 </wgt>
<wgt id='1604'> +1.2394668e-12 </wgt>
<wgt id='1605'> +1.2622058e-12 </wgt>
<wgt id='1606'> +1.1725084e-12 </wgt>
<wgt id='1607'> +1.3089200e-12 </wgt>
<wgt id='1608'> +1.2475843e-12 </wgt>
<wgt id='1609'> +1.2561860e-12 </wgt>
<wgt id='1610'> +1.1575639e-12 </wgt>
<wgt id='1611'> +1.3849568e-12 </wgt>
<wgt id='1612'> +1.1846908e-12 </wgt>
<wgt id='1613'> +1.0783744e-12 </wgt>
<wgt id='1614'> +1.3974998e-12 </wgt>
<wgt id='1615'> +1.9857300e-12 </wgt>
<wgt id='1616'> +1.8912873e-12 </wgt>
<wgt id='1617'> +4.0698843e-13 </wgt>
<wgt id='1618'> +2.3391404e-12 </wgt>
<wgt id='1619'> +1.3036554e-12 </wgt>
<wgt id='1620'> +8.4979976e-13 </wgt>
<wgt id='1621'> +7.7889246e-13 </wgt>
<wgt id='1622'> +8.1266497e-13 </wgt>
<wgt id='1623'> +1.0412677e-12 </wgt>
<wgt id='1624'> +9.3034972e-13 </wgt>
<wgt id='1625'> +1.0848787e-12 </wgt>
<wgt id='1626'> +1.0024050e-12 </wgt>
<wgt id='1627'> +1.6800680e-12 </wgt>
<wgt id='1628'> +3.6933992e-12 </wgt>
<wgt id='1629'> +9.3850569e-13 </wgt>
<wgt id='1630'> +1.0278857e-12 </wgt>
<wgt id='1631'> +1.3787777e-12 </wgt>
<wgt id='1632'> +1.8841379e-12 </wgt>
<wgt id='1633'> +1.2199605e-12 </wgt>
<wgt id='1634'> +9.8380922e-13 </wgt>
<wgt id='1635'> +6.6357274e-13 </wgt>
<wgt id='1636'> +1.2477925e-12 </wgt>
<wgt id='1637'> +8.2488107e-13 </wgt>
<wgt id='1638'> +1.0633697e-12 </wgt>
<wgt id='1639'> +5.7914774e-13 </wgt>
<wgt id='1640'> +1.4659850e-12 </wgt>
<wgt id='1641'> +5.0471569e-13 </wgt>
<wgt id='1642'> +2.0716700e-12 </wgt>
<wgt id='1643'> +1.3105593e-12 </wgt>
<wgt id='1644'> +4.7100794e-13 </wgt>
<wgt id='1645'> +1.8255122e-12 </wgt>
<wgt id='1646'> +1.7339836e-13 </wgt>
<wgt id='1647'> +5.1175550e-13 </wgt>
<wgt id='1648'> +1.6359917e-12 </wgt>
<wgt id='1649'> +2.4825831e-12 </wgt>
<wgt id='1650'> +1.5859687e-12 </wgt>
<wgt id='1651'> +2.1172355e-12 </wgt>
<wgt id='1652'> +1.0321595e-12 </wgt>
<wgt id='1653'> +1.4552756e-12 </wgt>
<wgt id='1654'> +1.4618451e-12 </wgt>
<wgt id='1655'> +1.2006103e-12 </wgt>
<wgt id='1656'> +1.0002749e-12 </wgt>
<wgt id='1657'> +1.1696869e-12 </wgt>
<wgt id='1658'> +1.1678131e-12 </wgt>
<wgt id='1659'> +9.3034972e-13 </wgt>
<wgt id='1660'> +1.3612855e-12 </wgt>
<wgt id='1661'> +2.7572574e-14 </wgt>
<wgt id='1662'> +4.8528178e-13 </wgt>
<wgt id='1663'> +4.7066114e-13 </wgt>
<wgt id='1664'> +1.0075255e-12 </wgt>
<wgt id='1665'> +2.2709162e-12 </wgt>
<wgt id='1666'> +1.0387054e-12 </wgt>
<wgt id='1667'> +3.3817789e-13 </wgt>
<wgt id='1668'> +1.6613405e-12 </wgt>
<wgt id='1669'> +9.2062272e-13 </wgt>
<wgt id='1670'> +1.2938003e-12 </wgt>
<wgt id='1671'> +1.7849091e-12 </wgt>
<wgt id='1672'> +7.1723193e-13 </wgt>
<wgt id='1673'> +7.3720760e-13 </wgt>
<wgt id='1674'> +3.1984529e-13 </wgt>
<wgt id='1675'> +1.6853859e-12 </wgt>
<wgt id='1676'> +1.7301756e-12 </wgt>
<wgt id='1677'> +5.7632284e-13 </wgt>
<wgt id='1678'> +9.6688442e-13 </wgt>
<wgt id='1679'> +5.8414675e-13 </wgt>
<wgt id='1680'> +1.5059057e-12 </wgt>
<wgt id='1681'> +6.8917473e-13 </wgt>
<wgt id='1682'> +8.5581039e-13 </wgt>
<wgt id='1683'> +5.7700766e-13 </wgt>
<wgt id='1684'> +5.8277078e-13 </wgt>
<wgt id='1685'> +1.2994419e-12 </wgt>
<wgt id='1686'> +8.0801384e-13 </wgt>
<wgt id='1687'> +1.0522649e-12 </wgt>
<wgt id='1688'> +2.4278168e-12 </wgt>
<wgt id='1689'> +6.8925050e-13 </wgt>
<wgt id='1690'> +6.2343155e-13 </wgt>
<wgt id='1691'> +1.2177103e-12 </wgt>
<wgt id='1692'> +2.2460471e-12 </wgt>
<wgt id='1693'> +1.1417139e-12 </wgt>
<wgt id='1694'> +1.4079570e-12 </wgt>
<wgt id='1695'> +1.1488942e-12 </wgt>
<wgt id='1696'> +1.2354717e-12 </wgt>
<wgt id='1697'> +9.4104721e-13 </wgt>
<wgt id='1698'> +1.1526049e-12 </wgt>
<wgt id='1699'> +1.1620397e-12 </wgt>
<wgt id='1700'> +1.3603836e-12 </wgt>
<wgt id='1701'> +2.7739712e-13 </wgt>
<wgt id='1702'> +1.4362721e-12 </wgt>
<wgt id='1703'> +1.4062769e-12 </wgt>
<wgt id='1704'> +1.4966313e-12 </wgt>
<wgt id='1705'> +1.9741129e-12 </wgt>
<wgt id='1706'> +1.3954070e-12 </wgt>
<wgt id='1707'> +2.1302579e-12 </wgt>
<wgt id='1708'> +8.3032191e-13 </wgt>
<wgt id='1709'> +9.7960501e-13 </wgt>
<wgt id='1710'> +7.6448574e-13 </wgt>
<wgt id='1711'> +1.7019498e-12 </wgt>
<wgt id='1712'> +4.1730218e-13 </wgt>
<wgt id='1713'> +1.2597673e-12 </wgt>
<wgt id='1714'> +1.2597416e-12 </wgt>
<wgt id='1715'> +1.2699725e-12 </wgt>
<wgt id='1716'> +1.1744930e-12 </wgt>
<wgt id='1717'> +1.1934333e-12 </wgt>
<wgt id='1718'> +1.2731524e-12 </wgt>
<wgt id='1719'> +1.3219751e-12 </wgt>
<wgt id='1720'> +1.2175218e-12 </wgt>
<wgt id='1721'> +1.3091279e-12 </wgt>
<wgt id='1722'> +1.1746846e-12 </wgt>
<wgt id='1723'> +1.2649496e-12 </wgt>
<wgt id='1724'> +1.2758907e-12 </wgt>
<wgt id='1725'> +1.2701609e-12 </wgt>
<wgt id='1726'> +1.3486039e-12 </wgt>
<wgt id='1727'> +1.3989923e-12 </wgt>
<wgt id='1728'> +1.3353772e-12 </wgt>
<wgt id='1729'> +1.2174857e-12 </wgt>
<wgt id='1730'> +1.3875884e-12 </wgt>
<wgt id='1731'> +1.2873696e-12 </wgt>
<wgt id='1732'> +1.2606736e-12 </wgt>
<wgt id='1733'> +1.1781306e-12 </wgt>
<wgt id='1734'> +1.3000264e-12 </wgt>
<wgt id='1735'> +1.1691929e-12 </wgt>
<wgt id='1736'> +1.1597717e-12 </wgt>
<wgt id='1737'> +1.1385193e-12 </wgt>
<wgt id='1738'> +1.2599451e-12 </wgt>
<wgt id='1739'> +1.2248004e-12 </wgt>
<wgt id='1740'> +1.3445138e-12 </wgt>
<wgt id='1741'> +1.4120399e-12 </wgt>
<wgt id='1742'> +1.2999345e-12 </wgt>
<wgt id='1743'> +1.1670265e-12 </wgt>
<wgt id='1744'> +1.2473637e-12 </wgt>
<wgt id='1745'> +1.2308429e-12 </wgt>
<wgt id='1746'> +1.2353793e-12 </wgt>
<wgt id='1747'> +1.1855297e-12 </wgt>
<wgt id='1748'> +1.2289347e-12 </wgt>
<wgt id='1749'> +1.2631674e-12 </wgt>
<wgt id='1750'> +1.3778912e-12 </wgt>
<wgt id='1751'> +1.2582304e-12 </wgt>
<wgt id='1752'> +1.2378015e-12 </wgt>
<wgt id='1753'> +1.2318025e-12 </wgt>
<wgt id='1754'> +1.2346475e-12 </wgt>
<wgt id='1755'> +1.2498987e-12 </wgt>
<wgt id='1756'> +1.1583848e-12 </wgt>
<wgt id='1757'> +1.1982502e-12 </wgt>
<wgt id='1758'> +1.2558209e-12 </wgt>
<wgt id='1759'> +1.1783223e-12 </wgt>
<wgt id='1760'> +1.3333340e-12 </wgt>
<wgt id='1761'> +1.3071105e-12 </wgt>
<wgt id='1762'> +1.3255556e-12 </wgt>
<wgt id='1763'> +1.3040635e-12 </wgt>
<wgt id='1764'> +1.2726103e-12 </wgt>
<wgt id='1765'> +1.2063739e-12 </wgt>
<wgt id='1766'> +1.1455732e-12 </wgt>
<wgt id='1767'> +1.2897967e-12 </wgt>
<wgt id='1768'> +1.2604641e-12 </wgt>
<wgt id='1769'> +1.3786088e-12 </wgt>
<wgt id='1770'> +1.2867535e-12 </wgt>
<wgt id='1771'> +1.3388789e-12 </wgt>
<wgt id='1772'> +1.2719779e-12 </wgt>
<wgt id='1773'> +1.2661428e-12 </wgt>
<wgt id='1774'> +1.2897586e-12 </wgt>
<wgt id='1775'> +1.2087538e-12 </wgt>
<wgt id='1776'> +1.2476386e-12 </wgt>
<wgt id='1777'> +1.3669900e-12 </wgt>
<wgt id='1778'> +1.0557379e-12 </wgt>
<wgt id='1779'> +1.2427831e-12 </wgt>
<wgt id='1780'> +1.1897387e-12 </wgt>
<wgt id='1781'> +1.2617595e-12 </wgt>
<wgt id='1782'> +1.2579738e-12 </wgt>
<wgt id='1783'> +1.3468716e-12 </wgt>
<wgt id='1784'> +1.1430463e-12 </wgt>
<wgt id='1785'> +1.2531674e-12 </wgt>
<wgt id='1786'> +1.2582265e-12 </wgt>
<wgt id='1787'> +1.3033397e-12 </wgt>
<wgt id='1788'> +1.2877224e-12 </wgt>
<wgt id='1789'> +1.1966021e-12 </wgt>
<wgt id='1790'> +1.2166445e-12 </wgt>
<wgt id='1791'> +1.2603871e-12 </wgt>
<wgt id='1792'> +1.2475697e-12 </wgt>
<wgt id='1793'> +1.2781470e-12 </wgt>
<wgt id='1794'> +1.1957666e-12 </wgt>
<wgt id='1795'> +1.2602280e-12 </wgt>
<wgt id='1796'> +1.2782563e-12 </wgt>
<wgt id='1797'> +1.3028967e-12 </wgt>
<wgt id='1798'> +1.3038684e-12 </wgt>
<wgt id='1799'> +1.3035591e-12 </wgt>
<wgt id='1800'> +1.2654781e-12 </wgt>
<wgt id='1801'> +1.2792429e-12 </wgt>
<wgt id='1802'> +1.2745967e-12 </wgt>
<wgt id='1803'> +1.2661289e-12 </wgt>
<wgt id='1804'> +1.3192106e-12 </wgt>
<wgt id='1805'> +1.1697336e-12 </wgt>
<wgt id='1806'> +1.3314033e-12 </wgt>
<wgt id='1807'> +1.1905855e-12 </wgt>
<wgt id='1808'> +1.4736632e-12 </wgt>
<wgt id='1809'> +1.1503406e-12 </wgt>
<wgt id='1810'> +1.2174180e-12 </wgt>
<wgt id='1811'> +1.1617564e-12 </wgt>
<wgt id='1812'> +1.3079120e-12 </wgt>
<wgt id='1813'> +1.3193549e-12 </wgt>
<wgt id='1814'> +1.7228916e-12 </wgt>
<wgt id='1815'> +2.1374584e-12 </wgt>
<wgt id='1816'> +1.2597673e-12 </wgt>
<wgt id='1817'> +1.2597416e-12 </wgt>
<wgt id='1818'> +1.2699725e-12 </wgt>
<wgt id='1819'> +1.1744930e-12 </wgt>
<wgt id='1820'> +1.1934333e-12 </wgt>
<wgt id='1821'> +1.2731524e-12 </wgt>
<wgt id='1822'> +1.3219751e-12 </wgt>
<wgt id='1823'> +1.2175218e-12 </wgt>
<wgt id='1824'> +1.3091279e-12 </wgt>
<wgt id='1825'> +1.1746846e-12 </wgt>
<wgt id='1826'> +1.2649496e-12 </wgt>
<wgt id='1827'> +1.2758907e-12 </wgt>
<wgt id='1828'> +1.2701609e-12 </wgt>
<wgt id='1829'> +1.3486039e-12 </wgt>
<wgt id='1830'> +1.3989923e-12 </wgt>
<wgt id='1831'> +1.3353772e-12 </wgt>
<wgt id='1832'> +1.2174857e-12 </wgt>
<wgt id='1833'> +1.3875884e-12 </wgt>
<wgt id='1834'> +1.2873696e-12 </wgt>
<wgt id='1835'> +1.2606736e-12 </wgt>
<wgt id='1836'> +1.1781306e-12 </wgt>
<wgt id='1837'> +1.3000264e-12 </wgt>
<wgt id='1838'> +1.1691929e-12 </wgt>
<wgt id='1839'> +1.1597717e-12 </wgt>
<wgt id='1840'> +1.1385193e-12 </wgt>
<wgt id='1841'> +1.2599451e-12 </wgt>
<wgt id='1842'> +1.2248004e-12 </wgt>
<wgt id='1843'> +1.3445138e-12 </wgt>
<wgt id='1844'> +1.4120399e-12 </wgt>
<wgt id='1845'> +1.2999345e-12 </wgt>
<wgt id='1846'> +1.1670265e-12 </wgt>
<wgt id='1847'> +1.2473637e-12 </wgt>
<wgt id='1848'> +1.2308429e-12 </wgt>
<wgt id='1849'> +1.2353793e-12 </wgt>
<wgt id='1850'> +1.1855297e-12 </wgt>
<wgt id='1851'> +1.2289347e-12 </wgt>
<wgt id='1852'> +1.2631674e-12 </wgt>
<wgt id='1853'> +1.3778912e-12 </wgt>
<wgt id='1854'> +1.2582304e-12 </wgt>
<wgt id='1855'> +1.2378015e-12 </wgt>
<wgt id='1856'> +1.2318025e-12 </wgt>
<wgt id='1857'> +1.2346475e-12 </wgt>
<wgt id='1858'> +1.2498987e-12 </wgt>
<wgt id='1859'> +1.1583848e-12 </wgt>
<wgt id='1860'> +1.1982502e-12 </wgt>
<wgt id='1861'> +1.2558209e-12 </wgt>
<wgt id='1862'> +1.1783223e-12 </wgt>
<wgt id='1863'> +1.3333340e-12 </wgt>
<wgt id='1864'> +1.3071105e-12 </wgt>
<wgt id='1865'> +1.3255556e-12 </wgt>
<wgt id='1866'> +1.3040635e-12 </wgt>
<wgt id='1867'> +1.2726103e-12 </wgt>
<wgt id='1868'> +1.2063739e-12 </wgt>
<wgt id='1869'> +1.1455732e-12 </wgt>
<wgt id='1870'> +1.2897967e-12 </wgt>
<wgt id='1871'> +1.2604641e-12 </wgt>
<wgt id='1872'> +1.3786088e-12 </wgt>
<wgt id='1873'> +1.2867535e-12 </wgt>
<wgt id='1874'> +1.3388789e-12 </wgt>
<wgt id='1875'> +1.2719779e-12 </wgt>
<wgt id='1876'> +1.2661428e-12 </wgt>
<wgt id='1877'> +1.2897586e-12 </wgt>
<wgt id='1878'> +1.2087538e-12 </wgt>
<wgt id='1879'> +1.2476386e-12 </wgt>
<wgt id='1880'> +1.3669900e-12 </wgt>
<wgt id='1881'> +1.0557379e-12 </wgt>
<wgt id='1882'> +1.2427831e-12 </wgt>
<wgt id='1883'> +1.1897387e-12 </wgt>
<wgt id='1884'> +1.2617595e-12 </wgt>
<wgt id='1885'> +1.2579738e-12 </wgt>
<wgt id='1886'> +1.3468716e-12 </wgt>
<wgt id='1887'> +1.1430463e-12 </wgt>
<wgt id='1888'> +1.2531674e-12 </wgt>
<wgt id='1889'> +1.2582265e-12 </wgt>
<wgt id='1890'> +1.3033397e-12 </wgt>
<wgt id='1891'> +1.2877224e-12 </wgt>
<wgt id='1892'> +1.1966021e-12 </wgt>
<wgt id='1893'> +1.2166445e-12 </wgt>
<wgt id='1894'> +1.2603871e-12 </wgt>
<wgt id='1895'> +1.2475697e-12 </wgt>
<wgt id='1896'> +1.2781470e-12 </wgt>
<wgt id='1897'> +1.1957666e-12 </wgt>
<wgt id='1898'> +1.2602280e-12 </wgt>
<wgt id='1899'> +1.2782563e-12 </wgt>
<wgt id='1900'> +1.3028967e-12 </wgt>
<wgt id='1901'> +1.3038684e-12 </wgt>
<wgt id='1902'> +1.3035591e-12 </wgt>
<wgt id='1903'> +1.2654781e-12 </wgt>
<wgt id='1904'> +1.2792429e-12 </wgt>
<wgt id='1905'> +1.2745967e-12 </wgt>
<wgt id='1906'> +1.2661289e-12 </wgt>
<wgt id='1907'> +1.3192106e-12 </wgt>
<wgt id='1908'> +1.1697336e-12 </wgt>
<wgt id='1909'> +1.3314033e-12 </wgt>
<wgt id='1910'> +1.1905855e-12 </wgt>
<wgt id='1911'> +1.4736632e-12 </wgt>
<wgt id='1912'> +1.1503406e-12 </wgt>
<wgt id='1913'> +1.2174180e-12 </wgt>
<wgt id='1914'> +1.1617564e-12 </wgt>
<wgt id='1915'> +1.3079120e-12 </wgt>
<wgt id='1916'> +1.3193549e-12 </wgt>
<wgt id='1917'> +1.2248315e-12 </wgt>
<wgt id='1918'> +1.3090593e-12 </wgt>
<wgt id='1919'> +1.3631040e-12 </wgt>
</rwgt>
</event>
<event>
 9      1 +1.5538000e-12 6.13650900e+01 7.81860800e-03 1.26338000e-01
       -4 -1    0    0    0  501 -0.0000000000e+00 +0.0000000000e+00 +5.1059356025e+00 5.2997149336e+00 0.0000000000e+00 0.0000e+00 -1.0000e+00
       21 -1    0    0  501  502 +0.0000000000e+00 -0.0000000000e+00 -1.8084683075e+02 1.8084683075e+02 1.4200000000e+00 0.0000e+00 -1.0000e+00
     1023  2    1    2    0    0 -2.7329963195e+01 +7.3858544123e+00 -7.6532948608e+01 8.2968491863e+01 1.5000022857e+01 0.0000e+00 0.0000e+00
  1000023  2    3    3    0    0 -1.9441510633e+01 +1.4460841669e-01 -4.7020880518e+01 5.1178155433e+01 5.4997401314e+00 0.0000e+00 0.0000e+00
       -4  1    1    2    0  502 +2.7329963195e+01 -7.3858544123e+00 -9.9207946539e+01 1.0317805382e+02 1.4200000000e+00 0.0000e+00 -1.0000e+00
  1000022  1    4    4    0    0 -1.6996311856e+01 +4.4324946294e-02 -4.0672449647e+01 4.4363551951e+01 5.0000000000e+00 0.0000e+00 1.0000e+00
      -13  1    4    4    0    0 -2.0130197801e-01 +2.2443876934e-03 -5.2316548182e-01 5.7044029924e-01 1.0570000000e-01 0.0000e+00 1.0000e+00
       13  1    4    4    0    0 -2.2438967994e+00 +9.8039082705e-02 -5.8252653892e+00 6.2441631828e+00 1.0570000000e-01 0.0000e+00 -1.0000e+00
  1000022  1    3    3    0    0 -7.8884525618e+00 +7.2412459956e+00 -2.9512068089e+01 3.1790336430e+01 5.0000000000e+00 0.0000e+00 -1.0000e+00
<mgrwt>
<rscale>  1 0.61365090E+02</rscale>
<asrwt>0</asrwt>
<pdfrwt beam="1">  1       21 0.27822602E-01 0.61365090E+02</pdfrwt>
<pdfrwt beam="2">  1       -4 0.80086312E-03 0.61365090E+02</pdfrwt>
<totfact> 0.24345194E+06</totfact>
</mgrwt>
<rwgt>
<wgt id='1001'> +1.5538000e-12 </wgt>
<wgt id='1002'> +1.5512812e-12 </wgt>
<wgt id='1003'> +1.5528746e-12 </wgt>
<wgt id='1004'> +1.4895998e-12 </wgt>
<wgt id='1005'> +1.5538000e-12 </wgt>
<wgt id='1006'> +1.3830814e-12 </wgt>
<wgt id='1007'> +1.3795606e-12 </wgt>
<wgt id='1008'> +1.3817800e-12 </wgt>
<wgt id='1009'> +1.3036354e-12 </wgt>
<wgt id='1010'> +1.3830814e-12 </wgt>
<wgt id='1011'> +1.7746448e-12 </wgt>
<wgt id='1012'> +1.7739203e-12 </wgt>
<wgt id='1013'> +1.7743932e-12 </wgt>
<wgt id='1014'> +1.7405009e-12 </wgt>
<wgt id='1015'> +1.7746448e-12 </wgt>
<wgt id='1016'> +1.7688190e-12 </wgt>
<wgt id='1017'> +1.7699699e-12 </wgt>
<wgt id='1018'> +1.7692595e-12 </wgt>
<wgt id='1019'> +1.7743932e-12 </wgt>
<wgt id='1020'> +1.7688190e-12 </wgt>
<wgt id='1021'> +1.5744759e-12 </wgt>
<wgt id='1022'> +1.5740413e-12 </wgt>
<wgt id='1023'> +1.5743238e-12 </wgt>
<wgt id='1024'> +1.5528746e-12 </wgt>
<wgt id='1025'> +1.5744759e-12 </wgt>
<wgt id='1026'> +2.0202249e-12 </wgt>
<wgt id='1027'> +2.0239950e-12 </wgt>
<wgt id='1028'> +2.0216455e-12 </wgt>
<wgt id='1029'> +2.0732636e-12 </wgt>
<wgt id='1030'> +2.0202249e-12 </wgt>
<wgt id='1031'> +1.3061375e-12 </wgt>
<wgt id='1032'> +1.2993872e-12 </wgt>
<wgt id='1033'> +1.3036354e-12 </wgt>
<wgt id='1034'> +1.1645733e-12 </wgt>
<wgt id='1035'> +1.3061375e-12 </wgt>
<wgt id='1036'> +1.1626300e-12 </wgt>
<wgt id='1037'> +1.1555502e-12 </wgt>
<wgt id='1038'> +1.1600018e-12 </wgt>
<wgt id='1039'> +1.0191858e-12 </wgt>
<wgt id='1040'> +1.1626300e-12 </wgt>
<wgt id='1041'> +1.4917815e-12 </wgt>
<wgt id='1042'> +1.4858745e-12 </wgt>
<wgt id='1043'> +1.4895998e-12 </wgt>
<wgt id='1044'> +1.3607285e-12 </wgt>
<wgt id='1045'> +1.4917815e-12 </wgt>
<wgt id='1046'> +1.5538000e-12 </wgt>
<wgt id='1047'> +1.5271548e-12 </wgt>
<wgt id='1048'> +1.5775248e-12 </wgt>
<wgt id='1049'> +1.5585998e-12 </wgt>
<wgt id='1050'> +1.5505727e-12 </wgt>
<wgt id='1051'> +1.5321559e-12 </wgt>
<wgt id='1052'> +1.5111835e-12 </wgt>
<wgt id='1053'> +1.5715979e-12 </wgt>
<wgt id='1054'> +1.5698522e-12 </wgt>
<wgt id='1055'> +1.5828209e-12 </wgt>
<wgt id='1056'> +1.5718580e-12 </wgt>
<wgt id='1057'> +1.5566768e-12 </wgt>
<wgt id='1058'> +1.5316514e-12 </wgt>
<wgt id='1059'> +1.5489537e-12 </wgt>
<wgt id='1060'> +1.5419383e-12 </wgt>
<wgt id='1061'> +1.5761960e-12 </wgt>
<wgt id='1062'> +1.5738671e-12 </wgt>
<wgt id='1063'> +1.5815691e-12 </wgt>
<wgt id='1064'> +1.5548284e-12 </wgt>
<wgt id='1065'> +1.5430247e-12 </wgt>
<wgt id='1066'> +1.5680724e-12 </wgt>
<wgt id='1067'> +1.5559581e-12 </wgt>
<wgt id='1068'> +1.5707172e-12 </wgt>
<wgt id='1069'> +1.5736163e-12 </wgt>
<wgt id='1070'> +1.5499813e-12 </wgt>
<wgt id='1071'> +1.5389169e-12 </wgt>
<wgt id='1072'> +1.5637780e-12 </wgt>
<wgt id='1073'> +1.5545309e-12 </wgt>
<wgt id='1074'> +1.5261896e-12 </wgt>
<wgt id='1075'> +1.5452263e-12 </wgt>
<wgt id='1076'> +1.5763480e-12 </wgt>
<wgt id='1077'> +1.5895241e-12 </wgt>
<wgt id='1078'> +1.5627158e-12 </wgt>
<wgt id='1079'> +1.5189171e-12 </wgt>
<wgt id='1080'> +1.5318959e-12 </wgt>
<wgt id='1081'> +1.5694497e-12 </wgt>
<wgt id='1082'> +1.5300551e-12 </wgt>
<wgt id='1083'> +1.5663295e-12 </wgt>
<wgt id='1084'> +1.5308486e-12 </wgt>
<wgt id='1085'> +1.5529317e-12 </wgt>
<wgt id='1086'> +1.5555741e-12 </wgt>
<wgt id='1087'> +1.5299258e-12 </wgt>
<wgt id='1088'> +1.5151723e-12 </wgt>
<wgt id='1089'> +1.5348611e-12 </wgt>
<wgt id='1090'> +1.5124645e-12 </wgt>
<wgt id='1091'> +1.5437203e-12 </wgt>
<wgt id='1092'> +1.5574430e-12 </wgt>
<wgt id='1093'> +1.5278228e-12 </wgt>
<wgt id='1094'> +1.5637759e-12 </wgt>
<wgt id='1095'> +1.5661816e-12 </wgt>
<wgt id='1096'> +1.5648785e-12 </wgt>
<wgt id='1097'> +1.5419050e-12 </wgt>
<wgt id='1098'> +1.5742375e-12 </wgt>
<wgt id='1099'> +1.5377371e-12 </wgt>
<wgt id='1100'> +1.5629252e-12 </wgt>
<wgt id='1101'> +1.5249515e-12 </wgt>
<wgt id='1102'> +1.5432929e-12 </wgt>
<wgt id='1103'> +1.5700882e-12 </wgt>
<wgt id='1104'> +1.5441969e-12 </wgt>
<wgt id='1105'> +1.5493848e-12 </wgt>
<wgt id='1106'> +1.5679713e-12 </wgt>
<wgt id='1107'> +1.5732011e-12 </wgt>
<wgt id='1108'> +1.5601407e-12 </wgt>
<wgt id='1109'> +1.5032484e-12 </wgt>
<wgt id='1110'> +1.5468374e-12 </wgt>
<wgt id='1111'> +1.5373736e-12 </wgt>
<wgt id='1112'> +1.5333060e-12 </wgt>
<wgt id='1113'> +1.5248077e-12 </wgt>
<wgt id='1114'> +1.5944224e-12 </wgt>
<wgt id='1115'> +1.5423788e-12 </wgt>
<wgt id='1116'> +1.5898124e-12 </wgt>
<wgt id='1117'> +1.5851847e-12 </wgt>
<wgt id='1118'> +1.5773918e-12 </wgt>
<wgt id='1119'> +1.5892527e-12 </wgt>
<wgt id='1120'> +1.5771035e-12 </wgt>
<wgt id='1121'> +1.5553763e-12 </wgt>
<wgt id='1122'> +1.5229137e-12 </wgt>
<wgt id='1123'> +1.5813294e-12 </wgt>
<wgt id='1124'> +1.5553986e-12 </wgt>
<wgt id='1125'> +1.5433851e-12 </wgt>
<wgt id='1126'> +1.5417307e-12 </wgt>
<wgt id='1127'> +1.5432962e-12 </wgt>
<wgt id='1128'> +1.5738671e-12 </wgt>
<wgt id='1129'> +1.5359303e-12 </wgt>
<wgt id='1130'> +1.5702282e-12 </wgt>
<wgt id='1131'> +1.6042831e-12 </wgt>
<wgt id='1132'> +1.5194451e-12 </wgt>
<wgt id='1133'> +1.5339947e-12 </wgt>
<wgt id='1134'> +1.5512158e-12 </wgt>
<wgt id='1135'> +1.5847330e-12 </wgt>
<wgt id='1136'> +1.5280861e-12 </wgt>
<wgt id='1137'> +1.5180616e-12 </wgt>
<wgt id='1138'> +1.5477988e-12 </wgt>
<wgt id='1139'> +1.5668422e-12 </wgt>
<wgt id='1140'> +1.5579118e-12 </wgt>
<wgt id='1141'> +1.5527022e-12 </wgt>
<wgt id='1142'> +1.5414889e-12 </wgt>
<wgt id='1143'> +1.5407347e-12 </wgt>
<wgt id='1144'> +1.5772072e-12 </wgt>
<wgt id='1145'> +1.5865668e-12 </wgt>
<wgt id='1146'> +1.5803662e-12 </wgt>
<wgt id='1147'> +1.2335733e-12 </wgt>
<wgt id='1148'> +1.2662963e-12 </wgt>
<wgt id='1149'> +1.2435040e-12 </wgt>
<wgt id='1150'> +1.2525993e-12 </wgt>
<wgt id='1151'> +9.8957629e-13 </wgt>
<wgt id='1152'> +1.4454631e-12 </wgt>
<wgt id='1153'> +1.4396673e-12 </wgt>
<wgt id='1154'> +1.4489332e-12 </wgt>
<wgt id='1155'> +1.4461427e-12 </wgt>
<wgt id='1156'> +1.4452170e-12 </wgt>
<wgt id='1157'> +1.4426484e-12 </wgt>
<wgt id='1158'> +1.4492991e-12 </wgt>
<wgt id='1159'> +1.4431843e-12 </wgt>
<wgt id='1160'> +1.4469665e-12 </wgt>
<wgt id='1161'> +1.4385101e-12 </wgt>
<wgt id='1162'> +1.4502889e-12 </wgt>
<wgt id='1163'> +1.4491286e-12 </wgt>
<wgt id='1164'> +1.4419160e-12 </wgt>
<wgt id='1165'> +1.4327464e-12 </wgt>
<wgt id='1166'> +1.4579567e-12 </wgt>
<wgt id='1167'> +1.4570513e-12 </wgt>
<wgt id='1168'> +1.4296830e-12 </wgt>
<wgt id='1169'> +1.4497558e-12 </wgt>
<wgt id='1170'> +1.4423083e-12 </wgt>
<wgt id='1171'> +1.4435684e-12 </wgt>
<wgt id='1172'> +1.4477874e-12 </wgt>
<wgt id='1173'> +1.4378011e-12 </wgt>
<wgt id='1174'> +1.4527510e-12 </wgt>
<wgt id='1175'> +1.4473408e-12 </wgt>
<wgt id='1176'> +1.4431698e-12 </wgt>
<wgt id='1177'> +1.4460597e-12 </wgt>
<wgt id='1178'> +1.4444195e-12 </wgt>
<wgt id='1179'> +1.4541027e-12 </wgt>
<wgt id='1180'> +1.4318693e-12 </wgt>
<wgt id='1181'> +1.4413740e-12 </wgt>
<wgt id='1182'> +1.4493555e-12 </wgt>
<wgt id='1183'> +1.4451304e-12 </wgt>
<wgt id='1184'> +1.4455817e-12 </wgt>
<wgt id='1185'> +1.4460140e-12 </wgt>
<wgt id='1186'> +1.4452406e-12 </wgt>
<wgt id='1187'> +1.4448801e-12 </wgt>
<wgt id='1188'> +1.4457096e-12 </wgt>
<wgt id='1189'> +1.4446727e-12 </wgt>
<wgt id='1190'> +1.4262611e-12 </wgt>
<wgt id='1191'> +1.4357578e-12 </wgt>
<wgt id='1192'> +1.4535929e-12 </wgt>
<wgt id='1193'> +1.2821289e-12 </wgt>
<wgt id='1194'> +1.2771712e-12 </wgt>
<wgt id='1195'> +1.2862163e-12 </wgt>
<wgt id='1196'> +1.2836887e-12 </wgt>
<wgt id='1197'> +1.2805145e-12 </wgt>
<wgt id='1198'> +1.2847329e-12 </wgt>
<wgt id='1199'> +1.2784427e-12 </wgt>
<wgt id='1200'> +1.2835263e-12 </wgt>
<wgt id='1201'> +1.2813146e-12 </wgt>
<wgt id='1202'> +1.2786860e-12 </wgt>
<wgt id='1203'> +1.2871788e-12 </wgt>
<wgt id='1204'> +1.2617179e-12 </wgt>
<wgt id='1205'> +1.2948123e-12 </wgt>
<wgt id='1206'> +1.2876667e-12 </wgt>
<wgt id='1207'> +1.2746908e-12 </wgt>
<wgt id='1208'> +1.2754772e-12 </wgt>
<wgt id='1209'> +1.2846131e-12 </wgt>
<wgt id='1210'> +1.2786363e-12 </wgt>
<wgt id='1211'> +1.2777694e-12 </wgt>
<wgt id='1212'> +1.2807302e-12 </wgt>
<wgt id='1213'> +1.2835520e-12 </wgt>
<wgt id='1214'> +1.2737854e-12 </wgt>
<wgt id='1215'> +1.2932018e-12 </wgt>
<wgt id='1216'> +1.2868967e-12 </wgt>
<wgt id='1217'> +1.2786343e-12 </wgt>
<wgt id='1218'> +1.2883904e-12 </wgt>
<wgt id='1219'> +1.2789612e-12 </wgt>
<wgt id='1220'> +1.2874046e-12 </wgt>
<wgt id='1221'> +1.2813734e-12 </wgt>
<wgt id='1222'> +1.2860959e-12 </wgt>
<wgt id='1223'> +1.2793323e-12 </wgt>
<wgt id='1224'> +1.2831426e-12 </wgt>
<wgt id='1225'> +1.2818074e-12 </wgt>
<wgt id='1226'> +1.2821208e-12 </wgt>
<wgt id='1227'> +1.2824193e-12 </wgt>
<wgt id='1228'> +1.2788812e-12 </wgt>
<wgt id='1229'> +1.2834863e-12 </wgt>
<wgt id='1230'> +1.2907422e-12 </wgt>
<wgt id='1231'> +1.2690969e-12 </wgt>
<wgt id='1232'> +1.2803326e-12 </wgt>
<wgt id='1233'> +1.2826925e-12 </wgt>
<wgt id='1234'> +1.2821289e-12 </wgt>
<wgt id='1235'> +1.2730879e-12 </wgt>
<wgt id='1236'> +1.2765611e-12 </wgt>
<wgt id='1237'> +1.2795708e-12 </wgt>
<wgt id='1238'> +1.2849354e-12 </wgt>
<wgt id='1239'> +1.2870947e-12 </wgt>
<wgt id='1240'> +1.2891270e-12 </wgt>
<wgt id='1241'> +1.2286684e-12 </wgt>
<wgt id='1242'> +1.2201373e-12 </wgt>
<wgt id='1243'> +1.2369911e-12 </wgt>
<wgt id='1244'> +1.2242471e-12 </wgt>
<wgt id='1245'> +1.2318772e-12 </wgt>
<wgt id='1246'> +1.2298390e-12 </wgt>
<wgt id='1247'> +1.2276480e-12 </wgt>
<wgt id='1248'> +1.2285067e-12 </wgt>
<wgt id='1249'> +1.2287095e-12 </wgt>
<wgt id='1250'> +1.2249948e-12 </wgt>
<wgt id='1251'> +1.2312498e-12 </wgt>
<wgt id='1252'> +1.2259810e-12 </wgt>
<wgt id='1253'> +1.2307069e-12 </wgt>
<wgt id='1254'> +1.2107993e-12 </wgt>
<wgt id='1255'> +1.2393798e-12 </wgt>
<wgt id='1256'> +1.2331582e-12 </wgt>
<wgt id='1257'> +1.2172938e-12 </wgt>
<wgt id='1258'> +1.2369444e-12 </wgt>
<wgt id='1259'> +1.2195393e-12 </wgt>
<wgt id='1260'> +1.2322934e-12 </wgt>
<wgt id='1261'> +1.2247158e-12 </wgt>
<wgt id='1262'> +1.2306205e-12 </wgt>
<wgt id='1263'> +1.2277430e-12 </wgt>
<wgt id='1264'> +1.2386171e-12 </wgt>
<wgt id='1265'> +1.2239627e-12 </wgt>
<wgt id='1266'> +1.2228958e-12 </wgt>
<wgt id='1267'> +1.2352077e-12 </wgt>
<wgt id='1268'> +1.2299503e-12 </wgt>
<wgt id='1269'> +1.2309338e-12 </wgt>
<wgt id='1270'> +1.2242892e-12 </wgt>
<wgt id='1271'> +1.2268101e-12 </wgt>
<wgt id='1272'> +1.2288523e-12 </wgt>
<wgt id='1273'> +1.2284956e-12 </wgt>
<wgt id='1274'> +1.2289827e-12 </wgt>
<wgt id='1275'> +1.2274843e-12 </wgt>
<wgt id='1276'> +1.2289621e-12 </wgt>
<wgt id='1277'> +1.2274602e-12 </wgt>
<wgt id='1278'> +1.2261136e-12 </wgt>
<wgt id='1279'> +1.2317691e-12 </wgt>
<wgt id='1280'> +1.2290162e-12 </wgt>
<wgt id='1281'> +1.2282310e-12 </wgt>
<wgt id='1282'> +1.2286684e-12 </wgt>
<wgt id='1283'> +1.2194253e-12 </wgt>
<wgt id='1284'> +1.2230975e-12 </wgt>
<wgt id='1285'> +1.2261726e-12 </wgt>
<wgt id='1286'> +1.2314070e-12 </wgt>
<wgt id='1287'> +1.2332912e-12 </wgt>
<wgt id='1288'> +1.2351081e-12 </wgt>
<wgt id='1289'> +1.3301122e-12 </wgt>
<wgt id='1290'> +1.3325758e-12 </wgt>
<wgt id='1291'> +1.3273886e-12 </wgt>
<wgt id='1292'> +1.3310688e-12 </wgt>
<wgt id='1293'> +1.3293386e-12 </wgt>
<wgt id='1294'> +1.3269703e-12 </wgt>
<wgt id='1295'> +1.3330079e-12 </wgt>
<wgt id='1296'> +1.3269479e-12 </wgt>
<wgt id='1297'> +1.3339125e-12 </wgt>
<wgt id='1298'> +1.3397613e-12 </wgt>
<wgt id='1299'> +1.3180244e-12 </wgt>
<wgt id='1300'> +1.3344492e-12 </wgt>
<wgt id='1301'> +1.3213311e-12 </wgt>
<wgt id='1302'> +1.3286886e-12 </wgt>
<wgt id='1303'> +1.3321165e-12 </wgt>
<wgt id='1304'> +1.3256361e-12 </wgt>
<wgt id='1305'> +1.3331713e-12 </wgt>
<wgt id='1306'> +1.3210622e-12 </wgt>
<wgt id='1307'> +1.3402566e-12 </wgt>
<wgt id='1308'> +1.3290611e-12 </wgt>
<wgt id='1309'> +1.3308894e-12 </wgt>
<wgt id='1310'> +1.3271222e-12 </wgt>
<wgt id='1311'> +1.3333685e-12 </wgt>
<wgt id='1312'> +1.3219259e-12 </wgt>
<wgt id='1313'> +1.3386366e-12 </wgt>
<wgt id='1314'> +1.3296013e-12 </wgt>
<wgt id='1315'> +1.3239494e-12 </wgt>
<wgt id='1316'> +1.3360352e-12 </wgt>
<wgt id='1317'> +1.3311904e-12 </wgt>
<wgt id='1318'> +1.3393534e-12 </wgt>
<wgt id='1319'> +1.3189002e-12 </wgt>
<wgt id='1320'> +1.3354350e-12 </wgt>
<wgt id='1321'> +1.3244824e-12 </wgt>
<wgt id='1322'> +1.3313943e-12 </wgt>
<wgt id='1323'> +1.3281589e-12 </wgt>
<wgt id='1324'> +1.3297313e-12 </wgt>
<wgt id='1325'> +1.3353151e-12 </wgt>
<wgt id='1326'> +1.3330349e-12 </wgt>
<wgt id='1327'> +1.3301073e-12 </wgt>
<wgt id='1328'> +1.3287029e-12 </wgt>
<wgt id='1329'> +1.3312801e-12 </wgt>
<wgt id='1330'> +1.3290769e-12 </wgt>
<wgt id='1331'> +1.3318058e-12 </wgt>
<wgt id='1332'> +1.3558255e-12 </wgt>
<wgt id='1333'> +1.3220821e-12 </wgt>
<wgt id='1334'> +1.3286196e-12 </wgt>
<wgt id='1335'> +1.3342473e-12 </wgt>
<wgt id='1336'> +1.3320898e-12 </wgt>
<wgt id='1337'> +1.3245188e-12 </wgt>
<wgt id='1338'> +1.3308471e-12 </wgt>
<wgt id='1339'> +1.3296784e-12 </wgt>
<wgt id='1340'> +1.3022317e-12 </wgt>
<wgt id='1341'> +1.3048427e-12 </wgt>
<wgt id='1342'> +1.2995188e-12 </wgt>
<wgt id='1343'> +1.3033270e-12 </wgt>
<wgt id='1344'> +1.3015809e-12 </wgt>
<wgt id='1345'> +1.2990313e-12 </wgt>
<wgt id='1346'> +1.3051810e-12 </wgt>
<wgt id='1347'> +1.2992283e-12 </wgt>
<wgt id='1348'> +1.3056563e-12 </wgt>
<wgt id='1349'> +1.3112258e-12 </wgt>
<wgt id='1350'> +1.2934760e-12 </wgt>
<wgt id='1351'> +1.3066969e-12 </wgt>
<wgt id='1352'> +1.2927133e-12 </wgt>
<wgt id='1353'> +1.2999869e-12 </wgt>
<wgt id='1354'> +1.3063289e-12 </wgt>
<wgt id='1355'> +1.2978527e-12 </wgt>
<wgt id='1356'> +1.3047242e-12 </wgt>
<wgt id='1357'> +1.2925937e-12 </wgt>
<wgt id='1358'> +1.3136577e-12 </wgt>
<wgt id='1359'> +1.3034605e-12 </wgt>
<wgt id='1360'> +1.3012979e-12 </wgt>
<wgt id='1361'> +1.2993275e-12 </wgt>
<wgt id='1362'> +1.3062311e-12 </wgt>
<wgt id='1363'> +1.2918815e-12 </wgt>
<wgt id='1364'> +1.3098735e-12 </wgt>
<wgt id='1365'> +1.2978842e-12 </wgt>
<wgt id='1366'> +1.2989103e-12 </wgt>
<wgt id='1367'> +1.3078886e-12 </wgt>
<wgt id='1368'> +1.3026645e-12 </wgt>
<wgt id='1369'> +1.3102437e-12 </wgt>
<wgt id='1370'> +1.2927397e-12 </wgt>
<wgt id='1371'> +1.3074269e-12 </wgt>
<wgt id='1372'> +1.2953095e-12 </wgt>
<wgt id='1373'> +1.3031893e-12 </wgt>
<wgt id='1374'> +1.3008529e-12 </wgt>
<wgt id='1375'> +1.3016846e-12 </wgt>
<wgt id='1376'> +1.3078311e-12 </wgt>
<wgt id='1377'> +1.3051019e-12 </wgt>
<wgt id='1378'> +1.3026893e-12 </wgt>
<wgt id='1379'> +1.3008670e-12 </wgt>
<wgt id='1380'> +1.3037448e-12 </wgt>
<wgt id='1381'> +1.3024122e-12 </wgt>
<wgt id='1382'> +1.3025496e-12 </wgt>
<wgt id='1383'> +1.3262564e-12 </wgt>
<wgt id='1384'> +1.2946337e-12 </wgt>
<wgt id='1385'> +1.3011341e-12 </wgt>
<wgt id='1386'> +1.3054071e-12 </wgt>
<wgt id='1387'> +1.3040903e-12 </wgt>
<wgt id='1388'> +1.2960207e-12 </wgt>
<wgt id='1389'> +1.3031440e-12 </wgt>
<wgt id='1390'> +1.3016278e-12 </wgt>
<wgt id='1391'> +1.2757789e-12 </wgt>
<wgt id='1392'> +1.2370272e-12 </wgt>
<wgt id='1393'> +1.2501443e-12 </wgt>
<wgt id='1394'> +1.2635322e-12 </wgt>
<wgt id='1395'> +1.2884489e-12 </wgt>
<wgt id='1396'> +1.2758392e-12 </wgt>
<wgt id='1397'> +1.2902608e-12 </wgt>
<wgt id='1398'> +1.2868481e-12 </wgt>
<wgt id='1399'> +1.2838541e-12 </wgt>
<wgt id='1400'> +1.2812980e-12 </wgt>
<wgt id='1401'> +1.2785441e-12 </wgt>
<wgt id='1402'> +1.2736430e-12 </wgt>
<wgt id='1403'> +1.2716427e-12 </wgt>
<wgt id='1404'> +1.2697148e-12 </wgt>
<wgt id='1405'> +1.2758392e-12 </wgt>
<wgt id='1406'> +1.2692406e-12 </wgt>
<wgt id='1407'> +1.2726608e-12 </wgt>
<wgt id='1408'> +1.2788447e-12 </wgt>
<wgt id='1409'> +1.2813638e-12 </wgt>
<wgt id='1410'> +1.2038487e-12 </wgt>
<wgt id='1411'> +1.2066713e-12 </wgt>
<wgt id='1412'> +1.2002321e-12 </wgt>
<wgt id='1413'> +1.2049387e-12 </wgt>
<wgt id='1414'> +1.2027880e-12 </wgt>
<wgt id='1415'> +1.2052819e-12 </wgt>
<wgt id='1416'> +1.2033213e-12 </wgt>
<wgt id='1417'> +1.1974456e-12 </wgt>
<wgt id='1418'> +1.2102893e-12 </wgt>
<wgt id='1419'> +1.2078576e-12 </wgt>
<wgt id='1420'> +1.2000108e-12 </wgt>
<wgt id='1421'> +1.1839050e-12 </wgt>
<wgt id='1422'> +1.2125048e-12 </wgt>
<wgt id='1423'> +1.2037769e-12 </wgt>
<wgt id='1424'> +1.2039437e-12 </wgt>
<wgt id='1425'> +1.1977853e-12 </wgt>
<wgt id='1426'> +1.2103554e-12 </wgt>
<wgt id='1427'> +1.1892853e-12 </wgt>
<wgt id='1428'> +1.2117343e-12 </wgt>
<wgt id='1429'> +1.2008061e-12 </wgt>
<wgt id='1430'> +1.2081222e-12 </wgt>
<wgt id='1431'> +1.2062802e-12 </wgt>
<wgt id='1432'> +1.2021059e-12 </wgt>
<wgt id='1433'> +1.2066773e-12 </wgt>
<wgt id='1434'> +1.1991354e-12 </wgt>
<wgt id='1435'> +1.2071451e-12 </wgt>
<wgt id='1436'> +1.1962250e-12 </wgt>
<wgt id='1437'> +1.2106995e-12 </wgt>
<wgt id='1438'> +1.2037414e-12 </wgt>
<wgt id='1439'> +1.1987712e-12 </wgt>
<wgt id='1440'> +1.2140508e-12 </wgt>
<wgt id='1441'> +1.2053820e-12 </wgt>
<wgt id='1442'> +1.2012562e-12 </wgt>
<wgt id='1443'> +1.2024194e-12 </wgt>
<wgt id='1444'> +1.2085047e-12 </wgt>
<wgt id='1445'> +1.2088649e-12 </wgt>
<wgt id='1446'> +1.2031944e-12 </wgt>
<wgt id='1447'> +1.2045893e-12 </wgt>
<wgt id='1448'> +1.2057057e-12 </wgt>
<wgt id='1449'> +1.2026529e-12 </wgt>
<wgt id='1450'> +1.2045109e-12 </wgt>
<wgt id='1451'> +1.2020445e-12 </wgt>
<wgt id='1452'> +1.2071102e-12 </wgt>
<wgt id='1453'> +1.2047421e-12 </wgt>
<wgt id='1454'> +1.1989793e-12 </wgt>
<wgt id='1455'> +1.1989495e-12 </wgt>
<wgt id='1456'> +1.2100797e-12 </wgt>
<wgt id='1457'> +1.2065504e-12 </wgt>
<wgt id='1458'> +1.2031613e-12 </wgt>
<wgt id='1459'> +1.2064540e-12 </wgt>
<wgt id='1460'> +1.2058411e-12 </wgt>
<wgt id='1461'> +1.2038487e-12 </wgt>
<wgt id='1462'> +1.1963627e-12 </wgt>
<wgt id='1463'> +1.2104443e-12 </wgt>
<wgt id='1464'> +1.2036495e-12 </wgt>
<wgt id='1465'> +1.2236587e-12 </wgt>
<wgt id='1466'> +1.2184956e-12 </wgt>
<wgt id='1467'> +1.2140413e-12 </wgt>
<wgt id='1468'> +1.2116821e-12 </wgt>
<wgt id='1469'> +1.2070608e-12 </wgt>
<wgt id='1470'> +1.2010161e-12 </wgt>
<wgt id='1471'> +1.1971767e-12 </wgt>
<wgt id='1472'> +1.1942262e-12 </wgt>
<wgt id='1473'> +1.2036495e-12 </wgt>
<wgt id='1474'> +1.1974084e-12 </wgt>
<wgt id='1475'> +1.2010187e-12 </wgt>
<wgt id='1476'> +1.2062047e-12 </wgt>
<wgt id='1477'> +1.2083922e-12 </wgt>
<wgt id='1478'> +1.2594265e-12 </wgt>
<wgt id='1479'> +1.2600300e-12 </wgt>
<wgt id='1480'> +1.2587262e-12 </wgt>
<wgt id='1481'> +1.2561935e-12 </wgt>
<wgt id='1482'> +1.2650818e-12 </wgt>
<wgt id='1483'> +1.2508947e-12 </wgt>
<wgt id='1484'> +1.2600657e-12 </wgt>
<wgt id='1485'> +1.2755564e-12 </wgt>
<wgt id='1486'> +1.2591743e-12 </wgt>
<wgt id='1487'> +1.2621510e-12 </wgt>
<wgt id='1488'> +1.2549541e-12 </wgt>
<wgt id='1489'> +1.2755788e-12 </wgt>
<wgt id='1490'> +1.2609037e-12 </wgt>
<wgt id='1491'> +1.2631232e-12 </wgt>
<wgt id='1492'> +1.2566592e-12 </wgt>
<wgt id='1493'> +1.2483093e-12 </wgt>
<wgt id='1494'> +1.2611780e-12 </wgt>
<wgt id='1495'> +1.2693318e-12 </wgt>
<wgt id='1496'> +1.2587641e-12 </wgt>
<wgt id='1497'> +1.2644987e-12 </wgt>
<wgt id='1498'> +1.2576761e-12 </wgt>
<wgt id='1499'> +1.2629374e-12 </wgt>
<wgt id='1500'> +1.2582106e-12 </wgt>
<wgt id='1501'> +1.2589205e-12 </wgt>
<wgt id='1502'> +1.2607792e-12 </wgt>
<wgt id='1503'> +1.2632489e-12 </wgt>
<wgt id='1504'> +1.2606161e-12 </wgt>
<wgt id='1505'> +1.2593559e-12 </wgt>
<wgt id='1506'> +1.2612978e-12 </wgt>
<wgt id='1507'> +1.2584853e-12 </wgt>
<wgt id='1508'> +1.2683207e-12 </wgt>
<wgt id='1509'> +1.2587945e-12 </wgt>
<wgt id='1510'> +1.2570979e-12 </wgt>
<wgt id='1511'> +1.2572631e-12 </wgt>
<wgt id='1512'> +1.2550920e-12 </wgt>
<wgt id='1513'> +1.2610257e-12 </wgt>
<wgt id='1514'> +1.2611926e-12 </wgt>
<wgt id='1515'> +1.2598470e-12 </wgt>
<wgt id='1516'> +1.2628114e-12 </wgt>
<wgt id='1517'> +1.2630003e-12 </wgt>
<wgt id='1518'> +1.2584947e-12 </wgt>
<wgt id='1519'> +1.2542549e-12 </wgt>
<wgt id='1520'> +1.2626342e-12 </wgt>
<wgt id='1521'> +1.2624049e-12 </wgt>
<wgt id='1522'> +1.2642587e-12 </wgt>
<wgt id='1523'> +1.2652666e-12 </wgt>
<wgt id='1524'> +1.2617932e-12 </wgt>
<wgt id='1525'> +1.2590122e-12 </wgt>
<wgt id='1526'> +1.2612805e-12 </wgt>
<wgt id='1527'> +1.2621880e-12 </wgt>
<wgt id='1528'> +1.2558303e-12 </wgt>
<wgt id='1529'> +1.2626042e-12 </wgt>
<wgt id='1530'> +1.2511040e-12 </wgt>
<wgt id='1531'> +1.2615941e-12 </wgt>
<wgt id='1532'> +1.2595493e-12 </wgt>
<wgt id='1533'> +1.2572234e-12 </wgt>
<wgt id='1534'> +1.2592093e-12 </wgt>
<wgt id='1535'> +1.2646153e-12 </wgt>
<wgt id='1536'> +1.2605214e-12 </wgt>
<wgt id='1537'> +1.2575345e-12 </wgt>
<wgt id='1538'> +1.2583646e-12 </wgt>
<wgt id='1539'> +1.2593501e-12 </wgt>
<wgt id='1540'> +1.2583825e-12 </wgt>
<wgt id='1541'> +1.2591610e-12 </wgt>
<wgt id='1542'> +1.2578952e-12 </wgt>
<wgt id='1543'> +1.2589241e-12 </wgt>
<wgt id='1544'> +1.2598716e-12 </wgt>
<wgt id='1545'> +1.2579494e-12 </wgt>
<wgt id='1546'> +1.2578646e-12 </wgt>
<wgt id='1547'> +1.2589099e-12 </wgt>
<wgt id='1548'> +1.2595809e-12 </wgt>
<wgt id='1549'> +1.2587495e-12 </wgt>
<wgt id='1550'> +1.2579173e-12 </wgt>
<wgt id='1551'> +1.2585708e-12 </wgt>
<wgt id='1552'> +1.2587843e-12 </wgt>
<wgt id='1553'> +1.2592406e-12 </wgt>
<wgt id='1554'> +1.2583680e-12 </wgt>
<wgt id='1555'> +1.2597738e-12 </wgt>
<wgt id='1556'> +1.2590265e-12 </wgt>
<wgt id='1557'> +1.2592951e-12 </wgt>
<wgt id='1558'> +1.2585518e-12 </wgt>
<wgt id='1559'> +1.2582915e-12 </wgt>
<wgt id='1560'> +1.2590894e-12 </wgt>
<wgt id='1561'> +1.2579472e-12 </wgt>
<wgt id='1562'> +1.2585771e-12 </wgt>
<wgt id='1563'> +1.2593215e-12 </wgt>
<wgt id='1564'> +1.2584989e-12 </wgt>
<wgt id='1565'> +1.2588287e-12 </wgt>
<wgt id='1566'> +1.2587037e-12 </wgt>
<wgt id='1567'> +1.2583945e-12 </wgt>
<wgt id='1568'> +1.2581659e-12 </wgt>
<wgt id='1569'> +1.2586433e-12 </wgt>
<wgt id='1570'> +1.2589070e-12 </wgt>
<wgt id='1571'> +1.2592421e-12 </wgt>
<wgt id='1572'> +1.2582462e-12 </wgt>
<wgt id='1573'> +1.2591507e-12 </wgt>
<wgt id='1574'> +1.2589385e-12 </wgt>
<wgt id='1575'> +1.2589912e-12 </wgt>
<wgt id='1576'> +1.2588321e-12 </wgt>
<wgt id='1577'> +1.2590093e-12 </wgt>
<wgt id='1578'> +1.2585299e-12 </wgt>
<wgt id='1579'> +1.2587017e-12 </wgt>
<wgt id='1580'> +1.2590517e-12 </wgt>
<wgt id='1581'> +1.2589514e-12 </wgt>
<wgt id='1582'> +1.2588758e-12 </wgt>
<wgt id='1583'> +1.2586322e-12 </wgt>
<wgt id='1584'> +1.2591464e-12 </wgt>
<wgt id='1585'> +1.2587002e-12 </wgt>
<wgt id='1586'> +1.2595243e-12 </wgt>
<wgt id='1587'> +1.2590032e-12 </wgt>
<wgt id='1588'> +1.2585435e-12 </wgt>
<wgt id='1589'> +1.2586816e-12 </wgt>
<wgt id='1590'> +1.2586468e-12 </wgt>
<wgt id='1591'> +1.2582893e-12 </wgt>
<wgt id='1592'> +1.2590419e-12 </wgt>
<wgt id='1593'> +1.2592748e-12 </wgt>
<wgt id='1594'> +1.2584812e-12 </wgt>
<wgt id='1595'> +1.2589791e-12 </wgt>
<wgt id='1596'> +1.2585843e-12 </wgt>
<wgt id='1597'> +1.2586343e-12 </wgt>
<wgt id='1598'> +1.2590842e-12 </wgt>
<wgt id='1599'> +1.2586067e-12 </wgt>
<wgt id='1600'> +1.2584419e-12 </wgt>
<wgt id='1601'> +1.2591549e-12 </wgt>
<wgt id='1602'> +1.2589982e-12 </wgt>
<wgt id='1603'> +1.2590422e-12 </wgt>
<wgt id='1604'> +1.2588000e-12 </wgt>
<wgt id='1605'> +1.2591360e-12 </wgt>
<wgt id='1606'> +1.2582238e-12 </wgt>
<wgt id='1607'> +1.2591468e-12 </wgt>
<wgt id='1608'> +1.2588638e-12 </wgt>
<wgt id='1609'> +1.2588604e-12 </wgt>
<wgt id='1610'> +1.2311225e-12 </wgt>
<wgt id='1611'> +1.2882243e-12 </wgt>
<wgt id='1612'> +1.4863192e-12 </wgt>
<wgt id='1613'> +1.4874631e-12 </wgt>
<wgt id='1614'> +1.4874176e-12 </wgt>
<wgt id='1615'> +1.4900318e-12 </wgt>
<wgt id='1616'> +1.4725118e-12 </wgt>
<wgt id='1617'> +1.4578639e-12 </wgt>
<wgt id='1618'> +1.4393569e-12 </wgt>
<wgt id='1619'> +1.4795331e-12 </wgt>
<wgt id='1620'> +1.4917412e-12 </wgt>
<wgt id='1621'> +1.5050371e-12 </wgt>
<wgt id='1622'> +1.5048867e-12 </wgt>
<wgt id='1623'> +1.4997327e-12 </wgt>
<wgt id='1624'> +1.4891641e-12 </wgt>
<wgt id='1625'> +1.4963092e-12 </wgt>
<wgt id='1626'> +1.4948970e-12 </wgt>
<wgt id='1627'> +1.4948680e-12 </wgt>
<wgt id='1628'> +1.5254994e-12 </wgt>
<wgt id='1629'> +1.5392868e-12 </wgt>
<wgt id='1630'> +1.4902807e-12 </wgt>
<wgt id='1631'> +1.4911081e-12 </wgt>
<wgt id='1632'> +1.4999848e-12 </wgt>
<wgt id='1633'> +1.4713546e-12 </wgt>
<wgt id='1634'> +1.4881698e-12 </wgt>
<wgt id='1635'> +1.4668647e-12 </wgt>
<wgt id='1636'> +1.4760593e-12 </wgt>
<wgt id='1637'> +1.4388426e-12 </wgt>
<wgt id='1638'> +1.4846079e-12 </wgt>
<wgt id='1639'> +1.5050622e-12 </wgt>
<wgt id='1640'> +1.4957772e-12 </wgt>
<wgt id='1641'> +1.4676557e-12 </wgt>
<wgt id='1642'> +1.4861970e-12 </wgt>
<wgt id='1643'> +1.5009690e-12 </wgt>
<wgt id='1644'> +1.4590279e-12 </wgt>
<wgt id='1645'> +1.5059082e-12 </wgt>
<wgt id='1646'> +1.5172037e-12 </wgt>
<wgt id='1647'> +1.4942332e-12 </wgt>
<wgt id='1648'> +1.5194284e-12 </wgt>
<wgt id='1649'> +1.4606591e-12 </wgt>
<wgt id='1650'> +1.4859488e-12 </wgt>
<wgt id='1651'> +1.4685796e-12 </wgt>
<wgt id='1652'> +1.4998681e-12 </wgt>
<wgt id='1653'> +1.4687850e-12 </wgt>
<wgt id='1654'> +1.4593331e-12 </wgt>
<wgt id='1655'> +1.4809980e-12 </wgt>
<wgt id='1656'> +1.4947333e-12 </wgt>
<wgt id='1657'> +1.4621591e-12 </wgt>
<wgt id='1658'> +1.5060329e-12 </wgt>
<wgt id='1659'> +1.4891641e-12 </wgt>
<wgt id='1660'> +1.4785703e-12 </wgt>
<wgt id='1661'> +1.4680567e-12 </wgt>
<wgt id='1662'> +1.4860544e-12 </wgt>
<wgt id='1663'> +1.4744249e-12 </wgt>
<wgt id='1664'> +1.5248193e-12 </wgt>
<wgt id='1665'> +1.4791999e-12 </wgt>
<wgt id='1666'> +1.4595251e-12 </wgt>
<wgt id='1667'> +1.4936524e-12 </wgt>
<wgt id='1668'> +1.4750989e-12 </wgt>
<wgt id='1669'> +1.4878076e-12 </wgt>
<wgt id='1670'> +1.4834576e-12 </wgt>
<wgt id='1671'> +1.4903101e-12 </wgt>
<wgt id='1672'> +1.5138383e-12 </wgt>
<wgt id='1673'> +1.4638821e-12 </wgt>
<wgt id='1674'> +1.4772201e-12 </wgt>
<wgt id='1675'> +1.4945386e-12 </wgt>
<wgt id='1676'> +1.4775508e-12 </wgt>
<wgt id='1677'> +1.4821710e-12 </wgt>
<wgt id='1678'> +1.4736897e-12 </wgt>
<wgt id='1679'> +1.4964143e-12 </wgt>
<wgt id='1680'> +1.5014547e-12 </wgt>
<wgt id='1681'> +1.4973370e-12 </wgt>
<wgt id='1682'> +1.4752388e-12 </wgt>
<wgt id='1683'> +1.4833677e-12 </wgt>
<wgt id='1684'> +1.4709848e-12 </wgt>
<wgt id='1685'> +1.4857696e-12 </wgt>
<wgt id='1686'> +1.4870640e-12 </wgt>
<wgt id='1687'> +1.4966744e-12 </wgt>
<wgt id='1688'> +1.4731225e-12 </wgt>
<wgt id='1689'> +1.4991051e-12 </wgt>
<wgt id='1690'> +1.4741298e-12 </wgt>
<wgt id='1691'> +1.5110693e-12 </wgt>
<wgt id='1692'> +1.5062963e-12 </wgt>
<wgt id='1693'> +1.4814840e-12 </wgt>
<wgt id='1694'> +1.4630291e-12 </wgt>
<wgt id='1695'> +1.5364359e-12 </wgt>
<wgt id='1696'> +1.4924113e-12 </wgt>
<wgt id='1697'> +1.4797983e-12 </wgt>
<wgt id='1698'> +1.4681057e-12 </wgt>
<wgt id='1699'> +1.4749550e-12 </wgt>
<wgt id='1700'> +1.4791011e-12 </wgt>
<wgt id='1701'> +1.5032298e-12 </wgt>
<wgt id='1702'> +1.4530363e-12 </wgt>
<wgt id='1703'> +1.5070920e-12 </wgt>
<wgt id='1704'> +1.4864098e-12 </wgt>
<wgt id='1705'> +1.4980534e-12 </wgt>
<wgt id='1706'> +1.4839755e-12 </wgt>
<wgt id='1707'> +1.4678668e-12 </wgt>
<wgt id='1708'> +1.4832041e-12 </wgt>
<wgt id='1709'> +1.4951028e-12 </wgt>
<wgt id='1710'> +1.4567407e-12 </wgt>
<wgt id='1711'> +1.4774686e-12 </wgt>
<wgt id='1712'> +1.5070998e-12 </wgt>
<wgt id='1713'> +1.2855134e-12 </wgt>
<wgt id='1714'> +1.2568246e-12 </wgt>
<wgt id='1715'> +1.2642016e-12 </wgt>
<wgt id='1716'> +1.2893778e-12 </wgt>
<wgt id='1717'> +1.2686091e-12 </wgt>
<wgt id='1718'> +1.2772672e-12 </wgt>
<wgt id='1719'> +1.3127905e-12 </wgt>
<wgt id='1720'> +1.2857466e-12 </wgt>
<wgt id='1721'> +1.2937546e-12 </wgt>
<wgt id='1722'> +1.2845384e-12 </wgt>
<wgt id='1723'> +1.2544544e-12 </wgt>
<wgt id='1724'> +1.2565983e-12 </wgt>
<wgt id='1725'> +1.3064939e-12 </wgt>
<wgt id='1726'> +1.3093068e-12 </wgt>
<wgt id='1727'> +1.2666348e-12 </wgt>
<wgt id='1728'> +1.2925435e-12 </wgt>
<wgt id='1729'> +1.2798598e-12 </wgt>
<wgt id='1730'> +1.2686983e-12 </wgt>
<wgt id='1731'> +1.2613531e-12 </wgt>
<wgt id='1732'> +1.3069203e-12 </wgt>
<wgt id='1733'> +1.2951828e-12 </wgt>
<wgt id='1734'> +1.3106008e-12 </wgt>
<wgt id='1735'> +1.2775348e-12 </wgt>
<wgt id='1736'> +1.3696570e-12 </wgt>
<wgt id='1737'> +1.3016656e-12 </wgt>
<wgt id='1738'> +1.2957667e-12 </wgt>
<wgt id='1739'> +1.2726936e-12 </wgt>
<wgt id='1740'> +1.2375677e-12 </wgt>
<wgt id='1741'> +1.2921508e-12 </wgt>
<wgt id='1742'> +1.2804914e-12 </wgt>
<wgt id='1743'> +1.3083315e-12 </wgt>
<wgt id='1744'> +1.3013161e-12 </wgt>
<wgt id='1745'> +1.2436077e-12 </wgt>
<wgt id='1746'> +1.2814603e-12 </wgt>
<wgt id='1747'> +1.3077060e-12 </wgt>
<wgt id='1748'> +1.2763133e-12 </wgt>
<wgt id='1749'> +1.3002883e-12 </wgt>
<wgt id='1750'> +1.3072641e-12 </wgt>
<wgt id='1751'> +1.2838636e-12 </wgt>
<wgt id='1752'> +1.2510520e-12 </wgt>
<wgt id='1753'> +1.3060131e-12 </wgt>
<wgt id='1754'> +1.2867479e-12 </wgt>
<wgt id='1755'> +1.2831227e-12 </wgt>
<wgt id='1756'> +1.3041695e-12 </wgt>
<wgt id='1757'> +1.2889985e-12 </wgt>
<wgt id='1758'> +1.3016217e-12 </wgt>
<wgt id='1759'> +1.3036524e-12 </wgt>
<wgt id='1760'> +1.2687642e-12 </wgt>
<wgt id='1761'> +1.2733225e-12 </wgt>
<wgt id='1762'> +1.2719545e-12 </wgt>
<wgt id='1763'> +1.2892358e-12 </wgt>
<wgt id='1764'> +1.2966324e-12 </wgt>
<wgt id='1765'> +1.2716276e-12 </wgt>
<wgt id='1766'> +1.3087103e-12 </wgt>
<wgt id='1767'> +1.2909271e-12 </wgt>
<wgt id='1768'> +1.2815154e-12 </wgt>
<wgt id='1769'> +1.2693091e-12 </wgt>
<wgt id='1770'> +1.3042030e-12 </wgt>
<wgt id='1771'> +1.2899949e-12 </wgt>
<wgt id='1772'> +1.2975847e-12 </wgt>
<wgt id='1773'> +1.2819667e-12 </wgt>
<wgt id='1774'> +1.2855739e-12 </wgt>
<wgt id='1775'> +1.2897345e-12 </wgt>
<wgt id='1776'> +1.3079802e-12 </wgt>
<wgt id='1777'> +1.2522243e-12 </wgt>
<wgt id='1778'> +1.2629965e-12 </wgt>
<wgt id='1779'> +1.3043885e-12 </wgt>
<wgt id='1780'> +1.3272600e-12 </wgt>
<wgt id='1781'> +1.2725891e-12 </wgt>
<wgt id='1782'> +1.2398842e-12 </wgt>
<wgt id='1783'> +1.2950289e-12 </wgt>
<wgt id='1784'> +1.2907585e-12 </wgt>
<wgt id='1785'> +1.2879714e-12 </wgt>
<wgt id='1786'> +1.2042475e-12 </wgt>
<wgt id='1787'> +1.3157709e-12 </wgt>
<wgt id='1788'> +1.2710494e-12 </wgt>
<wgt id='1789'> +1.2874151e-12 </wgt>
<wgt id='1790'> +1.3031986e-12 </wgt>
<wgt id='1791'> +1.3130041e-12 </wgt>
<wgt id='1792'> +1.2640710e-12 </wgt>
<wgt id='1793'> +1.2886673e-12 </wgt>
<wgt id='1794'> +1.2884845e-12 </wgt>
<wgt id='1795'> +1.2715330e-12 </wgt>
<wgt id='1796'> +1.2967939e-12 </wgt>
<wgt id='1797'> +1.2881788e-12 </wgt>
<wgt id='1798'> +1.2615712e-12 </wgt>
<wgt id='1799'> +1.2812861e-12 </wgt>
<wgt id='1800'> +1.2807972e-12 </wgt>
<wgt id='1801'> +1.2724807e-12 </wgt>
<wgt id='1802'> +1.3076737e-12 </wgt>
<wgt id='1803'> +1.2843770e-12 </wgt>
<wgt id='1804'> +1.2790776e-12 </wgt>
<wgt id='1805'> +1.2847754e-12 </wgt>
<wgt id='1806'> +1.2722686e-12 </wgt>
<wgt id='1807'> +1.3031945e-12 </wgt>
<wgt id='1808'> +1.2775521e-12 </wgt>
<wgt id='1809'> +1.2796559e-12 </wgt>
<wgt id='1810'> +1.2713402e-12 </wgt>
<wgt id='1811'> +1.3120054e-12 </wgt>
<wgt id='1812'> +1.3017472e-12 </wgt>
<wgt id='1813'> +1.2706445e-12 </wgt>
<wgt id='1814'> +1.1325194e-12 </wgt>
<wgt id='1815'> +1.2814113e-12 </wgt>
<wgt id='1816'> +1.2855134e-12 </wgt>
<wgt id='1817'> +1.2568246e-12 </wgt>
<wgt id='1818'> +1.2642016e-12 </wgt>
<wgt id='1819'> +1.2893778e-12 </wgt>
<wgt id='1820'> +1.2686091e-12 </wgt>
<wgt id='1821'> +1.2772672e-12 </wgt>
<wgt id='1822'> +1.3127905e-12 </wgt>
<wgt id='1823'> +1.2857466e-12 </wgt>
<wgt id='1824'> +1.2937546e-12 </wgt>
<wgt id='1825'> +1.2845384e-12 </wgt>
<wgt id='1826'> +1.2544544e-12 </wgt>
<wgt id='1827'> +1.2565983e-12 </wgt>
<wgt id='1828'> +1.3064939e-12 </wgt>
<wgt id='1829'> +1.3093068e-12 </wgt>
<wgt id='1830'> +1.2666348e-12 </wgt>
<wgt id='1831'> +1.2925435e-12 </wgt>
<wgt id='1832'> +1.2798598e-12 </wgt>
<wgt id='1833'> +1.2686983e-12 </wgt>
<wgt id='1834'> +1.2613531e-12 </wgt>
<wgt id='1835'> +1.3069203e-12 </wgt>
<wgt id='1836'> +1.2951828e-12 </wgt>
<wgt id='1837'> +1.3106008e-12 </wgt>
<wgt id='1838'> +1.2775348e-12 </wgt>
<wgt id='1839'> +1.3696570e-12 </wgt>
<wgt id='1840'> +1.3016656e-12 </wgt>
<wgt id='1841'> +1.2957667e-12 </wgt>
<wgt id='1842'> +1.2726936e-12 </wgt>
<wgt id='1843'> +1.2375677e-12 </wgt>
<wgt id='1844'> +1.2921508e-12 </wgt>
<wgt id='1845'> +1.2804914e-12 </wgt>
<wgt id='1846'> +1.3083315e-12 </wgt>
<wgt id='1847'> +1.3013161e-12 </wgt>
<wgt id='1848'> +1.2436077e-12 </wgt>
<wgt id='1849'> +1.2814603e-12 </wgt>
<wgt id='1850'> +1.3077060e-12 </wgt>
<wgt id='1851'> +1.2763133e-12 </wgt>
<wgt id='1852'> +1.3002883e-12 </wgt>
<wgt id='1853'> +1.3072641e-12 </wgt>
<wgt id='1854'> +1.2838636e-12 </wgt>
<wgt id='1855'> +1.2510520e-12 </wgt>
<wgt id='1856'> +1.3060131e-12 </wgt>
<wgt id='1857'> +1.2867479e-12 </wgt>
<wgt id='1858'> +1.2831227e-12 </wgt>
<wgt id='1859'> +1.3041695e-12 </wgt>
<wgt id='1860'> +1.2889985e-12 </wgt>
<wgt id='1861'> +1.3016217e-12 </wgt>
<wgt id='1862'> +1.3036524e-12 </wgt>
<wgt id='1863'> +1.2687642e-12 </wgt>
<wgt id='1864'> +1.2733225e-12 </wgt>
<wgt id='1865'> +1.2719545e-12 </wgt>
<wgt id='1866'> +1.2892358e-12 </wgt>
<wgt id='1867'> +1.2966324e-12 </wgt>
<wgt id='1868'> +1.2716276e-12 </wgt>
<wgt id='1869'> +1.3087103e-12 </wgt>
<wgt id='1870'> +1.2909271e-12 </wgt>
<wgt id='1871'> +1.2815154e-12 </wgt>
<wgt id='1872'> +1.2693091e-12 </wgt>
<wgt id='1873'> +1.3042030e-12 </wgt>
<wgt id='1874'> +1.2899949e-12 </wgt>
<wgt id='1875'> +1.2975847e-12 </wgt>
<wgt id='1876'> +1.2819667e-12 </wgt>
<wgt id='1877'> +1.2855739e-12 </wgt>
<wgt id='1878'> +1.2897345e-12 </wgt>
<wgt id='1879'> +1.3079802e-12 </wgt>
<wgt id='1880'> +1.2522243e-12 </wgt>
<wgt id='1881'> +1.2629965e-12 </wgt>
<wgt id='1882'> +1.3043885e-12 </wgt>
<wgt id='1883'> +1.3272600e-12 </wgt>
<wgt id='1884'> +1.2725891e-12 </wgt>
<wgt id='1885'> +1.2398842e-12 </wgt>
<wgt id='1886'> +1.2950289e-12 </wgt>
<wgt id='1887'> +1.2907585e-12 </wgt>
<wgt id='1888'> +1.2879714e-12 </wgt>
<wgt id='1889'> +1.2042475e-12 </wgt>
<wgt id='1890'> +1.3157709e-12 </wgt>
<wgt id='1891'> +1.2710494e-12 </wgt>
<wgt id='1892'> +1.2874151e-12 </wgt>
<wgt id='1893'> +1.3031986e-12 </wgt>
<wgt id='1894'> +1.3130041e-12 </wgt>
<wgt id='1895'> +1.2640710e-12 </wgt>
<wgt id='1896'> +1.2886673e-12 </wgt>
<wgt id='1897'> +1.2884845e-12 </wgt>
<wgt id='1898'> +1.2715330e-12 </wgt>
<wgt id='1899'> +1.2967939e-12 </wgt>
<wgt id='1900'> +1.2881788e-12 </wgt>
<wgt id='1901'> +1.2615712e-12 </wgt>
<wgt id='1902'> +1.2812861e-12 </wgt>
<wgt id='1903'> +1.2807972e-12 </wgt>
<wgt id='1904'> +1.2724807e-12 </wgt>
<wgt id='1905'> +1.3076737e-12 </wgt>
<wgt id='1906'> +1.2843770e-12 </wgt>
<wgt id='1907'> +1.2790776e-12 </wgt>
<wgt id='1908'> +1.2847754e-12 </wgt>
<wgt id='1909'> +1.2722686e-12 </wgt>
<wgt id='1910'> +1.3031945e-12 </wgt>
<wgt id='1911'> +1.2775521e-12 </wgt>
<wgt id='1912'> +1.2796559e-12 </wgt>
<wgt id='1913'> +1.2713402e-12 </wgt>
<wgt id='1914'> +1.3120054e-12 </wgt>
<wgt id='1915'> +1.3017472e-12 </wgt>
<wgt id='1916'> +1.2706445e-12 </wgt>
<wgt id='1917'> +1.2718870e-12 </wgt>
<wgt id='1918'> +1.2998388e-12 </wgt>
<wgt id='1919'> +1.2476547e-12 </wgt>
</rwgt>
</event>
<event>
 9      1 +1.5538000e-12 2.70143700e+01 7.81860800e-03 1.48184700e-01
        2 -1    0    0  502    0 -0.0000000000e+00 +0.0000000000e+00 +2.0135488739e+02 2.0135488739e+02 0.0000000000e+00 0.0000e+00 -1.0000e+00
       21 -1    0    0  501  502 +0.0000000000e+00 -0.0000000000e+00 -4.3588656080e+00 4.3588656080e+00 0.0000000000e+00 0.0000e+00 -1.0000e+00
     1023  2    1    2    0    0 +1.1352698187e+01 -1.9388348624e+01 +1.6122167199e+02 1.6346927500e+02 1.4999484339e+01 0.0000e+00 0.0000e+00
  1000023  2    3    3    0    0 +1.6215532619e+00 -1.0346100671e+01 +9.5676360750e+01 9.6404789201e+01 5.4996491204e+00 0.0000e+00 0.0000e+00
        2  1    1    2  501    0 -1.1352698187e+01 +1.9388348624e+01 +3.5774349791e+01 4.2244478000e+01 0.0000000000e+00 0.0000e+00 -1.0000e+00
  1000022  1    4    4    0    0 +1.4010712946e+00 -9.8451760822e+00 +8.9277288276e+01 8.9968465002e+01 5.0000000000e+00 0.0000e+00 -1.0000e+00
      -13  1    4    4    0    0 +3.1583863845e-01 -3.2897986396e-01 +4.3864647404e+00 4.4113747523e+00 1.0570000000e-01 0.0000e+00 -1.0000e+00
       13  1    4    4    0    0 -9.5356671197e-02 -1.7194472446e-01 +2.0126077335e+00 2.0249494468e+00 1.0570000000e-01 0.0000e+00 1.0000e+00
  1000022  1    3    3    0    0 +9.7311449251e+00 -9.0422479533e+00 +6.5545311243e+01 6.7064485800e+01 5.0000000000e+00 0.0000e+00 1.0000e+00
<mgrwt>
<rscale>  1 0.27014373E+02</rscale>
<asrwt>0</asrwt>
<pdfrwt beam="1">  1       21 0.67059487E-03 0.27014373E+02</pdfrwt>
<pdfrwt beam="2">  1        2 0.30977668E-01 0.27014373E+02</pdfrwt>
<totfact> 0.94344345E+06</totfact>
</mgrwt>
<rwgt>
<wgt id='1001'> +1.5538000e-12 </wgt>
<wgt id='1002'> +1.6339066e-12 </wgt>
<wgt id='1003'> +1.6389158e-12 </wgt>
<wgt id='1004'> +1.5333546e-12 </wgt>
<wgt id='1005'> +1.6595075e-12 </wgt>
<wgt id='1006'> +1.3556066e-12 </wgt>
<wgt id='1007'> +1.4455047e-12 </wgt>
<wgt id='1008'> +1.4514000e-12 </wgt>
<wgt id='1009'> +1.3334895e-12 </wgt>
<wgt id='1010'> +1.4760913e-12 </wgt>
<wgt id='1011'> +1.8233390e-12 </wgt>
<wgt id='1012'> +1.8813006e-12 </wgt>
<wgt id='1013'> +1.8845586e-12 </wgt>
<wgt id='1014'> +1.8073590e-12 </wgt>
<wgt id='1015'> +1.8972010e-12 </wgt>
<wgt id='1016'> +1.8918411e-12 </wgt>
<wgt id='1017'> +1.9135139e-12 </wgt>
<wgt id='1018'> +1.9143416e-12 </wgt>
<wgt id='1019'> +1.8845586e-12 </wgt>
<wgt id='1020'> +1.9167908e-12 </wgt>
<wgt id='1021'> +1.6505292e-12 </wgt>
<wgt id='1022'> +1.6928711e-12 </wgt>
<wgt id='1023'> +1.6953131e-12 </wgt>
<wgt id='1024'> +1.6389158e-12 </wgt>
<wgt id='1025'> +1.7049386e-12 </wgt>
<wgt id='1026'> +2.2200203e-12 </wgt>
<wgt id='1027'> +2.2032439e-12 </wgt>
<wgt id='1028'> +2.2012656e-12 </wgt>
<wgt id='1029'> +2.2213218e-12 </wgt>
<wgt id='1030'> +2.1913354e-12 </wgt>
<wgt id='1031'> +1.1840144e-12 </wgt>
<wgt id='1032'> +1.3241667e-12 </wgt>
<wgt id='1033'> +1.3334895e-12 </wgt>
<wgt id='1034'> +1.1499120e-12 </wgt>
<wgt id='1035'> +1.3735523e-12 </wgt>
<wgt id='1036'> +1.0329886e-12 </wgt>
<wgt id='1037'> +1.1714802e-12 </wgt>
<wgt id='1038'> +1.1809189e-12 </wgt>
<wgt id='1039'> +1.0000267e-12 </wgt>
<wgt id='1040'> +1.2217411e-12 </wgt>
<wgt id='1041'> +1.3894063e-12 </wgt>
<wgt id='1042'> +1.5246621e-12 </wgt>
<wgt id='1043'> +1.5333546e-12 </wgt>
<wgt id='1044'> +1.3553968e-12 </wgt>
<wgt id='1045'> +1.5702881e-12 </wgt>
<wgt id='1046'> +1.5538000e-12 </wgt>
<wgt id='1047'> +1.5950454e-12 </wgt>
<wgt id='1048'> +1.5689068e-12 </wgt>
<wgt id='1049'> +1.5142353e-12 </wgt>
<wgt id='1050'> +1.5234784e-12 </wgt>
<wgt id='1051'> +1.5156456e-12 </wgt>
<wgt id='1052'> +1.5404841e-12 </wgt>
<wgt id='1053'> +1.5874332e-12 </wgt>
<wgt id='1054'> +1.5623367e-12 </wgt>
<wgt id='1055'> +1.5117737e-12 </wgt>
<wgt id='1056'> +1.5150397e-12 </wgt>
<wgt id='1057'> +1.5480927e-12 </wgt>
<wgt id='1058'> +1.5043335e-12 </wgt>
<wgt id='1059'> +1.5604048e-12 </wgt>
<wgt id='1060'> +1.5668770e-12 </wgt>
<wgt id='1061'> +1.5719775e-12 </wgt>
<wgt id='1062'> +1.5613561e-12 </wgt>
<wgt id='1063'> +1.5476332e-12 </wgt>
<wgt id='1064'> +1.5455914e-12 </wgt>
<wgt id='1065'> +1.5788282e-12 </wgt>
<wgt id='1066'> +1.5368446e-12 </wgt>
<wgt id='1067'> +1.5417958e-12 </wgt>
<wgt id='1068'> +1.5937132e-12 </wgt>
<wgt id='1069'> +1.5910699e-12 </wgt>
<wgt id='1070'> +1.5559377e-12 </wgt>
<wgt id='1071'> +1.5294150e-12 </wgt>
<wgt id='1072'> +1.5945794e-12 </wgt>
<wgt id='1073'> +1.5647214e-12 </wgt>
<wgt id='1074'> +1.5388534e-12 </wgt>
<wgt id='1075'> +1.5629728e-12 </wgt>
<wgt id='1076'> +1.5312616e-12 </wgt>
<wgt id='1077'> +1.5676983e-12 </wgt>
<wgt id='1078'> +1.5132227e-12 </wgt>
<wgt id='1079'> +1.5337974e-12 </wgt>
<wgt id='1080'> +1.5420209e-12 </wgt>
<wgt id='1081'> +1.5506242e-12 </wgt>
<wgt id='1082'> +1.5304434e-12 </wgt>
<wgt id='1083'> +1.5558082e-12 </wgt>
<wgt id='1084'> +1.5232136e-12 </wgt>
<wgt id='1085'> +1.5538542e-12 </wgt>
<wgt id='1086'> +1.5957623e-12 </wgt>
<wgt id='1087'> +1.5279767e-12 </wgt>
<wgt id='1088'> +1.5716218e-12 </wgt>
<wgt id='1089'> +1.5467137e-12 </wgt>
<wgt id='1090'> +1.5398046e-12 </wgt>
<wgt id='1091'> +1.5705262e-12 </wgt>
<wgt id='1092'> +1.5944297e-12 </wgt>
<wgt id='1093'> +1.5595255e-12 </wgt>
<wgt id='1094'> +1.5868030e-12 </wgt>
<wgt id='1095'> +1.5816879e-12 </wgt>
<wgt id='1096'> +1.5747966e-12 </wgt>
<wgt id='1097'> +1.5540344e-12 </wgt>
<wgt id='1098'> +1.5535782e-12 </wgt>
<wgt id='1099'> +1.5364663e-12 </wgt>
<wgt id='1100'> +1.5960543e-12 </wgt>
<wgt id='1101'> +1.5851692e-12 </wgt>
<wgt id='1102'> +1.5387100e-12 </wgt>
<wgt id='1103'> +1.6009283e-12 </wgt>
<wgt id='1104'> +1.5259438e-12 </wgt>
<wgt id='1105'> +1.4944392e-12 </wgt>
<wgt id='1106'> +1.5791008e-12 </wgt>
<wgt id='1107'> +1.5855182e-12 </wgt>
<wgt id='1108'> +1.5630541e-12 </wgt>
<wgt id='1109'> +1.5636190e-12 </wgt>
<wgt id='1110'> +1.5493201e-12 </wgt>
<wgt id='1111'> +1.5466262e-12 </wgt>
<wgt id='1112'> +1.5288514e-12 </wgt>
<wgt id='1113'> +1.6247143e-12 </wgt>
<wgt id='1114'> +1.5734845e-12 </wgt>
<wgt id='1115'> +1.5716904e-12 </wgt>
<wgt id='1116'> +1.6063486e-12 </wgt>
<wgt id='1117'> +1.5211281e-12 </wgt>
<wgt id='1118'> +1.6346407e-12 </wgt>
<wgt id='1119'> +1.4762091e-12 </wgt>
<wgt id='1120'> +1.5251318e-12 </wgt>
<wgt id='1121'> +1.5318137e-12 </wgt>
<wgt id='1122'> +1.5494674e-12 </wgt>
<wgt id='1123'> +1.5644783e-12 </wgt>
<wgt id='1124'> +1.5446884e-12 </wgt>
<wgt id='1125'> +1.5167361e-12 </wgt>
<wgt id='1126'> +1.5515575e-12 </wgt>
<wgt id='1127'> +1.5725679e-12 </wgt>
<wgt id='1128'> +1.5613561e-12 </wgt>
<wgt id='1129'> +1.5551093e-12 </wgt>
<wgt id='1130'> +1.5385351e-12 </wgt>
<wgt id='1131'> +1.5559619e-12 </wgt>
<wgt id='1132'> +1.5763863e-12 </wgt>
<wgt id='1133'> +1.5226731e-12 </wgt>
<wgt id='1134'> +1.5457943e-12 </wgt>
<wgt id='1135'> +1.5030158e-12 </wgt>
<wgt id='1136'> +1.5212700e-12 </wgt>
<wgt id='1137'> +1.5514191e-12 </wgt>
<wgt id='1138'> +1.5313422e-12 </wgt>
<wgt id='1139'> +1.5491968e-12 </wgt>
<wgt id='1140'> +1.5783922e-12 </wgt>
<wgt id='1141'> +1.5669583e-12 </wgt>
<wgt id='1142'> +1.5467175e-12 </wgt>
<wgt id='1143'> +1.5569568e-12 </wgt>
<wgt id='1144'> +1.5297825e-12 </wgt>
<wgt id='1145'> +1.5863682e-12 </wgt>
<wgt id='1146'> +1.5569895e-12 </wgt>
<wgt id='1147'> +1.3320065e-12 </wgt>
<wgt id='1148'> +1.3610476e-12 </wgt>
<wgt id='1149'> +1.3105414e-12 </wgt>
<wgt id='1150'> +1.3453377e-12 </wgt>
<wgt id='1151'> +1.5832634e-12 </wgt>
<wgt id='1152'> +1.9961620e-12 </wgt>
<wgt id='1153'> +1.9895554e-12 </wgt>
<wgt id='1154'> +1.9999580e-12 </wgt>
<wgt id='1155'> +1.9929479e-12 </wgt>
<wgt id='1156'> +1.9978326e-12 </wgt>
<wgt id='1157'> +1.9995624e-12 </wgt>
<wgt id='1158'> +1.9915199e-12 </wgt>
<wgt id='1159'> +1.9991429e-12 </wgt>
<wgt id='1160'> +1.9942814e-12 </wgt>
<wgt id='1161'> +1.9926193e-12 </wgt>
<wgt id='1162'> +1.9986078e-12 </wgt>
<wgt id='1163'> +1.9983795e-12 </wgt>
<wgt id='1164'> +1.9939328e-12 </wgt>
<wgt id='1165'> +1.9906513e-12 </wgt>
<wgt id='1166'> +2.0013441e-12 </wgt>
<wgt id='1167'> +2.0116281e-12 </wgt>
<wgt id='1168'> +1.9763433e-12 </wgt>
<wgt id='1169'> +2.0000214e-12 </wgt>
<wgt id='1170'> +1.9932780e-12 </wgt>
<wgt id='1171'> +1.9867831e-12 </wgt>
<wgt id='1172'> +2.0076522e-12 </wgt>
<wgt id='1173'> +1.9780432e-12 </wgt>
<wgt id='1174'> +2.0138301e-12 </wgt>
<wgt id='1175'> +2.0009079e-12 </wgt>
<wgt id='1176'> +1.9914837e-12 </wgt>
<wgt id='1177'> +1.9934823e-12 </wgt>
<wgt id='1178'> +2.0035606e-12 </wgt>
<wgt id='1179'> +1.9956033e-12 </wgt>
<wgt id='1180'> +1.9896315e-12 </wgt>
<wgt id='1181'> +1.9983775e-12 </wgt>
<wgt id='1182'> +1.9930800e-12 </wgt>
<wgt id='1183'> +1.9879765e-12 </wgt>
<wgt id='1184'> +1.9968165e-12 </wgt>
<wgt id='1185'> +1.9915027e-12 </wgt>
<wgt id='1186'> +1.9993553e-12 </wgt>
<wgt id='1187'> +1.9974524e-12 </wgt>
<wgt id='1188'> +1.9957315e-12 </wgt>
<wgt id='1189'> +1.9916870e-12 </wgt>
<wgt id='1190'> +1.9786852e-12 </wgt>
<wgt id='1191'> +1.9953957e-12 </wgt>
<wgt id='1192'> +1.9994315e-12 </wgt>
<wgt id='1193'> +1.3222067e-12 </wgt>
<wgt id='1194'> +1.3137096e-12 </wgt>
<wgt id='1195'> +1.3291675e-12 </wgt>
<wgt id='1196'> +1.3264606e-12 </wgt>
<wgt id='1197'> +1.3174574e-12 </wgt>
<wgt id='1198'> +1.3220219e-12 </wgt>
<wgt id='1199'> +1.3225072e-12 </wgt>
<wgt id='1200'> +1.3214287e-12 </wgt>
<wgt id='1201'> +1.3227681e-12 </wgt>
<wgt id='1202'> +1.3207564e-12 </wgt>
<wgt id='1203'> +1.3242394e-12 </wgt>
<wgt id='1204'> +1.3136952e-12 </wgt>
<wgt id='1205'> +1.3273170e-12 </wgt>
<wgt id='1206'> +1.3256243e-12 </wgt>
<wgt id='1207'> +1.3175884e-12 </wgt>
<wgt id='1208'> +1.3205349e-12 </wgt>
<wgt id='1209'> +1.3228101e-12 </wgt>
<wgt id='1210'> +1.3185112e-12 </wgt>
<wgt id='1211'> +1.3192952e-12 </wgt>
<wgt id='1212'> +1.3237655e-12 </wgt>
<wgt id='1213'> +1.3208324e-12 </wgt>
<wgt id='1214'> +1.3076488e-12 </wgt>
<wgt id='1215'> +1.3439750e-12 </wgt>
<wgt id='1216'> +1.3231261e-12 </wgt>
<wgt id='1217'> +1.3208891e-12 </wgt>
<wgt id='1218'> +1.3275598e-12 </wgt>
<wgt id='1219'> +1.3192966e-12 </wgt>
<wgt id='1220'> +1.3290811e-12 </wgt>
<wgt id='1221'> +1.3202157e-12 </wgt>
<wgt id='1222'> +1.3363355e-12 </wgt>
<wgt id='1223'> +1.3000766e-12 </wgt>
<wgt id='1224'> +1.3253427e-12 </wgt>
<wgt id='1225'> +1.3209736e-12 </wgt>
<wgt id='1226'> +1.3195519e-12 </wgt>
<wgt id='1227'> +1.3241652e-12 </wgt>
<wgt id='1228'> +1.3097606e-12 </wgt>
<wgt id='1229'> +1.3273804e-12 </wgt>
<wgt id='1230'> +1.3210671e-12 </wgt>
<wgt id='1231'> +1.3251517e-12 </wgt>
<wgt id='1232'> +1.3198975e-12 </wgt>
<wgt id='1233'> +1.3227660e-12 </wgt>
<wgt id='1234'> +1.3222067e-12 </wgt>
<wgt id='1235'> +1.3142177e-12 </wgt>
<wgt id='1236'> +1.3172360e-12 </wgt>
<wgt id='1237'> +1.3199515e-12 </wgt>
<wgt id='1238'> +1.3244188e-12 </wgt>
<wgt id='1239'> +1.3262124e-12 </wgt>
<wgt id='1240'> +1.3280271e-12 </wgt>
<wgt id='1241'> +1.2738837e-12 </wgt>
<wgt id='1242'> +1.2627674e-12 </wgt>
<wgt id='1243'> +1.2848527e-12 </wgt>
<wgt id='1244'> +1.2708958e-12 </wgt>
<wgt id='1245'> +1.2760090e-12 </wgt>
<wgt id='1246'> +1.2720664e-12 </wgt>
<wgt id='1247'> +1.2754415e-12 </wgt>
<wgt id='1248'> +1.2738143e-12 </wgt>
<wgt id='1249'> +1.2739354e-12 </wgt>
<wgt id='1250'> +1.2752486e-12 </wgt>
<wgt id='1251'> +1.2728947e-12 </wgt>
<wgt id='1252'> +1.2716922e-12 </wgt>
<wgt id='1253'> +1.2755588e-12 </wgt>
<wgt id='1254'> +1.2672265e-12 </wgt>
<wgt id='1255'> +1.2778298e-12 </wgt>
<wgt id='1256'> +1.2751829e-12 </wgt>
<wgt id='1257'> +1.2705241e-12 </wgt>
<wgt id='1258'> +1.2884537e-12 </wgt>
<wgt id='1259'> +1.2594979e-12 </wgt>
<wgt id='1260'> +1.2763344e-12 </wgt>
<wgt id='1261'> +1.2713098e-12 </wgt>
<wgt id='1262'> +1.2703807e-12 </wgt>
<wgt id='1263'> +1.2751795e-12 </wgt>
<wgt id='1264'> +1.2814230e-12 </wgt>
<wgt id='1265'> +1.2702788e-12 </wgt>
<wgt id='1266'> +1.2583621e-12 </wgt>
<wgt id='1267'> +1.2878224e-12 </wgt>
<wgt id='1268'> +1.2790546e-12 </wgt>
<wgt id='1269'> +1.2703693e-12 </wgt>
<wgt id='1270'> +1.2706525e-12 </wgt>
<wgt id='1271'> +1.2739075e-12 </wgt>
<wgt id='1272'> +1.2730416e-12 </wgt>
<wgt id='1273'> +1.2741671e-12 </wgt>
<wgt id='1274'> +1.2753797e-12 </wgt>
<wgt id='1275'> +1.2713212e-12 </wgt>
<wgt id='1276'> +1.2819403e-12 </wgt>
<wgt id='1277'> +1.2623477e-12 </wgt>
<wgt id='1278'> +1.2785307e-12 </wgt>
<wgt id='1279'> +1.2773041e-12 </wgt>
<wgt id='1280'> +1.2746572e-12 </wgt>
<wgt id='1281'> +1.2720240e-12 </wgt>
<wgt id='1282'> +1.2738837e-12 </wgt>
<wgt id='1283'> +1.2662656e-12 </wgt>
<wgt id='1284'> +1.2693386e-12 </wgt>
<wgt id='1285'> +1.2718423e-12 </wgt>
<wgt id='1286'> +1.2760409e-12 </wgt>
<wgt id='1287'> +1.2776187e-12 </wgt>
<wgt id='1288'> +1.2788800e-12 </wgt>
<wgt id='1289'> +1.3889475e-12 </wgt>
<wgt id='1290'> +1.3884852e-12 </wgt>
<wgt id='1291'> +1.3894838e-12 </wgt>
<wgt id='1292'> +1.3874083e-12 </wgt>
<wgt id='1293'> +1.3901087e-12 </wgt>
<wgt id='1294'> +1.3767608e-12 </wgt>
<wgt id='1295'> +1.4008141e-12 </wgt>
<wgt id='1296'> +1.3885896e-12 </wgt>
<wgt id='1297'> +1.3892840e-12 </wgt>
<wgt id='1298'> +1.3945393e-12 </wgt>
<wgt id='1299'> +1.3819898e-12 </wgt>
<wgt id='1300'> +1.3916748e-12 </wgt>
<wgt id='1301'> +1.3835740e-12 </wgt>
<wgt id='1302'> +1.3861992e-12 </wgt>
<wgt id='1303'> +1.3927836e-12 </wgt>
<wgt id='1304'> +1.3867514e-12 </wgt>
<wgt id='1305'> +1.3904728e-12 </wgt>
<wgt id='1306'> +1.3850783e-12 </wgt>
<wgt id='1307'> +1.3932727e-12 </wgt>
<wgt id='1308'> +1.3819664e-12 </wgt>
<wgt id='1309'> +1.3943026e-12 </wgt>
<wgt id='1310'> +1.3869198e-12 </wgt>
<wgt id='1311'> +1.3912686e-12 </wgt>
<wgt id='1312'> +1.3907066e-12 </wgt>
<wgt id='1313'> +1.3872220e-12 </wgt>
<wgt id='1314'> +1.3730928e-12 </wgt>
<wgt id='1315'> +1.4011340e-12 </wgt>
<wgt id='1316'> +1.3977849e-12 </wgt>
<wgt id='1317'> +1.3878832e-12 </wgt>
<wgt id='1318'> +1.3995611e-12 </wgt>
<wgt id='1319'> +1.3757619e-12 </wgt>
<wgt id='1320'> +1.3995640e-12 </wgt>
<wgt id='1321'> +1.3799028e-12 </wgt>
<wgt id='1322'> +1.3881613e-12 </wgt>
<wgt id='1323'> +1.3899947e-12 </wgt>
<wgt id='1324'> +1.3834090e-12 </wgt>
<wgt id='1325'> +1.4075413e-12 </wgt>
<wgt id='1326'> +1.3887443e-12 </wgt>
<wgt id='1327'> +1.3914895e-12 </wgt>
<wgt id='1328'> +1.3892057e-12 </wgt>
<wgt id='1329'> +1.3884930e-12 </wgt>
<wgt id='1330'> +1.3938136e-12 </wgt>
<wgt id='1331'> +1.3870679e-12 </wgt>
<wgt id='1332'> +1.4050622e-12 </wgt>
<wgt id='1333'> +1.3856117e-12 </wgt>
<wgt id='1334'> +1.3869412e-12 </wgt>
<wgt id='1335'> +1.3956269e-12 </wgt>
<wgt id='1336'> +1.3881222e-12 </wgt>
<wgt id='1337'> +1.3934508e-12 </wgt>
<wgt id='1338'> +1.3859858e-12 </wgt>
<wgt id='1339'> +1.3896968e-12 </wgt>
<wgt id='1340'> +1.3616613e-12 </wgt>
<wgt id='1341'> +1.3611006e-12 </wgt>
<wgt id='1342'> +1.3622220e-12 </wgt>
<wgt id='1343'> +1.3600418e-12 </wgt>
<wgt id='1344'> +1.3627352e-12 </wgt>
<wgt id='1345'> +1.3491700e-12 </wgt>
<wgt id='1346'> +1.3732710e-12 </wgt>
<wgt id='1347'> +1.3619351e-12 </wgt>
<wgt id='1348'> +1.3612604e-12 </wgt>
<wgt id='1349'> +1.3668105e-12 </wgt>
<wgt id='1350'> +1.3565996e-12 </wgt>
<wgt id='1351'> +1.3641796e-12 </wgt>
<wgt id='1352'> +1.3561506e-12 </wgt>
<wgt id='1353'> +1.3581048e-12 </wgt>
<wgt id='1354'> +1.3679816e-12 </wgt>
<wgt id='1355'> +1.3599554e-12 </wgt>
<wgt id='1356'> +1.3625887e-12 </wgt>
<wgt id='1357'> +1.3562944e-12 </wgt>
<wgt id='1358'> +1.3678295e-12 </wgt>
<wgt id='1359'> +1.3557979e-12 </wgt>
<wgt id='1360'> +1.3667264e-12 </wgt>
<wgt id='1361'> +1.3602482e-12 </wgt>
<wgt id='1362'> +1.3636679e-12 </wgt>
<wgt id='1363'> +1.3672602e-12 </wgt>
<wgt id='1364'> +1.3581806e-12 </wgt>
<wgt id='1365'> +1.3683809e-12 </wgt>
<wgt id='1366'> +1.3463894e-12 </wgt>
<wgt id='1367'> +1.3703832e-12 </wgt>
<wgt id='1368'> +1.3598877e-12 </wgt>
<wgt id='1369'> +1.3708181e-12 </wgt>
<wgt id='1370'> +1.3504030e-12 </wgt>
<wgt id='1371'> +1.3703160e-12 </wgt>
<wgt id='1372'> +1.3513149e-12 </wgt>
<wgt id='1373'> +1.3583228e-12 </wgt>
<wgt id='1374'> +1.3647000e-12 </wgt>
<wgt id='1375'> +1.3561990e-12 </wgt>
<wgt id='1376'> +1.3809100e-12 </wgt>
<wgt id='1377'> +1.3610774e-12 </wgt>
<wgt id='1378'> +1.3647230e-12 </wgt>
<wgt id='1379'> +1.3618784e-12 </wgt>
<wgt id='1380'> +1.3611454e-12 </wgt>
<wgt id='1381'> +1.3668775e-12 </wgt>
<wgt id='1382'> +1.3590557e-12 </wgt>
<wgt id='1383'> +1.3759705e-12 </wgt>
<wgt id='1384'> +1.3602860e-12 </wgt>
<wgt id='1385'> +1.3600344e-12 </wgt>
<wgt id='1386'> +1.3667795e-12 </wgt>
<wgt id='1387'> +1.3597599e-12 </wgt>
<wgt id='1388'> +1.3661940e-12 </wgt>
<wgt id='1389'> +1.3575946e-12 </wgt>
<wgt id='1390'> +1.3627389e-12 </wgt>
<wgt id='1391'> +1.3431327e-12 </wgt>
<wgt id='1392'> +1.3050247e-12 </wgt>
<wgt id='1393'> +1.3178456e-12 </wgt>
<wgt id='1394'> +1.3314510e-12 </wgt>
<wgt id='1395'> +1.3570976e-12 </wgt>
<wgt id='1396'> +1.3444355e-12 </wgt>
<wgt id='1397'> +1.3138957e-12 </wgt>
<wgt id='1398'> +1.3195833e-12 </wgt>
<wgt id='1399'> +1.3248768e-12 </wgt>
<wgt id='1400'> +1.3309324e-12 </wgt>
<wgt id='1401'> +1.3377078e-12 </wgt>
<wgt id='1402'> +1.3511523e-12 </wgt>
<wgt id='1403'> +1.3581203e-12 </wgt>
<wgt id='1404'> +1.3651460e-12 </wgt>
<wgt id='1405'> +1.3444355e-12 </wgt>
<wgt id='1406'> +1.3397558e-12 </wgt>
<wgt id='1407'> +1.3422324e-12 </wgt>
<wgt id='1408'> +1.3464538e-12 </wgt>
<wgt id='1409'> +1.3484833e-12 </wgt>
<wgt id='1410'> +1.2811331e-12 </wgt>
<wgt id='1411'> +1.2822883e-12 </wgt>
<wgt id='1412'> +1.2796320e-12 </wgt>
<wgt id='1413'> +1.2771565e-12 </wgt>
<wgt id='1414'> +1.2851185e-12 </wgt>
<wgt id='1415'> +1.2769704e-12 </wgt>
<wgt id='1416'> +1.2828288e-12 </wgt>
<wgt id='1417'> +1.2731738e-12 </wgt>
<wgt id='1418'> +1.2890682e-12 </wgt>
<wgt id='1419'> +1.2829739e-12 </wgt>
<wgt id='1420'> +1.2793504e-12 </wgt>
<wgt id='1421'> +1.2683436e-12 </wgt>
<wgt id='1422'> +1.2866354e-12 </wgt>
<wgt id='1423'> +1.2805642e-12 </wgt>
<wgt id='1424'> +1.2818533e-12 </wgt>
<wgt id='1425'> +1.2744156e-12 </wgt>
<wgt id='1426'> +1.2883666e-12 </wgt>
<wgt id='1427'> +1.2606470e-12 </wgt>
<wgt id='1428'> +1.2922402e-12 </wgt>
<wgt id='1429'> +1.2829489e-12 </wgt>
<wgt id='1430'> +1.2787624e-12 </wgt>
<wgt id='1431'> +1.2814492e-12 </wgt>
<wgt id='1432'> +1.2808159e-12 </wgt>
<wgt id='1433'> +1.2722519e-12 </wgt>
<wgt id='1434'> +1.2873611e-12 </wgt>
<wgt id='1435'> +1.2767960e-12 </wgt>
<wgt id='1436'> +1.2917282e-12 </wgt>
<wgt id='1437'> +1.2892758e-12 </wgt>
<wgt id='1438'> +1.2806617e-12 </wgt>
<wgt id='1439'> +1.2757815e-12 </wgt>
<wgt id='1440'> +1.2911530e-12 </wgt>
<wgt id='1441'> +1.2833089e-12 </wgt>
<wgt id='1442'> +1.2779218e-12 </wgt>
<wgt id='1443'> +1.2773080e-12 </wgt>
<wgt id='1444'> +1.2910118e-12 </wgt>
<wgt id='1445'> +1.3006582e-12 </wgt>
<wgt id='1446'> +1.2746477e-12 </wgt>
<wgt id='1447'> +1.2804642e-12 </wgt>
<wgt id='1448'> +1.2856920e-12 </wgt>
<wgt id='1449'> +1.2819984e-12 </wgt>
<wgt id='1450'> +1.2801443e-12 </wgt>
<wgt id='1451'> +1.2799642e-12 </wgt>
<wgt id='1452'> +1.2852082e-12 </wgt>
<wgt id='1453'> +1.2818641e-12 </wgt>
<wgt id='1454'> +1.2746093e-12 </wgt>
<wgt id='1455'> +1.2856999e-12 </wgt>
<wgt id='1456'> +1.2844154e-12 </wgt>
<wgt id='1457'> +1.2846904e-12 </wgt>
<wgt id='1458'> +1.2803161e-12 </wgt>
<wgt id='1459'> +1.2861648e-12 </wgt>
<wgt id='1460'> +1.2835434e-12 </wgt>
<wgt id='1461'> +1.2811331e-12 </wgt>
<wgt id='1462'> +1.2710795e-12 </wgt>
<wgt id='1463'> +1.2880324e-12 </wgt>
<wgt id='1464'> +1.2799885e-12 </wgt>
<wgt id='1465'> +1.2496998e-12 </wgt>
<wgt id='1466'> +1.2552891e-12 </wgt>
<wgt id='1467'> +1.2616257e-12 </wgt>
<wgt id='1468'> +1.2683091e-12 </wgt>
<wgt id='1469'> +1.2737845e-12 </wgt>
<wgt id='1470'> +1.2866066e-12 </wgt>
<wgt id='1471'> +1.2921191e-12 </wgt>
<wgt id='1472'> +1.2984343e-12 </wgt>
<wgt id='1473'> +1.2799885e-12 </wgt>
<wgt id='1474'> +1.2757345e-12 </wgt>
<wgt id='1475'> +1.2779132e-12 </wgt>
<wgt id='1476'> +1.2817341e-12 </wgt>
<wgt id='1477'> +1.2832564e-12 </wgt>
<wgt id='1478'> +1.3059100e-12 </wgt>
<wgt id='1479'> +1.3046722e-12 </wgt>
<wgt id='1480'> +1.2929141e-12 </wgt>
<wgt id='1481'> +1.3163316e-12 </wgt>
<wgt id='1482'> +1.3045376e-12 </wgt>
<wgt id='1483'> +1.2927012e-12 </wgt>
<wgt id='1484'> +1.3032242e-12 </wgt>
<wgt id='1485'> +1.3051064e-12 </wgt>
<wgt id='1486'> +1.3059597e-12 </wgt>
<wgt id='1487'> +1.3097636e-12 </wgt>
<wgt id='1488'> +1.3035672e-12 </wgt>
<wgt id='1489'> +1.3116909e-12 </wgt>
<wgt id='1490'> +1.3008407e-12 </wgt>
<wgt id='1491'> +1.3089489e-12 </wgt>
<wgt id='1492'> +1.3093831e-12 </wgt>
<wgt id='1493'> +1.2854291e-12 </wgt>
<wgt id='1494'> +1.3062696e-12 </wgt>
<wgt id='1495'> +1.2887628e-12 </wgt>
<wgt id='1496'> +1.3051718e-12 </wgt>
<wgt id='1497'> +1.3064755e-12 </wgt>
<wgt id='1498'> +1.3065281e-12 </wgt>
<wgt id='1499'> +1.3070086e-12 </wgt>
<wgt id='1500'> +1.3049524e-12 </wgt>
<wgt id='1501'> +1.3065924e-12 </wgt>
<wgt id='1502'> +1.3095442e-12 </wgt>
<wgt id='1503'> +1.3098595e-12 </wgt>
<wgt id='1504'> +1.3040416e-12 </wgt>
<wgt id='1505'> +1.3066749e-12 </wgt>
<wgt id='1506'> +1.3056089e-12 </wgt>
<wgt id='1507'> +1.3057802e-12 </wgt>
<wgt id='1508'> +1.3107011e-12 </wgt>
<wgt id='1509'> +1.2992245e-12 </wgt>
<wgt id='1510'> +1.2999734e-12 </wgt>
<wgt id='1511'> +1.2932910e-12 </wgt>
<wgt id='1512'> +1.2915847e-12 </wgt>
<wgt id='1513'> +1.2991386e-12 </wgt>
<wgt id='1514'> +1.3054882e-12 </wgt>
<wgt id='1515'> +1.3027845e-12 </wgt>
<wgt id='1516'> +1.3062905e-12 </wgt>
<wgt id='1517'> +1.3037851e-12 </wgt>
<wgt id='1518'> +1.3000395e-12 </wgt>
<wgt id='1519'> +1.2950877e-12 </wgt>
<wgt id='1520'> +1.2992861e-12 </wgt>
<wgt id='1521'> +1.3015146e-12 </wgt>
<wgt id='1522'> +1.2987926e-12 </wgt>
<wgt id='1523'> +1.3051664e-12 </wgt>
<wgt id='1524'> +1.3007543e-12 </wgt>
<wgt id='1525'> +1.3028500e-12 </wgt>
<wgt id='1526'> +1.2979490e-12 </wgt>
<wgt id='1527'> +1.2979079e-12 </wgt>
<wgt id='1528'> +1.3002983e-12 </wgt>
<wgt id='1529'> +1.2983507e-12 </wgt>
<wgt id='1530'> +1.3039585e-12 </wgt>
<wgt id='1531'> +1.3004668e-12 </wgt>
<wgt id='1532'> +1.2937182e-12 </wgt>
<wgt id='1533'> +1.2990962e-12 </wgt>
<wgt id='1534'> +1.3021383e-12 </wgt>
<wgt id='1535'> +1.2917685e-12 </wgt>
<wgt id='1536'> +1.2984759e-12 </wgt>
<wgt id='1537'> +1.2974402e-12 </wgt>
<wgt id='1538'> +1.2956109e-12 </wgt>
<wgt id='1539'> +1.3072931e-12 </wgt>
<wgt id='1540'> +1.3009995e-12 </wgt>
<wgt id='1541'> +1.2982112e-12 </wgt>
<wgt id='1542'> +1.2973996e-12 </wgt>
<wgt id='1543'> +1.3003062e-12 </wgt>
<wgt id='1544'> +1.2996704e-12 </wgt>
<wgt id='1545'> +1.2972972e-12 </wgt>
<wgt id='1546'> +1.2959710e-12 </wgt>
<wgt id='1547'> +1.2996571e-12 </wgt>
<wgt id='1548'> +1.2984770e-12 </wgt>
<wgt id='1549'> +1.2988199e-12 </wgt>
<wgt id='1550'> +1.2995789e-12 </wgt>
<wgt id='1551'> +1.2998907e-12 </wgt>
<wgt id='1552'> +1.3010526e-12 </wgt>
<wgt id='1553'> +1.2980379e-12 </wgt>
<wgt id='1554'> +1.2995456e-12 </wgt>
<wgt id='1555'> +1.2996002e-12 </wgt>
<wgt id='1556'> +1.2990625e-12 </wgt>
<wgt id='1557'> +1.3009992e-12 </wgt>
<wgt id='1558'> +1.2959077e-12 </wgt>
<wgt id='1559'> +1.2981421e-12 </wgt>
<wgt id='1560'> +1.3003085e-12 </wgt>
<wgt id='1561'> +1.2979907e-12 </wgt>
<wgt id='1562'> +1.3002221e-12 </wgt>
<wgt id='1563'> +1.3000230e-12 </wgt>
<wgt id='1564'> +1.3010532e-12 </wgt>
<wgt id='1565'> +1.2976024e-12 </wgt>
<wgt id='1566'> +1.3000666e-12 </wgt>
<wgt id='1567'> +1.3005337e-12 </wgt>
<wgt id='1568'> +1.2977516e-12 </wgt>
<wgt id='1569'> +1.2993631e-12 </wgt>
<wgt id='1570'> +1.2992920e-12 </wgt>
<wgt id='1571'> +1.2985111e-12 </wgt>
<wgt id='1572'> +1.2987327e-12 </wgt>
<wgt id='1573'> +1.2999827e-12 </wgt>
<wgt id='1574'> +1.2983727e-12 </wgt>
<wgt id='1575'> +1.2990412e-12 </wgt>
<wgt id='1576'> +1.2989044e-12 </wgt>
<wgt id='1577'> +1.3004385e-12 </wgt>
<wgt id='1578'> +1.3006472e-12 </wgt>
<wgt id='1579'> +1.2986473e-12 </wgt>
<wgt id='1580'> +1.2984826e-12 </wgt>
<wgt id='1581'> +1.3001397e-12 </wgt>
<wgt id='1582'> +1.3018984e-12 </wgt>
<wgt id='1583'> +1.2986783e-12 </wgt>
<wgt id='1584'> +1.2998861e-12 </wgt>
<wgt id='1585'> +1.2995896e-12 </wgt>
<wgt id='1586'> +1.2990343e-12 </wgt>
<wgt id='1587'> +1.3003836e-12 </wgt>
<wgt id='1588'> +1.2997164e-12 </wgt>
<wgt id='1589'> +1.2985807e-12 </wgt>
<wgt id='1590'> +1.2995016e-12 </wgt>
<wgt id='1591'> +1.2992649e-12 </wgt>
<wgt id='1592'> +1.3002429e-12 </wgt>
<wgt id='1593'> +1.2988109e-12 </wgt>
<wgt id='1594'> +1.2987778e-12 </wgt>
<wgt id='1595'> +1.2989918e-12 </wgt>
<wgt id='1596'> +1.2985467e-12 </wgt>
<wgt id='1597'> +1.2995040e-12 </wgt>
<wgt id='1598'> +1.2991284e-12 </wgt>
<wgt id='1599'> +1.2978895e-12 </wgt>
<wgt id='1600'> +1.2997646e-12 </wgt>
<wgt id='1601'> +1.2996963e-12 </wgt>
<wgt id='1602'> +1.2995739e-12 </wgt>
<wgt id='1603'> +1.2984487e-12 </wgt>
<wgt id='1604'> +1.2983211e-12 </wgt>
<wgt id='1605'> +1.2991450e-12 </wgt>
<wgt id='1606'> +1.2991575e-12 </wgt>
<wgt id='1607'> +1.2995647e-12 </wgt>
<wgt id='1608'> +1.2994270e-12 </wgt>
<wgt id='1609'> +1.2997080e-12 </wgt>
<wgt id='1610'> +1.2902948e-12 </wgt>
<wgt id='1611'> +1.3099555e-12 </wgt>
<wgt id='1612'> +1.5314580e-12 </wgt>
<wgt id='1613'> +1.4869087e-12 </wgt>
<wgt id='1614'> +1.5006010e-12 </wgt>
<wgt id='1615'> +1.5409051e-12 </wgt>
<wgt id='1616'> +1.4843568e-12 </wgt>
<wgt id='1617'> +1.5542714e-12 </wgt>
<wgt id='1618'> +1.5608982e-12 </wgt>
<wgt id='1619'> +1.5249455e-12 </wgt>
<wgt id='1620'> +1.4836088e-12 </wgt>
<wgt id='1621'> +1.5713829e-12 </wgt>
<wgt id='1622'> +1.5251617e-12 </wgt>
<wgt id='1623'> +1.5175547e-12 </wgt>
<wgt id='1624'> +1.5383526e-12 </wgt>
<wgt id='1625'> +1.5341907e-12 </wgt>
<wgt id='1626'> +1.5129913e-12 </wgt>
<wgt id='1627'> +1.5284881e-12 </wgt>
<wgt id='1628'> +1.4997503e-12 </wgt>
<wgt id='1629'> +1.5831714e-12 </wgt>
<wgt id='1630'> +1.5114614e-12 </wgt>
<wgt id='1631'> +1.5391171e-12 </wgt>
<wgt id='1632'> +1.4924820e-12 </wgt>
<wgt id='1633'> +1.4955433e-12 </wgt>
<wgt id='1634'> +1.5418790e-12 </wgt>
<wgt id='1635'> +1.5512376e-12 </wgt>
<wgt id='1636'> +1.5787003e-12 </wgt>
<wgt id='1637'> +1.5433608e-12 </wgt>
<wgt id='1638'> +1.5537864e-12 </wgt>
<wgt id='1639'> +1.5004346e-12 </wgt>
<wgt id='1640'> +1.5487518e-12 </wgt>
<wgt id='1641'> +1.5104616e-12 </wgt>
<wgt id='1642'> +1.5232143e-12 </wgt>
<wgt id='1643'> +1.4920284e-12 </wgt>
<wgt id='1644'> +1.5584205e-12 </wgt>
<wgt id='1645'> +1.5452964e-12 </wgt>
<wgt id='1646'> +1.5205548e-12 </wgt>
<wgt id='1647'> +1.5234212e-12 </wgt>
<wgt id='1648'> +1.5734665e-12 </wgt>
<wgt id='1649'> +1.5564471e-12 </wgt>
<wgt id='1650'> +1.5187094e-12 </wgt>
<wgt id='1651'> +1.5065713e-12 </wgt>
<wgt id='1652'> +1.5051746e-12 </wgt>
<wgt id='1653'> +1.5421891e-12 </wgt>
<wgt id='1654'> +1.5387236e-12 </wgt>
<wgt id='1655'> +1.5313500e-12 </wgt>
<wgt id='1656'> +1.5197373e-12 </wgt>
<wgt id='1657'> +1.5149639e-12 </wgt>
<wgt id='1658'> +1.5223888e-12 </wgt>
<wgt id='1659'> +1.5383526e-12 </wgt>
<wgt id='1660'> +1.5796771e-12 </wgt>
<wgt id='1661'> +1.5346126e-12 </wgt>
<wgt id='1662'> +1.5605012e-12 </wgt>
<wgt id='1663'> +1.5172124e-12 </wgt>
<wgt id='1664'> +1.5417761e-12 </wgt>
<wgt id='1665'> +1.4776192e-12 </wgt>
<wgt id='1666'> +1.5239742e-12 </wgt>
<wgt id='1667'> +1.5170533e-12 </wgt>
<wgt id='1668'> +1.5630106e-12 </wgt>
<wgt id='1669'> +1.5599444e-12 </wgt>
<wgt id='1670'> +1.5543641e-12 </wgt>
<wgt id='1671'> +1.5518444e-12 </wgt>
<wgt id='1672'> +1.5739953e-12 </wgt>
<wgt id='1673'> +1.5083806e-12 </wgt>
<wgt id='1674'> +1.4634148e-12 </wgt>
<wgt id='1675'> +1.5455124e-12 </wgt>
<wgt id='1676'> +1.5512931e-12 </wgt>
<wgt id='1677'> +1.5769748e-12 </wgt>
<wgt id='1678'> +1.5182636e-12 </wgt>
<wgt id='1679'> +1.5119760e-12 </wgt>
<wgt id='1680'> +1.5513504e-12 </wgt>
<wgt id='1681'> +1.5468544e-12 </wgt>
<wgt id='1682'> +1.5328531e-12 </wgt>
<wgt id='1683'> +1.4928222e-12 </wgt>
<wgt id='1684'> +1.5447060e-12 </wgt>
<wgt id='1685'> +1.5125021e-12 </wgt>
<wgt id='1686'> +1.5329662e-12 </wgt>
<wgt id='1687'> +1.5467602e-12 </wgt>
<wgt id='1688'> +1.5133708e-12 </wgt>
<wgt id='1689'> +1.5593212e-12 </wgt>
<wgt id='1690'> +1.5358008e-12 </wgt>
<wgt id='1691'> +1.5384496e-12 </wgt>
<wgt id='1692'> +1.5778979e-12 </wgt>
<wgt id='1693'> +1.5425414e-12 </wgt>
<wgt id='1694'> +1.5581438e-12 </wgt>
<wgt id='1695'> +1.5719580e-12 </wgt>
<wgt id='1696'> +1.5307093e-12 </wgt>
<wgt id='1697'> +1.5024812e-12 </wgt>
<wgt id='1698'> +1.5269946e-12 </wgt>
<wgt id='1699'> +1.5267292e-12 </wgt>
<wgt id='1700'> +1.5131341e-12 </wgt>
<wgt id='1701'> +1.5564540e-12 </wgt>
<wgt id='1702'> +1.5036136e-12 </wgt>
<wgt id='1703'> +1.5383347e-12 </wgt>
<wgt id='1704'> +1.5387513e-12 </wgt>
<wgt id='1705'> +1.4677561e-12 </wgt>
<wgt id='1706'> +1.5515814e-12 </wgt>
<wgt id='1707'> +1.5151979e-12 </wgt>
<wgt id='1708'> +1.5500022e-12 </wgt>
<wgt id='1709'> +1.5487716e-12 </wgt>
<wgt id='1710'> +1.5036556e-12 </wgt>
<wgt id='1711'> +1.4941135e-12 </wgt>
<wgt id='1712'> +1.5407586e-12 </wgt>
<wgt id='1713'> +1.2605772e-12 </wgt>
<wgt id='1714'> +1.2320019e-12 </wgt>
<wgt id='1715'> +1.2374837e-12 </wgt>
<wgt id='1716'> +1.2835377e-12 </wgt>
<wgt id='1717'> +1.2584894e-12 </wgt>
<wgt id='1718'> +1.2718501e-12 </wgt>
<wgt id='1719'> +1.2589443e-12 </wgt>
<wgt id='1720'> +1.2511736e-12 </wgt>
<wgt id='1721'> +1.2378419e-12 </wgt>
<wgt id='1722'> +1.2455635e-12 </wgt>
<wgt id='1723'> +1.2758507e-12 </wgt>
<wgt id='1724'> +1.3210104e-12 </wgt>
<wgt id='1725'> +1.2581161e-12 </wgt>
<wgt id='1726'> +1.2528069e-12 </wgt>
<wgt id='1727'> +1.3036482e-12 </wgt>
<wgt id='1728'> +1.2530080e-12 </wgt>
<wgt id='1729'> +1.2125291e-12 </wgt>
<wgt id='1730'> +1.2644652e-12 </wgt>
<wgt id='1731'> +1.2019392e-12 </wgt>
<wgt id='1732'> +1.2781031e-12 </wgt>
<wgt id='1733'> +1.2080301e-12 </wgt>
<wgt id='1734'> +1.3056336e-12 </wgt>
<wgt id='1735'> +1.2514603e-12 </wgt>
<wgt id='1736'> +1.2903696e-12 </wgt>
<wgt id='1737'> +1.2970193e-12 </wgt>
<wgt id='1738'> +1.2660109e-12 </wgt>
<wgt id='1739'> +1.2450299e-12 </wgt>
<wgt id='1740'> +1.2023443e-12 </wgt>
<wgt id='1741'> +1.3139734e-12 </wgt>
<wgt id='1742'> +1.2436619e-12 </wgt>
<wgt id='1743'> +1.2360778e-12 </wgt>
<wgt id='1744'> +1.2798106e-12 </wgt>
<wgt id='1745'> +1.2648643e-12 </wgt>
<wgt id='1746'> +1.2571562e-12 </wgt>
<wgt id='1747'> +1.2822049e-12 </wgt>
<wgt id='1748'> +1.2352173e-12 </wgt>
<wgt id='1749'> +1.2457546e-12 </wgt>
<wgt id='1750'> +1.2433652e-12 </wgt>
<wgt id='1751'> +1.2294398e-12 </wgt>
<wgt id='1752'> +1.2417764e-12 </wgt>
<wgt id='1753'> +1.2722754e-12 </wgt>
<wgt id='1754'> +1.2874656e-12 </wgt>
<wgt id='1755'> +1.2733402e-12 </wgt>
<wgt id='1756'> +1.2768388e-12 </wgt>
<wgt id='1757'> +1.2567747e-12 </wgt>
<wgt id='1758'> +1.3000418e-12 </wgt>
<wgt id='1759'> +1.2650715e-12 </wgt>
<wgt id='1760'> +1.2468045e-12 </wgt>
<wgt id='1761'> +1.2572429e-12 </wgt>
<wgt id='1762'> +1.2247759e-12 </wgt>
<wgt id='1763'> +1.2766212e-12 </wgt>
<wgt id='1764'> +1.2898695e-12 </wgt>
<wgt id='1765'> +1.2371698e-12 </wgt>
<wgt id='1766'> +1.2860845e-12 </wgt>
<wgt id='1767'> +1.2732194e-12 </wgt>
<wgt id='1768'> +1.2752587e-12 </wgt>
<wgt id='1769'> +1.2635821e-12 </wgt>
<wgt id='1770'> +1.2334454e-12 </wgt>
<wgt id='1771'> +1.2960863e-12 </wgt>
<wgt id='1772'> +1.2587588e-12 </wgt>
<wgt id='1773'> +1.2537999e-12 </wgt>
<wgt id='1774'> +1.2342847e-12 </wgt>
<wgt id='1775'> +1.2640100e-12 </wgt>
<wgt id='1776'> +1.3118366e-12 </wgt>
<wgt id='1777'> +1.2182806e-12 </wgt>
<wgt id='1778'> +1.2597361e-12 </wgt>
<wgt id='1779'> +1.2650863e-12 </wgt>
<wgt id='1780'> +1.2708650e-12 </wgt>
<wgt id='1781'> +1.2675904e-12 </wgt>
<wgt id='1782'> +1.2564317e-12 </wgt>
<wgt id='1783'> +1.2626901e-12 </wgt>
<wgt id='1784'> +1.2651272e-12 </wgt>
<wgt id='1785'> +1.2699264e-12 </wgt>
<wgt id='1786'> +1.2635375e-12 </wgt>
<wgt id='1787'> +1.3120259e-12 </wgt>
<wgt id='1788'> +1.2709793e-12 </wgt>
<wgt id='1789'> +1.3135251e-12 </wgt>
<wgt id='1790'> +1.2739908e-12 </wgt>
<wgt id='1791'> +1.2550061e-12 </wgt>
<wgt id='1792'> +1.2393106e-12 </wgt>
<wgt id='1793'> +1.2533329e-12 </wgt>
<wgt id='1794'> +1.2879959e-12 </wgt>
<wgt id='1795'> +1.2676177e-12 </wgt>
<wgt id='1796'> +1.2368479e-12 </wgt>
<wgt id='1797'> +1.2665207e-12 </wgt>
<wgt id='1798'> +1.2656592e-12 </wgt>
<wgt id='1799'> +1.2776448e-12 </wgt>
<wgt id='1800'> +1.2870453e-12 </wgt>
<wgt id='1801'> +1.2588052e-12 </wgt>
<wgt id='1802'> +1.2444291e-12 </wgt>
<wgt id='1803'> +1.2925521e-12 </wgt>
<wgt id='1804'> +1.2476599e-12 </wgt>
<wgt id='1805'> +1.2184708e-12 </wgt>
<wgt id='1806'> +1.2282431e-12 </wgt>
<wgt id='1807'> +1.2779754e-12 </wgt>
<wgt id='1808'> +1.2472034e-12 </wgt>
<wgt id='1809'> +1.2549988e-12 </wgt>
<wgt id='1810'> +1.2441403e-12 </wgt>
<wgt id='1811'> +1.2617674e-12 </wgt>
<wgt id='1812'> +1.2386280e-12 </wgt>
<wgt id='1813'> +1.1907416e-12 </wgt>
<wgt id='1814'> +1.5654462e-12 </wgt>
<wgt id='1815'> +1.8473385e-12 </wgt>
<wgt id='1816'> +1.2605772e-12 </wgt>
<wgt id='1817'> +1.2320019e-12 </wgt>
<wgt id='1818'> +1.2374837e-12 </wgt>
<wgt id='1819'> +1.2835377e-12 </wgt>
<wgt id='1820'> +1.2584894e-12 </wgt>
<wgt id='1821'> +1.2718501e-12 </wgt>
<wgt id='1822'> +1.2589443e-12 </wgt>
<wgt id='1823'> +1.2511736e-12 </wgt>
<wgt id='1824'> +1.2378419e-12 </wgt>
<wgt id='1825'> +1.2455635e-12 </wgt>
<wgt id='1826'> +1.2758507e-12 </wgt>
<wgt id='1827'> +1.3210104e-12 </wgt>
<wgt id='1828'> +1.2581161e-12 </wgt>
<wgt id='1829'> +1.2528069e-12 </wgt>
<wgt id='1830'> +1.3036482e-12 </wgt>
<wgt id='1831'> +1.2530080e-12 </wgt>
<wgt id='1832'> +1.2125291e-12 </wgt>
<wgt id='1833'> +1.2644652e-12 </wgt>
<wgt id='1834'> +1.2019392e-12 </wgt>
<wgt id='1835'> +1.2781031e-12 </wgt>
<wgt id='1836'> +1.2080301e-12 </wgt>
<wgt id='1837'> +1.3056336e-12 </wgt>
<wgt id='1838'> +1.2514603e-12 </wgt>
<wgt id='1839'> +1.2903696e-12 </wgt>
<wgt id='1840'> +1.2970193e-12 </wgt>
<wgt id='1841'> +1.2660109e-12 </wgt>
<wgt id='1842'> +1.2450299e-12 </wgt>
<wgt id='1843'> +1.2023443e-12 </wgt>
<wgt id='1844'> +1.3139734e-12 </wgt>
<wgt id='1845'> +1.2436619e-12 </wgt>
<wgt id='1846'> +1.2360778e-12 </wgt>
<wgt id='1847'> +1.2798106e-12 </wgt>
<wgt id='1848'> +1.2648643e-12 </wgt>
<wgt id='1849'> +1.2571562e-12 </wgt>
<wgt id='1850'> +1.2822049e-12 </wgt>
<wgt id='1851'> +1.2352173e-12 </wgt>
<wgt id='1852'> +1.2457546e-12 </wgt>
<wgt id='1853'> +1.2433652e-12 </wgt>
<wgt id='1854'> +1.2294398e-12 </wgt>
<wgt id='1855'> +1.2417764e-12 </wgt>
<wgt id='1856'> +1.2722754e-12 </wgt>
<wgt id='1857'> +1.2874656e-12 </wgt>
<wgt id='1858'> +1.2733402e-12 </wgt>
<wgt id='1859'> +1.2768388e-12 </wgt>
<wgt id='1860'> +1.2567747e-12 </wgt>
<wgt id='1861'> +1.3000418e-12 </wgt>
<wgt id='1862'> +1.2650715e-12 </wgt>
<wgt id='1863'> +1.2468045e-12 </wgt>
<wgt id='1864'> +1.2572429e-12 </wgt>
<wgt id='1865'> +1.2247759e-12 </wgt>
<wgt id='1866'> +1.2766212e-12 </wgt>
<wgt id='1867'> +1.2898695e-12 </wgt>
<wgt id='1868'> +1.2371698e-12 </wgt>
<wgt id='1869'> +1.2860845e-12 </wgt>
<wgt id='1870'> +1.2732194e-12 </wgt>
<wgt id='1871'> +1.2752587e-12 </wgt>
<wgt id='1872'> +1.2635821e-12 </wgt>
<wgt id='1873'> +1.2334454e-12 </wgt>
<wgt id='1874'> +1.2960863e-12 </wgt>
<wgt id='1875'> +1.2587588e-12 </wgt>
<wgt id='1876'> +1.2537999e-12 </wgt>
<wgt id='1877'> +1.2342847e-12 </wgt>
<wgt id='1878'> +1.2640100e-12 </wgt>
<wgt id='1879'> +1.3118366e-12 </wgt>
<wgt id='1880'> +1.2182806e-12 </wgt>
<wgt id='1881'> +1.2597361e-12 </wgt>
<wgt id='1882'> +1.2650863e-12 </wgt>
<wgt id='1883'> +1.2708650e-12 </wgt>
<wgt id='1884'> +1.2675904e-12 </wgt>
<wgt id='1885'> +1.2564317e-12 </wgt>
<wgt id='1886'> +1.2626901e-12 </wgt>
<wgt id='1887'> +1.2651272e-12 </wgt>
<wgt id='1888'> +1.2699264e-12 </wgt>
<wgt id='1889'> +1.2635375e-12 </wgt>
<wgt id='1890'> +1.3120259e-12 </wgt>
<wgt id='1891'> +1.2709793e-12 </wgt>
<wgt id='1892'> +1.3135251e-12 </wgt>
<wgt id='1893'> +1.2739908e-12 </wgt>
<wgt id='1894'> +1.2550061e-12 </wgt>
<wgt id='1895'> +1.2393106e-12 </wgt>
<wgt id='1896'> +1.2533329e-12 </wgt>
<wgt id='1897'> +1.2879959e-12 </wgt>
<wgt id='1898'> +1.2676177e-12 </wgt>
<wgt id='1899'> +1.2368479e-12 </wgt>
<wgt id='1900'> +1.2665207e-12 </wgt>
<wgt id='1901'> +1.2656592e-12 </wgt>
<wgt id='1902'> +1.2776448e-12 </wgt>
<wgt id='1903'> +1.2870453e-12 </wgt>
<wgt id='1904'> +1.2588052e-12 </wgt>
<wgt id='1905'> +1.2444291e-12 </wgt>
<wgt id='1906'> +1.2925521e-12 </wgt>
<wgt id='1907'> +1.2476599e-12 </wgt>
<wgt id='1908'> +1.2184708e-12 </wgt>
<wgt id='1909'> +1.2282431e-12 </wgt>
<wgt id='1910'> +1.2779754e-12 </wgt>
<wgt id='1911'> +1.2472034e-12 </wgt>
<wgt id='1912'> +1.2549988e-12 </wgt>
<wgt id='1913'> +1.2441403e-12 </wgt>
<wgt id='1914'> +1.2617674e-12 </wgt>
<wgt id='1915'> +1.2386280e-12 </wgt>
<wgt id='1916'> +1.1907416e-12 </wgt>
<wgt id='1917'> +1.2497563e-12 </wgt>
<wgt id='1918'> +1.2688918e-12 </wgt>
<wgt id='1919'> +1.2504289e-12 </wgt>
</rwgt>
</event>
<event>
 9      1 +1.5538000e-12 3.35069600e+01 7.81860800e-03 1.41724300e-01
       21 -1    0    0  501  502 +0.0000000000e+00 +0.0000000000e+00 +7.0408311895e-01 7.0408311895e-01 0.0000000000e+00 0.0000e+00 1.0000e+00
        2 -1    0    0  502    0 -0.0000000000e+00 -0.0000000000e+00 -1.6339966428e+03 1.6339966428e+03 0.0000000000e+00 0.0000e+00 -1.0000e+00
     1023  2    1    2    0    0 +2.1474667826e+01 -2.0893325736e+01 -5.6839968227e+02 5.6938643765e+02 1.5000805386e+01 0.0000e+00 0.0000e+00
  1000023  2    3    3    0    0 +1.6369473575e+01 -8.6199234339e+00 -3.3184919611e+02 3.3241000018e+02 5.5005927351e+00 0.0000e+00 0.0000e+00
        2  1    1    2  501    0 -2.1474667826e+01 +2.0893325736e+01 -1.0648928774e+03 1.0653142882e+03 0.0000000000e+00 0.0000e+00 -1.0000e+00
  1000022  1    4    4    0    0 +1.4540612122e+01 -7.5610543191e+00 -3.0178398784e+02 3.0227003533e+02 5.0000000000e+00 0.0000e+00 -1.0000e+00
      -11  1    4    4    0    0 +1.6914752240e+00 -9.1742823614e-01 -2.7207342821e+01 2.7275305069e+01 5.1100000000e-04 0.0000e+00 -1.0000e+00
       11  1    4    4    0    0 +1.3738622957e-01 -1.4144087858e-01 -2.8578654480e+00 2.8646597840e+00 5.1100000000e-04 0.0000e+00 1.0000e+00
  1000022  1    3    3    0    0 +5.1051942508e+00 -1.2273402302e+01 -2.3655048616e+02 2.3697643747e+02 5.0000000000e+00 0.0000e+00 1.0000e+00
<mgrwt>
<rscale>  1 0.33506963E+02</rscale>
<asrwt>0</asrwt>
<pdfrwt beam="1">  1       21 0.10832061E-03 0.33506963E+02</pdfrwt>
<pdfrwt beam="2">  1        2 0.25138380E+00 0.33506963E+02</pdfrwt>
<totfact> 0.10401028E+07</totfact>
</mgrwt>
<rwgt>
<wgt id='1001'> +1.5538000e-12 </wgt>
<wgt id='1002'> +1.5947022e-12 </wgt>
<wgt id='1003'> +1.5956156e-12 </wgt>
<wgt id='1004'> +1.5479079e-12 </wgt>
<wgt id='1005'> +1.5976782e-12 </wgt>
<wgt id='1006'> +1.3636660e-12 </wgt>
<wgt id='1007'> +1.4196833e-12 </wgt>
<wgt id='1008'> +1.4212689e-12 </wgt>
<wgt id='1009'> +1.3564962e-12 </wgt>
<wgt id='1010'> +1.4250501e-12 </wgt>
<wgt id='1011'> +1.8085402e-12 </wgt>
<wgt id='1012'> +1.8210332e-12 </wgt>
<wgt id='1013'> +1.8207688e-12 </wgt>
<wgt id='1014'> +1.8052905e-12 </wgt>
<wgt id='1015'> +1.8198577e-12 </wgt>
<wgt id='1016'> +1.8200469e-12 </wgt>
<wgt id='1017'> +1.7990236e-12 </wgt>
<wgt id='1018'> +1.7977193e-12 </wgt>
<wgt id='1019'> +1.8207688e-12 </wgt>
<wgt id='1020'> +1.7942460e-12 </wgt>
<wgt id='1021'> +1.5973330e-12 </wgt>
<wgt id='1022'> +1.6015805e-12 </wgt>
<wgt id='1023'> +1.6012895e-12 </wgt>
<wgt id='1024'> +1.5956156e-12 </wgt>
<wgt id='1025'> +1.6003789e-12 </wgt>
<wgt id='1026'> +2.1184374e-12 </wgt>
<wgt id='1027'> +2.0543534e-12 </wgt>
<wgt id='1028'> +2.0513908e-12 </wgt>
<wgt id='1029'> +2.1235221e-12 </wgt>
<wgt id='1030'> +2.0437610e-12 </wgt>
<wgt id='1031'> +1.2411609e-12 </wgt>
<wgt id='1032'> +1.3529030e-12 </wgt>
<wgt id='1033'> +1.3564962e-12 </wgt>
<wgt id='1034'> +1.2279257e-12 </wgt>
<wgt id='1035'> +1.3651958e-12 </wgt>
<wgt id='1036'> +1.0892837e-12 </wgt>
<wgt id='1037'> +1.2044217e-12 </wgt>
<wgt id='1038'> +1.2082771e-12 </wgt>
<wgt id='1039'> +1.0760825e-12 </wgt>
<wgt id='1040'> +1.2176873e-12 </wgt>
<wgt id='1041'> +1.4446450e-12 </wgt>
<wgt id='1042'> +1.5449163e-12 </wgt>
<wgt id='1043'> +1.5479079e-12 </wgt>
<wgt id='1044'> +1.4321024e-12 </wgt>
<wgt id='1045'> +1.5550453e-12 </wgt>
<wgt id='1046'> +1.5538000e-12 </wgt>
<wgt id='1047'> +1.5374505e-12 </wgt>
<wgt id='1048'> +1.6069237e-12 </wgt>
<wgt id='1049'> +1.5053615e-12 </wgt>
<wgt id='1050'> +1.5343354e-12 </wgt>
<wgt id='1051'> +1.5485829e-12 </wgt>
<wgt id='1052'> +1.5285288e-12 </wgt>
<wgt id='1053'> +1.6186590e-12 </wgt>
<wgt id='1054'> +1.6045743e-12 </wgt>
<wgt id='1055'> +1.5410167e-12 </wgt>
<wgt id='1056'> +1.4383430e-12 </wgt>
<wgt id='1057'> +1.5266946e-12 </wgt>
<wgt id='1058'> +1.5313736e-12 </wgt>
<wgt id='1059'> +1.5475557e-12 </wgt>
<wgt id='1060'> +1.5599281e-12 </wgt>
<wgt id='1061'> +1.5992888e-12 </wgt>
<wgt id='1062'> +1.5233078e-12 </wgt>
<wgt id='1063'> +1.4792588e-12 </wgt>
<wgt id='1064'> +1.5560365e-12 </wgt>
<wgt id='1065'> +1.5834726e-12 </wgt>
<wgt id='1066'> +1.5562706e-12 </wgt>
<wgt id='1067'> +1.6123277e-12 </wgt>
<wgt id='1068'> +1.6196065e-12 </wgt>
<wgt id='1069'> +1.6335709e-12 </wgt>
<wgt id='1070'> +1.5576773e-12 </wgt>
<wgt id='1071'> +1.5668070e-12 </wgt>
<wgt id='1072'> +1.5414414e-12 </wgt>
<wgt id='1073'> +1.5293534e-12 </wgt>
<wgt id='1074'> +1.5669757e-12 </wgt>
<wgt id='1075'> +1.5256269e-12 </wgt>
<wgt id='1076'> +1.5305001e-12 </wgt>
<wgt id='1077'> +1.5810730e-12 </wgt>
<wgt id='1078'> +1.5401135e-12 </wgt>
<wgt id='1079'> +1.5785457e-12 </wgt>
<wgt id='1080'> +1.5451885e-12 </wgt>
<wgt id='1081'> +1.5211650e-12 </wgt>
<wgt id='1082'> +1.5639668e-12 </wgt>
<wgt id='1083'> +1.5401873e-12 </wgt>
<wgt id='1084'> +1.5542465e-12 </wgt>
<wgt id='1085'> +1.5628799e-12 </wgt>
<wgt id='1086'> +1.6305866e-12 </wgt>
<wgt id='1087'> +1.5189982e-12 </wgt>
<wgt id='1088'> +1.5415445e-12 </wgt>
<wgt id='1089'> +1.5193506e-12 </wgt>
<wgt id='1090'> +1.5679526e-12 </wgt>
<wgt id='1091'> +1.5531319e-12 </wgt>
<wgt id='1092'> +1.5260080e-12 </wgt>
<wgt id='1093'> +1.5809285e-12 </wgt>
<wgt id='1094'> +1.5738195e-12 </wgt>
<wgt id='1095'> +1.5938651e-12 </wgt>
<wgt id='1096'> +1.5093946e-12 </wgt>
<wgt id='1097'> +1.5793118e-12 </wgt>
<wgt id='1098'> +1.6024956e-12 </wgt>
<wgt id='1099'> +1.5464081e-12 </wgt>
<wgt id='1100'> +1.6150538e-12 </wgt>
<wgt id='1101'> +1.5641019e-12 </wgt>
<wgt id='1102'> +1.4855769e-12 </wgt>
<wgt id='1103'> +1.5107221e-12 </wgt>
<wgt id='1104'> +1.5467208e-12 </wgt>
<wgt id='1105'> +1.4822478e-12 </wgt>
<wgt id='1106'> +1.5430424e-12 </wgt>
<wgt id='1107'> +1.6113256e-12 </wgt>
<wgt id='1108'> +1.5411728e-12 </wgt>
<wgt id='1109'> +1.5620241e-12 </wgt>
<wgt id='1110'> +1.5499408e-12 </wgt>
<wgt id='1111'> +1.5738560e-12 </wgt>
<wgt id='1112'> +1.5402574e-12 </wgt>
<wgt id='1113'> +1.6481522e-12 </wgt>
<wgt id='1114'> +1.5651567e-12 </wgt>
<wgt id='1115'> +1.5797079e-12 </wgt>
<wgt id='1116'> +1.6598514e-12 </wgt>
<wgt id='1117'> +1.5615392e-12 </wgt>
<wgt id='1118'> +1.5315142e-12 </wgt>
<wgt id='1119'> +1.5276859e-12 </wgt>
<wgt id='1120'> +1.5552133e-12 </wgt>
<wgt id='1121'> +1.4907123e-12 </wgt>
<wgt id='1122'> +1.5192645e-12 </wgt>
<wgt id='1123'> +1.5965378e-12 </wgt>
<wgt id='1124'> +1.6229381e-12 </wgt>
<wgt id='1125'> +1.4775905e-12 </wgt>
<wgt id='1126'> +1.4947732e-12 </wgt>
<wgt id='1127'> +1.5754697e-12 </wgt>
<wgt id='1128'> +1.5233078e-12 </wgt>
<wgt id='1129'> +1.5450226e-12 </wgt>
<wgt id='1130'> +1.5472284e-12 </wgt>
<wgt id='1131'> +1.6023010e-12 </wgt>
<wgt id='1132'> +1.5368106e-12 </wgt>
<wgt id='1133'> +1.5638790e-12 </wgt>
<wgt id='1134'> +1.5396287e-12 </wgt>
<wgt id='1135'> +1.5085781e-12 </wgt>
<wgt id='1136'> +1.5337168e-12 </wgt>
<wgt id='1137'> +1.5710187e-12 </wgt>
<wgt id='1138'> +1.5539424e-12 </wgt>
<wgt id='1139'> +1.5588630e-12 </wgt>
<wgt id='1140'> +1.5684275e-12 </wgt>
<wgt id='1141'> +1.5507591e-12 </wgt>
<wgt id='1142'> +1.6203650e-12 </wgt>
<wgt id='1143'> +1.4473959e-12 </wgt>
<wgt id='1144'> +1.5269994e-12 </wgt>
<wgt id='1145'> +1.5475439e-12 </wgt>
<wgt id='1146'> +1.5551681e-12 </wgt>
<wgt id='1147'> +1.4687955e-12 </wgt>
<wgt id='1148'> +1.4918454e-12 </wgt>
<wgt id='1149'> +1.3995733e-12 </wgt>
<wgt id='1150'> +1.4826300e-12 </wgt>
<wgt id='1151'> +1.9104789e-12 </wgt>
<wgt id='1152'> +2.7212356e-12 </wgt>
<wgt id='1153'> +2.7342250e-12 </wgt>
<wgt id='1154'> +2.7136316e-12 </wgt>
<wgt id='1155'> +2.7180223e-12 </wgt>
<wgt id='1156'> +2.7228590e-12 </wgt>
<wgt id='1157'> +2.7286778e-12 </wgt>
<wgt id='1158'> +2.7112472e-12 </wgt>
<wgt id='1159'> +2.7266409e-12 </wgt>
<wgt id='1160'> +2.7176734e-12 </wgt>
<wgt id='1161'> +2.7133311e-12 </wgt>
<wgt id='1162'> +2.7267968e-12 </wgt>
<wgt id='1163'> +2.7190317e-12 </wgt>
<wgt id='1164'> +2.7234695e-12 </wgt>
<wgt id='1165'> +2.7253789e-12 </wgt>
<wgt id='1166'> +2.7172268e-12 </wgt>
<wgt id='1167'> +2.7637431e-12 </wgt>
<wgt id='1168'> +2.6715030e-12 </wgt>
<wgt id='1169'> +2.7361244e-12 </wgt>
<wgt id='1170'> +2.7102600e-12 </wgt>
<wgt id='1171'> +2.7083977e-12 </wgt>
<wgt id='1172'> +2.7372810e-12 </wgt>
<wgt id='1173'> +2.6894027e-12 </wgt>
<wgt id='1174'> +2.7546187e-12 </wgt>
<wgt id='1175'> +2.7281241e-12 </wgt>
<wgt id='1176'> +2.7160849e-12 </wgt>
<wgt id='1177'> +2.7215936e-12 </wgt>
<wgt id='1178'> +2.7195169e-12 </wgt>
<wgt id='1179'> +2.7116848e-12 </wgt>
<wgt id='1180'> +2.7260223e-12 </wgt>
<wgt id='1181'> +2.7217561e-12 </wgt>
<wgt id='1182'> +2.7209626e-12 </wgt>
<wgt id='1183'> +2.7317013e-12 </wgt>
<wgt id='1184'> +2.7207328e-12 </wgt>
<wgt id='1185'> +2.7127291e-12 </wgt>
<wgt id='1186'> +2.7249109e-12 </wgt>
<wgt id='1187'> +2.7259774e-12 </wgt>
<wgt id='1188'> +2.7195731e-12 </wgt>
<wgt id='1189'> +2.7123237e-12 </wgt>
<wgt id='1190'> +2.6894787e-12 </wgt>
<wgt id='1191'> +2.7208884e-12 </wgt>
<wgt id='1192'> +2.7437745e-12 </wgt>
<wgt id='1193'> +1.4653564e-12 </wgt>
<wgt id='1194'> +1.4397399e-12 </wgt>
<wgt id='1195'> +1.4863914e-12 </wgt>
<wgt id='1196'> +1.4580244e-12 </wgt>
<wgt id='1197'> +1.4735528e-12 </wgt>
<wgt id='1198'> +1.4638908e-12 </wgt>
<wgt id='1199'> +1.4676270e-12 </wgt>
<wgt id='1200'> +1.4637923e-12 </wgt>
<wgt id='1201'> +1.4664256e-12 </wgt>
<wgt id='1202'> +1.4650696e-12 </wgt>
<wgt id='1203'> +1.4657381e-12 </wgt>
<wgt id='1204'> +1.4624485e-12 </wgt>
<wgt id='1205'> +1.4668871e-12 </wgt>
<wgt id='1206'> +1.4689616e-12 </wgt>
<wgt id='1207'> +1.4603911e-12 </wgt>
<wgt id='1208'> +1.4763322e-12 </wgt>
<wgt id='1209'> +1.4615406e-12 </wgt>
<wgt id='1210'> +1.4804549e-12 </wgt>
<wgt id='1211'> +1.4546618e-12 </wgt>
<wgt id='1212'> +1.4613961e-12 </wgt>
<wgt id='1213'> +1.4702160e-12 </wgt>
<wgt id='1214'> +1.4542349e-12 </wgt>
<wgt id='1215'> +1.4762810e-12 </wgt>
<wgt id='1216'> +1.4707985e-12 </wgt>
<wgt id='1217'> +1.4609882e-12 </wgt>
<wgt id='1218'> +1.4711689e-12 </wgt>
<wgt id='1219'> +1.4623251e-12 </wgt>
<wgt id='1220'> +1.4772441e-12 </wgt>
<wgt id='1221'> +1.4620310e-12 </wgt>
<wgt id='1222'> +1.4927623e-12 </wgt>
<wgt id='1223'> +1.4291277e-12 </wgt>
<wgt id='1224'> +1.4676170e-12 </wgt>
<wgt id='1225'> +1.4645365e-12 </wgt>
<wgt id='1226'> +1.4614884e-12 </wgt>
<wgt id='1227'> +1.4680764e-12 </wgt>
<wgt id='1228'> +1.4683536e-12 </wgt>
<wgt id='1229'> +1.4644887e-12 </wgt>
<wgt id='1230'> +1.4678837e-12 </wgt>
<wgt id='1231'> +1.4818567e-12 </wgt>
<wgt id='1232'> +1.4714787e-12 </wgt>
<wgt id='1233'> +1.4639289e-12 </wgt>
<wgt id='1234'> +1.4653564e-12 </wgt>
<wgt id='1235'> +1.4589835e-12 </wgt>
<wgt id='1236'> +1.4615004e-12 </wgt>
<wgt id='1237'> +1.4636614e-12 </wgt>
<wgt id='1238'> +1.4672227e-12 </wgt>
<wgt id='1239'> +1.4686209e-12 </wgt>
<wgt id='1240'> +1.4701423e-12 </wgt>
<wgt id='1241'> +1.3675378e-12 </wgt>
<wgt id='1242'> +1.3457035e-12 </wgt>
<wgt id='1243'> +1.3890776e-12 </wgt>
<wgt id='1244'> +1.3810596e-12 </wgt>
<wgt id='1245'> +1.3575937e-12 </wgt>
<wgt id='1246'> +1.3649217e-12 </wgt>
<wgt id='1247'> +1.3697666e-12 </wgt>
<wgt id='1248'> +1.3676511e-12 </wgt>
<wgt id='1249'> +1.3674450e-12 </wgt>
<wgt id='1250'> +1.3687624e-12 </wgt>
<wgt id='1251'> +1.3667005e-12 </wgt>
<wgt id='1252'> +1.3638568e-12 </wgt>
<wgt id='1253'> +1.3703909e-12 </wgt>
<wgt id='1254'> +1.3651502e-12 </wgt>
<wgt id='1255'> +1.3688310e-12 </wgt>
<wgt id='1256'> +1.3630991e-12 </wgt>
<wgt id='1257'> +1.3787970e-12 </wgt>
<wgt id='1258'> +1.3705979e-12 </wgt>
<wgt id='1259'> +1.3605591e-12 </wgt>
<wgt id='1260'> +1.3701804e-12 </wgt>
<wgt id='1261'> +1.3649644e-12 </wgt>
<wgt id='1262'> +1.3653581e-12 </wgt>
<wgt id='1263'> +1.3684979e-12 </wgt>
<wgt id='1264'> +1.3736695e-12 </wgt>
<wgt id='1265'> +1.3652970e-12 </wgt>
<wgt id='1266'> +1.3413399e-12 </wgt>
<wgt id='1267'> +1.3930825e-12 </wgt>
<wgt id='1268'> +1.3772607e-12 </wgt>
<wgt id='1269'> +1.3590433e-12 </wgt>
<wgt id='1270'> +1.3889416e-12 </wgt>
<wgt id='1271'> +1.3718461e-12 </wgt>
<wgt id='1272'> +1.3737179e-12 </wgt>
<wgt id='1273'> +1.3673882e-12 </wgt>
<wgt id='1274'> +1.3702396e-12 </wgt>
<wgt id='1275'> +1.3638457e-12 </wgt>
<wgt id='1276'> +1.3671749e-12 </wgt>
<wgt id='1277'> +1.3697925e-12 </wgt>
<wgt id='1278'> +1.3906935e-12 </wgt>
<wgt id='1279'> +1.3707221e-12 </wgt>
<wgt id='1280'> +1.3674304e-12 </wgt>
<wgt id='1281'> +1.3768670e-12 </wgt>
<wgt id='1282'> +1.3675378e-12 </wgt>
<wgt id='1283'> +1.3623251e-12 </wgt>
<wgt id='1284'> +1.3645573e-12 </wgt>
<wgt id='1285'> +1.3662431e-12 </wgt>
<wgt id='1286'> +1.3690641e-12 </wgt>
<wgt id='1287'> +1.3698744e-12 </wgt>
<wgt id='1288'> +1.3706817e-12 </wgt>
<wgt id='1289'> +1.5264669e-12 </wgt>
<wgt id='1290'> +1.5331400e-12 </wgt>
<wgt id='1291'> +1.5193019e-12 </wgt>
<wgt id='1292'> +1.5277173e-12 </wgt>
<wgt id='1293'> +1.5255412e-12 </wgt>
<wgt id='1294'> +1.5033339e-12 </wgt>
<wgt id='1295'> +1.5485995e-12 </wgt>
<wgt id='1296'> +1.5434738e-12 </wgt>
<wgt id='1297'> +1.5053811e-12 </wgt>
<wgt id='1298'> +1.5364669e-12 </wgt>
<wgt id='1299'> +1.5138007e-12 </wgt>
<wgt id='1300'> +1.5293929e-12 </wgt>
<wgt id='1301'> +1.5204780e-12 </wgt>
<wgt id='1302'> +1.5224043e-12 </wgt>
<wgt id='1303'> +1.5320706e-12 </wgt>
<wgt id='1304'> +1.5241239e-12 </wgt>
<wgt id='1305'> +1.5280051e-12 </wgt>
<wgt id='1306'> +1.5300642e-12 </wgt>
<wgt id='1307'> +1.5222394e-12 </wgt>
<wgt id='1308'> +1.5204476e-12 </wgt>
<wgt id='1309'> +1.5310010e-12 </wgt>
<wgt id='1310'> +1.5356477e-12 </wgt>
<wgt id='1311'> +1.5170777e-12 </wgt>
<wgt id='1312'> +1.5333961e-12 </wgt>
<wgt id='1313'> +1.5203165e-12 </wgt>
<wgt id='1314'> +1.5113971e-12 </wgt>
<wgt id='1315'> +1.5423211e-12 </wgt>
<wgt id='1316'> +1.5334682e-12 </wgt>
<wgt id='1317'> +1.5303725e-12 </wgt>
<wgt id='1318'> +1.5348337e-12 </wgt>
<wgt id='1319'> +1.5143337e-12 </wgt>
<wgt id='1320'> +1.5459244e-12 </wgt>
<wgt id='1321'> +1.5077211e-12 </wgt>
<wgt id='1322'> +1.5252830e-12 </wgt>
<wgt id='1323'> +1.5276235e-12 </wgt>
<wgt id='1324'> +1.5238641e-12 </wgt>
<wgt id='1325'> +1.5315109e-12 </wgt>
<wgt id='1326'> +1.5261195e-12 </wgt>
<wgt id='1327'> +1.5304227e-12 </wgt>
<wgt id='1328'> +1.5262958e-12 </wgt>
<wgt id='1329'> +1.5257864e-12 </wgt>
<wgt id='1330'> +1.5325071e-12 </wgt>
<wgt id='1331'> +1.5188009e-12 </wgt>
<wgt id='1332'> +1.5367373e-12 </wgt>
<wgt id='1333'> +1.5395859e-12 </wgt>
<wgt id='1334'> +1.5261227e-12 </wgt>
<wgt id='1335'> +1.5280017e-12 </wgt>
<wgt id='1336'> +1.5316988e-12 </wgt>
<wgt id='1337'> +1.5387550e-12 </wgt>
<wgt id='1338'> +1.5274913e-12 </wgt>
<wgt id='1339'> +1.5300658e-12 </wgt>
<wgt id='1340'> +1.4954164e-12 </wgt>
<wgt id='1341'> +1.5018239e-12 </wgt>
<wgt id='1342'> +1.4885231e-12 </wgt>
<wgt id='1343'> +1.4968606e-12 </wgt>
<wgt id='1344'> +1.4944609e-12 </wgt>
<wgt id='1345'> +1.4714334e-12 </wgt>
<wgt id='1346'> +1.5174972e-12 </wgt>
<wgt id='1347'> +1.5132539e-12 </wgt>
<wgt id='1348'> +1.4755408e-12 </wgt>
<wgt id='1349'> +1.5052395e-12 </wgt>
<wgt id='1350'> +1.4857278e-12 </wgt>
<wgt id='1351'> +1.4983537e-12 </wgt>
<wgt id='1352'> +1.4889469e-12 </wgt>
<wgt id='1353'> +1.4904011e-12 </wgt>
<wgt id='1354'> +1.5043292e-12 </wgt>
<wgt id='1355'> +1.4940802e-12 </wgt>
<wgt id='1356'> +1.4961199e-12 </wgt>
<wgt id='1357'> +1.4979838e-12 </wgt>
<wgt id='1358'> +1.4921584e-12 </wgt>
<wgt id='1359'> +1.4890177e-12 </wgt>
<wgt id='1360'> +1.5009757e-12 </wgt>
<wgt id='1361'> +1.5038914e-12 </wgt>
<wgt id='1362'> +1.4845817e-12 </wgt>
<wgt id='1363'> +1.5073405e-12 </wgt>
<wgt id='1364'> +1.4882265e-12 </wgt>
<wgt id='1365'> +1.5018980e-12 </wgt>
<wgt id='1366'> +1.4849514e-12 </wgt>
<wgt id='1367'> +1.5025818e-12 </wgt>
<wgt id='1368'> +1.4972594e-12 </wgt>
<wgt id='1369'> +1.5017440e-12 </wgt>
<wgt id='1370'> +1.4866353e-12 </wgt>
<wgt id='1371'> +1.5107668e-12 </wgt>
<wgt id='1372'> +1.4751077e-12 </wgt>
<wgt id='1373'> +1.4899953e-12 </wgt>
<wgt id='1374'> +1.4997352e-12 </wgt>
<wgt id='1375'> +1.4927206e-12 </wgt>
<wgt id='1376'> +1.5009603e-12 </wgt>
<wgt id='1377'> +1.4957792e-12 </wgt>
<wgt id='1378'> +1.4991517e-12 </wgt>
<wgt id='1379'> +1.4955084e-12 </wgt>
<wgt id='1380'> +1.4944769e-12 </wgt>
<wgt id='1381'> +1.5013395e-12 </wgt>
<wgt id='1382'> +1.4887479e-12 </wgt>
<wgt id='1383'> +1.5024624e-12 </wgt>
<wgt id='1384'> +1.5092224e-12 </wgt>
<wgt id='1385'> +1.4952343e-12 </wgt>
<wgt id='1386'> +1.4960326e-12 </wgt>
<wgt id='1387'> +1.5018980e-12 </wgt>
<wgt id='1388'> +1.5080327e-12 </wgt>
<wgt id='1389'> +1.4968040e-12 </wgt>
<wgt id='1390'> +1.5004504e-12 </wgt>
<wgt id='1391'> +1.4725559e-12 </wgt>
<wgt id='1392'> +1.4284629e-12 </wgt>
<wgt id='1393'> +1.4438372e-12 </wgt>
<wgt id='1394'> +1.4586584e-12 </wgt>
<wgt id='1395'> +1.4875156e-12 </wgt>
<wgt id='1396'> +1.4731149e-12 </wgt>
<wgt id='1397'> +1.4504624e-12 </wgt>
<wgt id='1398'> +1.4532096e-12 </wgt>
<wgt id='1399'> +1.4568954e-12 </wgt>
<wgt id='1400'> +1.4616693e-12 </wgt>
<wgt id='1401'> +1.4672606e-12 </wgt>
<wgt id='1402'> +1.4787916e-12 </wgt>
<wgt id='1403'> +1.4850236e-12 </wgt>
<wgt id='1404'> +1.4913716e-12 </wgt>
<wgt id='1405'> +1.4731149e-12 </wgt>
<wgt id='1406'> +1.4694827e-12 </wgt>
<wgt id='1407'> +1.4713167e-12 </wgt>
<wgt id='1408'> +1.4747904e-12 </wgt>
<wgt id='1409'> +1.4757417e-12 </wgt>
<wgt id='1410'> +1.3483889e-12 </wgt>
<wgt id='1411'> +1.3600120e-12 </wgt>
<wgt id='1412'> +1.3334618e-12 </wgt>
<wgt id='1413'> +1.3335033e-12 </wgt>
<wgt id='1414'> +1.3631877e-12 </wgt>
<wgt id='1415'> +1.3424325e-12 </wgt>
<wgt id='1416'> +1.3508097e-12 </wgt>
<wgt id='1417'> +1.3539905e-12 </wgt>
<wgt id='1418'> +1.3427033e-12 </wgt>
<wgt id='1419'> +1.3506382e-12 </wgt>
<wgt id='1420'> +1.3461607e-12 </wgt>
<wgt id='1421'> +1.3342866e-12 </wgt>
<wgt id='1422'> +1.3542517e-12 </wgt>
<wgt id='1423'> +1.3481116e-12 </wgt>
<wgt id='1424'> +1.3487311e-12 </wgt>
<wgt id='1425'> +1.3392388e-12 </wgt>
<wgt id='1426'> +1.3582489e-12 </wgt>
<wgt id='1427'> +1.3349339e-12 </wgt>
<wgt id='1428'> +1.3555642e-12 </wgt>
<wgt id='1429'> +1.3497910e-12 </wgt>
<wgt id='1430'> +1.3467623e-12 </wgt>
<wgt id='1431'> +1.3472899e-12 </wgt>
<wgt id='1432'> +1.3491802e-12 </wgt>
<wgt id='1433'> +1.3238643e-12 </wgt>
<wgt id='1434'> +1.3696407e-12 </wgt>
<wgt id='1435'> +1.3427798e-12 </wgt>
<wgt id='1436'> +1.3633370e-12 </wgt>
<wgt id='1437'> +1.3549509e-12 </wgt>
<wgt id='1438'> +1.3554762e-12 </wgt>
<wgt id='1439'> +1.3416041e-12 </wgt>
<wgt id='1440'> +1.3573532e-12 </wgt>
<wgt id='1441'> +1.3550467e-12 </wgt>
<wgt id='1442'> +1.3330924e-12 </wgt>
<wgt id='1443'> +1.3451689e-12 </wgt>
<wgt id='1444'> +1.3558617e-12 </wgt>
<wgt id='1445'> +1.3599426e-12 </wgt>
<wgt id='1446'> +1.3440853e-12 </wgt>
<wgt id='1447'> +1.3503720e-12 </wgt>
<wgt id='1448'> +1.3523991e-12 </wgt>
<wgt id='1449'> +1.3489018e-12 </wgt>
<wgt id='1450'> +1.3469023e-12 </wgt>
<wgt id='1451'> +1.3471223e-12 </wgt>
<wgt id='1452'> +1.3565630e-12 </wgt>
<wgt id='1453'> +1.3493208e-12 </wgt>
<wgt id='1454'> +1.3542500e-12 </wgt>
<wgt id='1455'> +1.3633908e-12 </wgt>
<wgt id='1456'> +1.3620897e-12 </wgt>
<wgt id='1457'> +1.3567407e-12 </wgt>
<wgt id='1458'> +1.3477709e-12 </wgt>
<wgt id='1459'> +1.3565820e-12 </wgt>
<wgt id='1460'> +1.3669393e-12 </wgt>
<wgt id='1461'> +1.3483889e-12 </wgt>
<wgt id='1462'> +1.3390972e-12 </wgt>
<wgt id='1463'> +1.3519132e-12 </wgt>
<wgt id='1464'> +1.3457497e-12 </wgt>
<wgt id='1465'> +1.3194626e-12 </wgt>
<wgt id='1466'> +1.3230355e-12 </wgt>
<wgt id='1467'> +1.3277341e-12 </wgt>
<wgt id='1468'> +1.3365541e-12 </wgt>
<wgt id='1469'> +1.3399681e-12 </wgt>
<wgt id='1470'> +1.3520033e-12 </wgt>
<wgt id='1471'> +1.3579352e-12 </wgt>
<wgt id='1472'> +1.3638925e-12 </wgt>
<wgt id='1473'> +1.3457497e-12 </wgt>
<wgt id='1474'> +1.3434273e-12 </wgt>
<wgt id='1475'> +1.3455800e-12 </wgt>
<wgt id='1476'> +1.3463703e-12 </wgt>
<wgt id='1477'> +1.3469317e-12 </wgt>
<wgt id='1478'> +1.4422288e-12 </wgt>
<wgt id='1479'> +1.4432141e-12 </wgt>
<wgt id='1480'> +1.4309447e-12 </wgt>
<wgt id='1481'> +1.4816843e-12 </wgt>
<wgt id='1482'> +1.4464111e-12 </wgt>
<wgt id='1483'> +1.4303482e-12 </wgt>
<wgt id='1484'> +1.4271130e-12 </wgt>
<wgt id='1485'> +1.4561178e-12 </wgt>
<wgt id='1486'> +1.4414998e-12 </wgt>
<wgt id='1487'> +1.4520053e-12 </wgt>
<wgt id='1488'> +1.4397027e-12 </wgt>
<wgt id='1489'> +1.4431768e-12 </wgt>
<wgt id='1490'> +1.4394536e-12 </wgt>
<wgt id='1491'> +1.4493120e-12 </wgt>
<wgt id='1492'> +1.4420067e-12 </wgt>
<wgt id='1493'> +1.4219842e-12 </wgt>
<wgt id='1494'> +1.4362687e-12 </wgt>
<wgt id='1495'> +1.4370796e-12 </wgt>
<wgt id='1496'> +1.4428127e-12 </wgt>
<wgt id='1497'> +1.4413694e-12 </wgt>
<wgt id='1498'> +1.4426118e-12 </wgt>
<wgt id='1499'> +1.4451565e-12 </wgt>
<wgt id='1500'> +1.4445218e-12 </wgt>
<wgt id='1501'> +1.4441657e-12 </wgt>
<wgt id='1502'> +1.4404255e-12 </wgt>
<wgt id='1503'> +1.4469998e-12 </wgt>
<wgt id='1504'> +1.4376473e-12 </wgt>
<wgt id='1505'> +1.4478173e-12 </wgt>
<wgt id='1506'> +1.4448416e-12 </wgt>
<wgt id='1507'> +1.4429660e-12 </wgt>
<wgt id='1508'> +1.4452785e-12 </wgt>
<wgt id='1509'> +1.3536657e-12 </wgt>
<wgt id='1510'> +1.3616226e-12 </wgt>
<wgt id='1511'> +1.3264235e-12 </wgt>
<wgt id='1512'> +1.3418406e-12 </wgt>
<wgt id='1513'> +1.3504290e-12 </wgt>
<wgt id='1514'> +1.3566102e-12 </wgt>
<wgt id='1515'> +1.3574315e-12 </wgt>
<wgt id='1516'> +1.3541459e-12 </wgt>
<wgt id='1517'> +1.3547323e-12 </wgt>
<wgt id='1518'> +1.3515975e-12 </wgt>
<wgt id='1519'> +1.3568560e-12 </wgt>
<wgt id='1520'> +1.3560638e-12 </wgt>
<wgt id='1521'> +1.3518547e-12 </wgt>
<wgt id='1522'> +1.3554565e-12 </wgt>
<wgt id='1523'> +1.3565595e-12 </wgt>
<wgt id='1524'> +1.3515213e-12 </wgt>
<wgt id='1525'> +1.3531358e-12 </wgt>
<wgt id='1526'> +1.3556777e-12 </wgt>
<wgt id='1527'> +1.3544892e-12 </wgt>
<wgt id='1528'> +1.3547200e-12 </wgt>
<wgt id='1529'> +1.3538395e-12 </wgt>
<wgt id='1530'> +1.3533013e-12 </wgt>
<wgt id='1531'> +1.3554421e-12 </wgt>
<wgt id='1532'> +1.3500002e-12 </wgt>
<wgt id='1533'> +1.3540123e-12 </wgt>
<wgt id='1534'> +1.3555294e-12 </wgt>
<wgt id='1535'> +1.3510235e-12 </wgt>
<wgt id='1536'> +1.3578134e-12 </wgt>
<wgt id='1537'> +1.3567179e-12 </wgt>
<wgt id='1538'> +1.3395046e-12 </wgt>
<wgt id='1539'> +1.3502903e-12 </wgt>
<wgt id='1540'> +1.3523857e-12 </wgt>
<wgt id='1541'> +1.3504624e-12 </wgt>
<wgt id='1542'> +1.3513715e-12 </wgt>
<wgt id='1543'> +1.3555809e-12 </wgt>
<wgt id='1544'> +1.3517724e-12 </wgt>
<wgt id='1545'> +1.3520279e-12 </wgt>
<wgt id='1546'> +1.3547067e-12 </wgt>
<wgt id='1547'> +1.3525589e-12 </wgt>
<wgt id='1548'> +1.3537846e-12 </wgt>
<wgt id='1549'> +1.3522050e-12 </wgt>
<wgt id='1550'> +1.3528632e-12 </wgt>
<wgt id='1551'> +1.3538715e-12 </wgt>
<wgt id='1552'> +1.3557268e-12 </wgt>
<wgt id='1553'> +1.3528365e-12 </wgt>
<wgt id='1554'> +1.3532639e-12 </wgt>
<wgt id='1555'> +1.3542447e-12 </wgt>
<wgt id='1556'> +1.3549420e-12 </wgt>
<wgt id='1557'> +1.3555208e-12 </wgt>
<wgt id='1558'> +1.3550372e-12 </wgt>
<wgt id='1559'> +1.3550212e-12 </wgt>
<wgt id='1560'> +1.3564496e-12 </wgt>
<wgt id='1561'> +1.3549779e-12 </wgt>
<wgt id='1562'> +1.3549466e-12 </wgt>
<wgt id='1563'> +1.3554856e-12 </wgt>
<wgt id='1564'> +1.3537776e-12 </wgt>
<wgt id='1565'> +1.3520539e-12 </wgt>
<wgt id='1566'> +1.3526697e-12 </wgt>
<wgt id='1567'> +1.3515100e-12 </wgt>
<wgt id='1568'> +1.3542431e-12 </wgt>
<wgt id='1569'> +1.3534990e-12 </wgt>
<wgt id='1570'> +1.3540596e-12 </wgt>
<wgt id='1571'> +1.3534963e-12 </wgt>
<wgt id='1572'> +1.3532624e-12 </wgt>
<wgt id='1573'> +1.3508338e-12 </wgt>
<wgt id='1574'> +1.3536904e-12 </wgt>
<wgt id='1575'> +1.3548216e-12 </wgt>
<wgt id='1576'> +1.3556320e-12 </wgt>
<wgt id='1577'> +1.3561753e-12 </wgt>
<wgt id='1578'> +1.3535374e-12 </wgt>
<wgt id='1579'> +1.3538068e-12 </wgt>
<wgt id='1580'> +1.3532348e-12 </wgt>
<wgt id='1581'> +1.3535850e-12 </wgt>
<wgt id='1582'> +1.3513992e-12 </wgt>
<wgt id='1583'> +1.3540346e-12 </wgt>
<wgt id='1584'> +1.3531080e-12 </wgt>
<wgt id='1585'> +1.3533988e-12 </wgt>
<wgt id='1586'> +1.3554382e-12 </wgt>
<wgt id='1587'> +1.3535895e-12 </wgt>
<wgt id='1588'> +1.3556023e-12 </wgt>
<wgt id='1589'> +1.3529095e-12 </wgt>
<wgt id='1590'> +1.3551227e-12 </wgt>
<wgt id='1591'> +1.3552264e-12 </wgt>
<wgt id='1592'> +1.3540230e-12 </wgt>
<wgt id='1593'> +1.3533261e-12 </wgt>
<wgt id='1594'> +1.3537831e-12 </wgt>
<wgt id='1595'> +1.3535628e-12 </wgt>
<wgt id='1596'> +1.3534045e-12 </wgt>
<wgt id='1597'> +1.3544272e-12 </wgt>
<wgt id='1598'> +1.3532873e-12 </wgt>
<wgt id='1599'> +1.3531799e-12 </wgt>
<wgt id='1600'> +1.3541714e-12 </wgt>
<wgt id='1601'> +1.3542902e-12 </wgt>
<wgt id='1602'> +1.3536336e-12 </wgt>
<wgt id='1603'> +1.3531383e-12 </wgt>
<wgt id='1604'> +1.3535452e-12 </wgt>
<wgt id='1605'> +1.3526325e-12 </wgt>
<wgt id='1606'> +1.3533506e-12 </wgt>
<wgt id='1607'> +1.3531127e-12 </wgt>
<wgt id='1608'> +1.3536156e-12 </wgt>
<wgt id='1609'> +1.3526362e-12 </wgt>
<wgt id='1610'> +1.3387985e-12 </wgt>
<wgt id='1611'> +1.3661305e-12 </wgt>
<wgt id='1612'> +1.5457922e-12 </wgt>
<wgt id='1613'> +1.5032158e-12 </wgt>
<wgt id='1614'> +1.4533769e-12 </wgt>
<wgt id='1615'> +1.5159051e-12 </wgt>
<wgt id='1616'> +1.4890486e-12 </wgt>
<wgt id='1617'> +1.4805293e-12 </wgt>
<wgt id='1618'> +1.5641687e-12 </wgt>
<wgt id='1619'> +1.4968480e-12 </wgt>
<wgt id='1620'> +1.5030538e-12 </wgt>
<wgt id='1621'> +1.5673411e-12 </wgt>
<wgt id='1622'> +1.5526653e-12 </wgt>
<wgt id='1623'> +1.5816200e-12 </wgt>
<wgt id='1624'> +1.6155543e-12 </wgt>
<wgt id='1625'> +1.4412831e-12 </wgt>
<wgt id='1626'> +1.5181418e-12 </wgt>
<wgt id='1627'> +1.5704582e-12 </wgt>
<wgt id='1628'> +1.4706142e-12 </wgt>
<wgt id='1629'> +1.5761951e-12 </wgt>
<wgt id='1630'> +1.4885715e-12 </wgt>
<wgt id='1631'> +1.5055746e-12 </wgt>
<wgt id='1632'> +1.4950819e-12 </wgt>
<wgt id='1633'> +1.4506297e-12 </wgt>
<wgt id='1634'> +1.5397484e-12 </wgt>
<wgt id='1635'> +1.5601264e-12 </wgt>
<wgt id='1636'> +1.5097289e-12 </wgt>
<wgt id='1637'> +1.5847081e-12 </wgt>
<wgt id='1638'> +1.5741363e-12 </wgt>
<wgt id='1639'> +1.5206738e-12 </wgt>
<wgt id='1640'> +1.5177576e-12 </wgt>
<wgt id='1641'> +1.5691365e-12 </wgt>
<wgt id='1642'> +1.4684491e-12 </wgt>
<wgt id='1643'> +1.5188268e-12 </wgt>
<wgt id='1644'> +1.5846153e-12 </wgt>
<wgt id='1645'> +1.5118354e-12 </wgt>
<wgt id='1646'> +1.5623163e-12 </wgt>
<wgt id='1647'> +1.6019166e-12 </wgt>
<wgt id='1648'> +1.5415754e-12 </wgt>
<wgt id='1649'> +1.6280789e-12 </wgt>
<wgt id='1650'> +1.5027168e-12 </wgt>
<wgt id='1651'> +1.6184233e-12 </wgt>
<wgt id='1652'> +1.5294384e-12 </wgt>
<wgt id='1653'> +1.5286377e-12 </wgt>
<wgt id='1654'> +1.5727692e-12 </wgt>
<wgt id='1655'> +1.6065652e-12 </wgt>
<wgt id='1656'> +1.4964709e-12 </wgt>
<wgt id='1657'> +1.5901228e-12 </wgt>
<wgt id='1658'> +1.5190599e-12 </wgt>
<wgt id='1659'> +1.6155543e-12 </wgt>
<wgt id='1660'> +1.5555970e-12 </wgt>
<wgt id='1661'> +1.5830466e-12 </wgt>
<wgt id='1662'> +1.6163857e-12 </wgt>
<wgt id='1663'> +1.5547561e-12 </wgt>
<wgt id='1664'> +1.5251987e-12 </wgt>
<wgt id='1665'> +1.5066529e-12 </wgt>
<wgt id='1666'> +1.5675072e-12 </wgt>
<wgt id='1667'> +1.5702565e-12 </wgt>
<wgt id='1668'> +1.5786528e-12 </wgt>
<wgt id='1669'> +1.5936009e-12 </wgt>
<wgt id='1670'> +1.5118486e-12 </wgt>
<wgt id='1671'> +1.5080053e-12 </wgt>
<wgt id='1672'> +1.5690940e-12 </wgt>
<wgt id='1673'> +1.5767372e-12 </wgt>
<wgt id='1674'> +1.5210548e-12 </wgt>
<wgt id='1675'> +1.5536290e-12 </wgt>
<wgt id='1676'> +1.5214260e-12 </wgt>
<wgt id='1677'> +1.5098621e-12 </wgt>
<wgt id='1678'> +1.5318957e-12 </wgt>
<wgt id='1679'> +1.5677564e-12 </wgt>
<wgt id='1680'> +1.6047903e-12 </wgt>
<wgt id='1681'> +1.5841218e-12 </wgt>
<wgt id='1682'> +1.5431756e-12 </wgt>
<wgt id='1683'> +1.5794536e-12 </wgt>
<wgt id='1684'> +1.6122924e-12 </wgt>
<wgt id='1685'> +1.5427822e-12 </wgt>
<wgt id='1686'> +1.5353152e-12 </wgt>
<wgt id='1687'> +1.5650904e-12 </wgt>
<wgt id='1688'> +1.5243813e-12 </wgt>
<wgt id='1689'> +1.6076428e-12 </wgt>
<wgt id='1690'> +1.5682413e-12 </wgt>
<wgt id='1691'> +1.4264037e-12 </wgt>
<wgt id='1692'> +1.4868202e-12 </wgt>
<wgt id='1693'> +1.5571839e-12 </wgt>
<wgt id='1694'> +1.5203549e-12 </wgt>
<wgt id='1695'> +1.5400018e-12 </wgt>
<wgt id='1696'> +1.5515649e-12 </wgt>
<wgt id='1697'> +1.5601615e-12 </wgt>
<wgt id='1698'> +1.5523400e-12 </wgt>
<wgt id='1699'> +1.5696612e-12 </wgt>
<wgt id='1700'> +1.4990132e-12 </wgt>
<wgt id='1701'> +1.6284600e-12 </wgt>
<wgt id='1702'> +1.5065939e-12 </wgt>
<wgt id='1703'> +1.5090492e-12 </wgt>
<wgt id='1704'> +1.4844692e-12 </wgt>
<wgt id='1705'> +1.4989348e-12 </wgt>
<wgt id='1706'> +1.6012417e-12 </wgt>
<wgt id='1707'> +1.5943490e-12 </wgt>
<wgt id='1708'> +1.6409311e-12 </wgt>
<wgt id='1709'> +1.6247042e-12 </wgt>
<wgt id='1710'> +1.5361016e-12 </wgt>
<wgt id='1711'> +1.5358313e-12 </wgt>
<wgt id='1712'> +1.6347795e-12 </wgt>
<wgt id='1713'> +1.4086265e-12 </wgt>
<wgt id='1714'> +1.4058679e-12 </wgt>
<wgt id='1715'> +1.3518668e-12 </wgt>
<wgt id='1716'> +1.4458533e-12 </wgt>
<wgt id='1717'> +1.4445734e-12 </wgt>
<wgt id='1718'> +1.4395289e-12 </wgt>
<wgt id='1719'> +1.4248860e-12 </wgt>
<wgt id='1720'> +1.3527039e-12 </wgt>
<wgt id='1721'> +1.3824011e-12 </wgt>
<wgt id='1722'> +1.3956240e-12 </wgt>
<wgt id='1723'> +1.4691410e-12 </wgt>
<wgt id='1724'> +1.3947892e-12 </wgt>
<wgt id='1725'> +1.4168897e-12 </wgt>
<wgt id='1726'> +1.3937341e-12 </wgt>
<wgt id='1727'> +1.4935289e-12 </wgt>
<wgt id='1728'> +1.3993825e-12 </wgt>
<wgt id='1729'> +1.3295786e-12 </wgt>
<wgt id='1730'> +1.3729219e-12 </wgt>
<wgt id='1731'> +1.3323889e-12 </wgt>
<wgt id='1732'> +1.4233142e-12 </wgt>
<wgt id='1733'> +1.3682318e-12 </wgt>
<wgt id='1734'> +1.4838349e-12 </wgt>
<wgt id='1735'> +1.3642644e-12 </wgt>
<wgt id='1736'> +1.4240873e-12 </wgt>
<wgt id='1737'> +1.4876009e-12 </wgt>
<wgt id='1738'> +1.3922089e-12 </wgt>
<wgt id='1739'> +1.4276270e-12 </wgt>
<wgt id='1740'> +1.3149418e-12 </wgt>
<wgt id='1741'> +1.4922381e-12 </wgt>
<wgt id='1742'> +1.4084208e-12 </wgt>
<wgt id='1743'> +1.3657270e-12 </wgt>
<wgt id='1744'> +1.4442983e-12 </wgt>
<wgt id='1745'> +1.4442305e-12 </wgt>
<wgt id='1746'> +1.4005179e-12 </wgt>
<wgt id='1747'> +1.4765933e-12 </wgt>
<wgt id='1748'> +1.4194255e-12 </wgt>
<wgt id='1749'> +1.3929480e-12 </wgt>
<wgt id='1750'> +1.3708359e-12 </wgt>
<wgt id='1751'> +1.3942669e-12 </wgt>
<wgt id='1752'> +1.4087232e-12 </wgt>
<wgt id='1753'> +1.4327242e-12 </wgt>
<wgt id='1754'> +1.4298921e-12 </wgt>
<wgt id='1755'> +1.3949472e-12 </wgt>
<wgt id='1756'> +1.4305611e-12 </wgt>
<wgt id='1757'> +1.4484866e-12 </wgt>
<wgt id='1758'> +1.4733145e-12 </wgt>
<wgt id='1759'> +1.4291367e-12 </wgt>
<wgt id='1760'> +1.3996666e-12 </wgt>
<wgt id='1761'> +1.4073892e-12 </wgt>
<wgt id='1762'> +1.4059984e-12 </wgt>
<wgt id='1763'> +1.4382181e-12 </wgt>
<wgt id='1764'> +1.4745107e-12 </wgt>
<wgt id='1765'> +1.3857476e-12 </wgt>
<wgt id='1766'> +1.4573524e-12 </wgt>
<wgt id='1767'> +1.3779810e-12 </wgt>
<wgt id='1768'> +1.4306475e-12 </wgt>
<wgt id='1769'> +1.4057517e-12 </wgt>
<wgt id='1770'> +1.3920602e-12 </wgt>
<wgt id='1771'> +1.4787788e-12 </wgt>
<wgt id='1772'> +1.3942144e-12 </wgt>
<wgt id='1773'> +1.4130493e-12 </wgt>
<wgt id='1774'> +1.3925641e-12 </wgt>
<wgt id='1775'> +1.4062539e-12 </wgt>
<wgt id='1776'> +1.4690709e-12 </wgt>
<wgt id='1777'> +1.3448695e-12 </wgt>
<wgt id='1778'> +1.4415778e-12 </wgt>
<wgt id='1779'> +1.3853798e-12 </wgt>
<wgt id='1780'> +1.4153140e-12 </wgt>
<wgt id='1781'> +1.4381613e-12 </wgt>
<wgt id='1782'> +1.3973355e-12 </wgt>
<wgt id='1783'> +1.4183506e-12 </wgt>
<wgt id='1784'> +1.3721614e-12 </wgt>
<wgt id='1785'> +1.4131200e-12 </wgt>
<wgt id='1786'> +1.3834386e-12 </wgt>
<wgt id='1787'> +1.5174984e-12 </wgt>
<wgt id='1788'> +1.3900629e-12 </wgt>
<wgt id='1789'> +1.5021382e-12 </wgt>
<wgt id='1790'> +1.4039711e-12 </wgt>
<wgt id='1791'> +1.3637250e-12 </wgt>
<wgt id='1792'> +1.3965848e-12 </wgt>
<wgt id='1793'> +1.3735976e-12 </wgt>
<wgt id='1794'> +1.4492544e-12 </wgt>
<wgt id='1795'> +1.4217776e-12 </wgt>
<wgt id='1796'> +1.3718790e-12 </wgt>
<wgt id='1797'> +1.4167412e-12 </wgt>
<wgt id='1798'> +1.3937871e-12 </wgt>
<wgt id='1799'> +1.3738309e-12 </wgt>
<wgt id='1800'> +1.4226240e-12 </wgt>
<wgt id='1801'> +1.3976125e-12 </wgt>
<wgt id='1802'> +1.3499859e-12 </wgt>
<wgt id='1803'> +1.4156446e-12 </wgt>
<wgt id='1804'> +1.4395422e-12 </wgt>
<wgt id='1805'> +1.3758790e-12 </wgt>
<wgt id='1806'> +1.3818909e-12 </wgt>
<wgt id='1807'> +1.3695674e-12 </wgt>
<wgt id='1808'> +1.3655914e-12 </wgt>
<wgt id='1809'> +1.3755290e-12 </wgt>
<wgt id='1810'> +1.3833635e-12 </wgt>
<wgt id='1811'> +1.4127855e-12 </wgt>
<wgt id='1812'> +1.3823860e-12 </wgt>
<wgt id='1813'> +1.2988855e-12 </wgt>
<wgt id='1814'> +1.9441703e-12 </wgt>
<wgt id='1815'> +2.3924594e-12 </wgt>
<wgt id='1816'> +1.4086265e-12 </wgt>
<wgt id='1817'> +1.4058679e-12 </wgt>
<wgt id='1818'> +1.3518668e-12 </wgt>
<wgt id='1819'> +1.4458533e-12 </wgt>
<wgt id='1820'> +1.4445734e-12 </wgt>
<wgt id='1821'> +1.4395289e-12 </wgt>
<wgt id='1822'> +1.4248860e-12 </wgt>
<wgt id='1823'> +1.3527039e-12 </wgt>
<wgt id='1824'> +1.3824011e-12 </wgt>
<wgt id='1825'> +1.3956240e-12 </wgt>
<wgt id='1826'> +1.4691410e-12 </wgt>
<wgt id='1827'> +1.3947892e-12 </wgt>
<wgt id='1828'> +1.4168897e-12 </wgt>
<wgt id='1829'> +1.3937341e-12 </wgt>
<wgt id='1830'> +1.4935289e-12 </wgt>
<wgt id='1831'> +1.3993825e-12 </wgt>
<wgt id='1832'> +1.3295786e-12 </wgt>
<wgt id='1833'> +1.3729219e-12 </wgt>
<wgt id='1834'> +1.3323889e-12 </wgt>
<wgt id='1835'> +1.4233142e-12 </wgt>
<wgt id='1836'> +1.3682318e-12 </wgt>
<wgt id='1837'> +1.4838349e-12 </wgt>
<wgt id='1838'> +1.3642644e-12 </wgt>
<wgt id='1839'> +1.4240873e-12 </wgt>
<wgt id='1840'> +1.4876009e-12 </wgt>
<wgt id='1841'> +1.3922089e-12 </wgt>
<wgt id='1842'> +1.4276270e-12 </wgt>
<wgt id='1843'> +1.3149418e-12 </wgt>
<wgt id='1844'> +1.4922381e-12 </wgt>
<wgt id='1845'> +1.4084208e-12 </wgt>
<wgt id='1846'> +1.3657270e-12 </wgt>
<wgt id='1847'> +1.4442983e-12 </wgt>
<wgt id='1848'> +1.4442305e-12 </wgt>
<wgt id='1849'> +1.4005179e-12 </wgt>
<wgt id='1850'> +1.4765933e-12 </wgt>
<wgt id='1851'> +1.4194255e-12 </wgt>
<wgt id='1852'> +1.3929480e-12 </wgt>
<wgt id='1853'> +1.3708359e-12 </wgt>
<wgt id='1854'> +1.3942669e-12 </wgt>
<wgt id='1855'> +1.4087232e-12 </wgt>
<wgt id='1856'> +1.4327242e-12 </wgt>
<wgt id='1857'> +1.4298921e-12 </wgt>
<wgt id='1858'> +1.3949472e-12 </wgt>
<wgt id='1859'> +1.4305611e-12 </wgt>
<wgt id='1860'> +1.4484866e-12 </wgt>
<wgt id='1861'> +1.4733145e-12 </wgt>
<wgt id='1862'> +1.4291367e-12 </wgt>
<wgt id='1863'> +1.3996666e-12 </wgt>
<wgt id='1864'> +1.4073892e-12 </wgt>
<wgt id='1865'> +1.4059984e-12 </wgt>
<wgt id='1866'> +1.4382181e-12 </wgt>
<wgt id='1867'> +1.4745107e-12 </wgt>
<wgt id='1868'> +1.3857476e-12 </wgt>
<wgt id='1869'> +1.4573524e-12 </wgt>
<wgt id='1870'> +1.3779810e-12 </wgt>
<wgt id='1871'> +1.4306475e-12 </wgt>
<wgt id='1872'> +1.4057517e-12 </wgt>
<wgt id='1873'> +1.3920602e-12 </wgt>
<wgt id='1874'> +1.4787788e-12 </wgt>
<wgt id='1875'> +1.3942144e-12 </wgt>
<wgt id='1876'> +1.4130493e-12 </wgt>
<wgt id='1877'> +1.3925641e-12 </wgt>
<wgt id='1878'> +1.4062539e-12 </wgt>
<wgt id='1879'> +1.4690709e-12 </wgt>
<wgt id='1880'> +1.3448695e-12 </wgt>
<wgt id='1881'> +1.4415778e-12 </wgt>
<wgt id='1882'> +1.3853798e-12 </wgt>
<wgt id='1883'> +1.4153140e-12 </wgt>
<wgt id='1884'> +1.4381613e-12 </wgt>
<wgt id='1885'> +1.3973355e-12 </wgt>
<wgt id='1886'> +1.4183506e-12 </wgt>
<wgt id='1887'> +1.3721614e-12 </wgt>
<wgt id='1888'> +1.4131200e-12 </wgt>
<wgt id='1889'> +1.3834386e-12 </wgt>
<wgt id='1890'> +1.5174984e-12 </wgt>
<wgt id='1891'> +1.3900629e-12 </wgt>
<wgt id='1892'> +1.5021382e-12 </wgt>
<wgt id='1893'> +1.4039711e-12 </wgt>
<wgt id='1894'> +1.3637250e-12 </wgt>
<wgt id='1895'> +1.3965848e-12 </wgt>
<wgt id='1896'> +1.3735976e-12 </wgt>
<wgt id='1897'> +1.4492544e-12 </wgt>
<wgt id='1898'> +1.4217776e-12 </wgt>
<wgt id='1899'> +1.3718790e-12 </wgt>
<wgt id='1900'> +1.4167412e-12 </wgt>
<wgt id='1901'> +1.3937871e-12 </wgt>
<wgt id='1902'> +1.3738309e-12 </wgt>
<wgt id='1903'> +1.4226240e-12 </wgt>
<wgt id='1904'> +1.3976125e-12 </wgt>
<wgt id='1905'> +1.3499859e-12 </wgt>
<wgt id='1906'> +1.4156446e-12 </wgt>
<wgt id='1907'> +1.4395422e-12 </wgt>
<wgt id='1908'> +1.3758790e-12 </wgt>
<wgt id='1909'> +1.3818909e-12 </wgt>
<wgt id='1910'> +1.3695674e-12 </wgt>
<wgt id='1911'> +1.3655914e-12 </wgt>
<wgt id='1912'> +1.3755290e-12 </wgt>
<wgt id='1913'> +1.3833635e-12 </wgt>
<wgt id='1914'> +1.4127855e-12 </wgt>
<wgt id='1915'> +1.3823860e-12 </wgt>
<wgt id='1916'> +1.2988855e-12 </wgt>
<wgt id='1917'> +1.4034469e-12 </wgt>
<wgt id='1918'> +1.4260283e-12 </wgt>
<wgt id='1919'> +1.3427303e-12 </wgt>
</rwgt>
</event>
<event>
 9      1 +1.5538000e-12 3.54740900e+01 7.81860800e-03 1.40110200e-01
       21 -1    0    0  501  502 +0.0000000000e+00 +0.0000000000e+00 +1.5425054207e+00 1.5425054207e+00 0.0000000000e+00 0.0000e+00 -1.0000e+00
        2 -1    0    0  502    0 -0.0000000000e+00 -0.0000000000e+00 -8.9751478659e+02 8.9751478659e+02 0.0000000000e+00 0.0000e+00 1.0000e+00
     1023  2    1    2    0    0 -2.6415955198e+01 -1.8318345828e+01 -2.7870554767e+02 2.8095407671e+02 1.5001547714e+01 0.0000e+00 0.0000e+00
  1000023  2    3    3    0    0 -2.0626271389e+01 -1.4731733781e+01 -1.7589961870e+02 1.7780155248e+02 5.4999228625e+00 0.0000e+00 0.0000e+00
        2  1    1    2  501    0 +2.6415955198e+01 +1.8318345828e+01 -6.1726673350e+02 6.1810321531e+02 0.0000000000e+00 0.0000e+00 1.0000e+00
  1000022  1    4    4    0    0 -1.7907131846e+01 -1.3099935734e+01 -1.5235756332e+02 1.5404577497e+02 5.0000000000e+00 0.0000e+00 -1.0000e+00
      -11  1    4    4    0    0 -2.0809959973e+00 -1.1466141096e+00 -1.7250993728e+01 1.7413846592e+01 5.1100000000e-04 0.0000e+00 -1.0000e+00
       11  1    4    4    0    0 -6.3814354521e-01 -4.8518393727e-01 -6.2910616557e+00 6.3419309090e+00 5.1100000000e-04 0.0000e+00 1.0000e+00
  1000022  1    3    3    0    0 -5.7896838095e+00 -3.5866120471e+00 -1.0280592897e+02 1.0315252423e+02 5.0000000000e+00 0.0000e+00 -1.0000e+00
<mgrwt>
<rscale>  1 0.35474088E+02</rscale>
<asrwt>0</asrwt>
<pdfrwt beam="1">  1       21 0.23730894E-03 0.35474088E+02</pdfrwt>
<pdfrwt beam="2">  1        2 0.13807896E+00 0.35474088E+02</pdfrwt>
<totfact> 0.87797946E+06</totfact>
</mgrwt>
<rwgt>
<wgt id='1001'> +1.5538000e-12 </wgt>
<wgt id='1002'> +1.6022817e-12 </wgt>
<wgt id='1003'> +1.6039946e-12 </wgt>
<wgt id='1004'> +1.5462002e-12 </wgt>
<wgt id='1005'> +1.6091066e-12 </wgt>
<wgt id='1006'> +1.3656823e-12 </wgt>
<wgt id='1007'> +1.4276279e-12 </wgt>
<wgt id='1008'> +1.4301185e-12 </wgt>
<wgt id='1009'> +1.3567295e-12 </wgt>
<wgt id='1010'> +1.4378656e-12 </wgt>
<wgt id='1011'> +1.8048955e-12 </wgt>
<wgt id='1012'> +1.8276632e-12 </wgt>
<wgt id='1013'> +1.8279964e-12 </wgt>
<wgt id='1014'> +1.8001758e-12 </wgt>
<wgt id='1015'> +1.8285454e-12 </wgt>
<wgt id='1016'> +1.8284207e-12 </wgt>
<wgt id='1017'> +1.8201165e-12 </wgt>
<wgt id='1018'> +1.8191537e-12 </wgt>
<wgt id='1019'> +1.8279964e-12 </wgt>
<wgt id='1020'> +1.8154276e-12 </wgt>
<wgt id='1021'> +1.6070549e-12 </wgt>
<wgt id='1022'> +1.6217180e-12 </wgt>
<wgt id='1023'> +1.6219539e-12 </wgt>
<wgt id='1024'> +1.6039946e-12 </wgt>
<wgt id='1025'> +1.6222300e-12 </wgt>
<wgt id='1026'> +2.1238952e-12 </wgt>
<wgt id='1027'> +2.0761392e-12 </wgt>
<wgt id='1028'> +2.0732030e-12 </wgt>
<wgt id='1029'> +2.1282593e-12 </wgt>
<wgt id='1030'> +2.0630031e-12 </wgt>
<wgt id='1031'> +1.2399377e-12 </wgt>
<wgt id='1032'> +1.3518977e-12 </wgt>
<wgt id='1033'> +1.3567295e-12 </wgt>
<wgt id='1034'> +1.2244797e-12 </wgt>
<wgt id='1035'> +1.3719723e-12 </wgt>
<wgt id='1036'> +1.0898192e-12 </wgt>
<wgt id='1037'> +1.2045366e-12 </wgt>
<wgt id='1038'> +1.2096574e-12 </wgt>
<wgt id='1039'> +1.0744326e-12 </wgt>
<wgt id='1040'> +1.2259672e-12 </wgt>
<wgt id='1041'> +1.4403128e-12 </wgt>
<wgt id='1042'> +1.5420594e-12 </wgt>
<wgt id='1043'> +1.5462002e-12 </wgt>
<wgt id='1044'> +1.4256102e-12 </wgt>
<wgt id='1045'> +1.5590724e-12 </wgt>
<wgt id='1046'> +1.5538000e-12 </wgt>
<wgt id='1047'> +1.5562787e-12 </wgt>
<wgt id='1048'> +1.6205504e-12 </wgt>
<wgt id='1049'> +1.5156874e-12 </wgt>
<wgt id='1050'> +1.5236113e-12 </wgt>
<wgt id='1051'> +1.5055424e-12 </wgt>
<wgt id='1052'> +1.5205091e-12 </wgt>
<wgt id='1053'> +1.6190000e-12 </wgt>
<wgt id='1054'> +1.5901646e-12 </wgt>
<wgt id='1055'> +1.5276293e-12 </wgt>
<wgt id='1056'> +1.4675140e-12 </wgt>
<wgt id='1057'> +1.5427743e-12 </wgt>
<wgt id='1058'> +1.5158198e-12 </wgt>
<wgt id='1059'> +1.5621179e-12 </wgt>
<wgt id='1060'> +1.5769909e-12 </wgt>
<wgt id='1061'> +1.5808332e-12 </wgt>
<wgt id='1062'> +1.5309846e-12 </wgt>
<wgt id='1063'> +1.4924741e-12 </wgt>
<wgt id='1064'> +1.5546265e-12 </wgt>
<wgt id='1065'> +1.5932172e-12 </wgt>
<wgt id='1066'> +1.5552843e-12 </wgt>
<wgt id='1067'> +1.5818132e-12 </wgt>
<wgt id='1068'> +1.6082652e-12 </wgt>
<wgt id='1069'> +1.6170322e-12 </wgt>
<wgt id='1070'> +1.5395038e-12 </wgt>
<wgt id='1071'> +1.5723222e-12 </wgt>
<wgt id='1072'> +1.5726139e-12 </wgt>
<wgt id='1073'> +1.5204322e-12 </wgt>
<wgt id='1074'> +1.5618635e-12 </wgt>
<wgt id='1075'> +1.5253068e-12 </wgt>
<wgt id='1076'> +1.5626049e-12 </wgt>
<wgt id='1077'> +1.5674155e-12 </wgt>
<wgt id='1078'> +1.5450399e-12 </wgt>
<wgt id='1079'> +1.5640062e-12 </wgt>
<wgt id='1080'> +1.5317350e-12 </wgt>
<wgt id='1081'> +1.5092970e-12 </wgt>
<wgt id='1082'> +1.5658247e-12 </wgt>
<wgt id='1083'> +1.5340581e-12 </wgt>
<wgt id='1084'> +1.5381074e-12 </wgt>
<wgt id='1085'> +1.5824932e-12 </wgt>
<wgt id='1086'> +1.6073057e-12 </wgt>
<wgt id='1087'> +1.5383135e-12 </wgt>
<wgt id='1088'> +1.5548389e-12 </wgt>
<wgt id='1089'> +1.5199161e-12 </wgt>
<wgt id='1090'> +1.5454395e-12 </wgt>
<wgt id='1091'> +1.5775058e-12 </wgt>
<wgt id='1092'> +1.5390252e-12 </wgt>
<wgt id='1093'> +1.5881445e-12 </wgt>
<wgt id='1094'> +1.5909705e-12 </wgt>
<wgt id='1095'> +1.5941783e-12 </wgt>
<wgt id='1096'> +1.5016231e-12 </wgt>
<wgt id='1097'> +1.5629368e-12 </wgt>
<wgt id='1098'> +1.5872819e-12 </wgt>
<wgt id='1099'> +1.5499119e-12 </wgt>
<wgt id='1100'> +1.5839114e-12 </wgt>
<wgt id='1101'> +1.5619393e-12 </wgt>
<wgt id='1102'> +1.5273566e-12 </wgt>
<wgt id='1103'> +1.5340746e-12 </wgt>
<wgt id='1104'> +1.5685404e-12 </wgt>
<wgt id='1105'> +1.5096738e-12 </wgt>
<wgt id='1106'> +1.5520579e-12 </wgt>
<wgt id='1107'> +1.5943581e-12 </wgt>
<wgt id='1108'> +1.5410307e-12 </wgt>
<wgt id='1109'> +1.5357437e-12 </wgt>
<wgt id='1110'> +1.5626009e-12 </wgt>
<wgt id='1111'> +1.5569556e-12 </wgt>
<wgt id='1112'> +1.5734532e-12 </wgt>
<wgt id='1113'> +1.6196473e-12 </wgt>
<wgt id='1114'> +1.5804466e-12 </wgt>
<wgt id='1115'> +1.5876375e-12 </wgt>
<wgt id='1116'> +1.6163737e-12 </wgt>
<wgt id='1117'> +1.5472559e-12 </wgt>
<wgt id='1118'> +1.5640088e-12 </wgt>
<wgt id='1119'> +1.5177139e-12 </wgt>
<wgt id='1120'> +1.5500556e-12 </wgt>
<wgt id='1121'> +1.5222011e-12 </wgt>
<wgt id='1122'> +1.5326411e-12 </wgt>
<wgt id='1123'> +1.5740437e-12 </wgt>
<wgt id='1124'> +1.5986718e-12 </wgt>
<wgt id='1125'> +1.5029082e-12 </wgt>
<wgt id='1126'> +1.5217074e-12 </wgt>
<wgt id='1127'> +1.5604461e-12 </wgt>
<wgt id='1128'> +1.5309846e-12 </wgt>
<wgt id='1129'> +1.5240998e-12 </wgt>
<wgt id='1130'> +1.5430070e-12 </wgt>
<wgt id='1131'> +1.5814257e-12 </wgt>
<wgt id='1132'> +1.5664635e-12 </wgt>
<wgt id='1133'> +1.5468047e-12 </wgt>
<wgt id='1134'> +1.5163708e-12 </wgt>
<wgt id='1135'> +1.4908887e-12 </wgt>
<wgt id='1136'> +1.5197062e-12 </wgt>
<wgt id='1137'> +1.5555740e-12 </wgt>
<wgt id='1138'> +1.5392211e-12 </wgt>
<wgt id='1139'> +1.5509287e-12 </wgt>
<wgt id='1140'> +1.5653894e-12 </wgt>
<wgt id='1141'> +1.5445322e-12 </wgt>
<wgt id='1142'> +1.5915140e-12 </wgt>
<wgt id='1143'> +1.5033654e-12 </wgt>
<wgt id='1144'> +1.5536225e-12 </wgt>
<wgt id='1145'> +1.5879114e-12 </wgt>
<wgt id='1146'> +1.5600615e-12 </wgt>
<wgt id='1147'> +1.4124008e-12 </wgt>
<wgt id='1148'> +1.4371130e-12 </wgt>
<wgt id='1149'> +1.3650779e-12 </wgt>
<wgt id='1150'> +1.4245240e-12 </wgt>
<wgt id='1151'> +1.6675708e-12 </wgt>
<wgt id='1152'> +2.2960062e-12 </wgt>
<wgt id='1153'> +2.3010618e-12 </wgt>
<wgt id='1154'> +2.2930066e-12 </wgt>
<wgt id='1155'> +2.2905594e-12 </wgt>
<wgt id='1156'> +2.2987817e-12 </wgt>
<wgt id='1157'> +2.3002614e-12 </wgt>
<wgt id='1158'> +2.2902945e-12 </wgt>
<wgt id='1159'> +2.2994353e-12 </wgt>
<wgt id='1160'> +2.2938390e-12 </wgt>
<wgt id='1161'> +2.2909905e-12 </wgt>
<wgt id='1162'> +2.2994481e-12 </wgt>
<wgt id='1163'> +2.2950656e-12 </wgt>
<wgt id='1164'> +2.2969168e-12 </wgt>
<wgt id='1165'> +2.3006908e-12 </wgt>
<wgt id='1166'> +2.2913053e-12 </wgt>
<wgt id='1167'> +2.3262265e-12 </wgt>
<wgt id='1168'> +2.2595982e-12 </wgt>
<wgt id='1169'> +2.3055273e-12 </wgt>
<wgt id='1170'> +2.2888936e-12 </wgt>
<wgt id='1171'> +2.2890449e-12 </wgt>
<wgt id='1172'> +2.3049748e-12 </wgt>
<wgt id='1173'> +2.2681747e-12 </wgt>
<wgt id='1174'> +2.3252331e-12 </wgt>
<wgt id='1175'> +2.2981265e-12 </wgt>
<wgt id='1176'> +2.2939376e-12 </wgt>
<wgt id='1177'> +2.2917365e-12 </wgt>
<wgt id='1178'> +2.3063229e-12 </wgt>
<wgt id='1179'> +2.2926396e-12 </wgt>
<wgt id='1180'> +2.2938516e-12 </wgt>
<wgt id='1181'> +2.2991276e-12 </wgt>
<wgt id='1182'> +2.2913491e-12 </wgt>
<wgt id='1183'> +2.2953146e-12 </wgt>
<wgt id='1184'> +2.2959893e-12 </wgt>
<wgt id='1185'> +2.2901159e-12 </wgt>
<wgt id='1186'> +2.2984606e-12 </wgt>
<wgt id='1187'> +2.2999929e-12 </wgt>
<wgt id='1188'> +2.2945992e-12 </wgt>
<wgt id='1189'> +2.2893618e-12 </wgt>
<wgt id='1190'> +2.2732396e-12 </wgt>
<wgt id='1191'> +2.2993001e-12 </wgt>
<wgt id='1192'> +2.3034700e-12 </wgt>
<wgt id='1193'> +1.4150104e-12 </wgt>
<wgt id='1194'> +1.3989575e-12 </wgt>
<wgt id='1195'> +1.4281782e-12 </wgt>
<wgt id='1196'> +1.4124324e-12 </wgt>
<wgt id='1197'> +1.4178793e-12 </wgt>
<wgt id='1198'> +1.4139127e-12 </wgt>
<wgt id='1199'> +1.4166830e-12 </wgt>
<wgt id='1200'> +1.4117180e-12 </wgt>
<wgt id='1201'> +1.4172448e-12 </wgt>
<wgt id='1202'> +1.4141784e-12 </wgt>
<wgt id='1203'> +1.4161895e-12 </wgt>
<wgt id='1204'> +1.4096530e-12 </wgt>
<wgt id='1205'> +1.4181043e-12 </wgt>
<wgt id='1206'> +1.4184238e-12 </wgt>
<wgt id='1207'> +1.4103432e-12 </wgt>
<wgt id='1208'> +1.4241425e-12 </wgt>
<wgt id='1209'> +1.4118035e-12 </wgt>
<wgt id='1210'> +1.4157050e-12 </wgt>
<wgt id='1211'> +1.4113501e-12 </wgt>
<wgt id='1212'> +1.4148453e-12 </wgt>
<wgt id='1213'> +1.4156316e-12 </wgt>
<wgt id='1214'> +1.4002371e-12 </wgt>
<wgt id='1215'> +1.4354603e-12 </wgt>
<wgt id='1216'> +1.4250766e-12 </wgt>
<wgt id='1217'> +1.4082531e-12 </wgt>
<wgt id='1218'> +1.4184161e-12 </wgt>
<wgt id='1219'> +1.4130288e-12 </wgt>
<wgt id='1220'> +1.4234428e-12 </wgt>
<wgt id='1221'> +1.4132073e-12 </wgt>
<wgt id='1222'> +1.4370303e-12 </wgt>
<wgt id='1223'> +1.3843252e-12 </wgt>
<wgt id='1224'> +1.4184117e-12 </wgt>
<wgt id='1225'> +1.4137190e-12 </wgt>
<wgt id='1226'> +1.4130127e-12 </wgt>
<wgt id='1227'> +1.4165750e-12 </wgt>
<wgt id='1228'> +1.4107458e-12 </wgt>
<wgt id='1229'> +1.4168622e-12 </wgt>
<wgt id='1230'> +1.4170886e-12 </wgt>
<wgt id='1231'> +1.4244813e-12 </wgt>
<wgt id='1232'> +1.4181928e-12 </wgt>
<wgt id='1233'> +1.4142002e-12 </wgt>
<wgt id='1234'> +1.4150104e-12 </wgt>
<wgt id='1235'> +1.4084179e-12 </wgt>
<wgt id='1236'> +1.4110301e-12 </wgt>
<wgt id='1237'> +1.4132836e-12 </wgt>
<wgt id='1238'> +1.4169777e-12 </wgt>
<wgt id='1239'> +1.4184190e-12 </wgt>
<wgt id='1240'> +1.4199422e-12 </wgt>
<wgt id='1241'> +1.3544081e-12 </wgt>
<wgt id='1242'> +1.3384078e-12 </wgt>
<wgt id='1243'> +1.3702074e-12 </wgt>
<wgt id='1244'> +1.3613999e-12 </wgt>
<wgt id='1245'> +1.3492232e-12 </wgt>
<wgt id='1246'> +1.3502740e-12 </wgt>
<wgt id='1247'> +1.3579476e-12 </wgt>
<wgt id='1248'> +1.3544180e-12 </wgt>
<wgt id='1249'> +1.3543963e-12 </wgt>
<wgt id='1250'> +1.3552862e-12 </wgt>
<wgt id='1251'> +1.3538238e-12 </wgt>
<wgt id='1252'> +1.3514169e-12 </wgt>
<wgt id='1253'> +1.3567314e-12 </wgt>
<wgt id='1254'> +1.3499065e-12 </wgt>
<wgt id='1255'> +1.3570134e-12 </wgt>
<wgt id='1256'> +1.3510788e-12 </wgt>
<wgt id='1257'> +1.3628024e-12 </wgt>
<wgt id='1258'> +1.3672501e-12 </wgt>
<wgt id='1259'> +1.3409374e-12 </wgt>
<wgt id='1260'> +1.3573350e-12 </wgt>
<wgt id='1261'> +1.3514147e-12 </wgt>
<wgt id='1262'> +1.3585124e-12 </wgt>
<wgt id='1263'> +1.3528583e-12 </wgt>
<wgt id='1264'> +1.3592717e-12 </wgt>
<wgt id='1265'> +1.3523577e-12 </wgt>
<wgt id='1266'> +1.3324778e-12 </wgt>
<wgt id='1267'> +1.3752717e-12 </wgt>
<wgt id='1268'> +1.3621963e-12 </wgt>
<wgt id='1269'> +1.3479742e-12 </wgt>
<wgt id='1270'> +1.3612876e-12 </wgt>
<wgt id='1271'> +1.3570421e-12 </wgt>
<wgt id='1272'> +1.3576283e-12 </wgt>
<wgt id='1273'> +1.3542944e-12 </wgt>
<wgt id='1274'> +1.3557573e-12 </wgt>
<wgt id='1275'> +1.3524823e-12 </wgt>
<wgt id='1276'> +1.3584649e-12 </wgt>
<wgt id='1277'> +1.3498696e-12 </wgt>
<wgt id='1278'> +1.3668568e-12 </wgt>
<wgt id='1279'> +1.3603697e-12 </wgt>
<wgt id='1280'> +1.3543699e-12 </wgt>
<wgt id='1281'> +1.3603484e-12 </wgt>
<wgt id='1282'> +1.3544081e-12 </wgt>
<wgt id='1283'> +1.3479893e-12 </wgt>
<wgt id='1284'> +1.3507012e-12 </wgt>
<wgt id='1285'> +1.3527278e-12 </wgt>
<wgt id='1286'> +1.3562022e-12 </wgt>
<wgt id='1287'> +1.3573356e-12 </wgt>
<wgt id='1288'> +1.3582892e-12 </wgt>
<wgt id='1289'> +1.4522272e-12 </wgt>
<wgt id='1290'> +1.4563250e-12 </wgt>
<wgt id='1291'> +1.4477925e-12 </wgt>
<wgt id='1292'> +1.4532809e-12 </wgt>
<wgt id='1293'> +1.4514392e-12 </wgt>
<wgt id='1294'> +1.4375024e-12 </wgt>
<wgt id='1295'> +1.4663284e-12 </wgt>
<wgt id='1296'> +1.4595315e-12 </wgt>
<wgt id='1297'> +1.4430225e-12 </wgt>
<wgt id='1298'> +1.4591534e-12 </wgt>
<wgt id='1299'> +1.4434114e-12 </wgt>
<wgt id='1300'> +1.4553036e-12 </wgt>
<wgt id='1301'> +1.4459810e-12 </wgt>
<wgt id='1302'> +1.4479160e-12 </wgt>
<wgt id='1303'> +1.4581691e-12 </wgt>
<wgt id='1304'> +1.4504132e-12 </wgt>
<wgt id='1305'> +1.4534102e-12 </wgt>
<wgt id='1306'> +1.4556315e-12 </wgt>
<wgt id='1307'> +1.4481334e-12 </wgt>
<wgt id='1308'> +1.4461783e-12 </wgt>
<wgt id='1309'> +1.4568172e-12 </wgt>
<wgt id='1310'> +1.4541548e-12 </wgt>
<wgt id='1311'> +1.4503921e-12 </wgt>
<wgt id='1312'> +1.4601326e-12 </wgt>
<wgt id='1313'> +1.4448136e-12 </wgt>
<wgt id='1314'> +1.4321860e-12 </wgt>
<wgt id='1315'> +1.4701877e-12 </wgt>
<wgt id='1316'> +1.4591952e-12 </wgt>
<wgt id='1317'> +1.4539752e-12 </wgt>
<wgt id='1318'> +1.4623812e-12 </wgt>
<wgt id='1319'> +1.4390701e-12 </wgt>
<wgt id='1320'> +1.4710627e-12 </wgt>
<wgt id='1321'> +1.4352774e-12 </wgt>
<wgt id='1322'> +1.4523685e-12 </wgt>
<wgt id='1323'> +1.4521942e-12 </wgt>
<wgt id='1324'> +1.4499063e-12 </wgt>
<wgt id='1325'> +1.4560150e-12 </wgt>
<wgt id='1326'> +1.4512661e-12 </wgt>
<wgt id='1327'> +1.4558649e-12 </wgt>
<wgt id='1328'> +1.4514352e-12 </wgt>
<wgt id='1329'> +1.4523060e-12 </wgt>
<wgt id='1330'> +1.4583793e-12 </wgt>
<wgt id='1331'> +1.4459371e-12 </wgt>
<wgt id='1332'> +1.4644903e-12 </wgt>
<wgt id='1333'> +1.4564711e-12 </wgt>
<wgt id='1334'> +1.4502360e-12 </wgt>
<wgt id='1335'> +1.4577913e-12 </wgt>
<wgt id='1336'> +1.4549468e-12 </wgt>
<wgt id='1337'> +1.4603432e-12 </wgt>
<wgt id='1338'> +1.4532380e-12 </wgt>
<wgt id='1339'> +1.4544030e-12 </wgt>
<wgt id='1340'> +1.4210464e-12 </wgt>
<wgt id='1341'> +1.4249901e-12 </wgt>
<wgt id='1342'> +1.4168274e-12 </wgt>
<wgt id='1343'> +1.4222692e-12 </wgt>
<wgt id='1344'> +1.4202291e-12 </wgt>
<wgt id='1345'> +1.4057614e-12 </wgt>
<wgt id='1346'> +1.4351768e-12 </wgt>
<wgt id='1347'> +1.4290679e-12 </wgt>
<wgt id='1348'> +1.4120444e-12 </wgt>
<wgt id='1349'> +1.4275447e-12 </wgt>
<wgt id='1350'> +1.4146167e-12 </wgt>
<wgt id='1351'> +1.4239511e-12 </wgt>
<wgt id='1352'> +1.4147077e-12 </wgt>
<wgt id='1353'> +1.4157629e-12 </wgt>
<wgt id='1354'> +1.4304714e-12 </wgt>
<wgt id='1355'> +1.4202549e-12 </wgt>
<wgt id='1356'> +1.4214711e-12 </wgt>
<wgt id='1357'> +1.4235393e-12 </wgt>
<wgt id='1358'> +1.4178976e-12 </wgt>
<wgt id='1359'> +1.4144837e-12 </wgt>
<wgt id='1360'> +1.4267002e-12 </wgt>
<wgt id='1361'> +1.4234706e-12 </wgt>
<wgt id='1362'> +1.4180932e-12 </wgt>
<wgt id='1363'> +1.4351195e-12 </wgt>
<wgt id='1364'> +1.4124306e-12 </wgt>
<wgt id='1365'> +1.4301887e-12 </wgt>
<wgt id='1366'> +1.4038626e-12 </wgt>
<wgt id='1367'> +1.4282280e-12 </wgt>
<wgt id='1368'> +1.4213367e-12 </wgt>
<wgt id='1369'> +1.4291598e-12 </wgt>
<wgt id='1370'> +1.4108204e-12 </wgt>
<wgt id='1371'> +1.4365149e-12 </wgt>
<wgt id='1372'> +1.4016840e-12 </wgt>
<wgt id='1373'> +1.4177543e-12 </wgt>
<wgt id='1374'> +1.4240516e-12 </wgt>
<wgt id='1375'> +1.4186555e-12 </wgt>
<wgt id='1376'> +1.4252977e-12 </wgt>
<wgt id='1377'> +1.4203645e-12 </wgt>
<wgt id='1378'> +1.4246798e-12 </wgt>
<wgt id='1379'> +1.4205351e-12 </wgt>
<wgt id='1380'> +1.4209340e-12 </wgt>
<wgt id='1381'> +1.4275097e-12 </wgt>
<wgt id='1382'> +1.4150144e-12 </wgt>
<wgt id='1383'> +1.4310402e-12 </wgt>
<wgt id='1384'> +1.4260830e-12 </wgt>
<wgt id='1385'> +1.4193348e-12 </wgt>
<wgt id='1386'> +1.4253932e-12 </wgt>
<wgt id='1387'> +1.4240829e-12 </wgt>
<wgt id='1388'> +1.4295763e-12 </wgt>
<wgt id='1389'> +1.4220987e-12 </wgt>
<wgt id='1390'> +1.4243440e-12 </wgt>
<wgt id='1391'> +1.4000943e-12 </wgt>
<wgt id='1392'> +1.3558663e-12 </wgt>
<wgt id='1393'> +1.3712120e-12 </wgt>
<wgt id='1394'> +1.3860381e-12 </wgt>
<wgt id='1395'> +1.4155080e-12 </wgt>
<wgt id='1396'> +1.4007640e-12 </wgt>
<wgt id='1397'> +1.3823322e-12 </wgt>
<wgt id='1398'> +1.3847730e-12 </wgt>
<wgt id='1399'> +1.3876290e-12 </wgt>
<wgt id='1400'> +1.3914452e-12 </wgt>
<wgt id='1401'> +1.3960291e-12 </wgt>
<wgt id='1402'> +1.4056168e-12 </wgt>
<wgt id='1403'> +1.4110407e-12 </wgt>
<wgt id='1404'> +1.4166358e-12 </wgt>
<wgt id='1405'> +1.4007640e-12 </wgt>
<wgt id='1406'> +1.3968810e-12 </wgt>
<wgt id='1407'> +1.3988582e-12 </wgt>
<wgt id='1408'> +1.4025179e-12 </wgt>
<wgt id='1409'> +1.4037522e-12 </wgt>
<wgt id='1410'> +1.3190670e-12 </wgt>
<wgt id='1411'> +1.3258981e-12 </wgt>
<wgt id='1412'> +1.3103190e-12 </wgt>
<wgt id='1413'> +1.3118140e-12 </wgt>
<wgt id='1414'> +1.3263160e-12 </wgt>
<wgt id='1415'> +1.3167071e-12 </wgt>
<wgt id='1416'> +1.3200339e-12 </wgt>
<wgt id='1417'> +1.3179629e-12 </wgt>
<wgt id='1418'> +1.3201096e-12 </wgt>
<wgt id='1419'> +1.3207173e-12 </wgt>
<wgt id='1420'> +1.3174867e-12 </wgt>
<wgt id='1421'> +1.3058940e-12 </wgt>
<wgt id='1422'> +1.3246365e-12 </wgt>
<wgt id='1423'> +1.3178649e-12 </wgt>
<wgt id='1424'> +1.3205567e-12 </wgt>
<wgt id='1425'> +1.3107180e-12 </wgt>
<wgt id='1426'> +1.3280821e-12 </wgt>
<wgt id='1427'> +1.3057548e-12 </wgt>
<wgt id='1428'> +1.3260132e-12 </wgt>
<wgt id='1429'> +1.3224476e-12 </wgt>
<wgt id='1430'> +1.3145688e-12 </wgt>
<wgt id='1431'> +1.3203420e-12 </wgt>
<wgt id='1432'> +1.3181286e-12 </wgt>
<wgt id='1433'> +1.3010338e-12 </wgt>
<wgt id='1434'> +1.3337748e-12 </wgt>
<wgt id='1435'> +1.3117872e-12 </wgt>
<wgt id='1436'> +1.3378316e-12 </wgt>
<wgt id='1437'> +1.3248851e-12 </wgt>
<wgt id='1438'> +1.3231702e-12 </wgt>
<wgt id='1439'> +1.3125953e-12 </wgt>
<wgt id='1440'> +1.3299960e-12 </wgt>
<wgt id='1441'> +1.3247310e-12 </wgt>
<wgt id='1442'> +1.3063651e-12 </wgt>
<wgt id='1443'> +1.3152717e-12 </wgt>
<wgt id='1444'> +1.3275537e-12 </wgt>
<wgt id='1445'> +1.3283194e-12 </wgt>
<wgt id='1446'> +1.3153571e-12 </wgt>
<wgt id='1447'> +1.3206676e-12 </wgt>
<wgt id='1448'> +1.3215534e-12 </wgt>
<wgt id='1449'> +1.3189700e-12 </wgt>
<wgt id='1450'> +1.3182793e-12 </wgt>
<wgt id='1451'> +1.3182218e-12 </wgt>
<wgt id='1452'> +1.3234474e-12 </wgt>
<wgt id='1453'> +1.3195630e-12 </wgt>
<wgt id='1454'> +1.3212993e-12 </wgt>
<wgt id='1455'> +1.3295268e-12 </wgt>
<wgt id='1456'> +1.3262116e-12 </wgt>
<wgt id='1457'> +1.3260144e-12 </wgt>
<wgt id='1458'> +1.3178008e-12 </wgt>
<wgt id='1459'> +1.3250331e-12 </wgt>
<wgt id='1460'> +1.3294359e-12 </wgt>
<wgt id='1461'> +1.3190670e-12 </wgt>
<wgt id='1462'> +1.3084194e-12 </wgt>
<wgt id='1463'> +1.3261710e-12 </wgt>
<wgt id='1464'> +1.3171968e-12 </wgt>
<wgt id='1465'> +1.2953022e-12 </wgt>
<wgt id='1466'> +1.2984946e-12 </wgt>
<wgt id='1467'> +1.3024464e-12 </wgt>
<wgt id='1468'> +1.3090034e-12 </wgt>
<wgt id='1469'> +1.3123696e-12 </wgt>
<wgt id='1470'> +1.3224512e-12 </wgt>
<wgt id='1471'> +1.3273430e-12 </wgt>
<wgt id='1472'> +1.3324284e-12 </wgt>
<wgt id='1473'> +1.3171968e-12 </wgt>
<wgt id='1474'> +1.3139098e-12 </wgt>
<wgt id='1475'> +1.3162102e-12 </wgt>
<wgt id='1476'> +1.3183220e-12 </wgt>
<wgt id='1477'> +1.3192951e-12 </wgt>
<wgt id='1478'> +1.3785071e-12 </wgt>
<wgt id='1479'> +1.3794141e-12 </wgt>
<wgt id='1480'> +1.3649648e-12 </wgt>
<wgt id='1481'> +1.4003235e-12 </wgt>
<wgt id='1482'> +1.3810514e-12 </wgt>
<wgt id='1483'> +1.3627978e-12 </wgt>
<wgt id='1484'> +1.3675026e-12 </wgt>
<wgt id='1485'> +1.3898511e-12 </wgt>
<wgt id='1486'> +1.3780344e-12 </wgt>
<wgt id='1487'> +1.3904674e-12 </wgt>
<wgt id='1488'> +1.3757929e-12 </wgt>
<wgt id='1489'> +1.3795598e-12 </wgt>
<wgt id='1490'> +1.3751102e-12 </wgt>
<wgt id='1491'> +1.3847128e-12 </wgt>
<wgt id='1492'> +1.3787591e-12 </wgt>
<wgt id='1493'> +1.3588352e-12 </wgt>
<wgt id='1494'> +1.3753053e-12 </wgt>
<wgt id='1495'> +1.3695366e-12 </wgt>
<wgt id='1496'> +1.3794901e-12 </wgt>
<wgt id='1497'> +1.3785085e-12 </wgt>
<wgt id='1498'> +1.3788613e-12 </wgt>
<wgt id='1499'> +1.3816589e-12 </wgt>
<wgt id='1500'> +1.3806125e-12 </wgt>
<wgt id='1501'> +1.3796107e-12 </wgt>
<wgt id='1502'> +1.3771949e-12 </wgt>
<wgt id='1503'> +1.3839532e-12 </wgt>
<wgt id='1504'> +1.3727130e-12 </wgt>
<wgt id='1505'> +1.3832540e-12 </wgt>
<wgt id='1506'> +1.3803418e-12 </wgt>
<wgt id='1507'> +1.3789033e-12 </wgt>
<wgt id='1508'> +1.3812751e-12 </wgt>
<wgt id='1509'> +1.3361727e-12 </wgt>
<wgt id='1510'> +1.3403847e-12 </wgt>
<wgt id='1511'> +1.3192386e-12 </wgt>
<wgt id='1512'> +1.3239798e-12 </wgt>
<wgt id='1513'> +1.3344906e-12 </wgt>
<wgt id='1514'> +1.3416424e-12 </wgt>
<wgt id='1515'> +1.3404914e-12 </wgt>
<wgt id='1516'> +1.3401614e-12 </wgt>
<wgt id='1517'> +1.3373602e-12 </wgt>
<wgt id='1518'> +1.3352785e-12 </wgt>
<wgt id='1519'> +1.3377077e-12 </wgt>
<wgt id='1520'> +1.3370959e-12 </wgt>
<wgt id='1521'> +1.3357836e-12 </wgt>
<wgt id='1522'> +1.3389728e-12 </wgt>
<wgt id='1523'> +1.3389474e-12 </wgt>
<wgt id='1524'> +1.3344600e-12 </wgt>
<wgt id='1525'> +1.3356861e-12 </wgt>
<wgt id='1526'> +1.3373662e-12 </wgt>
<wgt id='1527'> +1.3359681e-12 </wgt>
<wgt id='1528'> +1.3371062e-12 </wgt>
<wgt id='1529'> +1.3373710e-12 </wgt>
<wgt id='1530'> +1.3368378e-12 </wgt>
<wgt id='1531'> +1.3386850e-12 </wgt>
<wgt id='1532'> +1.3327390e-12 </wgt>
<wgt id='1533'> +1.3363882e-12 </wgt>
<wgt id='1534'> +1.3364165e-12 </wgt>
<wgt id='1535'> +1.3321439e-12 </wgt>
<wgt id='1536'> +1.3401989e-12 </wgt>
<wgt id='1537'> +1.3392198e-12 </wgt>
<wgt id='1538'> +1.3228283e-12 </wgt>
<wgt id='1539'> +1.3338881e-12 </wgt>
<wgt id='1540'> +1.3352679e-12 </wgt>
<wgt id='1541'> +1.3333647e-12 </wgt>
<wgt id='1542'> +1.3342959e-12 </wgt>
<wgt id='1543'> +1.3368172e-12 </wgt>
<wgt id='1544'> +1.3342355e-12 </wgt>
<wgt id='1545'> +1.3348412e-12 </wgt>
<wgt id='1546'> +1.3370854e-12 </wgt>
<wgt id='1547'> +1.3349755e-12 </wgt>
<wgt id='1548'> +1.3369706e-12 </wgt>
<wgt id='1549'> +1.3350609e-12 </wgt>
<wgt id='1550'> +1.3363104e-12 </wgt>
<wgt id='1551'> +1.3358027e-12 </wgt>
<wgt id='1552'> +1.3378926e-12 </wgt>
<wgt id='1553'> +1.3363852e-12 </wgt>
<wgt id='1554'> +1.3353551e-12 </wgt>
<wgt id='1555'> +1.3379179e-12 </wgt>
<wgt id='1556'> +1.3393097e-12 </wgt>
<wgt id='1557'> +1.3358949e-12 </wgt>
<wgt id='1558'> +1.3361897e-12 </wgt>
<wgt id='1559'> +1.3348250e-12 </wgt>
<wgt id='1560'> +1.3363938e-12 </wgt>
<wgt id='1561'> +1.3364297e-12 </wgt>
<wgt id='1562'> +1.3361859e-12 </wgt>
<wgt id='1563'> +1.3364443e-12 </wgt>
<wgt id='1564'> +1.3348407e-12 </wgt>
<wgt id='1565'> +1.3361045e-12 </wgt>
<wgt id='1566'> +1.3361225e-12 </wgt>
<wgt id='1567'> +1.3349388e-12 </wgt>
<wgt id='1568'> +1.3361908e-12 </wgt>
<wgt id='1569'> +1.3391453e-12 </wgt>
<wgt id='1570'> +1.3368113e-12 </wgt>
<wgt id='1571'> +1.3367297e-12 </wgt>
<wgt id='1572'> +1.3360552e-12 </wgt>
<wgt id='1573'> +1.3356400e-12 </wgt>
<wgt id='1574'> +1.3368133e-12 </wgt>
<wgt id='1575'> +1.3360997e-12 </wgt>
<wgt id='1576'> +1.3369159e-12 </wgt>
<wgt id='1577'> +1.3380807e-12 </wgt>
<wgt id='1578'> +1.3364693e-12 </wgt>
<wgt id='1579'> +1.3354582e-12 </wgt>
<wgt id='1580'> +1.3360622e-12 </wgt>
<wgt id='1581'> +1.3363971e-12 </wgt>
<wgt id='1582'> +1.3367051e-12 </wgt>
<wgt id='1583'> +1.3353387e-12 </wgt>
<wgt id='1584'> +1.3351653e-12 </wgt>
<wgt id='1585'> +1.3359469e-12 </wgt>
<wgt id='1586'> +1.3361968e-12 </wgt>
<wgt id='1587'> +1.3369713e-12 </wgt>
<wgt id='1588'> +1.3348132e-12 </wgt>
<wgt id='1589'> +1.3374323e-12 </wgt>
<wgt id='1590'> +1.3367505e-12 </wgt>
<wgt id='1591'> +1.3364503e-12 </wgt>
<wgt id='1592'> +1.3367086e-12 </wgt>
<wgt id='1593'> +1.3367980e-12 </wgt>
<wgt id='1594'> +1.3360243e-12 </wgt>
<wgt id='1595'> +1.3352773e-12 </wgt>
<wgt id='1596'> +1.3355741e-12 </wgt>
<wgt id='1597'> +1.3352406e-12 </wgt>
<wgt id='1598'> +1.3366914e-12 </wgt>
<wgt id='1599'> +1.3368613e-12 </wgt>
<wgt id='1600'> +1.3351948e-12 </wgt>
<wgt id='1601'> +1.3365330e-12 </wgt>
<wgt id='1602'> +1.3356254e-12 </wgt>
<wgt id='1603'> +1.3369175e-12 </wgt>
<wgt id='1604'> +1.3361752e-12 </wgt>
<wgt id='1605'> +1.3368222e-12 </wgt>
<wgt id='1606'> +1.3364171e-12 </wgt>
<wgt id='1607'> +1.3365041e-12 </wgt>
<wgt id='1608'> +1.3364974e-12 </wgt>
<wgt id='1609'> +1.3363459e-12 </wgt>
<wgt id='1610'> +1.3215082e-12 </wgt>
<wgt id='1611'> +1.3497814e-12 </wgt>
<wgt id='1612'> +1.5381855e-12 </wgt>
<wgt id='1613'> +1.5057880e-12 </wgt>
<wgt id='1614'> +1.4648376e-12 </wgt>
<wgt id='1615'> +1.5173102e-12 </wgt>
<wgt id='1616'> +1.4709135e-12 </wgt>
<wgt id='1617'> +1.5218470e-12 </wgt>
<wgt id='1618'> +1.5300992e-12 </wgt>
<wgt id='1619'> +1.5018173e-12 </wgt>
<wgt id='1620'> +1.5136216e-12 </wgt>
<wgt id='1621'> +1.5448581e-12 </wgt>
<wgt id='1622'> +1.5497335e-12 </wgt>
<wgt id='1623'> +1.5572640e-12 </wgt>
<wgt id='1624'> +1.5761226e-12 </wgt>
<wgt id='1625'> +1.4933564e-12 </wgt>
<wgt id='1626'> +1.5316997e-12 </wgt>
<wgt id='1627'> +1.5582583e-12 </wgt>
<wgt id='1628'> +1.4449435e-12 </wgt>
<wgt id='1629'> +1.5712563e-12 </wgt>
<wgt id='1630'> +1.4954404e-12 </wgt>
<wgt id='1631'> +1.5074986e-12 </wgt>
<wgt id='1632'> +1.4703605e-12 </wgt>
<wgt id='1633'> +1.4825774e-12 </wgt>
<wgt id='1634'> +1.5315932e-12 </wgt>
<wgt id='1635'> +1.5560516e-12 </wgt>
<wgt id='1636'> +1.5391929e-12 </wgt>
<wgt id='1637'> +1.5714081e-12 </wgt>
<wgt id='1638'> +1.5391739e-12 </wgt>
<wgt id='1639'> +1.5347073e-12 </wgt>
<wgt id='1640'> +1.5294249e-12 </wgt>
<wgt id='1641'> +1.5441465e-12 </wgt>
<wgt id='1642'> +1.4769448e-12 </wgt>
<wgt id='1643'> +1.5137999e-12 </wgt>
<wgt id='1644'> +1.5698334e-12 </wgt>
<wgt id='1645'> +1.5002505e-12 </wgt>
<wgt id='1646'> +1.5579105e-12 </wgt>
<wgt id='1647'> +1.5796572e-12 </wgt>
<wgt id='1648'> +1.5337905e-12 </wgt>
<wgt id='1649'> +1.6018753e-12 </wgt>
<wgt id='1650'> +1.5127776e-12 </wgt>
<wgt id='1651'> +1.5641264e-12 </wgt>
<wgt id='1652'> +1.5290304e-12 </wgt>
<wgt id='1653'> +1.5290329e-12 </wgt>
<wgt id='1654'> +1.5429393e-12 </wgt>
<wgt id='1655'> +1.5753964e-12 </wgt>
<wgt id='1656'> +1.5404848e-12 </wgt>
<wgt id='1657'> +1.5433586e-12 </wgt>
<wgt id='1658'> +1.5305425e-12 </wgt>
<wgt id='1659'> +1.5761226e-12 </wgt>
<wgt id='1660'> +1.5510262e-12 </wgt>
<wgt id='1661'> +1.5795308e-12 </wgt>
<wgt id='1662'> +1.6020360e-12 </wgt>
<wgt id='1663'> +1.5384606e-12 </wgt>
<wgt id='1664'> +1.5267114e-12 </wgt>
<wgt id='1665'> +1.5198793e-12 </wgt>
<wgt id='1666'> +1.5617313e-12 </wgt>
<wgt id='1667'> +1.5568016e-12 </wgt>
<wgt id='1668'> +1.5592575e-12 </wgt>
<wgt id='1669'> +1.5474197e-12 </wgt>
<wgt id='1670'> +1.5144716e-12 </wgt>
<wgt id='1671'> +1.5030858e-12 </wgt>
<wgt id='1672'> +1.5671467e-12 </wgt>
<wgt id='1673'> +1.5437728e-12 </wgt>
<wgt id='1674'> +1.5250187e-12 </wgt>
<wgt id='1675'> +1.5196766e-12 </wgt>
<wgt id='1676'> +1.5141438e-12 </wgt>
<wgt id='1677'> +1.5405191e-12 </wgt>
<wgt id='1678'> +1.5231005e-12 </wgt>
<wgt id='1679'> +1.5510459e-12 </wgt>
<wgt id='1680'> +1.5574487e-12 </wgt>
<wgt id='1681'> +1.5699933e-12 </wgt>
<wgt id='1682'> +1.5273519e-12 </wgt>
<wgt id='1683'> +1.5572229e-12 </wgt>
<wgt id='1684'> +1.6064524e-12 </wgt>
<wgt id='1685'> +1.5272594e-12 </wgt>
<wgt id='1686'> +1.5355970e-12 </wgt>
<wgt id='1687'> +1.5734929e-12 </wgt>
<wgt id='1688'> +1.5033366e-12 </wgt>
<wgt id='1689'> +1.6039171e-12 </wgt>
<wgt id='1690'> +1.5353666e-12 </wgt>
<wgt id='1691'> +1.4727626e-12 </wgt>
<wgt id='1692'> +1.5234223e-12 </wgt>
<wgt id='1693'> +1.5472659e-12 </wgt>
<wgt id='1694'> +1.5311936e-12 </wgt>
<wgt id='1695'> +1.5486482e-12 </wgt>
<wgt id='1696'> +1.5211331e-12 </wgt>
<wgt id='1697'> +1.5229643e-12 </wgt>
<wgt id='1698'> +1.5491547e-12 </wgt>
<wgt id='1699'> +1.5585279e-12 </wgt>
<wgt id='1700'> +1.5168574e-12 </wgt>
<wgt id='1701'> +1.5949301e-12 </wgt>
<wgt id='1702'> +1.4926328e-12 </wgt>
<wgt id='1703'> +1.5142997e-12 </wgt>
<wgt id='1704'> +1.5191170e-12 </wgt>
<wgt id='1705'> +1.4821037e-12 </wgt>
<wgt id='1706'> +1.5694857e-12 </wgt>
<wgt id='1707'> +1.5531203e-12 </wgt>
<wgt id='1708'> +1.6183351e-12 </wgt>
<wgt id='1709'> +1.5922530e-12 </wgt>
<wgt id='1710'> +1.5400094e-12 </wgt>
<wgt id='1711'> +1.5522459e-12 </wgt>
<wgt id='1712'> +1.6186141e-12 </wgt>
<wgt id='1713'> +1.3467201e-12 </wgt>
<wgt id='1714'> +1.3309346e-12 </wgt>
<wgt id='1715'> +1.3009065e-12 </wgt>
<wgt id='1716'> +1.3784421e-12 </wgt>
<wgt id='1717'> +1.3575701e-12 </wgt>
<wgt id='1718'> +1.3901898e-12 </wgt>
<wgt id='1719'> +1.3697213e-12 </wgt>
<wgt id='1720'> +1.3055365e-12 </wgt>
<wgt id='1721'> +1.3226321e-12 </wgt>
<wgt id='1722'> +1.3406597e-12 </wgt>
<wgt id='1723'> +1.3930811e-12 </wgt>
<wgt id='1724'> +1.3469275e-12 </wgt>
<wgt id='1725'> +1.3656944e-12 </wgt>
<wgt id='1726'> +1.3545990e-12 </wgt>
<wgt id='1727'> +1.3909271e-12 </wgt>
<wgt id='1728'> +1.3281081e-12 </wgt>
<wgt id='1729'> +1.2859860e-12 </wgt>
<wgt id='1730'> +1.3220499e-12 </wgt>
<wgt id='1731'> +1.2865541e-12 </wgt>
<wgt id='1732'> +1.3486604e-12 </wgt>
<wgt id='1733'> +1.2857769e-12 </wgt>
<wgt id='1734'> +1.4117107e-12 </wgt>
<wgt id='1735'> +1.3195087e-12 </wgt>
<wgt id='1736'> +1.3730123e-12 </wgt>
<wgt id='1737'> +1.3883680e-12 </wgt>
<wgt id='1738'> +1.3419575e-12 </wgt>
<wgt id='1739'> +1.3570024e-12 </wgt>
<wgt id='1740'> +1.2741528e-12 </wgt>
<wgt id='1741'> +1.3886442e-12 </wgt>
<wgt id='1742'> +1.3310556e-12 </wgt>
<wgt id='1743'> +1.3238000e-12 </wgt>
<wgt id='1744'> +1.3709568e-12 </wgt>
<wgt id='1745'> +1.3666526e-12 </wgt>
<wgt id='1746'> +1.3354829e-12 </wgt>
<wgt id='1747'> +1.4005702e-12 </wgt>
<wgt id='1748'> +1.3527643e-12 </wgt>
<wgt id='1749'> +1.3473522e-12 </wgt>
<wgt id='1750'> +1.3211783e-12 </wgt>
<wgt id='1751'> +1.3327741e-12 </wgt>
<wgt id='1752'> +1.3252864e-12 </wgt>
<wgt id='1753'> +1.3525471e-12 </wgt>
<wgt id='1754'> +1.3597397e-12 </wgt>
<wgt id='1755'> +1.3581326e-12 </wgt>
<wgt id='1756'> +1.3704338e-12 </wgt>
<wgt id='1757'> +1.3681080e-12 </wgt>
<wgt id='1758'> +1.3909114e-12 </wgt>
<wgt id='1759'> +1.3729522e-12 </wgt>
<wgt id='1760'> +1.3443668e-12 </wgt>
<wgt id='1761'> +1.3407907e-12 </wgt>
<wgt id='1762'> +1.3345842e-12 </wgt>
<wgt id='1763'> +1.3676566e-12 </wgt>
<wgt id='1764'> +1.3975692e-12 </wgt>
<wgt id='1765'> +1.3503640e-12 </wgt>
<wgt id='1766'> +1.3814208e-12 </wgt>
<wgt id='1767'> +1.3335258e-12 </wgt>
<wgt id='1768'> +1.3724220e-12 </wgt>
<wgt id='1769'> +1.3418396e-12 </wgt>
<wgt id='1770'> +1.3379371e-12 </wgt>
<wgt id='1771'> +1.4012838e-12 </wgt>
<wgt id='1772'> +1.3257903e-12 </wgt>
<wgt id='1773'> +1.3554620e-12 </wgt>
<wgt id='1774'> +1.3407232e-12 </wgt>
<wgt id='1775'> +1.3469883e-12 </wgt>
<wgt id='1776'> +1.4023289e-12 </wgt>
<wgt id='1777'> +1.2879009e-12 </wgt>
<wgt id='1778'> +1.3624996e-12 </wgt>
<wgt id='1779'> +1.3327260e-12 </wgt>
<wgt id='1780'> +1.3460420e-12 </wgt>
<wgt id='1781'> +1.3728436e-12 </wgt>
<wgt id='1782'> +1.3397327e-12 </wgt>
<wgt id='1783'> +1.3506979e-12 </wgt>
<wgt id='1784'> +1.3414994e-12 </wgt>
<wgt id='1785'> +1.3616816e-12 </wgt>
<wgt id='1786'> +1.3326644e-12 </wgt>
<wgt id='1787'> +1.4324381e-12 </wgt>
<wgt id='1788'> +1.3285331e-12 </wgt>
<wgt id='1789'> +1.4280787e-12 </wgt>
<wgt id='1790'> +1.3424625e-12 </wgt>
<wgt id='1791'> +1.3297802e-12 </wgt>
<wgt id='1792'> +1.3300726e-12 </wgt>
<wgt id='1793'> +1.3271342e-12 </wgt>
<wgt id='1794'> +1.3670779e-12 </wgt>
<wgt id='1795'> +1.3559026e-12 </wgt>
<wgt id='1796'> +1.3058919e-12 </wgt>
<wgt id='1797'> +1.3439583e-12 </wgt>
<wgt id='1798'> +1.3431317e-12 </wgt>
<wgt id='1799'> +1.3280247e-12 </wgt>
<wgt id='1800'> +1.3673222e-12 </wgt>
<wgt id='1801'> +1.3450287e-12 </wgt>
<wgt id='1802'> +1.3022638e-12 </wgt>
<wgt id='1803'> +1.3506174e-12 </wgt>
<wgt id='1804'> +1.3589387e-12 </wgt>
<wgt id='1805'> +1.3109904e-12 </wgt>
<wgt id='1806'> +1.3134868e-12 </wgt>
<wgt id='1807'> +1.3195302e-12 </wgt>
<wgt id='1808'> +1.3217282e-12 </wgt>
<wgt id='1809'> +1.3222466e-12 </wgt>
<wgt id='1810'> +1.3143311e-12 </wgt>
<wgt id='1811'> +1.3587882e-12 </wgt>
<wgt id='1812'> +1.3229557e-12 </wgt>
<wgt id='1813'> +1.2671897e-12 </wgt>
<wgt id='1814'> +1.7004429e-12 </wgt>
<wgt id='1815'> +2.0654434e-12 </wgt>
<wgt id='1816'> +1.3467201e-12 </wgt>
<wgt id='1817'> +1.3309346e-12 </wgt>
<wgt id='1818'> +1.3009065e-12 </wgt>
<wgt id='1819'> +1.3784421e-12 </wgt>
<wgt id='1820'> +1.3575701e-12 </wgt>
<wgt id='1821'> +1.3901898e-12 </wgt>
<wgt id='1822'> +1.3697213e-12 </wgt>
<wgt id='1823'> +1.3055365e-12 </wgt>
<wgt id='1824'> +1.3226321e-12 </wgt>
<wgt id='1825'> +1.3406597e-12 </wgt>
<wgt id='1826'> +1.3930811e-12 </wgt>
<wgt id='1827'> +1.3469275e-12 </wgt>
<wgt id='1828'> +1.3656944e-12 </wgt>
<wgt id='1829'> +1.3545990e-12 </wgt>
<wgt id='1830'> +1.3909271e-12 </wgt>
<wgt id='1831'> +1.3281081e-12 </wgt>
<wgt id='1832'> +1.2859860e-12 </wgt>
<wgt id='1833'> +1.3220499e-12 </wgt>
<wgt id='1834'> +1.2865541e-12 </wgt>
<wgt id='1835'> +1.3486604e-12 </wgt>
<wgt id='1836'> +1.2857769e-12 </wgt>
<wgt id='1837'> +1.4117107e-12 </wgt>
<wgt id='1838'> +1.3195087e-12 </wgt>
<wgt id='1839'> +1.3730123e-12 </wgt>
<wgt id='1840'> +1.3883680e-12 </wgt>
<wgt id='1841'> +1.3419575e-12 </wgt>
<wgt id='1842'> +1.3570024e-12 </wgt>
<wgt id='1843'> +1.2741528e-12 </wgt>
<wgt id='1844'> +1.3886442e-12 </wgt>
<wgt id='1845'> +1.3310556e-12 </wgt>
<wgt id='1846'> +1.3238000e-12 </wgt>
<wgt id='1847'> +1.3709568e-12 </wgt>
<wgt id='1848'> +1.3666526e-12 </wgt>
<wgt id='1849'> +1.3354829e-12 </wgt>
<wgt id='1850'> +1.4005702e-12 </wgt>
<wgt id='1851'> +1.3527643e-12 </wgt>
<wgt id='1852'> +1.3473522e-12 </wgt>
<wgt id='1853'> +1.3211783e-12 </wgt>
<wgt id='1854'> +1.3327741e-12 </wgt>
<wgt id='1855'> +1.3252864e-12 </wgt>
<wgt id='1856'> +1.3525471e-12 </wgt>
<wgt id='1857'> +1.3597397e-12 </wgt>
<wgt id='1858'> +1.3581326e-12 </wgt>
<wgt id='1859'> +1.3704338e-12 </wgt>
<wgt id='1860'> +1.3681080e-12 </wgt>
<wgt id='1861'> +1.3909114e-12 </wgt>
<wgt id='1862'> +1.3729522e-12 </wgt>
<wgt id='1863'> +1.3443668e-12 </wgt>
<wgt id='1864'> +1.3407907e-12 </wgt>
<wgt id='1865'> +1.3345842e-12 </wgt>
<wgt id='1866'> +1.3676566e-12 </wgt>
<wgt id='1867'> +1.3975692e-12 </wgt>
<wgt id='1868'> +1.3503640e-12 </wgt>
<wgt id='1869'> +1.3814208e-12 </wgt>
<wgt id='1870'> +1.3335258e-12 </wgt>
<wgt id='1871'> +1.3724220e-12 </wgt>
<wgt id='1872'> +1.3418396e-12 </wgt>
<wgt id='1873'> +1.3379371e-12 </wgt>
<wgt id='1874'> +1.4012838e-12 </wgt>
<wgt id='1875'> +1.3257903e-12 </wgt>
<wgt id='1876'> +1.3554620e-12 </wgt>
<wgt id='1877'> +1.3407232e-12 </wgt>
<wgt id='1878'> +1.3469883e-12 </wgt>
<wgt id='1879'> +1.4023289e-12 </wgt>
<wgt id='1880'> +1.2879009e-12 </wgt>
<wgt id='1881'> +1.3624996e-12 </wgt>
<wgt id='1882'> +1.3327260e-12 </wgt>
<wgt id='1883'> +1.3460420e-12 </wgt>
<wgt id='1884'> +1.3728436e-12 </wgt>
<wgt id='1885'> +1.3397327e-12 </wgt>
<wgt id='1886'> +1.3506979e-12 </wgt>
<wgt id='1887'> +1.3414994e-12 </wgt>
<wgt id='1888'> +1.3616816e-12 </wgt>
<wgt id='1889'> +1.3326644e-12 </wgt>
<wgt id='1890'> +1.4324381e-12 </wgt>
<wgt id='1891'> +1.3285331e-12 </wgt>
<wgt id='1892'> +1.4280787e-12 </wgt>
<wgt id='1893'> +1.3424625e-12 </wgt>
<wgt id='1894'> +1.3297802e-12 </wgt>
<wgt id='1895'> +1.3300726e-12 </wgt>
<wgt id='1896'> +1.3271342e-12 </wgt>
<wgt id='1897'> +1.3670779e-12 </wgt>
<wgt id='1898'> +1.3559026e-12 </wgt>
<wgt id='1899'> +1.3058919e-12 </wgt>
<wgt id='1900'> +1.3439583e-12 </wgt>
<wgt id='1901'> +1.3431317e-12 </wgt>
<wgt id='1902'> +1.3280247e-12 </wgt>
<wgt id='1903'> +1.3673222e-12 </wgt>
<wgt id='1904'> +1.3450287e-12 </wgt>
<wgt id='1905'> +1.3022638e-12 </wgt>
<wgt id='1906'> +1.3506174e-12 </wgt>
<wgt id='1907'> +1.3589387e-12 </wgt>
<wgt id='1908'> +1.3109904e-12 </wgt>
<wgt id='1909'> +1.3134868e-12 </wgt>
<wgt id='1910'> +1.3195302e-12 </wgt>
<wgt id='1911'> +1.3217282e-12 </wgt>
<wgt id='1912'> +1.3222466e-12 </wgt>
<wgt id='1913'> +1.3143311e-12 </wgt>
<wgt id='1914'> +1.3587882e-12 </wgt>
<wgt id='1915'> +1.3229557e-12 </wgt>
<wgt id='1916'> +1.2671897e-12 </wgt>
<wgt id='1917'> +1.3396868e-12 </wgt>
<wgt id='1918'> +1.3629733e-12 </wgt>
<wgt id='1919'> +1.3107650e-12 </wgt>
</rwgt>
</event>
<event>
 9      1 +1.5538000e-12 4.77191000e+01 7.81860800e-03 1.32294400e-01
        2 -1    0    0  502    0 +0.0000000000e+00 +0.0000000000e+00 +1.9100387519e+02 1.9100387519e+02 0.0000000000e+00 0.0000e+00 1.0000e+00
       -2 -1    0    0    0  501 -0.0000000000e+00 -0.0000000000e+00 -1.2247610099e+01 1.2247610099e+01 0.0000000000e+00 0.0000e+00 -1.0000e+00
     1023  2    1    2    0    0 -4.2993540268e+01 -1.4270299506e+01 +1.1940988537e+02 1.2859173215e+02 1.5000896643e+01 0.0000e+00 0.0000e+00
  1000023  2    3    3    0    0 -2.0552932758e+01 -1.1923097474e+01 +5.5143144129e+01 6.0296020332e+01 5.5009476546e+00 0.0000e+00 0.0000e+00
       21  1    1    2  502  501 +4.2993540268e+01 +1.4270299506e+01 +5.9346379715e+01 7.4659753134e+01 0.0000000000e+00 0.0000e+00 -1.0000e+00
  1000022  1    4    4    0    0 -1.8821078831e+01 -1.0858429574e+01 +4.9317124478e+01 5.4123167571e+01 5.0000000000e+00 0.0000e+00 1.0000e+00
      -11  1    4    4    0    0 -9.6327279932e-01 -6.1361180153e-01 +3.5187723805e+00 3.6994828363e+00 5.1100000000e-04 0.0000e+00 -1.0000e+00
       11  1    4    4    0    0 -7.6858112740e-01 -4.5105609869e-01 +2.3072472710e+00 2.4733699247e+00 5.1100000000e-04 0.0000e+00 1.0000e+00
  1000022  1    3    3    0    0 -2.2440607510e+01 -2.3472020322e+00 +6.4266741244e+01 6.8295711819e+01 5.0000000000e+00 0.0000e+00 1.0000e+00
<mgrwt>
<rscale>  1 0.47719104E+02</rscale>
<asrwt>0</asrwt>
<pdfrwt beam="1">  1        2 0.29385209E-01 0.47719104E+02</pdfrwt>
<pdfrwt beam="2">  1       -2 0.18842478E-02 0.47719104E+02</pdfrwt>
<totfact> 0.14166577E+05</totfact>
</mgrwt>
<rwgt>
<wgt id='1001'> +1.5538000e-12 </wgt>
<wgt id='1002'> +1.5426223e-12 </wgt>
<wgt id='1003'> +1.5423474e-12 </wgt>
<wgt id='1004'> +1.5539850e-12 </wgt>
<wgt id='1005'> +1.5412102e-12 </wgt>
<wgt id='1006'> +1.3755234e-12 </wgt>
<wgt id='1007'> +1.3838749e-12 </wgt>
<wgt id='1008'> +1.3838876e-12 </wgt>
<wgt id='1009'> +1.3747774e-12 </wgt>
<wgt id='1010'> +1.3839023e-12 </wgt>
<wgt id='1011'> +1.7875417e-12 </wgt>
<wgt id='1012'> +1.7441300e-12 </wgt>
<wgt id='1013'> +1.7433985e-12 </wgt>
<wgt id='1014'> +1.7893146e-12 </wgt>
<wgt id='1015'> +1.7404244e-12 </wgt>
<wgt id='1016'> +1.7413764e-12 </wgt>
<wgt id='1017'> +1.6942754e-12 </wgt>
<wgt id='1018'> +1.6935039e-12 </wgt>
<wgt id='1019'> +1.7433985e-12 </wgt>
<wgt id='1020'> +1.6903884e-12 </wgt>
<wgt id='1021'> +1.5415781e-12 </wgt>
<wgt id='1022'> +1.5199217e-12 </wgt>
<wgt id='1023'> +1.5195144e-12 </wgt>
<wgt id='1024'> +1.5423474e-12 </wgt>
<wgt id='1025'> +1.5178542e-12 </wgt>
<wgt id='1026'> +2.0033357e-12 </wgt>
<wgt id='1027'> +1.9155930e-12 </wgt>
<wgt id='1028'> +1.9142589e-12 </wgt>
<wgt id='1029'> +2.0074121e-12 </wgt>
<wgt id='1030'> +1.9088852e-12 </wgt>
<wgt id='1031'> +1.3456309e-12 </wgt>
<wgt id='1032'> +1.3744991e-12 </wgt>
<wgt id='1033'> +1.3747774e-12 </wgt>
<wgt id='1034'> +1.3438423e-12 </wgt>
<wgt id='1035'> +1.3758638e-12 </wgt>
<wgt id='1036'> +1.1912387e-12 </wgt>
<wgt id='1037'> +1.2330528e-12 </wgt>
<wgt id='1038'> +1.2335336e-12 </wgt>
<wgt id='1039'> +1.1888686e-12 </wgt>
<wgt id='1040'> +1.2354325e-12 </wgt>
<wgt id='1041'> +1.5480572e-12 </wgt>
<wgt id='1042'> +1.5540454e-12 </wgt>
<wgt id='1043'> +1.5539850e-12 </wgt>
<wgt id='1044'> +1.5473486e-12 </wgt>
<wgt id='1045'> +1.5537057e-12 </wgt>
<wgt id='1046'> +1.5538000e-12 </wgt>
<wgt id='1047'> +1.6452525e-12 </wgt>
<wgt id='1048'> +1.5334068e-12 </wgt>
<wgt id='1049'> +1.5250067e-12 </wgt>
<wgt id='1050'> +1.5157216e-12 </wgt>
<wgt id='1051'> +1.5234031e-12 </wgt>
<wgt id='1052'> +1.5801460e-12 </wgt>
<wgt id='1053'> +1.5564056e-12 </wgt>
<wgt id='1054'> +1.5363062e-12 </wgt>
<wgt id='1055'> +1.4922042e-12 </wgt>
<wgt id='1056'> +1.5201390e-12 </wgt>
<wgt id='1057'> +1.5710074e-12 </wgt>
<wgt id='1058'> +1.5048592e-12 </wgt>
<wgt id='1059'> +1.5471506e-12 </wgt>
<wgt id='1060'> +1.5779360e-12 </wgt>
<wgt id='1061'> +1.5659297e-12 </wgt>
<wgt id='1062'> +1.5642919e-12 </wgt>
<wgt id='1063'> +1.5907337e-12 </wgt>
<wgt id='1064'> +1.5366907e-12 </wgt>
<wgt id='1065'> +1.5680718e-12 </wgt>
<wgt id='1066'> +1.5081342e-12 </wgt>
<wgt id='1067'> +1.5029466e-12 </wgt>
<wgt id='1068'> +1.5567684e-12 </wgt>
<wgt id='1069'> +1.5604201e-12 </wgt>
<wgt id='1070'> +1.5511870e-12 </wgt>
<wgt id='1071'> +1.5224789e-12 </wgt>
<wgt id='1072'> +1.6269426e-12 </wgt>
<wgt id='1073'> +1.5944009e-12 </wgt>
<wgt id='1074'> +1.5392705e-12 </wgt>
<wgt id='1075'> +1.5982503e-12 </wgt>
<wgt id='1076'> +1.5517755e-12 </wgt>
<wgt id='1077'> +1.5730528e-12 </wgt>
<wgt id='1078'> +1.5066539e-12 </wgt>
<wgt id='1079'> +1.5518904e-12 </wgt>
<wgt id='1080'> +1.5426446e-12 </wgt>
<wgt id='1081'> +1.5880132e-12 </wgt>
<wgt id='1082'> +1.5413522e-12 </wgt>
<wgt id='1083'> +1.5453232e-12 </wgt>
<wgt id='1084'> +1.5426357e-12 </wgt>
<wgt id='1085'> +1.5374370e-12 </wgt>
<wgt id='1086'> +1.5902165e-12 </wgt>
<wgt id='1087'> +1.5666878e-12 </wgt>
<wgt id='1088'> +1.5664077e-12 </wgt>
<wgt id='1089'> +1.5675424e-12 </wgt>
<wgt id='1090'> +1.5628458e-12 </wgt>
<wgt id='1091'> +1.5595903e-12 </wgt>
<wgt id='1092'> +1.6092308e-12 </wgt>
<wgt id='1093'> +1.5668274e-12 </wgt>
<wgt id='1094'> +1.5810803e-12 </wgt>
<wgt id='1095'> +1.5831420e-12 </wgt>
<wgt id='1096'> +1.5815476e-12 </wgt>
<wgt id='1097'> +1.5420123e-12 </wgt>
<wgt id='1098'> +1.5143381e-12 </wgt>
<wgt id='1099'> +1.5802075e-12 </wgt>
<wgt id='1100'> +1.5794268e-12 </wgt>
<wgt id='1101'> +1.6242613e-12 </wgt>
<wgt id='1102'> +1.5242822e-12 </wgt>
<wgt id='1103'> +1.5805440e-12 </wgt>
<wgt id='1104'> +1.5150423e-12 </wgt>
<wgt id='1105'> +1.5446699e-12 </wgt>
<wgt id='1106'> +1.5848942e-12 </wgt>
<wgt id='1107'> +1.5517571e-12 </wgt>
<wgt id='1108'> +1.5524978e-12 </wgt>
<wgt id='1109'> +1.5783248e-12 </wgt>
<wgt id='1110'> +1.5575104e-12 </wgt>
<wgt id='1111'> +1.5649439e-12 </wgt>
<wgt id='1112'> +1.5703818e-12 </wgt>
<wgt id='1113'> +1.5996248e-12 </wgt>
<wgt id='1114'> +1.5656696e-12 </wgt>
<wgt id='1115'> +1.5677288e-12 </wgt>
<wgt id='1116'> +1.5505686e-12 </wgt>
<wgt id='1117'> +1.5203961e-12 </wgt>
<wgt id='1118'> +1.6098994e-12 </wgt>
<wgt id='1119'> +1.4400630e-12 </wgt>
<wgt id='1120'> +1.5085404e-12 </wgt>
<wgt id='1121'> +1.5393424e-12 </wgt>
<wgt id='1122'> +1.6245716e-12 </wgt>
<wgt id='1123'> +1.5036949e-12 </wgt>
<wgt id='1124'> +1.5505509e-12 </wgt>
<wgt id='1125'> +1.5416039e-12 </wgt>
<wgt id='1126'> +1.5944448e-12 </wgt>
<wgt id='1127'> +1.5345493e-12 </wgt>
<wgt id='1128'> +1.5642919e-12 </wgt>
<wgt id='1129'> +1.5602859e-12 </wgt>
<wgt id='1130'> +1.5337854e-12 </wgt>
<wgt id='1131'> +1.5375252e-12 </wgt>
<wgt id='1132'> +1.5731205e-12 </wgt>
<wgt id='1133'> +1.5222021e-12 </wgt>
<wgt id='1134'> +1.5703088e-12 </wgt>
<wgt id='1135'> +1.4897940e-12 </wgt>
<wgt id='1136'> +1.5281935e-12 </wgt>
<wgt id='1137'> +1.5635035e-12 </wgt>
<wgt id='1138'> +1.5418787e-12 </wgt>
<wgt id='1139'> +1.5386985e-12 </wgt>
<wgt id='1140'> +1.5604739e-12 </wgt>
<wgt id='1141'> +1.5123473e-12 </wgt>
<wgt id='1142'> +1.5419188e-12 </wgt>
<wgt id='1143'> +1.5783501e-12 </wgt>
<wgt id='1144'> +1.5379547e-12 </wgt>
<wgt id='1145'> +1.5584575e-12 </wgt>
<wgt id='1146'> +1.5306398e-12 </wgt>
<wgt id='1147'> +1.2220997e-12 </wgt>
<wgt id='1148'> +1.2476860e-12 </wgt>
<wgt id='1149'> +1.3358078e-12 </wgt>
<wgt id='1150'> +1.2512834e-12 </wgt>
<wgt id='1151'> +1.1432851e-12 </wgt>
<wgt id='1152'> +1.3797953e-12 </wgt>
<wgt id='1153'> +1.3746499e-12 </wgt>
<wgt id='1154'> +1.3827413e-12 </wgt>
<wgt id='1155'> +1.3768096e-12 </wgt>
<wgt id='1156'> +1.3813167e-12 </wgt>
<wgt id='1157'> +1.3867482e-12 </wgt>
<wgt id='1158'> +1.3704175e-12 </wgt>
<wgt id='1159'> +1.3856791e-12 </wgt>
<wgt id='1160'> +1.3760574e-12 </wgt>
<wgt id='1161'> +1.3805037e-12 </wgt>
<wgt id='1162'> +1.3792643e-12 </wgt>
<wgt id='1163'> +1.3822823e-12 </wgt>
<wgt id='1164'> +1.3773371e-12 </wgt>
<wgt id='1165'> +1.3801924e-12 </wgt>
<wgt id='1166'> +1.3792291e-12 </wgt>
<wgt id='1167'> +1.3847955e-12 </wgt>
<wgt id='1168'> +1.3730337e-12 </wgt>
<wgt id='1169'> +1.3799958e-12 </wgt>
<wgt id='1170'> +1.3796206e-12 </wgt>
<wgt id='1171'> +1.3742004e-12 </wgt>
<wgt id='1172'> +1.3864807e-12 </wgt>
<wgt id='1173'> +1.3706013e-12 </wgt>
<wgt id='1174'> +1.3883218e-12 </wgt>
<wgt id='1175'> +1.3790985e-12 </wgt>
<wgt id='1176'> +1.3798694e-12 </wgt>
<wgt id='1177'> +1.3777208e-12 </wgt>
<wgt id='1178'> +1.3856256e-12 </wgt>
<wgt id='1179'> +1.3829641e-12 </wgt>
<wgt id='1180'> +1.3723969e-12 </wgt>
<wgt id='1181'> +1.3794231e-12 </wgt>
<wgt id='1182'> +1.3794300e-12 </wgt>
<wgt id='1183'> +1.3737671e-12 </wgt>
<wgt id='1184'> +1.3802198e-12 </wgt>
<wgt id='1185'> +1.3700970e-12 </wgt>
<wgt id='1186'> +1.3852790e-12 </wgt>
<wgt id='1187'> +1.3800139e-12 </wgt>
<wgt id='1188'> +1.3797564e-12 </wgt>
<wgt id='1189'> +1.3763008e-12 </wgt>
<wgt id='1190'> +1.3715254e-12 </wgt>
<wgt id='1191'> +1.3826494e-12 </wgt>
<wgt id='1192'> +1.3775995e-12 </wgt>
<wgt id='1193'> +1.2427201e-12 </wgt>
<wgt id='1194'> +1.2401915e-12 </wgt>
<wgt id='1195'> +1.2447292e-12 </wgt>
<wgt id='1196'> +1.2502479e-12 </wgt>
<wgt id='1197'> +1.2343814e-12 </wgt>
<wgt id='1198'> +1.2403343e-12 </wgt>
<wgt id='1199'> +1.2462263e-12 </wgt>
<wgt id='1200'> +1.2427197e-12 </wgt>
<wgt id='1201'> +1.2427766e-12 </wgt>
<wgt id='1202'> +1.2428201e-12 </wgt>
<wgt id='1203'> +1.2424958e-12 </wgt>
<wgt id='1204'> +1.2430344e-12 </wgt>
<wgt id='1205'> +1.2424868e-12 </wgt>
<wgt id='1206'> +1.2448260e-12 </wgt>
<wgt id='1207'> +1.2398261e-12 </wgt>
<wgt id='1208'> +1.2411417e-12 </wgt>
<wgt id='1209'> +1.2432898e-12 </wgt>
<wgt id='1210'> +1.2418805e-12 </wgt>
<wgt id='1211'> +1.2373729e-12 </wgt>
<wgt id='1212'> +1.2459344e-12 </wgt>
<wgt id='1213'> +1.2396250e-12 </wgt>
<wgt id='1214'> +1.2255665e-12 </wgt>
<wgt id='1215'> +1.2714359e-12 </wgt>
<wgt id='1216'> +1.2446080e-12 </wgt>
<wgt id='1217'> +1.2410696e-12 </wgt>
<wgt id='1218'> +1.2434199e-12 </wgt>
<wgt id='1219'> +1.2421454e-12 </wgt>
<wgt id='1220'> +1.2461036e-12 </wgt>
<wgt id='1221'> +1.2422372e-12 </wgt>
<wgt id='1222'> +1.2466430e-12 </wgt>
<wgt id='1223'> +1.2337895e-12 </wgt>
<wgt id='1224'> +1.2459447e-12 </wgt>
<wgt id='1225'> +1.2414879e-12 </wgt>
<wgt id='1226'> +1.2389944e-12 </wgt>
<wgt id='1227'> +1.2453995e-12 </wgt>
<wgt id='1228'> +1.2315627e-12 </wgt>
<wgt id='1229'> +1.2474803e-12 </wgt>
<wgt id='1230'> +1.2369671e-12 </wgt>
<wgt id='1231'> +1.2444126e-12 </wgt>
<wgt id='1232'> +1.2413067e-12 </wgt>
<wgt id='1233'> +1.2430203e-12 </wgt>
<wgt id='1234'> +1.2427201e-12 </wgt>
<wgt id='1235'> +1.2339575e-12 </wgt>
<wgt id='1236'> +1.2372317e-12 </wgt>
<wgt id='1237'> +1.2402675e-12 </wgt>
<wgt id='1238'> +1.2450690e-12 </wgt>
<wgt id='1239'> +1.2470979e-12 </wgt>
<wgt id='1240'> +1.2490294e-12 </wgt>
<wgt id='1241'> +1.2638240e-12 </wgt>
<wgt id='1242'> +1.2590400e-12 </wgt>
<wgt id='1243'> +1.2685214e-12 </wgt>
<wgt id='1244'> +1.2587354e-12 </wgt>
<wgt id='1245'> +1.2675051e-12 </wgt>
<wgt id='1246'> +1.2616724e-12 </wgt>
<wgt id='1247'> +1.2656624e-12 </wgt>
<wgt id='1248'> +1.2637474e-12 </wgt>
<wgt id='1249'> +1.2638700e-12 </wgt>
<wgt id='1250'> +1.2698535e-12 </wgt>
<wgt id='1251'> +1.2594962e-12 </wgt>
<wgt id='1252'> +1.2617580e-12 </wgt>
<wgt id='1253'> +1.2654313e-12 </wgt>
<wgt id='1254'> +1.2638810e-12 </wgt>
<wgt id='1255'> +1.2637034e-12 </wgt>
<wgt id='1256'> +1.2643619e-12 </wgt>
<wgt id='1257'> +1.2623442e-12 </wgt>
<wgt id='1258'> +1.2839750e-12 </wgt>
<wgt id='1259'> +1.2457788e-12 </wgt>
<wgt id='1260'> +1.2655153e-12 </wgt>
<wgt id='1261'> +1.2619270e-12 </wgt>
<wgt id='1262'> +1.2598179e-12 </wgt>
<wgt id='1263'> +1.2653155e-12 </wgt>
<wgt id='1264'> +1.2625425e-12 </wgt>
<wgt id='1265'> +1.2642195e-12 </wgt>
<wgt id='1266'> +1.2570536e-12 </wgt>
<wgt id='1267'> +1.2689363e-12 </wgt>
<wgt id='1268'> +1.2658876e-12 </wgt>
<wgt id='1269'> +1.2632409e-12 </wgt>
<wgt id='1270'> +1.2605872e-12 </wgt>
<wgt id='1271'> +1.2590715e-12 </wgt>
<wgt id='1272'> +1.2639646e-12 </wgt>
<wgt id='1273'> +1.2633847e-12 </wgt>
<wgt id='1274'> +1.2666622e-12 </wgt>
<wgt id='1275'> +1.2587116e-12 </wgt>
<wgt id='1276'> +1.2724681e-12 </wgt>
<wgt id='1277'> +1.2520792e-12 </wgt>
<wgt id='1278'> +1.2647369e-12 </wgt>
<wgt id='1279'> +1.2630535e-12 </wgt>
<wgt id='1280'> +1.2643272e-12 </wgt>
<wgt id='1281'> +1.2611743e-12 </wgt>
<wgt id='1282'> +1.2638240e-12 </wgt>
<wgt id='1283'> +1.2543782e-12 </wgt>
<wgt id='1284'> +1.2580606e-12 </wgt>
<wgt id='1285'> +1.2611750e-12 </wgt>
<wgt id='1286'> +1.2662841e-12 </wgt>
<wgt id='1287'> +1.2682805e-12 </wgt>
<wgt id='1288'> +1.2697246e-12 </wgt>
<wgt id='1289'> +1.2927379e-12 </wgt>
<wgt id='1290'> +1.2936614e-12 </wgt>
<wgt id='1291'> +1.2916160e-12 </wgt>
<wgt id='1292'> +1.2858687e-12 </wgt>
<wgt id='1293'> +1.2976552e-12 </wgt>
<wgt id='1294'> +1.2885242e-12 </wgt>
<wgt id='1295'> +1.2967913e-12 </wgt>
<wgt id='1296'> +1.2892428e-12 </wgt>
<wgt id='1297'> +1.2969586e-12 </wgt>
<wgt id='1298'> +1.2924737e-12 </wgt>
<wgt id='1299'> +1.2928623e-12 </wgt>
<wgt id='1300'> +1.2938937e-12 </wgt>
<wgt id='1301'> +1.2904002e-12 </wgt>
<wgt id='1302'> +1.2906755e-12 </wgt>
<wgt id='1303'> +1.2954834e-12 </wgt>
<wgt id='1304'> +1.2928167e-12 </wgt>
<wgt id='1305'> +1.2926547e-12 </wgt>
<wgt id='1306'> +1.2947080e-12 </wgt>
<wgt id='1307'> +1.2905084e-12 </wgt>
<wgt id='1308'> +1.2983260e-12 </wgt>
<wgt id='1309'> +1.2883669e-12 </wgt>
<wgt id='1310'> +1.2921653e-12 </wgt>
<wgt id='1311'> +1.2933164e-12 </wgt>
<wgt id='1312'> +1.3007408e-12 </wgt>
<wgt id='1313'> +1.2845373e-12 </wgt>
<wgt id='1314'> +1.2845607e-12 </wgt>
<wgt id='1315'> +1.2979693e-12 </wgt>
<wgt id='1316'> +1.3006697e-12 </wgt>
<wgt id='1317'> +1.2900109e-12 </wgt>
<wgt id='1318'> +1.3007348e-12 </wgt>
<wgt id='1319'> +1.2828166e-12 </wgt>
<wgt id='1320'> +1.2992669e-12 </wgt>
<wgt id='1321'> +1.2870413e-12 </wgt>
<wgt id='1322'> +1.2904298e-12 </wgt>
<wgt id='1323'> +1.2955361e-12 </wgt>
<wgt id='1324'> +1.2861188e-12 </wgt>
<wgt id='1325'> +1.3115628e-12 </wgt>
<wgt id='1326'> +1.2889254e-12 </wgt>
<wgt id='1327'> +1.2971794e-12 </wgt>
<wgt id='1328'> +1.2944814e-12 </wgt>
<wgt id='1329'> +1.2907605e-12 </wgt>
<wgt id='1330'> +1.2712784e-12 </wgt>
<wgt id='1331'> +1.3073555e-12 </wgt>
<wgt id='1332'> +1.3033859e-12 </wgt>
<wgt id='1333'> +1.2821077e-12 </wgt>
<wgt id='1334'> +1.2871496e-12 </wgt>
<wgt id='1335'> +1.3070251e-12 </wgt>
<wgt id='1336'> +1.2927265e-12 </wgt>
<wgt id='1337'> +1.2890552e-12 </wgt>
<wgt id='1338'> +1.2899779e-12 </wgt>
<wgt id='1339'> +1.2930587e-12 </wgt>
<wgt id='1340'> +1.2494018e-12 </wgt>
<wgt id='1341'> +1.2505155e-12 </wgt>
<wgt id='1342'> +1.2482665e-12 </wgt>
<wgt id='1343'> +1.2424520e-12 </wgt>
<wgt id='1344'> +1.2541112e-12 </wgt>
<wgt id='1345'> +1.2453027e-12 </wgt>
<wgt id='1346'> +1.2532507e-12 </wgt>
<wgt id='1347'> +1.2462988e-12 </wgt>
<wgt id='1348'> +1.2528890e-12 </wgt>
<wgt id='1349'> +1.2487680e-12 </wgt>
<wgt id='1350'> +1.2499812e-12 </wgt>
<wgt id='1351'> +1.2503466e-12 </wgt>
<wgt id='1352'> +1.2474035e-12 </wgt>
<wgt id='1353'> +1.2470505e-12 </wgt>
<wgt id='1354'> +1.2535535e-12 </wgt>
<wgt id='1355'> +1.2501211e-12 </wgt>
<wgt id='1356'> +1.2489898e-12 </wgt>
<wgt id='1357'> +1.2536476e-12 </wgt>
<wgt id='1358'> +1.2445507e-12 </wgt>
<wgt id='1359'> +1.2547080e-12 </wgt>
<wgt id='1360'> +1.2447111e-12 </wgt>
<wgt id='1361'> +1.2493614e-12 </wgt>
<wgt id='1362'> +1.2495927e-12 </wgt>
<wgt id='1363'> +1.2616865e-12 </wgt>
<wgt id='1364'> +1.2412702e-12 </wgt>
<wgt id='1365'> +1.2495998e-12 </wgt>
<wgt id='1366'> +1.2441628e-12 </wgt>
<wgt id='1367'> +1.2568184e-12 </wgt>
<wgt id='1368'> +1.2468664e-12 </wgt>
<wgt id='1369'> +1.2564252e-12 </wgt>
<wgt id='1370'> +1.2408213e-12 </wgt>
<wgt id='1371'> +1.2537651e-12 </wgt>
<wgt id='1372'> +1.2440921e-12 </wgt>
<wgt id='1373'> +1.2451050e-12 </wgt>
<wgt id='1374'> +1.2534287e-12 </wgt>
<wgt id='1375'> +1.2434462e-12 </wgt>
<wgt id='1376'> +1.2679582e-12 </wgt>
<wgt id='1377'> +1.2456689e-12 </wgt>
<wgt id='1378'> +1.2539507e-12 </wgt>
<wgt id='1379'> +1.2507176e-12 </wgt>
<wgt id='1380'> +1.2476951e-12 </wgt>
<wgt id='1381'> +1.2266279e-12 </wgt>
<wgt id='1382'> +1.2632747e-12 </wgt>
<wgt id='1383'> +1.2610122e-12 </wgt>
<wgt id='1384'> +1.2374553e-12 </wgt>
<wgt id='1385'> +1.2437868e-12 </wgt>
<wgt id='1386'> +1.2629612e-12 </wgt>
<wgt id='1387'> +1.2492724e-12 </wgt>
<wgt id='1388'> +1.2441842e-12 </wgt>
<wgt id='1389'> +1.2459334e-12 </wgt>
<wgt id='1390'> +1.2497330e-12 </wgt>
<wgt id='1391'> +1.2426851e-12 </wgt>
<wgt id='1392'> +1.1831045e-12 </wgt>
<wgt id='1393'> +1.2020819e-12 </wgt>
<wgt id='1394'> +1.2225693e-12 </wgt>
<wgt id='1395'> +1.2617745e-12 </wgt>
<wgt id='1396'> +1.2429848e-12 </wgt>
<wgt id='1397'> +1.2132502e-12 </wgt>
<wgt id='1398'> +1.2200704e-12 </wgt>
<wgt id='1399'> +1.2253614e-12 </wgt>
<wgt id='1400'> +1.2307915e-12 </wgt>
<wgt id='1401'> +1.2370458e-12 </wgt>
<wgt id='1402'> +1.2476175e-12 </wgt>
<wgt id='1403'> +1.2523605e-12 </wgt>
<wgt id='1404'> +1.2562441e-12 </wgt>
<wgt id='1405'> +1.2429848e-12 </wgt>
<wgt id='1406'> +1.2394876e-12 </wgt>
<wgt id='1407'> +1.2415475e-12 </wgt>
<wgt id='1408'> +1.2445307e-12 </wgt>
<wgt id='1409'> +1.2460818e-12 </wgt>
<wgt id='1410'> +1.2877496e-12 </wgt>
<wgt id='1411'> +1.2877801e-12 </wgt>
<wgt id='1412'> +1.2876548e-12 </wgt>
<wgt id='1413'> +1.2903987e-12 </wgt>
<wgt id='1414'> +1.2851492e-12 </wgt>
<wgt id='1415'> +1.2782371e-12 </wgt>
<wgt id='1416'> +1.2916017e-12 </wgt>
<wgt id='1417'> +1.2799754e-12 </wgt>
<wgt id='1418'> +1.2955378e-12 </wgt>
<wgt id='1419'> +1.2866255e-12 </wgt>
<wgt id='1420'> +1.2888873e-12 </wgt>
<wgt id='1421'> +1.2861733e-12 </wgt>
<wgt id='1422'> +1.2885339e-12 </wgt>
<wgt id='1423'> +1.2869688e-12 </wgt>
<wgt id='1424'> +1.2887693e-12 </wgt>
<wgt id='1425'> +1.2850242e-12 </wgt>
<wgt id='1426'> +1.2907575e-12 </wgt>
<wgt id='1427'> +1.2912344e-12 </wgt>
<wgt id='1428'> +1.2857066e-12 </wgt>
<wgt id='1429'> +1.2857853e-12 </wgt>
<wgt id='1430'> +1.2904007e-12 </wgt>
<wgt id='1431'> +1.2912996e-12 </wgt>
<wgt id='1432'> +1.2852710e-12 </wgt>
<wgt id='1433'> +1.2848210e-12 </wgt>
<wgt id='1434'> +1.2895765e-12 </wgt>
<wgt id='1435'> +1.2826984e-12 </wgt>
<wgt id='1436'> +1.2998967e-12 </wgt>
<wgt id='1437'> +1.2939853e-12 </wgt>
<wgt id='1438'> +1.2858518e-12 </wgt>
<wgt id='1439'> +1.2831745e-12 </wgt>
<wgt id='1440'> +1.2981589e-12 </wgt>
<wgt id='1441'> +1.2880569e-12 </wgt>
<wgt id='1442'> +1.2880469e-12 </wgt>
<wgt id='1443'> +1.2839166e-12 </wgt>
<wgt id='1444'> +1.2965198e-12 </wgt>
<wgt id='1445'> +1.3090604e-12 </wgt>
<wgt id='1446'> +1.2794364e-12 </wgt>
<wgt id='1447'> +1.2871291e-12 </wgt>
<wgt id='1448'> +1.2905175e-12 </wgt>
<wgt id='1449'> +1.2899717e-12 </wgt>
<wgt id='1450'> +1.2858531e-12 </wgt>
<wgt id='1451'> +1.2990921e-12 </wgt>
<wgt id='1452'> +1.2599529e-12 </wgt>
<wgt id='1453'> +1.2901664e-12 </wgt>
<wgt id='1454'> +1.2703270e-12 </wgt>
<wgt id='1455'> +1.2768199e-12 </wgt>
<wgt id='1456'> +1.2951119e-12 </wgt>
<wgt id='1457'> +1.2982379e-12 </wgt>
<wgt id='1458'> +1.2831683e-12 </wgt>
<wgt id='1459'> +1.2901879e-12 </wgt>
<wgt id='1460'> +1.2845710e-12 </wgt>
<wgt id='1461'> +1.2877496e-12 </wgt>
<wgt id='1462'> +1.2652470e-12 </wgt>
<wgt id='1463'> +1.3096457e-12 </wgt>
<wgt id='1464'> +1.2875038e-12 </wgt>
<wgt id='1465'> +1.2615849e-12 </wgt>
<wgt id='1466'> +1.2679084e-12 </wgt>
<wgt id='1467'> +1.2742969e-12 </wgt>
<wgt id='1468'> +1.2775444e-12 </wgt>
<wgt id='1469'> +1.2830646e-12 </wgt>
<wgt id='1470'> +1.2918152e-12 </wgt>
<wgt id='1471'> +1.2947887e-12 </wgt>
<wgt id='1472'> +1.2989650e-12 </wgt>
<wgt id='1473'> +1.2875038e-12 </wgt>
<wgt id='1474'> +1.2830820e-12 </wgt>
<wgt id='1475'> +1.2840756e-12 </wgt>
<wgt id='1476'> +1.2895772e-12 </wgt>
<wgt id='1477'> +1.2917059e-12 </wgt>
<wgt id='1478'> +1.2130399e-12 </wgt>
<wgt id='1479'> +1.2113451e-12 </wgt>
<wgt id='1480'> +1.2096618e-12 </wgt>
<wgt id='1481'> +1.2156230e-12 </wgt>
<wgt id='1482'> +1.2087397e-12 </wgt>
<wgt id='1483'> +1.1872759e-12 </wgt>
<wgt id='1484'> +1.2082392e-12 </wgt>
<wgt id='1485'> +1.2057463e-12 </wgt>
<wgt id='1486'> +1.2138836e-12 </wgt>
<wgt id='1487'> +1.2209125e-12 </wgt>
<wgt id='1488'> +1.2115981e-12 </wgt>
<wgt id='1489'> +1.2212468e-12 </wgt>
<wgt id='1490'> +1.2083873e-12 </wgt>
<wgt id='1491'> +1.2114421e-12 </wgt>
<wgt id='1492'> +1.2182713e-12 </wgt>
<wgt id='1493'> +1.2043714e-12 </wgt>
<wgt id='1494'> +1.2314616e-12 </wgt>
<wgt id='1495'> +1.1880387e-12 </wgt>
<wgt id='1496'> +1.2106365e-12 </wgt>
<wgt id='1497'> +1.2106695e-12 </wgt>
<wgt id='1498'> +1.2131264e-12 </wgt>
<wgt id='1499'> +1.2129432e-12 </wgt>
<wgt id='1500'> +1.2151923e-12 </wgt>
<wgt id='1501'> +1.2118638e-12 </wgt>
<wgt id='1502'> +1.2123563e-12 </wgt>
<wgt id='1503'> +1.2155309e-12 </wgt>
<wgt id='1504'> +1.2088346e-12 </wgt>
<wgt id='1505'> +1.2135264e-12 </wgt>
<wgt id='1506'> +1.2109039e-12 </wgt>
<wgt id='1507'> +1.2129303e-12 </wgt>
<wgt id='1508'> +1.2164908e-12 </wgt>
<wgt id='1509'> +1.3672257e-12 </wgt>
<wgt id='1510'> +1.3662830e-12 </wgt>
<wgt id='1511'> +1.3699466e-12 </wgt>
<wgt id='1512'> +1.3679156e-12 </wgt>
<wgt id='1513'> +1.3742346e-12 </wgt>
<wgt id='1514'> +1.3681614e-12 </wgt>
<wgt id='1515'> +1.3653272e-12 </wgt>
<wgt id='1516'> +1.3665825e-12 </wgt>
<wgt id='1517'> +1.3661470e-12 </wgt>
<wgt id='1518'> +1.3751142e-12 </wgt>
<wgt id='1519'> +1.3608998e-12 </wgt>
<wgt id='1520'> +1.3659890e-12 </wgt>
<wgt id='1521'> +1.3720259e-12 </wgt>
<wgt id='1522'> +1.3658503e-12 </wgt>
<wgt id='1523'> +1.3775656e-12 </wgt>
<wgt id='1524'> +1.3675475e-12 </wgt>
<wgt id='1525'> +1.3747400e-12 </wgt>
<wgt id='1526'> +1.3639833e-12 </wgt>
<wgt id='1527'> +1.3640824e-12 </wgt>
<wgt id='1528'> +1.3723580e-12 </wgt>
<wgt id='1529'> +1.3683444e-12 </wgt>
<wgt id='1530'> +1.3769414e-12 </wgt>
<wgt id='1531'> +1.3703620e-12 </wgt>
<wgt id='1532'> +1.3620876e-12 </wgt>
<wgt id='1533'> +1.3646382e-12 </wgt>
<wgt id='1534'> +1.3735184e-12 </wgt>
<wgt id='1535'> +1.3530014e-12 </wgt>
<wgt id='1536'> +1.3633874e-12 </wgt>
<wgt id='1537'> +1.3667969e-12 </wgt>
<wgt id='1538'> +1.3615535e-12 </wgt>
<wgt id='1539'> +1.3744116e-12 </wgt>
<wgt id='1540'> +1.3697693e-12 </wgt>
<wgt id='1541'> +1.3651109e-12 </wgt>
<wgt id='1542'> +1.3667986e-12 </wgt>
<wgt id='1543'> +1.3674976e-12 </wgt>
<wgt id='1544'> +1.3646833e-12 </wgt>
<wgt id='1545'> +1.3666235e-12 </wgt>
<wgt id='1546'> +1.3641629e-12 </wgt>
<wgt id='1547'> +1.3683190e-12 </wgt>
<wgt id='1548'> +1.3648310e-12 </wgt>
<wgt id='1549'> +1.3648259e-12 </wgt>
<wgt id='1550'> +1.3697629e-12 </wgt>
<wgt id='1551'> +1.3656764e-12 </wgt>
<wgt id='1552'> +1.3697871e-12 </wgt>
<wgt id='1553'> +1.3667367e-12 </wgt>
<wgt id='1554'> +1.3679980e-12 </wgt>
<wgt id='1555'> +1.3691208e-12 </wgt>
<wgt id='1556'> +1.3675128e-12 </wgt>
<wgt id='1557'> +1.3693417e-12 </wgt>
<wgt id='1558'> +1.3618111e-12 </wgt>
<wgt id='1559'> +1.3646850e-12 </wgt>
<wgt id='1560'> +1.3676855e-12 </wgt>
<wgt id='1561'> +1.3658592e-12 </wgt>
<wgt id='1562'> +1.3682503e-12 </wgt>
<wgt id='1563'> +1.3683657e-12 </wgt>
<wgt id='1564'> +1.3701322e-12 </wgt>
<wgt id='1565'> +1.3652727e-12 </wgt>
<wgt id='1566'> +1.3680510e-12 </wgt>
<wgt id='1567'> +1.3687872e-12 </wgt>
<wgt id='1568'> +1.3653734e-12 </wgt>
<wgt id='1569'> +1.3663050e-12 </wgt>
<wgt id='1570'> +1.3680412e-12 </wgt>
<wgt id='1571'> +1.3665973e-12 </wgt>
<wgt id='1572'> +1.3673915e-12 </wgt>
<wgt id='1573'> +1.3684744e-12 </wgt>
<wgt id='1574'> +1.3662649e-12 </wgt>
<wgt id='1575'> +1.3670064e-12 </wgt>
<wgt id='1576'> +1.3670116e-12 </wgt>
<wgt id='1577'> +1.3679597e-12 </wgt>
<wgt id='1578'> +1.3679372e-12 </wgt>
<wgt id='1579'> +1.3667655e-12 </wgt>
<wgt id='1580'> +1.3661003e-12 </wgt>
<wgt id='1581'> +1.3682469e-12 </wgt>
<wgt id='1582'> +1.3690780e-12 </wgt>
<wgt id='1583'> +1.3669209e-12 </wgt>
<wgt id='1584'> +1.3680832e-12 </wgt>
<wgt id='1585'> +1.3675968e-12 </wgt>
<wgt id='1586'> +1.3674422e-12 </wgt>
<wgt id='1587'> +1.3678435e-12 </wgt>
<wgt id='1588'> +1.3678197e-12 </wgt>
<wgt id='1589'> +1.3665819e-12 </wgt>
<wgt id='1590'> +1.3676278e-12 </wgt>
<wgt id='1591'> +1.3672421e-12 </wgt>
<wgt id='1592'> +1.3686221e-12 </wgt>
<wgt id='1593'> +1.3665521e-12 </wgt>
<wgt id='1594'> +1.3667517e-12 </wgt>
<wgt id='1595'> +1.3661365e-12 </wgt>
<wgt id='1596'> +1.3665602e-12 </wgt>
<wgt id='1597'> +1.3674193e-12 </wgt>
<wgt id='1598'> +1.3667963e-12 </wgt>
<wgt id='1599'> +1.3660175e-12 </wgt>
<wgt id='1600'> +1.3667965e-12 </wgt>
<wgt id='1601'> +1.3674481e-12 </wgt>
<wgt id='1602'> +1.3677521e-12 </wgt>
<wgt id='1603'> +1.3670042e-12 </wgt>
<wgt id='1604'> +1.3660868e-12 </wgt>
<wgt id='1605'> +1.3670405e-12 </wgt>
<wgt id='1606'> +1.3672178e-12 </wgt>
<wgt id='1607'> +1.3673151e-12 </wgt>
<wgt id='1608'> +1.3674968e-12 </wgt>
<wgt id='1609'> +1.3679096e-12 </wgt>
<wgt id='1610'> +1.3304707e-12 </wgt>
<wgt id='1611'> +1.4030900e-12 </wgt>
<wgt id='1612'> +1.4871396e-12 </wgt>
<wgt id='1613'> +1.4399432e-12 </wgt>
<wgt id='1614'> +1.4822806e-12 </wgt>
<wgt id='1615'> +1.4767681e-12 </wgt>
<wgt id='1616'> +1.5178954e-12 </wgt>
<wgt id='1617'> +1.5494801e-12 </wgt>
<wgt id='1618'> +1.5029581e-12 </wgt>
<wgt id='1619'> +1.5269304e-12 </wgt>
<wgt id='1620'> +1.4413031e-12 </wgt>
<wgt id='1621'> +1.5023274e-12 </wgt>
<wgt id='1622'> +1.4785413e-12 </wgt>
<wgt id='1623'> +1.4852889e-12 </wgt>
<wgt id='1624'> +1.4711545e-12 </wgt>
<wgt id='1625'> +1.4606705e-12 </wgt>
<wgt id='1626'> +1.4645592e-12 </wgt>
<wgt id='1627'> +1.4572527e-12 </wgt>
<wgt id='1628'> +1.4326342e-12 </wgt>
<wgt id='1629'> +1.5512577e-12 </wgt>
<wgt id='1630'> +1.4912603e-12 </wgt>
<wgt id='1631'> +1.4651265e-12 </wgt>
<wgt id='1632'> +1.4087568e-12 </wgt>
<wgt id='1633'> +1.4331780e-12 </wgt>
<wgt id='1634'> +1.5364572e-12 </wgt>
<wgt id='1635'> +1.5135375e-12 </wgt>
<wgt id='1636'> +1.5370619e-12 </wgt>
<wgt id='1637'> +1.4917496e-12 </wgt>
<wgt id='1638'> +1.4958192e-12 </wgt>
<wgt id='1639'> +1.4729714e-12 </wgt>
<wgt id='1640'> +1.4864922e-12 </wgt>
<wgt id='1641'> +1.4636149e-12 </wgt>
<wgt id='1642'> +1.4723395e-12 </wgt>
<wgt id='1643'> +1.4737513e-12 </wgt>
<wgt id='1644'> +1.4535209e-12 </wgt>
<wgt id='1645'> +1.4852443e-12 </wgt>
<wgt id='1646'> +1.4784183e-12 </wgt>
<wgt id='1647'> +1.4679889e-12 </wgt>
<wgt id='1648'> +1.5292050e-12 </wgt>
<wgt id='1649'> +1.5041882e-12 </wgt>
<wgt id='1650'> +1.4581879e-12 </wgt>
<wgt id='1651'> +1.4424294e-12 </wgt>
<wgt id='1652'> +1.4510236e-12 </wgt>
<wgt id='1653'> +1.5310204e-12 </wgt>
<wgt id='1654'> +1.4785508e-12 </wgt>
<wgt id='1655'> +1.4553527e-12 </wgt>
<wgt id='1656'> +1.4363736e-12 </wgt>
<wgt id='1657'> +1.4574499e-12 </wgt>
<wgt id='1658'> +1.4292273e-12 </wgt>
<wgt id='1659'> +1.4711545e-12 </wgt>
<wgt id='1660'> +1.5455396e-12 </wgt>
<wgt id='1661'> +1.5099866e-12 </wgt>
<wgt id='1662'> +1.5200786e-12 </wgt>
<wgt id='1663'> +1.5172514e-12 </wgt>
<wgt id='1664'> +1.4511990e-12 </wgt>
<wgt id='1665'> +1.3907587e-12 </wgt>
<wgt id='1666'> +1.5111230e-12 </wgt>
<wgt id='1667'> +1.4778778e-12 </wgt>
<wgt id='1668'> +1.5468485e-12 </wgt>
<wgt id='1669'> +1.4573271e-12 </wgt>
<wgt id='1670'> +1.5273626e-12 </wgt>
<wgt id='1671'> +1.4963832e-12 </wgt>
<wgt id='1672'> +1.4960716e-12 </wgt>
<wgt id='1673'> +1.4998860e-12 </wgt>
<wgt id='1674'> +1.4289302e-12 </wgt>
<wgt id='1675'> +1.4926648e-12 </wgt>
<wgt id='1676'> +1.5190872e-12 </wgt>
<wgt id='1677'> +1.6018523e-12 </wgt>
<wgt id='1678'> +1.4857707e-12 </wgt>
<wgt id='1679'> +1.4959003e-12 </wgt>
<wgt id='1680'> +1.5060474e-12 </wgt>
<wgt id='1681'> +1.5113227e-12 </wgt>
<wgt id='1682'> +1.5093488e-12 </wgt>
<wgt id='1683'> +1.4472149e-12 </wgt>
<wgt id='1684'> +1.4794570e-12 </wgt>
<wgt id='1685'> +1.4456382e-12 </wgt>
<wgt id='1686'> +1.4835453e-12 </wgt>
<wgt id='1687'> +1.5320622e-12 </wgt>
<wgt id='1688'> +1.4677372e-12 </wgt>
<wgt id='1689'> +1.4886370e-12 </wgt>
<wgt id='1690'> +1.5150339e-12 </wgt>
<wgt id='1691'> +1.5104125e-12 </wgt>
<wgt id='1692'> +1.5591459e-12 </wgt>
<wgt id='1693'> +1.5452890e-12 </wgt>
<wgt id='1694'> +1.4779995e-12 </wgt>
<wgt id='1695'> +1.5224173e-12 </wgt>
<wgt id='1696'> +1.5158097e-12 </wgt>
<wgt id='1697'> +1.4844570e-12 </wgt>
<wgt id='1698'> +1.4716616e-12 </wgt>
<wgt id='1699'> +1.5072558e-12 </wgt>
<wgt id='1700'> +1.4693988e-12 </wgt>
<wgt id='1701'> +1.5199870e-12 </wgt>
<wgt id='1702'> +1.5025172e-12 </wgt>
<wgt id='1703'> +1.5274367e-12 </wgt>
<wgt id='1704'> +1.4549931e-12 </wgt>
<wgt id='1705'> +1.4210567e-12 </wgt>
<wgt id='1706'> +1.4895492e-12 </wgt>
<wgt id='1707'> +1.4859238e-12 </wgt>
<wgt id='1708'> +1.4706013e-12 </wgt>
<wgt id='1709'> +1.4775055e-12 </wgt>
<wgt id='1710'> +1.4776431e-12 </wgt>
<wgt id='1711'> +1.5003240e-12 </wgt>
<wgt id='1712'> +1.4655060e-12 </wgt>
<wgt id='1713'> +1.1852192e-12 </wgt>
<wgt id='1714'> +1.1695510e-12 </wgt>
<wgt id='1715'> +1.1948376e-12 </wgt>
<wgt id='1716'> +1.2228420e-12 </wgt>
<wgt id='1717'> +1.2076542e-12 </wgt>
<wgt id='1718'> +1.2062184e-12 </wgt>
<wgt id='1719'> +1.1856334e-12 </wgt>
<wgt id='1720'> +1.1877186e-12 </wgt>
<wgt id='1721'> +1.1538809e-12 </wgt>
<wgt id='1722'> +1.1661553e-12 </wgt>
<wgt id='1723'> +1.1494765e-12 </wgt>
<wgt id='1724'> +1.1511338e-12 </wgt>
<wgt id='1725'> +1.2005182e-12 </wgt>
<wgt id='1726'> +1.2142215e-12 </wgt>
<wgt id='1727'> +1.1925518e-12 </wgt>
<wgt id='1728'> +1.1852175e-12 </wgt>
<wgt id='1729'> +1.1480298e-12 </wgt>
<wgt id='1730'> +1.1838396e-12 </wgt>
<wgt id='1731'> +1.1315814e-12 </wgt>
<wgt id='1732'> +1.2023889e-12 </wgt>
<wgt id='1733'> +1.1570960e-12 </wgt>
<wgt id='1734'> +1.2242098e-12 </wgt>
<wgt id='1735'> +1.1330069e-12 </wgt>
<wgt id='1736'> +1.2263093e-12 </wgt>
<wgt id='1737'> +1.2298189e-12 </wgt>
<wgt id='1738'> +1.1913433e-12 </wgt>
<wgt id='1739'> +1.1935418e-12 </wgt>
<wgt id='1740'> +1.1615374e-12 </wgt>
<wgt id='1741'> +1.2157159e-12 </wgt>
<wgt id='1742'> +1.1778738e-12 </wgt>
<wgt id='1743'> +1.1820410e-12 </wgt>
<wgt id='1744'> +1.2193142e-12 </wgt>
<wgt id='1745'> +1.1319752e-12 </wgt>
<wgt id='1746'> +1.1966203e-12 </wgt>
<wgt id='1747'> +1.2013462e-12 </wgt>
<wgt id='1748'> +1.1727732e-12 </wgt>
<wgt id='1749'> +1.1890387e-12 </wgt>
<wgt id='1750'> +1.1667707e-12 </wgt>
<wgt id='1751'> +1.1068017e-12 </wgt>
<wgt id='1752'> +1.1894265e-12 </wgt>
<wgt id='1753'> +1.1935611e-12 </wgt>
<wgt id='1754'> +1.2264420e-12 </wgt>
<wgt id='1755'> +1.2075734e-12 </wgt>
<wgt id='1756'> +1.1868777e-12 </wgt>
<wgt id='1757'> +1.1592724e-12 </wgt>
<wgt id='1758'> +1.2008541e-12 </wgt>
<wgt id='1759'> +1.1970026e-12 </wgt>
<wgt id='1760'> +1.1622469e-12 </wgt>
<wgt id='1761'> +1.1824732e-12 </wgt>
<wgt id='1762'> +1.1728836e-12 </wgt>
<wgt id='1763'> +1.2134062e-12 </wgt>
<wgt id='1764'> +1.1990377e-12 </wgt>
<wgt id='1765'> +1.1698957e-12 </wgt>
<wgt id='1766'> +1.2059534e-12 </wgt>
<wgt id='1767'> +1.2052543e-12 </wgt>
<wgt id='1768'> +1.1940618e-12 </wgt>
<wgt id='1769'> +1.1697897e-12 </wgt>
<wgt id='1770'> +1.2081147e-12 </wgt>
<wgt id='1771'> +1.2081893e-12 </wgt>
<wgt id='1772'> +1.2087595e-12 </wgt>
<wgt id='1773'> +1.1793383e-12 </wgt>
<wgt id='1774'> +1.1810530e-12 </wgt>
<wgt id='1775'> +1.1866139e-12 </wgt>
<wgt id='1776'> +1.2522108e-12 </wgt>
<wgt id='1777'> +1.1040420e-12 </wgt>
<wgt id='1778'> +1.1899588e-12 </wgt>
<wgt id='1779'> +1.1919669e-12 </wgt>
<wgt id='1780'> +1.1650901e-12 </wgt>
<wgt id='1781'> +1.1941344e-12 </wgt>
<wgt id='1782'> +1.1773188e-12 </wgt>
<wgt id='1783'> +1.1650433e-12 </wgt>
<wgt id='1784'> +1.1929255e-12 </wgt>
<wgt id='1785'> +1.1616162e-12 </wgt>
<wgt id='1786'> +1.1502677e-12 </wgt>
<wgt id='1787'> +1.2302036e-12 </wgt>
<wgt id='1788'> +1.2029435e-12 </wgt>
<wgt id='1789'> +1.1541710e-12 </wgt>
<wgt id='1790'> +1.1694794e-12 </wgt>
<wgt id='1791'> +1.1809779e-12 </wgt>
<wgt id='1792'> +1.1549647e-12 </wgt>
<wgt id='1793'> +1.1864731e-12 </wgt>
<wgt id='1794'> +1.2073959e-12 </wgt>
<wgt id='1795'> +1.2238455e-12 </wgt>
<wgt id='1796'> +1.1575575e-12 </wgt>
<wgt id='1797'> +1.1928083e-12 </wgt>
<wgt id='1798'> +1.1916509e-12 </wgt>
<wgt id='1799'> +1.1859109e-12 </wgt>
<wgt id='1800'> +1.2092596e-12 </wgt>
<wgt id='1801'> +1.1991969e-12 </wgt>
<wgt id='1802'> +1.1571874e-12 </wgt>
<wgt id='1803'> +1.2211365e-12 </wgt>
<wgt id='1804'> +1.1736123e-12 </wgt>
<wgt id='1805'> +1.1465945e-12 </wgt>
<wgt id='1806'> +1.1639627e-12 </wgt>
<wgt id='1807'> +1.2039182e-12 </wgt>
<wgt id='1808'> +1.1737722e-12 </wgt>
<wgt id='1809'> +1.1816664e-12 </wgt>
<wgt id='1810'> +1.1907626e-12 </wgt>
<wgt id='1811'> +1.2226441e-12 </wgt>
<wgt id='1812'> +1.1964144e-12 </wgt>
<wgt id='1813'> +1.1605520e-12 </wgt>
<wgt id='1814'> +1.1239048e-12 </wgt>
<wgt id='1815'> +1.3510120e-12 </wgt>
<wgt id='1816'> +1.1852192e-12 </wgt>
<wgt id='1817'> +1.1695510e-12 </wgt>
<wgt id='1818'> +1.1948376e-12 </wgt>
<wgt id='1819'> +1.2228420e-12 </wgt>
<wgt id='1820'> +1.2076542e-12 </wgt>
<wgt id='1821'> +1.2062184e-12 </wgt>
<wgt id='1822'> +1.1856334e-12 </wgt>
<wgt id='1823'> +1.1877186e-12 </wgt>
<wgt id='1824'> +1.1538809e-12 </wgt>
<wgt id='1825'> +1.1661553e-12 </wgt>
<wgt id='1826'> +1.1494765e-12 </wgt>
<wgt id='1827'> +1.1511338e-12 </wgt>
<wgt id='1828'> +1.2005182e-12 </wgt>
<wgt id='1829'> +1.2142215e-12 </wgt>
<wgt id='1830'> +1.1925518e-12 </wgt>
<wgt id='1831'> +1.1852175e-12 </wgt>
<wgt id='1832'> +1.1480298e-12 </wgt>
<wgt id='1833'> +1.1838396e-12 </wgt>
<wgt id='1834'> +1.1315814e-12 </wgt>
<wgt id='1835'> +1.2023889e-12 </wgt>
<wgt id='1836'> +1.1570960e-12 </wgt>
<wgt id='1837'> +1.2242098e-12 </wgt>
<wgt id='1838'> +1.1330069e-12 </wgt>
<wgt id='1839'> +1.2263093e-12 </wgt>
<wgt id='1840'> +1.2298189e-12 </wgt>
<wgt id='1841'> +1.1913433e-12 </wgt>
<wgt id='1842'> +1.1935418e-12 </wgt>
<wgt id='1843'> +1.1615374e-12 </wgt>
<wgt id='1844'> +1.2157159e-12 </wgt>
<wgt id='1845'> +1.1778738e-12 </wgt>
<wgt id='1846'> +1.1820410e-12 </wgt>
<wgt id='1847'> +1.2193142e-12 </wgt>
<wgt id='1848'> +1.1319752e-12 </wgt>
<wgt id='1849'> +1.1966203e-12 </wgt>
<wgt id='1850'> +1.2013462e-12 </wgt>
<wgt id='1851'> +1.1727732e-12 </wgt>
<wgt id='1852'> +1.1890387e-12 </wgt>
<wgt id='1853'> +1.1667707e-12 </wgt>
<wgt id='1854'> +1.1068017e-12 </wgt>
<wgt id='1855'> +1.1894265e-12 </wgt>
<wgt id='1856'> +1.1935611e-12 </wgt>
<wgt id='1857'> +1.2264420e-12 </wgt>
<wgt id='1858'> +1.2075734e-12 </wgt>
<wgt id='1859'> +1.1868777e-12 </wgt>
<wgt id='1860'> +1.1592724e-12 </wgt>
<wgt id='1861'> +1.2008541e-12 </wgt>
<wgt id='1862'> +1.1970026e-12 </wgt>
<wgt id='1863'> +1.1622469e-12 </wgt>
<wgt id='1864'> +1.1824732e-12 </wgt>
<wgt id='1865'> +1.1728836e-12 </wgt>
<wgt id='1866'> +1.2134062e-12 </wgt>
<wgt id='1867'> +1.1990377e-12 </wgt>
<wgt id='1868'> +1.1698957e-12 </wgt>
<wgt id='1869'> +1.2059534e-12 </wgt>
<wgt id='1870'> +1.2052543e-12 </wgt>
<wgt id='1871'> +1.1940618e-12 </wgt>
<wgt id='1872'> +1.1697897e-12 </wgt>
<wgt id='1873'> +1.2081147e-12 </wgt>
<wgt id='1874'> +1.2081893e-12 </wgt>
<wgt id='1875'> +1.2087595e-12 </wgt>
<wgt id='1876'> +1.1793383e-12 </wgt>
<wgt id='1877'> +1.1810530e-12 </wgt>
<wgt id='1878'> +1.1866139e-12 </wgt>
<wgt id='1879'> +1.2522108e-12 </wgt>
<wgt id='1880'> +1.1040420e-12 </wgt>
<wgt id='1881'> +1.1899588e-12 </wgt>
<wgt id='1882'> +1.1919669e-12 </wgt>
<wgt id='1883'> +1.1650901e-12 </wgt>
<wgt id='1884'> +1.1941344e-12 </wgt>
<wgt id='1885'> +1.1773188e-12 </wgt>
<wgt id='1886'> +1.1650433e-12 </wgt>
<wgt id='1887'> +1.1929255e-12 </wgt>
<wgt id='1888'> +1.1616162e-12 </wgt>
<wgt id='1889'> +1.1502677e-12 </wgt>
<wgt id='1890'> +1.2302036e-12 </wgt>
<wgt id='1891'> +1.2029435e-12 </wgt>
<wgt id='1892'> +1.1541710e-12 </wgt>
<wgt id='1893'> +1.1694794e-12 </wgt>
<wgt id='1894'> +1.1809779e-12 </wgt>
<wgt id='1895'> +1.1549647e-12 </wgt>
<wgt id='1896'> +1.1864731e-12 </wgt>
<wgt id='1897'> +1.2073959e-12 </wgt>
<wgt id='1898'> +1.2238455e-12 </wgt>
<wgt id='1899'> +1.1575575e-12 </wgt>
<wgt id='1900'> +1.1928083e-12 </wgt>
<wgt id='1901'> +1.1916509e-12 </wgt>
<wgt id='1902'> +1.1859109e-12 </wgt>
<wgt id='1903'> +1.2092596e-12 </wgt>
<wgt id='1904'> +1.1991969e-12 </wgt>
<wgt id='1905'> +1.1571874e-12 </wgt>
<wgt id='1906'> +1.2211365e-12 </wgt>
<wgt id='1907'> +1.1736123e-12 </wgt>
<wgt id='1908'> +1.1465945e-12 </wgt>
<wgt id='1909'> +1.1639627e-12 </wgt>
<wgt id='1910'> +1.2039182e-12 </wgt>
<wgt id='1911'> +1.1737722e-12 </wgt>
<wgt id='1912'> +1.1816664e-12 </wgt>
<wgt id='1913'> +1.1907626e-12 </wgt>
<wgt id='1914'> +1.2226441e-12 </wgt>
<wgt id='1915'> +1.1964144e-12 </wgt>
<wgt id='1916'> +1.1605520e-12 </wgt>
<wgt id='1917'> +1.1685733e-12 </wgt>
<wgt id='1918'> +1.1987738e-12 </wgt>
<wgt id='1919'> +1.2468849e-12 </wgt>
</rwgt>
</event>
<event>
 9      1 +1.5538000e-12 4.61760800e+01 7.81860800e-03 1.33116600e-01
       -2 -1    0    0    0  501 -0.0000000000e+00 +0.0000000000e+00 +3.2326630922e+02 3.2326630922e+02 0.0000000000e+00 0.0000e+00 -1.0000e+00
       21 -1    0    0  501  502 +0.0000000000e+00 -0.0000000000e+00 -1.6489735680e+00 1.6489735680e+00 0.0000000000e+00 0.0000e+00 -1.0000e+00
     1023  2    1    2    0    0 -1.4865923746e+00 +2.0460755642e+01 +1.6111499033e+02 1.6310720100e+02 1.5002214186e+01 0.0000e+00 0.0000e+00
  1000023  2    3    3    0    0 -1.1270450307e+00 +1.9029040784e+01 +1.1504817779e+02 1.1674633065e+02 5.4998076646e+00 0.0000e+00 0.0000e+00
       -2  1    1    2    0  502 +1.4865923746e+00 -2.0460755642e+01 +1.6050234532e+02 1.6180808179e+02 0.0000000000e+00 0.0000e+00 -1.0000e+00
  1000022  1    4    4    0    0 -8.2240507494e-01 +1.6186540656e+01 +9.7390495894e+01 9.8856406666e+01 5.0000000000e+00 0.0000e+00 -1.0000e+00
      -11  1    4    4    0    0 -1.8396889814e-01 +2.0199098712e+00 +1.3279415715e+01 1.3433419611e+01 5.1100000000e-04 0.0000e+00 -1.0000e+00
       11  1    4    4    0    0 -1.2067105764e-01 +8.2259025668e-01 +4.3782661791e+00 4.4565043734e+00 5.1100000000e-04 0.0000e+00 1.0000e+00
  1000022  1    3    3    0    0 -3.5954734385e-01 +1.4317148580e+00 +4.6066812544e+01 4.6360870351e+01 5.0000000000e+00 0.0000e+00 1.0000e+00
<mgrwt>
<rscale>  1 0.46176080E+02</rscale>
<asrwt>0</asrwt>
<pdfrwt beam="1">  1       21 0.25368850E-03 0.46176080E+02</pdfrwt>
<pdfrwt beam="2">  1       -2 0.49733228E-01 0.46176080E+02</pdfrwt>
<totfact> 0.81306884E+06</totfact>
</mgrwt>
<rwgt>
<wgt id='1001'> +1.5538000e-12 </wgt>
<wgt id='1002'> +1.5363796e-12 </wgt>
<wgt id='1003'> +1.5518391e-12 </wgt>
<wgt id='1004'> +1.4208281e-12 </wgt>
<wgt id='1005'> +1.5538000e-12 </wgt>
<wgt id='1006'> +1.3744802e-12 </wgt>
<wgt id='1007'> +1.3553314e-12 </wgt>
<wgt id='1008'> +1.3723107e-12 </wgt>
<wgt id='1009'> +1.2332818e-12 </wgt>
<wgt id='1010'> +1.3744802e-12 </wgt>
<wgt id='1011'> +1.7893319e-12 </wgt>
<wgt id='1012'> +1.7758498e-12 </wgt>
<wgt id='1013'> +1.7878288e-12 </wgt>
<wgt id='1014'> +1.6792333e-12 </wgt>
<wgt id='1015'> +1.7893319e-12 </wgt>
<wgt id='1016'> +1.8415128e-12 </wgt>
<wgt id='1017'> +1.8356880e-12 </wgt>
<wgt id='1018'> +1.8408900e-12 </wgt>
<wgt id='1019'> +1.7878288e-12 </wgt>
<wgt id='1020'> +1.8415128e-12 </wgt>
<wgt id='1021'> +1.6289889e-12 </wgt>
<wgt id='1022'> +1.6193691e-12 </wgt>
<wgt id='1023'> +1.6279219e-12 </wgt>
<wgt id='1024'> +1.5518391e-12 </wgt>
<wgt id='1025'> +1.6289889e-12 </wgt>
<wgt id='1026'> +2.1206574e-12 </wgt>
<wgt id='1027'> +2.1218104e-12 </wgt>
<wgt id='1028'> +2.1208359e-12 </wgt>
<wgt id='1029'> +2.1129801e-12 </wgt>
<wgt id='1030'> +2.1206574e-12 </wgt>
<wgt id='1031'> +1.2365916e-12 </wgt>
<wgt id='1032'> +1.2073050e-12 </wgt>
<wgt id='1033'> +1.2332818e-12 </wgt>
<wgt id='1034'> +1.0250602e-12 </wgt>
<wgt id='1035'> +1.2365916e-12 </wgt>
<wgt id='1036'> +1.0938800e-12 </wgt>
<wgt id='1037'> +1.0650353e-12 </wgt>
<wgt id='1038'> +1.0906064e-12 </wgt>
<wgt id='1039'> +8.8975437e-13 </wgt>
<wgt id='1040'> +1.0938800e-12 </wgt>
<wgt id='1041'> +1.4240396e-12 </wgt>
<wgt id='1042'> +1.3954835e-12 </wgt>
<wgt id='1043'> +1.4208281e-12 </wgt>
<wgt id='1044'> +1.2114872e-12 </wgt>
<wgt id='1045'> +1.4240396e-12 </wgt>
<wgt id='1046'> +1.5538000e-12 </wgt>
<wgt id='1047'> +1.7395548e-12 </wgt>
<wgt id='1048'> +1.5881795e-12 </wgt>
<wgt id='1049'> +1.5944874e-12 </wgt>
<wgt id='1050'> +1.6101895e-12 </wgt>
<wgt id='1051'> +1.4842454e-12 </wgt>
<wgt id='1052'> +1.5309986e-12 </wgt>
<wgt id='1053'> +1.5363769e-12 </wgt>
<wgt id='1054'> +1.5394716e-12 </wgt>
<wgt id='1055'> +1.5291114e-12 </wgt>
<wgt id='1056'> +1.5025193e-12 </wgt>
<wgt id='1057'> +1.5731390e-12 </wgt>
<wgt id='1058'> +1.4952451e-12 </wgt>
<wgt id='1059'> +1.5183166e-12 </wgt>
<wgt id='1060'> +1.5729967e-12 </wgt>
<wgt id='1061'> +1.5384055e-12 </wgt>
<wgt id='1062'> +1.4822225e-12 </wgt>
<wgt id='1063'> +1.5634253e-12 </wgt>
<wgt id='1064'> +1.5547400e-12 </wgt>
<wgt id='1065'> +1.5725176e-12 </wgt>
<wgt id='1066'> +1.4696084e-12 </wgt>
<wgt id='1067'> +1.6013628e-12 </wgt>
<wgt id='1068'> +1.6840839e-12 </wgt>
<wgt id='1069'> +1.6004427e-12 </wgt>
<wgt id='1070'> +1.5442262e-12 </wgt>
<wgt id='1071'> +1.5053428e-12 </wgt>
<wgt id='1072'> +1.5307275e-12 </wgt>
<wgt id='1073'> +1.7287193e-12 </wgt>
<wgt id='1074'> +1.5650623e-12 </wgt>
<wgt id='1075'> +1.4956215e-12 </wgt>
<wgt id='1076'> +1.5562079e-12 </wgt>
<wgt id='1077'> +1.6539163e-12 </wgt>
<wgt id='1078'> +1.5208959e-12 </wgt>
<wgt id='1079'> +1.5710774e-12 </wgt>
<wgt id='1080'> +1.5715223e-12 </wgt>
<wgt id='1081'> +1.5623527e-12 </wgt>
<wgt id='1082'> +1.5883214e-12 </wgt>
<wgt id='1083'> +1.5461181e-12 </wgt>
<wgt id='1084'> +1.5050639e-12 </wgt>
<wgt id='1085'> +1.5776624e-12 </wgt>
<wgt id='1086'> +1.5583628e-12 </wgt>
<wgt id='1087'> +1.5603560e-12 </wgt>
<wgt id='1088'> +1.5515274e-12 </wgt>
<wgt id='1089'> +1.6325419e-12 </wgt>
<wgt id='1090'> +1.5850115e-12 </wgt>
<wgt id='1091'> +1.4998239e-12 </wgt>
<wgt id='1092'> +1.5588392e-12 </wgt>
<wgt id='1093'> +1.5794160e-12 </wgt>
<wgt id='1094'> +1.5400385e-12 </wgt>
<wgt id='1095'> +1.5572870e-12 </wgt>
<wgt id='1096'> +1.5242452e-12 </wgt>
<wgt id='1097'> +1.5607134e-12 </wgt>
<wgt id='1098'> +1.5121101e-12 </wgt>
<wgt id='1099'> +1.5252216e-12 </wgt>
<wgt id='1100'> +1.6147278e-12 </wgt>
<wgt id='1101'> +1.6151782e-12 </wgt>
<wgt id='1102'> +1.5708065e-12 </wgt>
<wgt id='1103'> +1.5988733e-12 </wgt>
<wgt id='1104'> +1.5691693e-12 </wgt>
<wgt id='1105'> +1.4727941e-12 </wgt>
<wgt id='1106'> +1.5751684e-12 </wgt>
<wgt id='1107'> +1.6438708e-12 </wgt>
<wgt id='1108'> +1.5178078e-12 </wgt>
<wgt id='1109'> +1.5785759e-12 </wgt>
<wgt id='1110'> +1.4902359e-12 </wgt>
<wgt id='1111'> +1.5342454e-12 </wgt>
<wgt id='1112'> +1.4562632e-12 </wgt>
<wgt id='1113'> +1.6279901e-12 </wgt>
<wgt id='1114'> +1.5642993e-12 </wgt>
<wgt id='1115'> +1.5697413e-12 </wgt>
<wgt id='1116'> +1.6278095e-12 </wgt>
<wgt id='1117'> +1.5428765e-12 </wgt>
<wgt id='1118'> +1.4581892e-12 </wgt>
<wgt id='1119'> +1.3885878e-12 </wgt>
<wgt id='1120'> +1.4758728e-12 </wgt>
<wgt id='1121'> +1.4777585e-12 </wgt>
<wgt id='1122'> +1.5828577e-12 </wgt>
<wgt id='1123'> +1.6114494e-12 </wgt>
<wgt id='1124'> +1.5473478e-12 </wgt>
<wgt id='1125'> +1.4525035e-12 </wgt>
<wgt id='1126'> +1.6091774e-12 </wgt>
<wgt id='1127'> +1.6422163e-12 </wgt>
<wgt id='1128'> +1.4822225e-12 </wgt>
<wgt id='1129'> +1.5200038e-12 </wgt>
<wgt id='1130'> +1.5323628e-12 </wgt>
<wgt id='1131'> +1.5605451e-12 </wgt>
<wgt id='1132'> +1.6721144e-12 </wgt>
<wgt id='1133'> +1.5410724e-12 </wgt>
<wgt id='1134'> +1.6462471e-12 </wgt>
<wgt id='1135'> +1.4051583e-12 </wgt>
<wgt id='1136'> +1.4987196e-12 </wgt>
<wgt id='1137'> +1.5502210e-12 </wgt>
<wgt id='1138'> +1.4046879e-12 </wgt>
<wgt id='1139'> +1.5126142e-12 </wgt>
<wgt id='1140'> +1.5286995e-12 </wgt>
<wgt id='1141'> +1.5979378e-12 </wgt>
<wgt id='1142'> +1.5727411e-12 </wgt>
<wgt id='1143'> +1.5847514e-12 </wgt>
<wgt id='1144'> +1.5820774e-12 </wgt>
<wgt id='1145'> +1.5577317e-12 </wgt>
<wgt id='1146'> +1.5634289e-12 </wgt>
<wgt id='1147'> +1.2867987e-12 </wgt>
<wgt id='1148'> +1.3146888e-12 </wgt>
<wgt id='1149'> +1.2869153e-12 </wgt>
<wgt id='1150'> +1.3577738e-12 </wgt>
<wgt id='1151'> +1.6737208e-12 </wgt>
<wgt id='1152'> +2.2906447e-12 </wgt>
<wgt id='1153'> +2.2761908e-12 </wgt>
<wgt id='1154'> +2.2989818e-12 </wgt>
<wgt id='1155'> +2.2768963e-12 </wgt>
<wgt id='1156'> +2.2976201e-12 </wgt>
<wgt id='1157'> +2.2989950e-12 </wgt>
<wgt id='1158'> +2.2794019e-12 </wgt>
<wgt id='1159'> +2.2985628e-12 </wgt>
<wgt id='1160'> +2.2855896e-12 </wgt>
<wgt id='1161'> +2.2934168e-12 </wgt>
<wgt id='1162'> +2.2886742e-12 </wgt>
<wgt id='1163'> +2.2924099e-12 </wgt>
<wgt id='1164'> +2.2889180e-12 </wgt>
<wgt id='1165'> +2.2783656e-12 </wgt>
<wgt id='1166'> +2.3026835e-12 </wgt>
<wgt id='1167'> +2.2911343e-12 </wgt>
<wgt id='1168'> +2.2880309e-12 </wgt>
<wgt id='1169'> +2.2970271e-12 </wgt>
<wgt id='1170'> +2.2858656e-12 </wgt>
<wgt id='1171'> +2.2776291e-12 </wgt>
<wgt id='1172'> +2.3076346e-12 </wgt>
<wgt id='1173'> +2.2693935e-12 </wgt>
<wgt id='1174'> +2.3115000e-12 </wgt>
<wgt id='1175'> +2.3125883e-12 </wgt>
<wgt id='1176'> +2.2720323e-12 </wgt>
<wgt id='1177'> +2.3000027e-12 </wgt>
<wgt id='1178'> +2.2611927e-12 </wgt>
<wgt id='1179'> +2.2851466e-12 </wgt>
<wgt id='1180'> +2.2841594e-12 </wgt>
<wgt id='1181'> +2.2822079e-12 </wgt>
<wgt id='1182'> +2.2992297e-12 </wgt>
<wgt id='1183'> +2.3003026e-12 </wgt>
<wgt id='1184'> +2.2891474e-12 </wgt>
<wgt id='1185'> +2.2936441e-12 </wgt>
<wgt id='1186'> +2.2915026e-12 </wgt>
<wgt id='1187'> +2.2915120e-12 </wgt>
<wgt id='1188'> +2.2903452e-12 </wgt>
<wgt id='1189'> +2.2939003e-12 </wgt>
<wgt id='1190'> +2.2574364e-12 </wgt>
<wgt id='1191'> +2.2746144e-12 </wgt>
<wgt id='1192'> +2.3080939e-12 </wgt>
<wgt id='1193'> +1.3987431e-12 </wgt>
<wgt id='1194'> +1.3862547e-12 </wgt>
<wgt id='1195'> +1.4090090e-12 </wgt>
<wgt id='1196'> +1.4103455e-12 </wgt>
<wgt id='1197'> +1.3857893e-12 </wgt>
<wgt id='1198'> +1.3951361e-12 </wgt>
<wgt id='1199'> +1.4041235e-12 </wgt>
<wgt id='1200'> +1.3918288e-12 </wgt>
<wgt id='1201'> +1.4034515e-12 </wgt>
<wgt id='1202'> +1.3985361e-12 </wgt>
<wgt id='1203'> +1.3990738e-12 </wgt>
<wgt id='1204'> +1.3982856e-12 </wgt>
<wgt id='1205'> +1.3988782e-12 </wgt>
<wgt id='1206'> +1.3999026e-12 </wgt>
<wgt id='1207'> +1.3972078e-12 </wgt>
<wgt id='1208'> +1.3894086e-12 </wgt>
<wgt id='1209'> +1.4021706e-12 </wgt>
<wgt id='1210'> +1.3970296e-12 </wgt>
<wgt id='1211'> +1.3968330e-12 </wgt>
<wgt id='1212'> +1.3989693e-12 </wgt>
<wgt id='1213'> +1.3989238e-12 </wgt>
<wgt id='1214'> +1.3856254e-12 </wgt>
<wgt id='1215'> +1.4172720e-12 </wgt>
<wgt id='1216'> +1.3965941e-12 </wgt>
<wgt id='1217'> +1.4005986e-12 </wgt>
<wgt id='1218'> +1.4128707e-12 </wgt>
<wgt id='1219'> +1.3917940e-12 </wgt>
<wgt id='1220'> +1.4126355e-12 </wgt>
<wgt id='1221'> +1.3911527e-12 </wgt>
<wgt id='1222'> +1.4153051e-12 </wgt>
<wgt id='1223'> +1.3686236e-12 </wgt>
<wgt id='1224'> +1.4004781e-12 </wgt>
<wgt id='1225'> +1.3981225e-12 </wgt>
<wgt id='1226'> +1.3932157e-12 </wgt>
<wgt id='1227'> +1.4030665e-12 </wgt>
<wgt id='1228'> +1.4127481e-12 </wgt>
<wgt id='1229'> +1.3891561e-12 </wgt>
<wgt id='1230'> +1.4125207e-12 </wgt>
<wgt id='1231'> +1.3920333e-12 </wgt>
<wgt id='1232'> +1.4061291e-12 </wgt>
<wgt id='1233'> +1.3966844e-12 </wgt>
<wgt id='1234'> +1.3987431e-12 </wgt>
<wgt id='1235'> +1.3921067e-12 </wgt>
<wgt id='1236'> +1.3946803e-12 </wgt>
<wgt id='1237'> +1.3968762e-12 </wgt>
<wgt id='1238'> +1.4008601e-12 </wgt>
<wgt id='1239'> +1.4023545e-12 </wgt>
<wgt id='1240'> +1.4036845e-12 </wgt>
<wgt id='1241'> +1.3101148e-12 </wgt>
<wgt id='1242'> +1.2964298e-12 </wgt>
<wgt id='1243'> +1.3236959e-12 </wgt>
<wgt id='1244'> +1.3036537e-12 </wgt>
<wgt id='1245'> +1.3149771e-12 </wgt>
<wgt id='1246'> +1.3013668e-12 </wgt>
<wgt id='1247'> +1.3175571e-12 </wgt>
<wgt id='1248'> +1.3100401e-12 </wgt>
<wgt id='1249'> +1.3102814e-12 </wgt>
<wgt id='1250'> +1.3171725e-12 </wgt>
<wgt id='1251'> +1.3051614e-12 </wgt>
<wgt id='1252'> +1.3094004e-12 </wgt>
<wgt id='1253'> +1.3107356e-12 </wgt>
<wgt id='1254'> +1.3126244e-12 </wgt>
<wgt id='1255'> +1.3085459e-12 </wgt>
<wgt id='1256'> +1.3131687e-12 </wgt>
<wgt id='1257'> +1.3026507e-12 </wgt>
<wgt id='1258'> +1.3190237e-12 </wgt>
<wgt id='1259'> +1.3007623e-12 </wgt>
<wgt id='1260'> +1.3129297e-12 </wgt>
<wgt id='1261'> +1.3072831e-12 </wgt>
<wgt id='1262'> +1.3037821e-12 </wgt>
<wgt id='1263'> +1.3134948e-12 </wgt>
<wgt id='1264'> +1.3242380e-12 </wgt>
<wgt id='1265'> +1.3034506e-12 </wgt>
<wgt id='1266'> +1.2891918e-12 </wgt>
<wgt id='1267'> +1.3272612e-12 </wgt>
<wgt id='1268'> +1.3156660e-12 </wgt>
<wgt id='1269'> +1.3064873e-12 </wgt>
<wgt id='1270'> +1.3147987e-12 </wgt>
<wgt id='1271'> +1.3125202e-12 </wgt>
<wgt id='1272'> +1.3115625e-12 </wgt>
<wgt id='1273'> +1.3101941e-12 </wgt>
<wgt id='1274'> +1.3132197e-12 </wgt>
<wgt id='1275'> +1.3063854e-12 </wgt>
<wgt id='1276'> +1.2950736e-12 </wgt>
<wgt id='1277'> +1.3227127e-12 </wgt>
<wgt id='1278'> +1.3114133e-12 </wgt>
<wgt id='1279'> +1.3189922e-12 </wgt>
<wgt id='1280'> +1.3074776e-12 </wgt>
<wgt id='1281'> +1.3270789e-12 </wgt>
<wgt id='1282'> +1.3101148e-12 </wgt>
<wgt id='1283'> +1.3041816e-12 </wgt>
<wgt id='1284'> +1.3065294e-12 </wgt>
<wgt id='1285'> +1.3085782e-12 </wgt>
<wgt id='1286'> +1.3118409e-12 </wgt>
<wgt id='1287'> +1.3128795e-12 </wgt>
<wgt id='1288'> +1.3139419e-12 </wgt>
<wgt id='1289'> +1.4454588e-12 </wgt>
<wgt id='1290'> +1.4411120e-12 </wgt>
<wgt id='1291'> +1.4500758e-12 </wgt>
<wgt id='1292'> +1.4450703e-12 </wgt>
<wgt id='1293'> +1.4457247e-12 </wgt>
<wgt id='1294'> +1.4240774e-12 </wgt>
<wgt id='1295'> +1.4663023e-12 </wgt>
<wgt id='1296'> +1.4469353e-12 </wgt>
<wgt id='1297'> +1.4435346e-12 </wgt>
<wgt id='1298'> +1.4435246e-12 </wgt>
<wgt id='1299'> +1.4477651e-12 </wgt>
<wgt id='1300'> +1.4459856e-12 </wgt>
<wgt id='1301'> +1.4444267e-12 </wgt>
<wgt id='1302'> +1.4393336e-12 </wgt>
<wgt id='1303'> +1.4539344e-12 </wgt>
<wgt id='1304'> +1.4459506e-12 </wgt>
<wgt id='1305'> +1.4450736e-12 </wgt>
<wgt id='1306'> +1.4349506e-12 </wgt>
<wgt id='1307'> +1.4573530e-12 </wgt>
<wgt id='1308'> +1.4277344e-12 </wgt>
<wgt id='1309'> +1.4589955e-12 </wgt>
<wgt id='1310'> +1.4539021e-12 </wgt>
<wgt id='1311'> +1.4367843e-12 </wgt>
<wgt id='1312'> +1.4342751e-12 </wgt>
<wgt id='1313'> +1.4572277e-12 </wgt>
<wgt id='1314'> +1.4304606e-12 </wgt>
<wgt id='1315'> +1.4571586e-12 </wgt>
<wgt id='1316'> +1.4510518e-12 </wgt>
<wgt id='1317'> +1.4485866e-12 </wgt>
<wgt id='1318'> +1.4525898e-12 </wgt>
<wgt id='1319'> +1.4361825e-12 </wgt>
<wgt id='1320'> +1.4768624e-12 </wgt>
<wgt id='1321'> +1.4217922e-12 </wgt>
<wgt id='1322'> +1.4391288e-12 </wgt>
<wgt id='1323'> +1.4554354e-12 </wgt>
<wgt id='1324'> +1.4484935e-12 </wgt>
<wgt id='1325'> +1.4445741e-12 </wgt>
<wgt id='1326'> +1.4439856e-12 </wgt>
<wgt id='1327'> +1.4496318e-12 </wgt>
<wgt id='1328'> +1.4424108e-12 </wgt>
<wgt id='1329'> +1.4477653e-12 </wgt>
<wgt id='1330'> +1.4339570e-12 </wgt>
<wgt id='1331'> +1.4717052e-12 </wgt>
<wgt id='1332'> +1.4574619e-12 </wgt>
<wgt id='1333'> +1.4443774e-12 </wgt>
<wgt id='1334'> +1.4391104e-12 </wgt>
<wgt id='1335'> +1.4649364e-12 </wgt>
<wgt id='1336'> +1.4519953e-12 </wgt>
<wgt id='1337'> +1.4439836e-12 </wgt>
<wgt id='1338'> +1.4458590e-12 </wgt>
<wgt id='1339'> +1.4436020e-12 </wgt>
<wgt id='1340'> +1.4219887e-12 </wgt>
<wgt id='1341'> +1.4173492e-12 </wgt>
<wgt id='1342'> +1.4269028e-12 </wgt>
<wgt id='1343'> +1.4215234e-12 </wgt>
<wgt id='1344'> +1.4222557e-12 </wgt>
<wgt id='1345'> +1.4000787e-12 </wgt>
<wgt id='1346'> +1.4424349e-12 </wgt>
<wgt id='1347'> +1.4244865e-12 </wgt>
<wgt id='1348'> +1.4190680e-12 </wgt>
<wgt id='1349'> +1.4201905e-12 </wgt>
<wgt id='1350'> +1.4236625e-12 </wgt>
<wgt id='1351'> +1.4219375e-12 </wgt>
<wgt id='1352'> +1.4220628e-12 </wgt>
<wgt id='1353'> +1.4149921e-12 </wgt>
<wgt id='1354'> +1.4344576e-12 </wgt>
<wgt id='1355'> +1.4239456e-12 </wgt>
<wgt id='1356'> +1.4208161e-12 </wgt>
<wgt id='1357'> +1.4066028e-12 </wgt>
<wgt id='1358'> +1.4400853e-12 </wgt>
<wgt id='1359'> +1.4083148e-12 </wgt>
<wgt id='1360'> +1.4338426e-12 </wgt>
<wgt id='1361'> +1.4290257e-12 </wgt>
<wgt id='1362'> +1.4129954e-12 </wgt>
<wgt id='1363'> +1.4091855e-12 </wgt>
<wgt id='1364'> +1.4313579e-12 </wgt>
<wgt id='1365'> +1.4289426e-12 </wgt>
<wgt id='1366'> +1.4069114e-12 </wgt>
<wgt id='1367'> +1.4283457e-12 </wgt>
<wgt id='1368'> +1.4230266e-12 </wgt>
<wgt id='1369'> +1.4269476e-12 </wgt>
<wgt id='1370'> +1.4157764e-12 </wgt>
<wgt id='1371'> +1.4439746e-12 </wgt>
<wgt id='1372'> +1.3978886e-12 </wgt>
<wgt id='1373'> +1.4084606e-12 </wgt>
<wgt id='1374'> +1.4370551e-12 </wgt>
<wgt id='1375'> +1.4242518e-12 </wgt>
<wgt id='1376'> +1.4218128e-12 </wgt>
<wgt id='1377'> +1.4212602e-12 </wgt>
<wgt id='1378'> +1.4258063e-12 </wgt>
<wgt id='1379'> +1.4188304e-12 </wgt>
<wgt id='1380'> +1.4247018e-12 </wgt>
<wgt id='1381'> +1.4110140e-12 </wgt>
<wgt id='1382'> +1.4456710e-12 </wgt>
<wgt id='1383'> +1.4373469e-12 </wgt>
<wgt id='1384'> +1.4211327e-12 </wgt>
<wgt id='1385'> +1.4155647e-12 </wgt>
<wgt id='1386'> +1.4403609e-12 </wgt>
<wgt id='1387'> +1.4273190e-12 </wgt>
<wgt id='1388'> +1.4213729e-12 </wgt>
<wgt id='1389'> +1.4222314e-12 </wgt>
<wgt id='1390'> +1.4200416e-12 </wgt>
<wgt id='1391'> +1.3899177e-12 </wgt>
<wgt id='1392'> +1.3558954e-12 </wgt>
<wgt id='1393'> +1.3685486e-12 </wgt>
<wgt id='1394'> +1.3799730e-12 </wgt>
<wgt id='1395'> +1.4031667e-12 </wgt>
<wgt id='1396'> +1.3915414e-12 </wgt>
<wgt id='1397'> +1.3399297e-12 </wgt>
<wgt id='1398'> +1.3503592e-12 </wgt>
<wgt id='1399'> +1.3604824e-12 </wgt>
<wgt id='1400'> +1.3706069e-12 </wgt>
<wgt id='1401'> +1.3811166e-12 </wgt>
<wgt id='1402'> +1.4021457e-12 </wgt>
<wgt id='1403'> +1.4124085e-12 </wgt>
<wgt id='1404'> +1.4226733e-12 </wgt>
<wgt id='1405'> +1.3915414e-12 </wgt>
<wgt id='1406'> +1.3887344e-12 </wgt>
<wgt id='1407'> +1.3903742e-12 </wgt>
<wgt id='1408'> +1.3927279e-12 </wgt>
<wgt id='1409'> +1.3945131e-12 </wgt>
<wgt id='1410'> +1.2970946e-12 </wgt>
<wgt id='1411'> +1.2960996e-12 </wgt>
<wgt id='1412'> +1.2982519e-12 </wgt>
<wgt id='1413'> +1.2852120e-12 </wgt>
<wgt id='1414'> +1.3090326e-12 </wgt>
<wgt id='1415'> +1.2926565e-12 </wgt>
<wgt id='1416'> +1.2988628e-12 </wgt>
<wgt id='1417'> +1.2871851e-12 </wgt>
<wgt id='1418'> +1.3070693e-12 </wgt>
<wgt id='1419'> +1.2946673e-12 </wgt>
<wgt id='1420'> +1.2994381e-12 </wgt>
<wgt id='1421'> +1.2965766e-12 </wgt>
<wgt id='1422'> +1.2972286e-12 </wgt>
<wgt id='1423'> +1.2950079e-12 </wgt>
<wgt id='1424'> +1.2996730e-12 </wgt>
<wgt id='1425'> +1.2875216e-12 </wgt>
<wgt id='1426'> +1.3073996e-12 </wgt>
<wgt id='1427'> +1.2618470e-12 </wgt>
<wgt id='1428'> +1.3166929e-12 </wgt>
<wgt id='1429'> +1.2994518e-12 </wgt>
<wgt id='1430'> +1.2941490e-12 </wgt>
<wgt id='1431'> +1.2862957e-12 </wgt>
<wgt id='1432'> +1.3045422e-12 </wgt>
<wgt id='1433'> +1.2756453e-12 </wgt>
<wgt id='1434'> +1.3153957e-12 </wgt>
<wgt id='1435'> +1.2994959e-12 </wgt>
<wgt id='1436'> +1.2917104e-12 </wgt>
<wgt id='1437'> +1.3028835e-12 </wgt>
<wgt id='1438'> +1.3003486e-12 </wgt>
<wgt id='1439'> +1.2904526e-12 </wgt>
<wgt id='1440'> +1.3096568e-12 </wgt>
<wgt id='1441'> +1.3106974e-12 </wgt>
<wgt id='1442'> +1.2710814e-12 </wgt>
<wgt id='1443'> +1.3013624e-12 </wgt>
<wgt id='1444'> +1.2937117e-12 </wgt>
<wgt id='1445'> +1.3042645e-12 </wgt>
<wgt id='1446'> +1.2963872e-12 </wgt>
<wgt id='1447'> +1.2970191e-12 </wgt>
<wgt id='1448'> +1.3018209e-12 </wgt>
<wgt id='1449'> +1.2945462e-12 </wgt>
<wgt id='1450'> +1.2980722e-12 </wgt>
<wgt id='1451'> +1.3129503e-12 </wgt>
<wgt id='1452'> +1.2775794e-12 </wgt>
<wgt id='1453'> +1.2976733e-12 </wgt>
<wgt id='1454'> +1.2881405e-12 </wgt>
<wgt id='1455'> +1.3003779e-12 </wgt>
<wgt id='1456'> +1.3086397e-12 </wgt>
<wgt id='1457'> +1.3145968e-12 </wgt>
<wgt id='1458'> +1.2906473e-12 </wgt>
<wgt id='1459'> +1.3000183e-12 </wgt>
<wgt id='1460'> +1.3043624e-12 </wgt>
<wgt id='1461'> +1.2970946e-12 </wgt>
<wgt id='1462'> +1.2909568e-12 </wgt>
<wgt id='1463'> +1.3042992e-12 </wgt>
<wgt id='1464'> +1.2976080e-12 </wgt>
<wgt id='1465'> +1.2473245e-12 </wgt>
<wgt id='1466'> +1.2583408e-12 </wgt>
<wgt id='1467'> +1.2688524e-12 </wgt>
<wgt id='1468'> +1.2784381e-12 </wgt>
<wgt id='1469'> +1.2882694e-12 </wgt>
<wgt id='1470'> +1.3067497e-12 </wgt>
<wgt id='1471'> +1.3137699e-12 </wgt>
<wgt id='1472'> +1.3226178e-12 </wgt>
<wgt id='1473'> +1.2976080e-12 </wgt>
<wgt id='1474'> +1.2954427e-12 </wgt>
<wgt id='1475'> +1.2963159e-12 </wgt>
<wgt id='1476'> +1.2984394e-12 </wgt>
<wgt id='1477'> +1.2991473e-12 </wgt>
<wgt id='1478'> +1.3469181e-12 </wgt>
<wgt id='1479'> +1.3458936e-12 </wgt>
<wgt id='1480'> +1.3529880e-12 </wgt>
<wgt id='1481'> +1.3664575e-12 </wgt>
<wgt id='1482'> +1.3497457e-12 </wgt>
<wgt id='1483'> +1.3275904e-12 </wgt>
<wgt id='1484'> +1.3501912e-12 </wgt>
<wgt id='1485'> +1.3551487e-12 </wgt>
<wgt id='1486'> +1.3468794e-12 </wgt>
<wgt id='1487'> +1.3279497e-12 </wgt>
<wgt id='1488'> +1.3445732e-12 </wgt>
<wgt id='1489'> +1.3471827e-12 </wgt>
<wgt id='1490'> +1.3421731e-12 </wgt>
<wgt id='1491'> +1.3544657e-12 </wgt>
<wgt id='1492'> +1.3459681e-12 </wgt>
<wgt id='1493'> +1.3233225e-12 </wgt>
<wgt id='1494'> +1.3418621e-12 </wgt>
<wgt id='1495'> +1.3502740e-12 </wgt>
<wgt id='1496'> +1.3499880e-12 </wgt>
<wgt id='1497'> +1.3171219e-12 </wgt>
<wgt id='1498'> +1.3453262e-12 </wgt>
<wgt id='1499'> +1.3494005e-12 </wgt>
<wgt id='1500'> +1.3451171e-12 </wgt>
<wgt id='1501'> +1.3476755e-12 </wgt>
<wgt id='1502'> +1.3518596e-12 </wgt>
<wgt id='1503'> +1.3509756e-12 </wgt>
<wgt id='1504'> +1.3453105e-12 </wgt>
<wgt id='1505'> +1.3459775e-12 </wgt>
<wgt id='1506'> +1.3479946e-12 </wgt>
<wgt id='1507'> +1.3451169e-12 </wgt>
<wgt id='1508'> +1.3555303e-12 </wgt>
<wgt id='1509'> +1.3155332e-12 </wgt>
<wgt id='1510'> +1.3172783e-12 </wgt>
<wgt id='1511'> +1.3024408e-12 </wgt>
<wgt id='1512'> +1.3028916e-12 </wgt>
<wgt id='1513'> +1.3209899e-12 </wgt>
<wgt id='1514'> +1.3217273e-12 </wgt>
<wgt id='1515'> +1.3153940e-12 </wgt>
<wgt id='1516'> +1.3234962e-12 </wgt>
<wgt id='1517'> +1.3210239e-12 </wgt>
<wgt id='1518'> +1.3219602e-12 </wgt>
<wgt id='1519'> +1.3095442e-12 </wgt>
<wgt id='1520'> +1.3130304e-12 </wgt>
<wgt id='1521'> +1.3211437e-12 </wgt>
<wgt id='1522'> +1.3128218e-12 </wgt>
<wgt id='1523'> +1.3191055e-12 </wgt>
<wgt id='1524'> +1.3161871e-12 </wgt>
<wgt id='1525'> +1.3207627e-12 </wgt>
<wgt id='1526'> +1.3109983e-12 </wgt>
<wgt id='1527'> +1.3105872e-12 </wgt>
<wgt id='1528'> +1.3175189e-12 </wgt>
<wgt id='1529'> +1.3132298e-12 </wgt>
<wgt id='1530'> +1.3212343e-12 </wgt>
<wgt id='1531'> +1.3163068e-12 </wgt>
<wgt id='1532'> +1.3134281e-12 </wgt>
<wgt id='1533'> +1.3156966e-12 </wgt>
<wgt id='1534'> +1.3153453e-12 </wgt>
<wgt id='1535'> +1.3065743e-12 </wgt>
<wgt id='1536'> +1.3132748e-12 </wgt>
<wgt id='1537'> +1.3204046e-12 </wgt>
<wgt id='1538'> +1.3149329e-12 </wgt>
<wgt id='1539'> +1.3035918e-12 </wgt>
<wgt id='1540'> +1.3228300e-12 </wgt>
<wgt id='1541'> +1.3246973e-12 </wgt>
<wgt id='1542'> +1.3172262e-12 </wgt>
<wgt id='1543'> +1.3072120e-12 </wgt>
<wgt id='1544'> +1.3347605e-12 </wgt>
<wgt id='1545'> +1.3230592e-12 </wgt>
<wgt id='1546'> +1.3091817e-12 </wgt>
<wgt id='1547'> +1.3228778e-12 </wgt>
<wgt id='1548'> +1.3112830e-12 </wgt>
<wgt id='1549'> +1.3171462e-12 </wgt>
<wgt id='1550'> +1.3166763e-12 </wgt>
<wgt id='1551'> +1.3189373e-12 </wgt>
<wgt id='1552'> +1.3121186e-12 </wgt>
<wgt id='1553'> +1.3196993e-12 </wgt>
<wgt id='1554'> +1.3113251e-12 </wgt>
<wgt id='1555'> +1.3147912e-12 </wgt>
<wgt id='1556'> +1.3111426e-12 </wgt>
<wgt id='1557'> +1.3188061e-12 </wgt>
<wgt id='1558'> +1.3183314e-12 </wgt>
<wgt id='1559'> +1.3163793e-12 </wgt>
<wgt id='1560'> +1.3188939e-12 </wgt>
<wgt id='1561'> +1.3117802e-12 </wgt>
<wgt id='1562'> +1.3150208e-12 </wgt>
<wgt id='1563'> +1.3184826e-12 </wgt>
<wgt id='1564'> +1.3147614e-12 </wgt>
<wgt id='1565'> +1.3165346e-12 </wgt>
<wgt id='1566'> +1.3162758e-12 </wgt>
<wgt id='1567'> +1.3230276e-12 </wgt>
<wgt id='1568'> +1.3151760e-12 </wgt>
<wgt id='1569'> +1.3126023e-12 </wgt>
<wgt id='1570'> +1.3166020e-12 </wgt>
<wgt id='1571'> +1.3138682e-12 </wgt>
<wgt id='1572'> +1.3122636e-12 </wgt>
<wgt id='1573'> +1.3079426e-12 </wgt>
<wgt id='1574'> +1.3185342e-12 </wgt>
<wgt id='1575'> +1.3171573e-12 </wgt>
<wgt id='1576'> +1.3169680e-12 </wgt>
<wgt id='1577'> +1.3168506e-12 </wgt>
<wgt id='1578'> +1.3177840e-12 </wgt>
<wgt id='1579'> +1.3134486e-12 </wgt>
<wgt id='1580'> +1.3127218e-12 </wgt>
<wgt id='1581'> +1.3134256e-12 </wgt>
<wgt id='1582'> +1.3174879e-12 </wgt>
<wgt id='1583'> +1.3170140e-12 </wgt>
<wgt id='1584'> +1.3176125e-12 </wgt>
<wgt id='1585'> +1.3152535e-12 </wgt>
<wgt id='1586'> +1.3144446e-12 </wgt>
<wgt id='1587'> +1.3171632e-12 </wgt>
<wgt id='1588'> +1.3123492e-12 </wgt>
<wgt id='1589'> +1.3173958e-12 </wgt>
<wgt id='1590'> +1.3175564e-12 </wgt>
<wgt id='1591'> +1.3172523e-12 </wgt>
<wgt id='1592'> +1.3161999e-12 </wgt>
<wgt id='1593'> +1.3157201e-12 </wgt>
<wgt id='1594'> +1.3155016e-12 </wgt>
<wgt id='1595'> +1.3173030e-12 </wgt>
<wgt id='1596'> +1.3128920e-12 </wgt>
<wgt id='1597'> +1.3155925e-12 </wgt>
<wgt id='1598'> +1.3155214e-12 </wgt>
<wgt id='1599'> +1.3117534e-12 </wgt>
<wgt id='1600'> +1.3118380e-12 </wgt>
<wgt id='1601'> +1.3156490e-12 </wgt>
<wgt id='1602'> +1.3154826e-12 </wgt>
<wgt id='1603'> +1.3159839e-12 </wgt>
<wgt id='1604'> +1.3149579e-12 </wgt>
<wgt id='1605'> +1.3165417e-12 </wgt>
<wgt id='1606'> +1.3159884e-12 </wgt>
<wgt id='1607'> +1.3131882e-12 </wgt>
<wgt id='1608'> +1.3170626e-12 </wgt>
<wgt id='1609'> +1.3180972e-12 </wgt>
<wgt id='1610'> +1.3158163e-12 </wgt>
<wgt id='1611'> +1.3158949e-12 </wgt>
<wgt id='1612'> +1.5953061e-12 </wgt>
<wgt id='1613'> +1.6574769e-12 </wgt>
<wgt id='1614'> +1.5990967e-12 </wgt>
<wgt id='1615'> +1.5743395e-12 </wgt>
<wgt id='1616'> +1.5790261e-12 </wgt>
<wgt id='1617'> +1.5909909e-12 </wgt>
<wgt id='1618'> +1.7228338e-12 </wgt>
<wgt id='1619'> +1.5780999e-12 </wgt>
<wgt id='1620'> +1.5091089e-12 </wgt>
<wgt id='1621'> +1.6359844e-12 </wgt>
<wgt id='1622'> +1.5594822e-12 </wgt>
<wgt id='1623'> +1.6645117e-12 </wgt>
<wgt id='1624'> +1.6292582e-12 </wgt>
<wgt id='1625'> +1.5856899e-12 </wgt>
<wgt id='1626'> +1.5359182e-12 </wgt>
<wgt id='1627'> +1.6494810e-12 </wgt>
<wgt id='1628'> +1.7114918e-12 </wgt>
<wgt id='1629'> +1.6027637e-12 </wgt>
<wgt id='1630'> +1.5084276e-12 </wgt>
<wgt id='1631'> +1.5776071e-12 </wgt>
<wgt id='1632'> +1.5107900e-12 </wgt>
<wgt id='1633'> +1.5017620e-12 </wgt>
<wgt id='1634'> +1.6186907e-12 </wgt>
<wgt id='1635'> +1.5736771e-12 </wgt>
<wgt id='1636'> +1.6147847e-12 </wgt>
<wgt id='1637'> +1.5738643e-12 </wgt>
<wgt id='1638'> +1.6262224e-12 </wgt>
<wgt id='1639'> +1.5169304e-12 </wgt>
<wgt id='1640'> +1.5425488e-12 </wgt>
<wgt id='1641'> +1.5921809e-12 </wgt>
<wgt id='1642'> +1.5057948e-12 </wgt>
<wgt id='1643'> +1.6557938e-12 </wgt>
<wgt id='1644'> +1.5173532e-12 </wgt>
<wgt id='1645'> +1.5939564e-12 </wgt>
<wgt id='1646'> +1.5563477e-12 </wgt>
<wgt id='1647'> +1.6315026e-12 </wgt>
<wgt id='1648'> +1.5867229e-12 </wgt>
<wgt id='1649'> +1.7771310e-12 </wgt>
<wgt id='1650'> +1.6039261e-12 </wgt>
<wgt id='1651'> +1.5515427e-12 </wgt>
<wgt id='1652'> +1.5709409e-12 </wgt>
<wgt id='1653'> +1.6317099e-12 </wgt>
<wgt id='1654'> +1.6997255e-12 </wgt>
<wgt id='1655'> +1.6612629e-12 </wgt>
<wgt id='1656'> +1.6177046e-12 </wgt>
<wgt id='1657'> +1.6329178e-12 </wgt>
<wgt id='1658'> +1.5182301e-12 </wgt>
<wgt id='1659'> +1.6292582e-12 </wgt>
<wgt id='1660'> +1.6657510e-12 </wgt>
<wgt id='1661'> +1.6359979e-12 </wgt>
<wgt id='1662'> +1.5890506e-12 </wgt>
<wgt id='1663'> +1.5269838e-12 </wgt>
<wgt id='1664'> +1.6213876e-12 </wgt>
<wgt id='1665'> +1.5413158e-12 </wgt>
<wgt id='1666'> +1.6105030e-12 </wgt>
<wgt id='1667'> +1.6131345e-12 </wgt>
<wgt id='1668'> +1.6299273e-12 </wgt>
<wgt id='1669'> +1.6186498e-12 </wgt>
<wgt id='1670'> +1.5644404e-12 </wgt>
<wgt id='1671'> +1.5675902e-12 </wgt>
<wgt id='1672'> +1.6071884e-12 </wgt>
<wgt id='1673'> +1.5477097e-12 </wgt>
<wgt id='1674'> +1.5987388e-12 </wgt>
<wgt id='1675'> +1.6433716e-12 </wgt>
<wgt id='1676'> +1.6391448e-12 </wgt>
<wgt id='1677'> +1.5044211e-12 </wgt>
<wgt id='1678'> +1.5266314e-12 </wgt>
<wgt id='1679'> +1.5549079e-12 </wgt>
<wgt id='1680'> +1.7361563e-12 </wgt>
<wgt id='1681'> +1.6053159e-12 </wgt>
<wgt id='1682'> +1.5870386e-12 </wgt>
<wgt id='1683'> +1.5697495e-12 </wgt>
<wgt id='1684'> +1.5958608e-12 </wgt>
<wgt id='1685'> +1.6277157e-12 </wgt>
<wgt id='1686'> +1.6169849e-12 </wgt>
<wgt id='1687'> +1.5919574e-12 </wgt>
<wgt id='1688'> +1.5793887e-12 </wgt>
<wgt id='1689'> +1.5294791e-12 </wgt>
<wgt id='1690'> +1.5725572e-12 </wgt>
<wgt id='1691'> +1.5865095e-12 </wgt>
<wgt id='1692'> +1.5817841e-12 </wgt>
<wgt id='1693'> +1.5051513e-12 </wgt>
<wgt id='1694'> +1.6166252e-12 </wgt>
<wgt id='1695'> +1.5420576e-12 </wgt>
<wgt id='1696'> +1.5359071e-12 </wgt>
<wgt id='1697'> +1.5945847e-12 </wgt>
<wgt id='1698'> +1.6033986e-12 </wgt>
<wgt id='1699'> +1.6074251e-12 </wgt>
<wgt id='1700'> +1.6061491e-12 </wgt>
<wgt id='1701'> +1.5755560e-12 </wgt>
<wgt id='1702'> +1.6269147e-12 </wgt>
<wgt id='1703'> +1.5593372e-12 </wgt>
<wgt id='1704'> +1.6255868e-12 </wgt>
<wgt id='1705'> +1.4656833e-12 </wgt>
<wgt id='1706'> +1.6478601e-12 </wgt>
<wgt id='1707'> +1.6178700e-12 </wgt>
<wgt id='1708'> +1.6263370e-12 </wgt>
<wgt id='1709'> +1.6492958e-12 </wgt>
<wgt id='1710'> +1.5647087e-12 </wgt>
<wgt id='1711'> +1.6416889e-12 </wgt>
<wgt id='1712'> +1.6582376e-12 </wgt>
<wgt id='1713'> +1.3203207e-12 </wgt>
<wgt id='1714'> +1.2187783e-12 </wgt>
<wgt id='1715'> +1.2507373e-12 </wgt>
<wgt id='1716'> +1.3171082e-12 </wgt>
<wgt id='1717'> +1.3246969e-12 </wgt>
<wgt id='1718'> +1.3635691e-12 </wgt>
<wgt id='1719'> +1.2912798e-12 </wgt>
<wgt id='1720'> +1.3469555e-12 </wgt>
<wgt id='1721'> +1.3229805e-12 </wgt>
<wgt id='1722'> +1.3293835e-12 </wgt>
<wgt id='1723'> +1.3987468e-12 </wgt>
<wgt id='1724'> +1.2712841e-12 </wgt>
<wgt id='1725'> +1.3135287e-12 </wgt>
<wgt id='1726'> +1.3597002e-12 </wgt>
<wgt id='1727'> +1.3517896e-12 </wgt>
<wgt id='1728'> +1.3001393e-12 </wgt>
<wgt id='1729'> +1.3043049e-12 </wgt>
<wgt id='1730'> +1.3065894e-12 </wgt>
<wgt id='1731'> +1.2644376e-12 </wgt>
<wgt id='1732'> +1.3353201e-12 </wgt>
<wgt id='1733'> +1.3664391e-12 </wgt>
<wgt id='1734'> +1.3658570e-12 </wgt>
<wgt id='1735'> +1.3410540e-12 </wgt>
<wgt id='1736'> +1.3552964e-12 </wgt>
<wgt id='1737'> +1.4290596e-12 </wgt>
<wgt id='1738'> +1.3248852e-12 </wgt>
<wgt id='1739'> +1.3557931e-12 </wgt>
<wgt id='1740'> +1.2915177e-12 </wgt>
<wgt id='1741'> +1.3525383e-12 </wgt>
<wgt id='1742'> +1.3192418e-12 </wgt>
<wgt id='1743'> +1.3492359e-12 </wgt>
<wgt id='1744'> +1.4012062e-12 </wgt>
<wgt id='1745'> +1.3386664e-12 </wgt>
<wgt id='1746'> +1.3336220e-12 </wgt>
<wgt id='1747'> +1.3461062e-12 </wgt>
<wgt id='1748'> +1.3518356e-12 </wgt>
<wgt id='1749'> +1.3133356e-12 </wgt>
<wgt id='1750'> +1.3457191e-12 </wgt>
<wgt id='1751'> +1.3297706e-12 </wgt>
<wgt id='1752'> +1.2991799e-12 </wgt>
<wgt id='1753'> +1.3362244e-12 </wgt>
<wgt id='1754'> +1.2401375e-12 </wgt>
<wgt id='1755'> +1.3076891e-12 </wgt>
<wgt id='1756'> +1.3682082e-12 </wgt>
<wgt id='1757'> +1.3292554e-12 </wgt>
<wgt id='1758'> +1.3715150e-12 </wgt>
<wgt id='1759'> +1.2667592e-12 </wgt>
<wgt id='1760'> +1.2971950e-12 </wgt>
<wgt id='1761'> +1.3246447e-12 </wgt>
<wgt id='1762'> +1.3420214e-12 </wgt>
<wgt id='1763'> +1.3089767e-12 </wgt>
<wgt id='1764'> +1.3224064e-12 </wgt>
<wgt id='1765'> +1.3179688e-12 </wgt>
<wgt id='1766'> +1.4003731e-12 </wgt>
<wgt id='1767'> +1.3196244e-12 </wgt>
<wgt id='1768'> +1.3450541e-12 </wgt>
<wgt id='1769'> +1.2876083e-12 </wgt>
<wgt id='1770'> +1.2307503e-12 </wgt>
<wgt id='1771'> +1.3161258e-12 </wgt>
<wgt id='1772'> +1.3581706e-12 </wgt>
<wgt id='1773'> +1.3499811e-12 </wgt>
<wgt id='1774'> +1.3016463e-12 </wgt>
<wgt id='1775'> +1.3116420e-12 </wgt>
<wgt id='1776'> +1.3129097e-12 </wgt>
<wgt id='1777'> +1.2498730e-12 </wgt>
<wgt id='1778'> +1.3133816e-12 </wgt>
<wgt id='1779'> +1.3613305e-12 </wgt>
<wgt id='1780'> +1.3281432e-12 </wgt>
<wgt id='1781'> +1.3491174e-12 </wgt>
<wgt id='1782'> +1.3615650e-12 </wgt>
<wgt id='1783'> +1.3719945e-12 </wgt>
<wgt id='1784'> +1.2955343e-12 </wgt>
<wgt id='1785'> +1.3245968e-12 </wgt>
<wgt id='1786'> +1.2340053e-12 </wgt>
<wgt id='1787'> +1.3696380e-12 </wgt>
<wgt id='1788'> +1.2627528e-12 </wgt>
<wgt id='1789'> +1.3694187e-12 </wgt>
<wgt id='1790'> +1.3365023e-12 </wgt>
<wgt id='1791'> +1.2890712e-12 </wgt>
<wgt id='1792'> +1.2877606e-12 </wgt>
<wgt id='1793'> +1.3542479e-12 </wgt>
<wgt id='1794'> +1.3226433e-12 </wgt>
<wgt id='1795'> +1.3386664e-12 </wgt>
<wgt id='1796'> +1.2790726e-12 </wgt>
<wgt id='1797'> +1.3159594e-12 </wgt>
<wgt id='1798'> +1.3062350e-12 </wgt>
<wgt id='1799'> +1.2738293e-12 </wgt>
<wgt id='1800'> +1.2834878e-12 </wgt>
<wgt id='1801'> +1.2660946e-12 </wgt>
<wgt id='1802'> +1.2589866e-12 </wgt>
<wgt id='1803'> +1.3547465e-12 </wgt>
<wgt id='1804'> +1.3335189e-12 </wgt>
<wgt id='1805'> +1.3635307e-12 </wgt>
<wgt id='1806'> +1.2988362e-12 </wgt>
<wgt id='1807'> +1.2579269e-12 </wgt>
<wgt id='1808'> +1.3067397e-12 </wgt>
<wgt id='1809'> +1.3048333e-12 </wgt>
<wgt id='1810'> +1.3110990e-12 </wgt>
<wgt id='1811'> +1.3181884e-12 </wgt>
<wgt id='1812'> +1.2708691e-12 </wgt>
<wgt id='1813'> +1.2641790e-12 </wgt>
<wgt id='1814'> +1.7650588e-12 </wgt>
<wgt id='1815'> +2.0950192e-12 </wgt>
<wgt id='1816'> +1.3203207e-12 </wgt>
<wgt id='1817'> +1.2187783e-12 </wgt>
<wgt id='1818'> +1.2507373e-12 </wgt>
<wgt id='1819'> +1.3171082e-12 </wgt>
<wgt id='1820'> +1.3246969e-12 </wgt>
<wgt id='1821'> +1.3635691e-12 </wgt>
<wgt id='1822'> +1.2912798e-12 </wgt>
<wgt id='1823'> +1.3469555e-12 </wgt>
<wgt id='1824'> +1.3229805e-12 </wgt>
<wgt id='1825'> +1.3293835e-12 </wgt>
<wgt id='1826'> +1.3987468e-12 </wgt>
<wgt id='1827'> +1.2712841e-12 </wgt>
<wgt id='1828'> +1.3135287e-12 </wgt>
<wgt id='1829'> +1.3597002e-12 </wgt>
<wgt id='1830'> +1.3517896e-12 </wgt>
<wgt id='1831'> +1.3001393e-12 </wgt>
<wgt id='1832'> +1.3043049e-12 </wgt>
<wgt id='1833'> +1.3065894e-12 </wgt>
<wgt id='1834'> +1.2644376e-12 </wgt>
<wgt id='1835'> +1.3353201e-12 </wgt>
<wgt id='1836'> +1.3664391e-12 </wgt>
<wgt id='1837'> +1.3658570e-12 </wgt>
<wgt id='1838'> +1.3410540e-12 </wgt>
<wgt id='1839'> +1.3552964e-12 </wgt>
<wgt id='1840'> +1.4290596e-12 </wgt>
<wgt id='1841'> +1.3248852e-12 </wgt>
<wgt id='1842'> +1.3557931e-12 </wgt>
<wgt id='1843'> +1.2915177e-12 </wgt>
<wgt id='1844'> +1.3525383e-12 </wgt>
<wgt id='1845'> +1.3192418e-12 </wgt>
<wgt id='1846'> +1.3492359e-12 </wgt>
<wgt id='1847'> +1.4012062e-12 </wgt>
<wgt id='1848'> +1.3386664e-12 </wgt>
<wgt id='1849'> +1.3336220e-12 </wgt>
<wgt id='1850'> +1.3461062e-12 </wgt>
<wgt id='1851'> +1.3518356e-12 </wgt>
<wgt id='1852'> +1.3133356e-12 </wgt>
<wgt id='1853'> +1.3457191e-12 </wgt>
<wgt id='1854'> +1.3297706e-12 </wgt>
<wgt id='1855'> +1.2991799e-12 </wgt>
<wgt id='1856'> +1.3362244e-12 </wgt>
<wgt id='1857'> +1.2401375e-12 </wgt>
<wgt id='1858'> +1.3076891e-12 </wgt>
<wgt id='1859'> +1.3682082e-12 </wgt>
<wgt id='1860'> +1.3292554e-12 </wgt>
<wgt id='1861'> +1.3715150e-12 </wgt>
<wgt id='1862'> +1.2667592e-12 </wgt>
<wgt id='1863'> +1.2971950e-12 </wgt>
<wgt id='1864'> +1.3246447e-12 </wgt>
<wgt id='1865'> +1.3420214e-12 </wgt>
<wgt id='1866'> +1.3089767e-12 </wgt>
<wgt id='1867'> +1.3224064e-12 </wgt>
<wgt id='1868'> +1.3179688e-12 </wgt>
<wgt id='1869'> +1.4003731e-12 </wgt>
<wgt id='1870'> +1.3196244e-12 </wgt>
<wgt id='1871'> +1.3450541e-12 </wgt>
<wgt id='1872'> +1.2876083e-12 </wgt>
<wgt id='1873'> +1.2307503e-12 </wgt>
<wgt id='1874'> +1.3161258e-12 </wgt>
<wgt id='1875'> +1.3581706e-12 </wgt>
<wgt id='1876'> +1.3499811e-12 </wgt>
<wgt id='1877'> +1.3016463e-12 </wgt>
<wgt id='1878'> +1.3116420e-12 </wgt>
<wgt id='1879'> +1.3129097e-12 </wgt>
<wgt id='1880'> +1.2498730e-12 </wgt>
<wgt id='1881'> +1.3133816e-12 </wgt>
<wgt id='1882'> +1.3613305e-12 </wgt>
<wgt id='1883'> +1.3281432e-12 </wgt>
<wgt id='1884'> +1.3491174e-12 </wgt>
<wgt id='1885'> +1.3615650e-12 </wgt>
<wgt id='1886'> +1.3719945e-12 </wgt>
<wgt id='1887'> +1.2955343e-12 </wgt>
<wgt id='1888'> +1.3245968e-12 </wgt>
<wgt id='1889'> +1.2340053e-12 </wgt>
<wgt id='1890'> +1.3696380e-12 </wgt>
<wgt id='1891'> +1.2627528e-12 </wgt>
<wgt id='1892'> +1.3694187e-12 </wgt>
<wgt id='1893'> +1.3365023e-12 </wgt>
<wgt id='1894'> +1.2890712e-12 </wgt>
<wgt id='1895'> +1.2877606e-12 </wgt>
<wgt id='1896'> +1.3542479e-12 </wgt>
<wgt id='1897'> +1.3226433e-12 </wgt>
<wgt id='1898'> +1.3386664e-12 </wgt>
<wgt id='1899'> +1.2790726e-12 </wgt>
<wgt id='1900'> +1.3159594e-12 </wgt>
<wgt id='1901'> +1.3062350e-12 </wgt>
<wgt id='1902'> +1.2738293e-12 </wgt>
<wgt id='1903'> +1.2834878e-12 </wgt>
<wgt id='1904'> +1.2660946e-12 </wgt>
<wgt id='1905'> +1.2589866e-12 </wgt>
<wgt id='1906'> +1.3547465e-12 </wgt>
<wgt id='1907'> +1.3335189e-12 </wgt>
<wgt id='1908'> +1.3635307e-12 </wgt>
<wgt id='1909'> +1.2988362e-12 </wgt>
<wgt id='1910'> +1.2579269e-12 </wgt>
<wgt id='1911'> +1.3067397e-12 </wgt>
<wgt id='1912'> +1.3048333e-12 </wgt>
<wgt id='1913'> +1.3110990e-12 </wgt>
<wgt id='1914'> +1.3181884e-12 </wgt>
<wgt id='1915'> +1.2708691e-12 </wgt>
<wgt id='1916'> +1.2641790e-12 </wgt>
<wgt id='1917'> +1.3119056e-12 </wgt>
<wgt id='1918'> +1.3295817e-12 </wgt>
<wgt id='1919'> +1.2610385e-12 </wgt>
</rwgt>
</event>
<event>
 9      1 +1.5538000e-12 3.54110700e+01 7.81860800e-03 1.40160000e-01
        2 -1    0    0  502    0 +0.0000000000e+00 +0.0000000000e+00 +5.1947809228e+01 5.1947809228e+01 0.0000000000e+00 0.0000e+00 1.0000e+00
       -2 -1    0    0    0  501 -0.0000000000e+00 -0.0000000000e+00 -2.2581297946e+01 2.2581297946e+01 0.0000000000e+00 0.0000e+00 -1.0000e+00
     1023  2    1    2    0    0 -2.1303983268e+01 -2.3981045720e+01 +9.0152765592e+00 3.6540648246e+01 1.4999783530e+01 0.0000e+00 0.0000e+00
  1000023  2    3    3    0    0 -4.0955575974e+00 -1.1207756817e+01 +5.5388811878e+00 1.4261237387e+01 5.5060223483e+00 0.0000e+00 0.0000e+00
       21  1    1    2  502  501 +2.1303983268e+01 +2.3981045720e+01 +2.0351234723e+01 3.7988458927e+01 0.0000000000e+00 0.0000e+00 -1.0000e+00
  1000022  1    4    4    0    0 -4.0142128067e+00 -1.0010096810e+01 +5.1691968671e+00 1.2962890837e+01 5.0000000000e+00 0.0000e+00 1.0000e+00
      -13  1    4    4    0    0 +4.2514650809e-02 -8.8209930563e-01 +2.5745091650e-01 9.2593744115e-01 1.0570000000e-01 0.0000e+00 -1.0000e+00
       13  1    4    4    0    0 -1.2385944145e-01 -3.1556070064e-01 +1.1223340419e-01 3.7240910843e-01 1.0570000000e-01 0.0000e+00 1.0000e+00
  1000022  1    3    3    0    0 -1.7208425671e+01 -1.2773288903e+01 +3.4763953714e+00 2.2279410859e+01 5.0000000000e+00 0.0000e+00 1.0000e+00
<mgrwt>
<rscale>  1 0.35411068E+02</rscale>
<asrwt>0</asrwt>
<pdfrwt beam="1">  1        2 0.79919706E-02 0.35411068E+02</pdfrwt>
<pdfrwt beam="2">  1       -2 0.34740458E-02 0.35411068E+02</pdfrwt>
<totfact> 0.25678561E+05</totfact>
</mgrwt>
<rwgt>
<wgt id='1001'> +1.5538000e-12 </wgt>
<wgt id='1002'> +1.5807366e-12 </wgt>
<wgt id='1003'> +1.5808233e-12 </wgt>
<wgt id='1004'> +1.5506309e-12 </wgt>
<wgt id='1005'> +1.5813272e-12 </wgt>
<wgt id='1006'> +1.3656204e-12 </wgt>
<wgt id='1007'> +1.4095881e-12 </wgt>
<wgt id='1008'> +1.4097561e-12 </wgt>
<wgt id='1009'> +1.3609923e-12 </wgt>
<wgt id='1010'> +1.4107402e-12 </wgt>
<wgt id='1011'> +1.8050077e-12 </wgt>
<wgt id='1012'> +1.8011455e-12 </wgt>
<wgt id='1013'> +1.8010929e-12 </wgt>
<wgt id='1014'> +1.8046571e-12 </wgt>
<wgt id='1015'> +1.8007769e-12 </wgt>
<wgt id='1016'> +1.8001991e-12 </wgt>
<wgt id='1017'> +1.7841008e-12 </wgt>
<wgt id='1018'> +1.7840018e-12 </wgt>
<wgt id='1019'> +1.8010929e-12 </wgt>
<wgt id='1020'> +1.7834102e-12 </wgt>
<wgt id='1021'> +1.5821782e-12 </wgt>
<wgt id='1022'> +1.5909338e-12 </wgt>
<wgt id='1023'> +1.5909478e-12 </wgt>
<wgt id='1024'> +1.5808233e-12 </wgt>
<wgt id='1025'> +1.5910232e-12 </wgt>
<wgt id='1026'> +2.0912429e-12 </wgt>
<wgt id='1027'> +2.0328657e-12 </wgt>
<wgt id='1028'> +2.0325819e-12 </wgt>
<wgt id='1029'> +2.0961501e-12 </wgt>
<wgt id='1030'> +2.0309040e-12 </wgt>
<wgt id='1031'> +1.2881360e-12 </wgt>
<wgt id='1032'> +1.3607023e-12 </wgt>
<wgt id='1033'> +1.3609923e-12 </wgt>
<wgt id='1034'> +1.2807208e-12 </wgt>
<wgt id='1035'> +1.3626909e-12 </wgt>
<wgt id='1036'> +1.1321308e-12 </wgt>
<wgt id='1037'> +1.2133772e-12 </wgt>
<wgt id='1038'> +1.2137139e-12 </wgt>
<wgt id='1039'> +1.1240916e-12 </wgt>
<wgt id='1040'> +1.2156894e-12 </wgt>
<wgt id='1041'> +1.4963930e-12 </wgt>
<wgt id='1042'> +1.5504309e-12 </wgt>
<wgt id='1043'> +1.5506309e-12 </wgt>
<wgt id='1044'> +1.4905300e-12 </wgt>
<wgt id='1045'> +1.5517992e-12 </wgt>
<wgt id='1046'> +1.5538000e-12 </wgt>
<wgt id='1047'> +1.6607142e-12 </wgt>
<wgt id='1048'> +1.5219336e-12 </wgt>
<wgt id='1049'> +1.5090766e-12 </wgt>
<wgt id='1050'> +1.5220966e-12 </wgt>
<wgt id='1051'> +1.5401780e-12 </wgt>
<wgt id='1052'> +1.5940277e-12 </wgt>
<wgt id='1053'> +1.5385108e-12 </wgt>
<wgt id='1054'> +1.5113565e-12 </wgt>
<wgt id='1055'> +1.4841143e-12 </wgt>
<wgt id='1056'> +1.5415429e-12 </wgt>
<wgt id='1057'> +1.5946022e-12 </wgt>
<wgt id='1058'> +1.4897883e-12 </wgt>
<wgt id='1059'> +1.5421095e-12 </wgt>
<wgt id='1060'> +1.5949547e-12 </wgt>
<wgt id='1061'> +1.5487534e-12 </wgt>
<wgt id='1062'> +1.5542669e-12 </wgt>
<wgt id='1063'> +1.5860048e-12 </wgt>
<wgt id='1064'> +1.5315180e-12 </wgt>
<wgt id='1065'> +1.5449049e-12 </wgt>
<wgt id='1066'> +1.4966819e-12 </wgt>
<wgt id='1067'> +1.4948090e-12 </wgt>
<wgt id='1068'> +1.5618112e-12 </wgt>
<wgt id='1069'> +1.5658517e-12 </wgt>
<wgt id='1070'> +1.5098253e-12 </wgt>
<wgt id='1071'> +1.4871639e-12 </wgt>
<wgt id='1072'> +1.6071512e-12 </wgt>
<wgt id='1073'> +1.5976962e-12 </wgt>
<wgt id='1074'> +1.5417830e-12 </wgt>
<wgt id='1075'> +1.5753713e-12 </wgt>
<wgt id='1076'> +1.5790607e-12 </wgt>
<wgt id='1077'> +1.5993984e-12 </wgt>
<wgt id='1078'> +1.5181934e-12 </wgt>
<wgt id='1079'> +1.5598721e-12 </wgt>
<wgt id='1080'> +1.5262294e-12 </wgt>
<wgt id='1081'> +1.6034508e-12 </wgt>
<wgt id='1082'> +1.5310659e-12 </wgt>
<wgt id='1083'> +1.5370063e-12 </wgt>
<wgt id='1084'> +1.5337123e-12 </wgt>
<wgt id='1085'> +1.5587937e-12 </wgt>
<wgt id='1086'> +1.5921665e-12 </wgt>
<wgt id='1087'> +1.5808201e-12 </wgt>
<wgt id='1088'> +1.5706713e-12 </wgt>
<wgt id='1089'> +1.5911595e-12 </wgt>
<wgt id='1090'> +1.5937839e-12 </wgt>
<wgt id='1091'> +1.5716031e-12 </wgt>
<wgt id='1092'> +1.5910276e-12 </wgt>
<wgt id='1093'> +1.5709741e-12 </wgt>
<wgt id='1094'> +1.5759249e-12 </wgt>
<wgt id='1095'> +1.5991447e-12 </wgt>
<wgt id='1096'> +1.5763859e-12 </wgt>
<wgt id='1097'> +1.5442570e-12 </wgt>
<wgt id='1098'> +1.5032337e-12 </wgt>
<wgt id='1099'> +1.5810289e-12 </wgt>
<wgt id='1100'> +1.5597650e-12 </wgt>
<wgt id='1101'> +1.6035947e-12 </wgt>
<wgt id='1102'> +1.5375860e-12 </wgt>
<wgt id='1103'> +1.5636612e-12 </wgt>
<wgt id='1104'> +1.5090316e-12 </wgt>
<wgt id='1105'> +1.5647800e-12 </wgt>
<wgt id='1106'> +1.5937587e-12 </wgt>
<wgt id='1107'> +1.5473905e-12 </wgt>
<wgt id='1108'> +1.5313179e-12 </wgt>
<wgt id='1109'> +1.5844883e-12 </wgt>
<wgt id='1110'> +1.5478599e-12 </wgt>
<wgt id='1111'> +1.5654327e-12 </wgt>
<wgt id='1112'> +1.6475524e-12 </wgt>
<wgt id='1113'> +1.6129388e-12 </wgt>
<wgt id='1114'> +1.5721577e-12 </wgt>
<wgt id='1115'> +1.5413422e-12 </wgt>
<wgt id='1116'> +1.5314087e-12 </wgt>
<wgt id='1117'> +1.5271818e-12 </wgt>
<wgt id='1118'> +1.6105108e-12 </wgt>
<wgt id='1119'> +1.4555843e-12 </wgt>
<wgt id='1120'> +1.5084652e-12 </wgt>
<wgt id='1121'> +1.5483019e-12 </wgt>
<wgt id='1122'> +1.6460706e-12 </wgt>
<wgt id='1123'> +1.4770718e-12 </wgt>
<wgt id='1124'> +1.5435073e-12 </wgt>
<wgt id='1125'> +1.5406363e-12 </wgt>
<wgt id='1126'> +1.6378256e-12 </wgt>
<wgt id='1127'> +1.5296234e-12 </wgt>
<wgt id='1128'> +1.5542669e-12 </wgt>
<wgt id='1129'> +1.5933589e-12 </wgt>
<wgt id='1130'> +1.5288612e-12 </wgt>
<wgt id='1131'> +1.5398861e-12 </wgt>
<wgt id='1132'> +1.5982646e-12 </wgt>
<wgt id='1133'> +1.4997468e-12 </wgt>
<wgt id='1134'> +1.6132890e-12 </wgt>
<wgt id='1135'> +1.4706737e-12 </wgt>
<wgt id='1136'> +1.5402046e-12 </wgt>
<wgt id='1137'> +1.5250337e-12 </wgt>
<wgt id='1138'> +1.5399276e-12 </wgt>
<wgt id='1139'> +1.5310708e-12 </wgt>
<wgt id='1140'> +1.5670262e-12 </wgt>
<wgt id='1141'> +1.4908594e-12 </wgt>
<wgt id='1142'> +1.5552752e-12 </wgt>
<wgt id='1143'> +1.6103308e-12 </wgt>
<wgt id='1144'> +1.5431066e-12 </wgt>
<wgt id='1145'> +1.5161706e-12 </wgt>
<wgt id='1146'> +1.5053960e-12 </wgt>
<wgt id='1147'> +1.1518065e-12 </wgt>
<wgt id='1148'> +1.1810331e-12 </wgt>
<wgt id='1149'> +1.2981814e-12 </wgt>
<wgt id='1150'> +1.1932969e-12 </wgt>
<wgt id='1151'> +1.0746835e-12 </wgt>
<wgt id='1152'> +1.3396072e-12 </wgt>
<wgt id='1153'> +1.3312538e-12 </wgt>
<wgt id='1154'> +1.3444611e-12 </wgt>
<wgt id='1155'> +1.3379798e-12 </wgt>
<wgt id='1156'> +1.3404553e-12 </wgt>
<wgt id='1157'> +1.3474283e-12 </wgt>
<wgt id='1158'> +1.3291380e-12 </wgt>
<wgt id='1159'> +1.3462002e-12 </wgt>
<wgt id='1160'> +1.3354218e-12 </wgt>
<wgt id='1161'> +1.3401803e-12 </wgt>
<wgt id='1162'> +1.3392174e-12 </wgt>
<wgt id='1163'> +1.3433716e-12 </wgt>
<wgt id='1164'> +1.3359052e-12 </wgt>
<wgt id='1165'> +1.3348737e-12 </wgt>
<wgt id='1166'> +1.3442276e-12 </wgt>
<wgt id='1167'> +1.3432117e-12 </wgt>
<wgt id='1168'> +1.3344538e-12 </wgt>
<wgt id='1169'> +1.3391750e-12 </wgt>
<wgt id='1170'> +1.3399642e-12 </wgt>
<wgt id='1171'> +1.3354824e-12 </wgt>
<wgt id='1172'> +1.3443792e-12 </wgt>
<wgt id='1173'> +1.3314990e-12 </wgt>
<wgt id='1174'> +1.3467285e-12 </wgt>
<wgt id='1175'> +1.3382962e-12 </wgt>
<wgt id='1176'> +1.3400665e-12 </wgt>
<wgt id='1177'> +1.3410565e-12 </wgt>
<wgt id='1178'> +1.3357436e-12 </wgt>
<wgt id='1179'> +1.3436765e-12 </wgt>
<wgt id='1180'> +1.3305324e-12 </wgt>
<wgt id='1181'> +1.3337287e-12 </wgt>
<wgt id='1182'> +1.3454858e-12 </wgt>
<wgt id='1183'> +1.3395467e-12 </wgt>
<wgt id='1184'> +1.3396461e-12 </wgt>
<wgt id='1185'> +1.3265388e-12 </wgt>
<wgt id='1186'> +1.3467516e-12 </wgt>
<wgt id='1187'> +1.3385959e-12 </wgt>
<wgt id='1188'> +1.3399693e-12 </wgt>
<wgt id='1189'> +1.3345628e-12 </wgt>
<wgt id='1190'> +1.3328563e-12 </wgt>
<wgt id='1191'> +1.3405207e-12 </wgt>
<wgt id='1192'> +1.3380097e-12 </wgt>
<wgt id='1193'> +1.1973129e-12 </wgt>
<wgt id='1194'> +1.1963706e-12 </wgt>
<wgt id='1195'> +1.1980491e-12 </wgt>
<wgt id='1196'> +1.2066587e-12 </wgt>
<wgt id='1197'> +1.1869708e-12 </wgt>
<wgt id='1198'> +1.1954571e-12 </wgt>
<wgt id='1199'> +1.2000621e-12 </wgt>
<wgt id='1200'> +1.1992910e-12 </wgt>
<wgt id='1201'> +1.1960353e-12 </wgt>
<wgt id='1202'> +1.1970469e-12 </wgt>
<wgt id='1203'> +1.1977070e-12 </wgt>
<wgt id='1204'> +1.1952448e-12 </wgt>
<wgt id='1205'> +1.1985967e-12 </wgt>
<wgt id='1206'> +1.2000987e-12 </wgt>
<wgt id='1207'> +1.1935262e-12 </wgt>
<wgt id='1208'> +1.1903780e-12 </wgt>
<wgt id='1209'> +1.1998202e-12 </wgt>
<wgt id='1210'> +1.2011987e-12 </wgt>
<wgt id='1211'> +1.1861496e-12 </wgt>
<wgt id='1212'> +1.1997729e-12 </wgt>
<wgt id='1213'> +1.1949179e-12 </wgt>
<wgt id='1214'> +1.1796390e-12 </wgt>
<wgt id='1215'> +1.2272336e-12 </wgt>
<wgt id='1216'> +1.2024608e-12 </wgt>
<wgt id='1217'> +1.1933577e-12 </wgt>
<wgt id='1218'> +1.1984508e-12 </wgt>
<wgt id='1219'> +1.1965461e-12 </wgt>
<wgt id='1220'> +1.2007314e-12 </wgt>
<wgt id='1221'> +1.1968262e-12 </wgt>
<wgt id='1222'> +1.1968883e-12 </wgt>
<wgt id='1223'> +1.1947498e-12 </wgt>
<wgt id='1224'> +1.1991831e-12 </wgt>
<wgt id='1225'> +1.1965872e-12 </wgt>
<wgt id='1226'> +1.1918614e-12 </wgt>
<wgt id='1227'> +1.2009509e-12 </wgt>
<wgt id='1228'> +1.1933183e-12 </wgt>
<wgt id='1229'> +1.1985265e-12 </wgt>
<wgt id='1230'> +1.1871645e-12 </wgt>
<wgt id='1231'> +1.1978508e-12 </wgt>
<wgt id='1232'> +1.1978430e-12 </wgt>
<wgt id='1233'> +1.1971161e-12 </wgt>
<wgt id='1234'> +1.1973129e-12 </wgt>
<wgt id='1235'> +1.1876032e-12 </wgt>
<wgt id='1236'> +1.1911844e-12 </wgt>
<wgt id='1237'> +1.1944277e-12 </wgt>
<wgt id='1238'> +1.1997967e-12 </wgt>
<wgt id='1239'> +1.2020642e-12 </wgt>
<wgt id='1240'> +1.2041652e-12 </wgt>
<wgt id='1241'> +1.2345518e-12 </wgt>
<wgt id='1242'> +1.2303612e-12 </wgt>
<wgt id='1243'> +1.2387379e-12 </wgt>
<wgt id='1244'> +1.2263096e-12 </wgt>
<wgt id='1245'> +1.2406051e-12 </wgt>
<wgt id='1246'> +1.2341181e-12 </wgt>
<wgt id='1247'> +1.2349440e-12 </wgt>
<wgt id='1248'> +1.2344851e-12 </wgt>
<wgt id='1249'> +1.2345936e-12 </wgt>
<wgt id='1250'> +1.2410431e-12 </wgt>
<wgt id='1251'> +1.2299867e-12 </wgt>
<wgt id='1252'> +1.2322162e-12 </wgt>
<wgt id='1253'> +1.2363735e-12 </wgt>
<wgt id='1254'> +1.2327981e-12 </wgt>
<wgt id='1255'> +1.2355754e-12 </wgt>
<wgt id='1256'> +1.2375144e-12 </wgt>
<wgt id='1257'> +1.2270771e-12 </wgt>
<wgt id='1258'> +1.2579755e-12 </wgt>
<wgt id='1259'> +1.2135583e-12 </wgt>
<wgt id='1260'> +1.2368729e-12 </wgt>
<wgt id='1261'> +1.2319761e-12 </wgt>
<wgt id='1262'> +1.2327667e-12 </wgt>
<wgt id='1263'> +1.2349404e-12 </wgt>
<wgt id='1264'> +1.2323698e-12 </wgt>
<wgt id='1265'> +1.2354139e-12 </wgt>
<wgt id='1266'> +1.2314107e-12 </wgt>
<wgt id='1267'> +1.2365119e-12 </wgt>
<wgt id='1268'> +1.2350359e-12 </wgt>
<wgt id='1269'> +1.2366391e-12 </wgt>
<wgt id='1270'> +1.2299305e-12 </wgt>
<wgt id='1271'> +1.2270999e-12 </wgt>
<wgt id='1272'> +1.2336409e-12 </wgt>
<wgt id='1273'> +1.2341832e-12 </wgt>
<wgt id='1274'> +1.2383129e-12 </wgt>
<wgt id='1275'> +1.2276130e-12 </wgt>
<wgt id='1276'> +1.2371309e-12 </wgt>
<wgt id='1277'> +1.2297778e-12 </wgt>
<wgt id='1278'> +1.2350251e-12 </wgt>
<wgt id='1279'> +1.2303516e-12 </wgt>
<wgt id='1280'> +1.2344990e-12 </wgt>
<wgt id='1281'> +1.2340674e-12 </wgt>
<wgt id='1282'> +1.2345518e-12 </wgt>
<wgt id='1283'> +1.2238610e-12 </wgt>
<wgt id='1284'> +1.2279553e-12 </wgt>
<wgt id='1285'> +1.2315202e-12 </wgt>
<wgt id='1286'> +1.2373035e-12 </wgt>
<wgt id='1287'> +1.2396049e-12 </wgt>
<wgt id='1288'> +1.2414198e-12 </wgt>
<wgt id='1289'> +1.2236879e-12 </wgt>
<wgt id='1290'> +1.2249178e-12 </wgt>
<wgt id='1291'> +1.2223747e-12 </wgt>
<wgt id='1292'> +1.2130858e-12 </wgt>
<wgt id='1293'> +1.2313713e-12 </wgt>
<wgt id='1294'> +1.2209875e-12 </wgt>
<wgt id='1295'> +1.2263543e-12 </wgt>
<wgt id='1296'> +1.2197173e-12 </wgt>
<wgt id='1297'> +1.2285490e-12 </wgt>
<wgt id='1298'> +1.2258236e-12 </wgt>
<wgt id='1299'> +1.2209169e-12 </wgt>
<wgt id='1300'> +1.2252642e-12 </wgt>
<wgt id='1301'> +1.2205096e-12 </wgt>
<wgt id='1302'> +1.2224153e-12 </wgt>
<wgt id='1303'> +1.2254570e-12 </wgt>
<wgt id='1304'> +1.2240781e-12 </wgt>
<wgt id='1305'> +1.2233979e-12 </wgt>
<wgt id='1306'> +1.2242197e-12 </wgt>
<wgt id='1307'> +1.2232878e-12 </wgt>
<wgt id='1308'> +1.2346999e-12 </wgt>
<wgt id='1309'> +1.2153140e-12 </wgt>
<wgt id='1310'> +1.2263658e-12 </wgt>
<wgt id='1311'> +1.2209820e-12 </wgt>
<wgt id='1312'> +1.2276397e-12 </wgt>
<wgt id='1313'> +1.2198555e-12 </wgt>
<wgt id='1314'> +1.2221128e-12 </wgt>
<wgt id='1315'> +1.2216996e-12 </wgt>
<wgt id='1316'> +1.2298243e-12 </wgt>
<wgt id='1317'> +1.2226862e-12 </wgt>
<wgt id='1318'> +1.2283143e-12 </wgt>
<wgt id='1319'> +1.2176516e-12 </wgt>
<wgt id='1320'> +1.2334192e-12 </wgt>
<wgt id='1321'> +1.2156295e-12 </wgt>
<wgt id='1322'> +1.2211185e-12 </wgt>
<wgt id='1323'> +1.2266042e-12 </wgt>
<wgt id='1324'> +1.2199236e-12 </wgt>
<wgt id='1325'> +1.2362083e-12 </wgt>
<wgt id='1326'> +1.2196958e-12 </wgt>
<wgt id='1327'> +1.2283654e-12 </wgt>
<wgt id='1328'> +1.2256038e-12 </wgt>
<wgt id='1329'> +1.2217002e-12 </wgt>
<wgt id='1330'> +1.1909220e-12 </wgt>
<wgt id='1331'> +1.2455671e-12 </wgt>
<wgt id='1332'> +1.2411459e-12 </wgt>
<wgt id='1333'> +1.2061144e-12 </wgt>
<wgt id='1334'> +1.2165868e-12 </wgt>
<wgt id='1335'> +1.2413912e-12 </wgt>
<wgt id='1336'> +1.2216005e-12 </wgt>
<wgt id='1337'> +1.2178804e-12 </wgt>
<wgt id='1338'> +1.2220030e-12 </wgt>
<wgt id='1339'> +1.2234688e-12 </wgt>
<wgt id='1340'> +1.1864783e-12 </wgt>
<wgt id='1341'> +1.1879491e-12 </wgt>
<wgt id='1342'> +1.1849100e-12 </wgt>
<wgt id='1343'> +1.1757450e-12 </wgt>
<wgt id='1344'> +1.1937519e-12 </wgt>
<wgt id='1345'> +1.1839330e-12 </wgt>
<wgt id='1346'> +1.1888616e-12 </wgt>
<wgt id='1347'> +1.1826959e-12 </wgt>
<wgt id='1348'> +1.1906265e-12 </wgt>
<wgt id='1349'> +1.1880665e-12 </wgt>
<wgt id='1350'> +1.1848595e-12 </wgt>
<wgt id='1351'> +1.1879928e-12 </wgt>
<wgt id='1352'> +1.1831787e-12 </wgt>
<wgt id='1353'> +1.1850896e-12 </wgt>
<wgt id='1354'> +1.1889700e-12 </wgt>
<wgt id='1355'> +1.1873408e-12 </wgt>
<wgt id='1356'> +1.1859445e-12 </wgt>
<wgt id='1357'> +1.1904596e-12 </wgt>
<wgt id='1358'> +1.1820445e-12 </wgt>
<wgt id='1359'> +1.1976064e-12 </wgt>
<wgt id='1360'> +1.1768933e-12 </wgt>
<wgt id='1361'> +1.1887635e-12 </wgt>
<wgt id='1362'> +1.1836317e-12 </wgt>
<wgt id='1363'> +1.1920269e-12 </wgt>
<wgt id='1364'> +1.1829470e-12 </wgt>
<wgt id='1365'> +1.1814519e-12 </wgt>
<wgt id='1366'> +1.1872232e-12 </wgt>
<wgt id='1367'> +1.1921522e-12 </wgt>
<wgt id='1368'> +1.1853294e-12 </wgt>
<wgt id='1369'> +1.1904474e-12 </wgt>
<wgt id='1370'> +1.1814251e-12 </wgt>
<wgt id='1371'> +1.1925595e-12 </wgt>
<wgt id='1372'> +1.1790439e-12 </wgt>
<wgt id='1373'> +1.1815146e-12 </wgt>
<wgt id='1374'> +1.1906122e-12 </wgt>
<wgt id='1375'> +1.1829823e-12 </wgt>
<wgt id='1376'> +1.1989220e-12 </wgt>
<wgt id='1377'> +1.1830060e-12 </wgt>
<wgt id='1378'> +1.1908143e-12 </wgt>
<wgt id='1379'> +1.1877832e-12 </wgt>
<wgt id='1380'> +1.1848648e-12 </wgt>
<wgt id='1381'> +1.1524045e-12 </wgt>
<wgt id='1382'> +1.2068376e-12 </wgt>
<wgt id='1383'> +1.2050442e-12 </wgt>
<wgt id='1384'> +1.1663587e-12 </wgt>
<wgt id='1385'> +1.1793044e-12 </wgt>
<wgt id='1386'> +1.2031555e-12 </wgt>
<wgt id='1387'> +1.1837119e-12 </wgt>
<wgt id='1388'> +1.1792837e-12 </wgt>
<wgt id='1389'> +1.1832461e-12 </wgt>
<wgt id='1390'> +1.1863854e-12 </wgt>
<wgt id='1391'> +1.1797811e-12 </wgt>
<wgt id='1392'> +1.1285275e-12 </wgt>
<wgt id='1393'> +1.1448910e-12 </wgt>
<wgt id='1394'> +1.1626435e-12 </wgt>
<wgt id='1395'> +1.1967688e-12 </wgt>
<wgt id='1396'> +1.1806831e-12 </wgt>
<wgt id='1397'> +1.1366592e-12 </wgt>
<wgt id='1398'> +1.1467487e-12 </wgt>
<wgt id='1399'> +1.1548971e-12 </wgt>
<wgt id='1400'> +1.1628858e-12 </wgt>
<wgt id='1401'> +1.1719286e-12 </wgt>
<wgt id='1402'> +1.1877618e-12 </wgt>
<wgt id='1403'> +1.1947244e-12 </wgt>
<wgt id='1404'> +1.2006119e-12 </wgt>
<wgt id='1405'> +1.1806831e-12 </wgt>
<wgt id='1406'> +1.1772443e-12 </wgt>
<wgt id='1407'> +1.1793654e-12 </wgt>
<wgt id='1408'> +1.1820851e-12 </wgt>
<wgt id='1409'> +1.1838797e-12 </wgt>
<wgt id='1410'> +1.2416958e-12 </wgt>
<wgt id='1411'> +1.2418158e-12 </wgt>
<wgt id='1412'> +1.2415688e-12 </wgt>
<wgt id='1413'> +1.2476200e-12 </wgt>
<wgt id='1414'> +1.2358305e-12 </wgt>
<wgt id='1415'> +1.2269607e-12 </wgt>
<wgt id='1416'> +1.2476830e-12 </wgt>
<wgt id='1417'> +1.2340172e-12 </wgt>
<wgt id='1418'> +1.2493792e-12 </wgt>
<wgt id='1419'> +1.2416889e-12 </wgt>
<wgt id='1420'> +1.2417335e-12 </wgt>
<wgt id='1421'> +1.2370514e-12 </wgt>
<wgt id='1422'> +1.2437134e-12 </wgt>
<wgt id='1423'> +1.2410184e-12 </wgt>
<wgt id='1424'> +1.2425662e-12 </wgt>
<wgt id='1425'> +1.2398364e-12 </wgt>
<wgt id='1426'> +1.2437453e-12 </wgt>
<wgt id='1427'> +1.2520804e-12 </wgt>
<wgt id='1428'> +1.2358526e-12 </wgt>
<wgt id='1429'> +1.2340148e-12 </wgt>
<wgt id='1430'> +1.2521025e-12 </wgt>
<wgt id='1431'> +1.2467981e-12 </wgt>
<wgt id='1432'> +1.2381010e-12 </wgt>
<wgt id='1433'> +1.2399655e-12 </wgt>
<wgt id='1434'> +1.2426929e-12 </wgt>
<wgt id='1435'> +1.2404626e-12 </wgt>
<wgt id='1436'> +1.2446991e-12 </wgt>
<wgt id='1437'> +1.2462200e-12 </wgt>
<wgt id='1438'> +1.2412020e-12 </wgt>
<wgt id='1439'> +1.2376058e-12 </wgt>
<wgt id='1440'> +1.2508719e-12 </wgt>
<wgt id='1441'> +1.2444585e-12 </wgt>
<wgt id='1442'> +1.2367840e-12 </wgt>
<wgt id='1443'> +1.2390162e-12 </wgt>
<wgt id='1444'> +1.2476395e-12 </wgt>
<wgt id='1445'> +1.2569763e-12 </wgt>
<wgt id='1446'> +1.2358962e-12 </wgt>
<wgt id='1447'> +1.2416812e-12 </wgt>
<wgt id='1448'> +1.2434636e-12 </wgt>
<wgt id='1449'> +1.2440980e-12 </wgt>
<wgt id='1450'> +1.2397537e-12 </wgt>
<wgt id='1451'> +1.2593020e-12 </wgt>
<wgt id='1452'> +1.1980947e-12 </wgt>
<wgt id='1453'> +1.2443857e-12 </wgt>
<wgt id='1454'> +1.2228079e-12 </wgt>
<wgt id='1455'> +1.2222954e-12 </wgt>
<wgt id='1456'> +1.2519204e-12 </wgt>
<wgt id='1457'> +1.2543161e-12 </wgt>
<wgt id='1458'> +1.2359576e-12 </wgt>
<wgt id='1459'> +1.2448446e-12 </wgt>
<wgt id='1460'> +1.2352738e-12 </wgt>
<wgt id='1461'> +1.2416958e-12 </wgt>
<wgt id='1462'> +1.2217433e-12 </wgt>
<wgt id='1463'> +1.2651523e-12 </wgt>
<wgt id='1464'> +1.2431479e-12 </wgt>
<wgt id='1465'> +1.2078618e-12 </wgt>
<wgt id='1466'> +1.2165270e-12 </wgt>
<wgt id='1467'> +1.2252137e-12 </wgt>
<wgt id='1468'> +1.2294538e-12 </wgt>
<wgt id='1469'> +1.2372448e-12 </wgt>
<wgt id='1470'> +1.2489176e-12 </wgt>
<wgt id='1471'> +1.2529231e-12 </wgt>
<wgt id='1472'> +1.2585298e-12 </wgt>
<wgt id='1473'> +1.2431479e-12 </wgt>
<wgt id='1474'> +1.2386384e-12 </wgt>
<wgt id='1475'> +1.2391510e-12 </wgt>
<wgt id='1476'> +1.2452751e-12 </wgt>
<wgt id='1477'> +1.2476636e-12 </wgt>
<wgt id='1478'> +1.1564611e-12 </wgt>
<wgt id='1479'> +1.1542529e-12 </wgt>
<wgt id='1480'> +1.1603759e-12 </wgt>
<wgt id='1481'> +1.1597621e-12 </wgt>
<wgt id='1482'> +1.1513614e-12 </wgt>
<wgt id='1483'> +1.1273496e-12 </wgt>
<wgt id='1484'> +1.1550754e-12 </wgt>
<wgt id='1485'> +1.1487274e-12 </wgt>
<wgt id='1486'> +1.1579243e-12 </wgt>
<wgt id='1487'> +1.1645431e-12 </wgt>
<wgt id='1488'> +1.1552542e-12 </wgt>
<wgt id='1489'> +1.1668717e-12 </wgt>
<wgt id='1490'> +1.1507995e-12 </wgt>
<wgt id='1491'> +1.1541751e-12 </wgt>
<wgt id='1492'> +1.1608583e-12 </wgt>
<wgt id='1493'> +1.1468570e-12 </wgt>
<wgt id='1494'> +1.1787214e-12 </wgt>
<wgt id='1495'> +1.1380602e-12 </wgt>
<wgt id='1496'> +1.1532682e-12 </wgt>
<wgt id='1497'> +1.1525818e-12 </wgt>
<wgt id='1498'> +1.1561021e-12 </wgt>
<wgt id='1499'> +1.1555599e-12 </wgt>
<wgt id='1500'> +1.1584127e-12 </wgt>
<wgt id='1501'> +1.1550865e-12 </wgt>
<wgt id='1502'> +1.1552447e-12 </wgt>
<wgt id='1503'> +1.1556818e-12 </wgt>
<wgt id='1504'> +1.1483866e-12 </wgt>
<wgt id='1505'> +1.1559764e-12 </wgt>
<wgt id='1506'> +1.1532835e-12 </wgt>
<wgt id='1507'> +1.1565766e-12 </wgt>
<wgt id='1508'> +1.1589181e-12 </wgt>
<wgt id='1509'> +1.3246683e-12 </wgt>
<wgt id='1510'> +1.3246213e-12 </wgt>
<wgt id='1511'> +1.3269013e-12 </wgt>
<wgt id='1512'> +1.3246166e-12 </wgt>
<wgt id='1513'> +1.3344754e-12 </wgt>
<wgt id='1514'> +1.3248939e-12 </wgt>
<wgt id='1515'> +1.3203074e-12 </wgt>
<wgt id='1516'> +1.3232084e-12 </wgt>
<wgt id='1517'> +1.3209605e-12 </wgt>
<wgt id='1518'> +1.3345486e-12 </wgt>
<wgt id='1519'> +1.3167901e-12 </wgt>
<wgt id='1520'> +1.3205384e-12 </wgt>
<wgt id='1521'> +1.3310731e-12 </wgt>
<wgt id='1522'> +1.3226903e-12 </wgt>
<wgt id='1523'> +1.3383340e-12 </wgt>
<wgt id='1524'> +1.3272571e-12 </wgt>
<wgt id='1525'> +1.3340444e-12 </wgt>
<wgt id='1526'> +1.3194585e-12 </wgt>
<wgt id='1527'> +1.3198217e-12 </wgt>
<wgt id='1528'> +1.3302956e-12 </wgt>
<wgt id='1529'> +1.3262448e-12 </wgt>
<wgt id='1530'> +1.3365367e-12 </wgt>
<wgt id='1531'> +1.3270315e-12 </wgt>
<wgt id='1532'> +1.3180115e-12 </wgt>
<wgt id='1533'> +1.3211392e-12 </wgt>
<wgt id='1534'> +1.3320883e-12 </wgt>
<wgt id='1535'> +1.3087290e-12 </wgt>
<wgt id='1536'> +1.3192232e-12 </wgt>
<wgt id='1537'> +1.3236672e-12 </wgt>
<wgt id='1538'> +1.3228390e-12 </wgt>
<wgt id='1539'> +1.3289206e-12 </wgt>
<wgt id='1540'> +1.3273477e-12 </wgt>
<wgt id='1541'> +1.3250683e-12 </wgt>
<wgt id='1542'> +1.3251772e-12 </wgt>
<wgt id='1543'> +1.3228002e-12 </wgt>
<wgt id='1544'> +1.3199444e-12 </wgt>
<wgt id='1545'> +1.3257325e-12 </wgt>
<wgt id='1546'> +1.3229955e-12 </wgt>
<wgt id='1547'> +1.3254954e-12 </wgt>
<wgt id='1548'> +1.3227349e-12 </wgt>
<wgt id='1549'> +1.3210856e-12 </wgt>
<wgt id='1550'> +1.3294614e-12 </wgt>
<wgt id='1551'> +1.3239885e-12 </wgt>
<wgt id='1552'> +1.3250579e-12 </wgt>
<wgt id='1553'> +1.3264846e-12 </wgt>
<wgt id='1554'> +1.3294770e-12 </wgt>
<wgt id='1555'> +1.3294754e-12 </wgt>
<wgt id='1556'> +1.3245027e-12 </wgt>
<wgt id='1557'> +1.3267264e-12 </wgt>
<wgt id='1558'> +1.3216884e-12 </wgt>
<wgt id='1559'> +1.3221365e-12 </wgt>
<wgt id='1560'> +1.3266964e-12 </wgt>
<wgt id='1561'> +1.3219137e-12 </wgt>
<wgt id='1562'> +1.3236892e-12 </wgt>
<wgt id='1563'> +1.3252917e-12 </wgt>
<wgt id='1564'> +1.3229857e-12 </wgt>
<wgt id='1565'> +1.3255462e-12 </wgt>
<wgt id='1566'> +1.3247587e-12 </wgt>
<wgt id='1567'> +1.3254672e-12 </wgt>
<wgt id='1568'> +1.3231762e-12 </wgt>
<wgt id='1569'> +1.3237235e-12 </wgt>
<wgt id='1570'> +1.3235460e-12 </wgt>
<wgt id='1571'> +1.3249607e-12 </wgt>
<wgt id='1572'> +1.3233922e-12 </wgt>
<wgt id='1573'> +1.3247854e-12 </wgt>
<wgt id='1574'> +1.3239902e-12 </wgt>
<wgt id='1575'> +1.3254499e-12 </wgt>
<wgt id='1576'> +1.3247639e-12 </wgt>
<wgt id='1577'> +1.3245993e-12 </wgt>
<wgt id='1578'> +1.3241983e-12 </wgt>
<wgt id='1579'> +1.3248125e-12 </wgt>
<wgt id='1580'> +1.3256586e-12 </wgt>
<wgt id='1581'> +1.3247923e-12 </wgt>
<wgt id='1582'> +1.3228762e-12 </wgt>
<wgt id='1583'> +1.3254647e-12 </wgt>
<wgt id='1584'> +1.3248407e-12 </wgt>
<wgt id='1585'> +1.3236745e-12 </wgt>
<wgt id='1586'> +1.3248311e-12 </wgt>
<wgt id='1587'> +1.3245502e-12 </wgt>
<wgt id='1588'> +1.3257595e-12 </wgt>
<wgt id='1589'> +1.3251480e-12 </wgt>
<wgt id='1590'> +1.3244951e-12 </wgt>
<wgt id='1591'> +1.3252424e-12 </wgt>
<wgt id='1592'> +1.3235205e-12 </wgt>
<wgt id='1593'> +1.3248654e-12 </wgt>
<wgt id='1594'> +1.3249481e-12 </wgt>
<wgt id='1595'> +1.3245926e-12 </wgt>
<wgt id='1596'> +1.3252742e-12 </wgt>
<wgt id='1597'> +1.3241519e-12 </wgt>
<wgt id='1598'> +1.3245642e-12 </wgt>
<wgt id='1599'> +1.3258300e-12 </wgt>
<wgt id='1600'> +1.3243447e-12 </wgt>
<wgt id='1601'> +1.3245101e-12 </wgt>
<wgt id='1602'> +1.3243309e-12 </wgt>
<wgt id='1603'> +1.3252589e-12 </wgt>
<wgt id='1604'> +1.3252019e-12 </wgt>
<wgt id='1605'> +1.3250265e-12 </wgt>
<wgt id='1606'> +1.3245450e-12 </wgt>
<wgt id='1607'> +1.3242333e-12 </wgt>
<wgt id='1608'> +1.3244301e-12 </wgt>
<wgt id='1609'> +1.3248945e-12 </wgt>
<wgt id='1610'> +1.2916257e-12 </wgt>
<wgt id='1611'> +1.3606369e-12 </wgt>
<wgt id='1612'> +1.4777403e-12 </wgt>
<wgt id='1613'> +1.4319431e-12 </wgt>
<wgt id='1614'> +1.4789617e-12 </wgt>
<wgt id='1615'> +1.4616271e-12 </wgt>
<wgt id='1616'> +1.5302760e-12 </wgt>
<wgt id='1617'> +1.5543738e-12 </wgt>
<wgt id='1618'> +1.5431357e-12 </wgt>
<wgt id='1619'> +1.5038477e-12 </wgt>
<wgt id='1620'> +1.4049864e-12 </wgt>
<wgt id='1621'> +1.4890538e-12 </wgt>
<wgt id='1622'> +1.4938469e-12 </wgt>
<wgt id='1623'> +1.4865686e-12 </wgt>
<wgt id='1624'> +1.4608654e-12 </wgt>
<wgt id='1625'> +1.4400850e-12 </wgt>
<wgt id='1626'> +1.4409649e-12 </wgt>
<wgt id='1627'> +1.4527811e-12 </wgt>
<wgt id='1628'> +1.4765230e-12 </wgt>
<wgt id='1629'> +1.5690728e-12 </wgt>
<wgt id='1630'> +1.4751117e-12 </wgt>
<wgt id='1631'> +1.4484708e-12 </wgt>
<wgt id='1632'> +1.3443284e-12 </wgt>
<wgt id='1633'> +1.4206680e-12 </wgt>
<wgt id='1634'> +1.5485978e-12 </wgt>
<wgt id='1635'> +1.5030747e-12 </wgt>
<wgt id='1636'> +1.5380155e-12 </wgt>
<wgt id='1637'> +1.4620551e-12 </wgt>
<wgt id='1638'> +1.4775839e-12 </wgt>
<wgt id='1639'> +1.4647640e-12 </wgt>
<wgt id='1640'> +1.4643986e-12 </wgt>
<wgt id='1641'> +1.4601304e-12 </wgt>
<wgt id='1642'> +1.4523822e-12 </wgt>
<wgt id='1643'> +1.5040408e-12 </wgt>
<wgt id='1644'> +1.4100629e-12 </wgt>
<wgt id='1645'> +1.4710208e-12 </wgt>
<wgt id='1646'> +1.4285813e-12 </wgt>
<wgt id='1647'> +1.4332568e-12 </wgt>
<wgt id='1648'> +1.5066973e-12 </wgt>
<wgt id='1649'> +1.5645751e-12 </wgt>
<wgt id='1650'> +1.4568952e-12 </wgt>
<wgt id='1651'> +1.4448232e-12 </wgt>
<wgt id='1652'> +1.4170174e-12 </wgt>
<wgt id='1653'> +1.5507264e-12 </wgt>
<wgt id='1654'> +1.4939946e-12 </wgt>
<wgt id='1655'> +1.4507422e-12 </wgt>
<wgt id='1656'> +1.3980527e-12 </wgt>
<wgt id='1657'> +1.4492828e-12 </wgt>
<wgt id='1658'> +1.4058766e-12 </wgt>
<wgt id='1659'> +1.4608654e-12 </wgt>
<wgt id='1660'> +1.5345270e-12 </wgt>
<wgt id='1661'> +1.4831977e-12 </wgt>
<wgt id='1662'> +1.4958479e-12 </wgt>
<wgt id='1663'> +1.5012180e-12 </wgt>
<wgt id='1664'> +1.4264800e-12 </wgt>
<wgt id='1665'> +1.3839142e-12 </wgt>
<wgt id='1666'> +1.5132727e-12 </wgt>
<wgt id='1667'> +1.4498726e-12 </wgt>
<wgt id='1668'> +1.5386419e-12 </wgt>
<wgt id='1669'> +1.4111333e-12 </wgt>
<wgt id='1670'> +1.5046345e-12 </wgt>
<wgt id='1671'> +1.4326290e-12 </wgt>
<wgt id='1672'> +1.4756740e-12 </wgt>
<wgt id='1673'> +1.5142377e-12 </wgt>
<wgt id='1674'> +1.4236749e-12 </wgt>
<wgt id='1675'> +1.4895748e-12 </wgt>
<wgt id='1676'> +1.5379877e-12 </wgt>
<wgt id='1677'> +1.5884612e-12 </wgt>
<wgt id='1678'> +1.4695532e-12 </wgt>
<wgt id='1679'> +1.5056999e-12 </wgt>
<wgt id='1680'> +1.5139883e-12 </wgt>
<wgt id='1681'> +1.4925129e-12 </wgt>
<wgt id='1682'> +1.5119720e-12 </wgt>
<wgt id='1683'> +1.4370680e-12 </wgt>
<wgt id='1684'> +1.4510698e-12 </wgt>
<wgt id='1685'> +1.4432391e-12 </wgt>
<wgt id='1686'> +1.4776291e-12 </wgt>
<wgt id='1687'> +1.5302194e-12 </wgt>
<wgt id='1688'> +1.4706735e-12 </wgt>
<wgt id='1689'> +1.4618679e-12 </wgt>
<wgt id='1690'> +1.5029133e-12 </wgt>
<wgt id='1691'> +1.5029422e-12 </wgt>
<wgt id='1692'> +1.5323215e-12 </wgt>
<wgt id='1693'> +1.5247969e-12 </wgt>
<wgt id='1694'> +1.4533489e-12 </wgt>
<wgt id='1695'> +1.5070140e-12 </wgt>
<wgt id='1696'> +1.5087858e-12 </wgt>
<wgt id='1697'> +1.5250546e-12 </wgt>
<wgt id='1698'> +1.4633693e-12 </wgt>
<wgt id='1699'> +1.5266710e-12 </wgt>
<wgt id='1700'> +1.4547688e-12 </wgt>
<wgt id='1701'> +1.4918974e-12 </wgt>
<wgt id='1702'> +1.4938163e-12 </wgt>
<wgt id='1703'> +1.5179121e-12 </wgt>
<wgt id='1704'> +1.4258226e-12 </wgt>
<wgt id='1705'> +1.4036479e-12 </wgt>
<wgt id='1706'> +1.5004848e-12 </wgt>
<wgt id='1707'> +1.4888122e-12 </wgt>
<wgt id='1708'> +1.4473536e-12 </wgt>
<wgt id='1709'> +1.4602195e-12 </wgt>
<wgt id='1710'> +1.4582518e-12 </wgt>
<wgt id='1711'> +1.5421948e-12 </wgt>
<wgt id='1712'> +1.4723731e-12 </wgt>
<wgt id='1713'> +1.1316331e-12 </wgt>
<wgt id='1714'> +1.1168761e-12 </wgt>
<wgt id='1715'> +1.1517609e-12 </wgt>
<wgt id='1716'> +1.1980362e-12 </wgt>
<wgt id='1717'> +1.1583409e-12 </wgt>
<wgt id='1718'> +1.1648326e-12 </wgt>
<wgt id='1719'> +1.1421614e-12 </wgt>
<wgt id='1720'> +1.1394861e-12 </wgt>
<wgt id='1721'> +1.0899002e-12 </wgt>
<wgt id='1722'> +1.1168250e-12 </wgt>
<wgt id='1723'> +1.0639566e-12 </wgt>
<wgt id='1724'> +1.0838576e-12 </wgt>
<wgt id='1725'> +1.1376614e-12 </wgt>
<wgt id='1726'> +1.1916846e-12 </wgt>
<wgt id='1727'> +1.1210399e-12 </wgt>
<wgt id='1728'> +1.1241583e-12 </wgt>
<wgt id='1729'> +1.1139126e-12 </wgt>
<wgt id='1730'> +1.1137518e-12 </wgt>
<wgt id='1731'> +1.0836134e-12 </wgt>
<wgt id='1732'> +1.1433511e-12 </wgt>
<wgt id='1733'> +1.1507299e-12 </wgt>
<wgt id='1734'> +1.1709833e-12 </wgt>
<wgt id='1735'> +1.0850087e-12 </wgt>
<wgt id='1736'> +1.1735149e-12 </wgt>
<wgt id='1737'> +1.1965587e-12 </wgt>
<wgt id='1738'> +1.1494112e-12 </wgt>
<wgt id='1739'> +1.1240689e-12 </wgt>
<wgt id='1740'> +1.1390473e-12 </wgt>
<wgt id='1741'> +1.1464256e-12 </wgt>
<wgt id='1742'> +1.1489648e-12 </wgt>
<wgt id='1743'> +1.1517372e-12 </wgt>
<wgt id='1744'> +1.1845058e-12 </wgt>
<wgt id='1745'> +1.0490804e-12 </wgt>
<wgt id='1746'> +1.1385545e-12 </wgt>
<wgt id='1747'> +1.1365033e-12 </wgt>
<wgt id='1748'> +1.1456916e-12 </wgt>
<wgt id='1749'> +1.1487706e-12 </wgt>
<wgt id='1750'> +1.1343685e-12 </wgt>
<wgt id='1751'> +1.0370951e-12 </wgt>
<wgt id='1752'> +1.1485276e-12 </wgt>
<wgt id='1753'> +1.1434514e-12 </wgt>
<wgt id='1754'> +1.1560583e-12 </wgt>
<wgt id='1755'> +1.1619782e-12 </wgt>
<wgt id='1756'> +1.1411811e-12 </wgt>
<wgt id='1757'> +1.1025550e-12 </wgt>
<wgt id='1758'> +1.1398696e-12 </wgt>
<wgt id='1759'> +1.1539257e-12 </wgt>
<wgt id='1760'> +1.0920576e-12 </wgt>
<wgt id='1761'> +1.1223567e-12 </wgt>
<wgt id='1762'> +1.1347517e-12 </wgt>
<wgt id='1763'> +1.1719152e-12 </wgt>
<wgt id='1764'> +1.1191091e-12 </wgt>
<wgt id='1765'> +1.1323561e-12 </wgt>
<wgt id='1766'> +1.1176922e-12 </wgt>
<wgt id='1767'> +1.1448091e-12 </wgt>
<wgt id='1768'> +1.1412350e-12 </wgt>
<wgt id='1769'> +1.1066870e-12 </wgt>
<wgt id='1770'> +1.1658855e-12 </wgt>
<wgt id='1771'> +1.1539314e-12 </wgt>
<wgt id='1772'> +1.1732176e-12 </wgt>
<wgt id='1773'> +1.1257750e-12 </wgt>
<wgt id='1774'> +1.1372625e-12 </wgt>
<wgt id='1775'> +1.1445742e-12 </wgt>
<wgt id='1776'> +1.1679887e-12 </wgt>
<wgt id='1777'> +1.0301412e-12 </wgt>
<wgt id='1778'> +1.1344973e-12 </wgt>
<wgt id='1779'> +1.1538716e-12 </wgt>
<wgt id='1780'> +1.0780571e-12 </wgt>
<wgt id='1781'> +1.1423123e-12 </wgt>
<wgt id='1782'> +1.0970253e-12 </wgt>
<wgt id='1783'> +1.1169154e-12 </wgt>
<wgt id='1784'> +1.1268023e-12 </wgt>
<wgt id='1785'> +1.0923316e-12 </wgt>
<wgt id='1786'> +1.0211343e-12 </wgt>
<wgt id='1787'> +1.1936204e-12 </wgt>
<wgt id='1788'> +1.1502343e-12 </wgt>
<wgt id='1789'> +1.0858275e-12 </wgt>
<wgt id='1790'> +1.1188043e-12 </wgt>
<wgt id='1791'> +1.1185851e-12 </wgt>
<wgt id='1792'> +1.0943883e-12 </wgt>
<wgt id='1793'> +1.1408841e-12 </wgt>
<wgt id='1794'> +1.1442017e-12 </wgt>
<wgt id='1795'> +1.1641444e-12 </wgt>
<wgt id='1796'> +1.1179064e-12 </wgt>
<wgt id='1797'> +1.1432603e-12 </wgt>
<wgt id='1798'> +1.1442858e-12 </wgt>
<wgt id='1799'> +1.1241463e-12 </wgt>
<wgt id='1800'> +1.1303750e-12 </wgt>
<wgt id='1801'> +1.1400333e-12 </wgt>
<wgt id='1802'> +1.1075474e-12 </wgt>
<wgt id='1803'> +1.1573731e-12 </wgt>
<wgt id='1804'> +1.1340518e-12 </wgt>
<wgt id='1805'> +1.1094067e-12 </wgt>
<wgt id='1806'> +1.1300982e-12 </wgt>
<wgt id='1807'> +1.1319443e-12 </wgt>
<wgt id='1808'> +1.1290680e-12 </wgt>
<wgt id='1809'> +1.1028792e-12 </wgt>
<wgt id='1810'> +1.1325691e-12 </wgt>
<wgt id='1811'> +1.1759232e-12 </wgt>
<wgt id='1812'> +1.1571019e-12 </wgt>
<wgt id='1813'> +1.1442681e-12 </wgt>
<wgt id='1814'> +1.0938134e-12 </wgt>
<wgt id='1815'> +1.3011127e-12 </wgt>
<wgt id='1816'> +1.1316331e-12 </wgt>
<wgt id='1817'> +1.1168761e-12 </wgt>
<wgt id='1818'> +1.1517609e-12 </wgt>
<wgt id='1819'> +1.1980362e-12 </wgt>
<wgt id='1820'> +1.1583409e-12 </wgt>
<wgt id='1821'> +1.1648326e-12 </wgt>
<wgt id='1822'> +1.1421614e-12 </wgt>
<wgt id='1823'> +1.1394861e-12 </wgt>
<wgt id='1824'> +1.0899002e-12 </wgt>
<wgt id='1825'> +1.1168250e-12 </wgt>
<wgt id='1826'> +1.0639566e-12 </wgt>
<wgt id='1827'> +1.0838576e-12 </wgt>
<wgt id='1828'> +1.1376614e-12 </wgt>
<wgt id='1829'> +1.1916846e-12 </wgt>
<wgt id='1830'> +1.1210399e-12 </wgt>
<wgt id='1831'> +1.1241583e-12 </wgt>
<wgt id='1832'> +1.1139126e-12 </wgt>
<wgt id='1833'> +1.1137518e-12 </wgt>
<wgt id='1834'> +1.0836134e-12 </wgt>
<wgt id='1835'> +1.1433511e-12 </wgt>
<wgt id='1836'> +1.1507299e-12 </wgt>
<wgt id='1837'> +1.1709833e-12 </wgt>
<wgt id='1838'> +1.0850087e-12 </wgt>
<wgt id='1839'> +1.1735149e-12 </wgt>
<wgt id='1840'> +1.1965587e-12 </wgt>
<wgt id='1841'> +1.1494112e-12 </wgt>
<wgt id='1842'> +1.1240689e-12 </wgt>
<wgt id='1843'> +1.1390473e-12 </wgt>
<wgt id='1844'> +1.1464256e-12 </wgt>
<wgt id='1845'> +1.1489648e-12 </wgt>
<wgt id='1846'> +1.1517372e-12 </wgt>
<wgt id='1847'> +1.1845058e-12 </wgt>
<wgt id='1848'> +1.0490804e-12 </wgt>
<wgt id='1849'> +1.1385545e-12 </wgt>
<wgt id='1850'> +1.1365033e-12 </wgt>
<wgt id='1851'> +1.1456916e-12 </wgt>
<wgt id='1852'> +1.1487706e-12 </wgt>
<wgt id='1853'> +1.1343685e-12 </wgt>
<wgt id='1854'> +1.0370951e-12 </wgt>
<wgt id='1855'> +1.1485276e-12 </wgt>
<wgt id='1856'> +1.1434514e-12 </wgt>
<wgt id='1857'> +1.1560583e-12 </wgt>
<wgt id='1858'> +1.1619782e-12 </wgt>
<wgt id='1859'> +1.1411811e-12 </wgt>
<wgt id='1860'> +1.1025550e-12 </wgt>
<wgt id='1861'> +1.1398696e-12 </wgt>
<wgt id='1862'> +1.1539257e-12 </wgt>
<wgt id='1863'> +1.0920576e-12 </wgt>
<wgt id='1864'> +1.1223567e-12 </wgt>
<wgt id='1865'> +1.1347517e-12 </wgt>
<wgt id='1866'> +1.1719152e-12 </wgt>
<wgt id='1867'> +1.1191091e-12 </wgt>
<wgt id='1868'> +1.1323561e-12 </wgt>
<wgt id='1869'> +1.1176922e-12 </wgt>
<wgt id='1870'> +1.1448091e-12 </wgt>
<wgt id='1871'> +1.1412350e-12 </wgt>
<wgt id='1872'> +1.1066870e-12 </wgt>
<wgt id='1873'> +1.1658855e-12 </wgt>
<wgt id='1874'> +1.1539314e-12 </wgt>
<wgt id='1875'> +1.1732176e-12 </wgt>
<wgt id='1876'> +1.1257750e-12 </wgt>
<wgt id='1877'> +1.1372625e-12 </wgt>
<wgt id='1878'> +1.1445742e-12 </wgt>
<wgt id='1879'> +1.1679887e-12 </wgt>
<wgt id='1880'> +1.0301412e-12 </wgt>
<wgt id='1881'> +1.1344973e-12 </wgt>
<wgt id='1882'> +1.1538716e-12 </wgt>
<wgt id='1883'> +1.0780571e-12 </wgt>
<wgt id='1884'> +1.1423123e-12 </wgt>
<wgt id='1885'> +1.0970253e-12 </wgt>
<wgt id='1886'> +1.1169154e-12 </wgt>
<wgt id='1887'> +1.1268023e-12 </wgt>
<wgt id='1888'> +1.0923316e-12 </wgt>
<wgt id='1889'> +1.0211343e-12 </wgt>
<wgt id='1890'> +1.1936204e-12 </wgt>
<wgt id='1891'> +1.1502343e-12 </wgt>
<wgt id='1892'> +1.0858275e-12 </wgt>
<wgt id='1893'> +1.1188043e-12 </wgt>
<wgt id='1894'> +1.1185851e-12 </wgt>
<wgt id='1895'> +1.0943883e-12 </wgt>
<wgt id='1896'> +1.1408841e-12 </wgt>
<wgt id='1897'> +1.1442017e-12 </wgt>
<wgt id='1898'> +1.1641444e-12 </wgt>
<wgt id='1899'> +1.1179064e-12 </wgt>
<wgt id='1900'> +1.1432603e-12 </wgt>
<wgt id='1901'> +1.1442858e-12 </wgt>
<wgt id='1902'> +1.1241463e-12 </wgt>
<wgt id='1903'> +1.1303750e-12 </wgt>
<wgt id='1904'> +1.1400333e-12 </wgt>
<wgt id='1905'> +1.1075474e-12 </wgt>
<wgt id='1906'> +1.1573731e-12 </wgt>
<wgt id='1907'> +1.1340518e-12 </wgt>
<wgt id='1908'> +1.1094067e-12 </wgt>
<wgt id='1909'> +1.1300982e-12 </wgt>
<wgt id='1910'> +1.1319443e-12 </wgt>
<wgt id='1911'> +1.1290680e-12 </wgt>
<wgt id='1912'> +1.1028792e-12 </wgt>
<wgt id='1913'> +1.1325691e-12 </wgt>
<wgt id='1914'> +1.1759232e-12 </wgt>
<wgt id='1915'> +1.1571019e-12 </wgt>
<wgt id='1916'> +1.1442681e-12 </wgt>
<wgt id='1917'> +1.1189778e-12 </wgt>
<wgt id='1918'> +1.1447860e-12 </wgt>
<wgt id='1919'> +1.2098438e-12 </wgt>
</rwgt>
</event>
<event>
 9      1 +1.5538000e-12 9.06634600e+01 7.81860800e-03 1.18115800e-01
        1 -1    0    0  502    0 -0.0000000000e+00 +0.0000000000e+00 +9.3562173009e+02 9.3562173009e+02 0.0000000000e+00 0.0000e+00 -1.0000e+00
       21 -1    0    0  501  502 +0.0000000000e+00 -0.0000000000e+00 -2.1963637947e+00 2.1963637947e+00 0.0000000000e+00 0.0000e+00 -1.0000e+00
     1023  2    1    2    0    0 -1.4677993573e+01 +2.8228994066e+01 +1.6375632006e+02 1.6749169531e+02 1.5000534605e+01 0.0000e+00 0.0000e+00
  1000023  2    3    3    0    0 -2.1236234256e+00 +9.1070277889e+00 +7.1081256980e+01 7.1904409963e+01 5.5001224154e+00 0.0000e+00 0.0000e+00
        1  1    1    2  501    0 +1.4677993573e+01 -2.8228994066e+01 +7.6966904624e+02 7.7032639858e+02 0.0000000000e+00 0.0000e+00 -1.0000e+00
  1000022  1    4    4    0    0 -2.1072674061e+00 +8.6773223112e+00 +6.4888828748e+01 6.5690917140e+01 5.0000000000e+00 0.0000e+00 -1.0000e+00
      -11  1    4    4    0    0 +1.0328311561e-01 +3.2932751179e-01 +4.7835721672e+00 4.7960073970e+00 5.1100000000e-04 0.0000e+00 1.0000e+00
       11  1    4    4    0    0 -1.1963913517e-01 +1.0037796587e-01 +1.4088560655e+00 1.4174854260e+00 5.1100000000e-04 0.0000e+00 -1.0000e+00
  1000022  1    3    3    0    0 -1.2554370147e+01 +1.9121966277e+01 +9.2675063078e+01 9.5587285350e+01 5.0000000000e+00 0.0000e+00 -1.0000e+00
<mgrwt>
<rscale>  1 0.90663459E+02</rscale>
<asrwt>0</asrwt>
<pdfrwt beam="1">  1       21 0.33790287E-03 0.90663459E+02</pdfrwt>
<pdfrwt beam="2">  1        1 0.14394149E+00 0.90663459E+02</pdfrwt>
<totfact> 0.33049566E+06</totfact>
</mgrwt>
<rwgt>
<wgt id='1001'> +1.5538000e-12 </wgt>
<wgt id='1002'> +1.5596351e-12 </wgt>
<wgt id='1003'> +1.5594430e-12 </wgt>
<wgt id='1004'> +1.5453138e-12 </wgt>
<wgt id='1005'> +1.5538000e-12 </wgt>
<wgt id='1006'> +1.3935936e-12 </wgt>
<wgt id='1007'> +1.3895588e-12 </wgt>
<wgt id='1008'> +1.3901637e-12 </wgt>
<wgt id='1009'> +1.3556544e-12 </wgt>
<wgt id='1010'> +1.3935936e-12 </wgt>
<wgt id='1011'> +1.7572660e-12 </wgt>
<wgt id='1012'> +1.7791379e-12 </wgt>
<wgt id='1013'> +1.7776129e-12 </wgt>
<wgt id='1014'> +1.7996805e-12 </wgt>
<wgt id='1015'> +1.7572660e-12 </wgt>
<wgt id='1016'> +1.7002256e-12 </wgt>
<wgt id='1017'> +1.7304064e-12 </wgt>
<wgt id='1018'> +1.7281568e-12 </wgt>
<wgt id='1019'> +1.7776129e-12 </wgt>
<wgt id='1020'> +1.7002256e-12 </wgt>
<wgt id='1021'> +1.5249218e-12 </wgt>
<wgt id='1022'> +1.5417077e-12 </wgt>
<wgt id='1023'> +1.5405634e-12 </wgt>
<wgt id='1024'> +1.5594430e-12 </wgt>
<wgt id='1025'> +1.5249218e-12 </wgt>
<wgt id='1026'> +1.9228657e-12 </wgt>
<wgt id='1027'> +1.9739435e-12 </wgt>
<wgt id='1028'> +1.9699301e-12 </wgt>
<wgt id='1029'> +2.0702174e-12 </wgt>
<wgt id='1030'> +1.9228657e-12 </wgt>
<wgt id='1031'> +1.3767775e-12 </wgt>
<wgt id='1032'> +1.3533007e-12 </wgt>
<wgt id='1033'> +1.3556544e-12 </wgt>
<wgt id='1034'> +1.2654809e-12 </wgt>
<wgt id='1035'> +1.3767775e-12 </wgt>
<wgt id='1036'> +1.2348232e-12 </wgt>
<wgt id='1037'> +1.2057249e-12 </wgt>
<wgt id='1038'> +1.2084966e-12 </wgt>
<wgt id='1039'> +1.1101660e-12 </wgt>
<wgt id='1040'> +1.2348232e-12 </wgt>
<wgt id='1041'> +1.5570629e-12 </wgt>
<wgt id='1042'> +1.5437640e-12 </wgt>
<wgt id='1043'> +1.5453138e-12 </wgt>
<wgt id='1044'> +1.4737858e-12 </wgt>
<wgt id='1045'> +1.5570629e-12 </wgt>
<wgt id='1046'> +1.5538000e-12 </wgt>
<wgt id='1047'> +1.5438093e-12 </wgt>
<wgt id='1048'> +1.5937067e-12 </wgt>
<wgt id='1049'> +1.5298446e-12 </wgt>
<wgt id='1050'> +1.5101112e-12 </wgt>
<wgt id='1051'> +1.5414614e-12 </wgt>
<wgt id='1052'> +1.5494285e-12 </wgt>
<wgt id='1053'> +1.5775225e-12 </wgt>
<wgt id='1054'> +1.5769221e-12 </wgt>
<wgt id='1055'> +1.5971377e-12 </wgt>
<wgt id='1056'> +1.4400978e-12 </wgt>
<wgt id='1057'> +1.5114961e-12 </wgt>
<wgt id='1058'> +1.5315125e-12 </wgt>
<wgt id='1059'> +1.5259653e-12 </wgt>
<wgt id='1060'> +1.5525147e-12 </wgt>
<wgt id='1061'> +1.6057387e-12 </wgt>
<wgt id='1062'> +1.5379990e-12 </wgt>
<wgt id='1063'> +1.5101706e-12 </wgt>
<wgt id='1064'> +1.5828265e-12 </wgt>
<wgt id='1065'> +1.5741965e-12 </wgt>
<wgt id='1066'> +1.5597369e-12 </wgt>
<wgt id='1067'> +1.6003331e-12 </wgt>
<wgt id='1068'> +1.6369569e-12 </wgt>
<wgt id='1069'> +1.6061330e-12 </wgt>
<wgt id='1070'> +1.5332329e-12 </wgt>
<wgt id='1071'> +1.5830916e-12 </wgt>
<wgt id='1072'> +1.5643748e-12 </wgt>
<wgt id='1073'> +1.4887125e-12 </wgt>
<wgt id='1074'> +1.5715829e-12 </wgt>
<wgt id='1075'> +1.4950098e-12 </wgt>
<wgt id='1076'> +1.5409988e-12 </wgt>
<wgt id='1077'> +1.5769841e-12 </wgt>
<wgt id='1078'> +1.5616878e-12 </wgt>
<wgt id='1079'> +1.6113232e-12 </wgt>
<wgt id='1080'> +1.5451043e-12 </wgt>
<wgt id='1081'> +1.5344352e-12 </wgt>
<wgt id='1082'> +1.5884251e-12 </wgt>
<wgt id='1083'> +1.5494911e-12 </wgt>
<wgt id='1084'> +1.5198067e-12 </wgt>
<wgt id='1085'> +1.5376598e-12 </wgt>
<wgt id='1086'> +1.5785584e-12 </wgt>
<wgt id='1087'> +1.5302680e-12 </wgt>
<wgt id='1088'> +1.5717666e-12 </wgt>
<wgt id='1089'> +1.5388322e-12 </wgt>
<wgt id='1090'> +1.5134839e-12 </wgt>
<wgt id='1091'> +1.4881395e-12 </wgt>
<wgt id='1092'> +1.5595582e-12 </wgt>
<wgt id='1093'> +1.6019792e-12 </wgt>
<wgt id='1094'> +1.5573186e-12 </wgt>
<wgt id='1095'> +1.5973274e-12 </wgt>
<wgt id='1096'> +1.5396187e-12 </wgt>
<wgt id='1097'> +1.5465024e-12 </wgt>
<wgt id='1098'> +1.6053549e-12 </wgt>
<wgt id='1099'> +1.5492725e-12 </wgt>
<wgt id='1100'> +1.5903730e-12 </wgt>
<wgt id='1101'> +1.5485241e-12 </wgt>
<wgt id='1102'> +1.5450471e-12 </wgt>
<wgt id='1103'> +1.5852427e-12 </wgt>
<wgt id='1104'> +1.6173284e-12 </wgt>
<wgt id='1105'> +1.4981903e-12 </wgt>
<wgt id='1106'> +1.5899525e-12 </wgt>
<wgt id='1107'> +1.6049888e-12 </wgt>
<wgt id='1108'> +1.5845760e-12 </wgt>
<wgt id='1109'> +1.5285387e-12 </wgt>
<wgt id='1110'> +1.5568789e-12 </wgt>
<wgt id='1111'> +1.5628818e-12 </wgt>
<wgt id='1112'> +1.4918521e-12 </wgt>
<wgt id='1113'> +1.5684563e-12 </wgt>
<wgt id='1114'> +1.5817567e-12 </wgt>
<wgt id='1115'> +1.5610863e-12 </wgt>
<wgt id='1116'> +1.5938805e-12 </wgt>
<wgt id='1117'> +1.5821439e-12 </wgt>
<wgt id='1118'> +1.5050562e-12 </wgt>
<wgt id='1119'> +1.5518882e-12 </wgt>
<wgt id='1120'> +1.5337719e-12 </wgt>
<wgt id='1121'> +1.5217413e-12 </wgt>
<wgt id='1122'> +1.5161942e-12 </wgt>
<wgt id='1123'> +1.5955121e-12 </wgt>
<wgt id='1124'> +1.6099094e-12 </wgt>
<wgt id='1125'> +1.5714285e-12 </wgt>
<wgt id='1126'> +1.4912118e-12 </wgt>
<wgt id='1127'> +1.5908881e-12 </wgt>
<wgt id='1128'> +1.5379990e-12 </wgt>
<wgt id='1129'> +1.4431503e-12 </wgt>
<wgt id='1130'> +1.5458371e-12 </wgt>
<wgt id='1131'> +1.5994765e-12 </wgt>
<wgt id='1132'> +1.5748427e-12 </wgt>
<wgt id='1133'> +1.5791490e-12 </wgt>
<wgt id='1134'> +1.5319904e-12 </wgt>
<wgt id='1135'> +1.4149800e-12 </wgt>
<wgt id='1136'> +1.5555942e-12 </wgt>
<wgt id='1137'> +1.5704020e-12 </wgt>
<wgt id='1138'> +1.5304351e-12 </wgt>
<wgt id='1139'> +1.5267560e-12 </wgt>
<wgt id='1140'> +1.5602986e-12 </wgt>
<wgt id='1141'> +1.5628359e-12 </wgt>
<wgt id='1142'> +1.5972669e-12 </wgt>
<wgt id='1143'> +1.4970541e-12 </wgt>
<wgt id='1144'> +1.5265454e-12 </wgt>
<wgt id='1145'> +1.6042826e-12 </wgt>
<wgt id='1146'> +1.5677580e-12 </wgt>
<wgt id='1147'> +1.4208841e-12 </wgt>
<wgt id='1148'> +1.4383263e-12 </wgt>
<wgt id='1149'> +1.3630096e-12 </wgt>
<wgt id='1150'> +1.4248442e-12 </wgt>
<wgt id='1151'> +1.6194455e-12 </wgt>
<wgt id='1152'> +2.0877941e-12 </wgt>
<wgt id='1153'> +2.0820691e-12 </wgt>
<wgt id='1154'> +2.0910434e-12 </wgt>
<wgt id='1155'> +2.0957449e-12 </wgt>
<wgt id='1156'> +2.0837275e-12 </wgt>
<wgt id='1157'> +2.0872072e-12 </wgt>
<wgt id='1158'> +2.0884964e-12 </wgt>
<wgt id='1159'> +2.0883076e-12 </wgt>
<wgt id='1160'> +2.0874574e-12 </wgt>
<wgt id='1161'> +2.1084266e-12 </wgt>
<wgt id='1162'> +2.0734766e-12 </wgt>
<wgt id='1163'> +2.0854516e-12 </wgt>
<wgt id='1164'> +2.0900993e-12 </wgt>
<wgt id='1165'> +2.0832820e-12 </wgt>
<wgt id='1166'> +2.0922315e-12 </wgt>
<wgt id='1167'> +2.1088651e-12 </wgt>
<wgt id='1168'> +2.0615808e-12 </wgt>
<wgt id='1169'> +2.1080700e-12 </wgt>
<wgt id='1170'> +2.0706159e-12 </wgt>
<wgt id='1171'> +2.0759459e-12 </wgt>
<wgt id='1172'> +2.1018717e-12 </wgt>
<wgt id='1173'> +2.0674016e-12 </wgt>
<wgt id='1174'> +2.1078012e-12 </wgt>
<wgt id='1175'> +2.0792065e-12 </wgt>
<wgt id='1176'> +2.0939616e-12 </wgt>
<wgt id='1177'> +2.0897729e-12 </wgt>
<wgt id='1178'> +2.0761873e-12 </wgt>
<wgt id='1179'> +2.0882721e-12 </wgt>
<wgt id='1180'> +2.0792559e-12 </wgt>
<wgt id='1181'> +2.0840225e-12 </wgt>
<wgt id='1182'> +2.0814448e-12 </wgt>
<wgt id='1183'> +2.0775051e-12 </wgt>
<wgt id='1184'> +2.0881849e-12 </wgt>
<wgt id='1185'> +2.0823675e-12 </wgt>
<wgt id='1186'> +2.0891804e-12 </wgt>
<wgt id='1187'> +2.0934878e-12 </wgt>
<wgt id='1188'> +2.0857220e-12 </wgt>
<wgt id='1189'> +2.0828556e-12 </wgt>
<wgt id='1190'> +2.0714033e-12 </wgt>
<wgt id='1191'> +2.0894422e-12 </wgt>
<wgt id='1192'> +2.0903522e-12 </wgt>
<wgt id='1193'> +1.4241205e-12 </wgt>
<wgt id='1194'> +1.4144924e-12 </wgt>
<wgt id='1195'> +1.4320342e-12 </wgt>
<wgt id='1196'> +1.4267426e-12 </wgt>
<wgt id='1197'> +1.4211622e-12 </wgt>
<wgt id='1198'> +1.4247812e-12 </wgt>
<wgt id='1199'> +1.4231517e-12 </wgt>
<wgt id='1200'> +1.4305178e-12 </wgt>
<wgt id='1201'> +1.4198491e-12 </wgt>
<wgt id='1202'> +1.4227810e-12 </wgt>
<wgt id='1203'> +1.4260426e-12 </wgt>
<wgt id='1204'> +1.4166833e-12 </wgt>
<wgt id='1205'> +1.4286310e-12 </wgt>
<wgt id='1206'> +1.4161161e-12 </wgt>
<wgt id='1207'> +1.4348108e-12 </wgt>
<wgt id='1208'> +1.4237027e-12 </wgt>
<wgt id='1209'> +1.4243637e-12 </wgt>
<wgt id='1210'> +1.4215958e-12 </wgt>
<wgt id='1211'> +1.4217508e-12 </wgt>
<wgt id='1212'> +1.4137230e-12 </wgt>
<wgt id='1213'> +1.4324437e-12 </wgt>
<wgt id='1214'> +1.4009107e-12 </wgt>
<wgt id='1215'> +1.4614921e-12 </wgt>
<wgt id='1216'> +1.4297580e-12 </wgt>
<wgt id='1217'> +1.4193792e-12 </wgt>
<wgt id='1218'> +1.4209558e-12 </wgt>
<wgt id='1219'> +1.4250776e-12 </wgt>
<wgt id='1220'> +1.4184046e-12 </wgt>
<wgt id='1221'> +1.4106887e-12 </wgt>
<wgt id='1222'> +1.4405780e-12 </wgt>
<wgt id='1223'> +1.3972482e-12 </wgt>
<wgt id='1224'> +1.4216233e-12 </wgt>
<wgt id='1225'> +1.4249227e-12 </wgt>
<wgt id='1226'> +1.4197966e-12 </wgt>
<wgt id='1227'> +1.4266960e-12 </wgt>
<wgt id='1228'> +1.4224346e-12 </wgt>
<wgt id='1229'> +1.4223085e-12 </wgt>
<wgt id='1230'> +1.4254800e-12 </wgt>
<wgt id='1231'> +1.4280196e-12 </wgt>
<wgt id='1232'> +1.4312398e-12 </wgt>
<wgt id='1233'> +1.4213886e-12 </wgt>
<wgt id='1234'> +1.4241205e-12 </wgt>
<wgt id='1235'> +1.4187846e-12 </wgt>
<wgt id='1236'> +1.4208403e-12 </wgt>
<wgt id='1237'> +1.4226842e-12 </wgt>
<wgt id='1238'> +1.4255722e-12 </wgt>
<wgt id='1239'> +1.4268257e-12 </wgt>
<wgt id='1240'> +1.4279206e-12 </wgt>
<wgt id='1241'> +1.3953672e-12 </wgt>
<wgt id='1242'> +1.3835604e-12 </wgt>
<wgt id='1243'> +1.4070849e-12 </wgt>
<wgt id='1244'> +1.3940363e-12 </wgt>
<wgt id='1245'> +1.3963270e-12 </wgt>
<wgt id='1246'> +1.3997622e-12 </wgt>
<wgt id='1247'> +1.3916086e-12 </wgt>
<wgt id='1248'> +1.3951698e-12 </wgt>
<wgt id='1249'> +1.3956847e-12 </wgt>
<wgt id='1250'> +1.3960477e-12 </wgt>
<wgt id='1251'> +1.3948556e-12 </wgt>
<wgt id='1252'> +1.4070570e-12 </wgt>
<wgt id='1253'> +1.3861883e-12 </wgt>
<wgt id='1254'> +1.3965580e-12 </wgt>
<wgt id='1255'> +1.3945690e-12 </wgt>
<wgt id='1256'> +1.3953527e-12 </wgt>
<wgt id='1257'> +1.3957814e-12 </wgt>
<wgt id='1258'> +1.4117297e-12 </wgt>
<wgt id='1259'> +1.3797903e-12 </wgt>
<wgt id='1260'> +1.4081681e-12 </wgt>
<wgt id='1261'> +1.3771517e-12 </wgt>
<wgt id='1262'> +1.3916638e-12 </wgt>
<wgt id='1263'> +1.3964971e-12 </wgt>
<wgt id='1264'> +1.3929878e-12 </wgt>
<wgt id='1265'> +1.3960348e-12 </wgt>
<wgt id='1266'> +1.3743055e-12 </wgt>
<wgt id='1267'> +1.4133532e-12 </wgt>
<wgt id='1268'> +1.3964060e-12 </wgt>
<wgt id='1269'> +1.3766949e-12 </wgt>
<wgt id='1270'> +1.3985338e-12 </wgt>
<wgt id='1271'> +1.3941000e-12 </wgt>
<wgt id='1272'> +1.3880850e-12 </wgt>
<wgt id='1273'> +1.3968894e-12 </wgt>
<wgt id='1274'> +1.3961262e-12 </wgt>
<wgt id='1275'> +1.3939925e-12 </wgt>
<wgt id='1276'> +1.3912897e-12 </wgt>
<wgt id='1277'> +1.3945585e-12 </wgt>
<wgt id='1278'> +1.3988941e-12 </wgt>
<wgt id='1279'> +1.4018261e-12 </wgt>
<wgt id='1280'> +1.3928545e-12 </wgt>
<wgt id='1281'> +1.4036494e-12 </wgt>
<wgt id='1282'> +1.3953672e-12 </wgt>
<wgt id='1283'> +1.3897814e-12 </wgt>
<wgt id='1284'> +1.3920267e-12 </wgt>
<wgt id='1285'> +1.3939266e-12 </wgt>
<wgt id='1286'> +1.3968796e-12 </wgt>
<wgt id='1287'> +1.3979068e-12 </wgt>
<wgt id='1288'> +1.3987118e-12 </wgt>
<wgt id='1289'> +1.4926929e-12 </wgt>
<wgt id='1290'> +1.4951100e-12 </wgt>
<wgt id='1291'> +1.4900681e-12 </wgt>
<wgt id='1292'> +1.4937393e-12 </wgt>
<wgt id='1293'> +1.4919023e-12 </wgt>
<wgt id='1294'> +1.4835003e-12 </wgt>
<wgt id='1295'> +1.5015473e-12 </wgt>
<wgt id='1296'> +1.4924787e-12 </wgt>
<wgt id='1297'> +1.4928162e-12 </wgt>
<wgt id='1298'> +1.5015335e-12 </wgt>
<wgt id='1299'> +1.4817051e-12 </wgt>
<wgt id='1300'> +1.4923016e-12 </wgt>
<wgt id='1301'> +1.4933413e-12 </wgt>
<wgt id='1302'> +1.4968267e-12 </wgt>
<wgt id='1303'> +1.4869175e-12 </wgt>
<wgt id='1304'> +1.4956774e-12 </wgt>
<wgt id='1305'> +1.4905290e-12 </wgt>
<wgt id='1306'> +1.4915158e-12 </wgt>
<wgt id='1307'> +1.4940147e-12 </wgt>
<wgt id='1308'> +1.4838075e-12 </wgt>
<wgt id='1309'> +1.4994771e-12 </wgt>
<wgt id='1310'> +1.5035902e-12 </wgt>
<wgt id='1311'> +1.4811072e-12 </wgt>
<wgt id='1312'> +1.5001168e-12 </wgt>
<wgt id='1313'> +1.4857806e-12 </wgt>
<wgt id='1314'> +1.4757336e-12 </wgt>
<wgt id='1315'> +1.5073060e-12 </wgt>
<wgt id='1316'> +1.4891762e-12 </wgt>
<wgt id='1317'> +1.4903605e-12 </wgt>
<wgt id='1318'> +1.5053582e-12 </wgt>
<wgt id='1319'> +1.4766983e-12 </wgt>
<wgt id='1320'> +1.5222410e-12 </wgt>
<wgt id='1321'> +1.4687954e-12 </wgt>
<wgt id='1322'> +1.4908223e-12 </wgt>
<wgt id='1323'> +1.4943330e-12 </wgt>
<wgt id='1324'> +1.4932166e-12 </wgt>
<wgt id='1325'> +1.4945615e-12 </wgt>
<wgt id='1326'> +1.4944877e-12 </wgt>
<wgt id='1327'> +1.4911291e-12 </wgt>
<wgt id='1328'> +1.4877817e-12 </wgt>
<wgt id='1329'> +1.4965448e-12 </wgt>
<wgt id='1330'> +1.4818897e-12 </wgt>
<wgt id='1331'> +1.5053065e-12 </wgt>
<wgt id='1332'> +1.4998617e-12 </wgt>
<wgt id='1333'> +1.4922483e-12 </wgt>
<wgt id='1334'> +1.4874619e-12 </wgt>
<wgt id='1335'> +1.5071668e-12 </wgt>
<wgt id='1336'> +1.4916740e-12 </wgt>
<wgt id='1337'> +1.4971460e-12 </wgt>
<wgt id='1338'> +1.4924890e-12 </wgt>
<wgt id='1339'> +1.4879546e-12 </wgt>
<wgt id='1340'> +1.4754873e-12 </wgt>
<wgt id='1341'> +1.4778417e-12 </wgt>
<wgt id='1342'> +1.4729417e-12 </wgt>
<wgt id='1343'> +1.4766978e-12 </wgt>
<wgt id='1344'> +1.4746598e-12 </wgt>
<wgt id='1345'> +1.4656694e-12 </wgt>
<wgt id='1346'> +1.4845578e-12 </wgt>
<wgt id='1347'> +1.4757123e-12 </wgt>
<wgt id='1348'> +1.4751872e-12 </wgt>
<wgt id='1349'> +1.4844692e-12 </wgt>
<wgt id='1350'> +1.4667128e-12 </wgt>
<wgt id='1351'> +1.4757945e-12 </wgt>
<wgt id='1352'> +1.4747158e-12 </wgt>
<wgt id='1353'> +1.4805353e-12 </wgt>
<wgt id='1354'> +1.4663736e-12 </wgt>
<wgt id='1355'> +1.4778853e-12 </wgt>
<wgt id='1356'> +1.4740833e-12 </wgt>
<wgt id='1357'> +1.4724385e-12 </wgt>
<wgt id='1358'> +1.4790597e-12 </wgt>
<wgt id='1359'> +1.4674557e-12 </wgt>
<wgt id='1360'> +1.4824068e-12 </wgt>
<wgt id='1361'> +1.4850616e-12 </wgt>
<wgt id='1362'> +1.4628738e-12 </wgt>
<wgt id='1363'> +1.4878295e-12 </wgt>
<wgt id='1364'> +1.4680666e-12 </wgt>
<wgt id='1365'> +1.4807754e-12 </wgt>
<wgt id='1366'> +1.4626688e-12 </wgt>
<wgt id='1367'> +1.4725253e-12 </wgt>
<wgt id='1368'> +1.4732730e-12 </wgt>
<wgt id='1369'> +1.4850095e-12 </wgt>
<wgt id='1370'> +1.4632622e-12 </wgt>
<wgt id='1371'> +1.4982022e-12 </wgt>
<wgt id='1372'> +1.4485294e-12 </wgt>
<wgt id='1373'> +1.4680015e-12 </wgt>
<wgt id='1374'> +1.4818080e-12 </wgt>
<wgt id='1375'> +1.4759423e-12 </wgt>
<wgt id='1376'> +1.4775321e-12 </wgt>
<wgt id='1377'> +1.4785780e-12 </wgt>
<wgt id='1378'> +1.4749197e-12 </wgt>
<wgt id='1379'> +1.4708024e-12 </wgt>
<wgt id='1380'> +1.4797593e-12 </wgt>
<wgt id='1381'> +1.4650708e-12 </wgt>
<wgt id='1382'> +1.4871121e-12 </wgt>
<wgt id='1383'> +1.4852304e-12 </wgt>
<wgt id='1384'> +1.4747214e-12 </wgt>
<wgt id='1385'> +1.4698593e-12 </wgt>
<wgt id='1386'> +1.4898942e-12 </wgt>
<wgt id='1387'> +1.4711423e-12 </wgt>
<wgt id='1388'> +1.4809571e-12 </wgt>
<wgt id='1389'> +1.4735349e-12 </wgt>
<wgt id='1390'> +1.4703830e-12 </wgt>
<wgt id='1391'> +1.4273563e-12 </wgt>
<wgt id='1392'> +1.4021994e-12 </wgt>
<wgt id='1393'> +1.4121594e-12 </wgt>
<wgt id='1394'> +1.4200859e-12 </wgt>
<wgt id='1395'> +1.4366876e-12 </wgt>
<wgt id='1396'> +1.4283340e-12 </wgt>
<wgt id='1397'> +1.4030385e-12 </wgt>
<wgt id='1398'> +1.4074131e-12 </wgt>
<wgt id='1399'> +1.4120675e-12 </wgt>
<wgt id='1400'> +1.4170978e-12 </wgt>
<wgt id='1401'> +1.4226550e-12 </wgt>
<wgt id='1402'> +1.4344263e-12 </wgt>
<wgt id='1403'> +1.4408333e-12 </wgt>
<wgt id='1404'> +1.4474373e-12 </wgt>
<wgt id='1405'> +1.4283340e-12 </wgt>
<wgt id='1406'> +1.4254528e-12 </wgt>
<wgt id='1407'> +1.4269339e-12 </wgt>
<wgt id='1408'> +1.4295417e-12 </wgt>
<wgt id='1409'> +1.4306072e-12 </wgt>
<wgt id='1410'> +1.3829239e-12 </wgt>
<wgt id='1411'> +1.3868159e-12 </wgt>
<wgt id='1412'> +1.3778884e-12 </wgt>
<wgt id='1413'> +1.3794467e-12 </wgt>
<wgt id='1414'> +1.3863184e-12 </wgt>
<wgt id='1415'> +1.3825901e-12 </wgt>
<wgt id='1416'> +1.3830278e-12 </wgt>
<wgt id='1417'> +1.3771908e-12 </wgt>
<wgt id='1418'> +1.3886350e-12 </wgt>
<wgt id='1419'> +1.3881188e-12 </wgt>
<wgt id='1420'> +1.3779240e-12 </wgt>
<wgt id='1421'> +1.3729427e-12 </wgt>
<wgt id='1422'> +1.3871396e-12 </wgt>
<wgt id='1423'> +1.3845245e-12 </wgt>
<wgt id='1424'> +1.3809715e-12 </wgt>
<wgt id='1425'> +1.3859249e-12 </wgt>
<wgt id='1426'> +1.3794694e-12 </wgt>
<wgt id='1427'> +1.3683346e-12 </wgt>
<wgt id='1428'> +1.3906839e-12 </wgt>
<wgt id='1429'> +1.3815039e-12 </wgt>
<wgt id='1430'> +1.3849643e-12 </wgt>
<wgt id='1431'> +1.3719681e-12 </wgt>
<wgt id='1432'> +1.3903118e-12 </wgt>
<wgt id='1433'> +1.3627964e-12 </wgt>
<wgt id='1434'> +1.3999464e-12 </wgt>
<wgt id='1435'> +1.3777449e-12 </wgt>
<wgt id='1436'> +1.3965071e-12 </wgt>
<wgt id='1437'> +1.3840078e-12 </wgt>
<wgt id='1438'> +1.3791180e-12 </wgt>
<wgt id='1439'> +1.3745428e-12 </wgt>
<wgt id='1440'> +1.4008806e-12 </wgt>
<wgt id='1441'> +1.3927652e-12 </wgt>
<wgt id='1442'> +1.3616078e-12 </wgt>
<wgt id='1443'> +1.3816176e-12 </wgt>
<wgt id='1444'> +1.3858107e-12 </wgt>
<wgt id='1445'> +1.3885839e-12 </wgt>
<wgt id='1446'> +1.3806445e-12 </wgt>
<wgt id='1447'> +1.3822479e-12 </wgt>
<wgt id='1448'> +1.3762168e-12 </wgt>
<wgt id='1449'> +1.3784377e-12 </wgt>
<wgt id='1450'> +1.3850562e-12 </wgt>
<wgt id='1451'> +1.3918363e-12 </wgt>
<wgt id='1452'> +1.3681681e-12 </wgt>
<wgt id='1453'> +1.3809040e-12 </wgt>
<wgt id='1454'> +1.3812679e-12 </wgt>
<wgt id='1455'> +1.3858480e-12 </wgt>
<wgt id='1456'> +1.3894994e-12 </wgt>
<wgt id='1457'> +1.3925496e-12 </wgt>
<wgt id='1458'> +1.3797086e-12 </wgt>
<wgt id='1459'> +1.3871554e-12 </wgt>
<wgt id='1460'> +1.3878650e-12 </wgt>
<wgt id='1461'> +1.3829239e-12 </wgt>
<wgt id='1462'> +1.3791023e-12 </wgt>
<wgt id='1463'> +1.3864198e-12 </wgt>
<wgt id='1464'> +1.3822975e-12 </wgt>
<wgt id='1465'> +1.3556946e-12 </wgt>
<wgt id='1466'> +1.3605688e-12 </wgt>
<wgt id='1467'> +1.3654674e-12 </wgt>
<wgt id='1468'> +1.3718485e-12 </wgt>
<wgt id='1469'> +1.3768471e-12 </wgt>
<wgt id='1470'> +1.3882171e-12 </wgt>
<wgt id='1471'> +1.3931356e-12 </wgt>
<wgt id='1472'> +1.3988187e-12 </wgt>
<wgt id='1473'> +1.3822975e-12 </wgt>
<wgt id='1474'> +1.3797231e-12 </wgt>
<wgt id='1475'> +1.3814481e-12 </wgt>
<wgt id='1476'> +1.3832687e-12 </wgt>
<wgt id='1477'> +1.3840560e-12 </wgt>
<wgt id='1478'> +1.4011386e-12 </wgt>
<wgt id='1479'> +1.4009128e-12 </wgt>
<wgt id='1480'> +1.4032487e-12 </wgt>
<wgt id='1481'> +1.4091502e-12 </wgt>
<wgt id='1482'> +1.4032178e-12 </wgt>
<wgt id='1483'> +1.3875924e-12 </wgt>
<wgt id='1484'> +1.3917554e-12 </wgt>
<wgt id='1485'> +1.4040733e-12 </wgt>
<wgt id='1486'> +1.3999613e-12 </wgt>
<wgt id='1487'> +1.3986420e-12 </wgt>
<wgt id='1488'> +1.3978828e-12 </wgt>
<wgt id='1489'> +1.4077874e-12 </wgt>
<wgt id='1490'> +1.3964938e-12 </wgt>
<wgt id='1491'> +1.4090531e-12 </wgt>
<wgt id='1492'> +1.4022658e-12 </wgt>
<wgt id='1493'> +1.3798524e-12 </wgt>
<wgt id='1494'> +1.3917025e-12 </wgt>
<wgt id='1495'> +1.3995999e-12 </wgt>
<wgt id='1496'> +1.4207585e-12 </wgt>
<wgt id='1497'> +1.4002663e-12 </wgt>
<wgt id='1498'> +1.4025212e-12 </wgt>
<wgt id='1499'> +1.4037480e-12 </wgt>
<wgt id='1500'> +1.4008094e-12 </wgt>
<wgt id='1501'> +1.4056185e-12 </wgt>
<wgt id='1502'> +1.3997487e-12 </wgt>
<wgt id='1503'> +1.4040080e-12 </wgt>
<wgt id='1504'> +1.3981810e-12 </wgt>
<wgt id='1505'> +1.4144335e-12 </wgt>
<wgt id='1506'> +1.4012451e-12 </wgt>
<wgt id='1507'> +1.3997633e-12 </wgt>
<wgt id='1508'> +1.4039914e-12 </wgt>
<wgt id='1509'> +1.3900243e-12 </wgt>
<wgt id='1510'> +1.3902646e-12 </wgt>
<wgt id='1511'> +1.3818491e-12 </wgt>
<wgt id='1512'> +1.3838279e-12 </wgt>
<wgt id='1513'> +1.3878318e-12 </wgt>
<wgt id='1514'> +1.3931719e-12 </wgt>
<wgt id='1515'> +1.3944767e-12 </wgt>
<wgt id='1516'> +1.3934740e-12 </wgt>
<wgt id='1517'> +1.3923844e-12 </wgt>
<wgt id='1518'> +1.3861488e-12 </wgt>
<wgt id='1519'> +1.3904669e-12 </wgt>
<wgt id='1520'> +1.3880286e-12 </wgt>
<wgt id='1521'> +1.3885067e-12 </wgt>
<wgt id='1522'> +1.3909484e-12 </wgt>
<wgt id='1523'> +1.3888586e-12 </wgt>
<wgt id='1524'> +1.3921111e-12 </wgt>
<wgt id='1525'> +1.3896024e-12 </wgt>
<wgt id='1526'> +1.3896853e-12 </wgt>
<wgt id='1527'> +1.3910494e-12 </wgt>
<wgt id='1528'> +1.3865958e-12 </wgt>
<wgt id='1529'> +1.3881059e-12 </wgt>
<wgt id='1530'> +1.3888001e-12 </wgt>
<wgt id='1531'> +1.3921310e-12 </wgt>
<wgt id='1532'> +1.3857342e-12 </wgt>
<wgt id='1533'> +1.3980939e-12 </wgt>
<wgt id='1534'> +1.3905674e-12 </wgt>
<wgt id='1535'> +1.3893522e-12 </wgt>
<wgt id='1536'> +1.3977500e-12 </wgt>
<wgt id='1537'> +1.3950762e-12 </wgt>
<wgt id='1538'> +1.3694150e-12 </wgt>
<wgt id='1539'> +1.3821489e-12 </wgt>
<wgt id='1540'> +1.3869351e-12 </wgt>
<wgt id='1541'> +1.3844425e-12 </wgt>
<wgt id='1542'> +1.3889028e-12 </wgt>
<wgt id='1543'> +1.3900972e-12 </wgt>
<wgt id='1544'> +1.3911592e-12 </wgt>
<wgt id='1545'> +1.3905626e-12 </wgt>
<wgt id='1546'> +1.3934159e-12 </wgt>
<wgt id='1547'> +1.3897954e-12 </wgt>
<wgt id='1548'> +1.3910339e-12 </wgt>
<wgt id='1549'> +1.3900394e-12 </wgt>
<wgt id='1550'> +1.3896454e-12 </wgt>
<wgt id='1551'> +1.3890013e-12 </wgt>
<wgt id='1552'> +1.3903060e-12 </wgt>
<wgt id='1553'> +1.3935488e-12 </wgt>
<wgt id='1554'> +1.3869261e-12 </wgt>
<wgt id='1555'> +1.3895822e-12 </wgt>
<wgt id='1556'> +1.3923133e-12 </wgt>
<wgt id='1557'> +1.3861875e-12 </wgt>
<wgt id='1558'> +1.3942121e-12 </wgt>
<wgt id='1559'> +1.3956204e-12 </wgt>
<wgt id='1560'> +1.3964112e-12 </wgt>
<wgt id='1561'> +1.3880922e-12 </wgt>
<wgt id='1562'> +1.3900848e-12 </wgt>
<wgt id='1563'> +1.3923138e-12 </wgt>
<wgt id='1564'> +1.3890316e-12 </wgt>
<wgt id='1565'> +1.3889917e-12 </wgt>
<wgt id='1566'> +1.3876358e-12 </wgt>
<wgt id='1567'> +1.3899403e-12 </wgt>
<wgt id='1568'> +1.3884280e-12 </wgt>
<wgt id='1569'> +1.3877425e-12 </wgt>
<wgt id='1570'> +1.3899690e-12 </wgt>
<wgt id='1571'> +1.3862794e-12 </wgt>
<wgt id='1572'> +1.3908450e-12 </wgt>
<wgt id='1573'> +1.3921515e-12 </wgt>
<wgt id='1574'> +1.3887010e-12 </wgt>
<wgt id='1575'> +1.3920552e-12 </wgt>
<wgt id='1576'> +1.3894775e-12 </wgt>
<wgt id='1577'> +1.3894593e-12 </wgt>
<wgt id='1578'> +1.3903015e-12 </wgt>
<wgt id='1579'> +1.3891812e-12 </wgt>
<wgt id='1580'> +1.3879611e-12 </wgt>
<wgt id='1581'> +1.3904447e-12 </wgt>
<wgt id='1582'> +1.3911974e-12 </wgt>
<wgt id='1583'> +1.3910225e-12 </wgt>
<wgt id='1584'> +1.3907477e-12 </wgt>
<wgt id='1585'> +1.3907107e-12 </wgt>
<wgt id='1586'> +1.3899148e-12 </wgt>
<wgt id='1587'> +1.3901703e-12 </wgt>
<wgt id='1588'> +1.3941232e-12 </wgt>
<wgt id='1589'> +1.3885134e-12 </wgt>
<wgt id='1590'> +1.3890583e-12 </wgt>
<wgt id='1591'> +1.3883719e-12 </wgt>
<wgt id='1592'> +1.3900185e-12 </wgt>
<wgt id='1593'> +1.3884013e-12 </wgt>
<wgt id='1594'> +1.3906365e-12 </wgt>
<wgt id='1595'> +1.3904381e-12 </wgt>
<wgt id='1596'> +1.3895697e-12 </wgt>
<wgt id='1597'> +1.3908924e-12 </wgt>
<wgt id='1598'> +1.3896175e-12 </wgt>
<wgt id='1599'> +1.3890061e-12 </wgt>
<wgt id='1600'> +1.3917938e-12 </wgt>
<wgt id='1601'> +1.3919646e-12 </wgt>
<wgt id='1602'> +1.3894328e-12 </wgt>
<wgt id='1603'> +1.3903633e-12 </wgt>
<wgt id='1604'> +1.3895717e-12 </wgt>
<wgt id='1605'> +1.3900577e-12 </wgt>
<wgt id='1606'> +1.3908715e-12 </wgt>
<wgt id='1607'> +1.3890791e-12 </wgt>
<wgt id='1608'> +1.3896474e-12 </wgt>
<wgt id='1609'> +1.3915425e-12 </wgt>
<wgt id='1610'> +1.3781458e-12 </wgt>
<wgt id='1611'> +1.4003970e-12 </wgt>
<wgt id='1612'> +1.5472152e-12 </wgt>
<wgt id='1613'> +1.5338581e-12 </wgt>
<wgt id='1614'> +1.5340327e-12 </wgt>
<wgt id='1615'> +1.5216192e-12 </wgt>
<wgt id='1616'> +1.4852370e-12 </wgt>
<wgt id='1617'> +1.5680180e-12 </wgt>
<wgt id='1618'> +1.4923256e-12 </wgt>
<wgt id='1619'> +1.5318888e-12 </wgt>
<wgt id='1620'> +1.5395661e-12 </wgt>
<wgt id='1621'> +1.5968056e-12 </wgt>
<wgt id='1622'> +1.5512617e-12 </wgt>
<wgt id='1623'> +1.5552528e-12 </wgt>
<wgt id='1624'> +1.5657018e-12 </wgt>
<wgt id='1625'> +1.5523767e-12 </wgt>
<wgt id='1626'> +1.5440409e-12 </wgt>
<wgt id='1627'> +1.5183336e-12 </wgt>
<wgt id='1628'> +1.4264580e-12 </wgt>
<wgt id='1629'> +1.5615204e-12 </wgt>
<wgt id='1630'> +1.5461666e-12 </wgt>
<wgt id='1631'> +1.5925433e-12 </wgt>
<wgt id='1632'> +1.4759329e-12 </wgt>
<wgt id='1633'> +1.5592130e-12 </wgt>
<wgt id='1634'> +1.5332579e-12 </wgt>
<wgt id='1635'> +1.5764493e-12 </wgt>
<wgt id='1636'> +1.5617453e-12 </wgt>
<wgt id='1637'> +1.5617419e-12 </wgt>
<wgt id='1638'> +1.5337769e-12 </wgt>
<wgt id='1639'> +1.5753363e-12 </wgt>
<wgt id='1640'> +1.5079014e-12 </wgt>
<wgt id='1641'> +1.5637349e-12 </wgt>
<wgt id='1642'> +1.4841533e-12 </wgt>
<wgt id='1643'> +1.5056146e-12 </wgt>
<wgt id='1644'> +1.6035446e-12 </wgt>
<wgt id='1645'> +1.5369922e-12 </wgt>
<wgt id='1646'> +1.5913963e-12 </wgt>
<wgt id='1647'> +1.5596628e-12 </wgt>
<wgt id='1648'> +1.5521028e-12 </wgt>
<wgt id='1649'> +1.5616854e-12 </wgt>
<wgt id='1650'> +1.5911368e-12 </wgt>
<wgt id='1651'> +1.5878812e-12 </wgt>
<wgt id='1652'> +1.5542417e-12 </wgt>
<wgt id='1653'> +1.5563354e-12 </wgt>
<wgt id='1654'> +1.5931555e-12 </wgt>
<wgt id='1655'> +1.5669452e-12 </wgt>
<wgt id='1656'> +1.5466842e-12 </wgt>
<wgt id='1657'> +1.5678604e-12 </wgt>
<wgt id='1658'> +1.5409824e-12 </wgt>
<wgt id='1659'> +1.5657018e-12 </wgt>
<wgt id='1660'> +1.5224434e-12 </wgt>
<wgt id='1661'> +1.6024915e-12 </wgt>
<wgt id='1662'> +1.5639877e-12 </wgt>
<wgt id='1663'> +1.5664368e-12 </wgt>
<wgt id='1664'> +1.5965750e-12 </wgt>
<wgt id='1665'> +1.4555916e-12 </wgt>
<wgt id='1666'> +1.5476333e-12 </wgt>
<wgt id='1667'> +1.5958559e-12 </wgt>
<wgt id='1668'> +1.5750074e-12 </wgt>
<wgt id='1669'> +1.6098240e-12 </wgt>
<wgt id='1670'> +1.5469405e-12 </wgt>
<wgt id='1671'> +1.4859666e-12 </wgt>
<wgt id='1672'> +1.5512205e-12 </wgt>
<wgt id='1673'> +1.5844543e-12 </wgt>
<wgt id='1674'> +1.5504069e-12 </wgt>
<wgt id='1675'> +1.5341701e-12 </wgt>
<wgt id='1676'> +1.5379866e-12 </wgt>
<wgt id='1677'> +1.5131776e-12 </wgt>
<wgt id='1678'> +1.5404769e-12 </wgt>
<wgt id='1679'> +1.6054976e-12 </wgt>
<wgt id='1680'> +1.5675492e-12 </wgt>
<wgt id='1681'> +1.5544590e-12 </wgt>
<wgt id='1682'> +1.5411004e-12 </wgt>
<wgt id='1683'> +1.5747351e-12 </wgt>
<wgt id='1684'> +1.5491527e-12 </wgt>
<wgt id='1685'> +1.5670241e-12 </wgt>
<wgt id='1686'> +1.5392685e-12 </wgt>
<wgt id='1687'> +1.5316616e-12 </wgt>
<wgt id='1688'> +1.4336193e-12 </wgt>
<wgt id='1689'> +1.5345429e-12 </wgt>
<wgt id='1690'> +1.5657746e-12 </wgt>
<wgt id='1691'> +1.5071659e-12 </wgt>
<wgt id='1692'> +1.4816666e-12 </wgt>
<wgt id='1693'> +1.5382300e-12 </wgt>
<wgt id='1694'> +1.5263648e-12 </wgt>
<wgt id='1695'> +1.5392724e-12 </wgt>
<wgt id='1696'> +1.5637179e-12 </wgt>
<wgt id='1697'> +1.5557575e-12 </wgt>
<wgt id='1698'> +1.5097243e-12 </wgt>
<wgt id='1699'> +1.5589049e-12 </wgt>
<wgt id='1700'> +1.5298877e-12 </wgt>
<wgt id='1701'> +1.5888214e-12 </wgt>
<wgt id='1702'> +1.5533884e-12 </wgt>
<wgt id='1703'> +1.5072202e-12 </wgt>
<wgt id='1704'> +1.5471503e-12 </wgt>
<wgt id='1705'> +1.4877250e-12 </wgt>
<wgt id='1706'> +1.5678769e-12 </wgt>
<wgt id='1707'> +1.5237798e-12 </wgt>
<wgt id='1708'> +1.6013344e-12 </wgt>
<wgt id='1709'> +1.5761425e-12 </wgt>
<wgt id='1710'> +1.5624981e-12 </wgt>
<wgt id='1711'> +1.5147179e-12 </wgt>
<wgt id='1712'> +1.5974535e-12 </wgt>
<wgt id='1713'> +1.3763935e-12 </wgt>
<wgt id='1714'> +1.3548536e-12 </wgt>
<wgt id='1715'> +1.3679945e-12 </wgt>
<wgt id='1716'> +1.3853760e-12 </wgt>
<wgt id='1717'> +1.4055051e-12 </wgt>
<wgt id='1718'> +1.3767993e-12 </wgt>
<wgt id='1719'> +1.3722058e-12 </wgt>
<wgt id='1720'> +1.3706009e-12 </wgt>
<wgt id='1721'> +1.4202335e-12 </wgt>
<wgt id='1722'> +1.3670693e-12 </wgt>
<wgt id='1723'> +1.4461828e-12 </wgt>
<wgt id='1724'> +1.4035742e-12 </wgt>
<wgt id='1725'> +1.3640700e-12 </wgt>
<wgt id='1726'> +1.3118932e-12 </wgt>
<wgt id='1727'> +1.3862604e-12 </wgt>
<wgt id='1728'> +1.3680114e-12 </wgt>
<wgt id='1729'> +1.3738086e-12 </wgt>
<wgt id='1730'> +1.3206775e-12 </wgt>
<wgt id='1731'> +1.2488143e-12 </wgt>
<wgt id='1732'> +1.3858921e-12 </wgt>
<wgt id='1733'> +1.4042143e-12 </wgt>
<wgt id='1734'> +1.4307501e-12 </wgt>
<wgt id='1735'> +1.4218930e-12 </wgt>
<wgt id='1736'> +1.4167466e-12 </wgt>
<wgt id='1737'> +1.3777501e-12 </wgt>
<wgt id='1738'> +1.3528746e-12 </wgt>
<wgt id='1739'> +1.3433372e-12 </wgt>
<wgt id='1740'> +1.2955303e-12 </wgt>
<wgt id='1741'> +1.3672304e-12 </wgt>
<wgt id='1742'> +1.3652953e-12 </wgt>
<wgt id='1743'> +1.3746149e-12 </wgt>
<wgt id='1744'> +1.4133929e-12 </wgt>
<wgt id='1745'> +1.4107402e-12 </wgt>
<wgt id='1746'> +1.4118139e-12 </wgt>
<wgt id='1747'> +1.4083950e-12 </wgt>
<wgt id='1748'> +1.3969268e-12 </wgt>
<wgt id='1749'> +1.3711515e-12 </wgt>
<wgt id='1750'> +1.3423037e-12 </wgt>
<wgt id='1751'> +1.3674855e-12 </wgt>
<wgt id='1752'> +1.3632018e-12 </wgt>
<wgt id='1753'> +1.4025074e-12 </wgt>
<wgt id='1754'> +1.3904614e-12 </wgt>
<wgt id='1755'> +1.3881868e-12 </wgt>
<wgt id='1756'> +1.4000487e-12 </wgt>
<wgt id='1757'> +1.3985632e-12 </wgt>
<wgt id='1758'> +1.4298063e-12 </wgt>
<wgt id='1759'> +1.3526813e-12 </wgt>
<wgt id='1760'> +1.3971785e-12 </wgt>
<wgt id='1761'> +1.3630300e-12 </wgt>
<wgt id='1762'> +1.3773912e-12 </wgt>
<wgt id='1763'> +1.3873637e-12 </wgt>
<wgt id='1764'> +1.4100337e-12 </wgt>
<wgt id='1765'> +1.3693843e-12 </wgt>
<wgt id='1766'> +1.3917682e-12 </wgt>
<wgt id='1767'> +1.3697056e-12 </wgt>
<wgt id='1768'> +1.3692140e-12 </wgt>
<wgt id='1769'> +1.3123194e-12 </wgt>
<wgt id='1770'> +1.3179164e-12 </wgt>
<wgt id='1771'> +1.3842354e-12 </wgt>
<wgt id='1772'> +1.3708783e-12 </wgt>
<wgt id='1773'> +1.4077074e-12 </wgt>
<wgt id='1774'> +1.2981772e-12 </wgt>
<wgt id='1775'> +1.3698865e-12 </wgt>
<wgt id='1776'> +1.3554613e-12 </wgt>
<wgt id='1777'> +1.2618344e-12 </wgt>
<wgt id='1778'> +1.3906645e-12 </wgt>
<wgt id='1779'> +1.3477555e-12 </wgt>
<wgt id='1780'> +1.5089110e-12 </wgt>
<wgt id='1781'> +1.3541377e-12 </wgt>
<wgt id='1782'> +1.3911816e-12 </wgt>
<wgt id='1783'> +1.3892979e-12 </wgt>
<wgt id='1784'> +1.3786894e-12 </wgt>
<wgt id='1785'> +1.3904279e-12 </wgt>
<wgt id='1786'> +1.3959871e-12 </wgt>
<wgt id='1787'> +1.4281287e-12 </wgt>
<wgt id='1788'> +1.3567721e-12 </wgt>
<wgt id='1789'> +1.4894078e-12 </wgt>
<wgt id='1790'> +1.3764485e-12 </wgt>
<wgt id='1791'> +1.4044306e-12 </wgt>
<wgt id='1792'> +1.3600761e-12 </wgt>
<wgt id='1793'> +1.3812816e-12 </wgt>
<wgt id='1794'> +1.4169961e-12 </wgt>
<wgt id='1795'> +1.4086005e-12 </wgt>
<wgt id='1796'> +1.3828481e-12 </wgt>
<wgt id='1797'> +1.3819666e-12 </wgt>
<wgt id='1798'> +1.3502528e-12 </wgt>
<wgt id='1799'> +1.3824211e-12 </wgt>
<wgt id='1800'> +1.3884910e-12 </wgt>
<wgt id='1801'> +1.3475269e-12 </wgt>
<wgt id='1802'> +1.3139774e-12 </wgt>
<wgt id='1803'> +1.3894149e-12 </wgt>
<wgt id='1804'> +1.4206959e-12 </wgt>
<wgt id='1805'> +1.4046073e-12 </wgt>
<wgt id='1806'> +1.3402617e-12 </wgt>
<wgt id='1807'> +1.4067600e-12 </wgt>
<wgt id='1808'> +1.3219690e-12 </wgt>
<wgt id='1809'> +1.3892415e-12 </wgt>
<wgt id='1810'> +1.3180656e-12 </wgt>
<wgt id='1811'> +1.3684228e-12 </wgt>
<wgt id='1812'> +1.3440318e-12 </wgt>
<wgt id='1813'> +1.2839211e-12 </wgt>
<wgt id='1814'> +1.6780178e-12 </wgt>
<wgt id='1815'> +1.9974987e-12 </wgt>
<wgt id='1816'> +1.3763935e-12 </wgt>
<wgt id='1817'> +1.3548536e-12 </wgt>
<wgt id='1818'> +1.3679945e-12 </wgt>
<wgt id='1819'> +1.3853760e-12 </wgt>
<wgt id='1820'> +1.4055051e-12 </wgt>
<wgt id='1821'> +1.3767993e-12 </wgt>
<wgt id='1822'> +1.3722058e-12 </wgt>
<wgt id='1823'> +1.3706009e-12 </wgt>
<wgt id='1824'> +1.4202335e-12 </wgt>
<wgt id='1825'> +1.3670693e-12 </wgt>
<wgt id='1826'> +1.4461828e-12 </wgt>
<wgt id='1827'> +1.4035742e-12 </wgt>
<wgt id='1828'> +1.3640700e-12 </wgt>
<wgt id='1829'> +1.3118932e-12 </wgt>
<wgt id='1830'> +1.3862604e-12 </wgt>
<wgt id='1831'> +1.3680114e-12 </wgt>
<wgt id='1832'> +1.3738086e-12 </wgt>
<wgt id='1833'> +1.3206775e-12 </wgt>
<wgt id='1834'> +1.2488143e-12 </wgt>
<wgt id='1835'> +1.3858921e-12 </wgt>
<wgt id='1836'> +1.4042143e-12 </wgt>
<wgt id='1837'> +1.4307501e-12 </wgt>
<wgt id='1838'> +1.4218930e-12 </wgt>
<wgt id='1839'> +1.4167466e-12 </wgt>
<wgt id='1840'> +1.3777501e-12 </wgt>
<wgt id='1841'> +1.3528746e-12 </wgt>
<wgt id='1842'> +1.3433372e-12 </wgt>
<wgt id='1843'> +1.2955303e-12 </wgt>
<wgt id='1844'> +1.3672304e-12 </wgt>
<wgt id='1845'> +1.3652953e-12 </wgt>
<wgt id='1846'> +1.3746149e-12 </wgt>
<wgt id='1847'> +1.4133929e-12 </wgt>
<wgt id='1848'> +1.4107402e-12 </wgt>
<wgt id='1849'> +1.4118139e-12 </wgt>
<wgt id='1850'> +1.4083950e-12 </wgt>
<wgt id='1851'> +1.3969268e-12 </wgt>
<wgt id='1852'> +1.3711515e-12 </wgt>
<wgt id='1853'> +1.3423037e-12 </wgt>
<wgt id='1854'> +1.3674855e-12 </wgt>
<wgt id='1855'> +1.3632018e-12 </wgt>
<wgt id='1856'> +1.4025074e-12 </wgt>
<wgt id='1857'> +1.3904614e-12 </wgt>
<wgt id='1858'> +1.3881868e-12 </wgt>
<wgt id='1859'> +1.4000487e-12 </wgt>
<wgt id='1860'> +1.3985632e-12 </wgt>
<wgt id='1861'> +1.4298063e-12 </wgt>
<wgt id='1862'> +1.3526813e-12 </wgt>
<wgt id='1863'> +1.3971785e-12 </wgt>
<wgt id='1864'> +1.3630300e-12 </wgt>
<wgt id='1865'> +1.3773912e-12 </wgt>
<wgt id='1866'> +1.3873637e-12 </wgt>
<wgt id='1867'> +1.4100337e-12 </wgt>
<wgt id='1868'> +1.3693843e-12 </wgt>
<wgt id='1869'> +1.3917682e-12 </wgt>
<wgt id='1870'> +1.3697056e-12 </wgt>
<wgt id='1871'> +1.3692140e-12 </wgt>
<wgt id='1872'> +1.3123194e-12 </wgt>
<wgt id='1873'> +1.3179164e-12 </wgt>
<wgt id='1874'> +1.3842354e-12 </wgt>
<wgt id='1875'> +1.3708783e-12 </wgt>
<wgt id='1876'> +1.4077074e-12 </wgt>
<wgt id='1877'> +1.2981772e-12 </wgt>
<wgt id='1878'> +1.3698865e-12 </wgt>
<wgt id='1879'> +1.3554613e-12 </wgt>
<wgt id='1880'> +1.2618344e-12 </wgt>
<wgt id='1881'> +1.3906645e-12 </wgt>
<wgt id='1882'> +1.3477555e-12 </wgt>
<wgt id='1883'> +1.5089110e-12 </wgt>
<wgt id='1884'> +1.3541377e-12 </wgt>
<wgt id='1885'> +1.3911816e-12 </wgt>
<wgt id='1886'> +1.3892979e-12 </wgt>
<wgt id='1887'> +1.3786894e-12 </wgt>
<wgt id='1888'> +1.3904279e-12 </wgt>
<wgt id='1889'> +1.3959871e-12 </wgt>
<wgt id='1890'> +1.4281287e-12 </wgt>
<wgt id='1891'> +1.3567721e-12 </wgt>
<wgt id='1892'> +1.4894078e-12 </wgt>
<wgt id='1893'> +1.3764485e-12 </wgt>
<wgt id='1894'> +1.4044306e-12 </wgt>
<wgt id='1895'> +1.3600761e-12 </wgt>
<wgt id='1896'> +1.3812816e-12 </wgt>
<wgt id='1897'> +1.4169961e-12 </wgt>
<wgt id='1898'> +1.4086005e-12 </wgt>
<wgt id='1899'> +1.3828481e-12 </wgt>
<wgt id='1900'> +1.3819666e-12 </wgt>
<wgt id='1901'> +1.3502528e-12 </wgt>
<wgt id='1902'> +1.3824211e-12 </wgt>
<wgt id='1903'> +1.3884910e-12 </wgt>
<wgt id='1904'> +1.3475269e-12 </wgt>
<wgt id='1905'> +1.3139774e-12 </wgt>
<wgt id='1906'> +1.3894149e-12 </wgt>
<wgt id='1907'> +1.4206959e-12 </wgt>
<wgt id='1908'> +1.4046073e-12 </wgt>
<wgt id='1909'> +1.3402617e-12 </wgt>
<wgt id='1910'> +1.4067600e-12 </wgt>
<wgt id='1911'> +1.3219690e-12 </wgt>
<wgt id='1912'> +1.3892415e-12 </wgt>
<wgt id='1913'> +1.3180656e-12 </wgt>
<wgt id='1914'> +1.3684228e-12 </wgt>
<wgt id='1915'> +1.3440318e-12 </wgt>
<wgt id='1916'> +1.2839211e-12 </wgt>
<wgt id='1917'> +1.3685174e-12 </wgt>
<wgt id='1918'> +1.3841135e-12 </wgt>
<wgt id='1919'> +1.3610591e-12 </wgt>
</rwgt>
</event>
<event>
 9      1 +1.5538000e-12 6.24263100e+01 7.81860800e-03 1.25952100e-01
       21 -1    0    0  501  502 +0.0000000000e+00 +0.0000000000e+00 +8.8789278973e+00 8.8789278973e+00 0.0000000000e+00 0.0000e+00 -1.0000e+00
        2 -1    0    0  502    0 -0.0000000000e+00 -0.0000000000e+00 -4.2700494124e+02 4.2700494124e+02 0.0000000000e+00 0.0000e+00 1.0000e+00
     1023  2    1    2    0    0 -3.5043900231e+01 -4.9436637138e+01 -2.2194186852e+02 2.3055419590e+02 1.4999606881e+01 0.0000e+00 0.0000e+00
  1000023  2    3    3    0    0 -9.5725806368e+00 -2.0799584034e+01 -7.4671751013e+01 7.8296662605e+01 5.4990889846e+00 0.0000e+00 0.0000e+00
        2  1    1    2  501    0 +3.5043900231e+01 +4.9436637138e+01 -1.9618414482e+02 2.0532967325e+02 0.0000000000e+00 0.0000e+00 1.0000e+00
  1000022  1    4    4    0    0 -8.6417948196e+00 -1.8956390178e+01 -6.9321784168e+01 7.2557116168e+01 5.0000000000e+00 0.0000e+00 -1.0000e+00
      -11  1    4    4    0    0 -3.2443216071e-01 -8.9906505025e-01 -2.5319686066e+00 2.7063701664e+00 5.1100000000e-04 0.0000e+00 1.0000e+00
       11  1    4    4    0    0 -6.0635365651e-01 -9.4412880564e-01 -2.8179982382e+00 3.0331762708e+00 5.1100000000e-04 0.0000e+00 -1.0000e+00
  1000022  1    3    3    0    0 -2.5471319595e+01 -2.8637053104e+01 -1.4727011751e+02 1.5225753329e+02 5.0000000000e+00 0.0000e+00 -1.0000e+00
<mgrwt>
<rscale>  1 0.62426310E+02</rscale>
<asrwt>0</asrwt>
<pdfrwt beam="1">  1       21 0.13659890E-02 0.62426310E+02</pdfrwt>
<pdfrwt beam="2">  1        2 0.65693064E-01 0.62426310E+02</pdfrwt>
<totfact> 0.18521803E+06</totfact>
</mgrwt>
<rwgt>
<wgt id='1001'> +1.5538000e-12 </wgt>
<wgt id='1002'> +1.5266039e-12 </wgt>
<wgt id='1003'> +1.5262394e-12 </wgt>
<wgt id='1004'> +1.5542211e-12 </wgt>
<wgt id='1005'> +1.5260688e-12 </wgt>
<wgt id='1006'> +1.3835726e-12 </wgt>
<wgt id='1007'> +1.3762042e-12 </wgt>
<wgt id='1008'> +1.3760302e-12 </wgt>
<wgt id='1009'> +1.3834610e-12 </wgt>
<wgt id='1010'> +1.3759484e-12 </wgt>
<wgt id='1011'> +1.7738145e-12 </wgt>
<wgt id='1012'> +1.7152789e-12 </wgt>
<wgt id='1013'> +1.7146225e-12 </wgt>
<wgt id='1014'> +1.7751176e-12 </wgt>
<wgt id='1015'> +1.7143159e-12 </wgt>
<wgt id='1016'> +1.7130087e-12 </wgt>
<wgt id='1017'> +1.6458004e-12 </wgt>
<wgt id='1018'> +1.6450840e-12 </wgt>
<wgt id='1019'> +1.7146225e-12 </wgt>
<wgt id='1020'> +1.6447494e-12 </wgt>
<wgt id='1021'> +1.5253392e-12 </wgt>
<wgt id='1022'> +1.4836575e-12 </wgt>
<wgt id='1023'> +1.4831784e-12 </wgt>
<wgt id='1024'> +1.5262394e-12 </wgt>
<wgt id='1025'> +1.4829544e-12 </wgt>
<wgt id='1026'> +1.9555668e-12 </wgt>
<wgt id='1027'> +1.8492070e-12 </wgt>
<wgt id='1028'> +1.8481360e-12 </wgt>
<wgt id='1029'> +1.9583163e-12 </wgt>
<wgt id='1030'> +1.8476363e-12 </wgt>
<wgt id='1031'> +1.3621254e-12 </wgt>
<wgt id='1032'> +1.3834106e-12 </wgt>
<wgt id='1033'> +1.3834610e-12 </wgt>
<wgt id='1034'> +1.3610632e-12 </wgt>
<wgt id='1035'> +1.3834836e-12 </wgt>
<wgt id='1036'> +1.2128971e-12 </wgt>
<wgt id='1037'> +1.2471181e-12 </wgt>
<wgt id='1038'> +1.2473038e-12 </wgt>
<wgt id='1039'> +1.2115251e-12 </wgt>
<wgt id='1040'> +1.2473895e-12 </wgt>
<wgt id='1041'> +1.5549992e-12 </wgt>
<wgt id='1042'> +1.5543881e-12 </wgt>
<wgt id='1043'> +1.5542211e-12 </wgt>
<wgt id='1044'> +1.5545067e-12 </wgt>
<wgt id='1045'> +1.5541422e-12 </wgt>
<wgt id='1046'> +1.5538000e-12 </wgt>
<wgt id='1047'> +1.5631744e-12 </wgt>
<wgt id='1048'> +1.5661992e-12 </wgt>
<wgt id='1049'> +1.5198089e-12 </wgt>
<wgt id='1050'> +1.5209631e-12 </wgt>
<wgt id='1051'> +1.5514818e-12 </wgt>
<wgt id='1052'> +1.5201853e-12 </wgt>
<wgt id='1053'> +1.5912464e-12 </wgt>
<wgt id='1054'> +1.5727407e-12 </wgt>
<wgt id='1055'> +1.5506501e-12 </wgt>
<wgt id='1056'> +1.5148970e-12 </wgt>
<wgt id='1057'> +1.5458696e-12 </wgt>
<wgt id='1058'> +1.5336766e-12 </wgt>
<wgt id='1059'> +1.5646845e-12 </wgt>
<wgt id='1060'> +1.5736190e-12 </wgt>
<wgt id='1061'> +1.5667130e-12 </wgt>
<wgt id='1062'> +1.5765158e-12 </wgt>
<wgt id='1063'> +1.5484750e-12 </wgt>
<wgt id='1064'> +1.5520562e-12 </wgt>
<wgt id='1065'> +1.5833590e-12 </wgt>
<wgt id='1066'> +1.5504793e-12 </wgt>
<wgt id='1067'> +1.5520755e-12 </wgt>
<wgt id='1068'> +1.5754795e-12 </wgt>
<wgt id='1069'> +1.5791300e-12 </wgt>
<wgt id='1070'> +1.5638056e-12 </wgt>
<wgt id='1071'> +1.5673050e-12 </wgt>
<wgt id='1072'> +1.5995123e-12 </wgt>
<wgt id='1073'> +1.5313874e-12 </wgt>
<wgt id='1074'> +1.5542611e-12 </wgt>
<wgt id='1075'> +1.5607263e-12 </wgt>
<wgt id='1076'> +1.5480864e-12 </wgt>
<wgt id='1077'> +1.5535684e-12 </wgt>
<wgt id='1078'> +1.5126444e-12 </wgt>
<wgt id='1079'> +1.5412648e-12 </wgt>
<wgt id='1080'> +1.5365953e-12 </wgt>
<wgt id='1081'> +1.5329021e-12 </wgt>
<wgt id='1082'> +1.5528624e-12 </wgt>
<wgt id='1083'> +1.5720736e-12 </wgt>
<wgt id='1084'> +1.5310889e-12 </wgt>
<wgt id='1085'> +1.5518781e-12 </wgt>
<wgt id='1086'> +1.5632107e-12 </wgt>
<wgt id='1087'> +1.5500393e-12 </wgt>
<wgt id='1088'> +1.5550779e-12 </wgt>
<wgt id='1089'> +1.5391057e-12 </wgt>
<wgt id='1090'> +1.5377898e-12 </wgt>
<wgt id='1091'> +1.5574239e-12 </wgt>
<wgt id='1092'> +1.5682440e-12 </wgt>
<wgt id='1093'> +1.5455175e-12 </wgt>
<wgt id='1094'> +1.6121533e-12 </wgt>
<wgt id='1095'> +1.5691056e-12 </wgt>
<wgt id='1096'> +1.5575353e-12 </wgt>
<wgt id='1097'> +1.5364265e-12 </wgt>
<wgt id='1098'> +1.5650812e-12 </wgt>
<wgt id='1099'> +1.5424831e-12 </wgt>
<wgt id='1100'> +1.5600207e-12 </wgt>
<wgt id='1101'> +1.5986987e-12 </wgt>
<wgt id='1102'> +1.5545404e-12 </wgt>
<wgt id='1103'> +1.5888023e-12 </wgt>
<wgt id='1104'> +1.5766802e-12 </wgt>
<wgt id='1105'> +1.5462045e-12 </wgt>
<wgt id='1106'> +1.5805883e-12 </wgt>
<wgt id='1107'> +1.5507737e-12 </wgt>
<wgt id='1108'> +1.5588104e-12 </wgt>
<wgt id='1109'> +1.5487941e-12 </wgt>
<wgt id='1110'> +1.5558263e-12 </wgt>
<wgt id='1111'> +1.5666921e-12 </wgt>
<wgt id='1112'> +1.5631910e-12 </wgt>
<wgt id='1113'> +1.5610080e-12 </wgt>
<wgt id='1114'> +1.5611630e-12 </wgt>
<wgt id='1115'> +1.5691450e-12 </wgt>
<wgt id='1116'> +1.5536620e-12 </wgt>
<wgt id='1117'> +1.5427389e-12 </wgt>
<wgt id='1118'> +1.6027696e-12 </wgt>
<wgt id='1119'> +1.5184103e-12 </wgt>
<wgt id='1120'> +1.5287507e-12 </wgt>
<wgt id='1121'> +1.5340089e-12 </wgt>
<wgt id='1122'> +1.5558620e-12 </wgt>
<wgt id='1123'> +1.5468132e-12 </wgt>
<wgt id='1124'> +1.5492340e-12 </wgt>
<wgt id='1125'> +1.5436957e-12 </wgt>
<wgt id='1126'> +1.5403499e-12 </wgt>
<wgt id='1127'> +1.5425573e-12 </wgt>
<wgt id='1128'> +1.5765158e-12 </wgt>
<wgt id='1129'> +1.5037392e-12 </wgt>
<wgt id='1130'> +1.5577735e-12 </wgt>
<wgt id='1131'> +1.5545886e-12 </wgt>
<wgt id='1132'> +1.5620043e-12 </wgt>
<wgt id='1133'> +1.5311981e-12 </wgt>
<wgt id='1134'> +1.5163544e-12 </wgt>
<wgt id='1135'> +1.4899270e-12 </wgt>
<wgt id='1136'> +1.5391841e-12 </wgt>
<wgt id='1137'> +1.5631609e-12 </wgt>
<wgt id='1138'> +1.5416955e-12 </wgt>
<wgt id='1139'> +1.5466040e-12 </wgt>
<wgt id='1140'> +1.5536781e-12 </wgt>
<wgt id='1141'> +1.5574391e-12 </wgt>
<wgt id='1142'> +1.5527897e-12 </wgt>
<wgt id='1143'> +1.5386603e-12 </wgt>
<wgt id='1144'> +1.5535400e-12 </wgt>
<wgt id='1145'> +1.5746530e-12 </wgt>
<wgt id='1146'> +1.5838847e-12 </wgt>
<wgt id='1147'> +1.3829437e-12 </wgt>
<wgt id='1148'> +1.4019870e-12 </wgt>
<wgt id='1149'> +1.3544936e-12 </wgt>
<wgt id='1150'> +1.3819547e-12 </wgt>
<wgt id='1151'> +1.4503180e-12 </wgt>
<wgt id='1152'> +1.8007881e-12 </wgt>
<wgt id='1153'> +1.8002268e-12 </wgt>
<wgt id='1154'> +1.8010126e-12 </wgt>
<wgt id='1155'> +1.7962495e-12 </wgt>
<wgt id='1156'> +1.8030779e-12 </wgt>
<wgt id='1157'> +1.8032682e-12 </wgt>
<wgt id='1158'> +1.7973858e-12 </wgt>
<wgt id='1159'> +1.8029716e-12 </wgt>
<wgt id='1160'> +1.7993341e-12 </wgt>
<wgt id='1161'> +1.7983149e-12 </wgt>
<wgt id='1162'> +1.8024511e-12 </wgt>
<wgt id='1163'> +1.8015948e-12 </wgt>
<wgt id='1164'> +1.7999362e-12 </wgt>
<wgt id='1165'> +1.8037707e-12 </wgt>
<wgt id='1166'> +1.7975459e-12 </wgt>
<wgt id='1167'> +1.8124487e-12 </wgt>
<wgt id='1168'> +1.7852342e-12 </wgt>
<wgt id='1169'> +1.8045927e-12 </wgt>
<wgt id='1170'> +1.7979060e-12 </wgt>
<wgt id='1171'> +1.7944332e-12 </wgt>
<wgt id='1172'> +1.8089707e-12 </wgt>
<wgt id='1173'> +1.7851553e-12 </wgt>
<wgt id='1174'> +1.8167562e-12 </wgt>
<wgt id='1175'> +1.8011366e-12 </wgt>
<wgt id='1176'> +1.7999169e-12 </wgt>
<wgt id='1177'> +1.7959810e-12 </wgt>
<wgt id='1178'> +1.8134826e-12 </wgt>
<wgt id='1179'> +1.8046617e-12 </wgt>
<wgt id='1180'> +1.7917444e-12 </wgt>
<wgt id='1181'> +1.8040219e-12 </wgt>
<wgt id='1182'> +1.7959341e-12 </wgt>
<wgt id='1183'> +1.7929715e-12 </wgt>
<wgt id='1184'> +1.8012889e-12 </wgt>
<wgt id='1185'> +1.7985474e-12 </wgt>
<wgt id='1186'> +1.8021432e-12 </wgt>
<wgt id='1187'> +1.8029820e-12 </wgt>
<wgt id='1188'> +1.8000100e-12 </wgt>
<wgt id='1189'> +1.7973868e-12 </wgt>
<wgt id='1190'> +1.7906006e-12 </wgt>
<wgt id='1191'> +1.8006942e-12 </wgt>
<wgt id='1192'> +1.7989846e-12 </wgt>
<wgt id='1193'> +1.3849277e-12 </wgt>
<wgt id='1194'> +1.3818054e-12 </wgt>
<wgt id='1195'> +1.3874663e-12 </wgt>
<wgt id='1196'> +1.3872653e-12 </wgt>
<wgt id='1197'> +1.3823384e-12 </wgt>
<wgt id='1198'> +1.3837865e-12 </wgt>
<wgt id='1199'> +1.3866150e-12 </wgt>
<wgt id='1200'> +1.3822739e-12 </wgt>
<wgt id='1201'> +1.3867357e-12 </wgt>
<wgt id='1202'> +1.3842547e-12 </wgt>
<wgt id='1203'> +1.3859328e-12 </wgt>
<wgt id='1204'> +1.3807869e-12 </wgt>
<wgt id='1205'> +1.3873836e-12 </wgt>
<wgt id='1206'> +1.3878622e-12 </wgt>
<wgt id='1207'> +1.3809967e-12 </wgt>
<wgt id='1208'> +1.3887665e-12 </wgt>
<wgt id='1209'> +1.3835439e-12 </wgt>
<wgt id='1210'> +1.3827465e-12 </wgt>
<wgt id='1211'> +1.3809935e-12 </wgt>
<wgt id='1212'> +1.3862571e-12 </wgt>
<wgt id='1213'> +1.3836865e-12 </wgt>
<wgt id='1214'> +1.3690959e-12 </wgt>
<wgt id='1215'> +1.4110656e-12 </wgt>
<wgt id='1216'> +1.3908055e-12 </wgt>
<wgt id='1217'> +1.3815432e-12 </wgt>
<wgt id='1218'> +1.3880662e-12 </wgt>
<wgt id='1219'> +1.3832251e-12 </wgt>
<wgt id='1220'> +1.3894414e-12 </wgt>
<wgt id='1221'> +1.3836787e-12 </wgt>
<wgt id='1222'> +1.3943850e-12 </wgt>
<wgt id='1223'> +1.3701364e-12 </wgt>
<wgt id='1224'> +1.3888492e-12 </wgt>
<wgt id='1225'> +1.3833720e-12 </wgt>
<wgt id='1226'> +1.3848843e-12 </wgt>
<wgt id='1227'> +1.3852483e-12 </wgt>
<wgt id='1228'> +1.3728392e-12 </wgt>
<wgt id='1229'> +1.3904870e-12 </wgt>
<wgt id='1230'> +1.3816728e-12 </wgt>
<wgt id='1231'> +1.3864117e-12 </wgt>
<wgt id='1232'> +1.3828801e-12 </wgt>
<wgt id='1233'> +1.3854406e-12 </wgt>
<wgt id='1234'> +1.3849277e-12 </wgt>
<wgt id='1235'> +1.3780225e-12 </wgt>
<wgt id='1236'> +1.3806128e-12 </wgt>
<wgt id='1237'> +1.3830173e-12 </wgt>
<wgt id='1238'> +1.3868275e-12 </wgt>
<wgt id='1239'> +1.3884175e-12 </wgt>
<wgt id='1240'> +1.3899394e-12 </wgt>
<wgt id='1241'> +1.3504313e-12 </wgt>
<wgt id='1242'> +1.3448516e-12 </wgt>
<wgt id='1243'> +1.3559020e-12 </wgt>
<wgt id='1244'> +1.3498480e-12 </wgt>
<wgt id='1245'> +1.3507393e-12 </wgt>
<wgt id='1246'> +1.3469640e-12 </wgt>
<wgt id='1247'> +1.3533283e-12 </wgt>
<wgt id='1248'> +1.3503610e-12 </wgt>
<wgt id='1249'> +1.3504771e-12 </wgt>
<wgt id='1250'> +1.3519661e-12 </wgt>
<wgt id='1251'> +1.3492862e-12 </wgt>
<wgt id='1252'> +1.3478369e-12 </wgt>
<wgt id='1253'> +1.3523760e-12 </wgt>
<wgt id='1254'> +1.3452102e-12 </wgt>
<wgt id='1255'> +1.3534673e-12 </wgt>
<wgt id='1256'> +1.3493826e-12 </wgt>
<wgt id='1257'> +1.3527712e-12 </wgt>
<wgt id='1258'> +1.3680253e-12 </wgt>
<wgt id='1259'> +1.3341618e-12 </wgt>
<wgt id='1260'> +1.3533686e-12 </wgt>
<wgt id='1261'> +1.3471393e-12 </wgt>
<wgt id='1262'> +1.3508231e-12 </wgt>
<wgt id='1263'> +1.3505358e-12 </wgt>
<wgt id='1264'> +1.3545650e-12 </wgt>
<wgt id='1265'> +1.3483194e-12 </wgt>
<wgt id='1266'> +1.3374220e-12 </wgt>
<wgt id='1267'> +1.3620190e-12 </wgt>
<wgt id='1268'> +1.3544134e-12 </wgt>
<wgt id='1269'> +1.3476654e-12 </wgt>
<wgt id='1270'> +1.3461089e-12 </wgt>
<wgt id='1271'> +1.3473159e-12 </wgt>
<wgt id='1272'> +1.3521159e-12 </wgt>
<wgt id='1273'> +1.3496012e-12 </wgt>
<wgt id='1274'> +1.3511916e-12 </wgt>
<wgt id='1275'> +1.3487286e-12 </wgt>
<wgt id='1276'> +1.3596092e-12 </wgt>
<wgt id='1277'> +1.3388186e-12 </wgt>
<wgt id='1278'> +1.3518593e-12 </wgt>
<wgt id='1279'> +1.3521383e-12 </wgt>
<wgt id='1280'> +1.3511784e-12 </wgt>
<wgt id='1281'> +1.3475438e-12 </wgt>
<wgt id='1282'> +1.3504313e-12 </wgt>
<wgt id='1283'> +1.3435671e-12 </wgt>
<wgt id='1284'> +1.3463183e-12 </wgt>
<wgt id='1285'> +1.3485636e-12 </wgt>
<wgt id='1286'> +1.3522917e-12 </wgt>
<wgt id='1287'> +1.3537715e-12 </wgt>
<wgt id='1288'> +1.3548657e-12 </wgt>
<wgt id='1289'> +1.4333148e-12 </wgt>
<wgt id='1290'> +1.4328664e-12 </wgt>
<wgt id='1291'> +1.4338249e-12 </wgt>
<wgt id='1292'> +1.4336061e-12 </wgt>
<wgt id='1293'> +1.4331085e-12 </wgt>
<wgt id='1294'> +1.4285447e-12 </wgt>
<wgt id='1295'> +1.4379436e-12 </wgt>
<wgt id='1296'> +1.4319271e-12 </wgt>
<wgt id='1297'> +1.4349923e-12 </wgt>
<wgt id='1298'> +1.4345189e-12 </wgt>
<wgt id='1299'> +1.4317659e-12 </wgt>
<wgt id='1300'> +1.4352411e-12 </wgt>
<wgt id='1301'> +1.4294924e-12 </wgt>
<wgt id='1302'> +1.4299925e-12 </wgt>
<wgt id='1303'> +1.4379646e-12 </wgt>
<wgt id='1304'> +1.4314957e-12 </wgt>
<wgt id='1305'> +1.4345454e-12 </wgt>
<wgt id='1306'> +1.4339731e-12 </wgt>
<wgt id='1307'> +1.4324352e-12 </wgt>
<wgt id='1308'> +1.4275645e-12 </wgt>
<wgt id='1309'> +1.4377029e-12 </wgt>
<wgt id='1310'> +1.4304191e-12 </wgt>
<wgt id='1311'> +1.4365300e-12 </wgt>
<wgt id='1312'> +1.4405638e-12 </wgt>
<wgt id='1313'> +1.4260779e-12 </wgt>
<wgt id='1314'> +1.4234621e-12 </wgt>
<wgt id='1315'> +1.4404395e-12 </wgt>
<wgt id='1316'> +1.4404633e-12 </wgt>
<wgt id='1317'> +1.4315425e-12 </wgt>
<wgt id='1318'> +1.4464814e-12 </wgt>
<wgt id='1319'> +1.4179433e-12 </wgt>
<wgt id='1320'> +1.4447292e-12 </wgt>
<wgt id='1321'> +1.4239767e-12 </wgt>
<wgt id='1322'> +1.4332995e-12 </wgt>
<wgt id='1323'> +1.4339718e-12 </wgt>
<wgt id='1324'> +1.4287974e-12 </wgt>
<wgt id='1325'> +1.4444119e-12 </wgt>
<wgt id='1326'> +1.4323590e-12 </wgt>
<wgt id='1327'> +1.4357083e-12 </wgt>
<wgt id='1328'> +1.4330313e-12 </wgt>
<wgt id='1329'> +1.4332713e-12 </wgt>
<wgt id='1330'> +1.4376448e-12 </wgt>
<wgt id='1331'> +1.4317931e-12 </wgt>
<wgt id='1332'> +1.4430010e-12 </wgt>
<wgt id='1333'> +1.4309135e-12 </wgt>
<wgt id='1334'> +1.4308801e-12 </wgt>
<wgt id='1335'> +1.4404346e-12 </wgt>
<wgt id='1336'> +1.4308179e-12 </wgt>
<wgt id='1337'> +1.4364279e-12 </wgt>
<wgt id='1338'> +1.4311374e-12 </wgt>
<wgt id='1339'> +1.4343530e-12 </wgt>
<wgt id='1340'> +1.4058745e-12 </wgt>
<wgt id='1341'> +1.4053746e-12 </wgt>
<wgt id='1342'> +1.4064373e-12 </wgt>
<wgt id='1343'> +1.4061945e-12 </wgt>
<wgt id='1344'> +1.4056743e-12 </wgt>
<wgt id='1345'> +1.4009245e-12 </wgt>
<wgt id='1346'> +1.4104811e-12 </wgt>
<wgt id='1347'> +1.4048970e-12 </wgt>
<wgt id='1348'> +1.4068901e-12 </wgt>
<wgt id='1349'> +1.4067153e-12 </wgt>
<wgt id='1350'> +1.4049713e-12 </wgt>
<wgt id='1351'> +1.4074511e-12 </wgt>
<wgt id='1352'> +1.4024154e-12 </wgt>
<wgt id='1353'> +1.4016898e-12 </wgt>
<wgt id='1354'> +1.4133272e-12 </wgt>
<wgt id='1355'> +1.4046620e-12 </wgt>
<wgt id='1356'> +1.4065456e-12 </wgt>
<wgt id='1357'> +1.4053917e-12 </wgt>
<wgt id='1358'> +1.4062237e-12 </wgt>
<wgt id='1359'> +1.4001358e-12 </wgt>
<wgt id='1360'> +1.4108291e-12 </wgt>
<wgt id='1361'> +1.4038153e-12 </wgt>
<wgt id='1362'> +1.4086943e-12 </wgt>
<wgt id='1363'> +1.4176700e-12 </wgt>
<wgt id='1364'> +1.3981808e-12 </wgt>
<wgt id='1365'> +1.4073583e-12 </wgt>
<wgt id='1366'> +1.3987389e-12 </wgt>
<wgt id='1367'> +1.4128298e-12 </wgt>
<wgt id='1368'> +1.4039616e-12 </wgt>
<wgt id='1369'> +1.4169454e-12 </wgt>
<wgt id='1370'> +1.3927962e-12 </wgt>
<wgt id='1371'> +1.4151610e-12 </wgt>
<wgt id='1372'> +1.3950846e-12 </wgt>
<wgt id='1373'> +1.4039390e-12 </wgt>
<wgt id='1374'> +1.4083441e-12 </wgt>
<wgt id='1375'> +1.4016335e-12 </wgt>
<wgt id='1376'> +1.4171518e-12 </wgt>
<wgt id='1377'> +1.4045329e-12 </wgt>
<wgt id='1378'> +1.4087095e-12 </wgt>
<wgt id='1379'> +1.4055594e-12 </wgt>
<wgt id='1380'> +1.4057948e-12 </wgt>
<wgt id='1381'> +1.4105735e-12 </wgt>
<wgt id='1382'> +1.4039471e-12 </wgt>
<wgt id='1383'> +1.4148741e-12 </wgt>
<wgt id='1384'> +1.4045577e-12 </wgt>
<wgt id='1385'> +1.4036409e-12 </wgt>
<wgt id='1386'> +1.4119104e-12 </wgt>
<wgt id='1387'> +1.4023652e-12 </wgt>
<wgt id='1388'> +1.4092756e-12 </wgt>
<wgt id='1389'> +1.4026721e-12 </wgt>
<wgt id='1390'> +1.4073861e-12 </wgt>
<wgt id='1391'> +1.3745694e-12 </wgt>
<wgt id='1392'> +1.3363407e-12 </wgt>
<wgt id='1393'> +1.3494492e-12 </wgt>
<wgt id='1394'> +1.3622606e-12 </wgt>
<wgt id='1395'> +1.3872876e-12 </wgt>
<wgt id='1396'> +1.3748988e-12 </wgt>
<wgt id='1397'> +1.3619797e-12 </wgt>
<wgt id='1398'> +1.3641086e-12 </wgt>
<wgt id='1399'> +1.3662026e-12 </wgt>
<wgt id='1400'> +1.3687919e-12 </wgt>
<wgt id='1401'> +1.3718717e-12 </wgt>
<wgt id='1402'> +1.3780121e-12 </wgt>
<wgt id='1403'> +1.3814849e-12 </wgt>
<wgt id='1404'> +1.3851680e-12 </wgt>
<wgt id='1405'> +1.3748988e-12 </wgt>
<wgt id='1406'> +1.3709122e-12 </wgt>
<wgt id='1407'> +1.3730306e-12 </wgt>
<wgt id='1408'> +1.3766674e-12 </wgt>
<wgt id='1409'> +1.3781256e-12 </wgt>
<wgt id='1410'> +1.3387536e-12 </wgt>
<wgt id='1411'> +1.3387630e-12 </wgt>
<wgt id='1412'> +1.3387626e-12 </wgt>
<wgt id='1413'> +1.3378474e-12 </wgt>
<wgt id='1414'> +1.3396442e-12 </wgt>
<wgt id='1415'> +1.3389818e-12 </wgt>
<wgt id='1416'> +1.3386798e-12 </wgt>
<wgt id='1417'> +1.3334488e-12 </wgt>
<wgt id='1418'> +1.3440285e-12 </wgt>
<wgt id='1419'> +1.3387398e-12 </wgt>
<wgt id='1420'> +1.3387398e-12 </wgt>
<wgt id='1421'> +1.3320705e-12 </wgt>
<wgt id='1422'> +1.3416096e-12 </wgt>
<wgt id='1423'> +1.3375958e-12 </wgt>
<wgt id='1424'> +1.3401553e-12 </wgt>
<wgt id='1425'> +1.3329483e-12 </wgt>
<wgt id='1426'> +1.3450191e-12 </wgt>
<wgt id='1427'> +1.3294241e-12 </wgt>
<wgt id='1428'> +1.3436434e-12 </wgt>
<wgt id='1429'> +1.3432064e-12 </wgt>
<wgt id='1430'> +1.3326710e-12 </wgt>
<wgt id='1431'> +1.3382745e-12 </wgt>
<wgt id='1432'> +1.3390209e-12 </wgt>
<wgt id='1433'> +1.3356940e-12 </wgt>
<wgt id='1434'> +1.3403711e-12 </wgt>
<wgt id='1435'> +1.3333260e-12 </wgt>
<wgt id='1436'> +1.3519407e-12 </wgt>
<wgt id='1437'> +1.3450310e-12 </wgt>
<wgt id='1438'> +1.3373171e-12 </wgt>
<wgt id='1439'> +1.3321816e-12 </wgt>
<wgt id='1440'> +1.3542265e-12 </wgt>
<wgt id='1441'> +1.3404141e-12 </wgt>
<wgt id='1442'> +1.3354829e-12 </wgt>
<wgt id='1443'> +1.3351809e-12 </wgt>
<wgt id='1444'> +1.3471466e-12 </wgt>
<wgt id='1445'> +1.3530267e-12 </wgt>
<wgt id='1446'> +1.3329896e-12 </wgt>
<wgt id='1447'> +1.3390704e-12 </wgt>
<wgt id='1448'> +1.3403005e-12 </wgt>
<wgt id='1449'> +1.3389807e-12 </wgt>
<wgt id='1450'> +1.3381661e-12 </wgt>
<wgt id='1451'> +1.3375050e-12 </wgt>
<wgt id='1452'> +1.3410008e-12 </wgt>
<wgt id='1453'> +1.3395249e-12 </wgt>
<wgt id='1454'> +1.3330472e-12 </wgt>
<wgt id='1455'> +1.3414248e-12 </wgt>
<wgt id='1456'> +1.3383097e-12 </wgt>
<wgt id='1457'> +1.3419522e-12 </wgt>
<wgt id='1458'> +1.3374555e-12 </wgt>
<wgt id='1459'> +1.3407876e-12 </wgt>
<wgt id='1460'> +1.3386232e-12 </wgt>
<wgt id='1461'> +1.3387536e-12 </wgt>
<wgt id='1462'> +1.3282621e-12 </wgt>
<wgt id='1463'> +1.3464880e-12 </wgt>
<wgt id='1464'> +1.3373296e-12 </wgt>
<wgt id='1465'> +1.3223597e-12 </wgt>
<wgt id='1466'> +1.3250071e-12 </wgt>
<wgt id='1467'> +1.3279642e-12 </wgt>
<wgt id='1468'> +1.3312244e-12 </wgt>
<wgt id='1469'> +1.3340926e-12 </wgt>
<wgt id='1470'> +1.3409727e-12 </wgt>
<wgt id='1471'> +1.3438136e-12 </wgt>
<wgt id='1472'> +1.3471631e-12 </wgt>
<wgt id='1473'> +1.3373296e-12 </wgt>
<wgt id='1474'> +1.3333668e-12 </wgt>
<wgt id='1475'> +1.3354615e-12 </wgt>
<wgt id='1476'> +1.3389541e-12 </wgt>
<wgt id='1477'> +1.3403381e-12 </wgt>
<wgt id='1478'> +1.3476797e-12 </wgt>
<wgt id='1479'> +1.3464170e-12 </wgt>
<wgt id='1480'> +1.3349359e-12 </wgt>
<wgt id='1481'> +1.3476106e-12 </wgt>
<wgt id='1482'> +1.3476882e-12 </wgt>
<wgt id='1483'> +1.3342409e-12 </wgt>
<wgt id='1484'> +1.3404373e-12 </wgt>
<wgt id='1485'> +1.3493244e-12 </wgt>
<wgt id='1486'> +1.3476944e-12 </wgt>
<wgt id='1487'> +1.3533849e-12 </wgt>
<wgt id='1488'> +1.3454890e-12 </wgt>
<wgt id='1489'> +1.3556792e-12 </wgt>
<wgt id='1490'> +1.3448641e-12 </wgt>
<wgt id='1491'> +1.3510711e-12 </wgt>
<wgt id='1492'> +1.3499858e-12 </wgt>
<wgt id='1493'> +1.3333706e-12 </wgt>
<wgt id='1494'> +1.3480559e-12 </wgt>
<wgt id='1495'> +1.3325430e-12 </wgt>
<wgt id='1496'> +1.3483585e-12 </wgt>
<wgt id='1497'> +1.3496020e-12 </wgt>
<wgt id='1498'> +1.3470824e-12 </wgt>
<wgt id='1499'> +1.3501022e-12 </wgt>
<wgt id='1500'> +1.3477390e-12 </wgt>
<wgt id='1501'> +1.3481773e-12 </wgt>
<wgt id='1502'> +1.3477273e-12 </wgt>
<wgt id='1503'> +1.3499049e-12 </wgt>
<wgt id='1504'> +1.3463632e-12 </wgt>
<wgt id='1505'> +1.3491523e-12 </wgt>
<wgt id='1506'> +1.3485471e-12 </wgt>
<wgt id='1507'> +1.3469772e-12 </wgt>
<wgt id='1508'> +1.3520846e-12 </wgt>
<wgt id='1509'> +1.3723311e-12 </wgt>
<wgt id='1510'> +1.3717305e-12 </wgt>
<wgt id='1511'> +1.3733840e-12 </wgt>
<wgt id='1512'> +1.3718887e-12 </wgt>
<wgt id='1513'> +1.3708512e-12 </wgt>
<wgt id='1514'> +1.3749114e-12 </wgt>
<wgt id='1515'> +1.3757914e-12 </wgt>
<wgt id='1516'> +1.3756132e-12 </wgt>
<wgt id='1517'> +1.3786854e-12 </wgt>
<wgt id='1518'> +1.3705643e-12 </wgt>
<wgt id='1519'> +1.3696732e-12 </wgt>
<wgt id='1520'> +1.3757252e-12 </wgt>
<wgt id='1521'> +1.3745775e-12 </wgt>
<wgt id='1522'> +1.3737917e-12 </wgt>
<wgt id='1523'> +1.3751304e-12 </wgt>
<wgt id='1524'> +1.3719049e-12 </wgt>
<wgt id='1525'> +1.3743779e-12 </wgt>
<wgt id='1526'> +1.3723335e-12 </wgt>
<wgt id='1527'> +1.3716838e-12 </wgt>
<wgt id='1528'> +1.3730242e-12 </wgt>
<wgt id='1529'> +1.3729293e-12 </wgt>
<wgt id='1530'> +1.3741820e-12 </wgt>
<wgt id='1531'> +1.3738773e-12 </wgt>
<wgt id='1532'> +1.3678789e-12 </wgt>
<wgt id='1533'> +1.3729592e-12 </wgt>
<wgt id='1534'> +1.3724248e-12 </wgt>
<wgt id='1535'> +1.3662018e-12 </wgt>
<wgt id='1536'> +1.3740836e-12 </wgt>
<wgt id='1537'> +1.3737764e-12 </wgt>
<wgt id='1538'> +1.3630230e-12 </wgt>
<wgt id='1539'> +1.3754397e-12 </wgt>
<wgt id='1540'> +1.3723780e-12 </wgt>
<wgt id='1541'> +1.3700028e-12 </wgt>
<wgt id='1542'> +1.3703646e-12 </wgt>
<wgt id='1543'> +1.3731167e-12 </wgt>
<wgt id='1544'> +1.3721311e-12 </wgt>
<wgt id='1545'> +1.3704796e-12 </wgt>
<wgt id='1546'> +1.3704188e-12 </wgt>
<wgt id='1547'> +1.3712616e-12 </wgt>
<wgt id='1548'> +1.3729697e-12 </wgt>
<wgt id='1549'> +1.3705943e-12 </wgt>
<wgt id='1550'> +1.3723954e-12 </wgt>
<wgt id='1551'> +1.3735605e-12 </wgt>
<wgt id='1552'> +1.3738402e-12 </wgt>
<wgt id='1553'> +1.3719038e-12 </wgt>
<wgt id='1554'> +1.3710339e-12 </wgt>
<wgt id='1555'> +1.3745691e-12 </wgt>
<wgt id='1556'> +1.3758601e-12 </wgt>
<wgt id='1557'> +1.3717787e-12 </wgt>
<wgt id='1558'> +1.3711491e-12 </wgt>
<wgt id='1559'> +1.3691347e-12 </wgt>
<wgt id='1560'> +1.3721133e-12 </wgt>
<wgt id='1561'> +1.3714131e-12 </wgt>
<wgt id='1562'> +1.3723595e-12 </wgt>
<wgt id='1563'> +1.3719517e-12 </wgt>
<wgt id='1564'> +1.3717504e-12 </wgt>
<wgt id='1565'> +1.3729814e-12 </wgt>
<wgt id='1566'> +1.3729131e-12 </wgt>
<wgt id='1567'> +1.3735980e-12 </wgt>
<wgt id='1568'> +1.3710101e-12 </wgt>
<wgt id='1569'> +1.3744946e-12 </wgt>
<wgt id='1570'> +1.3729629e-12 </wgt>
<wgt id='1571'> +1.3726659e-12 </wgt>
<wgt id='1572'> +1.3729672e-12 </wgt>
<wgt id='1573'> +1.3728032e-12 </wgt>
<wgt id='1574'> +1.3734275e-12 </wgt>
<wgt id='1575'> +1.3710230e-12 </wgt>
<wgt id='1576'> +1.3724661e-12 </wgt>
<wgt id='1577'> +1.3726982e-12 </wgt>
<wgt id='1578'> +1.3740628e-12 </wgt>
<wgt id='1579'> +1.3712700e-12 </wgt>
<wgt id='1580'> +1.3716019e-12 </wgt>
<wgt id='1581'> +1.3724344e-12 </wgt>
<wgt id='1582'> +1.3742874e-12 </wgt>
<wgt id='1583'> +1.3717046e-12 </wgt>
<wgt id='1584'> +1.3735280e-12 </wgt>
<wgt id='1585'> +1.3730091e-12 </wgt>
<wgt id='1586'> +1.3720388e-12 </wgt>
<wgt id='1587'> +1.3719223e-12 </wgt>
<wgt id='1588'> +1.3718145e-12 </wgt>
<wgt id='1589'> +1.3728790e-12 </wgt>
<wgt id='1590'> +1.3724884e-12 </wgt>
<wgt id='1591'> +1.3726950e-12 </wgt>
<wgt id='1592'> +1.3718157e-12 </wgt>
<wgt id='1593'> +1.3733845e-12 </wgt>
<wgt id='1594'> +1.3722331e-12 </wgt>
<wgt id='1595'> +1.3728655e-12 </wgt>
<wgt id='1596'> +1.3712877e-12 </wgt>
<wgt id='1597'> +1.3736207e-12 </wgt>
<wgt id='1598'> +1.3717327e-12 </wgt>
<wgt id='1599'> +1.3714215e-12 </wgt>
<wgt id='1600'> +1.3711780e-12 </wgt>
<wgt id='1601'> +1.3722014e-12 </wgt>
<wgt id='1602'> +1.3728489e-12 </wgt>
<wgt id='1603'> +1.3725914e-12 </wgt>
<wgt id='1604'> +1.3727806e-12 </wgt>
<wgt id='1605'> +1.3724533e-12 </wgt>
<wgt id='1606'> +1.3721601e-12 </wgt>
<wgt id='1607'> +1.3715887e-12 </wgt>
<wgt id='1608'> +1.3726278e-12 </wgt>
<wgt id='1609'> +1.3728249e-12 </wgt>
<wgt id='1610'> +1.3567882e-12 </wgt>
<wgt id='1611'> +1.3862525e-12 </wgt>
<wgt id='1612'> +1.5306305e-12 </wgt>
<wgt id='1613'> +1.5119531e-12 </wgt>
<wgt id='1614'> +1.5294861e-12 </wgt>
<wgt id='1615'> +1.5274579e-12 </wgt>
<wgt id='1616'> +1.5033223e-12 </wgt>
<wgt id='1617'> +1.5351180e-12 </wgt>
<wgt id='1618'> +1.5030105e-12 </wgt>
<wgt id='1619'> +1.5212372e-12 </wgt>
<wgt id='1620'> +1.5213997e-12 </wgt>
<wgt id='1621'> +1.5331432e-12 </wgt>
<wgt id='1622'> +1.5468397e-12 </wgt>
<wgt id='1623'> +1.4997251e-12 </wgt>
<wgt id='1624'> +1.5126915e-12 </wgt>
<wgt id='1625'> +1.5305286e-12 </wgt>
<wgt id='1626'> +1.5261553e-12 </wgt>
<wgt id='1627'> +1.5220884e-12 </wgt>
<wgt id='1628'> +1.4666117e-12 </wgt>
<wgt id='1629'> +1.5693831e-12 </wgt>
<wgt id='1630'> +1.5323389e-12 </wgt>
<wgt id='1631'> +1.5348122e-12 </wgt>
<wgt id='1632'> +1.4720021e-12 </wgt>
<wgt id='1633'> +1.5015912e-12 </wgt>
<wgt id='1634'> +1.5600661e-12 </wgt>
<wgt id='1635'> +1.5559288e-12 </wgt>
<wgt id='1636'> +1.5438054e-12 </wgt>
<wgt id='1637'> +1.5409146e-12 </wgt>
<wgt id='1638'> +1.5425613e-12 </wgt>
<wgt id='1639'> +1.5108854e-12 </wgt>
<wgt id='1640'> +1.5442359e-12 </wgt>
<wgt id='1641'> +1.5180714e-12 </wgt>
<wgt id='1642'> +1.5167578e-12 </wgt>
<wgt id='1643'> +1.5245759e-12 </wgt>
<wgt id='1644'> +1.5561608e-12 </wgt>
<wgt id='1645'> +1.5337328e-12 </wgt>
<wgt id='1646'> +1.5524622e-12 </wgt>
<wgt id='1647'> +1.5297549e-12 </wgt>
<wgt id='1648'> +1.5573523e-12 </wgt>
<wgt id='1649'> +1.5181428e-12 </wgt>
<wgt id='1650'> +1.5128731e-12 </wgt>
<wgt id='1651'> +1.4936426e-12 </wgt>
<wgt id='1652'> +1.5121167e-12 </wgt>
<wgt id='1653'> +1.5410935e-12 </wgt>
<wgt id='1654'> +1.5039585e-12 </wgt>
<wgt id='1655'> +1.5135257e-12 </wgt>
<wgt id='1656'> +1.5428428e-12 </wgt>
<wgt id='1657'> +1.5013119e-12 </wgt>
<wgt id='1658'> +1.4980791e-12 </wgt>
<wgt id='1659'> +1.5126915e-12 </wgt>
<wgt id='1660'> +1.5339087e-12 </wgt>
<wgt id='1661'> +1.5698918e-12 </wgt>
<wgt id='1662'> +1.5716993e-12 </wgt>
<wgt id='1663'> +1.5561110e-12 </wgt>
<wgt id='1664'> +1.5237199e-12 </wgt>
<wgt id='1665'> +1.5023231e-12 </wgt>
<wgt id='1666'> +1.5467123e-12 </wgt>
<wgt id='1667'> +1.5180603e-12 </wgt>
<wgt id='1668'> +1.5181667e-12 </wgt>
<wgt id='1669'> +1.5458723e-12 </wgt>
<wgt id='1670'> +1.5487294e-12 </wgt>
<wgt id='1671'> +1.5474710e-12 </wgt>
<wgt id='1672'> +1.5664628e-12 </wgt>
<wgt id='1673'> +1.5104823e-12 </wgt>
<wgt id='1674'> +1.5056101e-12 </wgt>
<wgt id='1675'> +1.5522238e-12 </wgt>
<wgt id='1676'> +1.5281666e-12 </wgt>
<wgt id='1677'> +1.5906073e-12 </wgt>
<wgt id='1678'> +1.5178996e-12 </wgt>
<wgt id='1679'> +1.5349106e-12 </wgt>
<wgt id='1680'> +1.5487076e-12 </wgt>
<wgt id='1681'> +1.5638502e-12 </wgt>
<wgt id='1682'> +1.5381793e-12 </wgt>
<wgt id='1683'> +1.5037175e-12 </wgt>
<wgt id='1684'> +1.5452868e-12 </wgt>
<wgt id='1685'> +1.5172331e-12 </wgt>
<wgt id='1686'> +1.5415205e-12 </wgt>
<wgt id='1687'> +1.5506704e-12 </wgt>
<wgt id='1688'> +1.5087498e-12 </wgt>
<wgt id='1689'> +1.5540968e-12 </wgt>
<wgt id='1690'> +1.5449733e-12 </wgt>
<wgt id='1691'> +1.5422567e-12 </wgt>
<wgt id='1692'> +1.5769978e-12 </wgt>
<wgt id='1693'> +1.5518194e-12 </wgt>
<wgt id='1694'> +1.5341709e-12 </wgt>
<wgt id='1695'> +1.5757636e-12 </wgt>
<wgt id='1696'> +1.5543449e-12 </wgt>
<wgt id='1697'> +1.5064405e-12 </wgt>
<wgt id='1698'> +1.5200710e-12 </wgt>
<wgt id='1699'> +1.5123349e-12 </wgt>
<wgt id='1700'> +1.5249764e-12 </wgt>
<wgt id='1701'> +1.5551638e-12 </wgt>
<wgt id='1702'> +1.5158209e-12 </wgt>
<wgt id='1703'> +1.5442679e-12 </wgt>
<wgt id='1704'> +1.5207516e-12 </wgt>
<wgt id='1705'> +1.4864688e-12 </wgt>
<wgt id='1706'> +1.5387232e-12 </wgt>
<wgt id='1707'> +1.4982011e-12 </wgt>
<wgt id='1708'> +1.5343251e-12 </wgt>
<wgt id='1709'> +1.5400523e-12 </wgt>
<wgt id='1710'> +1.5172528e-12 </wgt>
<wgt id='1711'> +1.5269064e-12 </wgt>
<wgt id='1712'> +1.5417924e-12 </wgt>
<wgt id='1713'> +1.3177742e-12 </wgt>
<wgt id='1714'> +1.3054627e-12 </wgt>
<wgt id='1715'> +1.3148860e-12 </wgt>
<wgt id='1716'> +1.3395118e-12 </wgt>
<wgt id='1717'> +1.3219403e-12 </wgt>
<wgt id='1718'> +1.3374314e-12 </wgt>
<wgt id='1719'> +1.3243075e-12 </wgt>
<wgt id='1720'> +1.3158839e-12 </wgt>
<wgt id='1721'> +1.2899569e-12 </wgt>
<wgt id='1722'> +1.3090269e-12 </wgt>
<wgt id='1723'> +1.3308116e-12 </wgt>
<wgt id='1724'> +1.3624857e-12 </wgt>
<wgt id='1725'> +1.3203181e-12 </wgt>
<wgt id='1726'> +1.3310936e-12 </wgt>
<wgt id='1727'> +1.3310040e-12 </wgt>
<wgt id='1728'> +1.3210244e-12 </wgt>
<wgt id='1729'> +1.2947565e-12 </wgt>
<wgt id='1730'> +1.3025780e-12 </wgt>
<wgt id='1731'> +1.2611095e-12 </wgt>
<wgt id='1732'> +1.3153840e-12 </wgt>
<wgt id='1733'> +1.2713993e-12 </wgt>
<wgt id='1734'> +1.3518933e-12 </wgt>
<wgt id='1735'> +1.3209372e-12 </wgt>
<wgt id='1736'> +1.3763185e-12 </wgt>
<wgt id='1737'> +1.3304734e-12 </wgt>
<wgt id='1738'> +1.3202879e-12 </wgt>
<wgt id='1739'> +1.3056916e-12 </wgt>
<wgt id='1740'> +1.2576973e-12 </wgt>
<wgt id='1741'> +1.3278692e-12 </wgt>
<wgt id='1742'> +1.2936982e-12 </wgt>
<wgt id='1743'> +1.3123202e-12 </wgt>
<wgt id='1744'> +1.3229868e-12 </wgt>
<wgt id='1745'> +1.3279619e-12 </wgt>
<wgt id='1746'> +1.3093710e-12 </wgt>
<wgt id='1747'> +1.3514780e-12 </wgt>
<wgt id='1748'> +1.2985863e-12 </wgt>
<wgt id='1749'> +1.3033254e-12 </wgt>
<wgt id='1750'> +1.2997506e-12 </wgt>
<wgt id='1751'> +1.2962203e-12 </wgt>
<wgt id='1752'> +1.3043630e-12 </wgt>
<wgt id='1753'> +1.3319118e-12 </wgt>
<wgt id='1754'> +1.3352261e-12 </wgt>
<wgt id='1755'> +1.3341007e-12 </wgt>
<wgt id='1756'> +1.3376009e-12 </wgt>
<wgt id='1757'> +1.3202840e-12 </wgt>
<wgt id='1758'> +1.3465010e-12 </wgt>
<wgt id='1759'> +1.3275554e-12 </wgt>
<wgt id='1760'> +1.2988686e-12 </wgt>
<wgt id='1761'> +1.3087658e-12 </wgt>
<wgt id='1762'> +1.2947514e-12 </wgt>
<wgt id='1763'> +1.3295810e-12 </wgt>
<wgt id='1764'> +1.3262307e-12 </wgt>
<wgt id='1765'> +1.3106029e-12 </wgt>
<wgt id='1766'> +1.3493842e-12 </wgt>
<wgt id='1767'> +1.3378945e-12 </wgt>
<wgt id='1768'> +1.3225991e-12 </wgt>
<wgt id='1769'> +1.3140876e-12 </wgt>
<wgt id='1770'> +1.3142696e-12 </wgt>
<wgt id='1771'> +1.3395557e-12 </wgt>
<wgt id='1772'> +1.3150721e-12 </wgt>
<wgt id='1773'> +1.3104284e-12 </wgt>
<wgt id='1774'> +1.2993618e-12 </wgt>
<wgt id='1775'> +1.3129886e-12 </wgt>
<wgt id='1776'> +1.3547311e-12 </wgt>
<wgt id='1777'> +1.2640939e-12 </wgt>
<wgt id='1778'> +1.3040094e-12 </wgt>
<wgt id='1779'> +1.3245140e-12 </wgt>
<wgt id='1780'> +1.3319218e-12 </wgt>
<wgt id='1781'> +1.3206486e-12 </wgt>
<wgt id='1782'> +1.3002458e-12 </wgt>
<wgt id='1783'> +1.3124019e-12 </wgt>
<wgt id='1784'> +1.3362136e-12 </wgt>
<wgt id='1785'> +1.3252071e-12 </wgt>
<wgt id='1786'> +1.3216983e-12 </wgt>
<wgt id='1787'> +1.3566653e-12 </wgt>
<wgt id='1788'> +1.3179383e-12 </wgt>
<wgt id='1789'> +1.3601257e-12 </wgt>
<wgt id='1790'> +1.3468456e-12 </wgt>
<wgt id='1791'> +1.3372148e-12 </wgt>
<wgt id='1792'> +1.2998842e-12 </wgt>
<wgt id='1793'> +1.3152187e-12 </wgt>
<wgt id='1794'> +1.3484226e-12 </wgt>
<wgt id='1795'> +1.3298160e-12 </wgt>
<wgt id='1796'> +1.2844330e-12 </wgt>
<wgt id='1797'> +1.3200748e-12 </wgt>
<wgt id='1798'> +1.2994089e-12 </wgt>
<wgt id='1799'> +1.3140927e-12 </wgt>
<wgt id='1800'> +1.3298374e-12 </wgt>
<wgt id='1801'> +1.3241425e-12 </wgt>
<wgt id='1802'> +1.3048054e-12 </wgt>
<wgt id='1803'> +1.3309006e-12 </wgt>
<wgt id='1804'> +1.2947464e-12 </wgt>
<wgt id='1805'> +1.3011251e-12 </wgt>
<wgt id='1806'> +1.2916451e-12 </wgt>
<wgt id='1807'> +1.3418607e-12 </wgt>
<wgt id='1808'> +1.2822685e-12 </wgt>
<wgt id='1809'> +1.3169849e-12 </wgt>
<wgt id='1810'> +1.3010802e-12 </wgt>
<wgt id='1811'> +1.3342354e-12 </wgt>
<wgt id='1812'> +1.3059878e-12 </wgt>
<wgt id='1813'> +1.2669243e-12 </wgt>
<wgt id='1814'> +1.4934993e-12 </wgt>
<wgt id='1815'> +1.7254632e-12 </wgt>
<wgt id='1816'> +1.3177742e-12 </wgt>
<wgt id='1817'> +1.3054627e-12 </wgt>
<wgt id='1818'> +1.3148860e-12 </wgt>
<wgt id='1819'> +1.3395118e-12 </wgt>
<wgt id='1820'> +1.3219403e-12 </wgt>
<wgt id='1821'> +1.3374314e-12 </wgt>
<wgt id='1822'> +1.3243075e-12 </wgt>
<wgt id='1823'> +1.3158839e-12 </wgt>
<wgt id='1824'> +1.2899569e-12 </wgt>
<wgt id='1825'> +1.3090269e-12 </wgt>
<wgt id='1826'> +1.3308116e-12 </wgt>
<wgt id='1827'> +1.3624857e-12 </wgt>
<wgt id='1828'> +1.3203181e-12 </wgt>
<wgt id='1829'> +1.3310936e-12 </wgt>
<wgt id='1830'> +1.3310040e-12 </wgt>
<wgt id='1831'> +1.3210244e-12 </wgt>
<wgt id='1832'> +1.2947565e-12 </wgt>
<wgt id='1833'> +1.3025780e-12 </wgt>
<wgt id='1834'> +1.2611095e-12 </wgt>
<wgt id='1835'> +1.3153840e-12 </wgt>
<wgt id='1836'> +1.2713993e-12 </wgt>
<wgt id='1837'> +1.3518933e-12 </wgt>
<wgt id='1838'> +1.3209372e-12 </wgt>
<wgt id='1839'> +1.3763185e-12 </wgt>
<wgt id='1840'> +1.3304734e-12 </wgt>
<wgt id='1841'> +1.3202879e-12 </wgt>
<wgt id='1842'> +1.3056916e-12 </wgt>
<wgt id='1843'> +1.2576973e-12 </wgt>
<wgt id='1844'> +1.3278692e-12 </wgt>
<wgt id='1845'> +1.2936982e-12 </wgt>
<wgt id='1846'> +1.3123202e-12 </wgt>
<wgt id='1847'> +1.3229868e-12 </wgt>
<wgt id='1848'> +1.3279619e-12 </wgt>
<wgt id='1849'> +1.3093710e-12 </wgt>
<wgt id='1850'> +1.3514780e-12 </wgt>
<wgt id='1851'> +1.2985863e-12 </wgt>
<wgt id='1852'> +1.3033254e-12 </wgt>
<wgt id='1853'> +1.2997506e-12 </wgt>
<wgt id='1854'> +1.2962203e-12 </wgt>
<wgt id='1855'> +1.3043630e-12 </wgt>
<wgt id='1856'> +1.3319118e-12 </wgt>
<wgt id='1857'> +1.3352261e-12 </wgt>
<wgt id='1858'> +1.3341007e-12 </wgt>
<wgt id='1859'> +1.3376009e-12 </wgt>
<wgt id='1860'> +1.3202840e-12 </wgt>
<wgt id='1861'> +1.3465010e-12 </wgt>
<wgt id='1862'> +1.3275554e-12 </wgt>
<wgt id='1863'> +1.2988686e-12 </wgt>
<wgt id='1864'> +1.3087658e-12 </wgt>
<wgt id='1865'> +1.2947514e-12 </wgt>
<wgt id='1866'> +1.3295810e-12 </wgt>
<wgt id='1867'> +1.3262307e-12 </wgt>
<wgt id='1868'> +1.3106029e-12 </wgt>
<wgt id='1869'> +1.3493842e-12 </wgt>
<wgt id='1870'> +1.3378945e-12 </wgt>
<wgt id='1871'> +1.3225991e-12 </wgt>
<wgt id='1872'> +1.3140876e-12 </wgt>
<wgt id='1873'> +1.3142696e-12 </wgt>
<wgt id='1874'> +1.3395557e-12 </wgt>
<wgt id='1875'> +1.3150721e-12 </wgt>
<wgt id='1876'> +1.3104284e-12 </wgt>
<wgt id='1877'> +1.2993618e-12 </wgt>
<wgt id='1878'> +1.3129886e-12 </wgt>
<wgt id='1879'> +1.3547311e-12 </wgt>
<wgt id='1880'> +1.2640939e-12 </wgt>
<wgt id='1881'> +1.3040094e-12 </wgt>
<wgt id='1882'> +1.3245140e-12 </wgt>
<wgt id='1883'> +1.3319218e-12 </wgt>
<wgt id='1884'> +1.3206486e-12 </wgt>
<wgt id='1885'> +1.3002458e-12 </wgt>
<wgt id='1886'> +1.3124019e-12 </wgt>
<wgt id='1887'> +1.3362136e-12 </wgt>
<wgt id='1888'> +1.3252071e-12 </wgt>
<wgt id='1889'> +1.3216983e-12 </wgt>
<wgt id='1890'> +1.3566653e-12 </wgt>
<wgt id='1891'> +1.3179383e-12 </wgt>
<wgt id='1892'> +1.3601257e-12 </wgt>
<wgt id='1893'> +1.3468456e-12 </wgt>
<wgt id='1894'> +1.3372148e-12 </wgt>
<wgt id='1895'> +1.2998842e-12 </wgt>
<wgt id='1896'> +1.3152187e-12 </wgt>
<wgt id='1897'> +1.3484226e-12 </wgt>
<wgt id='1898'> +1.3298160e-12 </wgt>
<wgt id='1899'> +1.2844330e-12 </wgt>
<wgt id='1900'> +1.3200748e-12 </wgt>
<wgt id='1901'> +1.2994089e-12 </wgt>
<wgt id='1902'> +1.3140927e-12 </wgt>
<wgt id='1903'> +1.3298374e-12 </wgt>
<wgt id='1904'> +1.3241425e-12 </wgt>
<wgt id='1905'> +1.3048054e-12 </wgt>
<wgt id='1906'> +1.3309006e-12 </wgt>
<wgt id='1907'> +1.2947464e-12 </wgt>
<wgt id='1908'> +1.3011251e-12 </wgt>
<wgt id='1909'> +1.2916451e-12 </wgt>
<wgt id='1910'> +1.3418607e-12 </wgt>
<wgt id='1911'> +1.2822685e-12 </wgt>
<wgt id='1912'> +1.3169849e-12 </wgt>
<wgt id='1913'> +1.3010802e-12 </wgt>
<wgt id='1914'> +1.3342354e-12 </wgt>
<wgt id='1915'> +1.3059878e-12 </wgt>
<wgt id='1916'> +1.2669243e-12 </wgt>
<wgt id='1917'> +1.3066378e-12 </wgt>
<wgt id='1918'> +1.3261910e-12 </wgt>
<wgt id='1919'> +1.3171010e-12 </wgt>
</rwgt>
</event>
<event>
 9      1 +1.5538000e-12 3.09124600e+01 7.81860800e-03 1.44073100e-01
       21 -1    0    0  501  502 +0.0000000000e+00 +0.0000000000e+00 +2.7130220807e+01 2.7130220807e+01 0.0000000000e+00 0.0000e+00 1.0000e+00
       -2 -1    0    0    0  501 -0.0000000000e+00 -0.0000000000e+00 -3.4592079090e+01 3.4592079090e+01 0.0000000000e+00 0.0000e+00 1.0000e+00
     1023  2    1    2    0    0 +1.5739427338e+01 -2.1970767293e+01 -1.3970688971e+01 3.3922856282e+01 1.5004527305e+01 0.0000e+00 0.0000e+00
  1000023  2    3    3    0    0 +1.2779278590e+01 -2.0649731539e+01 -1.2053843633e+01 2.7663310601e+01 5.4992938824e+00 0.0000e+00 0.0000e+00
       -2  1    1    2    0  502 -1.5739427338e+01 +2.1970767293e+01 +6.5088306886e+00 2.7799443615e+01 0.0000000000e+00 0.0000e+00 1.0000e+00
  1000022  1    4    4    0    0 +1.2093496755e+01 -1.9637984913e+01 -1.1222729365e+01 2.6131451731e+01 5.0000000000e+00 0.0000e+00 1.0000e+00
      -11  1    4    4    0    0 +4.4014130723e-01 -8.7899023264e-01 -7.6315004088e-01 1.2444864183e+00 5.1100000000e-04 0.0000e+00 1.0000e+00
       11  1    4    4    0    0 +2.4564052740e-01 -1.3275639354e-01 -6.7964227583e-02 2.8737245184e-01 5.1100000000e-04 0.0000e+00 -1.0000e+00
  1000022  1    3    3    0    0 +2.9601487482e+00 -1.3210357538e+00 -1.9168453381e+00 6.2595456804e+00 5.0000000000e+00 0.0000e+00 1.0000e+00
<mgrwt>
<rscale>  1 0.30912457E+02</rscale>
<asrwt>0</asrwt>
<pdfrwt beam="1">  1       21 0.41738801E-02 0.30912457E+02</pdfrwt>
<pdfrwt beam="2">  1       -2 0.53218583E-02 0.30912457E+02</pdfrwt>
<totfact> 0.43825282E+06</totfact>
</mgrwt>
<rwgt>
<wgt id='1001'> +1.5538000e-12 </wgt>
<wgt id='1002'> +1.6060368e-12 </wgt>
<wgt id='1003'> +1.6067093e-12 </wgt>
<wgt id='1004'> +1.5457143e-12 </wgt>
<wgt id='1005'> +1.6098621e-12 </wgt>
<wgt id='1006'> +1.3607156e-12 </wgt>
<wgt id='1007'> +1.4274488e-12 </wgt>
<wgt id='1008'> +1.4284024e-12 </wgt>
<wgt id='1009'> +1.3511607e-12 </wgt>
<wgt id='1010'> +1.4329374e-12 </wgt>
<wgt id='1011'> +1.8138761e-12 </wgt>
<wgt id='1012'> +1.8378877e-12 </wgt>
<wgt id='1013'> +1.8380593e-12 </wgt>
<wgt id='1014'> +1.8089952e-12 </wgt>
<wgt id='1015'> +1.8387534e-12 </wgt>
<wgt id='1016'> +1.8388395e-12 </wgt>
<wgt id='1017'> +1.8338930e-12 </wgt>
<wgt id='1018'> +1.8336230e-12 </wgt>
<wgt id='1019'> +1.8380593e-12 </wgt>
<wgt id='1020'> +1.8322358e-12 </wgt>
<wgt id='1021'> +1.6103345e-12 </wgt>
<wgt id='1022'> +1.6299678e-12 </wgt>
<wgt id='1023'> +1.6301340e-12 </wgt>
<wgt id='1024'> +1.6067093e-12 </wgt>
<wgt id='1025'> +1.6308722e-12 </wgt>
<wgt id='1026'> +2.1466258e-12 </wgt>
<wgt id='1027'> +2.0986377e-12 </wgt>
<wgt id='1028'> +2.0976462e-12 </wgt>
<wgt id='1029'> +2.1511352e-12 </wgt>
<wgt id='1030'> +2.0927444e-12 </wgt>
<wgt id='1031'> +1.2360876e-12 </wgt>
<wgt id='1032'> +1.3494294e-12 </wgt>
<wgt id='1033'> +1.3511607e-12 </wgt>
<wgt id='1034'> +1.2206445e-12 </wgt>
<wgt id='1035'> +1.3594507e-12 </wgt>
<wgt id='1036'> +1.0824840e-12 </wgt>
<wgt id='1037'> +1.1993757e-12 </wgt>
<wgt id='1038'> +1.2012137e-12 </wgt>
<wgt id='1039'> +1.0670063e-12 </wgt>
<wgt id='1040'> +1.2100464e-12 </wgt>
<wgt id='1041'> +1.4429847e-12 </wgt>
<wgt id='1042'> +1.5442359e-12 </wgt>
<wgt id='1043'> +1.5457143e-12 </wgt>
<wgt id='1044'> +1.4285564e-12 </wgt>
<wgt id='1045'> +1.5527384e-12 </wgt>
<wgt id='1046'> +1.5538000e-12 </wgt>
<wgt id='1047'> +1.6063732e-12 </wgt>
<wgt id='1048'> +1.5448408e-12 </wgt>
<wgt id='1049'> +1.5102780e-12 </wgt>
<wgt id='1050'> +1.5331427e-12 </wgt>
<wgt id='1051'> +1.5313702e-12 </wgt>
<wgt id='1052'> +1.5804609e-12 </wgt>
<wgt id='1053'> +1.5493896e-12 </wgt>
<wgt id='1054'> +1.5381007e-12 </wgt>
<wgt id='1055'> +1.5148007e-12 </wgt>
<wgt id='1056'> +1.5328653e-12 </wgt>
<wgt id='1057'> +1.5875758e-12 </wgt>
<wgt id='1058'> +1.4961267e-12 </wgt>
<wgt id='1059'> +1.5491869e-12 </wgt>
<wgt id='1060'> +1.5657686e-12 </wgt>
<wgt id='1061'> +1.5683186e-12 </wgt>
<wgt id='1062'> +1.5635831e-12 </wgt>
<wgt id='1063'> +1.5648869e-12 </wgt>
<wgt id='1064'> +1.5356866e-12 </wgt>
<wgt id='1065'> +1.5596992e-12 </wgt>
<wgt id='1066'> +1.5285625e-12 </wgt>
<wgt id='1067'> +1.5021448e-12 </wgt>
<wgt id='1068'> +1.5784202e-12 </wgt>
<wgt id='1069'> +1.5606671e-12 </wgt>
<wgt id='1070'> +1.5346304e-12 </wgt>
<wgt id='1071'> +1.5344269e-12 </wgt>
<wgt id='1072'> +1.6154030e-12 </wgt>
<wgt id='1073'> +1.5759249e-12 </wgt>
<wgt id='1074'> +1.5256359e-12 </wgt>
<wgt id='1075'> +1.5558187e-12 </wgt>
<wgt id='1076'> +1.5679907e-12 </wgt>
<wgt id='1077'> +1.5773098e-12 </wgt>
<wgt id='1078'> +1.5294541e-12 </wgt>
<wgt id='1079'> +1.5635147e-12 </wgt>
<wgt id='1080'> +1.5206416e-12 </wgt>
<wgt id='1081'> +1.5940795e-12 </wgt>
<wgt id='1082'> +1.5582670e-12 </wgt>
<wgt id='1083'> +1.5649221e-12 </wgt>
<wgt id='1084'> +1.5529693e-12 </wgt>
<wgt id='1085'> +1.5425368e-12 </wgt>
<wgt id='1086'> +1.5901473e-12 </wgt>
<wgt id='1087'> +1.5745692e-12 </wgt>
<wgt id='1088'> +1.5514993e-12 </wgt>
<wgt id='1089'> +1.5632109e-12 </wgt>
<wgt id='1090'> +1.5515965e-12 </wgt>
<wgt id='1091'> +1.5665043e-12 </wgt>
<wgt id='1092'> +1.5905135e-12 </wgt>
<wgt id='1093'> +1.5680692e-12 </wgt>
<wgt id='1094'> +1.5760729e-12 </wgt>
<wgt id='1095'> +1.5782867e-12 </wgt>
<wgt id='1096'> +1.5514463e-12 </wgt>
<wgt id='1097'> +1.4983445e-12 </wgt>
<wgt id='1098'> +1.5349741e-12 </wgt>
<wgt id='1099'> +1.5613043e-12 </wgt>
<wgt id='1100'> +1.5421767e-12 </wgt>
<wgt id='1101'> +1.5977013e-12 </wgt>
<wgt id='1102'> +1.5289695e-12 </wgt>
<wgt id='1103'> +1.5611300e-12 </wgt>
<wgt id='1104'> +1.5434585e-12 </wgt>
<wgt id='1105'> +1.5791587e-12 </wgt>
<wgt id='1106'> +1.5906605e-12 </wgt>
<wgt id='1107'> +1.5732749e-12 </wgt>
<wgt id='1108'> +1.5419382e-12 </wgt>
<wgt id='1109'> +1.5718761e-12 </wgt>
<wgt id='1110'> +1.5335394e-12 </wgt>
<wgt id='1111'> +1.5832600e-12 </wgt>
<wgt id='1112'> +1.6171789e-12 </wgt>
<wgt id='1113'> +1.5445168e-12 </wgt>
<wgt id='1114'> +1.5842399e-12 </wgt>
<wgt id='1115'> +1.5550579e-12 </wgt>
<wgt id='1116'> +1.5182350e-12 </wgt>
<wgt id='1117'> +1.5361541e-12 </wgt>
<wgt id='1118'> +1.5434421e-12 </wgt>
<wgt id='1119'> +1.5114875e-12 </wgt>
<wgt id='1120'> +1.5362294e-12 </wgt>
<wgt id='1121'> +1.5552094e-12 </wgt>
<wgt id='1122'> +1.6099131e-12 </wgt>
<wgt id='1123'> +1.5207692e-12 </wgt>
<wgt id='1124'> +1.5459379e-12 </wgt>
<wgt id='1125'> +1.5604881e-12 </wgt>
<wgt id='1126'> +1.5797293e-12 </wgt>
<wgt id='1127'> +1.5265220e-12 </wgt>
<wgt id='1128'> +1.5635831e-12 </wgt>
<wgt id='1129'> +1.5692078e-12 </wgt>
<wgt id='1130'> +1.5398146e-12 </wgt>
<wgt id='1131'> +1.5687631e-12 </wgt>
<wgt id='1132'> +1.5478764e-12 </wgt>
<wgt id='1133'> +1.4996882e-12 </wgt>
<wgt id='1134'> +1.5724517e-12 </wgt>
<wgt id='1135'> +1.5387248e-12 </wgt>
<wgt id='1136'> +1.5197412e-12 </wgt>
<wgt id='1137'> +1.5269462e-12 </wgt>
<wgt id='1138'> +1.5417585e-12 </wgt>
<wgt id='1139'> +1.5507729e-12 </wgt>
<wgt id='1140'> +1.5355085e-12 </wgt>
<wgt id='1141'> +1.5114668e-12 </wgt>
<wgt id='1142'> +1.5633800e-12 </wgt>
<wgt id='1143'> +1.5811217e-12 </wgt>
<wgt id='1144'> +1.5621861e-12 </wgt>
<wgt id='1145'> +1.5646308e-12 </wgt>
<wgt id='1146'> +1.5514831e-12 </wgt>
<wgt id='1147'> +1.1908530e-12 </wgt>
<wgt id='1148'> +1.2199946e-12 </wgt>
<wgt id='1149'> +1.2552421e-12 </wgt>
<wgt id='1150'> +1.2179325e-12 </wgt>
<wgt id='1151'> +1.2060074e-12 </wgt>
<wgt id='1152'> +1.5298980e-12 </wgt>
<wgt id='1153'> +1.5217200e-12 </wgt>
<wgt id='1154'> +1.5346401e-12 </wgt>
<wgt id='1155'> +1.5290028e-12 </wgt>
<wgt id='1156'> +1.5304041e-12 </wgt>
<wgt id='1157'> +1.5343175e-12 </wgt>
<wgt id='1158'> +1.5239701e-12 </wgt>
<wgt id='1159'> +1.5336171e-12 </wgt>
<wgt id='1160'> +1.5275780e-12 </wgt>
<wgt id='1161'> +1.5265835e-12 </wgt>
<wgt id='1162'> +1.5321934e-12 </wgt>
<wgt id='1163'> +1.5340686e-12 </wgt>
<wgt id='1164'> +1.5258383e-12 </wgt>
<wgt id='1165'> +1.5205005e-12 </wgt>
<wgt id='1166'> +1.5390690e-12 </wgt>
<wgt id='1167'> +1.5388878e-12 </wgt>
<wgt id='1168'> +1.5174315e-12 </wgt>
<wgt id='1169'> +1.5322680e-12 </wgt>
<wgt id='1170'> +1.5281341e-12 </wgt>
<wgt id='1171'> +1.5253582e-12 </wgt>
<wgt id='1172'> +1.5353357e-12 </wgt>
<wgt id='1173'> +1.5180006e-12 </wgt>
<wgt id='1174'> +1.5410608e-12 </wgt>
<wgt id='1175'> +1.5294173e-12 </wgt>
<wgt id='1176'> +1.5293530e-12 </wgt>
<wgt id='1177'> +1.5307048e-12 </wgt>
<wgt id='1178'> +1.5280825e-12 </wgt>
<wgt id='1179'> +1.5383111e-12 </wgt>
<wgt id='1180'> +1.5152465e-12 </wgt>
<wgt id='1181'> +1.5245375e-12 </wgt>
<wgt id='1182'> +1.5349745e-12 </wgt>
<wgt id='1183'> +1.5281841e-12 </wgt>
<wgt id='1184'> +1.5301260e-12 </wgt>
<wgt id='1185'> +1.5204309e-12 </wgt>
<wgt id='1186'> +1.5350556e-12 </wgt>
<wgt id='1187'> +1.5290866e-12 </wgt>
<wgt id='1188'> +1.5302018e-12 </wgt>
<wgt id='1189'> +1.5234698e-12 </wgt>
<wgt id='1190'> +1.5203531e-12 </wgt>
<wgt id='1191'> +1.5267851e-12 </wgt>
<wgt id='1192'> +1.5295496e-12 </wgt>
<wgt id='1193'> +1.2416973e-12 </wgt>
<wgt id='1194'> +1.2406867e-12 </wgt>
<wgt id='1195'> +1.2424647e-12 </wgt>
<wgt id='1196'> +1.2483573e-12 </wgt>
<wgt id='1197'> +1.2342190e-12 </wgt>
<wgt id='1198'> +1.2416938e-12 </wgt>
<wgt id='1199'> +1.2416720e-12 </wgt>
<wgt id='1200'> +1.2436109e-12 </wgt>
<wgt id='1201'> +1.2404467e-12 </wgt>
<wgt id='1202'> +1.2399775e-12 </wgt>
<wgt id='1203'> +1.2440870e-12 </wgt>
<wgt id='1204'> +1.2313467e-12 </wgt>
<wgt id='1205'> +1.2480772e-12 </wgt>
<wgt id='1206'> +1.2463781e-12 </wgt>
<wgt id='1207'> +1.2353605e-12 </wgt>
<wgt id='1208'> +1.2337830e-12 </wgt>
<wgt id='1209'> +1.2445537e-12 </wgt>
<wgt id='1210'> +1.2453979e-12 </wgt>
<wgt id='1211'> +1.2288178e-12 </wgt>
<wgt id='1212'> +1.2422144e-12 </wgt>
<wgt id='1213'> +1.2410952e-12 </wgt>
<wgt id='1214'> +1.2233737e-12 </wgt>
<wgt id='1215'> +1.2722588e-12 </wgt>
<wgt id='1216'> +1.2499988e-12 </wgt>
<wgt id='1217'> +1.2358438e-12 </wgt>
<wgt id='1218'> +1.2461075e-12 </wgt>
<wgt id='1219'> +1.2393070e-12 </wgt>
<wgt id='1220'> +1.2466818e-12 </wgt>
<wgt id='1221'> +1.2404365e-12 </wgt>
<wgt id='1222'> +1.2419316e-12 </wgt>
<wgt id='1223'> +1.2406444e-12 </wgt>
<wgt id='1224'> +1.2434959e-12 </wgt>
<wgt id='1225'> +1.2410051e-12 </wgt>
<wgt id='1226'> +1.2384129e-12 </wgt>
<wgt id='1227'> +1.2438858e-12 </wgt>
<wgt id='1228'> +1.2397102e-12 </wgt>
<wgt id='1229'> +1.2422072e-12 </wgt>
<wgt id='1230'> +1.2332677e-12 </wgt>
<wgt id='1231'> +1.2382272e-12 </wgt>
<wgt id='1232'> +1.2416050e-12 </wgt>
<wgt id='1233'> +1.2417160e-12 </wgt>
<wgt id='1234'> +1.2416973e-12 </wgt>
<wgt id='1235'> +1.2325818e-12 </wgt>
<wgt id='1236'> +1.2359574e-12 </wgt>
<wgt id='1237'> +1.2389836e-12 </wgt>
<wgt id='1238'> +1.2442007e-12 </wgt>
<wgt id='1239'> +1.2462902e-12 </wgt>
<wgt id='1240'> +1.2483375e-12 </wgt>
<wgt id='1241'> +1.2559295e-12 </wgt>
<wgt id='1242'> +1.2505213e-12 </wgt>
<wgt id='1243'> +1.2614659e-12 </wgt>
<wgt id='1244'> +1.2485000e-12 </wgt>
<wgt id='1245'> +1.2614947e-12 </wgt>
<wgt id='1246'> +1.2563665e-12 </wgt>
<wgt id='1247'> +1.2556642e-12 </wgt>
<wgt id='1248'> +1.2559166e-12 </wgt>
<wgt id='1249'> +1.2560648e-12 </wgt>
<wgt id='1250'> +1.2581378e-12 </wgt>
<wgt id='1251'> +1.2545020e-12 </wgt>
<wgt id='1252'> +1.2526539e-12 </wgt>
<wgt id='1253'> +1.2585328e-12 </wgt>
<wgt id='1254'> +1.2456202e-12 </wgt>
<wgt id='1255'> +1.2622159e-12 </wgt>
<wgt id='1256'> +1.2603261e-12 </wgt>
<wgt id='1257'> +1.2451189e-12 </wgt>
<wgt id='1258'> +1.2797957e-12 </wgt>
<wgt id='1259'> +1.2338683e-12 </wgt>
<wgt id='1260'> +1.2602725e-12 </wgt>
<wgt id='1261'> +1.2511398e-12 </wgt>
<wgt id='1262'> +1.2570996e-12 </wgt>
<wgt id='1263'> +1.2552351e-12 </wgt>
<wgt id='1264'> +1.2599341e-12 </wgt>
<wgt id='1265'> +1.2540048e-12 </wgt>
<wgt id='1266'> +1.2500827e-12 </wgt>
<wgt id='1267'> +1.2614017e-12 </wgt>
<wgt id='1268'> +1.2568133e-12 </wgt>
<wgt id='1269'> +1.2587924e-12 </wgt>
<wgt id='1270'> +1.2481746e-12 </wgt>
<wgt id='1271'> +1.2471876e-12 </wgt>
<wgt id='1272'> +1.2557489e-12 </wgt>
<wgt id='1273'> +1.2552700e-12 </wgt>
<wgt id='1274'> +1.2585384e-12 </wgt>
<wgt id='1275'> +1.2506491e-12 </wgt>
<wgt id='1276'> +1.2563524e-12 </wgt>
<wgt id='1277'> +1.2545828e-12 </wgt>
<wgt id='1278'> +1.2547767e-12 </wgt>
<wgt id='1279'> +1.2528319e-12 </wgt>
<wgt id='1280'> +1.2560803e-12 </wgt>
<wgt id='1281'> +1.2556474e-12 </wgt>
<wgt id='1282'> +1.2559295e-12 </wgt>
<wgt id='1283'> +1.2463116e-12 </wgt>
<wgt id='1284'> +1.2500696e-12 </wgt>
<wgt id='1285'> +1.2533153e-12 </wgt>
<wgt id='1286'> +1.2587284e-12 </wgt>
<wgt id='1287'> +1.2609190e-12 </wgt>
<wgt id='1288'> +1.2626531e-12 </wgt>
<wgt id='1289'> +1.2407024e-12 </wgt>
<wgt id='1290'> +1.2417732e-12 </wgt>
<wgt id='1291'> +1.2394601e-12 </wgt>
<wgt id='1292'> +1.2340505e-12 </wgt>
<wgt id='1293'> +1.2453799e-12 </wgt>
<wgt id='1294'> +1.2390073e-12 </wgt>
<wgt id='1295'> +1.2423202e-12 </wgt>
<wgt id='1296'> +1.2367808e-12 </wgt>
<wgt id='1297'> +1.2454012e-12 </wgt>
<wgt id='1298'> +1.2452428e-12 </wgt>
<wgt id='1299'> +1.2349134e-12 </wgt>
<wgt id='1300'> +1.2433677e-12 </wgt>
<wgt id='1301'> +1.2351045e-12 </wgt>
<wgt id='1302'> +1.2390419e-12 </wgt>
<wgt id='1303'> +1.2428924e-12 </wgt>
<wgt id='1304'> +1.2385278e-12 </wgt>
<wgt id='1305'> +1.2421245e-12 </wgt>
<wgt id='1306'> +1.2385032e-12 </wgt>
<wgt id='1307'> +1.2432705e-12 </wgt>
<wgt id='1308'> +1.2469553e-12 </wgt>
<wgt id='1309'> +1.2358762e-12 </wgt>
<wgt id='1310'> +1.2412599e-12 </wgt>
<wgt id='1311'> +1.2401649e-12 </wgt>
<wgt id='1312'> +1.2416256e-12 </wgt>
<wgt id='1313'> +1.2399643e-12 </wgt>
<wgt id='1314'> +1.2426311e-12 </wgt>
<wgt id='1315'> +1.2336754e-12 </wgt>
<wgt id='1316'> +1.2469545e-12 </wgt>
<wgt id='1317'> +1.2405501e-12 </wgt>
<wgt id='1318'> +1.2514746e-12 </wgt>
<wgt id='1319'> +1.2277567e-12 </wgt>
<wgt id='1320'> +1.2543462e-12 </wgt>
<wgt id='1321'> +1.2293128e-12 </wgt>
<wgt id='1322'> +1.2394474e-12 </wgt>
<wgt id='1323'> +1.2418118e-12 </wgt>
<wgt id='1324'> +1.2388058e-12 </wgt>
<wgt id='1325'> +1.2487588e-12 </wgt>
<wgt id='1326'> +1.2393515e-12 </wgt>
<wgt id='1327'> +1.2435872e-12 </wgt>
<wgt id='1328'> +1.2414097e-12 </wgt>
<wgt id='1329'> +1.2398035e-12 </wgt>
<wgt id='1330'> +1.2203277e-12 </wgt>
<wgt id='1331'> +1.2544143e-12 </wgt>
<wgt id='1332'> +1.2634106e-12 </wgt>
<wgt id='1333'> +1.2246629e-12 </wgt>
<wgt id='1334'> +1.2349322e-12 </wgt>
<wgt id='1335'> +1.2550500e-12 </wgt>
<wgt id='1336'> +1.2352592e-12 </wgt>
<wgt id='1337'> +1.2386738e-12 </wgt>
<wgt id='1338'> +1.2377584e-12 </wgt>
<wgt id='1339'> +1.2413708e-12 </wgt>
<wgt id='1340'> +1.2206198e-12 </wgt>
<wgt id='1341'> +1.2219713e-12 </wgt>
<wgt id='1342'> +1.2191412e-12 </wgt>
<wgt id='1343'> +1.2138090e-12 </wgt>
<wgt id='1344'> +1.2251254e-12 </wgt>
<wgt id='1345'> +1.2190001e-12 </wgt>
<wgt id='1346'> +1.2221115e-12 </wgt>
<wgt id='1347'> +1.2167556e-12 </wgt>
<wgt id='1348'> +1.2248412e-12 </wgt>
<wgt id='1349'> +1.2246252e-12 </wgt>
<wgt id='1350'> +1.2165894e-12 </wgt>
<wgt id='1351'> +1.2232994e-12 </wgt>
<wgt id='1352'> +1.2146873e-12 </wgt>
<wgt id='1353'> +1.2184570e-12 </wgt>
<wgt id='1354'> +1.2243811e-12 </wgt>
<wgt id='1355'> +1.2188091e-12 </wgt>
<wgt id='1356'> +1.2215974e-12 </wgt>
<wgt id='1357'> +1.2202158e-12 </wgt>
<wgt id='1358'> +1.2212375e-12 </wgt>
<wgt id='1359'> +1.2276783e-12 </wgt>
<wgt id='1360'> +1.2145411e-12 </wgt>
<wgt id='1361'> +1.2209776e-12 </wgt>
<wgt id='1362'> +1.2202311e-12 </wgt>
<wgt id='1363'> +1.2217473e-12 </wgt>
<wgt id='1364'> +1.2201996e-12 </wgt>
<wgt id='1365'> +1.2112242e-12 </wgt>
<wgt id='1366'> +1.2246914e-12 </wgt>
<wgt id='1367'> +1.2264343e-12 </wgt>
<wgt id='1368'> +1.2202039e-12 </wgt>
<wgt id='1369'> +1.2296047e-12 </wgt>
<wgt id='1370'> +1.2098051e-12 </wgt>
<wgt id='1371'> +1.2306665e-12 </wgt>
<wgt id='1372'> +1.2085159e-12 </wgt>
<wgt id='1373'> +1.2169759e-12 </wgt>
<wgt id='1374'> +1.2234446e-12 </wgt>
<wgt id='1375'> +1.2188872e-12 </wgt>
<wgt id='1376'> +1.2286218e-12 </wgt>
<wgt id='1377'> +1.2195760e-12 </wgt>
<wgt id='1378'> +1.2235279e-12 </wgt>
<wgt id='1379'> +1.2209192e-12 </wgt>
<wgt id='1380'> +1.2200483e-12 </wgt>
<wgt id='1381'> +1.1997140e-12 </wgt>
<wgt id='1382'> +1.2328933e-12 </wgt>
<wgt id='1383'> +1.2436731e-12 </wgt>
<wgt id='1384'> +1.2028828e-12 </wgt>
<wgt id='1385'> +1.2149746e-12 </wgt>
<wgt id='1386'> +1.2339036e-12 </wgt>
<wgt id='1387'> +1.2138073e-12 </wgt>
<wgt id='1388'> +1.2178434e-12 </wgt>
<wgt id='1389'> +1.2153006e-12 </wgt>
<wgt id='1390'> +1.2219341e-12 </wgt>
<wgt id='1391'> +1.1979318e-12 </wgt>
<wgt id='1392'> +1.1701387e-12 </wgt>
<wgt id='1393'> +1.1795419e-12 </wgt>
<wgt id='1394'> +1.1888493e-12 </wgt>
<wgt id='1395'> +1.2068869e-12 </wgt>
<wgt id='1396'> +1.1985374e-12 </wgt>
<wgt id='1397'> +1.1605089e-12 </wgt>
<wgt id='1398'> +1.1685440e-12 </wgt>
<wgt id='1399'> +1.1756072e-12 </wgt>
<wgt id='1400'> +1.1827744e-12 </wgt>
<wgt id='1401'> +1.1906601e-12 </wgt>
<wgt id='1402'> +1.2055698e-12 </wgt>
<wgt id='1403'> +1.2127408e-12 </wgt>
<wgt id='1404'> +1.2194880e-12 </wgt>
<wgt id='1405'> +1.1985374e-12 </wgt>
<wgt id='1406'> +1.1943276e-12 </wgt>
<wgt id='1407'> +1.1967337e-12 </wgt>
<wgt id='1408'> +1.2001923e-12 </wgt>
<wgt id='1409'> +1.2020106e-12 </wgt>
<wgt id='1410'> +1.2148075e-12 </wgt>
<wgt id='1411'> +1.2151548e-12 </wgt>
<wgt id='1412'> +1.2143876e-12 </wgt>
<wgt id='1413'> +1.2200713e-12 </wgt>
<wgt id='1414'> +1.2095590e-12 </wgt>
<wgt id='1415'> +1.2066044e-12 </wgt>
<wgt id='1416'> +1.2181302e-12 </wgt>
<wgt id='1417'> +1.2076390e-12 </wgt>
<wgt id='1418'> +1.2219343e-12 </wgt>
<wgt id='1419'> +1.2162898e-12 </wgt>
<wgt id='1420'> +1.2133904e-12 </wgt>
<wgt id='1421'> +1.2033420e-12 </wgt>
<wgt id='1422'> +1.2197094e-12 </wgt>
<wgt id='1423'> +1.2143677e-12 </wgt>
<wgt id='1424'> +1.2153081e-12 </wgt>
<wgt id='1425'> +1.2104932e-12 </wgt>
<wgt id='1426'> +1.2194971e-12 </wgt>
<wgt id='1427'> +1.2167866e-12 </wgt>
<wgt id='1428'> +1.2134958e-12 </wgt>
<wgt id='1429'> +1.2097903e-12 </wgt>
<wgt id='1430'> +1.2216310e-12 </wgt>
<wgt id='1431'> +1.2183742e-12 </wgt>
<wgt id='1432'> +1.2122035e-12 </wgt>
<wgt id='1433'> +1.2168302e-12 </wgt>
<wgt id='1434'> +1.2118287e-12 </wgt>
<wgt id='1435'> +1.2154008e-12 </wgt>
<wgt id='1436'> +1.2135919e-12 </wgt>
<wgt id='1437'> +1.2206917e-12 </wgt>
<wgt id='1438'> +1.2140027e-12 </wgt>
<wgt id='1439'> +1.2076672e-12 </wgt>
<wgt id='1440'> +1.2318527e-12 </wgt>
<wgt id='1441'> +1.2186295e-12 </wgt>
<wgt id='1442'> +1.2076053e-12 </wgt>
<wgt id='1443'> +1.2124925e-12 </wgt>
<wgt id='1444'> +1.2203581e-12 </wgt>
<wgt id='1445'> +1.2254583e-12 </wgt>
<wgt id='1446'> +1.2111428e-12 </wgt>
<wgt id='1447'> +1.2158850e-12 </wgt>
<wgt id='1448'> +1.2153640e-12 </wgt>
<wgt id='1449'> +1.2161373e-12 </wgt>
<wgt id='1450'> +1.2136352e-12 </wgt>
<wgt id='1451'> +1.2244061e-12 </wgt>
<wgt id='1452'> +1.1889337e-12 </wgt>
<wgt id='1453'> +1.2170350e-12 </wgt>
<wgt id='1454'> +1.1995086e-12 </wgt>
<wgt id='1455'> +1.2022276e-12 </wgt>
<wgt id='1456'> +1.2194133e-12 </wgt>
<wgt id='1457'> +1.2221486e-12 </wgt>
<wgt id='1458'> +1.2112354e-12 </wgt>
<wgt id='1459'> +1.2191335e-12 </wgt>
<wgt id='1460'> +1.2080745e-12 </wgt>
<wgt id='1461'> +1.2148075e-12 </wgt>
<wgt id='1462'> +1.2076696e-12 </wgt>
<wgt id='1463'> +1.2253795e-12 </wgt>
<wgt id='1464'> +1.2163505e-12 </wgt>
<wgt id='1465'> +1.1854271e-12 </wgt>
<wgt id='1466'> +1.1920910e-12 </wgt>
<wgt id='1467'> +1.1990251e-12 </wgt>
<wgt id='1468'> +1.2039675e-12 </wgt>
<wgt id='1469'> +1.2104693e-12 </wgt>
<wgt id='1470'> +1.2227375e-12 </wgt>
<wgt id='1471'> +1.2273029e-12 </wgt>
<wgt id='1472'> +1.2333505e-12 </wgt>
<wgt id='1473'> +1.2163505e-12 </wgt>
<wgt id='1474'> +1.2116390e-12 </wgt>
<wgt id='1475'> +1.2131242e-12 </wgt>
<wgt id='1476'> +1.2183828e-12 </wgt>
<wgt id='1477'> +1.2204338e-12 </wgt>
<wgt id='1478'> +1.1881800e-12 </wgt>
<wgt id='1479'> +1.1865202e-12 </wgt>
<wgt id='1480'> +1.1875996e-12 </wgt>
<wgt id='1481'> +1.1844723e-12 </wgt>
<wgt id='1482'> +1.1866535e-12 </wgt>
<wgt id='1483'> +1.1663683e-12 </wgt>
<wgt id='1484'> +1.1855490e-12 </wgt>
<wgt id='1485'> +1.1896206e-12 </wgt>
<wgt id='1486'> +1.1892488e-12 </wgt>
<wgt id='1487'> +1.1937814e-12 </wgt>
<wgt id='1488'> +1.1854897e-12 </wgt>
<wgt id='1489'> +1.2059255e-12 </wgt>
<wgt id='1490'> +1.1846589e-12 </wgt>
<wgt id='1491'> +1.1894138e-12 </wgt>
<wgt id='1492'> +1.1897492e-12 </wgt>
<wgt id='1493'> +1.1719605e-12 </wgt>
<wgt id='1494'> +1.2019145e-12 </wgt>
<wgt id='1495'> +1.1803732e-12 </wgt>
<wgt id='1496'> +1.1869097e-12 </wgt>
<wgt id='1497'> +1.1877785e-12 </wgt>
<wgt id='1498'> +1.1870432e-12 </wgt>
<wgt id='1499'> +1.1893604e-12 </wgt>
<wgt id='1500'> +1.1895074e-12 </wgt>
<wgt id='1501'> +1.1868939e-12 </wgt>
<wgt id='1502'> +1.1872043e-12 </wgt>
<wgt id='1503'> +1.1881700e-12 </wgt>
<wgt id='1504'> +1.1818865e-12 </wgt>
<wgt id='1505'> +1.1880032e-12 </wgt>
<wgt id='1506'> +1.1875396e-12 </wgt>
<wgt id='1507'> +1.1871621e-12 </wgt>
<wgt id='1508'> +1.1924832e-12 </wgt>
<wgt id='1509'> +1.2805299e-12 </wgt>
<wgt id='1510'> +1.2794771e-12 </wgt>
<wgt id='1511'> +1.2853472e-12 </wgt>
<wgt id='1512'> +1.2828020e-12 </wgt>
<wgt id='1513'> +1.2858448e-12 </wgt>
<wgt id='1514'> +1.2798537e-12 </wgt>
<wgt id='1515'> +1.2781608e-12 </wgt>
<wgt id='1516'> +1.2806611e-12 </wgt>
<wgt id='1517'> +1.2825785e-12 </wgt>
<wgt id='1518'> +1.2844026e-12 </wgt>
<wgt id='1519'> +1.2744185e-12 </wgt>
<wgt id='1520'> +1.2839680e-12 </wgt>
<wgt id='1521'> +1.2885949e-12 </wgt>
<wgt id='1522'> +1.2843456e-12 </wgt>
<wgt id='1523'> +1.2892374e-12 </wgt>
<wgt id='1524'> +1.2828600e-12 </wgt>
<wgt id='1525'> +1.2855101e-12 </wgt>
<wgt id='1526'> +1.2781710e-12 </wgt>
<wgt id='1527'> +1.2781264e-12 </wgt>
<wgt id='1528'> +1.2831768e-12 </wgt>
<wgt id='1529'> +1.2814599e-12 </wgt>
<wgt id='1530'> +1.2875515e-12 </wgt>
<wgt id='1531'> +1.2824275e-12 </wgt>
<wgt id='1532'> +1.2766814e-12 </wgt>
<wgt id='1533'> +1.2776156e-12 </wgt>
<wgt id='1534'> +1.2852427e-12 </wgt>
<wgt id='1535'> +1.2733606e-12 </wgt>
<wgt id='1536'> +1.2786433e-12 </wgt>
<wgt id='1537'> +1.2819547e-12 </wgt>
<wgt id='1538'> +1.2765427e-12 </wgt>
<wgt id='1539'> +1.2740965e-12 </wgt>
<wgt id='1540'> +1.2821028e-12 </wgt>
<wgt id='1541'> +1.2809250e-12 </wgt>
<wgt id='1542'> +1.2834772e-12 </wgt>
<wgt id='1543'> +1.2796592e-12 </wgt>
<wgt id='1544'> +1.2756714e-12 </wgt>
<wgt id='1545'> +1.2813386e-12 </wgt>
<wgt id='1546'> +1.2813330e-12 </wgt>
<wgt id='1547'> +1.2808479e-12 </wgt>
<wgt id='1548'> +1.2792831e-12 </wgt>
<wgt id='1549'> +1.2778836e-12 </wgt>
<wgt id='1550'> +1.2834893e-12 </wgt>
<wgt id='1551'> +1.2774576e-12 </wgt>
<wgt id='1552'> +1.2800639e-12 </wgt>
<wgt id='1553'> +1.2812056e-12 </wgt>
<wgt id='1554'> +1.2840089e-12 </wgt>
<wgt id='1555'> +1.2842519e-12 </wgt>
<wgt id='1556'> +1.2803911e-12 </wgt>
<wgt id='1557'> +1.2814385e-12 </wgt>
<wgt id='1558'> +1.2773230e-12 </wgt>
<wgt id='1559'> +1.2777678e-12 </wgt>
<wgt id='1560'> +1.2807985e-12 </wgt>
<wgt id='1561'> +1.2784442e-12 </wgt>
<wgt id='1562'> +1.2807598e-12 </wgt>
<wgt id='1563'> +1.2805755e-12 </wgt>
<wgt id='1564'> +1.2805207e-12 </wgt>
<wgt id='1565'> +1.2809588e-12 </wgt>
<wgt id='1566'> +1.2810581e-12 </wgt>
<wgt id='1567'> +1.2808217e-12 </wgt>
<wgt id='1568'> +1.2785865e-12 </wgt>
<wgt id='1569'> +1.2805475e-12 </wgt>
<wgt id='1570'> +1.2797258e-12 </wgt>
<wgt id='1571'> +1.2807625e-12 </wgt>
<wgt id='1572'> +1.2805193e-12 </wgt>
<wgt id='1573'> +1.2827101e-12 </wgt>
<wgt id='1574'> +1.2796413e-12 </wgt>
<wgt id='1575'> +1.2798507e-12 </wgt>
<wgt id='1576'> +1.2807392e-12 </wgt>
<wgt id='1577'> +1.2817306e-12 </wgt>
<wgt id='1578'> +1.2805476e-12 </wgt>
<wgt id='1579'> +1.2806736e-12 </wgt>
<wgt id='1580'> +1.2805682e-12 </wgt>
<wgt id='1581'> +1.2802285e-12 </wgt>
<wgt id='1582'> +1.2801767e-12 </wgt>
<wgt id='1583'> +1.2809197e-12 </wgt>
<wgt id='1584'> +1.2798350e-12 </wgt>
<wgt id='1585'> +1.2799061e-12 </wgt>
<wgt id='1586'> +1.2804327e-12 </wgt>
<wgt id='1587'> +1.2796815e-12 </wgt>
<wgt id='1588'> +1.2814402e-12 </wgt>
<wgt id='1589'> +1.2803380e-12 </wgt>
<wgt id='1590'> +1.2801425e-12 </wgt>
<wgt id='1591'> +1.2802001e-12 </wgt>
<wgt id='1592'> +1.2795163e-12 </wgt>
<wgt id='1593'> +1.2809085e-12 </wgt>
<wgt id='1594'> +1.2807757e-12 </wgt>
<wgt id='1595'> +1.2807948e-12 </wgt>
<wgt id='1596'> +1.2802363e-12 </wgt>
<wgt id='1597'> +1.2806456e-12 </wgt>
<wgt id='1598'> +1.2807610e-12 </wgt>
<wgt id='1599'> +1.2809367e-12 </wgt>
<wgt id='1600'> +1.2813748e-12 </wgt>
<wgt id='1601'> +1.2803103e-12 </wgt>
<wgt id='1602'> +1.2801594e-12 </wgt>
<wgt id='1603'> +1.2804327e-12 </wgt>
<wgt id='1604'> +1.2809202e-12 </wgt>
<wgt id='1605'> +1.2805751e-12 </wgt>
<wgt id='1606'> +1.2813127e-12 </wgt>
<wgt id='1607'> +1.2808089e-12 </wgt>
<wgt id='1608'> +1.2807271e-12 </wgt>
<wgt id='1609'> +1.2806418e-12 </wgt>
<wgt id='1610'> +1.2724081e-12 </wgt>
<wgt id='1611'> +1.2909278e-12 </wgt>
<wgt id='1612'> +1.4948988e-12 </wgt>
<wgt id='1613'> +1.4680754e-12 </wgt>
<wgt id='1614'> +1.5023344e-12 </wgt>
<wgt id='1615'> +1.4795388e-12 </wgt>
<wgt id='1616'> +1.5458395e-12 </wgt>
<wgt id='1617'> +1.5336056e-12 </wgt>
<wgt id='1618'> +1.4839311e-12 </wgt>
<wgt id='1619'> +1.5063628e-12 </wgt>
<wgt id='1620'> +1.4613719e-12 </wgt>
<wgt id='1621'> +1.4924645e-12 </wgt>
<wgt id='1622'> +1.5110365e-12 </wgt>
<wgt id='1623'> +1.5040112e-12 </wgt>
<wgt id='1624'> +1.4610026e-12 </wgt>
<wgt id='1625'> +1.4687394e-12 </wgt>
<wgt id='1626'> +1.4776141e-12 </wgt>
<wgt id='1627'> +1.4642737e-12 </wgt>
<wgt id='1628'> +1.4654728e-12 </wgt>
<wgt id='1629'> +1.5591534e-12 </wgt>
<wgt id='1630'> +1.5043098e-12 </wgt>
<wgt id='1631'> +1.4714303e-12 </wgt>
<wgt id='1632'> +1.4092285e-12 </wgt>
<wgt id='1633'> +1.4428679e-12 </wgt>
<wgt id='1634'> +1.5492814e-12 </wgt>
<wgt id='1635'> +1.4967401e-12 </wgt>
<wgt id='1636'> +1.5169065e-12 </wgt>
<wgt id='1637'> +1.4689664e-12 </wgt>
<wgt id='1638'> +1.4818851e-12 </wgt>
<wgt id='1639'> +1.4996149e-12 </wgt>
<wgt id='1640'> +1.4847836e-12 </wgt>
<wgt id='1641'> +1.4693965e-12 </wgt>
<wgt id='1642'> +1.4842901e-12 </wgt>
<wgt id='1643'> +1.5377146e-12 </wgt>
<wgt id='1644'> +1.4334049e-12 </wgt>
<wgt id='1645'> +1.4848102e-12 </wgt>
<wgt id='1646'> +1.4927229e-12 </wgt>
<wgt id='1647'> +1.4904281e-12 </wgt>
<wgt id='1648'> +1.4863062e-12 </wgt>
<wgt id='1649'> +1.5227291e-12 </wgt>
<wgt id='1650'> +1.4849619e-12 </wgt>
<wgt id='1651'> +1.4560690e-12 </wgt>
<wgt id='1652'> +1.4771967e-12 </wgt>
<wgt id='1653'> +1.5518767e-12 </wgt>
<wgt id='1654'> +1.4894733e-12 </wgt>
<wgt id='1655'> +1.4650059e-12 </wgt>
<wgt id='1656'> +1.4453369e-12 </wgt>
<wgt id='1657'> +1.4747568e-12 </wgt>
<wgt id='1658'> +1.4407780e-12 </wgt>
<wgt id='1659'> +1.4610026e-12 </wgt>
<wgt id='1660'> +1.5271249e-12 </wgt>
<wgt id='1661'> +1.5050427e-12 </wgt>
<wgt id='1662'> +1.4975562e-12 </wgt>
<wgt id='1663'> +1.5269131e-12 </wgt>
<wgt id='1664'> +1.4697746e-12 </wgt>
<wgt id='1665'> +1.4188359e-12 </wgt>
<wgt id='1666'> +1.5208826e-12 </wgt>
<wgt id='1667'> +1.4972959e-12 </wgt>
<wgt id='1668'> +1.5311183e-12 </wgt>
<wgt id='1669'> +1.4443591e-12 </wgt>
<wgt id='1670'> +1.5164224e-12 </wgt>
<wgt id='1671'> +1.4845256e-12 </wgt>
<wgt id='1672'> +1.4985137e-12 </wgt>
<wgt id='1673'> +1.5560300e-12 </wgt>
<wgt id='1674'> +1.4779439e-12 </wgt>
<wgt id='1675'> +1.5320313e-12 </wgt>
<wgt id='1676'> +1.5328542e-12 </wgt>
<wgt id='1677'> +1.5740669e-12 </wgt>
<wgt id='1678'> +1.4798791e-12 </wgt>
<wgt id='1679'> +1.5483496e-12 </wgt>
<wgt id='1680'> +1.5032901e-12 </wgt>
<wgt id='1681'> +1.5156660e-12 </wgt>
<wgt id='1682'> +1.5154511e-12 </wgt>
<wgt id='1683'> +1.4765071e-12 </wgt>
<wgt id='1684'> +1.4902731e-12 </wgt>
<wgt id='1685'> +1.4670513e-12 </wgt>
<wgt id='1686'> +1.4979601e-12 </wgt>
<wgt id='1687'> +1.5435662e-12 </wgt>
<wgt id='1688'> +1.4969960e-12 </wgt>
<wgt id='1689'> +1.4797718e-12 </wgt>
<wgt id='1690'> +1.4881083e-12 </wgt>
<wgt id='1691'> +1.4955054e-12 </wgt>
<wgt id='1692'> +1.5632572e-12 </wgt>
<wgt id='1693'> +1.5425067e-12 </wgt>
<wgt id='1694'> +1.4553680e-12 </wgt>
<wgt id='1695'> +1.4945715e-12 </wgt>
<wgt id='1696'> +1.5258177e-12 </wgt>
<wgt id='1697'> +1.5270792e-12 </wgt>
<wgt id='1698'> +1.4714573e-12 </wgt>
<wgt id='1699'> +1.5130348e-12 </wgt>
<wgt id='1700'> +1.4650080e-12 </wgt>
<wgt id='1701'> +1.5199147e-12 </wgt>
<wgt id='1702'> +1.5103277e-12 </wgt>
<wgt id='1703'> +1.5137314e-12 </wgt>
<wgt id='1704'> +1.4608034e-12 </wgt>
<wgt id='1705'> +1.4626318e-12 </wgt>
<wgt id='1706'> +1.4979865e-12 </wgt>
<wgt id='1707'> +1.4869654e-12 </wgt>
<wgt id='1708'> +1.4887375e-12 </wgt>
<wgt id='1709'> +1.4799121e-12 </wgt>
<wgt id='1710'> +1.4883116e-12 </wgt>
<wgt id='1711'> +1.5530111e-12 </wgt>
<wgt id='1712'> +1.4982017e-12 </wgt>
<wgt id='1713'> +1.1718226e-12 </wgt>
<wgt id='1714'> +1.1431623e-12 </wgt>
<wgt id='1715'> +1.1848475e-12 </wgt>
<wgt id='1716'> +1.2394254e-12 </wgt>
<wgt id='1717'> +1.1906032e-12 </wgt>
<wgt id='1718'> +1.1925991e-12 </wgt>
<wgt id='1719'> +1.1796248e-12 </wgt>
<wgt id='1720'> +1.1849796e-12 </wgt>
<wgt id='1721'> +1.1531987e-12 </wgt>
<wgt id='1722'> +1.1672134e-12 </wgt>
<wgt id='1723'> +1.1143921e-12 </wgt>
<wgt id='1724'> +1.1368213e-12 </wgt>
<wgt id='1725'> +1.1878872e-12 </wgt>
<wgt id='1726'> +1.2032501e-12 </wgt>
<wgt id='1727'> +1.1583538e-12 </wgt>
<wgt id='1728'> +1.1767153e-12 </wgt>
<wgt id='1729'> +1.1709485e-12 </wgt>
<wgt id='1730'> +1.1447927e-12 </wgt>
<wgt id='1731'> +1.1306555e-12 </wgt>
<wgt id='1732'> +1.1604754e-12 </wgt>
<wgt id='1733'> +1.1740847e-12 </wgt>
<wgt id='1734'> +1.2078924e-12 </wgt>
<wgt id='1735'> +1.1522863e-12 </wgt>
<wgt id='1736'> +1.2506257e-12 </wgt>
<wgt id='1737'> +1.2131300e-12 </wgt>
<wgt id='1738'> +1.1844812e-12 </wgt>
<wgt id='1739'> +1.1745802e-12 </wgt>
<wgt id='1740'> +1.1519526e-12 </wgt>
<wgt id='1741'> +1.1585308e-12 </wgt>
<wgt id='1742'> +1.1764777e-12 </wgt>
<wgt id='1743'> +1.1991966e-12 </wgt>
<wgt id='1744'> +1.2073298e-12 </wgt>
<wgt id='1745'> +1.1169826e-12 </wgt>
<wgt id='1746'> +1.1805237e-12 </wgt>
<wgt id='1747'> +1.1920748e-12 </wgt>
<wgt id='1748'> +1.1946248e-12 </wgt>
<wgt id='1749'> +1.1795186e-12 </wgt>
<wgt id='1750'> +1.1704756e-12 </wgt>
<wgt id='1751'> +1.0925772e-12 </wgt>
<wgt id='1752'> +1.1635675e-12 </wgt>
<wgt id='1753'> +1.1942988e-12 </wgt>
<wgt id='1754'> +1.1620546e-12 </wgt>
<wgt id='1755'> +1.1832452e-12 </wgt>
<wgt id='1756'> +1.1896127e-12 </wgt>
<wgt id='1757'> +1.1593093e-12 </wgt>
<wgt id='1758'> +1.1945577e-12 </wgt>
<wgt id='1759'> +1.1761541e-12 </wgt>
<wgt id='1760'> +1.1281241e-12 </wgt>
<wgt id='1761'> +1.1523524e-12 </wgt>
<wgt id='1762'> +1.1833552e-12 </wgt>
<wgt id='1763'> +1.2048574e-12 </wgt>
<wgt id='1764'> +1.1688680e-12 </wgt>
<wgt id='1765'> +1.1825968e-12 </wgt>
<wgt id='1766'> +1.1840569e-12 </wgt>
<wgt id='1767'> +1.1864530e-12 </wgt>
<wgt id='1768'> +1.1738516e-12 </wgt>
<wgt id='1769'> +1.1439993e-12 </wgt>
<wgt id='1770'> +1.2166208e-12 </wgt>
<wgt id='1771'> +1.1917680e-12 </wgt>
<wgt id='1772'> +1.1999391e-12 </wgt>
<wgt id='1773'> +1.1632232e-12 </wgt>
<wgt id='1774'> +1.1721592e-12 </wgt>
<wgt id='1775'> +1.1776778e-12 </wgt>
<wgt id='1776'> +1.1771249e-12 </wgt>
<wgt id='1777'> +1.0999294e-12 </wgt>
<wgt id='1778'> +1.1577794e-12 </wgt>
<wgt id='1779'> +1.1990243e-12 </wgt>
<wgt id='1780'> +1.1694612e-12 </wgt>
<wgt id='1781'> +1.1602665e-12 </wgt>
<wgt id='1782'> +1.1188669e-12 </wgt>
<wgt id='1783'> +1.1702555e-12 </wgt>
<wgt id='1784'> +1.1767006e-12 </wgt>
<wgt id='1785'> +1.1337828e-12 </wgt>
<wgt id='1786'> +1.0803480e-12 </wgt>
<wgt id='1787'> +1.2296360e-12 </wgt>
<wgt id='1788'> +1.1553713e-12 </wgt>
<wgt id='1789'> +1.1474457e-12 </wgt>
<wgt id='1790'> +1.1812999e-12 </wgt>
<wgt id='1791'> +1.1797848e-12 </wgt>
<wgt id='1792'> +1.1296065e-12 </wgt>
<wgt id='1793'> +1.2018309e-12 </wgt>
<wgt id='1794'> +1.1838156e-12 </wgt>
<wgt id='1795'> +1.1961219e-12 </wgt>
<wgt id='1796'> +1.1491072e-12 </wgt>
<wgt id='1797'> +1.1800817e-12 </wgt>
<wgt id='1798'> +1.1592774e-12 </wgt>
<wgt id='1799'> +1.1580174e-12 </wgt>
<wgt id='1800'> +1.1765941e-12 </wgt>
<wgt id='1801'> +1.1797406e-12 </wgt>
<wgt id='1802'> +1.1530712e-12 </wgt>
<wgt id='1803'> +1.1924801e-12 </wgt>
<wgt id='1804'> +1.1441108e-12 </wgt>
<wgt id='1805'> +1.1655371e-12 </wgt>
<wgt id='1806'> +1.1616457e-12 </wgt>
<wgt id='1807'> +1.1826223e-12 </wgt>
<wgt id='1808'> +1.1779342e-12 </wgt>
<wgt id='1809'> +1.1452112e-12 </wgt>
<wgt id='1810'> +1.1702809e-12 </wgt>
<wgt id='1811'> +1.2132690e-12 </wgt>
<wgt id='1812'> +1.1959534e-12 </wgt>
<wgt id='1813'> +1.1834841e-12 </wgt>
<wgt id='1814'> +1.3338934e-12 </wgt>
<wgt id='1815'> +1.5071416e-12 </wgt>
<wgt id='1816'> +1.1718226e-12 </wgt>
<wgt id='1817'> +1.1431623e-12 </wgt>
<wgt id='1818'> +1.1848475e-12 </wgt>
<wgt id='1819'> +1.2394254e-12 </wgt>
<wgt id='1820'> +1.1906032e-12 </wgt>
<wgt id='1821'> +1.1925991e-12 </wgt>
<wgt id='1822'> +1.1796248e-12 </wgt>
<wgt id='1823'> +1.1849796e-12 </wgt>
<wgt id='1824'> +1.1531987e-12 </wgt>
<wgt id='1825'> +1.1672134e-12 </wgt>
<wgt id='1826'> +1.1143921e-12 </wgt>
<wgt id='1827'> +1.1368213e-12 </wgt>
<wgt id='1828'> +1.1878872e-12 </wgt>
<wgt id='1829'> +1.2032501e-12 </wgt>
<wgt id='1830'> +1.1583538e-12 </wgt>
<wgt id='1831'> +1.1767153e-12 </wgt>
<wgt id='1832'> +1.1709485e-12 </wgt>
<wgt id='1833'> +1.1447927e-12 </wgt>
<wgt id='1834'> +1.1306555e-12 </wgt>
<wgt id='1835'> +1.1604754e-12 </wgt>
<wgt id='1836'> +1.1740847e-12 </wgt>
<wgt id='1837'> +1.2078924e-12 </wgt>
<wgt id='1838'> +1.1522863e-12 </wgt>
<wgt id='1839'> +1.2506257e-12 </wgt>
<wgt id='1840'> +1.2131300e-12 </wgt>
<wgt id='1841'> +1.1844812e-12 </wgt>
<wgt id='1842'> +1.1745802e-12 </wgt>
<wgt id='1843'> +1.1519526e-12 </wgt>
<wgt id='1844'> +1.1585308e-12 </wgt>
<wgt id='1845'> +1.1764777e-12 </wgt>
<wgt id='1846'> +1.1991966e-12 </wgt>
<wgt id='1847'> +1.2073298e-12 </wgt>
<wgt id='1848'> +1.1169826e-12 </wgt>
<wgt id='1849'> +1.1805237e-12 </wgt>
<wgt id='1850'> +1.1920748e-12 </wgt>
<wgt id='1851'> +1.1946248e-12 </wgt>
<wgt id='1852'> +1.1795186e-12 </wgt>
<wgt id='1853'> +1.1704756e-12 </wgt>
<wgt id='1854'> +1.0925772e-12 </wgt>
<wgt id='1855'> +1.1635675e-12 </wgt>
<wgt id='1856'> +1.1942988e-12 </wgt>
<wgt id='1857'> +1.1620546e-12 </wgt>
<wgt id='1858'> +1.1832452e-12 </wgt>
<wgt id='1859'> +1.1896127e-12 </wgt>
<wgt id='1860'> +1.1593093e-12 </wgt>
<wgt id='1861'> +1.1945577e-12 </wgt>
<wgt id='1862'> +1.1761541e-12 </wgt>
<wgt id='1863'> +1.1281241e-12 </wgt>
<wgt id='1864'> +1.1523524e-12 </wgt>
<wgt id='1865'> +1.1833552e-12 </wgt>
<wgt id='1866'> +1.2048574e-12 </wgt>
<wgt id='1867'> +1.1688680e-12 </wgt>
<wgt id='1868'> +1.1825968e-12 </wgt>
<wgt id='1869'> +1.1840569e-12 </wgt>
<wgt id='1870'> +1.1864530e-12 </wgt>
<wgt id='1871'> +1.1738516e-12 </wgt>
<wgt id='1872'> +1.1439993e-12 </wgt>
<wgt id='1873'> +1.2166208e-12 </wgt>
<wgt id='1874'> +1.1917680e-12 </wgt>
<wgt id='1875'> +1.1999391e-12 </wgt>
<wgt id='1876'> +1.1632232e-12 </wgt>
<wgt id='1877'> +1.1721592e-12 </wgt>
<wgt id='1878'> +1.1776778e-12 </wgt>
<wgt id='1879'> +1.1771249e-12 </wgt>
<wgt id='1880'> +1.0999294e-12 </wgt>
<wgt id='1881'> +1.1577794e-12 </wgt>
<wgt id='1882'> +1.1990243e-12 </wgt>
<wgt id='1883'> +1.1694612e-12 </wgt>
<wgt id='1884'> +1.1602665e-12 </wgt>
<wgt id='1885'> +1.1188669e-12 </wgt>
<wgt id='1886'> +1.1702555e-12 </wgt>
<wgt id='1887'> +1.1767006e-12 </wgt>
<wgt id='1888'> +1.1337828e-12 </wgt>
<wgt id='1889'> +1.0803480e-12 </wgt>
<wgt id='1890'> +1.2296360e-12 </wgt>
<wgt id='1891'> +1.1553713e-12 </wgt>
<wgt id='1892'> +1.1474457e-12 </wgt>
<wgt id='1893'> +1.1812999e-12 </wgt>
<wgt id='1894'> +1.1797848e-12 </wgt>
<wgt id='1895'> +1.1296065e-12 </wgt>
<wgt id='1896'> +1.2018309e-12 </wgt>
<wgt id='1897'> +1.1838156e-12 </wgt>
<wgt id='1898'> +1.1961219e-12 </wgt>
<wgt id='1899'> +1.1491072e-12 </wgt>
<wgt id='1900'> +1.1800817e-12 </wgt>
<wgt id='1901'> +1.1592774e-12 </wgt>
<wgt id='1902'> +1.1580174e-12 </wgt>
<wgt id='1903'> +1.1765941e-12 </wgt>
<wgt id='1904'> +1.1797406e-12 </wgt>
<wgt id='1905'> +1.1530712e-12 </wgt>
<wgt id='1906'> +1.1924801e-12 </wgt>
<wgt id='1907'> +1.1441108e-12 </wgt>
<wgt id='1908'> +1.1655371e-12 </wgt>
<wgt id='1909'> +1.1616457e-12 </wgt>
<wgt id='1910'> +1.1826223e-12 </wgt>
<wgt id='1911'> +1.1779342e-12 </wgt>
<wgt id='1912'> +1.1452112e-12 </wgt>
<wgt id='1913'> +1.1702809e-12 </wgt>
<wgt id='1914'> +1.2132690e-12 </wgt>
<wgt id='1915'> +1.1959534e-12 </wgt>
<wgt id='1916'> +1.1834841e-12 </wgt>
<wgt id='1917'> +1.1640968e-12 </wgt>
<wgt id='1918'> +1.1764553e-12 </wgt>
<wgt id='1919'> +1.2192254e-12 </wgt>
</rwgt>
</event>
<event>
 9      1 +1.5538000e-12 2.70668900e+01 7.81860800e-03 1.48123700e-01
       21 -1    0    0  501  502 +0.0000000000e+00 +0.0000000000e+00 +1.2228267407e+00 1.2228267407e+00 0.0000000000e+00 0.0000e+00 -1.0000e+00
        2 -1    0    0  502    0 -0.0000000000e+00 -0.0000000000e+00 -6.3747953756e+02 6.3747953756e+02 0.0000000000e+00 0.0000e+00 1.0000e+00
     1023  2    1    2    0    0 +1.3205965796e+01 -1.8254171708e+01 -4.8732734493e+02 4.8807843412e+02 1.5000147470e+01 0.0000e+00 0.0000e+00
  1000023  2    3    3    0    0 +7.8664381527e+00 -8.2914906858e+00 -3.3892633649e+02 3.3916360990e+02 5.5011858215e+00 0.0000e+00 0.0000e+00
        2  1    1    2  501    0 -1.3205965796e+01 +1.8254171708e+01 -1.4892936589e+02 1.5062393017e+02 0.0000000000e+00 0.0000e+00 1.0000e+00
  1000022  1    4    4    0    0 +7.2141307369e+00 -7.3845351685e+00 -3.1814152262e+02 3.1834824243e+02 5.0000000000e+00 0.0000e+00 1.0000e+00
      -11  1    4    4    0    0 +2.9519811812e-01 -4.3630836921e-01 -1.1176022234e+01 1.1188430639e+01 5.1100000000e-04 0.0000e+00 1.0000e+00
       11  1    4    4    0    0 +3.5710929773e-01 -4.7064714810e-01 -9.6087916389e+00 9.6269368342e+00 5.1100000000e-04 0.0000e+00 -1.0000e+00
  1000022  1    3    3    0    0 +5.3395276429e+00 -9.9626810220e+00 -1.4840100843e+02 1.4891482422e+02 5.0000000000e+00 0.0000e+00 -1.0000e+00
<mgrwt>
<rscale>  1 0.27066894E+02</rscale>
<asrwt>0</asrwt>
<pdfrwt beam="1">  1       21 0.18812763E-03 0.27066894E+02</pdfrwt>
<pdfrwt beam="2">  1        2 0.98073547E-01 0.27066894E+02</pdfrwt>
<totfact> 0.16345219E+07</totfact>
</mgrwt>
<rwgt>
<wgt id='1001'> +1.5538000e-12 </wgt>
<wgt id='1002'> +1.6461140e-12 </wgt>
<wgt id='1003'> +1.6528713e-12 </wgt>
<wgt id='1004'> +1.5244468e-12 </wgt>
<wgt id='1005'> +1.6743003e-12 </wgt>
<wgt id='1006'> +1.3556827e-12 </wgt>
<wgt id='1007'> +1.4554810e-12 </wgt>
<wgt id='1008'> +1.4630577e-12 </wgt>
<wgt id='1009'> +1.3249048e-12 </wgt>
<wgt id='1010'> +1.4873704e-12 </wgt>
<wgt id='1011'> +1.8231973e-12 </wgt>
<wgt id='1012'> +1.8967862e-12 </wgt>
<wgt id='1013'> +1.9018078e-12 </wgt>
<wgt id='1014'> +1.7984598e-12 </wgt>
<wgt id='1015'> +1.9172781e-12 </wgt>
<wgt id='1016'> +1.9145333e-12 </wgt>
<wgt id='1017'> +1.9481632e-12 </wgt>
<wgt id='1018'> +1.9501260e-12 </wgt>
<wgt id='1019'> +1.9018078e-12 </wgt>
<wgt id='1020'> +1.9556967e-12 </wgt>
<wgt id='1021'> +1.6704207e-12 </wgt>
<wgt id='1022'> +1.7225505e-12 </wgt>
<wgt id='1023'> +1.7261761e-12 </wgt>
<wgt id='1024'> +1.6528713e-12 </wgt>
<wgt id='1025'> +1.7373499e-12 </wgt>
<wgt id='1026'> +2.2464745e-12 </wgt>
<wgt id='1027'> +2.2448318e-12 </wgt>
<wgt id='1028'> +2.2438316e-12 </wgt>
<wgt id='1029'> +2.2436499e-12 </wgt>
<wgt id='1030'> +2.2395113e-12 </wgt>
<wgt id='1031'> +1.1620421e-12 </wgt>
<wgt id='1032'> +1.3132729e-12 </wgt>
<wgt id='1033'> +1.3249048e-12 </wgt>
<wgt id='1034'> +1.1158088e-12 </wgt>
<wgt id='1035'> +1.3627252e-12 </wgt>
<wgt id='1036'> +1.0138759e-12 </wgt>
<wgt id='1037'> +1.1611855e-12 </wgt>
<wgt id='1038'> +1.1727545e-12 </wgt>
<wgt id='1039'> +9.6975541e-13 </wgt>
<wgt id='1040'> +1.2105816e-12 </wgt>
<wgt id='1041'> +1.3635166e-12 </wgt>
<wgt id='1042'> +1.5132597e-12 </wgt>
<wgt id='1043'> +1.5244468e-12 </wgt>
<wgt id='1044'> +1.3163708e-12 </wgt>
<wgt id='1045'> +1.5604867e-12 </wgt>
<wgt id='1046'> +1.5538000e-12 </wgt>
<wgt id='1047'> +1.5503797e-12 </wgt>
<wgt id='1048'> +1.6263437e-12 </wgt>
<wgt id='1049'> +1.4950762e-12 </wgt>
<wgt id='1050'> +1.5245662e-12 </wgt>
<wgt id='1051'> +1.5101703e-12 </wgt>
<wgt id='1052'> +1.5180912e-12 </wgt>
<wgt id='1053'> +1.6258553e-12 </wgt>
<wgt id='1054'> +1.5897001e-12 </wgt>
<wgt id='1055'> +1.5305367e-12 </wgt>
<wgt id='1056'> +1.4865940e-12 </wgt>
<wgt id='1057'> +1.5330970e-12 </wgt>
<wgt id='1058'> +1.5102003e-12 </wgt>
<wgt id='1059'> +1.5684289e-12 </wgt>
<wgt id='1060'> +1.5624265e-12 </wgt>
<wgt id='1061'> +1.5865756e-12 </wgt>
<wgt id='1062'> +1.5354890e-12 </wgt>
<wgt id='1063'> +1.4875476e-12 </wgt>
<wgt id='1064'> +1.5422165e-12 </wgt>
<wgt id='1065'> +1.6024507e-12 </wgt>
<wgt id='1066'> +1.5621153e-12 </wgt>
<wgt id='1067'> +1.5765180e-12 </wgt>
<wgt id='1068'> +1.6019356e-12 </wgt>
<wgt id='1069'> +1.6234859e-12 </wgt>
<wgt id='1070'> +1.5452322e-12 </wgt>
<wgt id='1071'> +1.5621713e-12 </wgt>
<wgt id='1072'> +1.5568314e-12 </wgt>
<wgt id='1073'> +1.5457523e-12 </wgt>
<wgt id='1074'> +1.5585124e-12 </wgt>
<wgt id='1075'> +1.5401432e-12 </wgt>
<wgt id='1076'> +1.5738889e-12 </wgt>
<wgt id='1077'> +1.5799472e-12 </wgt>
<wgt id='1078'> +1.5235198e-12 </wgt>
<wgt id='1079'> +1.5632853e-12 </wgt>
<wgt id='1080'> +1.5444750e-12 </wgt>
<wgt id='1081'> +1.4974594e-12 </wgt>
<wgt id='1082'> +1.5478942e-12 </wgt>
<wgt id='1083'> +1.5203902e-12 </wgt>
<wgt id='1084'> +1.5404167e-12 </wgt>
<wgt id='1085'> +1.5937673e-12 </wgt>
<wgt id='1086'> +1.6139238e-12 </wgt>
<wgt id='1087'> +1.5348912e-12 </wgt>
<wgt id='1088'> +1.5443407e-12 </wgt>
<wgt id='1089'> +1.5262266e-12 </wgt>
<wgt id='1090'> +1.5662563e-12 </wgt>
<wgt id='1091'> +1.5588538e-12 </wgt>
<wgt id='1092'> +1.5351051e-12 </wgt>
<wgt id='1093'> +1.5970686e-12 </wgt>
<wgt id='1094'> +1.5962310e-12 </wgt>
<wgt id='1095'> +1.6086142e-12 </wgt>
<wgt id='1096'> +1.5119096e-12 </wgt>
<wgt id='1097'> +1.5610481e-12 </wgt>
<wgt id='1098'> +1.5836385e-12 </wgt>
<wgt id='1099'> +1.5465768e-12 </wgt>
<wgt id='1100'> +1.5820479e-12 </wgt>
<wgt id='1101'> +1.5578730e-12 </wgt>
<wgt id='1102'> +1.5182734e-12 </wgt>
<wgt id='1103'> +1.5260876e-12 </wgt>
<wgt id='1104'> +1.5537745e-12 </wgt>
<wgt id='1105'> +1.4910981e-12 </wgt>
<wgt id='1106'> +1.5427334e-12 </wgt>
<wgt id='1107'> +1.6147384e-12 </wgt>
<wgt id='1108'> +1.5413096e-12 </wgt>
<wgt id='1109'> +1.5446524e-12 </wgt>
<wgt id='1110'> +1.5429156e-12 </wgt>
<wgt id='1111'> +1.5571195e-12 </wgt>
<wgt id='1112'> +1.5862401e-12 </wgt>
<wgt id='1113'> +1.6335974e-12 </wgt>
<wgt id='1114'> +1.5924403e-12 </wgt>
<wgt id='1115'> +1.6010405e-12 </wgt>
<wgt id='1116'> +1.6428893e-12 </wgt>
<wgt id='1117'> +1.5461397e-12 </wgt>
<wgt id='1118'> +1.6031125e-12 </wgt>
<wgt id='1119'> +1.5015804e-12 </wgt>
<wgt id='1120'> +1.5515542e-12 </wgt>
<wgt id='1121'> +1.5197560e-12 </wgt>
<wgt id='1122'> +1.5359650e-12 </wgt>
<wgt id='1123'> +1.5938687e-12 </wgt>
<wgt id='1124'> +1.5959977e-12 </wgt>
<wgt id='1125'> +1.4874333e-12 </wgt>
<wgt id='1126'> +1.5264755e-12 </wgt>
<wgt id='1127'> +1.5556101e-12 </wgt>
<wgt id='1128'> +1.5354890e-12 </wgt>
<wgt id='1129'> +1.5215306e-12 </wgt>
<wgt id='1130'> +1.5357397e-12 </wgt>
<wgt id='1131'> +1.5740220e-12 </wgt>
<wgt id='1132'> +1.5707336e-12 </wgt>
<wgt id='1133'> +1.5269411e-12 </wgt>
<wgt id='1134'> +1.5254887e-12 </wgt>
<wgt id='1135'> +1.4925551e-12 </wgt>
<wgt id='1136'> +1.5123397e-12 </wgt>
<wgt id='1137'> +1.5543238e-12 </wgt>
<wgt id='1138'> +1.5405607e-12 </wgt>
<wgt id='1139'> +1.5417954e-12 </wgt>
<wgt id='1140'> +1.5815091e-12 </wgt>
<wgt id='1141'> +1.5426901e-12 </wgt>
<wgt id='1142'> +1.6024834e-12 </wgt>
<wgt id='1143'> +1.4778729e-12 </wgt>
<wgt id='1144'> +1.5519238e-12 </wgt>
<wgt id='1145'> +1.5667249e-12 </wgt>
<wgt id='1146'> +1.5493483e-12 </wgt>
<wgt id='1147'> +1.4115522e-12 </wgt>
<wgt id='1148'> +1.4408312e-12 </wgt>
<wgt id='1149'> +1.3482672e-12 </wgt>
<wgt id='1150'> +1.4178595e-12 </wgt>
<wgt id='1151'> +1.7037705e-12 </wgt>
<wgt id='1152'> +2.3821519e-12 </wgt>
<wgt id='1153'> +2.3835102e-12 </wgt>
<wgt id='1154'> +2.3812864e-12 </wgt>
<wgt id='1155'> +2.3756817e-12 </wgt>
<wgt id='1156'> +2.3854382e-12 </wgt>
<wgt id='1157'> +2.3861942e-12 </wgt>
<wgt id='1158'> +2.3766403e-12 </wgt>
<wgt id='1159'> +2.3855815e-12 </wgt>
<wgt id='1160'> +2.3799354e-12 </wgt>
<wgt id='1161'> +2.3775294e-12 </wgt>
<wgt id='1162'> +2.3853278e-12 </wgt>
<wgt id='1163'> +2.3815854e-12 </wgt>
<wgt id='1164'> +2.3827194e-12 </wgt>
<wgt id='1165'> +2.3833724e-12 </wgt>
<wgt id='1166'> +2.3808065e-12 </wgt>
<wgt id='1167'> +2.4143870e-12 </wgt>
<wgt id='1168'> +2.3436593e-12 </wgt>
<wgt id='1169'> +2.3919329e-12 </wgt>
<wgt id='1170'> +2.3748877e-12 </wgt>
<wgt id='1171'> +2.3740326e-12 </wgt>
<wgt id='1172'> +2.3927790e-12 </wgt>
<wgt id='1173'> +2.3533974e-12 </wgt>
<wgt id='1174'> +2.4123221e-12 </wgt>
<wgt id='1175'> +2.3874809e-12 </wgt>
<wgt id='1176'> +2.3774545e-12 </wgt>
<wgt id='1177'> +2.3760621e-12 </wgt>
<wgt id='1178'> +2.3977238e-12 </wgt>
<wgt id='1179'> +2.3763872e-12 </wgt>
<wgt id='1180'> +2.3818666e-12 </wgt>
<wgt id='1181'> +2.3897832e-12 </wgt>
<wgt id='1182'> +2.3727756e-12 </wgt>
<wgt id='1183'> +2.3755875e-12 </wgt>
<wgt id='1184'> +2.3824836e-12 </wgt>
<wgt id='1185'> +2.3765413e-12 </wgt>
<wgt id='1186'> +2.3848803e-12 </wgt>
<wgt id='1187'> +2.3859097e-12 </wgt>
<wgt id='1188'> +2.3808069e-12 </wgt>
<wgt id='1189'> +2.3740382e-12 </wgt>
<wgt id='1190'> +2.3559794e-12 </wgt>
<wgt id='1191'> +2.3864478e-12 </wgt>
<wgt id='1192'> +2.3924401e-12 </wgt>
<wgt id='1193'> +1.4101003e-12 </wgt>
<wgt id='1194'> +1.3897468e-12 </wgt>
<wgt id='1195'> +1.4268112e-12 </wgt>
<wgt id='1196'> +1.4087381e-12 </wgt>
<wgt id='1197'> +1.4116301e-12 </wgt>
<wgt id='1198'> +1.4092805e-12 </wgt>
<wgt id='1199'> +1.4113507e-12 </wgt>
<wgt id='1200'> +1.4061812e-12 </wgt>
<wgt id='1201'> +1.4127928e-12 </wgt>
<wgt id='1202'> +1.4089700e-12 </wgt>
<wgt id='1203'> +1.4117119e-12 </wgt>
<wgt id='1204'> +1.4032294e-12 </wgt>
<wgt id='1205'> +1.4141263e-12 </wgt>
<wgt id='1206'> +1.4131264e-12 </wgt>
<wgt id='1207'> +1.4059704e-12 </wgt>
<wgt id='1208'> +1.4174596e-12 </wgt>
<wgt id='1209'> +1.4075466e-12 </wgt>
<wgt id='1210'> +1.4148477e-12 </wgt>
<wgt id='1211'> +1.4049331e-12 </wgt>
<wgt id='1212'> +1.4092988e-12 </wgt>
<wgt id='1213'> +1.4115683e-12 </wgt>
<wgt id='1214'> +1.3985055e-12 </wgt>
<wgt id='1215'> +1.4234279e-12 </wgt>
<wgt id='1216'> +1.4170300e-12 </wgt>
<wgt id='1217'> +1.4054300e-12 </wgt>
<wgt id='1218'> +1.4150608e-12 </wgt>
<wgt id='1219'> +1.4073050e-12 </wgt>
<wgt id='1220'> +1.4196159e-12 </wgt>
<wgt id='1221'> +1.4081498e-12 </wgt>
<wgt id='1222'> +1.4343095e-12 </wgt>
<wgt id='1223'> +1.3762325e-12 </wgt>
<wgt id='1224'> +1.4143484e-12 </wgt>
<wgt id='1225'> +1.4083936e-12 </wgt>
<wgt id='1226'> +1.4079741e-12 </wgt>
<wgt id='1227'> +1.4118740e-12 </wgt>
<wgt id='1228'> +1.4027413e-12 </wgt>
<wgt id='1229'> +1.4128564e-12 </wgt>
<wgt id='1230'> +1.4120717e-12 </wgt>
<wgt id='1231'> +1.4232616e-12 </wgt>
<wgt id='1232'> +1.4115384e-12 </wgt>
<wgt id='1233'> +1.4097225e-12 </wgt>
<wgt id='1234'> +1.4101003e-12 </wgt>
<wgt id='1235'> +1.4029355e-12 </wgt>
<wgt id='1236'> +1.4057044e-12 </wgt>
<wgt id='1237'> +1.4082573e-12 </wgt>
<wgt id='1238'> +1.4122491e-12 </wgt>
<wgt id='1239'> +1.4139007e-12 </wgt>
<wgt id='1240'> +1.4155564e-12 </wgt>
<wgt id='1241'> +1.3288941e-12 </wgt>
<wgt id='1242'> +1.3096069e-12 </wgt>
<wgt id='1243'> +1.3479262e-12 </wgt>
<wgt id='1244'> +1.3343596e-12 </wgt>
<wgt id='1245'> +1.3247820e-12 </wgt>
<wgt id='1246'> +1.3242457e-12 </wgt>
<wgt id='1247'> +1.3328198e-12 </wgt>
<wgt id='1248'> +1.3288854e-12 </wgt>
<wgt id='1249'> +1.3288793e-12 </wgt>
<wgt id='1250'> +1.3295920e-12 </wgt>
<wgt id='1251'> +1.3283969e-12 </wgt>
<wgt id='1252'> +1.3266143e-12 </wgt>
<wgt id='1253'> +1.3306345e-12 </wgt>
<wgt id='1254'> +1.3243666e-12 </wgt>
<wgt id='1255'> +1.3314866e-12 </wgt>
<wgt id='1256'> +1.3261807e-12 </wgt>
<wgt id='1257'> +1.3357236e-12 </wgt>
<wgt id='1258'> +1.3358305e-12 </wgt>
<wgt id='1259'> +1.3196825e-12 </wgt>
<wgt id='1260'> +1.3306699e-12 </wgt>
<wgt id='1261'> +1.3272888e-12 </wgt>
<wgt id='1262'> +1.3298991e-12 </wgt>
<wgt id='1263'> +1.3288352e-12 </wgt>
<wgt id='1264'> +1.3352993e-12 </wgt>
<wgt id='1265'> +1.3261364e-12 </wgt>
<wgt id='1266'> +1.3057422e-12 </wgt>
<wgt id='1267'> +1.3507413e-12 </wgt>
<wgt id='1268'> +1.3377087e-12 </wgt>
<wgt id='1269'> +1.3213053e-12 </wgt>
<wgt id='1270'> +1.3405603e-12 </wgt>
<wgt id='1271'> +1.3331636e-12 </wgt>
<wgt id='1272'> +1.3338345e-12 </wgt>
<wgt id='1273'> +1.3285627e-12 </wgt>
<wgt id='1274'> +1.3308652e-12 </wgt>
<wgt id='1275'> +1.3264261e-12 </wgt>
<wgt id='1276'> +1.3337138e-12 </wgt>
<wgt id='1277'> +1.3220493e-12 </wgt>
<wgt id='1278'> +1.3462442e-12 </wgt>
<wgt id='1279'> +1.3339107e-12 </wgt>
<wgt id='1280'> +1.3294740e-12 </wgt>
<wgt id='1281'> +1.3320727e-12 </wgt>
<wgt id='1282'> +1.3288941e-12 </wgt>
<wgt id='1283'> +1.3224171e-12 </wgt>
<wgt id='1284'> +1.3250928e-12 </wgt>
<wgt id='1285'> +1.3272114e-12 </wgt>
<wgt id='1286'> +1.3306495e-12 </wgt>
<wgt id='1287'> +1.3318548e-12 </wgt>
<wgt id='1288'> +1.3327311e-12 </wgt>
<wgt id='1289'> +1.4451365e-12 </wgt>
<wgt id='1290'> +1.4494947e-12 </wgt>
<wgt id='1291'> +1.4404728e-12 </wgt>
<wgt id='1292'> +1.4465633e-12 </wgt>
<wgt id='1293'> +1.4441248e-12 </wgt>
<wgt id='1294'> +1.4253976e-12 </wgt>
<wgt id='1295'> +1.4641510e-12 </wgt>
<wgt id='1296'> +1.4522880e-12 </wgt>
<wgt id='1297'> +1.4361398e-12 </wgt>
<wgt id='1298'> +1.4540081e-12 </wgt>
<wgt id='1299'> +1.4339723e-12 </wgt>
<wgt id='1300'> +1.4487866e-12 </wgt>
<wgt id='1301'> +1.4377878e-12 </wgt>
<wgt id='1302'> +1.4405115e-12 </wgt>
<wgt id='1303'> +1.4515670e-12 </wgt>
<wgt id='1304'> +1.4439907e-12 </wgt>
<wgt id='1305'> +1.4458846e-12 </wgt>
<wgt id='1306'> +1.4474553e-12 </wgt>
<wgt id='1307'> +1.4423260e-12 </wgt>
<wgt id='1308'> +1.4376041e-12 </wgt>
<wgt id='1309'> +1.4508961e-12 </wgt>
<wgt id='1310'> +1.4451979e-12 </wgt>
<wgt id='1311'> +1.4453514e-12 </wgt>
<wgt id='1312'> +1.4551633e-12 </wgt>
<wgt id='1313'> +1.4359169e-12 </wgt>
<wgt id='1314'> +1.4251292e-12 </wgt>
<wgt id='1315'> +1.4640235e-12 </wgt>
<wgt id='1316'> +1.4538949e-12 </wgt>
<wgt id='1317'> +1.4465062e-12 </wgt>
<wgt id='1318'> +1.4543784e-12 </wgt>
<wgt id='1319'> +1.4326715e-12 </wgt>
<wgt id='1320'> +1.4619110e-12 </wgt>
<wgt id='1321'> +1.4297512e-12 </wgt>
<wgt id='1322'> +1.4449363e-12 </wgt>
<wgt id='1323'> +1.4459118e-12 </wgt>
<wgt id='1324'> +1.4425304e-12 </wgt>
<wgt id='1325'> +1.4527574e-12 </wgt>
<wgt id='1326'> +1.4438570e-12 </wgt>
<wgt id='1327'> +1.4494408e-12 </wgt>
<wgt id='1328'> +1.4444990e-12 </wgt>
<wgt id='1329'> +1.4451883e-12 </wgt>
<wgt id='1330'> +1.4530547e-12 </wgt>
<wgt id='1331'> +1.4386663e-12 </wgt>
<wgt id='1332'> +1.4580185e-12 </wgt>
<wgt id='1333'> +1.4512323e-12 </wgt>
<wgt id='1334'> +1.4431528e-12 </wgt>
<wgt id='1335'> +1.4512028e-12 </wgt>
<wgt id='1336'> +1.4491619e-12 </wgt>
<wgt id='1337'> +1.4550029e-12 </wgt>
<wgt id='1338'> +1.4456164e-12 </wgt>
<wgt id='1339'> +1.4462677e-12 </wgt>
<wgt id='1340'> +1.4110013e-12 </wgt>
<wgt id='1341'> +1.4150744e-12 </wgt>
<wgt id='1342'> +1.4065911e-12 </wgt>
<wgt id='1343'> +1.4125557e-12 </wgt>
<wgt id='1344'> +1.4099413e-12 </wgt>
<wgt id='1345'> +1.3905587e-12 </wgt>
<wgt id='1346'> +1.4299001e-12 </wgt>
<wgt id='1347'> +1.4190310e-12 </wgt>
<wgt id='1348'> +1.4019034e-12 </wgt>
<wgt id='1349'> +1.4193011e-12 </wgt>
<wgt id='1350'> +1.4027759e-12 </wgt>
<wgt id='1351'> +1.4144759e-12 </wgt>
<wgt id='1352'> +1.4033756e-12 </wgt>
<wgt id='1353'> +1.4053173e-12 </wgt>
<wgt id='1354'> +1.4211250e-12 </wgt>
<wgt id='1355'> +1.4109624e-12 </wgt>
<wgt id='1356'> +1.4109720e-12 </wgt>
<wgt id='1357'> +1.4120893e-12 </wgt>
<wgt id='1358'> +1.4094170e-12 </wgt>
<wgt id='1359'> +1.4033006e-12 </wgt>
<wgt id='1360'> +1.4176563e-12 </wgt>
<wgt id='1361'> +1.4118609e-12 </wgt>
<wgt id='1362'> +1.4101039e-12 </wgt>
<wgt id='1363'> +1.4280861e-12 </wgt>
<wgt id='1364'> +1.4005904e-12 </wgt>
<wgt id='1365'> +1.4205470e-12 </wgt>
<wgt id='1366'> +1.3942626e-12 </wgt>
<wgt id='1367'> +1.4196823e-12 </wgt>
<wgt id='1368'> +1.4109266e-12 </wgt>
<wgt id='1369'> +1.4183923e-12 </wgt>
<wgt id='1370'> +1.4014234e-12 </wgt>
<wgt id='1371'> +1.4248882e-12 </wgt>
<wgt id='1372'> +1.3935833e-12 </wgt>
<wgt id='1373'> +1.4074558e-12 </wgt>
<wgt id='1374'> +1.4146338e-12 </wgt>
<wgt id='1375'> +1.4084094e-12 </wgt>
<wgt id='1376'> +1.4187215e-12 </wgt>
<wgt id='1377'> +1.4097338e-12 </wgt>
<wgt id='1378'> +1.4154757e-12 </wgt>
<wgt id='1379'> +1.4106137e-12 </wgt>
<wgt id='1380'> +1.4107886e-12 </wgt>
<wgt id='1381'> +1.4190522e-12 </wgt>
<wgt id='1382'> +1.4047736e-12 </wgt>
<wgt id='1383'> +1.4216945e-12 </wgt>
<wgt id='1384'> +1.4179098e-12 </wgt>
<wgt id='1385'> +1.4092738e-12 </wgt>
<wgt id='1386'> +1.4157869e-12 </wgt>
<wgt id='1387'> +1.4150326e-12 </wgt>
<wgt id='1388'> +1.4209016e-12 </wgt>
<wgt id='1389'> +1.4116737e-12 </wgt>
<wgt id='1390'> +1.4128577e-12 </wgt>
<wgt id='1391'> +1.3974362e-12 </wgt>
<wgt id='1392'> +1.3487628e-12 </wgt>
<wgt id='1393'> +1.3655669e-12 </wgt>
<wgt id='1394'> +1.3818677e-12 </wgt>
<wgt id='1395'> +1.4143882e-12 </wgt>
<wgt id='1396'> +1.3981109e-12 </wgt>
<wgt id='1397'> +1.3741636e-12 </wgt>
<wgt id='1398'> +1.3776422e-12 </wgt>
<wgt id='1399'> +1.3815706e-12 </wgt>
<wgt id='1400'> +1.3864557e-12 </wgt>
<wgt id='1401'> +1.3921986e-12 </wgt>
<wgt id='1402'> +1.4038600e-12 </wgt>
<wgt id='1403'> +1.4101528e-12 </wgt>
<wgt id='1404'> +1.4165647e-12 </wgt>
<wgt id='1405'> +1.3981109e-12 </wgt>
<wgt id='1406'> +1.3938257e-12 </wgt>
<wgt id='1407'> +1.3960223e-12 </wgt>
<wgt id='1408'> +1.3999658e-12 </wgt>
<wgt id='1409'> +1.4013717e-12 </wgt>
<wgt id='1410'> +1.2987991e-12 </wgt>
<wgt id='1411'> +1.3069256e-12 </wgt>
<wgt id='1412'> +1.2883474e-12 </wgt>
<wgt id='1413'> +1.2876673e-12 </wgt>
<wgt id='1414'> +1.3098745e-12 </wgt>
<wgt id='1415'> +1.2952886e-12 </wgt>
<wgt id='1416'> +1.3001963e-12 </wgt>
<wgt id='1417'> +1.2956515e-12 </wgt>
<wgt id='1418'> +1.3018692e-12 </wgt>
<wgt id='1419'> +1.3009989e-12 </wgt>
<wgt id='1420'> +1.2966377e-12 </wgt>
<wgt id='1421'> +1.2836087e-12 </wgt>
<wgt id='1422'> +1.3052122e-12 </wgt>
<wgt id='1423'> +1.2971496e-12 </wgt>
<wgt id='1424'> +1.3007995e-12 </wgt>
<wgt id='1425'> +1.2901755e-12 </wgt>
<wgt id='1426'> +1.3080484e-12 </wgt>
<wgt id='1427'> +1.2817851e-12 </wgt>
<wgt id='1428'> +1.3078457e-12 </wgt>
<wgt id='1429'> +1.3024795e-12 </wgt>
<wgt id='1430'> +1.2939140e-12 </wgt>
<wgt id='1431'> +1.3001322e-12 </wgt>
<wgt id='1432'> +1.2978029e-12 </wgt>
<wgt id='1433'> +1.2821675e-12 </wgt>
<wgt id='1434'> +1.3119963e-12 </wgt>
<wgt id='1435'> +1.2904593e-12 </wgt>
<wgt id='1436'> +1.3203778e-12 </wgt>
<wgt id='1437'> +1.3066551e-12 </wgt>
<wgt id='1438'> +1.3027323e-12 </wgt>
<wgt id='1439'> +1.2926876e-12 </wgt>
<wgt id='1440'> +1.3074061e-12 </wgt>
<wgt id='1441'> +1.3039217e-12 </wgt>
<wgt id='1442'> +1.2881850e-12 </wgt>
<wgt id='1443'> +1.2955048e-12 </wgt>
<wgt id='1444'> +1.3082522e-12 </wgt>
<wgt id='1445'> +1.3125019e-12 </wgt>
<wgt id='1446'> +1.2944318e-12 </wgt>
<wgt id='1447'> +1.3003831e-12 </wgt>
<wgt id='1448'> +1.3023051e-12 </wgt>
<wgt id='1449'> +1.2988452e-12 </wgt>
<wgt id='1450'> +1.2979121e-12 </wgt>
<wgt id='1451'> +1.2974763e-12 </wgt>
<wgt id='1452'> +1.3067431e-12 </wgt>
<wgt id='1453'> +1.2988607e-12 </wgt>
<wgt id='1454'> +1.2989507e-12 </wgt>
<wgt id='1455'> +1.3109538e-12 </wgt>
<wgt id='1456'> +1.3093162e-12 </wgt>
<wgt id='1457'> +1.3072523e-12 </wgt>
<wgt id='1458'> +1.2974071e-12 </wgt>
<wgt id='1459'> +1.3058977e-12 </wgt>
<wgt id='1460'> +1.3122791e-12 </wgt>
<wgt id='1461'> +1.2987991e-12 </wgt>
<wgt id='1462'> +1.2875482e-12 </wgt>
<wgt id='1463'> +1.3055042e-12 </wgt>
<wgt id='1464'> +1.2960828e-12 </wgt>
<wgt id='1465'> +1.2682880e-12 </wgt>
<wgt id='1466'> +1.2727513e-12 </wgt>
<wgt id='1467'> +1.2778490e-12 </wgt>
<wgt id='1468'> +1.2858414e-12 </wgt>
<wgt id='1469'> +1.2902080e-12 </wgt>
<wgt id='1470'> +1.3022287e-12 </wgt>
<wgt id='1471'> +1.3080153e-12 </wgt>
<wgt id='1472'> +1.3139307e-12 </wgt>
<wgt id='1473'> +1.2960828e-12 </wgt>
<wgt id='1474'> +1.2928035e-12 </wgt>
<wgt id='1475'> +1.2952027e-12 </wgt>
<wgt id='1476'> +1.2971044e-12 </wgt>
<wgt id='1477'> +1.2980967e-12 </wgt>
<wgt id='1478'> +1.3671264e-12 </wgt>
<wgt id='1479'> +1.3673095e-12 </wgt>
<wgt id='1480'> +1.3515907e-12 </wgt>
<wgt id='1481'> +1.3965223e-12 </wgt>
<wgt id='1482'> +1.3684770e-12 </wgt>
<wgt id='1483'> +1.3502078e-12 </wgt>
<wgt id='1484'> +1.3576369e-12 </wgt>
<wgt id='1485'> +1.3759815e-12 </wgt>
<wgt id='1486'> +1.3668999e-12 </wgt>
<wgt id='1487'> +1.3794731e-12 </wgt>
<wgt id='1488'> +1.3643986e-12 </wgt>
<wgt id='1489'> +1.3678903e-12 </wgt>
<wgt id='1490'> +1.3631352e-12 </wgt>
<wgt id='1491'> +1.3736611e-12 </wgt>
<wgt id='1492'> +1.3683787e-12 </wgt>
<wgt id='1493'> +1.3467418e-12 </wgt>
<wgt id='1494'> +1.3635049e-12 </wgt>
<wgt id='1495'> +1.3544388e-12 </wgt>
<wgt id='1496'> +1.3677988e-12 </wgt>
<wgt id='1497'> +1.3675897e-12 </wgt>
<wgt id='1498'> +1.3673125e-12 </wgt>
<wgt id='1499'> +1.3700701e-12 </wgt>
<wgt id='1500'> +1.3676483e-12 </wgt>
<wgt id='1501'> +1.3678752e-12 </wgt>
<wgt id='1502'> +1.3666278e-12 </wgt>
<wgt id='1503'> +1.3722497e-12 </wgt>
<wgt id='1504'> +1.3618173e-12 </wgt>
<wgt id='1505'> +1.3708567e-12 </wgt>
<wgt id='1506'> +1.3683672e-12 </wgt>
<wgt id='1507'> +1.3673703e-12 </wgt>
<wgt id='1508'> +1.3703908e-12 </wgt>
<wgt id='1509'> +1.3082914e-12 </wgt>
<wgt id='1510'> +1.3143469e-12 </wgt>
<wgt id='1511'> +1.2857177e-12 </wgt>
<wgt id='1512'> +1.2942261e-12 </wgt>
<wgt id='1513'> +1.3074848e-12 </wgt>
<wgt id='1514'> +1.3139394e-12 </wgt>
<wgt id='1515'> +1.3115987e-12 </wgt>
<wgt id='1516'> +1.3116110e-12 </wgt>
<wgt id='1517'> +1.3083297e-12 </wgt>
<wgt id='1518'> +1.3083023e-12 </wgt>
<wgt id='1519'> +1.3092384e-12 </wgt>
<wgt id='1520'> +1.3089285e-12 </wgt>
<wgt id='1521'> +1.3081486e-12 </wgt>
<wgt id='1522'> +1.3105396e-12 </wgt>
<wgt id='1523'> +1.3105086e-12 </wgt>
<wgt id='1524'> +1.3066601e-12 </wgt>
<wgt id='1525'> +1.3089180e-12 </wgt>
<wgt id='1526'> +1.3089867e-12 </wgt>
<wgt id='1527'> +1.3076219e-12 </wgt>
<wgt id='1528'> +1.3087832e-12 </wgt>
<wgt id='1529'> +1.3089721e-12 </wgt>
<wgt id='1530'> +1.3093808e-12 </wgt>
<wgt id='1531'> +1.3097730e-12 </wgt>
<wgt id='1532'> +1.3039606e-12 </wgt>
<wgt id='1533'> +1.3092364e-12 </wgt>
<wgt id='1534'> +1.3080858e-12 </wgt>
<wgt id='1535'> +1.3033904e-12 </wgt>
<wgt id='1536'> +1.3109890e-12 </wgt>
<wgt id='1537'> +1.3106444e-12 </wgt>
<wgt id='1538'> +1.2970898e-12 </wgt>
<wgt id='1539'> +1.3086636e-12 </wgt>
<wgt id='1540'> +1.3079485e-12 </wgt>
<wgt id='1541'> +1.3062257e-12 </wgt>
<wgt id='1542'> +1.3064595e-12 </wgt>
<wgt id='1543'> +1.3089755e-12 </wgt>
<wgt id='1544'> +1.3071747e-12 </wgt>
<wgt id='1545'> +1.3063539e-12 </wgt>
<wgt id='1546'> +1.3080280e-12 </wgt>
<wgt id='1547'> +1.3069917e-12 </wgt>
<wgt id='1548'> +1.3090421e-12 </wgt>
<wgt id='1549'> +1.3070515e-12 </wgt>
<wgt id='1550'> +1.3080693e-12 </wgt>
<wgt id='1551'> +1.3088332e-12 </wgt>
<wgt id='1552'> +1.3098897e-12 </wgt>
<wgt id='1553'> +1.3081569e-12 </wgt>
<wgt id='1554'> +1.3069642e-12 </wgt>
<wgt id='1555'> +1.3107879e-12 </wgt>
<wgt id='1556'> +1.3120298e-12 </wgt>
<wgt id='1557'> +1.3081097e-12 </wgt>
<wgt id='1558'> +1.3080321e-12 </wgt>
<wgt id='1559'> +1.3059922e-12 </wgt>
<wgt id='1560'> +1.3077248e-12 </wgt>
<wgt id='1561'> +1.3079756e-12 </wgt>
<wgt id='1562'> +1.3078167e-12 </wgt>
<wgt id='1563'> +1.3080234e-12 </wgt>
<wgt id='1564'> +1.3071561e-12 </wgt>
<wgt id='1565'> +1.3086249e-12 </wgt>
<wgt id='1566'> +1.3084140e-12 </wgt>
<wgt id='1567'> +1.3084914e-12 </wgt>
<wgt id='1568'> +1.3073963e-12 </wgt>
<wgt id='1569'> +1.3112652e-12 </wgt>
<wgt id='1570'> +1.3089402e-12 </wgt>
<wgt id='1571'> +1.3093828e-12 </wgt>
<wgt id='1572'> +1.3091114e-12 </wgt>
<wgt id='1573'> +1.3083759e-12 </wgt>
<wgt id='1574'> +1.3092527e-12 </wgt>
<wgt id='1575'> +1.3073069e-12 </wgt>
<wgt id='1576'> +1.3084594e-12 </wgt>
<wgt id='1577'> +1.3091874e-12 </wgt>
<wgt id='1578'> +1.3097874e-12 </wgt>
<wgt id='1579'> +1.3073347e-12 </wgt>
<wgt id='1580'> +1.3074480e-12 </wgt>
<wgt id='1581'> +1.3087407e-12 </wgt>
<wgt id='1582'> +1.3097282e-12 </wgt>
<wgt id='1583'> +1.3074902e-12 </wgt>
<wgt id='1584'> +1.3086598e-12 </wgt>
<wgt id='1585'> +1.3087530e-12 </wgt>
<wgt id='1586'> +1.3083181e-12 </wgt>
<wgt id='1587'> +1.3080187e-12 </wgt>
<wgt id='1588'> +1.3070084e-12 </wgt>
<wgt id='1589'> +1.3096213e-12 </wgt>
<wgt id='1590'> +1.3079661e-12 </wgt>
<wgt id='1591'> +1.3083460e-12 </wgt>
<wgt id='1592'> +1.3075731e-12 </wgt>
<wgt id='1593'> +1.3095743e-12 </wgt>
<wgt id='1594'> +1.3078021e-12 </wgt>
<wgt id='1595'> +1.3083252e-12 </wgt>
<wgt id='1596'> +1.3070359e-12 </wgt>
<wgt id='1597'> +1.3088265e-12 </wgt>
<wgt id='1598'> +1.3081286e-12 </wgt>
<wgt id='1599'> +1.3087931e-12 </wgt>
<wgt id='1600'> +1.3070690e-12 </wgt>
<wgt id='1601'> +1.3086875e-12 </wgt>
<wgt id='1602'> +1.3083381e-12 </wgt>
<wgt id='1603'> +1.3094618e-12 </wgt>
<wgt id='1604'> +1.3088695e-12 </wgt>
<wgt id='1605'> +1.3088788e-12 </wgt>
<wgt id='1606'> +1.3079839e-12 </wgt>
<wgt id='1607'> +1.3082293e-12 </wgt>
<wgt id='1608'> +1.3089640e-12 </wgt>
<wgt id='1609'> +1.3088289e-12 </wgt>
<wgt id='1610'> +1.2941283e-12 </wgt>
<wgt id='1611'> +1.3206998e-12 </wgt>
<wgt id='1612'> +1.5420781e-12 </wgt>
<wgt id='1613'> +1.5114874e-12 </wgt>
<wgt id='1614'> +1.4699140e-12 </wgt>
<wgt id='1615'> +1.5219938e-12 </wgt>
<wgt id='1616'> +1.4790546e-12 </wgt>
<wgt id='1617'> +1.4936788e-12 </wgt>
<wgt id='1618'> +1.5617721e-12 </wgt>
<wgt id='1619'> +1.5138815e-12 </wgt>
<wgt id='1620'> +1.5201429e-12 </wgt>
<wgt id='1621'> +1.5451103e-12 </wgt>
<wgt id='1622'> +1.5538402e-12 </wgt>
<wgt id='1623'> +1.5449382e-12 </wgt>
<wgt id='1624'> +1.5957922e-12 </wgt>
<wgt id='1625'> +1.4708324e-12 </wgt>
<wgt id='1626'> +1.5147646e-12 </wgt>
<wgt id='1627'> +1.5792730e-12 </wgt>
<wgt id='1628'> +1.4765179e-12 </wgt>
<wgt id='1629'> +1.5685662e-12 </wgt>
<wgt id='1630'> +1.4873230e-12 </wgt>
<wgt id='1631'> +1.4962730e-12 </wgt>
<wgt id='1632'> +1.4693549e-12 </wgt>
<wgt id='1633'> +1.4595824e-12 </wgt>
<wgt id='1634'> +1.5285256e-12 </wgt>
<wgt id='1635'> +1.5621153e-12 </wgt>
<wgt id='1636'> +1.5506208e-12 </wgt>
<wgt id='1637'> +1.5846657e-12 </wgt>
<wgt id='1638'> +1.5576803e-12 </wgt>
<wgt id='1639'> +1.5176593e-12 </wgt>
<wgt id='1640'> +1.5335489e-12 </wgt>
<wgt id='1641'> +1.5450057e-12 </wgt>
<wgt id='1642'> +1.4709264e-12 </wgt>
<wgt id='1643'> +1.5090026e-12 </wgt>
<wgt id='1644'> +1.5703765e-12 </wgt>
<wgt id='1645'> +1.5003685e-12 </wgt>
<wgt id='1646'> +1.5441273e-12 </wgt>
<wgt id='1647'> +1.5884829e-12 </wgt>
<wgt id='1648'> +1.5434112e-12 </wgt>
<wgt id='1649'> +1.6479567e-12 </wgt>
<wgt id='1650'> +1.4991131e-12 </wgt>
<wgt id='1651'> +1.5658231e-12 </wgt>
<wgt id='1652'> +1.5046849e-12 </wgt>
<wgt id='1653'> +1.5527801e-12 </wgt>
<wgt id='1654'> +1.5545943e-12 </wgt>
<wgt id='1655'> +1.5979152e-12 </wgt>
<wgt id='1656'> +1.5143675e-12 </wgt>
<wgt id='1657'> +1.5642737e-12 </wgt>
<wgt id='1658'> +1.5105677e-12 </wgt>
<wgt id='1659'> +1.5957922e-12 </wgt>
<wgt id='1660'> +1.5647299e-12 </wgt>
<wgt id='1661'> +1.5752851e-12 </wgt>
<wgt id='1662'> +1.6236378e-12 </wgt>
<wgt id='1663'> +1.5286157e-12 </wgt>
<wgt id='1664'> +1.5141470e-12 </wgt>
<wgt id='1665'> +1.5160898e-12 </wgt>
<wgt id='1666'> +1.5712826e-12 </wgt>
<wgt id='1667'> +1.5457424e-12 </wgt>
<wgt id='1668'> +1.5776490e-12 </wgt>
<wgt id='1669'> +1.5631089e-12 </wgt>
<wgt id='1670'> +1.5054393e-12 </wgt>
<wgt id='1671'> +1.5126189e-12 </wgt>
<wgt id='1672'> +1.5691533e-12 </wgt>
<wgt id='1673'> +1.5472746e-12 </wgt>
<wgt id='1674'> +1.5210485e-12 </wgt>
<wgt id='1675'> +1.5282491e-12 </wgt>
<wgt id='1676'> +1.5166943e-12 </wgt>
<wgt id='1677'> +1.5323588e-12 </wgt>
<wgt id='1678'> +1.5182141e-12 </wgt>
<wgt id='1679'> +1.5471140e-12 </wgt>
<wgt id='1680'> +1.6029262e-12 </wgt>
<wgt id='1681'> +1.5768841e-12 </wgt>
<wgt id='1682'> +1.5295717e-12 </wgt>
<wgt id='1683'> +1.5599058e-12 </wgt>
<wgt id='1684'> +1.6113174e-12 </wgt>
<wgt id='1685'> +1.5418447e-12 </wgt>
<wgt id='1686'> +1.5256700e-12 </wgt>
<wgt id='1687'> +1.5649821e-12 </wgt>
<wgt id='1688'> +1.5179573e-12 </wgt>
<wgt id='1689'> +1.6216572e-12 </wgt>
<wgt id='1690'> +1.5374387e-12 </wgt>
<wgt id='1691'> +1.4662574e-12 </wgt>
<wgt id='1692'> +1.5638953e-12 </wgt>
<wgt id='1693'> +1.5378600e-12 </wgt>
<wgt id='1694'> +1.5233141e-12 </wgt>
<wgt id='1695'> +1.5495537e-12 </wgt>
<wgt id='1696'> +1.5273645e-12 </wgt>
<wgt id='1697'> +1.5437632e-12 </wgt>
<wgt id='1698'> +1.5619745e-12 </wgt>
<wgt id='1699'> +1.5733484e-12 </wgt>
<wgt id='1700'> +1.5115537e-12 </wgt>
<wgt id='1701'> +1.6210299e-12 </wgt>
<wgt id='1702'> +1.4946195e-12 </wgt>
<wgt id='1703'> +1.5152985e-12 </wgt>
<wgt id='1704'> +1.5090615e-12 </wgt>
<wgt id='1705'> +1.4649689e-12 </wgt>
<wgt id='1706'> +1.5960647e-12 </wgt>
<wgt id='1707'> +1.5766021e-12 </wgt>
<wgt id='1708'> +1.6356715e-12 </wgt>
<wgt id='1709'> +1.6117608e-12 </wgt>
<wgt id='1710'> +1.5388699e-12 </wgt>
<wgt id='1711'> +1.5491381e-12 </wgt>
<wgt id='1712'> +1.6164996e-12 </wgt>
<wgt id='1713'> +1.3258038e-12 </wgt>
<wgt id='1714'> +1.3224190e-12 </wgt>
<wgt id='1715'> +1.2857365e-12 </wgt>
<wgt id='1716'> +1.3557861e-12 </wgt>
<wgt id='1717'> +1.3386950e-12 </wgt>
<wgt id='1718'> +1.3576987e-12 </wgt>
<wgt id='1719'> +1.3512232e-12 </wgt>
<wgt id='1720'> +1.2699715e-12 </wgt>
<wgt id='1721'> +1.2967966e-12 </wgt>
<wgt id='1722'> +1.3161786e-12 </wgt>
<wgt id='1723'> +1.3847858e-12 </wgt>
<wgt id='1724'> +1.3106295e-12 </wgt>
<wgt id='1725'> +1.3337358e-12 </wgt>
<wgt id='1726'> +1.3283926e-12 </wgt>
<wgt id='1727'> +1.3823883e-12 </wgt>
<wgt id='1728'> +1.3085696e-12 </wgt>
<wgt id='1729'> +1.2608907e-12 </wgt>
<wgt id='1730'> +1.3002043e-12 </wgt>
<wgt id='1731'> +1.2567553e-12 </wgt>
<wgt id='1732'> +1.3304116e-12 </wgt>
<wgt id='1733'> +1.2595528e-12 </wgt>
<wgt id='1734'> +1.4022188e-12 </wgt>
<wgt id='1735'> +1.2925934e-12 </wgt>
<wgt id='1736'> +1.3430365e-12 </wgt>
<wgt id='1737'> +1.3812996e-12 </wgt>
<wgt id='1738'> +1.3139530e-12 </wgt>
<wgt id='1739'> +1.3322988e-12 </wgt>
<wgt id='1740'> +1.2425460e-12 </wgt>
<wgt id='1741'> +1.3791186e-12 </wgt>
<wgt id='1742'> +1.3104736e-12 </wgt>
<wgt id='1743'> +1.2926763e-12 </wgt>
<wgt id='1744'> +1.3529828e-12 </wgt>
<wgt id='1745'> +1.3459306e-12 </wgt>
<wgt id='1746'> +1.3017161e-12 </wgt>
<wgt id='1747'> +1.3928205e-12 </wgt>
<wgt id='1748'> +1.3244719e-12 </wgt>
<wgt id='1749'> +1.3201897e-12 </wgt>
<wgt id='1750'> +1.2979594e-12 </wgt>
<wgt id='1751'> +1.3090005e-12 </wgt>
<wgt id='1752'> +1.3179883e-12 </wgt>
<wgt id='1753'> +1.3378692e-12 </wgt>
<wgt id='1754'> +1.3442824e-12 </wgt>
<wgt id='1755'> +1.3359281e-12 </wgt>
<wgt id='1756'> +1.3505409e-12 </wgt>
<wgt id='1757'> +1.3552097e-12 </wgt>
<wgt id='1758'> +1.3886003e-12 </wgt>
<wgt id='1759'> +1.3593869e-12 </wgt>
<wgt id='1760'> +1.3242485e-12 </wgt>
<wgt id='1761'> +1.3309474e-12 </wgt>
<wgt id='1762'> +1.3021152e-12 </wgt>
<wgt id='1763'> +1.3516675e-12 </wgt>
<wgt id='1764'> +1.3766017e-12 </wgt>
<wgt id='1765'> +1.3157189e-12 </wgt>
<wgt id='1766'> +1.3616511e-12 </wgt>
<wgt id='1767'> +1.3199612e-12 </wgt>
<wgt id='1768'> +1.3495960e-12 </wgt>
<wgt id='1769'> +1.3412397e-12 </wgt>
<wgt id='1770'> +1.3163413e-12 </wgt>
<wgt id='1771'> +1.3863723e-12 </wgt>
<wgt id='1772'> +1.3153562e-12 </wgt>
<wgt id='1773'> +1.3339030e-12 </wgt>
<wgt id='1774'> +1.3081642e-12 </wgt>
<wgt id='1775'> +1.3250055e-12 </wgt>
<wgt id='1776'> +1.3814182e-12 </wgt>
<wgt id='1777'> +1.2648321e-12 </wgt>
<wgt id='1778'> +1.3374323e-12 </wgt>
<wgt id='1779'> +1.3095553e-12 </wgt>
<wgt id='1780'> +1.3127050e-12 </wgt>
<wgt id='1781'> +1.3610947e-12 </wgt>
<wgt id='1782'> +1.3193179e-12 </wgt>
<wgt id='1783'> +1.3401313e-12 </wgt>
<wgt id='1784'> +1.3114866e-12 </wgt>
<wgt id='1785'> +1.3291157e-12 </wgt>
<wgt id='1786'> +1.3104936e-12 </wgt>
<wgt id='1787'> +1.4221629e-12 </wgt>
<wgt id='1788'> +1.3085840e-12 </wgt>
<wgt id='1789'> +1.4092851e-12 </wgt>
<wgt id='1790'> +1.3287157e-12 </wgt>
<wgt id='1791'> +1.3007538e-12 </wgt>
<wgt id='1792'> +1.2990665e-12 </wgt>
<wgt id='1793'> +1.3023134e-12 </wgt>
<wgt id='1794'> +1.3627658e-12 </wgt>
<wgt id='1795'> +1.3362058e-12 </wgt>
<wgt id='1796'> +1.2914177e-12 </wgt>
<wgt id='1797'> +1.3307546e-12 </wgt>
<wgt id='1798'> +1.3157588e-12 </wgt>
<wgt id='1799'> +1.3038594e-12 </wgt>
<wgt id='1800'> +1.3449833e-12 </wgt>
<wgt id='1801'> +1.3208680e-12 </wgt>
<wgt id='1802'> +1.2864934e-12 </wgt>
<wgt id='1803'> +1.3368594e-12 </wgt>
<wgt id='1804'> +1.3465709e-12 </wgt>
<wgt id='1805'> +1.2843400e-12 </wgt>
<wgt id='1806'> +1.2981427e-12 </wgt>
<wgt id='1807'> +1.2945263e-12 </wgt>
<wgt id='1808'> +1.2928792e-12 </wgt>
<wgt id='1809'> +1.3014040e-12 </wgt>
<wgt id='1810'> +1.2940123e-12 </wgt>
<wgt id='1811'> +1.3310763e-12 </wgt>
<wgt id='1812'> +1.2949413e-12 </wgt>
<wgt id='1813'> +1.2405920e-12 </wgt>
<wgt id='1814'> +1.7051178e-12 </wgt>
<wgt id='1815'> +2.0959584e-12 </wgt>
<wgt id='1816'> +1.3258038e-12 </wgt>
<wgt id='1817'> +1.3224190e-12 </wgt>
<wgt id='1818'> +1.2857365e-12 </wgt>
<wgt id='1819'> +1.3557861e-12 </wgt>
<wgt id='1820'> +1.3386950e-12 </wgt>
<wgt id='1821'> +1.3576987e-12 </wgt>
<wgt id='1822'> +1.3512232e-12 </wgt>
<wgt id='1823'> +1.2699715e-12 </wgt>
<wgt id='1824'> +1.2967966e-12 </wgt>
<wgt id='1825'> +1.3161786e-12 </wgt>
<wgt id='1826'> +1.3847858e-12 </wgt>
<wgt id='1827'> +1.3106295e-12 </wgt>
<wgt id='1828'> +1.3337358e-12 </wgt>
<wgt id='1829'> +1.3283926e-12 </wgt>
<wgt id='1830'> +1.3823883e-12 </wgt>
<wgt id='1831'> +1.3085696e-12 </wgt>
<wgt id='1832'> +1.2608907e-12 </wgt>
<wgt id='1833'> +1.3002043e-12 </wgt>
<wgt id='1834'> +1.2567553e-12 </wgt>
<wgt id='1835'> +1.3304116e-12 </wgt>
<wgt id='1836'> +1.2595528e-12 </wgt>
<wgt id='1837'> +1.4022188e-12 </wgt>
<wgt id='1838'> +1.2925934e-12 </wgt>
<wgt id='1839'> +1.3430365e-12 </wgt>
<wgt id='1840'> +1.3812996e-12 </wgt>
<wgt id='1841'> +1.3139530e-12 </wgt>
<wgt id='1842'> +1.3322988e-12 </wgt>
<wgt id='1843'> +1.2425460e-12 </wgt>
<wgt id='1844'> +1.3791186e-12 </wgt>
<wgt id='1845'> +1.3104736e-12 </wgt>
<wgt id='1846'> +1.2926763e-12 </wgt>
<wgt id='1847'> +1.3529828e-12 </wgt>
<wgt id='1848'> +1.3459306e-12 </wgt>
<wgt id='1849'> +1.3017161e-12 </wgt>
<wgt id='1850'> +1.3928205e-12 </wgt>
<wgt id='1851'> +1.3244719e-12 </wgt>
<wgt id='1852'> +1.3201897e-12 </wgt>
<wgt id='1853'> +1.2979594e-12 </wgt>
<wgt id='1854'> +1.3090005e-12 </wgt>
<wgt id='1855'> +1.3179883e-12 </wgt>
<wgt id='1856'> +1.3378692e-12 </wgt>
<wgt id='1857'> +1.3442824e-12 </wgt>
<wgt id='1858'> +1.3359281e-12 </wgt>
<wgt id='1859'> +1.3505409e-12 </wgt>
<wgt id='1860'> +1.3552097e-12 </wgt>
<wgt id='1861'> +1.3886003e-12 </wgt>
<wgt id='1862'> +1.3593869e-12 </wgt>
<wgt id='1863'> +1.3242485e-12 </wgt>
<wgt id='1864'> +1.3309474e-12 </wgt>
<wgt id='1865'> +1.3021152e-12 </wgt>
<wgt id='1866'> +1.3516675e-12 </wgt>
<wgt id='1867'> +1.3766017e-12 </wgt>
<wgt id='1868'> +1.3157189e-12 </wgt>
<wgt id='1869'> +1.3616511e-12 </wgt>
<wgt id='1870'> +1.3199612e-12 </wgt>
<wgt id='1871'> +1.3495960e-12 </wgt>
<wgt id='1872'> +1.3412397e-12 </wgt>
<wgt id='1873'> +1.3163413e-12 </wgt>
<wgt id='1874'> +1.3863723e-12 </wgt>
<wgt id='1875'> +1.3153562e-12 </wgt>
<wgt id='1876'> +1.3339030e-12 </wgt>
<wgt id='1877'> +1.3081642e-12 </wgt>
<wgt id='1878'> +1.3250055e-12 </wgt>
<wgt id='1879'> +1.3814182e-12 </wgt>
<wgt id='1880'> +1.2648321e-12 </wgt>
<wgt id='1881'> +1.3374323e-12 </wgt>
<wgt id='1882'> +1.3095553e-12 </wgt>
<wgt id='1883'> +1.3127050e-12 </wgt>
<wgt id='1884'> +1.3610947e-12 </wgt>
<wgt id='1885'> +1.3193179e-12 </wgt>
<wgt id='1886'> +1.3401313e-12 </wgt>
<wgt id='1887'> +1.3114866e-12 </wgt>
<wgt id='1888'> +1.3291157e-12 </wgt>
<wgt id='1889'> +1.3104936e-12 </wgt>
<wgt id='1890'> +1.4221629e-12 </wgt>
<wgt id='1891'> +1.3085840e-12 </wgt>
<wgt id='1892'> +1.4092851e-12 </wgt>
<wgt id='1893'> +1.3287157e-12 </wgt>
<wgt id='1894'> +1.3007538e-12 </wgt>
<wgt id='1895'> +1.2990665e-12 </wgt>
<wgt id='1896'> +1.3023134e-12 </wgt>
<wgt id='1897'> +1.3627658e-12 </wgt>
<wgt id='1898'> +1.3362058e-12 </wgt>
<wgt id='1899'> +1.2914177e-12 </wgt>
<wgt id='1900'> +1.3307546e-12 </wgt>
<wgt id='1901'> +1.3157588e-12 </wgt>
<wgt id='1902'> +1.3038594e-12 </wgt>
<wgt id='1903'> +1.3449833e-12 </wgt>
<wgt id='1904'> +1.3208680e-12 </wgt>
<wgt id='1905'> +1.2864934e-12 </wgt>
<wgt id='1906'> +1.3368594e-12 </wgt>
<wgt id='1907'> +1.3465709e-12 </wgt>
<wgt id='1908'> +1.2843400e-12 </wgt>
<wgt id='1909'> +1.2981427e-12 </wgt>
<wgt id='1910'> +1.2945263e-12 </wgt>
<wgt id='1911'> +1.2928792e-12 </wgt>
<wgt id='1912'> +1.3014040e-12 </wgt>
<wgt id='1913'> +1.2940123e-12 </wgt>
<wgt id='1914'> +1.3310763e-12 </wgt>
<wgt id='1915'> +1.2949413e-12 </wgt>
<wgt id='1916'> +1.2405920e-12 </wgt>
<wgt id='1917'> +1.3191232e-12 </wgt>
<wgt id='1918'> +1.3446136e-12 </wgt>
<wgt id='1919'> +1.2743512e-12 </wgt>
</rwgt>
</event>
<event>
 9      1 +1.5538000e-12 3.20752500e+01 7.81860800e-03 1.42986700e-01
       -4 -1    0    0    0  501 -0.0000000000e+00 +0.0000000000e+00 +2.2024302941e+01 2.2070032171e+01 0.0000000000e+00 0.0000e+00 -1.0000e+00
       21 -1    0    0  501  502 +0.0000000000e+00 -0.0000000000e+00 -4.3807755128e+01 4.3807755128e+01 1.4200000000e+00 0.0000e+00 -1.0000e+00
     1023  2    1    2    0    0 -2.8218183132e+01 +2.7442594151e+00 -3.8615758286e+00 3.2306864297e+01 1.5000829773e+01 0.0000e+00 0.0000e+00
  1000023  2    3    3    0    0 -6.3147568626e+00 -2.8764069388e+00 -1.9649990776e+00 9.0700621087e+00 5.5004485426e+00 0.0000e+00 0.0000e+00
       -4  1    1    2    0  502 +2.8218183132e+01 -2.7442594151e+00 -1.7921876358e+01 3.3570923002e+01 1.4200000000e+00 0.0000e+00 -1.0000e+00
  1000022  1    4    4    0    0 -5.8087104228e+00 -2.2906213614e+00 -1.5482072656e+00 8.1476995977e+00 5.0000000000e+00 0.0000e+00 -1.0000e+00
      -13  1    4    4    0    0 -1.5985638267e-01 -1.2690329141e-01 -1.7922184657e-01 2.9146435243e-01 1.0570000000e-01 0.0000e+00 1.0000e+00
       13  1    4    4    0    0 -3.4619005704e-01 -4.5888228599e-01 -2.3756996536e-01 6.3089815853e-01 1.0570000000e-01 0.0000e+00 -1.0000e+00
  1000022  1    3    3    0    0 -2.1903426269e+01 +5.6206663538e+00 -1.8965767510e+00 2.3236802189e+01 5.0000000000e+00 0.0000e+00 -1.0000e+00
<mgrwt>
<rscale>  1 0.32075251E+02</rscale>
<asrwt>0</asrwt>
<pdfrwt beam="1">  1       21 0.67396564E-02 0.32075251E+02</pdfrwt>
<pdfrwt beam="2">  1       -4 0.33936414E-02 0.32075251E+02</pdfrwt>
<totfact> 0.27028756E+06</totfact>
</mgrwt>
<rwgt>
<wgt id='1001'> +1.5538000e-12 </wgt>
<wgt id='1002'> +1.6668189e-12 </wgt>
<wgt id='1003'> +1.6670915e-12 </wgt>
<wgt id='1004'> +1.5398573e-12 </wgt>
<wgt id='1005'> +1.6711903e-12 </wgt>
<wgt id='1006'> +1.3620816e-12 </wgt>
<wgt id='1007'> +1.4831114e-12 </wgt>
<wgt id='1008'> +1.4834143e-12 </wgt>
<wgt id='1009'> +1.3476207e-12 </wgt>
<wgt id='1010'> +1.4879767e-12 </wgt>
<wgt id='1011'> +1.8114006e-12 </wgt>
<wgt id='1012'> +1.9046903e-12 </wgt>
<wgt id='1013'> +1.9049003e-12 </wgt>
<wgt id='1014'> +1.7992199e-12 </wgt>
<wgt id='1015'> +1.9080392e-12 </wgt>
<wgt id='1016'> +1.9112491e-12 </wgt>
<wgt id='1017'> +1.9561508e-12 </wgt>
<wgt id='1018'> +1.9562396e-12 </wgt>
<wgt id='1019'> +1.9049003e-12 </wgt>
<wgt id='1020'> +1.9575619e-12 </wgt>
<wgt id='1021'> +1.6754261e-12 </wgt>
<wgt id='1022'> +1.7405548e-12 </wgt>
<wgt id='1023'> +1.7407046e-12 </wgt>
<wgt id='1024'> +1.6670915e-12 </wgt>
<wgt id='1025'> +1.7429533e-12 </wgt>
<wgt id='1026'> +2.2281103e-12 </wgt>
<wgt id='1027'> +2.2353128e-12 </wgt>
<wgt id='1028'> +2.2352951e-12 </wgt>
<wgt id='1029'> +2.2257480e-12 </wgt>
<wgt id='1030'> +2.2349968e-12 </wgt>
<wgt id='1031'> +1.1653099e-12 </wgt>
<wgt id='1032'> +1.3471494e-12 </wgt>
<wgt id='1033'> +1.3476207e-12 </wgt>
<wgt id='1034'> +1.1442065e-12 </wgt>
<wgt id='1035'> +1.3547219e-12 </wgt>
<wgt id='1036'> +1.0215260e-12 </wgt>
<wgt id='1037'> +1.1986741e-12 </wgt>
<wgt id='1038'> +1.1991423e-12 </wgt>
<wgt id='1039'> +1.0013631e-12 </wgt>
<wgt id='1040'> +1.2062029e-12 </wgt>
<wgt id='1041'> +1.3585038e-12 </wgt>
<wgt id='1042'> +1.5394009e-12 </wgt>
<wgt id='1043'> +1.5398573e-12 </wgt>
<wgt id='1044'> +1.3369284e-12 </wgt>
<wgt id='1045'> +1.5467194e-12 </wgt>
<wgt id='1046'> +1.5538000e-12 </wgt>
<wgt id='1047'> +1.4912879e-12 </wgt>
<wgt id='1048'> +1.5722339e-12 </wgt>
<wgt id='1049'> +1.5577656e-12 </wgt>
<wgt id='1050'> +1.5451164e-12 </wgt>
<wgt id='1051'> +1.5800690e-12 </wgt>
<wgt id='1052'> +1.4804760e-12 </wgt>
<wgt id='1053'> +1.5715181e-12 </wgt>
<wgt id='1054'> +1.5908056e-12 </wgt>
<wgt id='1055'> +1.5956289e-12 </wgt>
<wgt id='1056'> +1.5868574e-12 </wgt>
<wgt id='1057'> +1.5521490e-12 </wgt>
<wgt id='1058'> +1.5168368e-12 </wgt>
<wgt id='1059'> +1.5603895e-12 </wgt>
<wgt id='1060'> +1.5207674e-12 </wgt>
<wgt id='1061'> +1.5835679e-12 </wgt>
<wgt id='1062'> +1.5694963e-12 </wgt>
<wgt id='1063'> +1.6085965e-12 </wgt>
<wgt id='1064'> +1.5510264e-12 </wgt>
<wgt id='1065'> +1.5576187e-12 </wgt>
<wgt id='1066'> +1.6171120e-12 </wgt>
<wgt id='1067'> +1.5696750e-12 </wgt>
<wgt id='1068'> +1.5755690e-12 </wgt>
<wgt id='1069'> +1.5631301e-12 </wgt>
<wgt id='1070'> +1.5607277e-12 </wgt>
<wgt id='1071'> +1.5568786e-12 </wgt>
<wgt id='1072'> +1.6035047e-12 </wgt>
<wgt id='1073'> +1.5610122e-12 </wgt>
<wgt id='1074'> +1.5090465e-12 </wgt>
<wgt id='1075'> +1.5536775e-12 </wgt>
<wgt id='1076'> +1.5506587e-12 </wgt>
<wgt id='1077'> +1.5411801e-12 </wgt>
<wgt id='1078'> +1.5396710e-12 </wgt>
<wgt id='1079'> +1.5106394e-12 </wgt>
<wgt id='1080'> +1.5169284e-12 </wgt>
<wgt id='1081'> +1.5887584e-12 </wgt>
<wgt id='1082'> +1.5454307e-12 </wgt>
<wgt id='1083'> +1.6090115e-12 </wgt>
<wgt id='1084'> +1.5823635e-12 </wgt>
<wgt id='1085'> +1.5019412e-12 </wgt>
<wgt id='1086'> +1.5281483e-12 </wgt>
<wgt id='1087'> +1.5476207e-12 </wgt>
<wgt id='1088'> +1.4630176e-12 </wgt>
<wgt id='1089'> +1.5211237e-12 </wgt>
<wgt id='1090'> +1.4838299e-12 </wgt>
<wgt id='1091'> +1.5364466e-12 </wgt>
<wgt id='1092'> +1.5464771e-12 </wgt>
<wgt id='1093'> +1.4805832e-12 </wgt>
<wgt id='1094'> +1.5575312e-12 </wgt>
<wgt id='1095'> +1.5318269e-12 </wgt>
<wgt id='1096'> +1.5777098e-12 </wgt>
<wgt id='1097'> +1.5115359e-12 </wgt>
<wgt id='1098'> +1.6061271e-12 </wgt>
<wgt id='1099'> +1.5386414e-12 </wgt>
<wgt id='1100'> +1.5128717e-12 </wgt>
<wgt id='1101'> +1.5423571e-12 </wgt>
<wgt id='1102'> +1.5410846e-12 </wgt>
<wgt id='1103'> +1.5496961e-12 </wgt>
<wgt id='1104'> +1.5813140e-12 </wgt>
<wgt id='1105'> +1.6037968e-12 </wgt>
<wgt id='1106'> +1.5802783e-12 </wgt>
<wgt id='1107'> +1.5363169e-12 </wgt>
<wgt id='1108'> +1.5694531e-12 </wgt>
<wgt id='1109'> +1.5827777e-12 </wgt>
<wgt id='1110'> +1.5450349e-12 </wgt>
<wgt id='1111'> +1.5586846e-12 </wgt>
<wgt id='1112'> +1.4851690e-12 </wgt>
<wgt id='1113'> +1.4689445e-12 </wgt>
<wgt id='1114'> +1.6049808e-12 </wgt>
<wgt id='1115'> +1.5335361e-12 </wgt>
<wgt id='1116'> +1.5512344e-12 </wgt>
<wgt id='1117'> +1.6085805e-12 </wgt>
<wgt id='1118'> +1.5720791e-12 </wgt>
<wgt id='1119'> +1.6169693e-12 </wgt>
<wgt id='1120'> +1.6137415e-12 </wgt>
<wgt id='1121'> +1.5425360e-12 </wgt>
<wgt id='1122'> +1.5080668e-12 </wgt>
<wgt id='1123'> +1.6039564e-12 </wgt>
<wgt id='1124'> +1.5272880e-12 </wgt>
<wgt id='1125'> +1.5706942e-12 </wgt>
<wgt id='1126'> +1.4962256e-12 </wgt>
<wgt id='1127'> +1.5189246e-12 </wgt>
<wgt id='1128'> +1.5694963e-12 </wgt>
<wgt id='1129'> +1.5058547e-12 </wgt>
<wgt id='1130'> +1.5872001e-12 </wgt>
<wgt id='1131'> +1.5804561e-12 </wgt>
<wgt id='1132'> +1.4622804e-12 </wgt>
<wgt id='1133'> +1.5266254e-12 </wgt>
<wgt id='1134'> +1.5365155e-12 </wgt>
<wgt id='1135'> +1.6462713e-12 </wgt>
<wgt id='1136'> +1.5216185e-12 </wgt>
<wgt id='1137'> +1.5278773e-12 </wgt>
<wgt id='1138'> +1.5870613e-12 </wgt>
<wgt id='1139'> +1.5862895e-12 </wgt>
<wgt id='1140'> +1.5683134e-12 </wgt>
<wgt id='1141'> +1.5598921e-12 </wgt>
<wgt id='1142'> +1.5265466e-12 </wgt>
<wgt id='1143'> +1.5165864e-12 </wgt>
<wgt id='1144'> +1.6093920e-12 </wgt>
<wgt id='1145'> +1.6122452e-12 </wgt>
<wgt id='1146'> +1.6594208e-12 </wgt>
<wgt id='1147'> +1.2454637e-12 </wgt>
<wgt id='1148'> +1.2847647e-12 </wgt>
<wgt id='1149'> +1.2285329e-12 </wgt>
<wgt id='1150'> +1.2605148e-12 </wgt>
<wgt id='1151'> +1.0295738e-12 </wgt>
<wgt id='1152'> +1.4539423e-12 </wgt>
<wgt id='1153'> +1.4470855e-12 </wgt>
<wgt id='1154'> +1.4578822e-12 </wgt>
<wgt id='1155'> +1.4546197e-12 </wgt>
<wgt id='1156'> +1.4536048e-12 </wgt>
<wgt id='1157'> +1.4508328e-12 </wgt>
<wgt id='1158'> +1.4580186e-12 </wgt>
<wgt id='1159'> +1.4513700e-12 </wgt>
<wgt id='1160'> +1.4555053e-12 </wgt>
<wgt id='1161'> +1.4456815e-12 </wgt>
<wgt id='1162'> +1.4595663e-12 </wgt>
<wgt id='1163'> +1.4578130e-12 </wgt>
<wgt id='1164'> +1.4500566e-12 </wgt>
<wgt id='1165'> +1.4378359e-12 </wgt>
<wgt id='1166'> +1.4696105e-12 </wgt>
<wgt id='1167'> +1.4710816e-12 </wgt>
<wgt id='1168'> +1.4312240e-12 </wgt>
<wgt id='1169'> +1.4599701e-12 </wgt>
<wgt id='1170'> +1.4493539e-12 </wgt>
<wgt id='1171'> +1.4503515e-12 </wgt>
<wgt id='1172'> +1.4583148e-12 </wgt>
<wgt id='1173'> +1.4405405e-12 </wgt>
<wgt id='1174'> +1.4670621e-12 </wgt>
<wgt id='1175'> +1.4576830e-12 </wgt>
<wgt id='1176'> +1.4498222e-12 </wgt>
<wgt id='1177'> +1.4545630e-12 </wgt>
<wgt id='1178'> +1.4524207e-12 </wgt>
<wgt id='1179'> +1.4634375e-12 </wgt>
<wgt id='1180'> +1.4383204e-12 </wgt>
<wgt id='1181'> +1.4494052e-12 </wgt>
<wgt id='1182'> +1.4581305e-12 </wgt>
<wgt id='1183'> +1.4531307e-12 </wgt>
<wgt id='1184'> +1.4540093e-12 </wgt>
<wgt id='1185'> +1.4527995e-12 </wgt>
<wgt id='1186'> +1.4544935e-12 </wgt>
<wgt id='1187'> +1.4532564e-12 </wgt>
<wgt id='1188'> +1.4542133e-12 </wgt>
<wgt id='1189'> +1.4465606e-12 </wgt>
<wgt id='1190'> +1.4431876e-12 </wgt>
<wgt id='1191'> +1.4464062e-12 </wgt>
<wgt id='1192'> +1.4568746e-12 </wgt>
<wgt id='1193'> +1.2802672e-12 </wgt>
<wgt id='1194'> +1.2792040e-12 </wgt>
<wgt id='1195'> +1.2810980e-12 </wgt>
<wgt id='1196'> +1.2828813e-12 </wgt>
<wgt id='1197'> +1.2774196e-12 </wgt>
<wgt id='1198'> +1.2830721e-12 </wgt>
<wgt id='1199'> +1.2761274e-12 </wgt>
<wgt id='1200'> +1.2819546e-12 </wgt>
<wgt id='1201'> +1.2791654e-12 </wgt>
<wgt id='1202'> +1.2764808e-12 </wgt>
<wgt id='1203'> +1.2857498e-12 </wgt>
<wgt id='1204'> +1.2579673e-12 </wgt>
<wgt id='1205'> +1.2941161e-12 </wgt>
<wgt id='1206'> +1.2868347e-12 </wgt>
<wgt id='1207'> +1.2713334e-12 </wgt>
<wgt id='1208'> +1.2714105e-12 </wgt>
<wgt id='1209'> +1.2835329e-12 </wgt>
<wgt id='1210'> +1.2840358e-12 </wgt>
<wgt id='1211'> +1.2662735e-12 </wgt>
<wgt id='1212'> +1.2778765e-12 </wgt>
<wgt id='1213'> +1.2824805e-12 </wgt>
<wgt id='1214'> +1.2654221e-12 </wgt>
<wgt id='1215'> +1.3039929e-12 </wgt>
<wgt id='1216'> +1.2910050e-12 </wgt>
<wgt id='1217'> +1.2731840e-12 </wgt>
<wgt id='1218'> +1.2893302e-12 </wgt>
<wgt id='1219'> +1.2757068e-12 </wgt>
<wgt id='1220'> +1.2859132e-12 </wgt>
<wgt id='1221'> +1.2789559e-12 </wgt>
<wgt id='1222'> +1.2798508e-12 </wgt>
<wgt id='1223'> +1.2841443e-12 </wgt>
<wgt id='1224'> +1.2821210e-12 </wgt>
<wgt id='1225'> +1.2795629e-12 </wgt>
<wgt id='1226'> +1.2808725e-12 </wgt>
<wgt id='1227'> +1.2800548e-12 </wgt>
<wgt id='1228'> +1.2745770e-12 </wgt>
<wgt id='1229'> +1.2830728e-12 </wgt>
<wgt id='1230'> +1.2735842e-12 </wgt>
<wgt id='1231'> +1.2730903e-12 </wgt>
<wgt id='1232'> +1.2760764e-12 </wgt>
<wgt id='1233'> +1.2815073e-12 </wgt>
<wgt id='1234'> +1.2802672e-12 </wgt>
<wgt id='1235'> +1.2675921e-12 </wgt>
<wgt id='1236'> +1.2722860e-12 </wgt>
<wgt id='1237'> +1.2765237e-12 </wgt>
<wgt id='1238'> +1.2837693e-12 </wgt>
<wgt id='1239'> +1.2867660e-12 </wgt>
<wgt id='1240'> +1.2896123e-12 </wgt>
<wgt id='1241'> +1.2073442e-12 </wgt>
<wgt id='1242'> +1.2009352e-12 </wgt>
<wgt id='1243'> +1.2138160e-12 </wgt>
<wgt id='1244'> +1.2010251e-12 </wgt>
<wgt id='1245'> +1.2120372e-12 </wgt>
<wgt id='1246'> +1.2089764e-12 </wgt>
<wgt id='1247'> +1.2060585e-12 </wgt>
<wgt id='1248'> +1.2072552e-12 </wgt>
<wgt id='1249'> +1.2075160e-12 </wgt>
<wgt id='1250'> +1.2032832e-12 </wgt>
<wgt id='1251'> +1.2103324e-12 </wgt>
<wgt id='1252'> +1.2039091e-12 </wgt>
<wgt id='1253'> +1.2101171e-12 </wgt>
<wgt id='1254'> +1.1863761e-12 </wgt>
<wgt id='1255'> +1.2200959e-12 </wgt>
<wgt id='1256'> +1.2131414e-12 </wgt>
<wgt id='1257'> +1.1928750e-12 </wgt>
<wgt id='1258'> +1.2260245e-12 </wgt>
<wgt id='1259'> +1.1887298e-12 </wgt>
<wgt id='1260'> +1.2129970e-12 </wgt>
<wgt id='1261'> +1.2009960e-12 </wgt>
<wgt id='1262'> +1.2114930e-12 </wgt>
<wgt id='1263'> +1.2054465e-12 </wgt>
<wgt id='1264'> +1.2196384e-12 </wgt>
<wgt id='1265'> +1.2014568e-12 </wgt>
<wgt id='1266'> +1.2002210e-12 </wgt>
<wgt id='1267'> +1.2152816e-12 </wgt>
<wgt id='1268'> +1.2083779e-12 </wgt>
<wgt id='1269'> +1.2106697e-12 </wgt>
<wgt id='1270'> +1.1964845e-12 </wgt>
<wgt id='1271'> +1.1989360e-12 </wgt>
<wgt id='1272'> +1.2078501e-12 </wgt>
<wgt id='1273'> +1.2063822e-12 </wgt>
<wgt id='1274'> +1.2080086e-12 </wgt>
<wgt id='1275'> +1.2048130e-12 </wgt>
<wgt id='1276'> +1.2096176e-12 </wgt>
<wgt id='1277'> +1.2042652e-12 </wgt>
<wgt id='1278'> +1.2063888e-12 </wgt>
<wgt id='1279'> +1.2046049e-12 </wgt>
<wgt id='1280'> +1.2086167e-12 </wgt>
<wgt id='1281'> +1.2016554e-12 </wgt>
<wgt id='1282'> +1.2073442e-12 </wgt>
<wgt id='1283'> +1.1953382e-12 </wgt>
<wgt id='1284'> +1.1999254e-12 </wgt>
<wgt id='1285'> +1.2040641e-12 </wgt>
<wgt id='1286'> +1.2109130e-12 </wgt>
<wgt id='1287'> +1.2136992e-12 </wgt>
<wgt id='1288'> +1.2160884e-12 </wgt>
<wgt id='1289'> +1.3206788e-12 </wgt>
<wgt id='1290'> +1.3221319e-12 </wgt>
<wgt id='1291'> +1.3190660e-12 </wgt>
<wgt id='1292'> +1.3213190e-12 </wgt>
<wgt id='1293'> +1.3202073e-12 </wgt>
<wgt id='1294'> +1.3211338e-12 </wgt>
<wgt id='1295'> +1.3202333e-12 </wgt>
<wgt id='1296'> +1.3150957e-12 </wgt>
<wgt id='1297'> +1.3275707e-12 </wgt>
<wgt id='1298'> +1.3293447e-12 </wgt>
<wgt id='1299'> +1.3098933e-12 </wgt>
<wgt id='1300'> +1.3251642e-12 </wgt>
<wgt id='1301'> +1.3117596e-12 </wgt>
<wgt id='1302'> +1.3192608e-12 </wgt>
<wgt id='1303'> +1.3226002e-12 </wgt>
<wgt id='1304'> +1.3152850e-12 </wgt>
<wgt id='1305'> +1.3243422e-12 </wgt>
<wgt id='1306'> +1.3107179e-12 </wgt>
<wgt id='1307'> +1.3320401e-12 </wgt>
<wgt id='1308'> +1.3204833e-12 </wgt>
<wgt id='1309'> +1.3208392e-12 </wgt>
<wgt id='1310'> +1.3169371e-12 </wgt>
<wgt id='1311'> +1.3247728e-12 </wgt>
<wgt id='1312'> +1.3122609e-12 </wgt>
<wgt id='1313'> +1.3294292e-12 </wgt>
<wgt id='1314'> +1.3324840e-12 </wgt>
<wgt id='1315'> +1.3013811e-12 </wgt>
<wgt id='1316'> +1.3271098e-12 </wgt>
<wgt id='1317'> +1.3211929e-12 </wgt>
<wgt id='1318'> +1.3370902e-12 </wgt>
<wgt id='1319'> +1.3017505e-12 </wgt>
<wgt id='1320'> +1.3318471e-12 </wgt>
<wgt id='1321'> +1.3110340e-12 </wgt>
<wgt id='1322'> +1.3221462e-12 </wgt>
<wgt id='1323'> +1.3186245e-12 </wgt>
<wgt id='1324'> +1.3187904e-12 </wgt>
<wgt id='1325'> +1.3293147e-12 </wgt>
<wgt id='1326'> +1.3243523e-12 </wgt>
<wgt id='1327'> +1.3199421e-12 </wgt>
<wgt id='1328'> +1.3200627e-12 </wgt>
<wgt id='1329'> +1.3211854e-12 </wgt>
<wgt id='1330'> +1.3198530e-12 </wgt>
<wgt id='1331'> +1.3221725e-12 </wgt>
<wgt id='1332'> +1.3487973e-12 </wgt>
<wgt id='1333'> +1.3090462e-12 </wgt>
<wgt id='1334'> +1.3186368e-12 </wgt>
<wgt id='1335'> +1.3263864e-12 </wgt>
<wgt id='1336'> +1.3101737e-12 </wgt>
<wgt id='1337'> +1.3256420e-12 </wgt>
<wgt id='1338'> +1.3175027e-12 </wgt>
<wgt id='1339'> +1.3220251e-12 </wgt>
<wgt id='1340'> +1.2926383e-12 </wgt>
<wgt id='1341'> +1.2942043e-12 </wgt>
<wgt id='1342'> +1.2909868e-12 </wgt>
<wgt id='1343'> +1.2933118e-12 </wgt>
<wgt id='1344'> +1.2921488e-12 </wgt>
<wgt id='1345'> +1.2930225e-12 </wgt>
<wgt id='1346'> +1.2923356e-12 </wgt>
<wgt id='1347'> +1.2870649e-12 </wgt>
<wgt id='1348'> +1.2988789e-12 </wgt>
<wgt id='1349'> +1.3007155e-12 </wgt>
<wgt id='1350'> +1.2848136e-12 </wgt>
<wgt id='1351'> +1.2971164e-12 </wgt>
<wgt id='1352'> +1.2829528e-12 </wgt>
<wgt id='1353'> +1.2903701e-12 </wgt>
<wgt id='1354'> +1.2967848e-12 </wgt>
<wgt id='1355'> +1.2872956e-12 </wgt>
<wgt id='1356'> +1.2957131e-12 </wgt>
<wgt id='1357'> +1.2820314e-12 </wgt>
<wgt id='1358'> +1.3051981e-12 </wgt>
<wgt id='1359'> +1.2948577e-12 </wgt>
<wgt id='1360'> +1.2907826e-12 </wgt>
<wgt id='1361'> +1.2889228e-12 </wgt>
<wgt id='1362'> +1.2978154e-12 </wgt>
<wgt id='1363'> +1.2804863e-12 </wgt>
<wgt id='1364'> +1.3014053e-12 </wgt>
<wgt id='1365'> +1.2753348e-12 </wgt>
<wgt id='1366'> +1.3043553e-12 </wgt>
<wgt id='1367'> +1.2983240e-12 </wgt>
<wgt id='1368'> +1.2929379e-12 </wgt>
<wgt id='1369'> +1.3063110e-12 </wgt>
<wgt id='1370'> +1.2766212e-12 </wgt>
<wgt id='1371'> +1.3016034e-12 </wgt>
<wgt id='1372'> +1.2817816e-12 </wgt>
<wgt id='1373'> +1.2933150e-12 </wgt>
<wgt id='1374'> +1.2915945e-12 </wgt>
<wgt id='1375'> +1.2907104e-12 </wgt>
<wgt id='1376'> +1.3017612e-12 </wgt>
<wgt id='1377'> +1.2960353e-12 </wgt>
<wgt id='1378'> +1.2926797e-12 </wgt>
<wgt id='1379'> +1.2918322e-12 </wgt>
<wgt id='1380'> +1.2934122e-12 </wgt>
<wgt id='1381'> +1.2931416e-12 </wgt>
<wgt id='1382'> +1.2924744e-12 </wgt>
<wgt id='1383'> +1.3186074e-12 </wgt>
<wgt id='1384'> +1.2819805e-12 </wgt>
<wgt id='1385'> +1.2910346e-12 </wgt>
<wgt id='1386'> +1.2968360e-12 </wgt>
<wgt id='1387'> +1.2796890e-12 </wgt>
<wgt id='1388'> +1.2983838e-12 </wgt>
<wgt id='1389'> +1.2864603e-12 </wgt>
<wgt id='1390'> +1.2950226e-12 </wgt>
<wgt id='1391'> +1.2746353e-12 </wgt>
<wgt id='1392'> +1.2350651e-12 </wgt>
<wgt id='1393'> +1.2486359e-12 </wgt>
<wgt id='1394'> +1.2617620e-12 </wgt>
<wgt id='1395'> +1.2872113e-12 </wgt>
<wgt id='1396'> +1.2745375e-12 </wgt>
<wgt id='1397'> +1.3188944e-12 </wgt>
<wgt id='1398'> +1.3086569e-12 </wgt>
<wgt id='1399'> +1.2993537e-12 </wgt>
<wgt id='1400'> +1.2907540e-12 </wgt>
<wgt id='1401'> +1.2824827e-12 </wgt>
<wgt id='1402'> +1.2671858e-12 </wgt>
<wgt id='1403'> +1.2605727e-12 </wgt>
<wgt id='1404'> +1.2543927e-12 </wgt>
<wgt id='1405'> +1.2745375e-12 </wgt>
<wgt id='1406'> +1.2656401e-12 </wgt>
<wgt id='1407'> +1.2702204e-12 </wgt>
<wgt id='1408'> +1.2784101e-12 </wgt>
<wgt id='1409'> +1.2816340e-12 </wgt>
<wgt id='1410'> +1.1891276e-12 </wgt>
<wgt id='1411'> +1.1901090e-12 </wgt>
<wgt id='1412'> +1.1877019e-12 </wgt>
<wgt id='1413'> +1.1928625e-12 </wgt>
<wgt id='1414'> +1.1853237e-12 </wgt>
<wgt id='1415'> +1.1913019e-12 </wgt>
<wgt id='1416'> +1.1882381e-12 </wgt>
<wgt id='1417'> +1.1815240e-12 </wgt>
<wgt id='1418'> +1.1966481e-12 </wgt>
<wgt id='1419'> +1.1930006e-12 </wgt>
<wgt id='1420'> +1.1853560e-12 </wgt>
<wgt id='1421'> +1.1686769e-12 </wgt>
<wgt id='1422'> +1.1979743e-12 </wgt>
<wgt id='1423'> +1.1890950e-12 </wgt>
<wgt id='1424'> +1.1890806e-12 </wgt>
<wgt id='1425'> +1.1828425e-12 </wgt>
<wgt id='1426'> +1.1958317e-12 </wgt>
<wgt id='1427'> +1.1771108e-12 </wgt>
<wgt id='1428'> +1.1955677e-12 </wgt>
<wgt id='1429'> +1.1858966e-12 </wgt>
<wgt id='1430'> +1.1934823e-12 </wgt>
<wgt id='1431'> +1.1909018e-12 </wgt>
<wgt id='1432'> +1.1877549e-12 </wgt>
<wgt id='1433'> +1.1994446e-12 </wgt>
<wgt id='1434'> +1.1779988e-12 </wgt>
<wgt id='1435'> +1.1945949e-12 </wgt>
<wgt id='1436'> +1.1758027e-12 </wgt>
<wgt id='1437'> +1.1970831e-12 </wgt>
<wgt id='1438'> +1.1871708e-12 </wgt>
<wgt id='1439'> +1.1802354e-12 </wgt>
<wgt id='1440'> +1.2107462e-12 </wgt>
<wgt id='1441'> +1.1916022e-12 </wgt>
<wgt id='1442'> +1.1844583e-12 </wgt>
<wgt id='1443'> +1.1862817e-12 </wgt>
<wgt id='1444'> +1.1960355e-12 </wgt>
<wgt id='1445'> +1.1970905e-12 </wgt>
<wgt id='1446'> +1.1868903e-12 </wgt>
<wgt id='1447'> +1.1899781e-12 </wgt>
<wgt id='1448'> +1.1903087e-12 </wgt>
<wgt id='1449'> +1.1888653e-12 </wgt>
<wgt id='1450'> +1.1890428e-12 </wgt>
<wgt id='1451'> +1.1870784e-12 </wgt>
<wgt id='1452'> +1.1901870e-12 </wgt>
<wgt id='1453'> +1.1901812e-12 </wgt>
<wgt id='1454'> +1.1829170e-12 </wgt>
<wgt id='1455'> +1.1857600e-12 </wgt>
<wgt id='1456'> +1.1872909e-12 </wgt>
<wgt id='1457'> +1.1871163e-12 </wgt>
<wgt id='1458'> +1.1896311e-12 </wgt>
<wgt id='1459'> +1.1953479e-12 </wgt>
<wgt id='1460'> +1.1824590e-12 </wgt>
<wgt id='1461'> +1.1891276e-12 </wgt>
<wgt id='1462'> +1.1833633e-12 </wgt>
<wgt id='1463'> +1.1965461e-12 </wgt>
<wgt id='1464'> +1.1911199e-12 </wgt>
<wgt id='1465'> +1.2319993e-12 </wgt>
<wgt id='1466'> +1.2221759e-12 </wgt>
<wgt id='1467'> +1.2134388e-12 </wgt>
<wgt id='1468'> +1.2066288e-12 </wgt>
<wgt id='1469'> +1.1979654e-12 </wgt>
<wgt id='1470'> +1.1855489e-12 </wgt>
<wgt id='1471'> +1.1784758e-12 </wgt>
<wgt id='1472'> +1.1724085e-12 </wgt>
<wgt id='1473'> +1.1911199e-12 </wgt>
<wgt id='1474'> +1.1827977e-12 </wgt>
<wgt id='1475'> +1.1874547e-12 </wgt>
<wgt id='1476'> +1.1945057e-12 </wgt>
<wgt id='1477'> +1.1974027e-12 </wgt>
<wgt id='1478'> +1.2511683e-12 </wgt>
<wgt id='1479'> +1.2505016e-12 </wgt>
<wgt id='1480'> +1.2426844e-12 </wgt>
<wgt id='1481'> +1.2368041e-12 </wgt>
<wgt id='1482'> +1.2550697e-12 </wgt>
<wgt id='1483'> +1.2429533e-12 </wgt>
<wgt id='1484'> +1.2513681e-12 </wgt>
<wgt id='1485'> +1.2628501e-12 </wgt>
<wgt id='1486'> +1.2513426e-12 </wgt>
<wgt id='1487'> +1.2528517e-12 </wgt>
<wgt id='1488'> +1.2468782e-12 </wgt>
<wgt id='1489'> +1.2818054e-12 </wgt>
<wgt id='1490'> +1.2518915e-12 </wgt>
<wgt id='1491'> +1.2551308e-12 </wgt>
<wgt id='1492'> +1.2497278e-12 </wgt>
<wgt id='1493'> +1.2295354e-12 </wgt>
<wgt id='1494'> +1.2530588e-12 </wgt>
<wgt id='1495'> +1.2576558e-12 </wgt>
<wgt id='1496'> +1.2506962e-12 </wgt>
<wgt id='1497'> +1.2543468e-12 </wgt>
<wgt id='1498'> +1.2501226e-12 </wgt>
<wgt id='1499'> +1.2546644e-12 </wgt>
<wgt id='1500'> +1.2509441e-12 </wgt>
<wgt id='1501'> +1.2502335e-12 </wgt>
<wgt id='1502'> +1.2512920e-12 </wgt>
<wgt id='1503'> +1.2519846e-12 </wgt>
<wgt id='1504'> +1.2519314e-12 </wgt>
<wgt id='1505'> +1.2521185e-12 </wgt>
<wgt id='1506'> +1.2527995e-12 </wgt>
<wgt id='1507'> +1.2505810e-12 </wgt>
<wgt id='1508'> +1.2572935e-12 </wgt>
<wgt id='1509'> +1.2127702e-12 </wgt>
<wgt id='1510'> +1.2098228e-12 </wgt>
<wgt id='1511'> +1.2179939e-12 </wgt>
<wgt id='1512'> +1.2178716e-12 </wgt>
<wgt id='1513'> +1.2127277e-12 </wgt>
<wgt id='1514'> +1.2109801e-12 </wgt>
<wgt id='1515'> +1.2123676e-12 </wgt>
<wgt id='1516'> +1.2135160e-12 </wgt>
<wgt id='1517'> +1.2203612e-12 </wgt>
<wgt id='1518'> +1.2102408e-12 </wgt>
<wgt id='1519'> +1.2082766e-12 </wgt>
<wgt id='1520'> +1.2276653e-12 </wgt>
<wgt id='1521'> +1.2219032e-12 </wgt>
<wgt id='1522'> +1.2280945e-12 </wgt>
<wgt id='1523'> +1.2153860e-12 </wgt>
<wgt id='1524'> +1.2137846e-12 </wgt>
<wgt id='1525'> +1.2085188e-12 </wgt>
<wgt id='1526'> +1.2157171e-12 </wgt>
<wgt id='1527'> +1.2161103e-12 </wgt>
<wgt id='1528'> +1.2095790e-12 </wgt>
<wgt id='1529'> +1.2118176e-12 </wgt>
<wgt id='1530'> +1.2070954e-12 </wgt>
<wgt id='1531'> +1.2115393e-12 </wgt>
<wgt id='1532'> +1.2121007e-12 </wgt>
<wgt id='1533'> +1.2100867e-12 </wgt>
<wgt id='1534'> +1.2083599e-12 </wgt>
<wgt id='1535'> +1.2215098e-12 </wgt>
<wgt id='1536'> +1.2166259e-12 </wgt>
<wgt id='1537'> +1.2115292e-12 </wgt>
<wgt id='1538'> +1.2129909e-12 </wgt>
<wgt id='1539'> +1.2102811e-12 </wgt>
<wgt id='1540'> +1.2109374e-12 </wgt>
<wgt id='1541'> +1.2118647e-12 </wgt>
<wgt id='1542'> +1.2105226e-12 </wgt>
<wgt id='1543'> +1.2141340e-12 </wgt>
<wgt id='1544'> +1.2152126e-12 </wgt>
<wgt id='1545'> +1.2110779e-12 </wgt>
<wgt id='1546'> +1.2127262e-12 </wgt>
<wgt id='1547'> +1.2112945e-12 </wgt>
<wgt id='1548'> +1.2160813e-12 </wgt>
<wgt id='1549'> +1.2145038e-12 </wgt>
<wgt id='1550'> +1.2103934e-12 </wgt>
<wgt id='1551'> +1.2148866e-12 </wgt>
<wgt id='1552'> +1.2129257e-12 </wgt>
<wgt id='1553'> +1.2092334e-12 </wgt>
<wgt id='1554'> +1.2092866e-12 </wgt>
<wgt id='1555'> +1.2107932e-12 </wgt>
<wgt id='1556'> +1.2140468e-12 </wgt>
<wgt id='1557'> +1.2127273e-12 </wgt>
<wgt id='1558'> +1.2144044e-12 </wgt>
<wgt id='1559'> +1.2121301e-12 </wgt>
<wgt id='1560'> +1.2116867e-12 </wgt>
<wgt id='1561'> +1.2140089e-12 </wgt>
<wgt id='1562'> +1.2129382e-12 </wgt>
<wgt id='1563'> +1.2138589e-12 </wgt>
<wgt id='1564'> +1.2142157e-12 </wgt>
<wgt id='1565'> +1.2127333e-12 </wgt>
<wgt id='1566'> +1.2120278e-12 </wgt>
<wgt id='1567'> +1.2128610e-12 </wgt>
<wgt id='1568'> +1.2123577e-12 </wgt>
<wgt id='1569'> +1.2123077e-12 </wgt>
<wgt id='1570'> +1.2139866e-12 </wgt>
<wgt id='1571'> +1.2123388e-12 </wgt>
<wgt id='1572'> +1.2129676e-12 </wgt>
<wgt id='1573'> +1.2126311e-12 </wgt>
<wgt id='1574'> +1.2129810e-12 </wgt>
<wgt id='1575'> +1.2124820e-12 </wgt>
<wgt id='1576'> +1.2131167e-12 </wgt>
<wgt id='1577'> +1.2136695e-12 </wgt>
<wgt id='1578'> +1.2121406e-12 </wgt>
<wgt id='1579'> +1.2128245e-12 </wgt>
<wgt id='1580'> +1.2135015e-12 </wgt>
<wgt id='1581'> +1.2133825e-12 </wgt>
<wgt id='1582'> +1.2135214e-12 </wgt>
<wgt id='1583'> +1.2133035e-12 </wgt>
<wgt id='1584'> +1.2130178e-12 </wgt>
<wgt id='1585'> +1.2124895e-12 </wgt>
<wgt id='1586'> +1.2138373e-12 </wgt>
<wgt id='1587'> +1.2137277e-12 </wgt>
<wgt id='1588'> +1.2116194e-12 </wgt>
<wgt id='1589'> +1.2129254e-12 </wgt>
<wgt id='1590'> +1.2127200e-12 </wgt>
<wgt id='1591'> +1.2122263e-12 </wgt>
<wgt id='1592'> +1.2128582e-12 </wgt>
<wgt id='1593'> +1.2135780e-12 </wgt>
<wgt id='1594'> +1.2125176e-12 </wgt>
<wgt id='1595'> +1.2130258e-12 </wgt>
<wgt id='1596'> +1.2123038e-12 </wgt>
<wgt id='1597'> +1.2125049e-12 </wgt>
<wgt id='1598'> +1.2129865e-12 </wgt>
<wgt id='1599'> +1.2124327e-12 </wgt>
<wgt id='1600'> +1.2125673e-12 </wgt>
<wgt id='1601'> +1.2128887e-12 </wgt>
<wgt id='1602'> +1.2131255e-12 </wgt>
<wgt id='1603'> +1.2131587e-12 </wgt>
<wgt id='1604'> +1.2129067e-12 </wgt>
<wgt id='1605'> +1.2132512e-12 </wgt>
<wgt id='1606'> +1.2112503e-12 </wgt>
<wgt id='1607'> +1.2133207e-12 </wgt>
<wgt id='1608'> +1.2127152e-12 </wgt>
<wgt id='1609'> +1.2123769e-12 </wgt>
<wgt id='1610'> +1.1870881e-12 </wgt>
<wgt id='1611'> +1.2370979e-12 </wgt>
<wgt id='1612'> +1.4453223e-12 </wgt>
<wgt id='1613'> +1.5110869e-12 </wgt>
<wgt id='1614'> +1.4622286e-12 </wgt>
<wgt id='1615'> +1.4376677e-12 </wgt>
<wgt id='1616'> +1.4552141e-12 </wgt>
<wgt id='1617'> +1.3629069e-12 </wgt>
<wgt id='1618'> +1.3222423e-12 </wgt>
<wgt id='1619'> +1.4522599e-12 </wgt>
<wgt id='1620'> +1.4687586e-12 </wgt>
<wgt id='1621'> +1.4346414e-12 </wgt>
<wgt id='1622'> +1.4372327e-12 </wgt>
<wgt id='1623'> +1.4051307e-12 </wgt>
<wgt id='1624'> +1.4112228e-12 </wgt>
<wgt id='1625'> +1.4643891e-12 </wgt>
<wgt id='1626'> +1.4822346e-12 </wgt>
<wgt id='1627'> +1.4244246e-12 </wgt>
<wgt id='1628'> +1.4566276e-12 </wgt>
<wgt id='1629'> +1.4964225e-12 </wgt>
<wgt id='1630'> +1.4483932e-12 </wgt>
<wgt id='1631'> +1.4436285e-12 </wgt>
<wgt id='1632'> +1.5377077e-12 </wgt>
<wgt id='1633'> +1.4364516e-12 </wgt>
<wgt id='1634'> +1.4617055e-12 </wgt>
<wgt id='1635'> +1.4280976e-12 </wgt>
<wgt id='1636'> +1.3994967e-12 </wgt>
<wgt id='1637'> +1.4011894e-12 </wgt>
<wgt id='1638'> +1.4651377e-12 </wgt>
<wgt id='1639'> +1.4687102e-12 </wgt>
<wgt id='1640'> +1.5094527e-12 </wgt>
<wgt id='1641'> +1.4228495e-12 </wgt>
<wgt id='1642'> +1.4827768e-12 </wgt>
<wgt id='1643'> +1.5127303e-12 </wgt>
<wgt id='1644'> +1.4041569e-12 </wgt>
<wgt id='1645'> +1.4792867e-12 </wgt>
<wgt id='1646'> +1.4913261e-12 </wgt>
<wgt id='1647'> +1.5007509e-12 </wgt>
<wgt id='1648'> +1.4356728e-12 </wgt>
<wgt id='1649'> +1.3390941e-12 </wgt>
<wgt id='1650'> +1.4790282e-12 </wgt>
<wgt id='1651'> +1.3917739e-12 </wgt>
<wgt id='1652'> +1.5029091e-12 </wgt>
<wgt id='1653'> +1.3952768e-12 </wgt>
<wgt id='1654'> +1.3805113e-12 </wgt>
<wgt id='1655'> +1.3866473e-12 </wgt>
<wgt id='1656'> +1.4701076e-12 </wgt>
<wgt id='1657'> +1.4158355e-12 </wgt>
<wgt id='1658'> +1.4479060e-12 </wgt>
<wgt id='1659'> +1.4112228e-12 </wgt>
<wgt id='1660'> +1.3955403e-12 </wgt>
<wgt id='1661'> +1.4051644e-12 </wgt>
<wgt id='1662'> +1.4562263e-12 </wgt>
<wgt id='1663'> +1.4453551e-12 </wgt>
<wgt id='1664'> +1.5326921e-12 </wgt>
<wgt id='1665'> +1.4858544e-12 </wgt>
<wgt id='1666'> +1.4210687e-12 </wgt>
<wgt id='1667'> +1.4199809e-12 </wgt>
<wgt id='1668'> +1.4210928e-12 </wgt>
<wgt id='1669'> +1.4358406e-12 </wgt>
<wgt id='1670'> +1.4693259e-12 </wgt>
<wgt id='1671'> +1.5108225e-12 </wgt>
<wgt id='1672'> +1.4597291e-12 </wgt>
<wgt id='1673'> +1.3866154e-12 </wgt>
<wgt id='1674'> +1.4660203e-12 </wgt>
<wgt id='1675'> +1.5620658e-12 </wgt>
<wgt id='1676'> +1.4369480e-12 </wgt>
<wgt id='1677'> +1.4766521e-12 </wgt>
<wgt id='1678'> +1.4312151e-12 </wgt>
<wgt id='1679'> +1.4686075e-12 </wgt>
<wgt id='1680'> +1.4515916e-12 </wgt>
<wgt id='1681'> +1.4825941e-12 </wgt>
<wgt id='1682'> +1.4418080e-12 </wgt>
<wgt id='1683'> +1.4271712e-12 </wgt>
<wgt id='1684'> +1.4447416e-12 </wgt>
<wgt id='1685'> +1.4510666e-12 </wgt>
<wgt id='1686'> +1.4765338e-12 </wgt>
<wgt id='1687'> +1.4957388e-12 </wgt>
<wgt id='1688'> +1.4770453e-12 </wgt>
<wgt id='1689'> +1.4105466e-12 </wgt>
<wgt id='1690'> +1.4390876e-12 </wgt>
<wgt id='1691'> +1.4711853e-12 </wgt>
<wgt id='1692'> +1.4670331e-12 </wgt>
<wgt id='1693'> +1.4903815e-12 </wgt>
<wgt id='1694'> +1.3685713e-12 </wgt>
<wgt id='1695'> +1.4546862e-12 </wgt>
<wgt id='1696'> +1.4982335e-12 </wgt>
<wgt id='1697'> +1.3874208e-12 </wgt>
<wgt id='1698'> +1.4263995e-12 </wgt>
<wgt id='1699'> +1.4090088e-12 </wgt>
<wgt id='1700'> +1.4440995e-12 </wgt>
<wgt id='1701'> +1.4369509e-12 </wgt>
<wgt id='1702'> +1.3848791e-12 </wgt>
<wgt id='1703'> +1.4756949e-12 </wgt>
<wgt id='1704'> +1.4395683e-12 </wgt>
<wgt id='1705'> +1.4820478e-12 </wgt>
<wgt id='1706'> +1.4165168e-12 </wgt>
<wgt id='1707'> +1.4017841e-12 </wgt>
<wgt id='1708'> +1.4200859e-12 </wgt>
<wgt id='1709'> +1.4473580e-12 </wgt>
<wgt id='1710'> +1.4259909e-12 </wgt>
<wgt id='1711'> +1.4324012e-12 </wgt>
<wgt id='1712'> +1.4520055e-12 </wgt>
<wgt id='1713'> +1.2558495e-12 </wgt>
<wgt id='1714'> +1.2028033e-12 </wgt>
<wgt id='1715'> +1.2795142e-12 </wgt>
<wgt id='1716'> +1.2457687e-12 </wgt>
<wgt id='1717'> +1.2276958e-12 </wgt>
<wgt id='1718'> +1.2395377e-12 </wgt>
<wgt id='1719'> +1.2509894e-12 </wgt>
<wgt id='1720'> +1.2886351e-12 </wgt>
<wgt id='1721'> +1.2427683e-12 </wgt>
<wgt id='1722'> +1.2405107e-12 </wgt>
<wgt id='1723'> +1.2313689e-12 </wgt>
<wgt id='1724'> +1.2961811e-12 </wgt>
<wgt id='1725'> +1.2766411e-12 </wgt>
<wgt id='1726'> +1.2784499e-12 </wgt>
<wgt id='1727'> +1.2261435e-12 </wgt>
<wgt id='1728'> +1.2669853e-12 </wgt>
<wgt id='1729'> +1.2747286e-12 </wgt>
<wgt id='1730'> +1.2221031e-12 </wgt>
<wgt id='1731'> +1.2195268e-12 </wgt>
<wgt id='1732'> +1.2530813e-12 </wgt>
<wgt id='1733'> +1.2533347e-12 </wgt>
<wgt id='1734'> +1.2629872e-12 </wgt>
<wgt id='1735'> +1.2693286e-12 </wgt>
<wgt id='1736'> +1.3696930e-12 </wgt>
<wgt id='1737'> +1.2472596e-12 </wgt>
<wgt id='1738'> +1.2806563e-12 </wgt>
<wgt id='1739'> +1.2088049e-12 </wgt>
<wgt id='1740'> +1.2202346e-12 </wgt>
<wgt id='1741'> +1.2416169e-12 </wgt>
<wgt id='1742'> +1.2385455e-12 </wgt>
<wgt id='1743'> +1.2821943e-12 </wgt>
<wgt id='1744'> +1.2616272e-12 </wgt>
<wgt id='1745'> +1.2104431e-12 </wgt>
<wgt id='1746'> +1.2898269e-12 </wgt>
<wgt id='1747'> +1.2757149e-12 </wgt>
<wgt id='1748'> +1.2733639e-12 </wgt>
<wgt id='1749'> +1.2716304e-12 </wgt>
<wgt id='1750'> +1.2733666e-12 </wgt>
<wgt id='1751'> +1.2438194e-12 </wgt>
<wgt id='1752'> +1.2054627e-12 </wgt>
<wgt id='1753'> +1.2864026e-12 </wgt>
<wgt id='1754'> +1.2257460e-12 </wgt>
<wgt id='1755'> +1.2865718e-12 </wgt>
<wgt id='1756'> +1.2834706e-12 </wgt>
<wgt id='1757'> +1.2514295e-12 </wgt>
<wgt id='1758'> +1.2896623e-12 </wgt>
<wgt id='1759'> +1.2531902e-12 </wgt>
<wgt id='1760'> +1.2197447e-12 </wgt>
<wgt id='1761'> +1.2129385e-12 </wgt>
<wgt id='1762'> +1.2658466e-12 </wgt>
<wgt id='1763'> +1.2634552e-12 </wgt>
<wgt id='1764'> +1.2581605e-12 </wgt>
<wgt id='1765'> +1.2648440e-12 </wgt>
<wgt id='1766'> +1.2817955e-12 </wgt>
<wgt id='1767'> +1.2523048e-12 </wgt>
<wgt id='1768'> +1.2459163e-12 </wgt>
<wgt id='1769'> +1.2146460e-12 </wgt>
<wgt id='1770'> +1.2895972e-12 </wgt>
<wgt id='1771'> +1.2535034e-12 </wgt>
<wgt id='1772'> +1.2804292e-12 </wgt>
<wgt id='1773'> +1.2400565e-12 </wgt>
<wgt id='1774'> +1.2540035e-12 </wgt>
<wgt id='1775'> +1.2620762e-12 </wgt>
<wgt id='1776'> +1.2693170e-12 </wgt>
<wgt id='1777'> +1.2450886e-12 </wgt>
<wgt id='1778'> +1.2218234e-12 </wgt>
<wgt id='1779'> +1.2816997e-12 </wgt>
<wgt id='1780'> +1.3029681e-12 </wgt>
<wgt id='1781'> +1.2253078e-12 </wgt>
<wgt id='1782'> +1.2201166e-12 </wgt>
<wgt id='1783'> +1.2683450e-12 </wgt>
<wgt id='1784'> +1.2841146e-12 </wgt>
<wgt id='1785'> +1.2341320e-12 </wgt>
<wgt id='1786'> +1.2175259e-12 </wgt>
<wgt id='1787'> +1.2724302e-12 </wgt>
<wgt id='1788'> +1.2330823e-12 </wgt>
<wgt id='1789'> +1.2439284e-12 </wgt>
<wgt id='1790'> +1.2923831e-12 </wgt>
<wgt id='1791'> +1.3108430e-12 </wgt>
<wgt id='1792'> +1.2352692e-12 </wgt>
<wgt id='1793'> +1.2785025e-12 </wgt>
<wgt id='1794'> +1.2585724e-12 </wgt>
<wgt id='1795'> +1.2491489e-12 </wgt>
<wgt id='1796'> +1.2303852e-12 </wgt>
<wgt id='1797'> +1.2533987e-12 </wgt>
<wgt id='1798'> +1.2182295e-12 </wgt>
<wgt id='1799'> +1.2575839e-12 </wgt>
<wgt id='1800'> +1.2548821e-12 </wgt>
<wgt id='1801'> +1.2472869e-12 </wgt>
<wgt id='1802'> +1.2558090e-12 </wgt>
<wgt id='1803'> +1.2674481e-12 </wgt>
<wgt id='1804'> +1.1935024e-12 </wgt>
<wgt id='1805'> +1.2814691e-12 </wgt>
<wgt id='1806'> +1.2288216e-12 </wgt>
<wgt id='1807'> +1.3032846e-12 </wgt>
<wgt id='1808'> +1.2520342e-12 </wgt>
<wgt id='1809'> +1.2481274e-12 </wgt>
<wgt id='1810'> +1.2493524e-12 </wgt>
<wgt id='1811'> +1.3019098e-12 </wgt>
<wgt id='1812'> +1.2692122e-12 </wgt>
<wgt id='1813'> +1.2637005e-12 </wgt>
<wgt id='1814'> +1.1284403e-12 </wgt>
<wgt id='1815'> +1.3133526e-12 </wgt>
<wgt id='1816'> +1.2558495e-12 </wgt>
<wgt id='1817'> +1.2028033e-12 </wgt>
<wgt id='1818'> +1.2795142e-12 </wgt>
<wgt id='1819'> +1.2457687e-12 </wgt>
<wgt id='1820'> +1.2276958e-12 </wgt>
<wgt id='1821'> +1.2395377e-12 </wgt>
<wgt id='1822'> +1.2509894e-12 </wgt>
<wgt id='1823'> +1.2886351e-12 </wgt>
<wgt id='1824'> +1.2427683e-12 </wgt>
<wgt id='1825'> +1.2405107e-12 </wgt>
<wgt id='1826'> +1.2313689e-12 </wgt>
<wgt id='1827'> +1.2961811e-12 </wgt>
<wgt id='1828'> +1.2766411e-12 </wgt>
<wgt id='1829'> +1.2784499e-12 </wgt>
<wgt id='1830'> +1.2261435e-12 </wgt>
<wgt id='1831'> +1.2669853e-12 </wgt>
<wgt id='1832'> +1.2747286e-12 </wgt>
<wgt id='1833'> +1.2221031e-12 </wgt>
<wgt id='1834'> +1.2195268e-12 </wgt>
<wgt id='1835'> +1.2530813e-12 </wgt>
<wgt id='1836'> +1.2533347e-12 </wgt>
<wgt id='1837'> +1.2629872e-12 </wgt>
<wgt id='1838'> +1.2693286e-12 </wgt>
<wgt id='1839'> +1.3696930e-12 </wgt>
<wgt id='1840'> +1.2472596e-12 </wgt>
<wgt id='1841'> +1.2806563e-12 </wgt>
<wgt id='1842'> +1.2088049e-12 </wgt>
<wgt id='1843'> +1.2202346e-12 </wgt>
<wgt id='1844'> +1.2416169e-12 </wgt>
<wgt id='1845'> +1.2385455e-12 </wgt>
<wgt id='1846'> +1.2821943e-12 </wgt>
<wgt id='1847'> +1.2616272e-12 </wgt>
<wgt id='1848'> +1.2104431e-12 </wgt>
<wgt id='1849'> +1.2898269e-12 </wgt>
<wgt id='1850'> +1.2757149e-12 </wgt>
<wgt id='1851'> +1.2733639e-12 </wgt>
<wgt id='1852'> +1.2716304e-12 </wgt>
<wgt id='1853'> +1.2733666e-12 </wgt>
<wgt id='1854'> +1.2438194e-12 </wgt>
<wgt id='1855'> +1.2054627e-12 </wgt>
<wgt id='1856'> +1.2864026e-12 </wgt>
<wgt id='1857'> +1.2257460e-12 </wgt>
<wgt id='1858'> +1.2865718e-12 </wgt>
<wgt id='1859'> +1.2834706e-12 </wgt>
<wgt id='1860'> +1.2514295e-12 </wgt>
<wgt id='1861'> +1.2896623e-12 </wgt>
<wgt id='1862'> +1.2531902e-12 </wgt>
<wgt id='1863'> +1.2197447e-12 </wgt>
<wgt id='1864'> +1.2129385e-12 </wgt>
<wgt id='1865'> +1.2658466e-12 </wgt>
<wgt id='1866'> +1.2634552e-12 </wgt>
<wgt id='1867'> +1.2581605e-12 </wgt>
<wgt id='1868'> +1.2648440e-12 </wgt>
<wgt id='1869'> +1.2817955e-12 </wgt>
<wgt id='1870'> +1.2523048e-12 </wgt>
<wgt id='1871'> +1.2459163e-12 </wgt>
<wgt id='1872'> +1.2146460e-12 </wgt>
<wgt id='1873'> +1.2895972e-12 </wgt>
<wgt id='1874'> +1.2535034e-12 </wgt>
<wgt id='1875'> +1.2804292e-12 </wgt>
<wgt id='1876'> +1.2400565e-12 </wgt>
<wgt id='1877'> +1.2540035e-12 </wgt>
<wgt id='1878'> +1.2620762e-12 </wgt>
<wgt id='1879'> +1.2693170e-12 </wgt>
<wgt id='1880'> +1.2450886e-12 </wgt>
<wgt id='1881'> +1.2218234e-12 </wgt>
<wgt id='1882'> +1.2816997e-12 </wgt>
<wgt id='1883'> +1.3029681e-12 </wgt>
<wgt id='1884'> +1.2253078e-12 </wgt>
<wgt id='1885'> +1.2201166e-12 </wgt>
<wgt id='1886'> +1.2683450e-12 </wgt>
<wgt id='1887'> +1.2841146e-12 </wgt>
<wgt id='1888'> +1.2341320e-12 </wgt>
<wgt id='1889'> +1.2175259e-12 </wgt>
<wgt id='1890'> +1.2724302e-12 </wgt>
<wgt id='1891'> +1.2330823e-12 </wgt>
<wgt id='1892'> +1.2439284e-12 </wgt>
<wgt id='1893'> +1.2923831e-12 </wgt>
<wgt id='1894'> +1.3108430e-12 </wgt>
<wgt id='1895'> +1.2352692e-12 </wgt>
<wgt id='1896'> +1.2785025e-12 </wgt>
<wgt id='1897'> +1.2585724e-12 </wgt>
<wgt id='1898'> +1.2491489e-12 </wgt>
<wgt id='1899'> +1.2303852e-12 </wgt>
<wgt id='1900'> +1.2533987e-12 </wgt>
<wgt id='1901'> +1.2182295e-12 </wgt>
<wgt id='1902'> +1.2575839e-12 </wgt>
<wgt id='1903'> +1.2548821e-12 </wgt>
<wgt id='1904'> +1.2472869e-12 </wgt>
<wgt id='1905'> +1.2558090e-12 </wgt>
<wgt id='1906'> +1.2674481e-12 </wgt>
<wgt id='1907'> +1.1935024e-12 </wgt>
<wgt id='1908'> +1.2814691e-12 </wgt>
<wgt id='1909'> +1.2288216e-12 </wgt>
<wgt id='1910'> +1.3032846e-12 </wgt>
<wgt id='1911'> +1.2520342e-12 </wgt>
<wgt id='1912'> +1.2481274e-12 </wgt>
<wgt id='1913'> +1.2493524e-12 </wgt>
<wgt id='1914'> +1.3019098e-12 </wgt>
<wgt id='1915'> +1.2692122e-12 </wgt>
<wgt id='1916'> +1.2637005e-12 </wgt>
<wgt id='1917'> +1.2357990e-12 </wgt>
<wgt id='1918'> +1.2624299e-12 </wgt>
<wgt id='1919'> +1.2306127e-12 </wgt>
</rwgt>
</event>
<event>
 9      1 +1.5538000e-12 4.47407500e+01 7.81860800e-03 1.33916100e-01
        2 -1    0    0  502    0 -0.0000000000e+00 +0.0000000000e+00 +3.2512716540e+00 3.2512716540e+00 0.0000000000e+00 0.0000e+00 -1.0000e+00
       21 -1    0    0  501  502 +0.0000000000e+00 -0.0000000000e+00 -6.5542715186e+02 6.5542715186e+02 0.0000000000e+00 0.0000e+00 -1.0000e+00
     1023  2    1    2    0    0 +4.1508488569e+01 -7.3308787282e+00 -4.4596576067e+02 4.4820441133e+02 1.5001274562e+01 0.0000e+00 0.0000e+00
  1000023  2    3    3    0    0 +1.5207466716e+01 -2.5938943437e+00 -2.2005035676e+02 2.2065891589e+02 5.4956636479e+00 0.0000e+00 0.0000e+00
        2  1    1    2  501    0 -4.1508488569e+01 +7.3308787282e+00 -2.0621011953e+02 2.1047401218e+02 0.0000000000e+00 0.0000e+00 -1.0000e+00
  1000022  1    4    4    0    0 +1.4000325313e+01 -2.4708266623e+00 -1.9639978864e+02 1.9697713338e+02 5.0000000000e+00 0.0000e+00 -1.0000e+00
      -11  1    4    4    0    0 +1.0525351951e+00 -1.3001509760e-01 -2.0490321231e+01 2.0517748382e+01 5.1100000000e-04 0.0000e+00 1.0000e+00
       11  1    4    4    0    0 +1.5460620875e-01 +6.9474161741e-03 -3.1602468845e+00 3.1640341305e+00 5.1100000000e-04 0.0000e+00 -1.0000e+00
  1000022  1    3    3    0    0 +2.6301021853e+01 -4.7369843844e+00 -2.2591540391e+02 2.2754549544e+02 5.0000000000e+00 0.0000e+00 -1.0000e+00
<mgrwt>
<rscale>  1 0.44740749E+02</rscale>
<asrwt>0</asrwt>
<pdfrwt beam="1">  1       21 0.10083487E+00 0.44740749E+02</pdfrwt>
<pdfrwt beam="2">  1        2 0.50019601E-03 0.44740749E+02</pdfrwt>
<totfact> 0.37173649E+05</totfact>
</mgrwt>
<rwgt>
<wgt id='1001'> +1.5538000e-12 </wgt>
<wgt id='1002'> +1.4577642e-12 </wgt>
<wgt id='1003'> +1.4554878e-12 </wgt>
<wgt id='1004'> +1.5606011e-12 </wgt>
<wgt id='1005'> +1.4443585e-12 </wgt>
<wgt id='1006'> +1.3734736e-12 </wgt>
<wgt id='1007'> +1.3057157e-12 </wgt>
<wgt id='1008'> +1.3040483e-12 </wgt>
<wgt id='1009'> +1.3780571e-12 </wgt>
<wgt id='1010'> +1.2958615e-12 </wgt>
<wgt id='1011'> +1.7910886e-12 </wgt>
<wgt id='1012'> +1.6514718e-12 </wgt>
<wgt id='1013'> +1.6482887e-12 </wgt>
<wgt id='1014'> +1.8014522e-12 </wgt>
<wgt id='1015'> +1.6328060e-12 </wgt>
<wgt id='1016'> +1.6392122e-12 </wgt>
<wgt id='1017'> +1.5166228e-12 </wgt>
<wgt id='1018'> +1.5138177e-12 </wgt>
<wgt id='1019'> +1.6482887e-12 </wgt>
<wgt id='1020'> +1.5001762e-12 </wgt>
<wgt id='1021'> +1.4489734e-12 </wgt>
<wgt id='1022'> +1.3584352e-12 </wgt>
<wgt id='1023'> +1.3563091e-12 </wgt>
<wgt id='1024'> +1.4554878e-12 </wgt>
<wgt id='1025'> +1.3459405e-12 </wgt>
<wgt id='1026'> +1.8895446e-12 </wgt>
<wgt id='1027'> +1.7181514e-12 </wgt>
<wgt id='1028'> +1.7143453e-12 </wgt>
<wgt id='1029'> +1.9026728e-12 </wgt>
<wgt id='1030'> +1.6959063e-12 </wgt>
<wgt id='1031'> +1.4406553e-12 </wgt>
<wgt id='1032'> +1.3796486e-12 </wgt>
<wgt id='1033'> +1.3780571e-12 </wgt>
<wgt id='1034'> +1.4444586e-12 </wgt>
<wgt id='1035'> +1.3702028e-12 </wgt>
<wgt id='1036'> +1.2734599e-12 </wgt>
<wgt id='1037'> +1.2357477e-12 </wgt>
<wgt id='1038'> +1.2346740e-12 </wgt>
<wgt id='1039'> +1.2754998e-12 </wgt>
<wgt id='1040'> +1.2293299e-12 </wgt>
<wgt id='1041'> +1.6606650e-12 </wgt>
<wgt id='1042'> +1.5629761e-12 </wgt>
<wgt id='1043'> +1.5606011e-12 </wgt>
<wgt id='1044'> +1.6673852e-12 </wgt>
<wgt id='1045'> +1.5489750e-12 </wgt>
<wgt id='1046'> +1.5538000e-12 </wgt>
<wgt id='1047'> +1.5713816e-12 </wgt>
<wgt id='1048'> +1.5451857e-12 </wgt>
<wgt id='1049'> +1.5341782e-12 </wgt>
<wgt id='1050'> +1.5654795e-12 </wgt>
<wgt id='1051'> +1.5485655e-12 </wgt>
<wgt id='1052'> +1.5788624e-12 </wgt>
<wgt id='1053'> +1.5394499e-12 </wgt>
<wgt id='1054'> +1.5483186e-12 </wgt>
<wgt id='1055'> +1.5179918e-12 </wgt>
<wgt id='1056'> +1.5906346e-12 </wgt>
<wgt id='1057'> +1.5550471e-12 </wgt>
<wgt id='1058'> +1.5457280e-12 </wgt>
<wgt id='1059'> +1.5304594e-12 </wgt>
<wgt id='1060'> +1.5781042e-12 </wgt>
<wgt id='1061'> +1.5032229e-12 </wgt>
<wgt id='1062'> +1.5344431e-12 </wgt>
<wgt id='1063'> +1.5752852e-12 </wgt>
<wgt id='1064'> +1.5343520e-12 </wgt>
<wgt id='1065'> +1.5322224e-12 </wgt>
<wgt id='1066'> +1.5204586e-12 </wgt>
<wgt id='1067'> +1.5031673e-12 </wgt>
<wgt id='1068'> +1.5280134e-12 </wgt>
<wgt id='1069'> +1.5338633e-12 </wgt>
<wgt id='1070'> +1.5487744e-12 </wgt>
<wgt id='1071'> +1.5275425e-12 </wgt>
<wgt id='1072'> +1.5392356e-12 </wgt>
<wgt id='1073'> +1.6090195e-12 </wgt>
<wgt id='1074'> +1.5365700e-12 </wgt>
<wgt id='1075'> +1.5605390e-12 </wgt>
<wgt id='1076'> +1.5838503e-12 </wgt>
<wgt id='1077'> +1.5592177e-12 </wgt>
<wgt id='1078'> +1.5411820e-12 </wgt>
<wgt id='1079'> +1.5425675e-12 </wgt>
<wgt id='1080'> +1.5977799e-12 </wgt>
<wgt id='1081'> +1.4929564e-12 </wgt>
<wgt id='1082'> +1.5195921e-12 </wgt>
<wgt id='1083'> +1.4800280e-12 </wgt>
<wgt id='1084'> +1.5555603e-12 </wgt>
<wgt id='1085'> +1.5108615e-12 </wgt>
<wgt id='1086'> +1.5860078e-12 </wgt>
<wgt id='1087'> +1.5617917e-12 </wgt>
<wgt id='1088'> +1.6109439e-12 </wgt>
<wgt id='1089'> +1.5899173e-12 </wgt>
<wgt id='1090'> +1.5949005e-12 </wgt>
<wgt id='1091'> +1.5274963e-12 </wgt>
<wgt id='1092'> +1.5671360e-12 </wgt>
<wgt id='1093'> +1.5903134e-12 </wgt>
<wgt id='1094'> +1.6179575e-12 </wgt>
<wgt id='1095'> +1.5366270e-12 </wgt>
<wgt id='1096'> +1.5275180e-12 </wgt>
<wgt id='1097'> +1.5340839e-12 </wgt>
<wgt id='1098'> +1.5195542e-12 </wgt>
<wgt id='1099'> +1.5874610e-12 </wgt>
<wgt id='1100'> +1.5347788e-12 </wgt>
<wgt id='1101'> +1.5886697e-12 </wgt>
<wgt id='1102'> +1.5528433e-12 </wgt>
<wgt id='1103'> +1.5280074e-12 </wgt>
<wgt id='1104'> +1.5517988e-12 </wgt>
<wgt id='1105'> +1.5472311e-12 </wgt>
<wgt id='1106'> +1.5325800e-12 </wgt>
<wgt id='1107'> +1.5653628e-12 </wgt>
<wgt id='1108'> +1.5423245e-12 </wgt>
<wgt id='1109'> +1.5687109e-12 </wgt>
<wgt id='1110'> +1.5948932e-12 </wgt>
<wgt id='1111'> +1.5231497e-12 </wgt>
<wgt id='1112'> +1.5742527e-12 </wgt>
<wgt id='1113'> +1.5535117e-12 </wgt>
<wgt id='1114'> +1.5502632e-12 </wgt>
<wgt id='1115'> +1.5713779e-12 </wgt>
<wgt id='1116'> +1.5889139e-12 </wgt>
<wgt id='1117'> +1.5250626e-12 </wgt>
<wgt id='1118'> +1.5012900e-12 </wgt>
<wgt id='1119'> +1.5269229e-12 </wgt>
<wgt id='1120'> +1.5318510e-12 </wgt>
<wgt id='1121'> +1.5528180e-12 </wgt>
<wgt id='1122'> +1.5758881e-12 </wgt>
<wgt id='1123'> +1.5875629e-12 </wgt>
<wgt id='1124'> +1.5066267e-12 </wgt>
<wgt id='1125'> +1.5310387e-12 </wgt>
<wgt id='1126'> +1.6085809e-12 </wgt>
<wgt id='1127'> +1.5909460e-12 </wgt>
<wgt id='1128'> +1.5344431e-12 </wgt>
<wgt id='1129'> +1.5844523e-12 </wgt>
<wgt id='1130'> +1.5384225e-12 </wgt>
<wgt id='1131'> +1.5229457e-12 </wgt>
<wgt id='1132'> +1.6216753e-12 </wgt>
<wgt id='1133'> +1.5288247e-12 </wgt>
<wgt id='1134'> +1.6219885e-12 </wgt>
<wgt id='1135'> +1.5835115e-12 </wgt>
<wgt id='1136'> +1.5704515e-12 </wgt>
<wgt id='1137'> +1.5552328e-12 </wgt>
<wgt id='1138'> +1.5396838e-12 </wgt>
<wgt id='1139'> +1.5455994e-12 </wgt>
<wgt id='1140'> +1.5780467e-12 </wgt>
<wgt id='1141'> +1.5521121e-12 </wgt>
<wgt id='1142'> +1.5499290e-12 </wgt>
<wgt id='1143'> +1.6122415e-12 </wgt>
<wgt id='1144'> +1.5771088e-12 </wgt>
<wgt id='1145'> +1.5581938e-12 </wgt>
<wgt id='1146'> +1.5289552e-12 </wgt>
<wgt id='1147'> +1.2741356e-12 </wgt>
<wgt id='1148'> +1.2931322e-12 </wgt>
<wgt id='1149'> +1.4264795e-12 </wgt>
<wgt id='1150'> +1.3381193e-12 </wgt>
<wgt id='1151'> +1.3021918e-12 </wgt>
<wgt id='1152'> +1.6375042e-12 </wgt>
<wgt id='1153'> +1.6307614e-12 </wgt>
<wgt id='1154'> +1.6414747e-12 </wgt>
<wgt id='1155'> +1.6376536e-12 </wgt>
<wgt id='1156'> +1.6374686e-12 </wgt>
<wgt id='1157'> +1.6378723e-12 </wgt>
<wgt id='1158'> +1.6370471e-12 </wgt>
<wgt id='1159'> +1.6378322e-12 </wgt>
<wgt id='1160'> +1.6373458e-12 </wgt>
<wgt id='1161'> +1.6335581e-12 </wgt>
<wgt id='1162'> +1.6402509e-12 </wgt>
<wgt id='1163'> +1.6430867e-12 </wgt>
<wgt id='1164'> +1.6319424e-12 </wgt>
<wgt id='1165'> +1.6297212e-12 </wgt>
<wgt id='1166'> +1.6450773e-12 </wgt>
<wgt id='1167'> +1.6333549e-12 </wgt>
<wgt id='1168'> +1.6408776e-12 </wgt>
<wgt id='1169'> +1.6349597e-12 </wgt>
<wgt id='1170'> +1.6395591e-12 </wgt>
<wgt id='1171'> +1.6420519e-12 </wgt>
<wgt id='1172'> +1.6318572e-12 </wgt>
<wgt id='1173'> +1.6494835e-12 </wgt>
<wgt id='1174'> +1.6243614e-12 </wgt>
<wgt id='1175'> +1.6323658e-12 </wgt>
<wgt id='1176'> +1.6410339e-12 </wgt>
<wgt id='1177'> +1.6384767e-12 </wgt>
<wgt id='1178'> +1.6357383e-12 </wgt>
<wgt id='1179'> +1.6467060e-12 </wgt>
<wgt id='1180'> +1.6249486e-12 </wgt>
<wgt id='1181'> +1.6324673e-12 </wgt>
<wgt id='1182'> +1.6431641e-12 </wgt>
<wgt id='1183'> +1.6385052e-12 </wgt>
<wgt id='1184'> +1.6375454e-12 </wgt>
<wgt id='1185'> +1.6383518e-12 </wgt>
<wgt id='1186'> +1.6373081e-12 </wgt>
<wgt id='1187'> +1.6362832e-12 </wgt>
<wgt id='1188'> +1.6379245e-12 </wgt>
<wgt id='1189'> +1.6459702e-12 </wgt>
<wgt id='1190'> +1.6077638e-12 </wgt>
<wgt id='1191'> +1.6295274e-12 </wgt>
<wgt id='1192'> +1.6465541e-12 </wgt>
<wgt id='1193'> +1.3721727e-12 </wgt>
<wgt id='1194'> +1.3640659e-12 </wgt>
<wgt id='1195'> +1.3788919e-12 </wgt>
<wgt id='1196'> +1.3753812e-12 </wgt>
<wgt id='1197'> +1.3686177e-12 </wgt>
<wgt id='1198'> +1.3728443e-12 </wgt>
<wgt id='1199'> +1.3713487e-12 </wgt>
<wgt id='1200'> +1.3739770e-12 </wgt>
<wgt id='1201'> +1.3710333e-12 </wgt>
<wgt id='1202'> +1.3697026e-12 </wgt>
<wgt id='1203'> +1.3759661e-12 </wgt>
<wgt id='1204'> +1.3570373e-12 </wgt>
<wgt id='1205'> +1.3817004e-12 </wgt>
<wgt id='1206'> +1.3759793e-12 </wgt>
<wgt id='1207'> +1.3670978e-12 </wgt>
<wgt id='1208'> +1.3666825e-12 </wgt>
<wgt id='1209'> +1.3743008e-12 </wgt>
<wgt id='1210'> +1.3537541e-12 </wgt>
<wgt id='1211'> +1.3881216e-12 </wgt>
<wgt id='1212'> +1.3749977e-12 </wgt>
<wgt id='1213'> +1.3697490e-12 </wgt>
<wgt id='1214'> +1.3765922e-12 </wgt>
<wgt id='1215'> +1.3604278e-12 </wgt>
<wgt id='1216'> +1.3639658e-12 </wgt>
<wgt id='1217'> +1.3766924e-12 </wgt>
<wgt id='1218'> +1.3685373e-12 </wgt>
<wgt id='1219'> +1.3736581e-12 </wgt>
<wgt id='1220'> +1.3742776e-12 </wgt>
<wgt id='1221'> +1.3751959e-12 </wgt>
<wgt id='1222'> +1.3719400e-12 </wgt>
<wgt id='1223'> +1.3756400e-12 </wgt>
<wgt id='1224'> +1.3708473e-12 </wgt>
<wgt id='1225'> +1.3727751e-12 </wgt>
<wgt id='1226'> +1.3708384e-12 </wgt>
<wgt id='1227'> +1.3733182e-12 </wgt>
<wgt id='1228'> +1.3759537e-12 </wgt>
<wgt id='1229'> +1.3696897e-12 </wgt>
<wgt id='1230'> +1.3915789e-12 </wgt>
<wgt id='1231'> +1.3655808e-12 </wgt>
<wgt id='1232'> +1.3746267e-12 </wgt>
<wgt id='1233'> +1.3715722e-12 </wgt>
<wgt id='1234'> +1.3721727e-12 </wgt>
<wgt id='1235'> +1.3668104e-12 </wgt>
<wgt id='1236'> +1.3687598e-12 </wgt>
<wgt id='1237'> +1.3704540e-12 </wgt>
<wgt id='1238'> +1.3733652e-12 </wgt>
<wgt id='1239'> +1.3744337e-12 </wgt>
<wgt id='1240'> +1.3756114e-12 </wgt>
<wgt id='1241'> +1.3979382e-12 </wgt>
<wgt id='1242'> +1.3890643e-12 </wgt>
<wgt id='1243'> +1.4067615e-12 </wgt>
<wgt id='1244'> +1.3940245e-12 </wgt>
<wgt id='1245'> +1.4009754e-12 </wgt>
<wgt id='1246'> +1.3985966e-12 </wgt>
<wgt id='1247'> +1.3975887e-12 </wgt>
<wgt id='1248'> +1.3979359e-12 </wgt>
<wgt id='1249'> +1.3981255e-12 </wgt>
<wgt id='1250'> +1.3981628e-12 </wgt>
<wgt id='1251'> +1.3980728e-12 </wgt>
<wgt id='1252'> +1.3967404e-12 </wgt>
<wgt id='1253'> +1.3990654e-12 </wgt>
<wgt id='1254'> +1.3863289e-12 </wgt>
<wgt id='1255'> +1.4049731e-12 </wgt>
<wgt id='1256'> +1.4012910e-12 </wgt>
<wgt id='1257'> +1.3899308e-12 </wgt>
<wgt id='1258'> +1.3821352e-12 </wgt>
<wgt id='1259'> +1.4092858e-12 </wgt>
<wgt id='1260'> +1.3958136e-12 </wgt>
<wgt id='1261'> +1.4011828e-12 </wgt>
<wgt id='1262'> +1.3941520e-12 </wgt>
<wgt id='1263'> +1.3995849e-12 </wgt>
<wgt id='1264'> +1.3962285e-12 </wgt>
<wgt id='1265'> +1.3991026e-12 </wgt>
<wgt id='1266'> +1.4073298e-12 </wgt>
<wgt id='1267'> +1.3912972e-12 </wgt>
<wgt id='1268'> +1.3971243e-12 </wgt>
<wgt id='1269'> +1.4030001e-12 </wgt>
<wgt id='1270'> +1.4062204e-12 </wgt>
<wgt id='1271'> +1.3962146e-12 </wgt>
<wgt id='1272'> +1.4004732e-12 </wgt>
<wgt id='1273'> +1.3977370e-12 </wgt>
<wgt id='1274'> +1.3992702e-12 </wgt>
<wgt id='1275'> +1.3960759e-12 </wgt>
<wgt id='1276'> +1.3939306e-12 </wgt>
<wgt id='1277'> +1.4017130e-12 </wgt>
<wgt id='1278'> +1.3908308e-12 </wgt>
<wgt id='1279'> +1.4165013e-12 </wgt>
<wgt id='1280'> +1.3965492e-12 </wgt>
<wgt id='1281'> +1.4098472e-12 </wgt>
<wgt id='1282'> +1.3979382e-12 </wgt>
<wgt id='1283'> +1.3922422e-12 </wgt>
<wgt id='1284'> +1.3946409e-12 </wgt>
<wgt id='1285'> +1.3964402e-12 </wgt>
<wgt id='1286'> +1.3995336e-12 </wgt>
<wgt id='1287'> +1.4003538e-12 </wgt>
<wgt id='1288'> +1.4011235e-12 </wgt>
<wgt id='1289'> +1.3960590e-12 </wgt>
<wgt id='1290'> +1.4043771e-12 </wgt>
<wgt id='1291'> +1.3872155e-12 </wgt>
<wgt id='1292'> +1.3931500e-12 </wgt>
<wgt id='1293'> +1.3982329e-12 </wgt>
<wgt id='1294'> +1.3947247e-12 </wgt>
<wgt id='1295'> +1.3972098e-12 </wgt>
<wgt id='1296'> +1.3923352e-12 </wgt>
<wgt id='1297'> +1.4007802e-12 </wgt>
<wgt id='1298'> +1.4032205e-12 </wgt>
<wgt id='1299'> +1.3873452e-12 </wgt>
<wgt id='1300'> +1.3993509e-12 </wgt>
<wgt id='1301'> +1.3895723e-12 </wgt>
<wgt id='1302'> +1.3951499e-12 </wgt>
<wgt id='1303'> +1.3974293e-12 </wgt>
<wgt id='1304'> +1.3948204e-12 </wgt>
<wgt id='1305'> +1.3969141e-12 </wgt>
<wgt id='1306'> +1.3906891e-12 </wgt>
<wgt id='1307'> +1.4022768e-12 </wgt>
<wgt id='1308'> +1.4050362e-12 </wgt>
<wgt id='1309'> +1.3892517e-12 </wgt>
<wgt id='1310'> +1.3940765e-12 </wgt>
<wgt id='1311'> +1.3983885e-12 </wgt>
<wgt id='1312'> +1.3888848e-12 </wgt>
<wgt id='1313'> +1.4036813e-12 </wgt>
<wgt id='1314'> +1.3829193e-12 </wgt>
<wgt id='1315'> +1.4050364e-12 </wgt>
<wgt id='1316'> +1.4011883e-12 </wgt>
<wgt id='1317'> +1.3973629e-12 </wgt>
<wgt id='1318'> +1.3887244e-12 </wgt>
<wgt id='1319'> +1.4035406e-12 </wgt>
<wgt id='1320'> +1.3812522e-12 </wgt>
<wgt id='1321'> +1.4053064e-12 </wgt>
<wgt id='1322'> +1.3967040e-12 </wgt>
<wgt id='1323'> +1.3950873e-12 </wgt>
<wgt id='1324'> +1.3988226e-12 </wgt>
<wgt id='1325'> +1.3946987e-12 </wgt>
<wgt id='1326'> +1.3957893e-12 </wgt>
<wgt id='1327'> +1.3986192e-12 </wgt>
<wgt id='1328'> +1.3931795e-12 </wgt>
<wgt id='1329'> +1.3987647e-12 </wgt>
<wgt id='1330'> +1.3665361e-12 </wgt>
<wgt id='1331'> +1.4169187e-12 </wgt>
<wgt id='1332'> +1.4188422e-12 </wgt>
<wgt id='1333'> +1.3854565e-12 </wgt>
<wgt id='1334'> +1.3914503e-12 </wgt>
<wgt id='1335'> +1.4073448e-12 </wgt>
<wgt id='1336'> +1.4109372e-12 </wgt>
<wgt id='1337'> +1.3858640e-12 </wgt>
<wgt id='1338'> +1.3998417e-12 </wgt>
<wgt id='1339'> +1.3944768e-12 </wgt>
<wgt id='1340'> +1.3620514e-12 </wgt>
<wgt id='1341'> +1.3702551e-12 </wgt>
<wgt id='1342'> +1.3533130e-12 </wgt>
<wgt id='1343'> +1.3591610e-12 </wgt>
<wgt id='1344'> +1.3640860e-12 </wgt>
<wgt id='1345'> +1.3604194e-12 </wgt>
<wgt id='1346'> +1.3636075e-12 </wgt>
<wgt id='1347'> +1.3583247e-12 </wgt>
<wgt id='1348'> +1.3663058e-12 </wgt>
<wgt id='1349'> +1.3684621e-12 </wgt>
<wgt id='1350'> +1.3559158e-12 </wgt>
<wgt id='1351'> +1.3653765e-12 </wgt>
<wgt id='1352'> +1.3547938e-12 </wgt>
<wgt id='1353'> +1.3607725e-12 </wgt>
<wgt id='1354'> +1.3643421e-12 </wgt>
<wgt id='1355'> +1.3610508e-12 </wgt>
<wgt id='1356'> +1.3626504e-12 </wgt>
<wgt id='1357'> +1.3593025e-12 </wgt>
<wgt id='1358'> +1.3654963e-12 </wgt>
<wgt id='1359'> +1.3724885e-12 </wgt>
<wgt id='1360'> +1.3530896e-12 </wgt>
<wgt id='1361'> +1.3603344e-12 </wgt>
<wgt id='1362'> +1.3645526e-12 </wgt>
<wgt id='1363'> +1.3543943e-12 </wgt>
<wgt id='1364'> +1.3678794e-12 </wgt>
<wgt id='1365'> +1.3748057e-12 </wgt>
<wgt id='1366'> +1.3411841e-12 </wgt>
<wgt id='1367'> +1.3669386e-12 </wgt>
<wgt id='1368'> +1.3625637e-12 </wgt>
<wgt id='1369'> +1.3568407e-12 </wgt>
<wgt id='1370'> +1.3677451e-12 </wgt>
<wgt id='1371'> +1.3522175e-12 </wgt>
<wgt id='1372'> +1.3716730e-12 </wgt>
<wgt id='1373'> +1.3645149e-12 </wgt>
<wgt id='1374'> +1.3592985e-12 </wgt>
<wgt id='1375'> +1.3645964e-12 </wgt>
<wgt id='1376'> +1.3600839e-12 </wgt>
<wgt id='1377'> +1.3624624e-12 </wgt>
<wgt id='1378'> +1.3641262e-12 </wgt>
<wgt id='1379'> +1.3591072e-12 </wgt>
<wgt id='1380'> +1.3653133e-12 </wgt>
<wgt id='1381'> +1.3312198e-12 </wgt>
<wgt id='1382'> +1.3818281e-12 </wgt>
<wgt id='1383'> +1.3856446e-12 </wgt>
<wgt id='1384'> +1.3479969e-12 </wgt>
<wgt id='1385'> +1.3567901e-12 </wgt>
<wgt id='1386'> +1.3742570e-12 </wgt>
<wgt id='1387'> +1.3780937e-12 </wgt>
<wgt id='1388'> +1.3514006e-12 </wgt>
<wgt id='1389'> +1.3677482e-12 </wgt>
<wgt id='1390'> +1.3599687e-12 </wgt>
<wgt id='1391'> +1.3428168e-12 </wgt>
<wgt id='1392'> +1.2966826e-12 </wgt>
<wgt id='1393'> +1.3112531e-12 </wgt>
<wgt id='1394'> +1.3262642e-12 </wgt>
<wgt id='1395'> +1.3572124e-12 </wgt>
<wgt id='1396'> +1.3420523e-12 </wgt>
<wgt id='1397'> +1.3180274e-12 </wgt>
<wgt id='1398'> +1.3232795e-12 </wgt>
<wgt id='1399'> +1.3283681e-12 </wgt>
<wgt id='1400'> +1.3329304e-12 </wgt>
<wgt id='1401'> +1.3375481e-12 </wgt>
<wgt id='1402'> +1.3453245e-12 </wgt>
<wgt id='1403'> +1.3492354e-12 </wgt>
<wgt id='1404'> +1.3522762e-12 </wgt>
<wgt id='1405'> +1.3420523e-12 </wgt>
<wgt id='1406'> +1.3392698e-12 </wgt>
<wgt id='1407'> +1.3408168e-12 </wgt>
<wgt id='1408'> +1.3433749e-12 </wgt>
<wgt id='1409'> +1.3439877e-12 </wgt>
<wgt id='1410'> +1.3540033e-12 </wgt>
<wgt id='1411'> +1.3607585e-12 </wgt>
<wgt id='1412'> +1.3453669e-12 </wgt>
<wgt id='1413'> +1.3583136e-12 </wgt>
<wgt id='1414'> +1.3497547e-12 </wgt>
<wgt id='1415'> +1.3503007e-12 </wgt>
<wgt id='1416'> +1.3555428e-12 </wgt>
<wgt id='1417'> +1.3470982e-12 </wgt>
<wgt id='1418'> +1.3607762e-12 </wgt>
<wgt id='1419'> +1.3562560e-12 </wgt>
<wgt id='1420'> +1.3518268e-12 </wgt>
<wgt id='1421'> +1.3420852e-12 </wgt>
<wgt id='1422'> +1.3590930e-12 </wgt>
<wgt id='1423'> +1.3535014e-12 </wgt>
<wgt id='1424'> +1.3545922e-12 </wgt>
<wgt id='1425'> +1.3510240e-12 </wgt>
<wgt id='1426'> +1.3571172e-12 </wgt>
<wgt id='1427'> +1.3501857e-12 </wgt>
<wgt id='1428'> +1.3558950e-12 </wgt>
<wgt id='1429'> +1.3470748e-12 </wgt>
<wgt id='1430'> +1.3633581e-12 </wgt>
<wgt id='1431'> +1.3605426e-12 </wgt>
<wgt id='1432'> +1.3492642e-12 </wgt>
<wgt id='1433'> +1.3514511e-12 </wgt>
<wgt id='1434'> +1.3539695e-12 </wgt>
<wgt id='1435'> +1.3551898e-12 </wgt>
<wgt id='1436'> +1.3513324e-12 </wgt>
<wgt id='1437'> +1.3578477e-12 </wgt>
<wgt id='1438'> +1.3559807e-12 </wgt>
<wgt id='1439'> +1.3577082e-12 </wgt>
<wgt id='1440'> +1.3399419e-12 </wgt>
<wgt id='1441'> +1.3504171e-12 </wgt>
<wgt id='1442'> +1.3618396e-12 </wgt>
<wgt id='1443'> +1.3563993e-12 </wgt>
<wgt id='1444'> +1.3514810e-12 </wgt>
<wgt id='1445'> +1.3512945e-12 </wgt>
<wgt id='1446'> +1.3568611e-12 </wgt>
<wgt id='1447'> +1.3546464e-12 </wgt>
<wgt id='1448'> +1.3561690e-12 </wgt>
<wgt id='1449'> +1.3502660e-12 </wgt>
<wgt id='1450'> +1.3566213e-12 </wgt>
<wgt id='1451'> +1.3665461e-12 </wgt>
<wgt id='1452'> +1.3280925e-12 </wgt>
<wgt id='1453'> +1.3562137e-12 </wgt>
<wgt id='1454'> +1.3402799e-12 </wgt>
<wgt id='1455'> +1.3383353e-12 </wgt>
<wgt id='1456'> +1.3740771e-12 </wgt>
<wgt id='1457'> +1.3682262e-12 </wgt>
<wgt id='1458'> +1.3490954e-12 </wgt>
<wgt id='1459'> +1.3562294e-12 </wgt>
<wgt id='1460'> +1.3609933e-12 </wgt>
<wgt id='1461'> +1.3540033e-12 </wgt>
<wgt id='1462'> +1.3380059e-12 </wgt>
<wgt id='1463'> +1.3708222e-12 </wgt>
<wgt id='1464'> +1.3539871e-12 </wgt>
<wgt id='1465'> +1.3365256e-12 </wgt>
<wgt id='1466'> +1.3403537e-12 </wgt>
<wgt id='1467'> +1.3442151e-12 </wgt>
<wgt id='1468'> +1.3481104e-12 </wgt>
<wgt id='1469'> +1.3511484e-12 </wgt>
<wgt id='1470'> +1.3564889e-12 </wgt>
<wgt id='1471'> +1.3583684e-12 </wgt>
<wgt id='1472'> +1.3608078e-12 </wgt>
<wgt id='1473'> +1.3539871e-12 </wgt>
<wgt id='1474'> +1.3501603e-12 </wgt>
<wgt id='1475'> +1.3517949e-12 </wgt>
<wgt id='1476'> +1.3557303e-12 </wgt>
<wgt id='1477'> +1.3574998e-12 </wgt>
<wgt id='1478'> +1.3304421e-12 </wgt>
<wgt id='1479'> +1.3302646e-12 </wgt>
<wgt id='1480'> +1.3378610e-12 </wgt>
<wgt id='1481'> +1.3327300e-12 </wgt>
<wgt id='1482'> +1.3316964e-12 </wgt>
<wgt id='1483'> +1.3047277e-12 </wgt>
<wgt id='1484'> +1.3382688e-12 </wgt>
<wgt id='1485'> +1.3346969e-12 </wgt>
<wgt id='1486'> +1.3312036e-12 </wgt>
<wgt id='1487'> +1.3405348e-12 </wgt>
<wgt id='1488'> +1.3259840e-12 </wgt>
<wgt id='1489'> +1.3189464e-12 </wgt>
<wgt id='1490'> +1.3310361e-12 </wgt>
<wgt id='1491'> +1.3177061e-12 </wgt>
<wgt id='1492'> +1.3297204e-12 </wgt>
<wgt id='1493'> +1.3269587e-12 </wgt>
<wgt id='1494'> +1.3528697e-12 </wgt>
<wgt id='1495'> +1.3350671e-12 </wgt>
<wgt id='1496'> +1.3271466e-12 </wgt>
<wgt id='1497'> +1.3314310e-12 </wgt>
<wgt id='1498'> +1.3271671e-12 </wgt>
<wgt id='1499'> +1.3329334e-12 </wgt>
<wgt id='1500'> +1.3315250e-12 </wgt>
<wgt id='1501'> +1.3277996e-12 </wgt>
<wgt id='1502'> +1.3300428e-12 </wgt>
<wgt id='1503'> +1.3354381e-12 </wgt>
<wgt id='1504'> +1.3304661e-12 </wgt>
<wgt id='1505'> +1.3278518e-12 </wgt>
<wgt id='1506'> +1.3284231e-12 </wgt>
<wgt id='1507'> +1.3293047e-12 </wgt>
<wgt id='1508'> +1.3426478e-12 </wgt>
<wgt id='1509'> +1.3583917e-12 </wgt>
<wgt id='1510'> +1.3578230e-12 </wgt>
<wgt id='1511'> +1.3555560e-12 </wgt>
<wgt id='1512'> +1.3528213e-12 </wgt>
<wgt id='1513'> +1.3711004e-12 </wgt>
<wgt id='1514'> +1.3604768e-12 </wgt>
<wgt id='1515'> +1.3538848e-12 </wgt>
<wgt id='1516'> +1.3641975e-12 </wgt>
<wgt id='1517'> +1.3583957e-12 </wgt>
<wgt id='1518'> +1.3638133e-12 </wgt>
<wgt id='1519'> +1.3540901e-12 </wgt>
<wgt id='1520'> +1.3524757e-12 </wgt>
<wgt id='1521'> +1.3595501e-12 </wgt>
<wgt id='1522'> +1.3513032e-12 </wgt>
<wgt id='1523'> +1.3554033e-12 </wgt>
<wgt id='1524'> +1.3545485e-12 </wgt>
<wgt id='1525'> +1.3593895e-12 </wgt>
<wgt id='1526'> +1.3546571e-12 </wgt>
<wgt id='1527'> +1.3537266e-12 </wgt>
<wgt id='1528'> +1.3639364e-12 </wgt>
<wgt id='1529'> +1.3537947e-12 </wgt>
<wgt id='1530'> +1.3664891e-12 </wgt>
<wgt id='1531'> +1.3519482e-12 </wgt>
<wgt id='1532'> +1.3611399e-12 </wgt>
<wgt id='1533'> +1.3537398e-12 </wgt>
<wgt id='1534'> +1.3552093e-12 </wgt>
<wgt id='1535'> +1.3544389e-12 </wgt>
<wgt id='1536'> +1.3529912e-12 </wgt>
<wgt id='1537'> +1.3577903e-12 </wgt>
<wgt id='1538'> +1.3701014e-12 </wgt>
<wgt id='1539'> +1.3578341e-12 </wgt>
<wgt id='1540'> +1.3592258e-12 </wgt>
<wgt id='1541'> +1.3604188e-12 </wgt>
<wgt id='1542'> +1.3608284e-12 </wgt>
<wgt id='1543'> +1.3608956e-12 </wgt>
<wgt id='1544'> +1.3564004e-12 </wgt>
<wgt id='1545'> +1.3564861e-12 </wgt>
<wgt id='1546'> +1.3632849e-12 </wgt>
<wgt id='1547'> +1.3576256e-12 </wgt>
<wgt id='1548'> +1.3557828e-12 </wgt>
<wgt id='1549'> +1.3554812e-12 </wgt>
<wgt id='1550'> +1.3550701e-12 </wgt>
<wgt id='1551'> +1.3555449e-12 </wgt>
<wgt id='1552'> +1.3597199e-12 </wgt>
<wgt id='1553'> +1.3600140e-12 </wgt>
<wgt id='1554'> +1.3568608e-12 </wgt>
<wgt id='1555'> +1.3608542e-12 </wgt>
<wgt id='1556'> +1.3610371e-12 </wgt>
<wgt id='1557'> +1.3569927e-12 </wgt>
<wgt id='1558'> +1.3594490e-12 </wgt>
<wgt id='1559'> +1.3615892e-12 </wgt>
<wgt id='1560'> +1.3590433e-12 </wgt>
<wgt id='1561'> +1.3572396e-12 </wgt>
<wgt id='1562'> +1.3579678e-12 </wgt>
<wgt id='1563'> +1.3589394e-12 </wgt>
<wgt id='1564'> +1.3594752e-12 </wgt>
<wgt id='1565'> +1.3586439e-12 </wgt>
<wgt id='1566'> +1.3572529e-12 </wgt>
<wgt id='1567'> +1.3585542e-12 </wgt>
<wgt id='1568'> +1.3585231e-12 </wgt>
<wgt id='1569'> +1.3589824e-12 </wgt>
<wgt id='1570'> +1.3587020e-12 </wgt>
<wgt id='1571'> +1.3587704e-12 </wgt>
<wgt id='1572'> +1.3577664e-12 </wgt>
<wgt id='1573'> +1.3581125e-12 </wgt>
<wgt id='1574'> +1.3583825e-12 </wgt>
<wgt id='1575'> +1.3572302e-12 </wgt>
<wgt id='1576'> +1.3586306e-12 </wgt>
<wgt id='1577'> +1.3595790e-12 </wgt>
<wgt id='1578'> +1.3586087e-12 </wgt>
<wgt id='1579'> +1.3583323e-12 </wgt>
<wgt id='1580'> +1.3570881e-12 </wgt>
<wgt id='1581'> +1.3585638e-12 </wgt>
<wgt id='1582'> +1.3588884e-12 </wgt>
<wgt id='1583'> +1.3574103e-12 </wgt>
<wgt id='1584'> +1.3586742e-12 </wgt>
<wgt id='1585'> +1.3586414e-12 </wgt>
<wgt id='1586'> +1.3580934e-12 </wgt>
<wgt id='1587'> +1.3588526e-12 </wgt>
<wgt id='1588'> +1.3590258e-12 </wgt>
<wgt id='1589'> +1.3584426e-12 </wgt>
<wgt id='1590'> +1.3587709e-12 </wgt>
<wgt id='1591'> +1.3589684e-12 </wgt>
<wgt id='1592'> +1.3577452e-12 </wgt>
<wgt id='1593'> +1.3581277e-12 </wgt>
<wgt id='1594'> +1.3579137e-12 </wgt>
<wgt id='1595'> +1.3585383e-12 </wgt>
<wgt id='1596'> +1.3585566e-12 </wgt>
<wgt id='1597'> +1.3584542e-12 </wgt>
<wgt id='1598'> +1.3590279e-12 </wgt>
<wgt id='1599'> +1.3585786e-12 </wgt>
<wgt id='1600'> +1.3582357e-12 </wgt>
<wgt id='1601'> +1.3581287e-12 </wgt>
<wgt id='1602'> +1.3582136e-12 </wgt>
<wgt id='1603'> +1.3578906e-12 </wgt>
<wgt id='1604'> +1.3584308e-12 </wgt>
<wgt id='1605'> +1.3585155e-12 </wgt>
<wgt id='1606'> +1.3587157e-12 </wgt>
<wgt id='1607'> +1.3582141e-12 </wgt>
<wgt id='1608'> +1.3588420e-12 </wgt>
<wgt id='1609'> +1.3583132e-12 </wgt>
<wgt id='1610'> +1.3306143e-12 </wgt>
<wgt id='1611'> +1.3956881e-12 </wgt>
<wgt id='1612'> +1.5308088e-12 </wgt>
<wgt id='1613'> +1.5235925e-12 </wgt>
<wgt id='1614'> +1.6192507e-12 </wgt>
<wgt id='1615'> +1.5328413e-12 </wgt>
<wgt id='1616'> +1.5601111e-12 </wgt>
<wgt id='1617'> +1.5775813e-12 </wgt>
<wgt id='1618'> +1.5986371e-12 </wgt>
<wgt id='1619'> +1.5328854e-12 </wgt>
<wgt id='1620'> +1.5014099e-12 </wgt>
<wgt id='1621'> +1.5233696e-12 </wgt>
<wgt id='1622'> +1.4782815e-12 </wgt>
<wgt id='1623'> +1.5135580e-12 </wgt>
<wgt id='1624'> +1.5438744e-12 </wgt>
<wgt id='1625'> +1.4983405e-12 </wgt>
<wgt id='1626'> +1.5136857e-12 </wgt>
<wgt id='1627'> +1.5124195e-12 </wgt>
<wgt id='1628'> +1.6029492e-12 </wgt>
<wgt id='1629'> +1.4638797e-12 </wgt>
<wgt id='1630'> +1.5009759e-12 </wgt>
<wgt id='1631'> +1.6034398e-12 </wgt>
<wgt id='1632'> +1.5105472e-12 </wgt>
<wgt id='1633'> +1.5775401e-12 </wgt>
<wgt id='1634'> +1.5131758e-12 </wgt>
<wgt id='1635'> +1.5441373e-12 </wgt>
<wgt id='1636'> +1.5996878e-12 </wgt>
<wgt id='1637'> +1.5389088e-12 </wgt>
<wgt id='1638'> +1.5136662e-12 </wgt>
<wgt id='1639'> +1.5021426e-12 </wgt>
<wgt id='1640'> +1.5254185e-12 </wgt>
<wgt id='1641'> +1.5383180e-12 </wgt>
<wgt id='1642'> +1.5550080e-12 </wgt>
<wgt id='1643'> +1.5938944e-12 </wgt>
<wgt id='1644'> +1.4965889e-12 </wgt>
<wgt id='1645'> +1.5072562e-12 </wgt>
<wgt id='1646'> +1.4978514e-12 </wgt>
<wgt id='1647'> +1.5092820e-12 </wgt>
<wgt id='1648'> +1.5229531e-12 </wgt>
<wgt id='1649'> +1.6372896e-12 </wgt>
<wgt id='1650'> +1.5554982e-12 </wgt>
<wgt id='1651'> +1.5186842e-12 </wgt>
<wgt id='1652'> +1.5405646e-12 </wgt>
<wgt id='1653'> +1.6042395e-12 </wgt>
<wgt id='1654'> +1.5295011e-12 </wgt>
<wgt id='1655'> +1.5736345e-12 </wgt>
<wgt id='1656'> +1.5106794e-12 </wgt>
<wgt id='1657'> +1.5294731e-12 </wgt>
<wgt id='1658'> +1.5205914e-12 </wgt>
<wgt id='1659'> +1.5438744e-12 </wgt>
<wgt id='1660'> +1.5449358e-12 </wgt>
<wgt id='1661'> +1.5239478e-12 </wgt>
<wgt id='1662'> +1.5221192e-12 </wgt>
<wgt id='1663'> +1.4761465e-12 </wgt>
<wgt id='1664'> +1.5009660e-12 </wgt>
<wgt id='1665'> +1.4810745e-12 </wgt>
<wgt id='1666'> +1.5715357e-12 </wgt>
<wgt id='1667'> +1.4617793e-12 </wgt>
<wgt id='1668'> +1.5491075e-12 </wgt>
<wgt id='1669'> +1.4640564e-12 </wgt>
<wgt id='1670'> +1.5329335e-12 </wgt>
<wgt id='1671'> +1.5116375e-12 </wgt>
<wgt id='1672'> +1.5127624e-12 </wgt>
<wgt id='1673'> +1.5266817e-12 </wgt>
<wgt id='1674'> +1.4988948e-12 </wgt>
<wgt id='1675'> +1.5274987e-12 </wgt>
<wgt id='1676'> +1.5436268e-12 </wgt>
<wgt id='1677'> +1.5874774e-12 </wgt>
<wgt id='1678'> +1.5275693e-12 </wgt>
<wgt id='1679'> +1.4488384e-12 </wgt>
<wgt id='1680'> +1.5506592e-12 </wgt>
<wgt id='1681'> +1.4648993e-12 </wgt>
<wgt id='1682'> +1.5180270e-12 </wgt>
<wgt id='1683'> +1.4832691e-12 </wgt>
<wgt id='1684'> +1.5371069e-12 </wgt>
<wgt id='1685'> +1.5351648e-12 </wgt>
<wgt id='1686'> +1.5312909e-12 </wgt>
<wgt id='1687'> +1.5389336e-12 </wgt>
<wgt id='1688'> +1.6199754e-12 </wgt>
<wgt id='1689'> +1.5126015e-12 </wgt>
<wgt id='1690'> +1.4528211e-12 </wgt>
<wgt id='1691'> +1.4822022e-12 </wgt>
<wgt id='1692'> +1.5344200e-12 </wgt>
<wgt id='1693'> +1.5371267e-12 </wgt>
<wgt id='1694'> +1.5490931e-12 </wgt>
<wgt id='1695'> +1.5327513e-12 </wgt>
<wgt id='1696'> +1.4938491e-12 </wgt>
<wgt id='1697'> +1.5426790e-12 </wgt>
<wgt id='1698'> +1.5321259e-12 </wgt>
<wgt id='1699'> +1.5314504e-12 </wgt>
<wgt id='1700'> +1.5340948e-12 </wgt>
<wgt id='1701'> +1.5406907e-12 </wgt>
<wgt id='1702'> +1.5313889e-12 </wgt>
<wgt id='1703'> +1.5386275e-12 </wgt>
<wgt id='1704'> +1.5854700e-12 </wgt>
<wgt id='1705'> +1.4883803e-12 </wgt>
<wgt id='1706'> +1.5700092e-12 </wgt>
<wgt id='1707'> +1.5570592e-12 </wgt>
<wgt id='1708'> +1.5268327e-12 </wgt>
<wgt id='1709'> +1.5111311e-12 </wgt>
<wgt id='1710'> +1.5231458e-12 </wgt>
<wgt id='1711'> +1.5522509e-12 </wgt>
<wgt id='1712'> +1.5237631e-12 </wgt>
<wgt id='1713'> +1.3511286e-12 </wgt>
<wgt id='1714'> +1.3520730e-12 </wgt>
<wgt id='1715'> +1.3714988e-12 </wgt>
<wgt id='1716'> +1.4054198e-12 </wgt>
<wgt id='1717'> +1.3159120e-12 </wgt>
<wgt id='1718'> +1.4015319e-12 </wgt>
<wgt id='1719'> +1.3682591e-12 </wgt>
<wgt id='1720'> +1.3411226e-12 </wgt>
<wgt id='1721'> +1.3474886e-12 </wgt>
<wgt id='1722'> +1.3519524e-12 </wgt>
<wgt id='1723'> +1.3812465e-12 </wgt>
<wgt id='1724'> +1.1747863e-12 </wgt>
<wgt id='1725'> +1.3796623e-12 </wgt>
<wgt id='1726'> +1.3429398e-12 </wgt>
<wgt id='1727'> +1.3692658e-12 </wgt>
<wgt id='1728'> +1.3627727e-12 </wgt>
<wgt id='1729'> +1.3536443e-12 </wgt>
<wgt id='1730'> +1.3695268e-12 </wgt>
<wgt id='1731'> +1.3512006e-12 </wgt>
<wgt id='1732'> +1.3555962e-12 </wgt>
<wgt id='1733'> +1.4019284e-12 </wgt>
<wgt id='1734'> +1.3604238e-12 </wgt>
<wgt id='1735'> +1.3122065e-12 </wgt>
<wgt id='1736'> +1.3620990e-12 </wgt>
<wgt id='1737'> +1.3958198e-12 </wgt>
<wgt id='1738'> +1.3388773e-12 </wgt>
<wgt id='1739'> +1.3478390e-12 </wgt>
<wgt id='1740'> +1.3531240e-12 </wgt>
<wgt id='1741'> +1.3708154e-12 </wgt>
<wgt id='1742'> +1.4012044e-12 </wgt>
<wgt id='1743'> +1.3813316e-12 </wgt>
<wgt id='1744'> +1.3787703e-12 </wgt>
<wgt id='1745'> +1.2687235e-12 </wgt>
<wgt id='1746'> +1.3538629e-12 </wgt>
<wgt id='1747'> +1.3722816e-12 </wgt>
<wgt id='1748'> +1.3601713e-12 </wgt>
<wgt id='1749'> +1.3386630e-12 </wgt>
<wgt id='1750'> +1.3690868e-12 </wgt>
<wgt id='1751'> +1.2854521e-12 </wgt>
<wgt id='1752'> +1.3430630e-12 </wgt>
<wgt id='1753'> +1.3387210e-12 </wgt>
<wgt id='1754'> +1.3494043e-12 </wgt>
<wgt id='1755'> +1.3358135e-12 </wgt>
<wgt id='1756'> +1.3244420e-12 </wgt>
<wgt id='1757'> +1.3700767e-12 </wgt>
<wgt id='1758'> +1.3991857e-12 </wgt>
<wgt id='1759'> +1.3694475e-12 </wgt>
<wgt id='1760'> +1.3400680e-12 </wgt>
<wgt id='1761'> +1.3589493e-12 </wgt>
<wgt id='1762'> +1.4071690e-12 </wgt>
<wgt id='1763'> +1.3613278e-12 </wgt>
<wgt id='1764'> +1.3542517e-12 </wgt>
<wgt id='1765'> +1.3566943e-12 </wgt>
<wgt id='1766'> +1.3948006e-12 </wgt>
<wgt id='1767'> +1.3023582e-12 </wgt>
<wgt id='1768'> +1.3333448e-12 </wgt>
<wgt id='1769'> +1.3715013e-12 </wgt>
<wgt id='1770'> +1.3451332e-12 </wgt>
<wgt id='1771'> +1.3549920e-12 </wgt>
<wgt id='1772'> +1.4211727e-12 </wgt>
<wgt id='1773'> +1.3482640e-12 </wgt>
<wgt id='1774'> +1.3558978e-12 </wgt>
<wgt id='1775'> +1.3870103e-12 </wgt>
<wgt id='1776'> +1.3338717e-12 </wgt>
<wgt id='1777'> +1.3424566e-12 </wgt>
<wgt id='1778'> +1.2899343e-12 </wgt>
<wgt id='1779'> +1.3659510e-12 </wgt>
<wgt id='1780'> +1.3432222e-12 </wgt>
<wgt id='1781'> +1.3556406e-12 </wgt>
<wgt id='1782'> +1.3002422e-12 </wgt>
<wgt id='1783'> +1.3280713e-12 </wgt>
<wgt id='1784'> +1.3228462e-12 </wgt>
<wgt id='1785'> +1.3270232e-12 </wgt>
<wgt id='1786'> +1.3004490e-12 </wgt>
<wgt id='1787'> +1.3983210e-12 </wgt>
<wgt id='1788'> +1.3500861e-12 </wgt>
<wgt id='1789'> +1.2657712e-12 </wgt>
<wgt id='1790'> +1.3074254e-12 </wgt>
<wgt id='1791'> +1.3188495e-12 </wgt>
<wgt id='1792'> +1.3138984e-12 </wgt>
<wgt id='1793'> +1.3278153e-12 </wgt>
<wgt id='1794'> +1.3405733e-12 </wgt>
<wgt id='1795'> +1.3670293e-12 </wgt>
<wgt id='1796'> +1.3718681e-12 </wgt>
<wgt id='1797'> +1.3606699e-12 </wgt>
<wgt id='1798'> +1.3772155e-12 </wgt>
<wgt id='1799'> +1.3483559e-12 </wgt>
<wgt id='1800'> +1.3719356e-12 </wgt>
<wgt id='1801'> +1.3426514e-12 </wgt>
<wgt id='1802'> +1.3363766e-12 </wgt>
<wgt id='1803'> +1.3614026e-12 </wgt>
<wgt id='1804'> +1.3490350e-12 </wgt>
<wgt id='1805'> +1.3188144e-12 </wgt>
<wgt id='1806'> +1.3603840e-12 </wgt>
<wgt id='1807'> +1.3700123e-12 </wgt>
<wgt id='1808'> +1.3928708e-12 </wgt>
<wgt id='1809'> +1.3180081e-12 </wgt>
<wgt id='1810'> +1.3766978e-12 </wgt>
<wgt id='1811'> +1.3517492e-12 </wgt>
<wgt id='1812'> +1.3620324e-12 </wgt>
<wgt id='1813'> +1.3720657e-12 </wgt>
<wgt id='1814'> +1.3658567e-12 </wgt>
<wgt id='1815'> +1.4546757e-12 </wgt>
<wgt id='1816'> +1.3511286e-12 </wgt>
<wgt id='1817'> +1.3520730e-12 </wgt>
<wgt id='1818'> +1.3714988e-12 </wgt>
<wgt id='1819'> +1.4054198e-12 </wgt>
<wgt id='1820'> +1.3159120e-12 </wgt>
<wgt id='1821'> +1.4015319e-12 </wgt>
<wgt id='1822'> +1.3682591e-12 </wgt>
<wgt id='1823'> +1.3411226e-12 </wgt>
<wgt id='1824'> +1.3474886e-12 </wgt>
<wgt id='1825'> +1.3519524e-12 </wgt>
<wgt id='1826'> +1.3812465e-12 </wgt>
<wgt id='1827'> +1.1747863e-12 </wgt>
<wgt id='1828'> +1.3796623e-12 </wgt>
<wgt id='1829'> +1.3429398e-12 </wgt>
<wgt id='1830'> +1.3692658e-12 </wgt>
<wgt id='1831'> +1.3627727e-12 </wgt>
<wgt id='1832'> +1.3536443e-12 </wgt>
<wgt id='1833'> +1.3695268e-12 </wgt>
<wgt id='1834'> +1.3512006e-12 </wgt>
<wgt id='1835'> +1.3555962e-12 </wgt>
<wgt id='1836'> +1.4019284e-12 </wgt>
<wgt id='1837'> +1.3604238e-12 </wgt>
<wgt id='1838'> +1.3122065e-12 </wgt>
<wgt id='1839'> +1.3620990e-12 </wgt>
<wgt id='1840'> +1.3958198e-12 </wgt>
<wgt id='1841'> +1.3388773e-12 </wgt>
<wgt id='1842'> +1.3478390e-12 </wgt>
<wgt id='1843'> +1.3531240e-12 </wgt>
<wgt id='1844'> +1.3708154e-12 </wgt>
<wgt id='1845'> +1.4012044e-12 </wgt>
<wgt id='1846'> +1.3813316e-12 </wgt>
<wgt id='1847'> +1.3787703e-12 </wgt>
<wgt id='1848'> +1.2687235e-12 </wgt>
<wgt id='1849'> +1.3538629e-12 </wgt>
<wgt id='1850'> +1.3722816e-12 </wgt>
<wgt id='1851'> +1.3601713e-12 </wgt>
<wgt id='1852'> +1.3386630e-12 </wgt>
<wgt id='1853'> +1.3690868e-12 </wgt>
<wgt id='1854'> +1.2854521e-12 </wgt>
<wgt id='1855'> +1.3430630e-12 </wgt>
<wgt id='1856'> +1.3387210e-12 </wgt>
<wgt id='1857'> +1.3494043e-12 </wgt>
<wgt id='1858'> +1.3358135e-12 </wgt>
<wgt id='1859'> +1.3244420e-12 </wgt>
<wgt id='1860'> +1.3700767e-12 </wgt>
<wgt id='1861'> +1.3991857e-12 </wgt>
<wgt id='1862'> +1.3694475e-12 </wgt>
<wgt id='1863'> +1.3400680e-12 </wgt>
<wgt id='1864'> +1.3589493e-12 </wgt>
<wgt id='1865'> +1.4071690e-12 </wgt>
<wgt id='1866'> +1.3613278e-12 </wgt>
<wgt id='1867'> +1.3542517e-12 </wgt>
<wgt id='1868'> +1.3566943e-12 </wgt>
<wgt id='1869'> +1.3948006e-12 </wgt>
<wgt id='1870'> +1.3023582e-12 </wgt>
<wgt id='1871'> +1.3333448e-12 </wgt>
<wgt id='1872'> +1.3715013e-12 </wgt>
<wgt id='1873'> +1.3451332e-12 </wgt>
<wgt id='1874'> +1.3549920e-12 </wgt>
<wgt id='1875'> +1.4211727e-12 </wgt>
<wgt id='1876'> +1.3482640e-12 </wgt>
<wgt id='1877'> +1.3558978e-12 </wgt>
<wgt id='1878'> +1.3870103e-12 </wgt>
<wgt id='1879'> +1.3338717e-12 </wgt>
<wgt id='1880'> +1.3424566e-12 </wgt>
<wgt id='1881'> +1.2899343e-12 </wgt>
<wgt id='1882'> +1.3659510e-12 </wgt>
<wgt id='1883'> +1.3432222e-12 </wgt>
<wgt id='1884'> +1.3556406e-12 </wgt>
<wgt id='1885'> +1.3002422e-12 </wgt>
<wgt id='1886'> +1.3280713e-12 </wgt>
<wgt id='1887'> +1.3228462e-12 </wgt>
<wgt id='1888'> +1.3270232e-12 </wgt>
<wgt id='1889'> +1.3004490e-12 </wgt>
<wgt id='1890'> +1.3983210e-12 </wgt>
<wgt id='1891'> +1.3500861e-12 </wgt>
<wgt id='1892'> +1.2657712e-12 </wgt>
<wgt id='1893'> +1.3074254e-12 </wgt>
<wgt id='1894'> +1.3188495e-12 </wgt>
<wgt id='1895'> +1.3138984e-12 </wgt>
<wgt id='1896'> +1.3278153e-12 </wgt>
<wgt id='1897'> +1.3405733e-12 </wgt>
<wgt id='1898'> +1.3670293e-12 </wgt>
<wgt id='1899'> +1.3718681e-12 </wgt>
<wgt id='1900'> +1.3606699e-12 </wgt>
<wgt id='1901'> +1.3772155e-12 </wgt>
<wgt id='1902'> +1.3483559e-12 </wgt>
<wgt id='1903'> +1.3719356e-12 </wgt>
<wgt id='1904'> +1.3426514e-12 </wgt>
<wgt id='1905'> +1.3363766e-12 </wgt>
<wgt id='1906'> +1.3614026e-12 </wgt>
<wgt id='1907'> +1.3490350e-12 </wgt>
<wgt id='1908'> +1.3188144e-12 </wgt>
<wgt id='1909'> +1.3603840e-12 </wgt>
<wgt id='1910'> +1.3700123e-12 </wgt>
<wgt id='1911'> +1.3928708e-12 </wgt>
<wgt id='1912'> +1.3180081e-12 </wgt>
<wgt id='1913'> +1.3766978e-12 </wgt>
<wgt id='1914'> +1.3517492e-12 </wgt>
<wgt id='1915'> +1.3620324e-12 </wgt>
<wgt id='1916'> +1.3720657e-12 </wgt>
<wgt id='1917'> +1.3375865e-12 </wgt>
<wgt id='1918'> +1.3642189e-12 </wgt>
<wgt id='1919'> +1.3651497e-12 </wgt>
</rwgt>
</event>
<event>
 9      1 +1.5538000e-12 8.19822600e+01 7.81860800e-03 1.20129000e-01
       21 -1    0    0  501  502 +0.0000000000e+00 +0.0000000000e+00 +2.6335636821e+01 2.6335636821e+01 0.0000000000e+00 0.0000e+00 -1.0000e+00
        2 -1    0    0  502    0 -0.0000000000e+00 -0.0000000000e+00 -9.0671005109e+02 9.0671005109e+02 0.0000000000e+00 0.0000e+00 -1.0000e+00
     1023  2    1    2    0    0 +8.0494569868e+01 -4.0881123699e+00 -8.3797429364e+02 8.4197506328e+02 1.5000064771e+01 0.0000e+00 0.0000e+00
  1000023  2    3    3    0    0 +5.3707400097e+01 -7.5067529597e+00 -5.6366651059e+02 5.6629590301e+02 5.5025844040e+00 0.0000e+00 0.0000e+00
        2  1    1    2  501    0 -8.0494569868e+01 +4.0881123699e+00 -4.2400120628e+01 9.1070624629e+01 0.0000000000e+00 0.0000e+00 -1.0000e+00
  1000022  1    4    4    0    0 +4.9024136467e+01 -6.9526996290e+00 -5.1598623820e+02 5.1838065550e+02 5.0000000000e+00 0.0000e+00 -1.0000e+00
      -13  1    4    4    0    0 +2.1042021711e+00 -4.3094256461e-01 -2.2737837752e+01 2.2839304201e+01 1.0570000000e-01 0.0000e+00 -1.0000e+00
       13  1    4    4    0    0 +2.5790614592e+00 -1.2311076612e-01 -2.4942434643e+01 2.5075943306e+01 1.0570000000e-01 0.0000e+00 -1.0000e+00
  1000022  1    3    3    0    0 +2.6787169771e+01 +3.4186405897e+00 -2.7430778304e+02 2.7567916027e+02 5.0000000000e+00 0.0000e+00 -1.0000e+00
<mgrwt>
<rscale>  1 0.81982257E+02</rscale>
<asrwt>0</asrwt>
<pdfrwt beam="1">  1       21 0.40516366E-02 0.81982257E+02</pdfrwt>
<pdfrwt beam="2">  1        2 0.13949385E+00 0.81982257E+02</pdfrwt>
<totfact> 0.15094283E+05</totfact>
</mgrwt>
<rwgt>
<wgt id='1001'> +1.5538000e-12 </wgt>
<wgt id='1002'> +1.4317640e-12 </wgt>
<wgt id='1003'> +1.4310072e-12 </wgt>
<wgt id='1004'> +1.5553860e-12 </wgt>
<wgt id='1005'> +1.3241456e-12 </wgt>
<wgt id='1006'> +1.3910056e-12 </wgt>
<wgt id='1007'> +1.2964549e-12 </wgt>
<wgt id='1008'> +1.2958536e-12 </wgt>
<wgt id='1009'> +1.3922013e-12 </wgt>
<wgt id='1010'> +1.2096165e-12 </wgt>
<wgt id='1011'> +1.7614601e-12 </wgt>
<wgt id='1012'> +1.5997174e-12 </wgt>
<wgt id='1013'> +1.5987405e-12 </wgt>
<wgt id='1014'> +1.7636260e-12 </wgt>
<wgt id='1015'> +1.4633615e-12 </wgt>
<wgt id='1016'> +1.5968234e-12 </wgt>
<wgt id='1017'> +1.4542181e-12 </wgt>
<wgt id='1018'> +1.4533600e-12 </wgt>
<wgt id='1019'> +1.5987405e-12 </wgt>
<wgt id='1020'> +1.3344544e-12 </wgt>
<wgt id='1021'> +1.4295214e-12 </wgt>
<wgt id='1022'> +1.3167870e-12 </wgt>
<wgt id='1023'> +1.3160953e-12 </wgt>
<wgt id='1024'> +1.4310072e-12 </wgt>
<wgt id='1025'> +1.2190337e-12 </wgt>
<wgt id='1026'> +1.8102334e-12 </wgt>
<wgt id='1027'> +1.6248055e-12 </wgt>
<wgt id='1028'> +1.6237134e-12 </wgt>
<wgt id='1029'> +1.8127849e-12 </wgt>
<wgt id='1030'> +1.4747541e-12 </wgt>
<wgt id='1031'> +1.4850273e-12 </wgt>
<wgt id='1032'> +1.3928098e-12 </wgt>
<wgt id='1033'> +1.3922013e-12 </wgt>
<wgt id='1034'> +1.4861336e-12 </wgt>
<wgt id='1035'> +1.3028360e-12 </wgt>
<wgt id='1036'> +1.3294383e-12 </wgt>
<wgt id='1037'> +1.2611820e-12 </wgt>
<wgt id='1038'> +1.2607128e-12 </wgt>
<wgt id='1039'> +1.3302146e-12 </wgt>
<wgt id='1040'> +1.1901500e-12 </wgt>
<wgt id='1041'> +1.6834962e-12 </wgt>
<wgt id='1042'> +1.5561936e-12 </wgt>
<wgt id='1043'> +1.5553860e-12 </wgt>
<wgt id='1044'> +1.6851019e-12 </wgt>
<wgt id='1045'> +1.4398114e-12 </wgt>
<wgt id='1046'> +1.5538000e-12 </wgt>
<wgt id='1047'> +1.5462614e-12 </wgt>
<wgt id='1048'> +1.5759493e-12 </wgt>
<wgt id='1049'> +1.5434597e-12 </wgt>
<wgt id='1050'> +1.5211640e-12 </wgt>
<wgt id='1051'> +1.5536666e-12 </wgt>
<wgt id='1052'> +1.5277351e-12 </wgt>
<wgt id='1053'> +1.5794743e-12 </wgt>
<wgt id='1054'> +1.5750588e-12 </wgt>
<wgt id='1055'> +1.5513385e-12 </wgt>
<wgt id='1056'> +1.4847610e-12 </wgt>
<wgt id='1057'> +1.5577739e-12 </wgt>
<wgt id='1058'> +1.5321904e-12 </wgt>
<wgt id='1059'> +1.5512892e-12 </wgt>
<wgt id='1060'> +1.5746519e-12 </wgt>
<wgt id='1061'> +1.5748777e-12 </wgt>
<wgt id='1062'> +1.5560756e-12 </wgt>
<wgt id='1063'> +1.5502570e-12 </wgt>
<wgt id='1064'> +1.5648194e-12 </wgt>
<wgt id='1065'> +1.5759347e-12 </wgt>
<wgt id='1066'> +1.5577661e-12 </wgt>
<wgt id='1067'> +1.5479152e-12 </wgt>
<wgt id='1068'> +1.5805006e-12 </wgt>
<wgt id='1069'> +1.5763103e-12 </wgt>
<wgt id='1070'> +1.5475385e-12 </wgt>
<wgt id='1071'> +1.5835967e-12 </wgt>
<wgt id='1072'> +1.6098288e-12 </wgt>
<wgt id='1073'> +1.5006956e-12 </wgt>
<wgt id='1074'> +1.5554552e-12 </wgt>
<wgt id='1075'> +1.5478871e-12 </wgt>
<wgt id='1076'> +1.5457967e-12 </wgt>
<wgt id='1077'> +1.5428621e-12 </wgt>
<wgt id='1078'> +1.5406464e-12 </wgt>
<wgt id='1079'> +1.5584652e-12 </wgt>
<wgt id='1080'> +1.5208590e-12 </wgt>
<wgt id='1081'> +1.5531499e-12 </wgt>
<wgt id='1082'> +1.5759496e-12 </wgt>
<wgt id='1083'> +1.5857990e-12 </wgt>
<wgt id='1084'> +1.5550962e-12 </wgt>
<wgt id='1085'> +1.5435893e-12 </wgt>
<wgt id='1086'> +1.5603571e-12 </wgt>
<wgt id='1087'> +1.5670750e-12 </wgt>
<wgt id='1088'> +1.5344486e-12 </wgt>
<wgt id='1089'> +1.5282515e-12 </wgt>
<wgt id='1090'> +1.5219033e-12 </wgt>
<wgt id='1091'> +1.5788731e-12 </wgt>
<wgt id='1092'> +1.5569091e-12 </wgt>
<wgt id='1093'> +1.5410461e-12 </wgt>
<wgt id='1094'> +1.5711078e-12 </wgt>
<wgt id='1095'> +1.5649612e-12 </wgt>
<wgt id='1096'> +1.5361015e-12 </wgt>
<wgt id='1097'> +1.5388483e-12 </wgt>
<wgt id='1098'> +1.5694557e-12 </wgt>
<wgt id='1099'> +1.5573414e-12 </wgt>
<wgt id='1100'> +1.5481885e-12 </wgt>
<wgt id='1101'> +1.5907685e-12 </wgt>
<wgt id='1102'> +1.5443970e-12 </wgt>
<wgt id='1103'> +1.5684468e-12 </wgt>
<wgt id='1104'> +1.5873362e-12 </wgt>
<wgt id='1105'> +1.5886899e-12 </wgt>
<wgt id='1106'> +1.5831477e-12 </wgt>
<wgt id='1107'> +1.5210038e-12 </wgt>
<wgt id='1108'> +1.5519652e-12 </wgt>
<wgt id='1109'> +1.5631905e-12 </wgt>
<wgt id='1110'> +1.5739003e-12 </wgt>
<wgt id='1111'> +1.5716177e-12 </wgt>
<wgt id='1112'> +1.5853939e-12 </wgt>
<wgt id='1113'> +1.5405346e-12 </wgt>
<wgt id='1114'> +1.5575014e-12 </wgt>
<wgt id='1115'> +1.5546917e-12 </wgt>
<wgt id='1116'> +1.5179181e-12 </wgt>
<wgt id='1117'> +1.5611921e-12 </wgt>
<wgt id='1118'> +1.5500090e-12 </wgt>
<wgt id='1119'> +1.5490261e-12 </wgt>
<wgt id='1120'> +1.5494350e-12 </wgt>
<wgt id='1121'> +1.5450222e-12 </wgt>
<wgt id='1122'> +1.5679958e-12 </wgt>
<wgt id='1123'> +1.5225709e-12 </wgt>
<wgt id='1124'> +1.5717418e-12 </wgt>
<wgt id='1125'> +1.5590737e-12 </wgt>
<wgt id='1126'> +1.5220800e-12 </wgt>
<wgt id='1127'> +1.5295460e-12 </wgt>
<wgt id='1128'> +1.5560756e-12 </wgt>
<wgt id='1129'> +1.4980095e-12 </wgt>
<wgt id='1130'> +1.5590328e-12 </wgt>
<wgt id='1131'> +1.5691896e-12 </wgt>
<wgt id='1132'> +1.5227185e-12 </wgt>
<wgt id='1133'> +1.5725914e-12 </wgt>
<wgt id='1134'> +1.5061291e-12 </wgt>
<wgt id='1135'> +1.5070792e-12 </wgt>
<wgt id='1136'> +1.5450181e-12 </wgt>
<wgt id='1137'> +1.5686892e-12 </wgt>
<wgt id='1138'> +1.5625790e-12 </wgt>
<wgt id='1139'> +1.5588675e-12 </wgt>
<wgt id='1140'> +1.5399058e-12 </wgt>
<wgt id='1141'> +1.5347231e-12 </wgt>
<wgt id='1142'> +1.5623295e-12 </wgt>
<wgt id='1143'> +1.5333471e-12 </wgt>
<wgt id='1144'> +1.5718413e-12 </wgt>
<wgt id='1145'> +1.5913727e-12 </wgt>
<wgt id='1146'> +1.5890511e-12 </wgt>
<wgt id='1147'> +1.4414082e-12 </wgt>
<wgt id='1148'> +1.4478968e-12 </wgt>
<wgt id='1149'> +1.4325316e-12 </wgt>
<wgt id='1150'> +1.4499978e-12 </wgt>
<wgt id='1151'> +1.4031411e-12 </wgt>
<wgt id='1152'> +1.6778568e-12 </wgt>
<wgt id='1153'> +1.6831520e-12 </wgt>
<wgt id='1154'> +1.6747879e-12 </wgt>
<wgt id='1155'> +1.6740763e-12 </wgt>
<wgt id='1156'> +1.6797908e-12 </wgt>
<wgt id='1157'> +1.6805094e-12 </wgt>
<wgt id='1158'> +1.6742867e-12 </wgt>
<wgt id='1159'> +1.6799684e-12 </wgt>
<wgt id='1160'> +1.6765406e-12 </wgt>
<wgt id='1161'> +1.6754154e-12 </wgt>
<wgt id='1162'> +1.6795940e-12 </wgt>
<wgt id='1163'> +1.6780118e-12 </wgt>
<wgt id='1164'> +1.6777666e-12 </wgt>
<wgt id='1165'> +1.6867063e-12 </wgt>
<wgt id='1166'> +1.6690060e-12 </wgt>
<wgt id='1167'> +1.6873647e-12 </wgt>
<wgt id='1168'> +1.6647659e-12 </wgt>
<wgt id='1169'> +1.6817497e-12 </wgt>
<wgt id='1170'> +1.6748589e-12 </wgt>
<wgt id='1171'> +1.6740634e-12 </wgt>
<wgt id='1172'> +1.6827340e-12 </wgt>
<wgt id='1173'> +1.6635500e-12 </wgt>
<wgt id='1174'> +1.6927722e-12 </wgt>
<wgt id='1175'> +1.6737994e-12 </wgt>
<wgt id='1176'> +1.6808059e-12 </wgt>
<wgt id='1177'> +1.6749055e-12 </wgt>
<wgt id='1178'> +1.6852138e-12 </wgt>
<wgt id='1179'> +1.6840873e-12 </wgt>
<wgt id='1180'> +1.6679893e-12 </wgt>
<wgt id='1181'> +1.6764021e-12 </wgt>
<wgt id='1182'> +1.6779336e-12 </wgt>
<wgt id='1183'> +1.6779083e-12 </wgt>
<wgt id='1184'> +1.6778328e-12 </wgt>
<wgt id='1185'> +1.6750837e-12 </wgt>
<wgt id='1186'> +1.6789136e-12 </wgt>
<wgt id='1187'> +1.6805676e-12 </wgt>
<wgt id='1188'> +1.6768883e-12 </wgt>
<wgt id='1189'> +1.6761478e-12 </wgt>
<wgt id='1190'> +1.6712668e-12 </wgt>
<wgt id='1191'> +1.6746712e-12 </wgt>
<wgt id='1192'> +1.6765368e-12 </wgt>
<wgt id='1193'> +1.4464333e-12 </wgt>
<wgt id='1194'> +1.4470523e-12 </wgt>
<wgt id='1195'> +1.4458890e-12 </wgt>
<wgt id='1196'> +1.4453493e-12 </wgt>
<wgt id='1197'> +1.4475964e-12 </wgt>
<wgt id='1198'> +1.4443477e-12 </wgt>
<wgt id='1199'> +1.4494862e-12 </wgt>
<wgt id='1200'> +1.4438094e-12 </wgt>
<wgt id='1201'> +1.4482359e-12 </wgt>
<wgt id='1202'> +1.4465966e-12 </wgt>
<wgt id='1203'> +1.4461749e-12 </wgt>
<wgt id='1204'> +1.4466957e-12 </wgt>
<wgt id='1205'> +1.4461457e-12 </wgt>
<wgt id='1206'> +1.4492605e-12 </wgt>
<wgt id='1207'> +1.4425284e-12 </wgt>
<wgt id='1208'> +1.4555763e-12 </wgt>
<wgt id='1209'> +1.4430955e-12 </wgt>
<wgt id='1210'> +1.4496172e-12 </wgt>
<wgt id='1211'> +1.4381107e-12 </wgt>
<wgt id='1212'> +1.4465254e-12 </wgt>
<wgt id='1213'> +1.4463493e-12 </wgt>
<wgt id='1214'> +1.4301601e-12 </wgt>
<wgt id='1215'> +1.4747894e-12 </wgt>
<wgt id='1216'> +1.4588484e-12 </wgt>
<wgt id='1217'> +1.4389511e-12 </wgt>
<wgt id='1218'> +1.4467399e-12 </wgt>
<wgt id='1219'> +1.4462167e-12 </wgt>
<wgt id='1220'> +1.4489573e-12 </wgt>
<wgt id='1221'> +1.4458880e-12 </wgt>
<wgt id='1222'> +1.4520747e-12 </wgt>
<wgt id='1223'> +1.4380353e-12 </wgt>
<wgt id='1224'> +1.4494649e-12 </wgt>
<wgt id='1225'> +1.4452786e-12 </wgt>
<wgt id='1226'> +1.4469633e-12 </wgt>
<wgt id='1227'> +1.4461475e-12 </wgt>
<wgt id='1228'> +1.4403838e-12 </wgt>
<wgt id='1229'> +1.4498967e-12 </wgt>
<wgt id='1230'> +1.4419094e-12 </wgt>
<wgt id='1231'> +1.4451269e-12 </wgt>
<wgt id='1232'> +1.4475466e-12 </wgt>
<wgt id='1233'> +1.4461627e-12 </wgt>
<wgt id='1234'> +1.4464333e-12 </wgt>
<wgt id='1235'> +1.4413757e-12 </wgt>
<wgt id='1236'> +1.4432723e-12 </wgt>
<wgt id='1237'> +1.4449849e-12 </wgt>
<wgt id='1238'> +1.4477109e-12 </wgt>
<wgt id='1239'> +1.4488996e-12 </wgt>
<wgt id='1240'> +1.4500394e-12 </wgt>
<wgt id='1241'> +1.4273303e-12 </wgt>
<wgt id='1242'> +1.4265902e-12 </wgt>
<wgt id='1243'> +1.4280697e-12 </wgt>
<wgt id='1244'> +1.4310271e-12 </wgt>
<wgt id='1245'> +1.4245738e-12 </wgt>
<wgt id='1246'> +1.4239385e-12 </wgt>
<wgt id='1247'> +1.4302569e-12 </wgt>
<wgt id='1248'> +1.4273403e-12 </wgt>
<wgt id='1249'> +1.4273485e-12 </wgt>
<wgt id='1250'> +1.4293614e-12 </wgt>
<wgt id='1251'> +1.4258742e-12 </wgt>
<wgt id='1252'> +1.4238543e-12 </wgt>
<wgt id='1253'> +1.4300458e-12 </wgt>
<wgt id='1254'> +1.4234667e-12 </wgt>
<wgt id='1255'> +1.4295634e-12 </wgt>
<wgt id='1256'> +1.4241031e-12 </wgt>
<wgt id='1257'> +1.4353518e-12 </wgt>
<wgt id='1258'> +1.4483776e-12 </wgt>
<wgt id='1259'> +1.4090311e-12 </wgt>
<wgt id='1260'> +1.4311133e-12 </wgt>
<wgt id='1261'> +1.4229595e-12 </wgt>
<wgt id='1262'> +1.4332820e-12 </wgt>
<wgt id='1263'> +1.4249801e-12 </wgt>
<wgt id='1264'> +1.4270290e-12 </wgt>
<wgt id='1265'> +1.4274529e-12 </wgt>
<wgt id='1266'> +1.4161133e-12 </wgt>
<wgt id='1267'> +1.4375281e-12 </wgt>
<wgt id='1268'> +1.4303671e-12 </wgt>
<wgt id='1269'> +1.4253210e-12 </wgt>
<wgt id='1270'> +1.4242462e-12 </wgt>
<wgt id='1271'> +1.4224034e-12 </wgt>
<wgt id='1272'> +1.4296789e-12 </wgt>
<wgt id='1273'> +1.4263277e-12 </wgt>
<wgt id='1274'> +1.4278180e-12 </wgt>
<wgt id='1275'> +1.4259324e-12 </wgt>
<wgt id='1276'> +1.4338070e-12 </wgt>
<wgt id='1277'> +1.4211686e-12 </wgt>
<wgt id='1278'> +1.4273481e-12 </wgt>
<wgt id='1279'> +1.4252709e-12 </wgt>
<wgt id='1280'> +1.4274972e-12 </wgt>
<wgt id='1281'> +1.4270143e-12 </wgt>
<wgt id='1282'> +1.4273303e-12 </wgt>
<wgt id='1283'> +1.4218654e-12 </wgt>
<wgt id='1284'> +1.4239985e-12 </wgt>
<wgt id='1285'> +1.4258185e-12 </wgt>
<wgt id='1286'> +1.4287816e-12 </wgt>
<wgt id='1287'> +1.4299049e-12 </wgt>
<wgt id='1288'> +1.4308559e-12 </wgt>
<wgt id='1289'> +1.4972217e-12 </wgt>
<wgt id='1290'> +1.4972454e-12 </wgt>
<wgt id='1291'> +1.4971915e-12 </wgt>
<wgt id='1292'> +1.4978242e-12 </wgt>
<wgt id='1293'> +1.4967711e-12 </wgt>
<wgt id='1294'> +1.4982430e-12 </wgt>
<wgt id='1295'> +1.4962923e-12 </wgt>
<wgt id='1296'> +1.4984468e-12 </wgt>
<wgt id='1297'> +1.4957220e-12 </wgt>
<wgt id='1298'> +1.4956552e-12 </wgt>
<wgt id='1299'> +1.4991056e-12 </wgt>
<wgt id='1300'> +1.4982358e-12 </wgt>
<wgt id='1301'> +1.4951754e-12 </wgt>
<wgt id='1302'> +1.4941179e-12 </wgt>
<wgt id='1303'> +1.5015780e-12 </wgt>
<wgt id='1304'> +1.4951711e-12 </wgt>
<wgt id='1305'> +1.4987105e-12 </wgt>
<wgt id='1306'> +1.5021481e-12 </wgt>
<wgt id='1307'> +1.4916012e-12 </wgt>
<wgt id='1308'> +1.4947199e-12 </wgt>
<wgt id='1309'> +1.4991461e-12 </wgt>
<wgt id='1310'> +1.4983495e-12 </wgt>
<wgt id='1311'> +1.4961385e-12 </wgt>
<wgt id='1312'> +1.5052994e-12 </wgt>
<wgt id='1313'> +1.4891754e-12 </wgt>
<wgt id='1314'> +1.4949602e-12 </wgt>
<wgt id='1315'> +1.4976191e-12 </wgt>
<wgt id='1316'> +1.5012631e-12 </wgt>
<wgt id='1317'> +1.4965216e-12 </wgt>
<wgt id='1318'> +1.5105777e-12 </wgt>
<wgt id='1319'> +1.4820128e-12 </wgt>
<wgt id='1320'> +1.5111558e-12 </wgt>
<wgt id='1321'> +1.4856783e-12 </wgt>
<wgt id='1322'> +1.4981164e-12 </wgt>
<wgt id='1323'> +1.4963133e-12 </wgt>
<wgt id='1324'> +1.4938635e-12 </wgt>
<wgt id='1325'> +1.4994215e-12 </wgt>
<wgt id='1326'> +1.4961802e-12 </wgt>
<wgt id='1327'> +1.4991256e-12 </wgt>
<wgt id='1328'> +1.4966768e-12 </wgt>
<wgt id='1329'> +1.4972354e-12 </wgt>
<wgt id='1330'> +1.4967312e-12 </wgt>
<wgt id='1331'> +1.4980508e-12 </wgt>
<wgt id='1332'> +1.5037004e-12 </wgt>
<wgt id='1333'> +1.4947147e-12 </wgt>
<wgt id='1334'> +1.4945004e-12 </wgt>
<wgt id='1335'> +1.5040408e-12 </wgt>
<wgt id='1336'> +1.4937536e-12 </wgt>
<wgt id='1337'> +1.4978869e-12 </wgt>
<wgt id='1338'> +1.4968202e-12 </wgt>
<wgt id='1339'> +1.4998629e-12 </wgt>
<wgt id='1340'> +1.4774113e-12 </wgt>
<wgt id='1341'> +1.4774249e-12 </wgt>
<wgt id='1342'> +1.4773460e-12 </wgt>
<wgt id='1343'> +1.4780454e-12 </wgt>
<wgt id='1344'> +1.4769847e-12 </wgt>
<wgt id='1345'> +1.4784789e-12 </wgt>
<wgt id='1346'> +1.4764221e-12 </wgt>
<wgt id='1347'> +1.4786720e-12 </wgt>
<wgt id='1348'> +1.4759803e-12 </wgt>
<wgt id='1349'> +1.4756607e-12 </wgt>
<wgt id='1350'> +1.4790651e-12 </wgt>
<wgt id='1351'> +1.4780321e-12 </wgt>
<wgt id='1352'> +1.4759432e-12 </wgt>
<wgt id='1353'> +1.4735117e-12 </wgt>
<wgt id='1354'> +1.4844113e-12 </wgt>
<wgt id='1355'> +1.4758544e-12 </wgt>
<wgt id='1356'> +1.4782672e-12 </wgt>
<wgt id='1357'> +1.4818479e-12 </wgt>
<wgt id='1358'> +1.4719467e-12 </wgt>
<wgt id='1359'> +1.4737996e-12 </wgt>
<wgt id='1360'> +1.4804882e-12 </wgt>
<wgt id='1361'> +1.4786432e-12 </wgt>
<wgt id='1362'> +1.4758847e-12 </wgt>
<wgt id='1363'> +1.4887389e-12 </wgt>
<wgt id='1364'> +1.4698969e-12 </wgt>
<wgt id='1365'> +1.4726673e-12 </wgt>
<wgt id='1366'> +1.4794061e-12 </wgt>
<wgt id='1367'> +1.4813827e-12 </wgt>
<wgt id='1368'> +1.4764986e-12 </wgt>
<wgt id='1369'> +1.4883471e-12 </wgt>
<wgt id='1370'> +1.4646744e-12 </wgt>
<wgt id='1371'> +1.4883162e-12 </wgt>
<wgt id='1372'> +1.4642401e-12 </wgt>
<wgt id='1373'> +1.4766618e-12 </wgt>
<wgt id='1374'> +1.4782118e-12 </wgt>
<wgt id='1375'> +1.4742566e-12 </wgt>
<wgt id='1376'> +1.4798835e-12 </wgt>
<wgt id='1377'> +1.4765554e-12 </wgt>
<wgt id='1378'> +1.4793779e-12 </wgt>
<wgt id='1379'> +1.4767157e-12 </wgt>
<wgt id='1380'> +1.4774983e-12 </wgt>
<wgt id='1381'> +1.4772444e-12 </wgt>
<wgt id='1382'> +1.4780055e-12 </wgt>
<wgt id='1383'> +1.4834568e-12 </wgt>
<wgt id='1384'> +1.4750782e-12 </wgt>
<wgt id='1385'> +1.4748777e-12 </wgt>
<wgt id='1386'> +1.4834500e-12 </wgt>
<wgt id='1387'> +1.4736844e-12 </wgt>
<wgt id='1388'> +1.4786518e-12 </wgt>
<wgt id='1389'> +1.4760772e-12 </wgt>
<wgt id='1390'> +1.4810328e-12 </wgt>
<wgt id='1391'> +1.4327527e-12 </wgt>
<wgt id='1392'> +1.4054450e-12 </wgt>
<wgt id='1393'> +1.4150535e-12 </wgt>
<wgt id='1394'> +1.4239313e-12 </wgt>
<wgt id='1395'> +1.4410061e-12 </wgt>
<wgt id='1396'> +1.4326889e-12 </wgt>
<wgt id='1397'> +1.4309286e-12 </wgt>
<wgt id='1398'> +1.4309162e-12 </wgt>
<wgt id='1399'> +1.4309647e-12 </wgt>
<wgt id='1400'> +1.4312780e-12 </wgt>
<wgt id='1401'> +1.4319852e-12 </wgt>
<wgt id='1402'> +1.4335924e-12 </wgt>
<wgt id='1403'> +1.4348045e-12 </wgt>
<wgt id='1404'> +1.4361983e-12 </wgt>
<wgt id='1405'> +1.4326889e-12 </wgt>
<wgt id='1406'> +1.4300866e-12 </wgt>
<wgt id='1407'> +1.4314660e-12 </wgt>
<wgt id='1408'> +1.4338818e-12 </wgt>
<wgt id='1409'> +1.4346842e-12 </wgt>
<wgt id='1410'> +1.4142237e-12 </wgt>
<wgt id='1411'> +1.4139967e-12 </wgt>
<wgt id='1412'> +1.4145118e-12 </wgt>
<wgt id='1413'> +1.4159495e-12 </wgt>
<wgt id='1414'> +1.4125328e-12 </wgt>
<wgt id='1415'> +1.4159366e-12 </wgt>
<wgt id='1416'> +1.4135263e-12 </wgt>
<wgt id='1417'> +1.4146994e-12 </wgt>
<wgt id='1418'> +1.4136911e-12 </wgt>
<wgt id='1419'> +1.4131023e-12 </wgt>
<wgt id='1420'> +1.4153329e-12 </wgt>
<wgt id='1421'> +1.4121589e-12 </wgt>
<wgt id='1422'> +1.4150784e-12 </wgt>
<wgt id='1423'> +1.4133725e-12 </wgt>
<wgt id='1424'> +1.4152229e-12 </wgt>
<wgt id='1425'> +1.4092607e-12 </wgt>
<wgt id='1426'> +1.4196581e-12 </wgt>
<wgt id='1427'> +1.4171679e-12 </wgt>
<wgt id='1428'> +1.4123466e-12 </wgt>
<wgt id='1429'> +1.4187916e-12 </wgt>
<wgt id='1430'> +1.4079079e-12 </wgt>
<wgt id='1431'> +1.4127661e-12 </wgt>
<wgt id='1432'> +1.4151568e-12 </wgt>
<wgt id='1433'> +1.4115538e-12 </wgt>
<wgt id='1434'> +1.4162985e-12 </wgt>
<wgt id='1435'> +1.4104598e-12 </wgt>
<wgt id='1436'> +1.4234576e-12 </wgt>
<wgt id='1437'> +1.4172662e-12 </wgt>
<wgt id='1438'> +1.4138211e-12 </wgt>
<wgt id='1439'> +1.4067675e-12 </wgt>
<wgt id='1440'> +1.4337056e-12 </wgt>
<wgt id='1441'> +1.4170072e-12 </wgt>
<wgt id='1442'> +1.4067233e-12 </wgt>
<wgt id='1443'> +1.4098689e-12 </wgt>
<wgt id='1444'> +1.4211419e-12 </wgt>
<wgt id='1445'> +1.4194052e-12 </wgt>
<wgt id='1446'> +1.4101716e-12 </wgt>
<wgt id='1447'> +1.4151765e-12 </wgt>
<wgt id='1448'> +1.4137467e-12 </wgt>
<wgt id='1449'> +1.4138615e-12 </wgt>
<wgt id='1450'> +1.4138986e-12 </wgt>
<wgt id='1451'> +1.4144462e-12 </wgt>
<wgt id='1452'> +1.4104597e-12 </wgt>
<wgt id='1453'> +1.4155064e-12 </wgt>
<wgt id='1454'> +1.4128853e-12 </wgt>
<wgt id='1455'> +1.4131792e-12 </wgt>
<wgt id='1456'> +1.4127756e-12 </wgt>
<wgt id='1457'> +1.4175084e-12 </wgt>
<wgt id='1458'> +1.4124732e-12 </wgt>
<wgt id='1459'> +1.4143804e-12 </wgt>
<wgt id='1460'> +1.4124770e-12 </wgt>
<wgt id='1461'> +1.4142237e-12 </wgt>
<wgt id='1462'> +1.4066872e-12 </wgt>
<wgt id='1463'> +1.4199084e-12 </wgt>
<wgt id='1464'> +1.4137448e-12 </wgt>
<wgt id='1465'> +1.4105030e-12 </wgt>
<wgt id='1466'> +1.4107833e-12 </wgt>
<wgt id='1467'> +1.4112229e-12 </wgt>
<wgt id='1468'> +1.4120487e-12 </wgt>
<wgt id='1469'> +1.4126425e-12 </wgt>
<wgt id='1470'> +1.4153571e-12 </wgt>
<wgt id='1471'> +1.4161318e-12 </wgt>
<wgt id='1472'> +1.4173778e-12 </wgt>
<wgt id='1473'> +1.4137448e-12 </wgt>
<wgt id='1474'> +1.4108824e-12 </wgt>
<wgt id='1475'> +1.4124455e-12 </wgt>
<wgt id='1476'> +1.4148825e-12 </wgt>
<wgt id='1477'> +1.4159338e-12 </wgt>
<wgt id='1478'> +1.4233888e-12 </wgt>
<wgt id='1479'> +1.4232571e-12 </wgt>
<wgt id='1480'> +1.4149890e-12 </wgt>
<wgt id='1481'> +1.4170827e-12 </wgt>
<wgt id='1482'> +1.4247366e-12 </wgt>
<wgt id='1483'> +1.4120630e-12 </wgt>
<wgt id='1484'> +1.4122336e-12 </wgt>
<wgt id='1485'> +1.4284675e-12 </wgt>
<wgt id='1486'> +1.4231203e-12 </wgt>
<wgt id='1487'> +1.4285175e-12 </wgt>
<wgt id='1488'> +1.4210504e-12 </wgt>
<wgt id='1489'> +1.4352458e-12 </wgt>
<wgt id='1490'> +1.4223397e-12 </wgt>
<wgt id='1491'> +1.4255669e-12 </wgt>
<wgt id='1492'> +1.4242343e-12 </wgt>
<wgt id='1493'> +1.4142426e-12 </wgt>
<wgt id='1494'> +1.4251277e-12 </wgt>
<wgt id='1495'> +1.4154319e-12 </wgt>
<wgt id='1496'> +1.4250065e-12 </wgt>
<wgt id='1497'> +1.4246066e-12 </wgt>
<wgt id='1498'> +1.4229080e-12 </wgt>
<wgt id='1499'> +1.4261890e-12 </wgt>
<wgt id='1500'> +1.4262150e-12 </wgt>
<wgt id='1501'> +1.4244665e-12 </wgt>
<wgt id='1502'> +1.4213643e-12 </wgt>
<wgt id='1503'> +1.4247921e-12 </wgt>
<wgt id='1504'> +1.4212350e-12 </wgt>
<wgt id='1505'> +1.4266389e-12 </wgt>
<wgt id='1506'> +1.4251631e-12 </wgt>
<wgt id='1507'> +1.4228518e-12 </wgt>
<wgt id='1508'> +1.4266583e-12 </wgt>
<wgt id='1509'> +1.4479631e-12 </wgt>
<wgt id='1510'> +1.4470603e-12 </wgt>
<wgt id='1511'> +1.4521893e-12 </wgt>
<wgt id='1512'> +1.4514124e-12 </wgt>
<wgt id='1513'> +1.4459653e-12 </wgt>
<wgt id='1514'> +1.4470494e-12 </wgt>
<wgt id='1515'> +1.4502628e-12 </wgt>
<wgt id='1516'> +1.4458186e-12 </wgt>
<wgt id='1517'> +1.4509972e-12 </wgt>
<wgt id='1518'> +1.4468616e-12 </wgt>
<wgt id='1519'> +1.4484918e-12 </wgt>
<wgt id='1520'> +1.4541119e-12 </wgt>
<wgt id='1521'> +1.4504848e-12 </wgt>
<wgt id='1522'> +1.4548229e-12 </wgt>
<wgt id='1523'> +1.4517028e-12 </wgt>
<wgt id='1524'> +1.4464569e-12 </wgt>
<wgt id='1525'> +1.4463747e-12 </wgt>
<wgt id='1526'> +1.4494656e-12 </wgt>
<wgt id='1527'> +1.4485005e-12 </wgt>
<wgt id='1528'> +1.4488019e-12 </wgt>
<wgt id='1529'> +1.4487823e-12 </wgt>
<wgt id='1530'> +1.4487877e-12 </wgt>
<wgt id='1531'> +1.4503335e-12 </wgt>
<wgt id='1532'> +1.4442715e-12 </wgt>
<wgt id='1533'> +1.4479958e-12 </wgt>
<wgt id='1534'> +1.4491597e-12 </wgt>
<wgt id='1535'> +1.4441930e-12 </wgt>
<wgt id='1536'> +1.4520994e-12 </wgt>
<wgt id='1537'> +1.4508566e-12 </wgt>
<wgt id='1538'> +1.4335394e-12 </wgt>
<wgt id='1539'> +1.4453038e-12 </wgt>
<wgt id='1540'> +1.4468785e-12 </wgt>
<wgt id='1541'> +1.4448219e-12 </wgt>
<wgt id='1542'> +1.4459667e-12 </wgt>
<wgt id='1543'> +1.4486914e-12 </wgt>
<wgt id='1544'> +1.4457819e-12 </wgt>
<wgt id='1545'> +1.4465922e-12 </wgt>
<wgt id='1546'> +1.4491038e-12 </wgt>
<wgt id='1547'> +1.4466131e-12 </wgt>
<wgt id='1548'> +1.4488520e-12 </wgt>
<wgt id='1549'> +1.4466471e-12 </wgt>
<wgt id='1550'> +1.4479679e-12 </wgt>
<wgt id='1551'> +1.4474946e-12 </wgt>
<wgt id='1552'> +1.4497319e-12 </wgt>
<wgt id='1553'> +1.4481986e-12 </wgt>
<wgt id='1554'> +1.4470980e-12 </wgt>
<wgt id='1555'> +1.4499230e-12 </wgt>
<wgt id='1556'> +1.4511454e-12 </wgt>
<wgt id='1557'> +1.4477172e-12 </wgt>
<wgt id='1558'> +1.4480478e-12 </wgt>
<wgt id='1559'> +1.4468217e-12 </wgt>
<wgt id='1560'> +1.4485971e-12 </wgt>
<wgt id='1561'> +1.4483365e-12 </wgt>
<wgt id='1562'> +1.4480941e-12 </wgt>
<wgt id='1563'> +1.4485078e-12 </wgt>
<wgt id='1564'> +1.4466263e-12 </wgt>
<wgt id='1565'> +1.4477923e-12 </wgt>
<wgt id='1566'> +1.4479379e-12 </wgt>
<wgt id='1567'> +1.4466087e-12 </wgt>
<wgt id='1568'> +1.4480535e-12 </wgt>
<wgt id='1569'> +1.4510013e-12 </wgt>
<wgt id='1570'> +1.4485525e-12 </wgt>
<wgt id='1571'> +1.4483717e-12 </wgt>
<wgt id='1572'> +1.4477731e-12 </wgt>
<wgt id='1573'> +1.4470747e-12 </wgt>
<wgt id='1574'> +1.4485295e-12 </wgt>
<wgt id='1575'> +1.4479525e-12 </wgt>
<wgt id='1576'> +1.4489114e-12 </wgt>
<wgt id='1577'> +1.4501537e-12 </wgt>
<wgt id='1578'> +1.4481018e-12 </wgt>
<wgt id='1579'> +1.4472393e-12 </wgt>
<wgt id='1580'> +1.4477408e-12 </wgt>
<wgt id='1581'> +1.4481775e-12 </wgt>
<wgt id='1582'> +1.4482996e-12 </wgt>
<wgt id='1583'> +1.4470006e-12 </wgt>
<wgt id='1584'> +1.4467555e-12 </wgt>
<wgt id='1585'> +1.4475235e-12 </wgt>
<wgt id='1586'> +1.4480487e-12 </wgt>
<wgt id='1587'> +1.4489153e-12 </wgt>
<wgt id='1588'> +1.4467223e-12 </wgt>
<wgt id='1589'> +1.4491706e-12 </wgt>
<wgt id='1590'> +1.4486723e-12 </wgt>
<wgt id='1591'> +1.4484431e-12 </wgt>
<wgt id='1592'> +1.4486812e-12 </wgt>
<wgt id='1593'> +1.4484815e-12 </wgt>
<wgt id='1594'> +1.4478974e-12 </wgt>
<wgt id='1595'> +1.4469118e-12 </wgt>
<wgt id='1596'> +1.4474104e-12 </wgt>
<wgt id='1597'> +1.4469531e-12 </wgt>
<wgt id='1598'> +1.4485308e-12 </wgt>
<wgt id='1599'> +1.4486214e-12 </wgt>
<wgt id='1600'> +1.4469969e-12 </wgt>
<wgt id='1601'> +1.4482861e-12 </wgt>
<wgt id='1602'> +1.4472872e-12 </wgt>
<wgt id='1603'> +1.4485974e-12 </wgt>
<wgt id='1604'> +1.4479332e-12 </wgt>
<wgt id='1605'> +1.4485129e-12 </wgt>
<wgt id='1606'> +1.4482911e-12 </wgt>
<wgt id='1607'> +1.4482373e-12 </wgt>
<wgt id='1608'> +1.4482438e-12 </wgt>
<wgt id='1609'> +1.4480808e-12 </wgt>
<wgt id='1610'> +1.4318742e-12 </wgt>
<wgt id='1611'> +1.4593549e-12 </wgt>
<wgt id='1612'> +1.5343657e-12 </wgt>
<wgt id='1613'> +1.5264665e-12 </wgt>
<wgt id='1614'> +1.5160037e-12 </wgt>
<wgt id='1615'> +1.5074047e-12 </wgt>
<wgt id='1616'> +1.5149158e-12 </wgt>
<wgt id='1617'> +1.5465012e-12 </wgt>
<wgt id='1618'> +1.4637115e-12 </wgt>
<wgt id='1619'> +1.5224043e-12 </wgt>
<wgt id='1620'> +1.5351058e-12 </wgt>
<wgt id='1621'> +1.5212229e-12 </wgt>
<wgt id='1622'> +1.5521767e-12 </wgt>
<wgt id='1623'> +1.5449319e-12 </wgt>
<wgt id='1624'> +1.5124678e-12 </wgt>
<wgt id='1625'> +1.5337017e-12 </wgt>
<wgt id='1626'> +1.5485393e-12 </wgt>
<wgt id='1627'> +1.5158255e-12 </wgt>
<wgt id='1628'> +1.4100797e-12 </wgt>
<wgt id='1629'> +1.5837969e-12 </wgt>
<wgt id='1630'> +1.5480572e-12 </wgt>
<wgt id='1631'> +1.5128747e-12 </wgt>
<wgt id='1632'> +1.4894004e-12 </wgt>
<wgt id='1633'> +1.5043150e-12 </wgt>
<wgt id='1634'> +1.5730717e-12 </wgt>
<wgt id='1635'> +1.5503028e-12 </wgt>
<wgt id='1636'> +1.5172396e-12 </wgt>
<wgt id='1637'> +1.5357510e-12 </wgt>
<wgt id='1638'> +1.5312928e-12 </wgt>
<wgt id='1639'> +1.5596006e-12 </wgt>
<wgt id='1640'> +1.5400319e-12 </wgt>
<wgt id='1641'> +1.5314224e-12 </wgt>
<wgt id='1642'> +1.5057023e-12 </wgt>
<wgt id='1643'> +1.5397997e-12 </wgt>
<wgt id='1644'> +1.5415352e-12 </wgt>
<wgt id='1645'> +1.5178873e-12 </wgt>
<wgt id='1646'> +1.5828831e-12 </wgt>
<wgt id='1647'> +1.5619140e-12 </wgt>
<wgt id='1648'> +1.5318394e-12 </wgt>
<wgt id='1649'> +1.4779821e-12 </wgt>
<wgt id='1650'> +1.5171201e-12 </wgt>
<wgt id='1651'> +1.5044340e-12 </wgt>
<wgt id='1652'> +1.5533268e-12 </wgt>
<wgt id='1653'> +1.5222513e-12 </wgt>
<wgt id='1654'> +1.5010587e-12 </wgt>
<wgt id='1655'> +1.5026999e-12 </wgt>
<wgt id='1656'> +1.5446929e-12 </wgt>
<wgt id='1657'> +1.5053121e-12 </wgt>
<wgt id='1658'> +1.5174194e-12 </wgt>
<wgt id='1659'> +1.5124678e-12 </wgt>
<wgt id='1660'> +1.5221443e-12 </wgt>
<wgt id='1661'> +1.5698604e-12 </wgt>
<wgt id='1662'> +1.5696973e-12 </wgt>
<wgt id='1663'> +1.5740685e-12 </wgt>
<wgt id='1664'> +1.5355235e-12 </wgt>
<wgt id='1665'> +1.5209567e-12 </wgt>
<wgt id='1666'> +1.5517359e-12 </wgt>
<wgt id='1667'> +1.5556089e-12 </wgt>
<wgt id='1668'> +1.5261191e-12 </wgt>
<wgt id='1669'> +1.5229837e-12 </wgt>
<wgt id='1670'> +1.5494400e-12 </wgt>
<wgt id='1671'> +1.5293920e-12 </wgt>
<wgt id='1672'> +1.5586431e-12 </wgt>
<wgt id='1673'> +1.5326531e-12 </wgt>
<wgt id='1674'> +1.5493105e-12 </wgt>
<wgt id='1675'> +1.5576986e-12 </wgt>
<wgt id='1676'> +1.5261173e-12 </wgt>
<wgt id='1677'> +1.5925982e-12 </wgt>
<wgt id='1678'> +1.5393350e-12 </wgt>
<wgt id='1679'> +1.5686656e-12 </wgt>
<wgt id='1680'> +1.5230919e-12 </wgt>
<wgt id='1681'> +1.5788534e-12 </wgt>
<wgt id='1682'> +1.5454087e-12 </wgt>
<wgt id='1683'> +1.5439528e-12 </wgt>
<wgt id='1684'> +1.5682511e-12 </wgt>
<wgt id='1685'> +1.5159682e-12 </wgt>
<wgt id='1686'> +1.5552412e-12 </wgt>
<wgt id='1687'> +1.5844712e-12 </wgt>
<wgt id='1688'> +1.4930651e-12 </wgt>
<wgt id='1689'> +1.5583304e-12 </wgt>
<wgt id='1690'> +1.5745442e-12 </wgt>
<wgt id='1691'> +1.5340913e-12 </wgt>
<wgt id='1692'> +1.5313352e-12 </wgt>
<wgt id='1693'> +1.5778433e-12 </wgt>
<wgt id='1694'> +1.5067593e-12 </wgt>
<wgt id='1695'> +1.5484240e-12 </wgt>
<wgt id='1696'> +1.5654979e-12 </wgt>
<wgt id='1697'> +1.5079294e-12 </wgt>
<wgt id='1698'> +1.5212382e-12 </wgt>
<wgt id='1699'> +1.5289719e-12 </wgt>
<wgt id='1700'> +1.5284262e-12 </wgt>
<wgt id='1701'> +1.5474579e-12 </wgt>
<wgt id='1702'> +1.5178610e-12 </wgt>
<wgt id='1703'> +1.5400850e-12 </wgt>
<wgt id='1704'> +1.5082532e-12 </wgt>
<wgt id='1705'> +1.5164823e-12 </wgt>
<wgt id='1706'> +1.5212875e-12 </wgt>
<wgt id='1707'> +1.5010587e-12 </wgt>
<wgt id='1708'> +1.5409463e-12 </wgt>
<wgt id='1709'> +1.5365495e-12 </wgt>
<wgt id='1710'> +1.5415505e-12 </wgt>
<wgt id='1711'> +1.5571176e-12 </wgt>
<wgt id='1712'> +1.5759798e-12 </wgt>
<wgt id='1713'> +1.4107086e-12 </wgt>
<wgt id='1714'> +1.3925712e-12 </wgt>
<wgt id='1715'> +1.4068563e-12 </wgt>
<wgt id='1716'> +1.4247343e-12 </wgt>
<wgt id='1717'> +1.4167651e-12 </wgt>
<wgt id='1718'> +1.4443558e-12 </wgt>
<wgt id='1719'> +1.4151334e-12 </wgt>
<wgt id='1720'> +1.4180820e-12 </wgt>
<wgt id='1721'> +1.3845074e-12 </wgt>
<wgt id='1722'> +1.4008441e-12 </wgt>
<wgt id='1723'> +1.4084086e-12 </wgt>
<wgt id='1724'> +1.4415104e-12 </wgt>
<wgt id='1725'> +1.4356171e-12 </wgt>
<wgt id='1726'> +1.4365555e-12 </wgt>
<wgt id='1727'> +1.3974450e-12 </wgt>
<wgt id='1728'> +1.4114346e-12 </wgt>
<wgt id='1729'> +1.3957177e-12 </wgt>
<wgt id='1730'> +1.3810893e-12 </wgt>
<wgt id='1731'> +1.3673068e-12 </wgt>
<wgt id='1732'> +1.4023368e-12 </wgt>
<wgt id='1733'> +1.3768402e-12 </wgt>
<wgt id='1734'> +1.4322008e-12 </wgt>
<wgt id='1735'> +1.4040297e-12 </wgt>
<wgt id='1736'> +1.4870303e-12 </wgt>
<wgt id='1737'> +1.4037592e-12 </wgt>
<wgt id='1738'> +1.4221600e-12 </wgt>
<wgt id='1739'> +1.4015558e-12 </wgt>
<wgt id='1740'> +1.3685473e-12 </wgt>
<wgt id='1741'> +1.4023873e-12 </wgt>
<wgt id='1742'> +1.3874719e-12 </wgt>
<wgt id='1743'> +1.4192650e-12 </wgt>
<wgt id='1744'> +1.4093065e-12 </wgt>
<wgt id='1745'> +1.4091862e-12 </wgt>
<wgt id='1746'> +1.4242831e-12 </wgt>
<wgt id='1747'> +1.4349382e-12 </wgt>
<wgt id='1748'> +1.4200190e-12 </wgt>
<wgt id='1749'> +1.4219205e-12 </wgt>
<wgt id='1750'> +1.3910322e-12 </wgt>
<wgt id='1751'> +1.4084249e-12 </wgt>
<wgt id='1752'> +1.3832473e-12 </wgt>
<wgt id='1753'> +1.4183831e-12 </wgt>
<wgt id='1754'> +1.4166501e-12 </wgt>
<wgt id='1755'> +1.4386914e-12 </wgt>
<wgt id='1756'> +1.4303303e-12 </wgt>
<wgt id='1757'> +1.4057909e-12 </wgt>
<wgt id='1758'> +1.4189973e-12 </wgt>
<wgt id='1759'> +1.4221740e-12 </wgt>
<wgt id='1760'> +1.3914299e-12 </wgt>
<wgt id='1761'> +1.3841436e-12 </wgt>
<wgt id='1762'> +1.4148888e-12 </wgt>
<wgt id='1763'> +1.4208722e-12 </wgt>
<wgt id='1764'> +1.4274176e-12 </wgt>
<wgt id='1765'> +1.4286063e-12 </wgt>
<wgt id='1766'> +1.4407384e-12 </wgt>
<wgt id='1767'> +1.4090701e-12 </wgt>
<wgt id='1768'> +1.4191397e-12 </wgt>
<wgt id='1769'> +1.3729138e-12 </wgt>
<wgt id='1770'> +1.4324541e-12 </wgt>
<wgt id='1771'> +1.4256051e-12 </wgt>
<wgt id='1772'> +1.3950653e-12 </wgt>
<wgt id='1773'> +1.4098907e-12 </wgt>
<wgt id='1774'> +1.4150414e-12 </wgt>
<wgt id='1775'> +1.4070438e-12 </wgt>
<wgt id='1776'> +1.4471188e-12 </wgt>
<wgt id='1777'> +1.3564141e-12 </wgt>
<wgt id='1778'> +1.4107214e-12 </wgt>
<wgt id='1779'> +1.4072625e-12 </wgt>
<wgt id='1780'> +1.4443469e-12 </wgt>
<wgt id='1781'> +1.4028981e-12 </wgt>
<wgt id='1782'> +1.3973374e-12 </wgt>
<wgt id='1783'> +1.3924405e-12 </wgt>
<wgt id='1784'> +1.4410949e-12 </wgt>
<wgt id='1785'> +1.4209226e-12 </wgt>
<wgt id='1786'> +1.4128776e-12 </wgt>
<wgt id='1787'> +1.4450104e-12 </wgt>
<wgt id='1788'> +1.4015548e-12 </wgt>
<wgt id='1789'> +1.4378204e-12 </wgt>
<wgt id='1790'> +1.4196269e-12 </wgt>
<wgt id='1791'> +1.4417784e-12 </wgt>
<wgt id='1792'> +1.4105664e-12 </wgt>
<wgt id='1793'> +1.4098861e-12 </wgt>
<wgt id='1794'> +1.4156420e-12 </wgt>
<wgt id='1795'> +1.4227250e-12 </wgt>
<wgt id='1796'> +1.3653507e-12 </wgt>
<wgt id='1797'> +1.4018689e-12 </wgt>
<wgt id='1798'> +1.3902002e-12 </wgt>
<wgt id='1799'> +1.3956076e-12 </wgt>
<wgt id='1800'> +1.4198819e-12 </wgt>
<wgt id='1801'> +1.4232985e-12 </wgt>
<wgt id='1802'> +1.3849456e-12 </wgt>
<wgt id='1803'> +1.4060902e-12 </wgt>
<wgt id='1804'> +1.3785095e-12 </wgt>
<wgt id='1805'> +1.4130637e-12 </wgt>
<wgt id='1806'> +1.3795073e-12 </wgt>
<wgt id='1807'> +1.4269567e-12 </wgt>
<wgt id='1808'> +1.3747145e-12 </wgt>
<wgt id='1809'> +1.4056767e-12 </wgt>
<wgt id='1810'> +1.3960113e-12 </wgt>
<wgt id='1811'> +1.4510949e-12 </wgt>
<wgt id='1812'> +1.4146536e-12 </wgt>
<wgt id='1813'> +1.3724674e-12 </wgt>
<wgt id='1814'> +1.4992306e-12 </wgt>
<wgt id='1815'> +1.6798551e-12 </wgt>
<wgt id='1816'> +1.4107086e-12 </wgt>
<wgt id='1817'> +1.3925712e-12 </wgt>
<wgt id='1818'> +1.4068563e-12 </wgt>
<wgt id='1819'> +1.4247343e-12 </wgt>
<wgt id='1820'> +1.4167651e-12 </wgt>
<wgt id='1821'> +1.4443558e-12 </wgt>
<wgt id='1822'> +1.4151334e-12 </wgt>
<wgt id='1823'> +1.4180820e-12 </wgt>
<wgt id='1824'> +1.3845074e-12 </wgt>
<wgt id='1825'> +1.4008441e-12 </wgt>
<wgt id='1826'> +1.4084086e-12 </wgt>
<wgt id='1827'> +1.4415104e-12 </wgt>
<wgt id='1828'> +1.4356171e-12 </wgt>
<wgt id='1829'> +1.4365555e-12 </wgt>
<wgt id='1830'> +1.3974450e-12 </wgt>
<wgt id='1831'> +1.4114346e-12 </wgt>
<wgt id='1832'> +1.3957177e-12 </wgt>
<wgt id='1833'> +1.3810893e-12 </wgt>
<wgt id='1834'> +1.3673068e-12 </wgt>
<wgt id='1835'> +1.4023368e-12 </wgt>
<wgt id='1836'> +1.3768402e-12 </wgt>
<wgt id='1837'> +1.4322008e-12 </wgt>
<wgt id='1838'> +1.4040297e-12 </wgt>
<wgt id='1839'> +1.4870303e-12 </wgt>
<wgt id='1840'> +1.4037592e-12 </wgt>
<wgt id='1841'> +1.4221600e-12 </wgt>
<wgt id='1842'> +1.4015558e-12 </wgt>
<wgt id='1843'> +1.3685473e-12 </wgt>
<wgt id='1844'> +1.4023873e-12 </wgt>
<wgt id='1845'> +1.3874719e-12 </wgt>
<wgt id='1846'> +1.4192650e-12 </wgt>
<wgt id='1847'> +1.4093065e-12 </wgt>
<wgt id='1848'> +1.4091862e-12 </wgt>
<wgt id='1849'> +1.4242831e-12 </wgt>
<wgt id='1850'> +1.4349382e-12 </wgt>
<wgt id='1851'> +1.4200190e-12 </wgt>
<wgt id='1852'> +1.4219205e-12 </wgt>
<wgt id='1853'> +1.3910322e-12 </wgt>
<wgt id='1854'> +1.4084249e-12 </wgt>
<wgt id='1855'> +1.3832473e-12 </wgt>
<wgt id='1856'> +1.4183831e-12 </wgt>
<wgt id='1857'> +1.4166501e-12 </wgt>
<wgt id='1858'> +1.4386914e-12 </wgt>
<wgt id='1859'> +1.4303303e-12 </wgt>
<wgt id='1860'> +1.4057909e-12 </wgt>
<wgt id='1861'> +1.4189973e-12 </wgt>
<wgt id='1862'> +1.4221740e-12 </wgt>
<wgt id='1863'> +1.3914299e-12 </wgt>
<wgt id='1864'> +1.3841436e-12 </wgt>
<wgt id='1865'> +1.4148888e-12 </wgt>
<wgt id='1866'> +1.4208722e-12 </wgt>
<wgt id='1867'> +1.4274176e-12 </wgt>
<wgt id='1868'> +1.4286063e-12 </wgt>
<wgt id='1869'> +1.4407384e-12 </wgt>
<wgt id='1870'> +1.4090701e-12 </wgt>
<wgt id='1871'> +1.4191397e-12 </wgt>
<wgt id='1872'> +1.3729138e-12 </wgt>
<wgt id='1873'> +1.4324541e-12 </wgt>
<wgt id='1874'> +1.4256051e-12 </wgt>
<wgt id='1875'> +1.3950653e-12 </wgt>
<wgt id='1876'> +1.4098907e-12 </wgt>
<wgt id='1877'> +1.4150414e-12 </wgt>
<wgt id='1878'> +1.4070438e-12 </wgt>
<wgt id='1879'> +1.4471188e-12 </wgt>
<wgt id='1880'> +1.3564141e-12 </wgt>
<wgt id='1881'> +1.4107214e-12 </wgt>
<wgt id='1882'> +1.4072625e-12 </wgt>
<wgt id='1883'> +1.4443469e-12 </wgt>
<wgt id='1884'> +1.4028981e-12 </wgt>
<wgt id='1885'> +1.3973374e-12 </wgt>
<wgt id='1886'> +1.3924405e-12 </wgt>
<wgt id='1887'> +1.4410949e-12 </wgt>
<wgt id='1888'> +1.4209226e-12 </wgt>
<wgt id='1889'> +1.4128776e-12 </wgt>
<wgt id='1890'> +1.4450104e-12 </wgt>
<wgt id='1891'> +1.4015548e-12 </wgt>
<wgt id='1892'> +1.4378204e-12 </wgt>
<wgt id='1893'> +1.4196269e-12 </wgt>
<wgt id='1894'> +1.4417784e-12 </wgt>
<wgt id='1895'> +1.4105664e-12 </wgt>
<wgt id='1896'> +1.4098861e-12 </wgt>
<wgt id='1897'> +1.4156420e-12 </wgt>
<wgt id='1898'> +1.4227250e-12 </wgt>
<wgt id='1899'> +1.3653507e-12 </wgt>
<wgt id='1900'> +1.4018689e-12 </wgt>
<wgt id='1901'> +1.3902002e-12 </wgt>
<wgt id='1902'> +1.3956076e-12 </wgt>
<wgt id='1903'> +1.4198819e-12 </wgt>
<wgt id='1904'> +1.4232985e-12 </wgt>
<wgt id='1905'> +1.3849456e-12 </wgt>
<wgt id='1906'> +1.4060902e-12 </wgt>
<wgt id='1907'> +1.3785095e-12 </wgt>
<wgt id='1908'> +1.4130637e-12 </wgt>
<wgt id='1909'> +1.3795073e-12 </wgt>
<wgt id='1910'> +1.4269567e-12 </wgt>
<wgt id='1911'> +1.3747145e-12 </wgt>
<wgt id='1912'> +1.4056767e-12 </wgt>
<wgt id='1913'> +1.3960113e-12 </wgt>
<wgt id='1914'> +1.4510949e-12 </wgt>
<wgt id='1915'> +1.4146536e-12 </wgt>
<wgt id='1916'> +1.3724674e-12 </wgt>
<wgt id='1917'> +1.4020543e-12 </wgt>
<wgt id='1918'> +1.4152233e-12 </wgt>
<wgt id='1919'> +1.4175979e-12 </wgt>
</rwgt>
</event>
<event>
 9      1 +1.5538000e-12 1.25608000e+02 7.81860800e-03 1.12047000e-01
       21 -1    0    0  501  502 +0.0000000000e+00 +0.0000000000e+00 +8.3515486893e+00 8.3515486893e+00 0.0000000000e+00 0.0000e+00 1.0000e+00
        2 -1    0    0  502    0 -0.0000000000e+00 -0.0000000000e+00 -4.7228887440e+02 4.7228887440e+02 0.0000000000e+00 0.0000e+00 1.0000e+00
     1023  2    1    2    0    0 -2.7586790734e+01 +1.1220554146e+01 -4.4295842903e+02 4.4421178101e+02 1.5000155769e+01 0.0000e+00 0.0000e+00
  1000023  2    3    3    0    0 -1.4001114136e+01 +9.4096941063e+00 -2.9588287559e+02 2.9641439184e+02 5.4992802391e+00 0.0000e+00 0.0000e+00
        2  1    1    2  501    0 +2.7586790734e+01 -1.1220554146e+01 -2.0978896677e+01 3.6428642084e+01 0.0000000000e+00 0.0000e+00 1.0000e+00
  1000022  1    4    4    0    0 -1.3071947628e+01 +9.1711115532e+00 -2.7980111730e+02 2.8030099955e+02 5.0000000000e+00 0.0000e+00 1.0000e+00
      -13  1    4    4    0    0 -5.6351227421e-01 +2.3532743442e-01 -1.0960515123e+01 1.0978023016e+01 1.0570000000e-01 0.0000e+00 -1.0000e+00
       13  1    4    4    0    0 -3.6565423359e-01 +3.2551187237e-03 -5.1212431654e+00 5.1353692821e+00 1.0570000000e-01 0.0000e+00 1.0000e+00
  1000022  1    3    3    0    0 -1.3585676598e+01 +1.8108600398e+00 -1.4707555344e+02 1.4779738916e+02 5.0000000000e+00 0.0000e+00 -1.0000e+00
<mgrwt>
<rscale>  1 0.12560802E+03</rscale>
<asrwt>0</asrwt>
<pdfrwt beam="1">  1       21 0.12848536E-02 0.12560802E+03</pdfrwt>
<pdfrwt beam="2">  1        2 0.72659831E-01 0.12560802E+03</pdfrwt>
<totfact> 0.20056888E+06</totfact>
</mgrwt>
<rwgt>
<wgt id='1001'> +1.5538000e-12 </wgt>
<wgt id='1002'> +1.5851686e-12 </wgt>
<wgt id='1003'> +1.5844520e-12 </wgt>
<wgt id='1004'> +1.5865683e-12 </wgt>
<wgt id='1005'> +1.5538000e-12 </wgt>
<wgt id='1006'> +1.4014000e-12 </wgt>
<wgt id='1007'> +1.4105579e-12 </wgt>
<wgt id='1008'> +1.4107155e-12 </wgt>
<wgt id='1009'> +1.3895827e-12 </wgt>
<wgt id='1010'> +1.4014000e-12 </wgt>
<wgt id='1011'> +1.7447542e-12 </wgt>
<wgt id='1012'> +1.8112232e-12 </wgt>
<wgt id='1013'> +1.8090620e-12 </wgt>
<wgt id='1014'> +1.8518179e-12 </wgt>
<wgt id='1015'> +1.7447542e-12 </wgt>
<wgt id='1016'> +1.6725036e-12 </wgt>
<wgt id='1017'> +1.7485339e-12 </wgt>
<wgt id='1018'> +1.7458615e-12 </wgt>
<wgt id='1019'> +1.8090620e-12 </wgt>
<wgt id='1020'> +1.6725036e-12 </wgt>
<wgt id='1021'> +1.5084609e-12 </wgt>
<wgt id='1022'> +1.5559281e-12 </wgt>
<wgt id='1023'> +1.5544264e-12 </wgt>
<wgt id='1024'> +1.5844520e-12 </wgt>
<wgt id='1025'> +1.5084609e-12 </wgt>
<wgt id='1026'> +1.8780459e-12 </wgt>
<wgt id='1027'> +1.9978854e-12 </wgt>
<wgt id='1028'> +1.9933528e-12 </wgt>
<wgt id='1029'> +2.1115091e-12 </wgt>
<wgt id='1030'> +1.8780459e-12 </wgt>
<wgt id='1031'> +1.4107674e-12 </wgt>
<wgt id='1032'> +1.3878548e-12 </wgt>
<wgt id='1033'> +1.3895827e-12 </wgt>
<wgt id='1034'> +1.3181120e-12 </wgt>
<wgt id='1035'> +1.4107674e-12 </wgt>
<wgt id='1036'> +1.2723964e-12 </wgt>
<wgt id='1037'> +1.2349788e-12 </wgt>
<wgt id='1038'> +1.2372138e-12 </wgt>
<wgt id='1039'> +1.1544574e-12 </wgt>
<wgt id='1040'> +1.2723964e-12 </wgt>
<wgt id='1041'> +1.5841437e-12 </wgt>
<wgt id='1042'> +1.5857713e-12 </wgt>
<wgt id='1043'> +1.5865683e-12 </wgt>
<wgt id='1044'> +1.5384798e-12 </wgt>
<wgt id='1045'> +1.5841437e-12 </wgt>
<wgt id='1046'> +1.5538000e-12 </wgt>
<wgt id='1047'> +1.5566002e-12 </wgt>
<wgt id='1048'> +1.5697310e-12 </wgt>
<wgt id='1049'> +1.5228661e-12 </wgt>
<wgt id='1050'> +1.5214531e-12 </wgt>
<wgt id='1051'> +1.5515047e-12 </wgt>
<wgt id='1052'> +1.5206097e-12 </wgt>
<wgt id='1053'> +1.5879704e-12 </wgt>
<wgt id='1054'> +1.5738384e-12 </wgt>
<wgt id='1055'> +1.5543888e-12 </wgt>
<wgt id='1056'> +1.5099071e-12 </wgt>
<wgt id='1057'> +1.5449053e-12 </wgt>
<wgt id='1058'> +1.5353578e-12 </wgt>
<wgt id='1059'> +1.5630700e-12 </wgt>
<wgt id='1060'> +1.5719248e-12 </wgt>
<wgt id='1061'> +1.5686675e-12 </wgt>
<wgt id='1062'> +1.5726321e-12 </wgt>
<wgt id='1063'> +1.5497045e-12 </wgt>
<wgt id='1064'> +1.5529057e-12 </wgt>
<wgt id='1065'> +1.5807239e-12 </wgt>
<wgt id='1066'> +1.5529904e-12 </wgt>
<wgt id='1067'> +1.5494537e-12 </wgt>
<wgt id='1068'> +1.5728719e-12 </wgt>
<wgt id='1069'> +1.5788994e-12 </wgt>
<wgt id='1070'> +1.5608898e-12 </wgt>
<wgt id='1071'> +1.5723376e-12 </wgt>
<wgt id='1072'> +1.5977550e-12 </wgt>
<wgt id='1073'> +1.5273929e-12 </wgt>
<wgt id='1074'> +1.5557334e-12 </wgt>
<wgt id='1075'> +1.5602622e-12 </wgt>
<wgt id='1076'> +1.5516114e-12 </wgt>
<wgt id='1077'> +1.5534762e-12 </wgt>
<wgt id='1078'> +1.5169494e-12 </wgt>
<wgt id='1079'> +1.5455185e-12 </wgt>
<wgt id='1080'> +1.5372367e-12 </wgt>
<wgt id='1081'> +1.5307406e-12 </wgt>
<wgt id='1082'> +1.5539324e-12 </wgt>
<wgt id='1083'> +1.5709024e-12 </wgt>
<wgt id='1084'> +1.5352018e-12 </wgt>
<wgt id='1085'> +1.5507347e-12 </wgt>
<wgt id='1086'> +1.5611204e-12 </wgt>
<wgt id='1087'> +1.5545817e-12 </wgt>
<wgt id='1088'> +1.5503196e-12 </wgt>
<wgt id='1089'> +1.5382954e-12 </wgt>
<wgt id='1090'> +1.5387606e-12 </wgt>
<wgt id='1091'> +1.5584087e-12 </wgt>
<wgt id='1092'> +1.5628899e-12 </wgt>
<wgt id='1093'> +1.5465970e-12 </wgt>
<wgt id='1094'> +1.6049952e-12 </wgt>
<wgt id='1095'> +1.5702054e-12 </wgt>
<wgt id='1096'> +1.5547229e-12 </wgt>
<wgt id='1097'> +1.5355124e-12 </wgt>
<wgt id='1098'> +1.5647304e-12 </wgt>
<wgt id='1099'> +1.5458389e-12 </wgt>
<wgt id='1100'> +1.5558183e-12 </wgt>
<wgt id='1101'> +1.5963480e-12 </wgt>
<wgt id='1102'> +1.5543627e-12 </wgt>
<wgt id='1103'> +1.5862992e-12 </wgt>
<wgt id='1104'> +1.5775181e-12 </wgt>
<wgt id='1105'> +1.5541320e-12 </wgt>
<wgt id='1106'> +1.5805191e-12 </wgt>
<wgt id='1107'> +1.5436435e-12 </wgt>
<wgt id='1108'> +1.5566629e-12 </wgt>
<wgt id='1109'> +1.5483109e-12 </wgt>
<wgt id='1110'> +1.5593912e-12 </wgt>
<wgt id='1111'> +1.5667142e-12 </wgt>
<wgt id='1112'> +1.5730230e-12 </wgt>
<wgt id='1113'> +1.5558253e-12 </wgt>
<wgt id='1114'> +1.5601031e-12 </wgt>
<wgt id='1115'> +1.5681184e-12 </wgt>
<wgt id='1116'> +1.5476444e-12 </wgt>
<wgt id='1117'> +1.5467078e-12 </wgt>
<wgt id='1118'> +1.5955897e-12 </wgt>
<wgt id='1119'> +1.5268446e-12 </wgt>
<wgt id='1120'> +1.5343511e-12 </wgt>
<wgt id='1121'> +1.5375026e-12 </wgt>
<wgt id='1122'> +1.5598574e-12 </wgt>
<wgt id='1123'> +1.5433988e-12 </wgt>
<wgt id='1124'> +1.5540512e-12 </wgt>
<wgt id='1125'> +1.5475619e-12 </wgt>
<wgt id='1126'> +1.5354581e-12 </wgt>
<wgt id='1127'> +1.5405430e-12 </wgt>
<wgt id='1128'> +1.5726321e-12 </wgt>
<wgt id='1129'> +1.4983033e-12 </wgt>
<wgt id='1130'> +1.5573279e-12 </wgt>
<wgt id='1131'> +1.5555224e-12 </wgt>
<wgt id='1132'> +1.5529799e-12 </wgt>
<wgt id='1133'> +1.5376786e-12 </wgt>
<wgt id='1134'> +1.5133523e-12 </wgt>
<wgt id='1135'> +1.4926059e-12 </wgt>
<wgt id='1136'> +1.5432126e-12 </wgt>
<wgt id='1137'> +1.5649102e-12 </wgt>
<wgt id='1138'> +1.5479423e-12 </wgt>
<wgt id='1139'> +1.5475550e-12 </wgt>
<wgt id='1140'> +1.5532267e-12 </wgt>
<wgt id='1141'> +1.5535699e-12 </wgt>
<wgt id='1142'> +1.5579011e-12 </wgt>
<wgt id='1143'> +1.5347768e-12 </wgt>
<wgt id='1144'> +1.5577902e-12 </wgt>
<wgt id='1145'> +1.5784783e-12 </wgt>
<wgt id='1146'> +1.5830400e-12 </wgt>
<wgt id='1147'> +1.4004188e-12 </wgt>
<wgt id='1148'> +1.4174191e-12 </wgt>
<wgt id='1149'> +1.3756813e-12 </wgt>
<wgt id='1150'> +1.4001038e-12 </wgt>
<wgt id='1151'> +1.4378473e-12 </wgt>
<wgt id='1152'> +1.7759605e-12 </wgt>
<wgt id='1153'> +1.7766051e-12 </wgt>
<wgt id='1154'> +1.7754692e-12 </wgt>
<wgt id='1155'> +1.7714238e-12 </wgt>
<wgt id='1156'> +1.7782443e-12 </wgt>
<wgt id='1157'> +1.7783811e-12 </wgt>
<wgt id='1158'> +1.7725979e-12 </wgt>
<wgt id='1159'> +1.7780693e-12 </wgt>
<wgt id='1160'> +1.7745732e-12 </wgt>
<wgt id='1161'> +1.7736706e-12 </wgt>
<wgt id='1162'> +1.7775062e-12 </wgt>
<wgt id='1163'> +1.7765463e-12 </wgt>
<wgt id='1164'> +1.7753108e-12 </wgt>
<wgt id='1165'> +1.7805066e-12 </wgt>
<wgt id='1166'> +1.7712369e-12 </wgt>
<wgt id='1167'> +1.7865646e-12 </wgt>
<wgt id='1168'> +1.7616080e-12 </wgt>
<wgt id='1169'> +1.7795521e-12 </wgt>
<wgt id='1170'> +1.7731846e-12 </wgt>
<wgt id='1171'> +1.7704606e-12 </wgt>
<wgt id='1172'> +1.7831544e-12 </wgt>
<wgt id='1173'> +1.7611165e-12 </wgt>
<wgt id='1174'> +1.7912149e-12 </wgt>
<wgt id='1175'> +1.7751293e-12 </wgt>
<wgt id='1176'> +1.7760674e-12 </wgt>
<wgt id='1177'> +1.7713402e-12 </wgt>
<wgt id='1178'> +1.7880327e-12 </wgt>
<wgt id='1179'> +1.7803765e-12 </wgt>
<wgt id='1180'> +1.7667787e-12 </wgt>
<wgt id='1181'> +1.7785226e-12 </wgt>
<wgt id='1182'> +1.7717657e-12 </wgt>
<wgt id='1183'> +1.7695026e-12 </wgt>
<wgt id='1184'> +1.7763633e-12 </wgt>
<wgt id='1185'> +1.7739632e-12 </wgt>
<wgt id='1186'> +1.7770941e-12 </wgt>
<wgt id='1187'> +1.7782922e-12 </wgt>
<wgt id='1188'> +1.7751635e-12 </wgt>
<wgt id='1189'> +1.7731793e-12 </wgt>
<wgt id='1190'> +1.7663430e-12 </wgt>
<wgt id='1191'> +1.7754251e-12 </wgt>
<wgt id='1192'> +1.7740322e-12 </wgt>
<wgt id='1193'> +1.4053893e-12 </wgt>
<wgt id='1194'> +1.4029977e-12 </wgt>
<wgt id='1195'> +1.4072983e-12 </wgt>
<wgt id='1196'> +1.4071489e-12 </wgt>
<wgt id='1197'> +1.4034438e-12 </wgt>
<wgt id='1198'> +1.4040100e-12 </wgt>
<wgt id='1199'> +1.4073968e-12 </wgt>
<wgt id='1200'> +1.4025052e-12 </wgt>
<wgt id='1201'> +1.4073327e-12 </wgt>
<wgt id='1202'> +1.4048719e-12 </wgt>
<wgt id='1203'> +1.4060699e-12 </wgt>
<wgt id='1204'> +1.4023880e-12 </wgt>
<wgt id='1205'> +1.4071262e-12 </wgt>
<wgt id='1206'> +1.4081493e-12 </wgt>
<wgt id='1207'> +1.4016151e-12 </wgt>
<wgt id='1208'> +1.4104069e-12 </wgt>
<wgt id='1209'> +1.4035742e-12 </wgt>
<wgt id='1210'> +1.4039458e-12 </wgt>
<wgt id='1211'> +1.4010499e-12 </wgt>
<wgt id='1212'> +1.4065387e-12 </wgt>
<wgt id='1213'> +1.4043049e-12 </wgt>
<wgt id='1214'> +1.3899272e-12 </wgt>
<wgt id='1215'> +1.4311371e-12 </wgt>
<wgt id='1216'> +1.4123364e-12 </wgt>
<wgt id='1217'> +1.4014174e-12 </wgt>
<wgt id='1218'> +1.4077695e-12 </wgt>
<wgt id='1219'> +1.4040777e-12 </wgt>
<wgt id='1220'> +1.4093797e-12 </wgt>
<wgt id='1221'> +1.4043683e-12 </wgt>
<wgt id='1222'> +1.4139469e-12 </wgt>
<wgt id='1223'> +1.3919544e-12 </wgt>
<wgt id='1224'> +1.4091858e-12 </wgt>
<wgt id='1225'> +1.4038745e-12 </wgt>
<wgt id='1226'> +1.4056491e-12 </wgt>
<wgt id='1227'> +1.4054663e-12 </wgt>
<wgt id='1228'> +1.3943257e-12 </wgt>
<wgt id='1229'> +1.4105186e-12 </wgt>
<wgt id='1230'> +1.4022036e-12 </wgt>
<wgt id='1231'> +1.4063125e-12 </wgt>
<wgt id='1232'> +1.4038714e-12 </wgt>
<wgt id='1233'> +1.4057553e-12 </wgt>
<wgt id='1234'> +1.4053893e-12 </wgt>
<wgt id='1235'> +1.3989554e-12 </wgt>
<wgt id='1236'> +1.4013923e-12 </wgt>
<wgt id='1237'> +1.4035900e-12 </wgt>
<wgt id='1238'> +1.4071101e-12 </wgt>
<wgt id='1239'> +1.4085999e-12 </wgt>
<wgt id='1240'> +1.4100071e-12 </wgt>
<wgt id='1241'> +1.3737521e-12 </wgt>
<wgt id='1242'> +1.3692327e-12 </wgt>
<wgt id='1243'> +1.3782306e-12 </wgt>
<wgt id='1244'> +1.3739449e-12 </wgt>
<wgt id='1245'> +1.3735247e-12 </wgt>
<wgt id='1246'> +1.3701279e-12 </wgt>
<wgt id='1247'> +1.3767967e-12 </wgt>
<wgt id='1248'> +1.3737418e-12 </wgt>
<wgt id='1249'> +1.3738002e-12 </wgt>
<wgt id='1250'> +1.3754300e-12 </wgt>
<wgt id='1251'> +1.3726032e-12 </wgt>
<wgt id='1252'> +1.3711054e-12 </wgt>
<wgt id='1253'> +1.3758108e-12 </wgt>
<wgt id='1254'> +1.3691509e-12 </wgt>
<wgt id='1255'> +1.3764670e-12 </wgt>
<wgt id='1256'> +1.3722331e-12 </wgt>
<wgt id='1257'> +1.3774564e-12 </wgt>
<wgt id='1258'> +1.3913998e-12 </wgt>
<wgt id='1259'> +1.3577195e-12 </wgt>
<wgt id='1260'> +1.3767163e-12 </wgt>
<wgt id='1261'> +1.3704875e-12 </wgt>
<wgt id='1262'> +1.3752482e-12 </wgt>
<wgt id='1263'> +1.3735069e-12 </wgt>
<wgt id='1264'> +1.3767471e-12 </wgt>
<wgt id='1265'> +1.3722481e-12 </wgt>
<wgt id='1266'> +1.3614571e-12 </wgt>
<wgt id='1267'> +1.3847690e-12 </wgt>
<wgt id='1268'> +1.3775562e-12 </wgt>
<wgt id='1269'> +1.3711675e-12 </wgt>
<wgt id='1270'> +1.3700028e-12 </wgt>
<wgt id='1271'> +1.3705231e-12 </wgt>
<wgt id='1272'> +1.3758160e-12 </wgt>
<wgt id='1273'> +1.3729085e-12 </wgt>
<wgt id='1274'> +1.3744384e-12 </wgt>
<wgt id='1275'> +1.3723471e-12 </wgt>
<wgt id='1276'> +1.3824876e-12 </wgt>
<wgt id='1277'> +1.3630604e-12 </wgt>
<wgt id='1278'> +1.3749442e-12 </wgt>
<wgt id='1279'> +1.3749060e-12 </wgt>
<wgt id='1280'> +1.3744223e-12 </wgt>
<wgt id='1281'> +1.3713039e-12 </wgt>
<wgt id='1282'> +1.3737521e-12 </wgt>
<wgt id='1283'> +1.3672722e-12 </wgt>
<wgt id='1284'> +1.3698771e-12 </wgt>
<wgt id='1285'> +1.3720058e-12 </wgt>
<wgt id='1286'> +1.3755120e-12 </wgt>
<wgt id='1287'> +1.3768983e-12 </wgt>
<wgt id='1288'> +1.3779299e-12 </wgt>
<wgt id='1289'> +1.4589487e-12 </wgt>
<wgt id='1290'> +1.4586118e-12 </wgt>
<wgt id='1291'> +1.4593387e-12 </wgt>
<wgt id='1292'> +1.4593453e-12 </wgt>
<wgt id='1293'> +1.4587155e-12 </wgt>
<wgt id='1294'> +1.4553715e-12 </wgt>
<wgt id='1295'> +1.4624816e-12 </wgt>
<wgt id='1296'> +1.4578883e-12 </wgt>
<wgt id='1297'> +1.4602384e-12 </wgt>
<wgt id='1298'> +1.4594682e-12 </wgt>
<wgt id='1299'> +1.4582868e-12 </wgt>
<wgt id='1300'> +1.4606800e-12 </wgt>
<wgt id='1301'> +1.4555407e-12 </wgt>
<wgt id='1302'> +1.4555830e-12 </wgt>
<wgt id='1303'> +1.4636559e-12 </wgt>
<wgt id='1304'> +1.4572620e-12 </wgt>
<wgt id='1305'> +1.4601597e-12 </wgt>
<wgt id='1306'> +1.4606231e-12 </wgt>
<wgt id='1307'> +1.4569186e-12 </wgt>
<wgt id='1308'> +1.4536887e-12 </wgt>
<wgt id='1309'> +1.4630027e-12 </wgt>
<wgt id='1310'> +1.4565577e-12 </wgt>
<wgt id='1311'> +1.4616038e-12 </wgt>
<wgt id='1312'> +1.4669051e-12 </wgt>
<wgt id='1313'> +1.4509931e-12 </wgt>
<wgt id='1314'> +1.4501821e-12 </wgt>
<wgt id='1315'> +1.4653407e-12 </wgt>
<wgt id='1316'> +1.4655137e-12 </wgt>
<wgt id='1317'> +1.4573344e-12 </wgt>
<wgt id='1318'> +1.4717988e-12 </wgt>
<wgt id='1319'> +1.4440422e-12 </wgt>
<wgt id='1320'> +1.4704596e-12 </wgt>
<wgt id='1321'> +1.4495950e-12 </wgt>
<wgt id='1322'> +1.4592091e-12 </wgt>
<wgt id='1323'> +1.4593191e-12 </wgt>
<wgt id='1324'> +1.4548255e-12 </wgt>
<wgt id='1325'> +1.4679035e-12 </wgt>
<wgt id='1326'> +1.4578508e-12 </wgt>
<wgt id='1327'> +1.4613339e-12 </wgt>
<wgt id='1328'> +1.4585394e-12 </wgt>
<wgt id='1329'> +1.4590289e-12 </wgt>
<wgt id='1330'> +1.4625841e-12 </wgt>
<wgt id='1331'> +1.4577296e-12 </wgt>
<wgt id='1332'> +1.4673301e-12 </wgt>
<wgt id='1333'> +1.4568583e-12 </wgt>
<wgt id='1334'> +1.4564505e-12 </wgt>
<wgt id='1335'> +1.4659678e-12 </wgt>
<wgt id='1336'> +1.4566581e-12 </wgt>
<wgt id='1337'> +1.4613102e-12 </wgt>
<wgt id='1338'> +1.4573395e-12 </wgt>
<wgt id='1339'> +1.4600649e-12 </wgt>
<wgt id='1340'> +1.4320622e-12 </wgt>
<wgt id='1341'> +1.4317312e-12 </wgt>
<wgt id='1342'> +1.4324501e-12 </wgt>
<wgt id='1343'> +1.4324765e-12 </wgt>
<wgt id='1344'> +1.4318090e-12 </wgt>
<wgt id='1345'> +1.4283199e-12 </wgt>
<wgt id='1346'> +1.4355911e-12 </wgt>
<wgt id='1347'> +1.4313671e-12 </wgt>
<wgt id='1348'> +1.4328568e-12 </wgt>
<wgt id='1349'> +1.4322679e-12 </wgt>
<wgt id='1350'> +1.4318380e-12 </wgt>
<wgt id='1351'> +1.4334552e-12 </wgt>
<wgt id='1352'> +1.4291041e-12 </wgt>
<wgt id='1353'> +1.4278846e-12 </wgt>
<wgt id='1354'> +1.4396076e-12 </wgt>
<wgt id='1355'> +1.4309958e-12 </wgt>
<wgt id='1356'> +1.4326797e-12 </wgt>
<wgt id='1357'> +1.4327378e-12 </wgt>
<wgt id='1358'> +1.4311296e-12 </wgt>
<wgt id='1359'> +1.4265267e-12 </wgt>
<wgt id='1360'> +1.4368467e-12 </wgt>
<wgt id='1361'> +1.4304486e-12 </wgt>
<wgt id='1362'> +1.4342864e-12 </wgt>
<wgt id='1363'> +1.4445568e-12 </wgt>
<wgt id='1364'> +1.4239086e-12 </wgt>
<wgt id='1365'> +1.4328249e-12 </wgt>
<wgt id='1366'> +1.4262904e-12 </wgt>
<wgt id='1367'> +1.4384686e-12 </wgt>
<wgt id='1368'> +1.4302848e-12 </wgt>
<wgt id='1369'> +1.4428554e-12 </wgt>
<wgt id='1370'> +1.4194466e-12 </wgt>
<wgt id='1371'> +1.4414581e-12 </wgt>
<wgt id='1372'> +1.4211484e-12 </wgt>
<wgt id='1373'> +1.4305432e-12 </wgt>
<wgt id='1374'> +1.4341823e-12 </wgt>
<wgt id='1375'> +1.4282083e-12 </wgt>
<wgt id='1376'> +1.4411979e-12 </wgt>
<wgt id='1377'> +1.4307444e-12 </wgt>
<wgt id='1378'> +1.4348293e-12 </wgt>
<wgt id='1379'> +1.4316499e-12 </wgt>
<wgt id='1380'> +1.4321439e-12 </wgt>
<wgt id='1381'> +1.4360783e-12 </wgt>
<wgt id='1382'> +1.4305456e-12 </wgt>
<wgt id='1383'> +1.4399334e-12 </wgt>
<wgt id='1384'> +1.4308267e-12 </wgt>
<wgt id='1385'> +1.4297911e-12 </wgt>
<wgt id='1386'> +1.4381448e-12 </wgt>
<wgt id='1387'> +1.4289238e-12 </wgt>
<wgt id='1388'> +1.4347418e-12 </wgt>
<wgt id='1389'> +1.4295791e-12 </wgt>
<wgt id='1390'> +1.4336718e-12 </wgt>
<wgt id='1391'> +1.3919661e-12 </wgt>
<wgt id='1392'> +1.3546856e-12 </wgt>
<wgt id='1393'> +1.3675255e-12 </wgt>
<wgt id='1394'> +1.3798992e-12 </wgt>
<wgt id='1395'> +1.4041768e-12 </wgt>
<wgt id='1396'> +1.3922242e-12 </wgt>
<wgt id='1397'> +1.3822467e-12 </wgt>
<wgt id='1398'> +1.3838313e-12 </wgt>
<wgt id='1399'> +1.3853437e-12 </wgt>
<wgt id='1400'> +1.3873375e-12 </wgt>
<wgt id='1401'> +1.3898199e-12 </wgt>
<wgt id='1402'> +1.3946622e-12 </wgt>
<wgt id='1403'> +1.3974680e-12 </wgt>
<wgt id='1404'> +1.4004900e-12 </wgt>
<wgt id='1405'> +1.3922242e-12 </wgt>
<wgt id='1406'> +1.3885125e-12 </wgt>
<wgt id='1407'> +1.3904641e-12 </wgt>
<wgt id='1408'> +1.3937918e-12 </wgt>
<wgt id='1409'> +1.3951434e-12 </wgt>
<wgt id='1410'> +1.3609512e-12 </wgt>
<wgt id='1411'> +1.3609266e-12 </wgt>
<wgt id='1412'> +1.3609727e-12 </wgt>
<wgt id='1413'> +1.3605314e-12 </wgt>
<wgt id='1414'> +1.3613553e-12 </wgt>
<wgt id='1415'> +1.3615023e-12 </wgt>
<wgt id='1416'> +1.3607153e-12 </wgt>
<wgt id='1417'> +1.3566361e-12 </wgt>
<wgt id='1418'> +1.3651977e-12 </wgt>
<wgt id='1419'> +1.3606324e-12 </wgt>
<wgt id='1420'> +1.3612260e-12 </wgt>
<wgt id='1421'> +1.3555236e-12 </wgt>
<wgt id='1422'> +1.3632517e-12 </wgt>
<wgt id='1423'> +1.3597779e-12 </wgt>
<wgt id='1424'> +1.3623701e-12 </wgt>
<wgt id='1425'> +1.3553763e-12 </wgt>
<wgt id='1426'> +1.3669700e-12 </wgt>
<wgt id='1427'> +1.3542065e-12 </wgt>
<wgt id='1428'> +1.3644052e-12 </wgt>
<wgt id='1429'> +1.3656431e-12 </wgt>
<wgt id='1430'> +1.3544888e-12 </wgt>
<wgt id='1431'> +1.3601955e-12 </wgt>
<wgt id='1432'> +1.3614277e-12 </wgt>
<wgt id='1433'> +1.3581992e-12 </wgt>
<wgt id='1434'> +1.3624514e-12 </wgt>
<wgt id='1435'> +1.3555145e-12 </wgt>
<wgt id='1436'> +1.3741246e-12 </wgt>
<wgt id='1437'> +1.3665388e-12 </wgt>
<wgt id='1438'> +1.3596535e-12 </wgt>
<wgt id='1439'> +1.3544405e-12 </wgt>
<wgt id='1440'> +1.3766170e-12 </wgt>
<wgt id='1441'> +1.3626709e-12 </wgt>
<wgt id='1442'> +1.3571836e-12 </wgt>
<wgt id='1443'> +1.3573521e-12 </wgt>
<wgt id='1444'> +1.3689289e-12 </wgt>
<wgt id='1445'> +1.3732420e-12 </wgt>
<wgt id='1446'> +1.3556210e-12 </wgt>
<wgt id='1447'> +1.3614288e-12 </wgt>
<wgt id='1448'> +1.3620368e-12 </wgt>
<wgt id='1449'> +1.3609584e-12 </wgt>
<wgt id='1450'> +1.3604567e-12 </wgt>
<wgt id='1451'> +1.3599312e-12 </wgt>
<wgt id='1452'> +1.3623084e-12 </wgt>
<wgt id='1453'> +1.3616915e-12 </wgt>
<wgt id='1454'> +1.3562101e-12 </wgt>
<wgt id='1455'> +1.3628845e-12 </wgt>
<wgt id='1456'> +1.3604557e-12 </wgt>
<wgt id='1457'> +1.3642924e-12 </wgt>
<wgt id='1458'> +1.3594635e-12 </wgt>
<wgt id='1459'> +1.3622968e-12 </wgt>
<wgt id='1460'> +1.3608269e-12 </wgt>
<wgt id='1461'> +1.3609512e-12 </wgt>
<wgt id='1462'> +1.3504745e-12 </wgt>
<wgt id='1463'> +1.3687181e-12 </wgt>
<wgt id='1464'> +1.3595237e-12 </wgt>
<wgt id='1465'> +1.3474171e-12 </wgt>
<wgt id='1466'> +1.3494747e-12 </wgt>
<wgt id='1467'> +1.3518191e-12 </wgt>
<wgt id='1468'> +1.3544573e-12 </wgt>
<wgt id='1469'> +1.3568430e-12 </wgt>
<wgt id='1470'> +1.3625469e-12 </wgt>
<wgt id='1471'> +1.3648660e-12 </wgt>
<wgt id='1472'> +1.3676054e-12 </wgt>
<wgt id='1473'> +1.3595237e-12 </wgt>
<wgt id='1474'> +1.3557999e-12 </wgt>
<wgt id='1475'> +1.3577635e-12 </wgt>
<wgt id='1476'> +1.3610336e-12 </wgt>
<wgt id='1477'> +1.3623146e-12 </wgt>
<wgt id='1478'> +1.3674789e-12 </wgt>
<wgt id='1479'> +1.3663678e-12 </wgt>
<wgt id='1480'> +1.3556562e-12 </wgt>
<wgt id='1481'> +1.3663872e-12 </wgt>
<wgt id='1482'> +1.3675956e-12 </wgt>
<wgt id='1483'> +1.3542043e-12 </wgt>
<wgt id='1484'> +1.3594571e-12 </wgt>
<wgt id='1485'> +1.3697817e-12 </wgt>
<wgt id='1486'> +1.3674399e-12 </wgt>
<wgt id='1487'> +1.3735924e-12 </wgt>
<wgt id='1488'> +1.3653175e-12 </wgt>
<wgt id='1489'> +1.3753571e-12 </wgt>
<wgt id='1490'> +1.3650602e-12 </wgt>
<wgt id='1491'> +1.3706061e-12 </wgt>
<wgt id='1492'> +1.3695395e-12 </wgt>
<wgt id='1493'> +1.3550062e-12 </wgt>
<wgt id='1494'> +1.3679713e-12 </wgt>
<wgt id='1495'> +1.3536252e-12 </wgt>
<wgt id='1496'> +1.3682691e-12 </wgt>
<wgt id='1497'> +1.3692848e-12 </wgt>
<wgt id='1498'> +1.3668334e-12 </wgt>
<wgt id='1499'> +1.3699785e-12 </wgt>
<wgt id='1500'> +1.3678940e-12 </wgt>
<wgt id='1501'> +1.3680016e-12 </wgt>
<wgt id='1502'> +1.3670502e-12 </wgt>
<wgt id='1503'> +1.3694543e-12 </wgt>
<wgt id='1504'> +1.3659177e-12 </wgt>
<wgt id='1505'> +1.3692315e-12 </wgt>
<wgt id='1506'> +1.3684390e-12 </wgt>
<wgt id='1507'> +1.3667625e-12 </wgt>
<wgt id='1508'> +1.3716642e-12 </wgt>
<wgt id='1509'> +1.3949391e-12 </wgt>
<wgt id='1510'> +1.3943965e-12 </wgt>
<wgt id='1511'> +1.3962866e-12 </wgt>
<wgt id='1512'> +1.3950168e-12 </wgt>
<wgt id='1513'> +1.3933874e-12 </wgt>
<wgt id='1514'> +1.3969427e-12 </wgt>
<wgt id='1515'> +1.3981873e-12 </wgt>
<wgt id='1516'> +1.3971901e-12 </wgt>
<wgt id='1517'> +1.4004063e-12 </wgt>
<wgt id='1518'> +1.3933399e-12 </wgt>
<wgt id='1519'> +1.3930889e-12 </wgt>
<wgt id='1520'> +1.3982925e-12 </wgt>
<wgt id='1521'> +1.3969450e-12 </wgt>
<wgt id='1522'> +1.3971155e-12 </wgt>
<wgt id='1523'> +1.3976937e-12 </wgt>
<wgt id='1524'> +1.3941863e-12 </wgt>
<wgt id='1525'> +1.3962505e-12 </wgt>
<wgt id='1526'> +1.3952438e-12 </wgt>
<wgt id='1527'> +1.3945817e-12 </wgt>
<wgt id='1528'> +1.3955541e-12 </wgt>
<wgt id='1529'> +1.3956647e-12 </wgt>
<wgt id='1530'> +1.3964289e-12 </wgt>
<wgt id='1531'> +1.3965117e-12 </wgt>
<wgt id='1532'> +1.3906166e-12 </wgt>
<wgt id='1533'> +1.3957393e-12 </wgt>
<wgt id='1534'> +1.3950028e-12 </wgt>
<wgt id='1535'> +1.3892042e-12 </wgt>
<wgt id='1536'> +1.3970798e-12 </wgt>
<wgt id='1537'> +1.3968453e-12 </wgt>
<wgt id='1538'> +1.3847285e-12 </wgt>
<wgt id='1539'> +1.3970863e-12 </wgt>
<wgt id='1540'> +1.3947895e-12 </wgt>
<wgt id='1541'> +1.3926305e-12 </wgt>
<wgt id='1542'> +1.3929836e-12 </wgt>
<wgt id='1543'> +1.3958122e-12 </wgt>
<wgt id='1544'> +1.3943789e-12 </wgt>
<wgt id='1545'> +1.3930543e-12 </wgt>
<wgt id='1546'> +1.3936463e-12 </wgt>
<wgt id='1547'> +1.3936798e-12 </wgt>
<wgt id='1548'> +1.3956537e-12 </wgt>
<wgt id='1549'> +1.3932357e-12 </wgt>
<wgt id='1550'> +1.3948385e-12 </wgt>
<wgt id='1551'> +1.3958794e-12 </wgt>
<wgt id='1552'> +1.3964900e-12 </wgt>
<wgt id='1553'> +1.3946394e-12 </wgt>
<wgt id='1554'> +1.3936050e-12 </wgt>
<wgt id='1555'> +1.3974180e-12 </wgt>
<wgt id='1556'> +1.3987758e-12 </wgt>
<wgt id='1557'> +1.3945062e-12 </wgt>
<wgt id='1558'> +1.3941172e-12 </wgt>
<wgt id='1559'> +1.3920791e-12 </wgt>
<wgt id='1560'> +1.3946996e-12 </wgt>
<wgt id='1561'> +1.3942208e-12 </wgt>
<wgt id='1562'> +1.3948281e-12 </wgt>
<wgt id='1563'> +1.3946395e-12 </wgt>
<wgt id='1564'> +1.3941302e-12 </wgt>
<wgt id='1565'> +1.3955193e-12 </wgt>
<wgt id='1566'> +1.3953859e-12 </wgt>
<wgt id='1567'> +1.3958072e-12 </wgt>
<wgt id='1568'> +1.3937471e-12 </wgt>
<wgt id='1569'> +1.3974240e-12 </wgt>
<wgt id='1570'> +1.3955626e-12 </wgt>
<wgt id='1571'> +1.3955378e-12 </wgt>
<wgt id='1572'> +1.3956808e-12 </wgt>
<wgt id='1573'> +1.3951825e-12 </wgt>
<wgt id='1574'> +1.3960753e-12 </wgt>
<wgt id='1575'> +1.3937435e-12 </wgt>
<wgt id='1576'> +1.3951258e-12 </wgt>
<wgt id='1577'> +1.3955445e-12 </wgt>
<wgt id='1578'> +1.3966317e-12 </wgt>
<wgt id='1579'> +1.3939143e-12 </wgt>
<wgt id='1580'> +1.3941574e-12 </wgt>
<wgt id='1581'> +1.3951498e-12 </wgt>
<wgt id='1582'> +1.3966117e-12 </wgt>
<wgt id='1583'> +1.3942117e-12 </wgt>
<wgt id='1584'> +1.3958454e-12 </wgt>
<wgt id='1585'> +1.3955390e-12 </wgt>
<wgt id='1586'> +1.3947858e-12 </wgt>
<wgt id='1587'> +1.3945456e-12 </wgt>
<wgt id='1588'> +1.3941846e-12 </wgt>
<wgt id='1589'> +1.3957618e-12 </wgt>
<wgt id='1590'> +1.3949470e-12 </wgt>
<wgt id='1591'> +1.3952336e-12 </wgt>
<wgt id='1592'> +1.3942969e-12 </wgt>
<wgt id='1593'> +1.3961206e-12 </wgt>
<wgt id='1594'> +1.3947195e-12 </wgt>
<wgt id='1595'> +1.3953148e-12 </wgt>
<wgt id='1596'> +1.3937506e-12 </wgt>
<wgt id='1597'> +1.3960474e-12 </wgt>
<wgt id='1598'> +1.3945214e-12 </wgt>
<wgt id='1599'> +1.3945242e-12 </wgt>
<wgt id='1600'> +1.3937381e-12 </wgt>
<wgt id='1601'> +1.3948575e-12 </wgt>
<wgt id='1602'> +1.3952584e-12 </wgt>
<wgt id='1603'> +1.3955244e-12 </wgt>
<wgt id='1604'> +1.3954868e-12 </wgt>
<wgt id='1605'> +1.3952029e-12 </wgt>
<wgt id='1606'> +1.3947192e-12 </wgt>
<wgt id='1607'> +1.3943524e-12 </wgt>
<wgt id='1608'> +1.3953666e-12 </wgt>
<wgt id='1609'> +1.3954216e-12 </wgt>
<wgt id='1610'> +1.3781729e-12 </wgt>
<wgt id='1611'> +1.4096858e-12 </wgt>
<wgt id='1612'> +1.5325167e-12 </wgt>
<wgt id='1613'> +1.5167412e-12 </wgt>
<wgt id='1614'> +1.5308217e-12 </wgt>
<wgt id='1615'> +1.5258821e-12 </wgt>
<wgt id='1616'> +1.5047324e-12 </wgt>
<wgt id='1617'> +1.5388318e-12 </wgt>
<wgt id='1618'> +1.4990168e-12 </wgt>
<wgt id='1619'> +1.5208803e-12 </wgt>
<wgt id='1620'> +1.5280861e-12 </wgt>
<wgt id='1621'> +1.5305396e-12 </wgt>
<wgt id='1622'> +1.5511212e-12 </wgt>
<wgt id='1623'> +1.5065768e-12 </wgt>
<wgt id='1624'> +1.5155308e-12 </wgt>
<wgt id='1625'> +1.5339812e-12 </wgt>
<wgt id='1626'> +1.5302767e-12 </wgt>
<wgt id='1627'> +1.5240464e-12 </wgt>
<wgt id='1628'> +1.4607866e-12 </wgt>
<wgt id='1629'> +1.5695856e-12 </wgt>
<wgt id='1630'> +1.5374415e-12 </wgt>
<wgt id='1631'> +1.5321087e-12 </wgt>
<wgt id='1632'> +1.4743367e-12 </wgt>
<wgt id='1633'> +1.5038797e-12 </wgt>
<wgt id='1634'> +1.5611409e-12 </wgt>
<wgt id='1635'> +1.5572092e-12 </wgt>
<wgt id='1636'> +1.5410135e-12 </wgt>
<wgt id='1637'> +1.5425899e-12 </wgt>
<wgt id='1638'> +1.5413116e-12 </wgt>
<wgt id='1639'> +1.5217664e-12 </wgt>
<wgt id='1640'> +1.5436459e-12 </wgt>
<wgt id='1641'> +1.5212728e-12 </wgt>
<wgt id='1642'> +1.5126560e-12 </wgt>
<wgt id='1643'> +1.5277671e-12 </wgt>
<wgt id='1644'> +1.5563924e-12 </wgt>
<wgt id='1645'> +1.5311368e-12 </wgt>
<wgt id='1646'> +1.5585055e-12 </wgt>
<wgt id='1647'> +1.5371926e-12 </wgt>
<wgt id='1648'> +1.5525983e-12 </wgt>
<wgt id='1649'> +1.5136599e-12 </wgt>
<wgt id='1650'> +1.5122008e-12 </wgt>
<wgt id='1651'> +1.4953454e-12 </wgt>
<wgt id='1652'> +1.5180881e-12 </wgt>
<wgt id='1653'> +1.5389116e-12 </wgt>
<wgt id='1654'> +1.5033721e-12 </wgt>
<wgt id='1655'> +1.5140248e-12 </wgt>
<wgt id='1656'> +1.5419439e-12 </wgt>
<wgt id='1657'> +1.5036977e-12 </wgt>
<wgt id='1658'> +1.5026294e-12 </wgt>
<wgt id='1659'> +1.5155308e-12 </wgt>
<wgt id='1660'> +1.5325710e-12 </wgt>
<wgt id='1661'> +1.5708977e-12 </wgt>
<wgt id='1662'> +1.5745184e-12 </wgt>
<wgt id='1663'> +1.5629964e-12 </wgt>
<wgt id='1664'> +1.5243938e-12 </wgt>
<wgt id='1665'> +1.5124646e-12 </wgt>
<wgt id='1666'> +1.5501935e-12 </wgt>
<wgt id='1667'> +1.5239764e-12 </wgt>
<wgt id='1668'> +1.5169916e-12 </wgt>
<wgt id='1669'> +1.5436316e-12 </wgt>
<wgt id='1670'> +1.5484433e-12 </wgt>
<wgt id='1671'> +1.5442475e-12 </wgt>
<wgt id='1672'> +1.5640124e-12 </wgt>
<wgt id='1673'> +1.5161744e-12 </wgt>
<wgt id='1674'> +1.5160915e-12 </wgt>
<wgt id='1675'> +1.5534144e-12 </wgt>
<wgt id='1676'> +1.5283421e-12 </wgt>
<wgt id='1677'> +1.5910907e-12 </wgt>
<wgt id='1678'> +1.5226282e-12 </wgt>
<wgt id='1679'> +1.5409206e-12 </wgt>
<wgt id='1680'> +1.5492884e-12 </wgt>
<wgt id='1681'> +1.5668948e-12 </wgt>
<wgt id='1682'> +1.5417564e-12 </wgt>
<wgt id='1683'> +1.5150139e-12 </wgt>
<wgt id='1684'> +1.5514253e-12 </wgt>
<wgt id='1685'> +1.5202719e-12 </wgt>
<wgt id='1686'> +1.5446635e-12 </wgt>
<wgt id='1687'> +1.5542302e-12 </wgt>
<wgt id='1688'> +1.5045765e-12 </wgt>
<wgt id='1689'> +1.5566711e-12 </wgt>
<wgt id='1690'> +1.5505916e-12 </wgt>
<wgt id='1691'> +1.5412779e-12 </wgt>
<wgt id='1692'> +1.5711629e-12 </wgt>
<wgt id='1693'> +1.5548969e-12 </wgt>
<wgt id='1694'> +1.5298936e-12 </wgt>
<wgt id='1695'> +1.5698025e-12 </wgt>
<wgt id='1696'> +1.5571671e-12 </wgt>
<wgt id='1697'> +1.5113120e-12 </wgt>
<wgt id='1698'> +1.5213855e-12 </wgt>
<wgt id='1699'> +1.5175949e-12 </wgt>
<wgt id='1700'> +1.5282057e-12 </wgt>
<wgt id='1701'> +1.5563751e-12 </wgt>
<wgt id='1702'> +1.5178744e-12 </wgt>
<wgt id='1703'> +1.5436955e-12 </wgt>
<wgt id='1704'> +1.5210768e-12 </wgt>
<wgt id='1705'> +1.4921229e-12 </wgt>
<wgt id='1706'> +1.5385027e-12 </wgt>
<wgt id='1707'> +1.5026576e-12 </wgt>
<wgt id='1708'> +1.5387349e-12 </wgt>
<wgt id='1709'> +1.5411116e-12 </wgt>
<wgt id='1710'> +1.5239431e-12 </wgt>
<wgt id='1711'> +1.5304257e-12 </wgt>
<wgt id='1712'> +1.5484055e-12 </wgt>
<wgt id='1713'> +1.3410024e-12 </wgt>
<wgt id='1714'> +1.3314699e-12 </wgt>
<wgt id='1715'> +1.3394917e-12 </wgt>
<wgt id='1716'> +1.3596439e-12 </wgt>
<wgt id='1717'> +1.3459610e-12 </wgt>
<wgt id='1718'> +1.3636657e-12 </wgt>
<wgt id='1719'> +1.3489463e-12 </wgt>
<wgt id='1720'> +1.3381705e-12 </wgt>
<wgt id='1721'> +1.3120274e-12 </wgt>
<wgt id='1722'> +1.3322399e-12 </wgt>
<wgt id='1723'> +1.3533967e-12 </wgt>
<wgt id='1724'> +1.3788416e-12 </wgt>
<wgt id='1725'> +1.3452573e-12 </wgt>
<wgt id='1726'> +1.3569987e-12 </wgt>
<wgt id='1727'> +1.3483721e-12 </wgt>
<wgt id='1728'> +1.3439348e-12 </wgt>
<wgt id='1729'> +1.3208248e-12 </wgt>
<wgt id='1730'> +1.3227207e-12 </wgt>
<wgt id='1731'> +1.2870465e-12 </wgt>
<wgt id='1732'> +1.3364471e-12 </wgt>
<wgt id='1733'> +1.2987885e-12 </wgt>
<wgt id='1734'> +1.3725167e-12 </wgt>
<wgt id='1735'> +1.3434103e-12 </wgt>
<wgt id='1736'> +1.4012999e-12 </wgt>
<wgt id='1737'> +1.3499999e-12 </wgt>
<wgt id='1738'> +1.3437956e-12 </wgt>
<wgt id='1739'> +1.3296101e-12 </wgt>
<wgt id='1740'> +1.2834954e-12 </wgt>
<wgt id='1741'> +1.3468817e-12 </wgt>
<wgt id='1742'> +1.3168945e-12 </wgt>
<wgt id='1743'> +1.3388590e-12 </wgt>
<wgt id='1744'> +1.3444867e-12 </wgt>
<wgt id='1745'> +1.3499235e-12 </wgt>
<wgt id='1746'> +1.3333012e-12 </wgt>
<wgt id='1747'> +1.3748231e-12 </wgt>
<wgt id='1748'> +1.3260531e-12 </wgt>
<wgt id='1749'> +1.3307643e-12 </wgt>
<wgt id='1750'> +1.3219977e-12 </wgt>
<wgt id='1751'> +1.3238069e-12 </wgt>
<wgt id='1752'> +1.3285654e-12 </wgt>
<wgt id='1753'> +1.3539725e-12 </wgt>
<wgt id='1754'> +1.3569786e-12 </wgt>
<wgt id='1755'> +1.3588228e-12 </wgt>
<wgt id='1756'> +1.3607152e-12 </wgt>
<wgt id='1757'> +1.3440716e-12 </wgt>
<wgt id='1758'> +1.3664283e-12 </wgt>
<wgt id='1759'> +1.3527542e-12 </wgt>
<wgt id='1760'> +1.3226663e-12 </wgt>
<wgt id='1761'> +1.3310759e-12 </wgt>
<wgt id='1762'> +1.3219224e-12 </wgt>
<wgt id='1763'> +1.3518741e-12 </wgt>
<wgt id='1764'> +1.3495651e-12 </wgt>
<wgt id='1765'> +1.3375696e-12 </wgt>
<wgt id='1766'> +1.3726267e-12 </wgt>
<wgt id='1767'> +1.3588081e-12 </wgt>
<wgt id='1768'> +1.3456231e-12 </wgt>
<wgt id='1769'> +1.3338447e-12 </wgt>
<wgt id='1770'> +1.3433772e-12 </wgt>
<wgt id='1771'> +1.3606740e-12 </wgt>
<wgt id='1772'> +1.3358412e-12 </wgt>
<wgt id='1773'> +1.3355351e-12 </wgt>
<wgt id='1774'> +1.3262506e-12 </wgt>
<wgt id='1775'> +1.3356537e-12 </wgt>
<wgt id='1776'> +1.3763698e-12 </wgt>
<wgt id='1777'> +1.2863018e-12 </wgt>
<wgt id='1778'> +1.3279017e-12 </wgt>
<wgt id='1779'> +1.3456662e-12 </wgt>
<wgt id='1780'> +1.3570932e-12 </wgt>
<wgt id='1781'> +1.3432078e-12 </wgt>
<wgt id='1782'> +1.3240716e-12 </wgt>
<wgt id='1783'> +1.3340616e-12 </wgt>
<wgt id='1784'> +1.3613584e-12 </wgt>
<wgt id='1785'> +1.3484549e-12 </wgt>
<wgt id='1786'> +1.3439853e-12 </wgt>
<wgt id='1787'> +1.3796800e-12 </wgt>
<wgt id='1788'> +1.3392243e-12 </wgt>
<wgt id='1789'> +1.3814438e-12 </wgt>
<wgt id='1790'> +1.3675533e-12 </wgt>
<wgt id='1791'> +1.3628175e-12 </wgt>
<wgt id='1792'> +1.3264510e-12 </wgt>
<wgt id='1793'> +1.3377539e-12 </wgt>
<wgt id='1794'> +1.3687970e-12 </wgt>
<wgt id='1795'> +1.3528436e-12 </wgt>
<wgt id='1796'> +1.3071951e-12 </wgt>
<wgt id='1797'> +1.3418371e-12 </wgt>
<wgt id='1798'> +1.3207414e-12 </wgt>
<wgt id='1799'> +1.3329568e-12 </wgt>
<wgt id='1800'> +1.3517386e-12 </wgt>
<wgt id='1801'> +1.3483575e-12 </wgt>
<wgt id='1802'> +1.3275652e-12 </wgt>
<wgt id='1803'> +1.3487703e-12 </wgt>
<wgt id='1804'> +1.3191200e-12 </wgt>
<wgt id='1805'> +1.3283030e-12 </wgt>
<wgt id='1806'> +1.3160584e-12 </wgt>
<wgt id='1807'> +1.3630079e-12 </wgt>
<wgt id='1808'> +1.3027832e-12 </wgt>
<wgt id='1809'> +1.3399582e-12 </wgt>
<wgt id='1810'> +1.3239684e-12 </wgt>
<wgt id='1811'> +1.3613316e-12 </wgt>
<wgt id='1812'> +1.3318175e-12 </wgt>
<wgt id='1813'> +1.2917975e-12 </wgt>
<wgt id='1814'> +1.4978966e-12 </wgt>
<wgt id='1815'> +1.7164616e-12 </wgt>
<wgt id='1816'> +1.3410024e-12 </wgt>
<wgt id='1817'> +1.3314699e-12 </wgt>
<wgt id='1818'> +1.3394917e-12 </wgt>
<wgt id='1819'> +1.3596439e-12 </wgt>
<wgt id='1820'> +1.3459610e-12 </wgt>
<wgt id='1821'> +1.3636657e-12 </wgt>
<wgt id='1822'> +1.3489463e-12 </wgt>
<wgt id='1823'> +1.3381705e-12 </wgt>
<wgt id='1824'> +1.3120274e-12 </wgt>
<wgt id='1825'> +1.3322399e-12 </wgt>
<wgt id='1826'> +1.3533967e-12 </wgt>
<wgt id='1827'> +1.3788416e-12 </wgt>
<wgt id='1828'> +1.3452573e-12 </wgt>
<wgt id='1829'> +1.3569987e-12 </wgt>
<wgt id='1830'> +1.3483721e-12 </wgt>
<wgt id='1831'> +1.3439348e-12 </wgt>
<wgt id='1832'> +1.3208248e-12 </wgt>
<wgt id='1833'> +1.3227207e-12 </wgt>
<wgt id='1834'> +1.2870465e-12 </wgt>
<wgt id='1835'> +1.3364471e-12 </wgt>
<wgt id='1836'> +1.2987885e-12 </wgt>
<wgt id='1837'> +1.3725167e-12 </wgt>
<wgt id='1838'> +1.3434103e-12 </wgt>
<wgt id='1839'> +1.4012999e-12 </wgt>
<wgt id='1840'> +1.3499999e-12 </wgt>
<wgt id='1841'> +1.3437956e-12 </wgt>
<wgt id='1842'> +1.3296101e-12 </wgt>
<wgt id='1843'> +1.2834954e-12 </wgt>
<wgt id='1844'> +1.3468817e-12 </wgt>
<wgt id='1845'> +1.3168945e-12 </wgt>
<wgt id='1846'> +1.3388590e-12 </wgt>
<wgt id='1847'> +1.3444867e-12 </wgt>
<wgt id='1848'> +1.3499235e-12 </wgt>
<wgt id='1849'> +1.3333012e-12 </wgt>
<wgt id='1850'> +1.3748231e-12 </wgt>
<wgt id='1851'> +1.3260531e-12 </wgt>
<wgt id='1852'> +1.3307643e-12 </wgt>
<wgt id='1853'> +1.3219977e-12 </wgt>
<wgt id='1854'> +1.3238069e-12 </wgt>
<wgt id='1855'> +1.3285654e-12 </wgt>
<wgt id='1856'> +1.3539725e-12 </wgt>
<wgt id='1857'> +1.3569786e-12 </wgt>
<wgt id='1858'> +1.3588228e-12 </wgt>
<wgt id='1859'> +1.3607152e-12 </wgt>
<wgt id='1860'> +1.3440716e-12 </wgt>
<wgt id='1861'> +1.3664283e-12 </wgt>
<wgt id='1862'> +1.3527542e-12 </wgt>
<wgt id='1863'> +1.3226663e-12 </wgt>
<wgt id='1864'> +1.3310759e-12 </wgt>
<wgt id='1865'> +1.3219224e-12 </wgt>
<wgt id='1866'> +1.3518741e-12 </wgt>
<wgt id='1867'> +1.3495651e-12 </wgt>
<wgt id='1868'> +1.3375696e-12 </wgt>
<wgt id='1869'> +1.3726267e-12 </wgt>
<wgt id='1870'> +1.3588081e-12 </wgt>
<wgt id='1871'> +1.3456231e-12 </wgt>
<wgt id='1872'> +1.3338447e-12 </wgt>
<wgt id='1873'> +1.3433772e-12 </wgt>
<wgt id='1874'> +1.3606740e-12 </wgt>
<wgt id='1875'> +1.3358412e-12 </wgt>
<wgt id='1876'> +1.3355351e-12 </wgt>
<wgt id='1877'> +1.3262506e-12 </wgt>
<wgt id='1878'> +1.3356537e-12 </wgt>
<wgt id='1879'> +1.3763698e-12 </wgt>
<wgt id='1880'> +1.2863018e-12 </wgt>
<wgt id='1881'> +1.3279017e-12 </wgt>
<wgt id='1882'> +1.3456662e-12 </wgt>
<wgt id='1883'> +1.3570932e-12 </wgt>
<wgt id='1884'> +1.3432078e-12 </wgt>
<wgt id='1885'> +1.3240716e-12 </wgt>
<wgt id='1886'> +1.3340616e-12 </wgt>
<wgt id='1887'> +1.3613584e-12 </wgt>
<wgt id='1888'> +1.3484549e-12 </wgt>
<wgt id='1889'> +1.3439853e-12 </wgt>
<wgt id='1890'> +1.3796800e-12 </wgt>
<wgt id='1891'> +1.3392243e-12 </wgt>
<wgt id='1892'> +1.3814438e-12 </wgt>
<wgt id='1893'> +1.3675533e-12 </wgt>
<wgt id='1894'> +1.3628175e-12 </wgt>
<wgt id='1895'> +1.3264510e-12 </wgt>
<wgt id='1896'> +1.3377539e-12 </wgt>
<wgt id='1897'> +1.3687970e-12 </wgt>
<wgt id='1898'> +1.3528436e-12 </wgt>
<wgt id='1899'> +1.3071951e-12 </wgt>
<wgt id='1900'> +1.3418371e-12 </wgt>
<wgt id='1901'> +1.3207414e-12 </wgt>
<wgt id='1902'> +1.3329568e-12 </wgt>
<wgt id='1903'> +1.3517386e-12 </wgt>
<wgt id='1904'> +1.3483575e-12 </wgt>
<wgt id='1905'> +1.3275652e-12 </wgt>
<wgt id='1906'> +1.3487703e-12 </wgt>
<wgt id='1907'> +1.3191200e-12 </wgt>
<wgt id='1908'> +1.3283030e-12 </wgt>
<wgt id='1909'> +1.3160584e-12 </wgt>
<wgt id='1910'> +1.3630079e-12 </wgt>
<wgt id='1911'> +1.3027832e-12 </wgt>
<wgt id='1912'> +1.3399582e-12 </wgt>
<wgt id='1913'> +1.3239684e-12 </wgt>
<wgt id='1914'> +1.3613316e-12 </wgt>
<wgt id='1915'> +1.3318175e-12 </wgt>
<wgt id='1916'> +1.2917975e-12 </wgt>
<wgt id='1917'> +1.3302832e-12 </wgt>
<wgt id='1918'> +1.3494450e-12 </wgt>
<wgt id='1919'> +1.3411845e-12 </wgt>
</rwgt>
</event>
<event>
 9      1 +1.5538000e-12 5.67772200e+01 7.81860800e-03 1.28119000e-01
        2 -1    0    0  502    0 -0.0000000000e+00 +0.0000000000e+00 +2.1601682953e+02 2.1601682953e+02 0.0000000000e+00 0.0000e+00 -1.0000e+00
       21 -1    0    0  501  502 +0.0000000000e+00 -0.0000000000e+00 -3.7307883304e+00 3.7307883304e+00 0.0000000000e+00 0.0000e+00 -1.0000e+00
     1023  2    1    2    0    0 +3.3037714380e+00 -2.5280770839e+01 +1.4016899552e+02 1.4325643825e+02 1.5000917182e+01 0.0000e+00 0.0000e+00
  1000023  2    3    3    0    0 -3.4324037077e+00 -1.0983244837e+01 +7.0329622195e+01 7.1476682251e+01 5.4997531991e+00 0.0000e+00 0.0000e+00
        2  1    1    2  501    0 -3.3037714380e+00 +2.5280770839e+01 +7.2117045678e+01 7.6491179604e+01 0.0000000000e+00 0.0000e+00 -1.0000e+00
  1000022  1    4    4    0    0 -2.7825188398e+00 -9.4750633566e+00 +6.2199960903e+01 6.3177166548e+01 5.0000000000e+00 0.0000e+00 -1.0000e+00
      -13  1    4    4    0    0 -3.7350540969e-01 -8.5034476562e-01 +5.1193435974e+00 5.2039834617e+00 1.0570000000e-01 0.0000e+00 1.0000e+00
       13  1    4    4    0    0 -2.7637945829e-01 -6.5783671456e-01 +3.0103176942e+00 3.0955322414e+00 1.0570000000e-01 0.0000e+00 -1.0000e+00
  1000022  1    3    3    0    0 +6.7361751457e+00 -1.4297526003e+01 +6.9839373326e+01 7.1779756003e+01 5.0000000000e+00 0.0000e+00 -1.0000e+00
<mgrwt>
<rscale>  1 0.56777216E+02</rscale>
<asrwt>0</asrwt>
<pdfrwt beam="1">  1       21 0.57396760E-03 0.56777216E+02</pdfrwt>
<pdfrwt beam="2">  1        2 0.33233349E-01 0.56777216E+02</pdfrwt>
<totfact> 0.13484782E+07</totfact>
</mgrwt>
<rwgt>
<wgt id='1001'> +1.5538000e-12 </wgt>
<wgt id='1002'> +1.5465098e-12 </wgt>
<wgt id='1003'> +1.5502152e-12 </wgt>
<wgt id='1004'> +1.4543203e-12 </wgt>
<wgt id='1005'> +1.5538000e-12 </wgt>
<wgt id='1006'> +1.3808155e-12 </wgt>
<wgt id='1007'> +1.3722295e-12 </wgt>
<wgt id='1008'> +1.3765799e-12 </wgt>
<wgt id='1009'> +1.2693319e-12 </wgt>
<wgt id='1010'> +1.3808155e-12 </wgt>
<wgt id='1011'> +1.7784564e-12 </wgt>
<wgt id='1012'> +1.7737142e-12 </wgt>
<wgt id='1013'> +1.7761386e-12 </wgt>
<wgt id='1014'> +1.7056417e-12 </wgt>
<wgt id='1015'> +1.7784564e-12 </wgt>
<wgt id='1016'> +1.8047129e-12 </wgt>
<wgt id='1017'> +1.8034225e-12 </wgt>
<wgt id='1018'> +1.8040991e-12 </wgt>
<wgt id='1019'> +1.7761386e-12 </wgt>
<wgt id='1020'> +1.8047129e-12 </wgt>
<wgt id='1021'> +1.6037943e-12 </wgt>
<wgt id='1022'> +1.6001901e-12 </wgt>
<wgt id='1023'> +1.6020271e-12 </wgt>
<wgt id='1024'> +1.5502152e-12 </wgt>
<wgt id='1025'> +1.6037943e-12 </wgt>
<wgt id='1026'> +2.0656476e-12 </wgt>
<wgt id='1027'> +2.0683711e-12 </wgt>
<wgt id='1028'> +2.0670228e-12 </wgt>
<wgt id='1029'> +2.0830735e-12 </wgt>
<wgt id='1030'> +2.0656476e-12 </wgt>
<wgt id='1031'> +1.2761587e-12 </wgt>
<wgt id='1032'> +1.2623927e-12 </wgt>
<wgt id='1033'> +1.2693319e-12 </wgt>
<wgt id='1034'> +1.1040113e-12 </wgt>
<wgt id='1035'> +1.2761587e-12 </wgt>
<wgt id='1036'> +1.1340840e-12 </wgt>
<wgt id='1037'> +1.1201303e-12 </wgt>
<wgt id='1038'> +1.1271576e-12 </wgt>
<wgt id='1039'> +9.6358194e-13 </wgt>
<wgt id='1040'> +1.1340840e-12 </wgt>
<wgt id='1041'> +1.4606723e-12 </wgt>
<wgt id='1042'> +1.4478563e-12 </wgt>
<wgt id='1043'> +1.4543203e-12 </wgt>
<wgt id='1044'> +1.2947957e-12 </wgt>
<wgt id='1045'> +1.4606723e-12 </wgt>
<wgt id='1046'> +1.5538000e-12 </wgt>
<wgt id='1047'> +1.5873766e-12 </wgt>
<wgt id='1048'> +1.5673555e-12 </wgt>
<wgt id='1049'> +1.5196780e-12 </wgt>
<wgt id='1050'> +1.5248133e-12 </wgt>
<wgt id='1051'> +1.5236542e-12 </wgt>
<wgt id='1052'> +1.5417619e-12 </wgt>
<wgt id='1053'> +1.5865393e-12 </wgt>
<wgt id='1054'> +1.5624795e-12 </wgt>
<wgt id='1055'> +1.5191347e-12 </wgt>
<wgt id='1056'> +1.5181974e-12 </wgt>
<wgt id='1057'> +1.5488590e-12 </wgt>
<wgt id='1058'> +1.5108642e-12 </wgt>
<wgt id='1059'> +1.5586242e-12 </wgt>
<wgt id='1060'> +1.5688098e-12 </wgt>
<wgt id='1061'> +1.5716318e-12 </wgt>
<wgt id='1062'> +1.5657247e-12 </wgt>
<wgt id='1063'> +1.5484919e-12 </wgt>
<wgt id='1064'> +1.5472969e-12 </wgt>
<wgt id='1065'> +1.5799053e-12 </wgt>
<wgt id='1066'> +1.5408185e-12 </wgt>
<wgt id='1067'> +1.5425677e-12 </wgt>
<wgt id='1068'> +1.5889505e-12 </wgt>
<wgt id='1069'> +1.5851849e-12 </wgt>
<wgt id='1070'> +1.5568528e-12 </wgt>
<wgt id='1071'> +1.5351010e-12 </wgt>
<wgt id='1072'> +1.5946103e-12 </wgt>
<wgt id='1073'> +1.5564741e-12 </wgt>
<wgt id='1074'> +1.5421982e-12 </wgt>
<wgt id='1075'> +1.5650391e-12 </wgt>
<wgt id='1076'> +1.5333300e-12 </wgt>
<wgt id='1077'> +1.5635948e-12 </wgt>
<wgt id='1078'> +1.5151225e-12 </wgt>
<wgt id='1079'> +1.5394734e-12 </wgt>
<wgt id='1080'> +1.5408326e-12 </wgt>
<wgt id='1081'> +1.5512719e-12 </wgt>
<wgt id='1082'> +1.5373514e-12 </wgt>
<wgt id='1083'> +1.5591572e-12 </wgt>
<wgt id='1084'> +1.5276237e-12 </wgt>
<wgt id='1085'> +1.5561704e-12 </wgt>
<wgt id='1086'> +1.5906048e-12 </wgt>
<wgt id='1087'> +1.5340646e-12 </wgt>
<wgt id='1088'> +1.5652244e-12 </wgt>
<wgt id='1089'> +1.5445386e-12 </wgt>
<wgt id='1090'> +1.5393638e-12 </wgt>
<wgt id='1091'> +1.5691388e-12 </wgt>
<wgt id='1092'> +1.5894494e-12 </wgt>
<wgt id='1093'> +1.5562858e-12 </wgt>
<wgt id='1094'> +1.5846830e-12 </wgt>
<wgt id='1095'> +1.5798582e-12 </wgt>
<wgt id='1096'> +1.5702994e-12 </wgt>
<wgt id='1097'> +1.5517716e-12 </wgt>
<wgt id='1098'> +1.5539376e-12 </wgt>
<wgt id='1099'> +1.5385466e-12 </wgt>
<wgt id='1100'> +1.5874461e-12 </wgt>
<wgt id='1101'> +1.5841336e-12 </wgt>
<wgt id='1102'> +1.5403389e-12 </wgt>
<wgt id='1103'> +1.5929012e-12 </wgt>
<wgt id='1104'> +1.5331935e-12 </wgt>
<wgt id='1105'> +1.5073282e-12 </wgt>
<wgt id='1106'> +1.5768963e-12 </wgt>
<wgt id='1107'> +1.5778643e-12 </wgt>
<wgt id='1108'> +1.5624649e-12 </wgt>
<wgt id='1109'> +1.5627784e-12 </wgt>
<wgt id='1110'> +1.5497104e-12 </wgt>
<wgt id='1111'> +1.5513471e-12 </wgt>
<wgt id='1112'> +1.5327809e-12 </wgt>
<wgt id='1113'> +1.6122829e-12 </wgt>
<wgt id='1114'> +1.5729284e-12 </wgt>
<wgt id='1115'> +1.5705910e-12 </wgt>
<wgt id='1116'> +1.5927603e-12 </wgt>
<wgt id='1117'> +1.5270440e-12 </wgt>
<wgt id='1118'> +1.6270696e-12 </wgt>
<wgt id='1119'> +1.4826628e-12 </wgt>
<wgt id='1120'> +1.5269008e-12 </wgt>
<wgt id='1121'> +1.5354216e-12 </wgt>
<wgt id='1122'> +1.5544403e-12 </wgt>
<wgt id='1123'> +1.5601456e-12 </wgt>
<wgt id='1124'> +1.5471721e-12 </wgt>
<wgt id='1125'> +1.5222740e-12 </wgt>
<wgt id='1126'> +1.5501134e-12 </wgt>
<wgt id='1127'> +1.5632205e-12 </wgt>
<wgt id='1128'> +1.5657247e-12 </wgt>
<wgt id='1129'> +1.5479418e-12 </wgt>
<wgt id='1130'> +1.5422665e-12 </wgt>
<wgt id='1131'> +1.5568883e-12 </wgt>
<wgt id='1132'> +1.5693826e-12 </wgt>
<wgt id='1133'> +1.5255415e-12 </wgt>
<wgt id='1134'> +1.5431074e-12 </wgt>
<wgt id='1135'> +1.5051800e-12 </wgt>
<wgt id='1136'> +1.5227109e-12 </wgt>
<wgt id='1137'> +1.5549999e-12 </wgt>
<wgt id='1138'> +1.5344600e-12 </wgt>
<wgt id='1139'> +1.5491381e-12 </wgt>
<wgt id='1140'> +1.5715507e-12 </wgt>
<wgt id='1141'> +1.5618311e-12 </wgt>
<wgt id='1142'> +1.5480962e-12 </wgt>
<wgt id='1143'> +1.5506275e-12 </wgt>
<wgt id='1144'> +1.5341936e-12 </wgt>
<wgt id='1145'> +1.5819969e-12 </wgt>
<wgt id='1146'> +1.5601137e-12 </wgt>
<wgt id='1147'> +1.3413034e-12 </wgt>
<wgt id='1148'> +1.3687482e-12 </wgt>
<wgt id='1149'> +1.3215561e-12 </wgt>
<wgt id='1150'> +1.3514993e-12 </wgt>
<wgt id='1151'> +1.5321916e-12 </wgt>
<wgt id='1152'> +1.9388361e-12 </wgt>
<wgt id='1153'> +1.9335028e-12 </wgt>
<wgt id='1154'> +1.9418864e-12 </wgt>
<wgt id='1155'> +1.9354614e-12 </wgt>
<wgt id='1156'> +1.9405655e-12 </wgt>
<wgt id='1157'> +1.9418384e-12 </wgt>
<wgt id='1158'> +1.9347192e-12 </wgt>
<wgt id='1159'> +1.9414580e-12 </wgt>
<wgt id='1160'> +1.9371649e-12 </wgt>
<wgt id='1161'> +1.9355847e-12 </wgt>
<wgt id='1162'> +1.9410572e-12 </wgt>
<wgt id='1163'> +1.9407951e-12 </wgt>
<wgt id='1164'> +1.9368805e-12 </wgt>
<wgt id='1165'> +1.9353507e-12 </wgt>
<wgt id='1166'> +1.9419598e-12 </wgt>
<wgt id='1167'> +1.9519718e-12 </wgt>
<wgt id='1168'> +1.9216375e-12 </wgt>
<wgt id='1169'> +1.9421992e-12 </wgt>
<wgt id='1170'> +1.9362807e-12 </wgt>
<wgt id='1171'> +1.9303296e-12 </wgt>
<wgt id='1172'> +1.9493038e-12 </wgt>
<wgt id='1173'> +1.9225785e-12 </wgt>
<wgt id='1174'> +1.9547471e-12 </wgt>
<wgt id='1175'> +1.9421630e-12 </wgt>
<wgt id='1176'> +1.9353398e-12 </wgt>
<wgt id='1177'> +1.9357518e-12 </wgt>
<wgt id='1178'> +1.9472966e-12 </wgt>
<wgt id='1179'> +1.9400390e-12 </wgt>
<wgt id='1180'> +1.9311357e-12 </wgt>
<wgt id='1181'> +1.9410271e-12 </wgt>
<wgt id='1182'> +1.9356623e-12 </wgt>
<wgt id='1183'> +1.9306546e-12 </wgt>
<wgt id='1184'> +1.9394748e-12 </wgt>
<wgt id='1185'> +1.9353438e-12 </wgt>
<wgt id='1186'> +1.9413321e-12 </wgt>
<wgt id='1187'> +1.9402547e-12 </wgt>
<wgt id='1188'> +1.9383702e-12 </wgt>
<wgt id='1189'> +1.9352707e-12 </wgt>
<wgt id='1190'> +1.9228857e-12 </wgt>
<wgt id='1191'> +1.9372748e-12 </wgt>
<wgt id='1192'> +1.9412653e-12 </wgt>
<wgt id='1193'> +1.3363065e-12 </wgt>
<wgt id='1194'> +1.3293685e-12 </wgt>
<wgt id='1195'> +1.3420029e-12 </wgt>
<wgt id='1196'> +1.3402401e-12 </wgt>
<wgt id='1197'> +1.3319198e-12 </wgt>
<wgt id='1198'> +1.3359235e-12 </wgt>
<wgt id='1199'> +1.3368821e-12 </wgt>
<wgt id='1200'> +1.3352448e-12 </wgt>
<wgt id='1201'> +1.3370367e-12 </wgt>
<wgt id='1202'> +1.3350864e-12 </wgt>
<wgt id='1203'> +1.3380291e-12 </wgt>
<wgt id='1204'> +1.3290747e-12 </wgt>
<wgt id='1205'> +1.3406605e-12 </wgt>
<wgt id='1206'> +1.3395047e-12 </wgt>
<wgt id='1207'> +1.3319755e-12 </wgt>
<wgt id='1208'> +1.3355486e-12 </wgt>
<wgt id='1209'> +1.3366022e-12 </wgt>
<wgt id='1210'> +1.3337400e-12 </wgt>
<wgt id='1211'> +1.3327572e-12 </wgt>
<wgt id='1212'> +1.3376792e-12 </wgt>
<wgt id='1213'> +1.3350946e-12 </wgt>
<wgt id='1214'> +1.3224248e-12 </wgt>
<wgt id='1215'> +1.3573942e-12 </wgt>
<wgt id='1216'> +1.3375643e-12 </wgt>
<wgt id='1217'> +1.3349565e-12 </wgt>
<wgt id='1218'> +1.3410015e-12 </wgt>
<wgt id='1219'> +1.3337774e-12 </wgt>
<wgt id='1220'> +1.3422967e-12 </wgt>
<wgt id='1221'> +1.3346640e-12 </wgt>
<wgt id='1222'> +1.3484445e-12 </wgt>
<wgt id='1223'> +1.3171534e-12 </wgt>
<wgt id='1224'> +1.3394444e-12 </wgt>
<wgt id='1225'> +1.3350524e-12 </wgt>
<wgt id='1226'> +1.3343502e-12 </wgt>
<wgt id='1227'> +1.3378116e-12 </wgt>
<wgt id='1228'> +1.3238923e-12 </wgt>
<wgt id='1229'> +1.3415865e-12 </wgt>
<wgt id='1230'> +1.3351415e-12 </wgt>
<wgt id='1231'> +1.3381499e-12 </wgt>
<wgt id='1232'> +1.3338874e-12 </wgt>
<wgt id='1233'> +1.3368994e-12 </wgt>
<wgt id='1234'> +1.3363065e-12 </wgt>
<wgt id='1235'> +1.3284825e-12 </wgt>
<wgt id='1236'> +1.3314398e-12 </wgt>
<wgt id='1237'> +1.3341055e-12 </wgt>
<wgt id='1238'> +1.3384970e-12 </wgt>
<wgt id='1239'> +1.3402571e-12 </wgt>
<wgt id='1240'> +1.3420119e-12 </wgt>
<wgt id='1241'> +1.2864032e-12 </wgt>
<wgt id='1242'> +1.2770790e-12 </wgt>
<wgt id='1243'> +1.2956637e-12 </wgt>
<wgt id='1244'> +1.2837018e-12 </wgt>
<wgt id='1245'> +1.2883518e-12 </wgt>
<wgt id='1246'> +1.2844367e-12 </wgt>
<wgt id='1247'> +1.2881026e-12 </wgt>
<wgt id='1248'> +1.2863887e-12 </wgt>
<wgt id='1249'> +1.2864451e-12 </wgt>
<wgt id='1250'> +1.2878310e-12 </wgt>
<wgt id='1251'> +1.2854148e-12 </wgt>
<wgt id='1252'> +1.2842075e-12 </wgt>
<wgt id='1253'> +1.2881238e-12 </wgt>
<wgt id='1254'> +1.2803287e-12 </wgt>
<wgt id='1255'> +1.2900347e-12 </wgt>
<wgt id='1256'> +1.2872944e-12 </wgt>
<wgt id='1257'> +1.2840689e-12 </wgt>
<wgt id='1258'> +1.3005229e-12 </wgt>
<wgt id='1259'> +1.2726941e-12 </wgt>
<wgt id='1260'> +1.2887312e-12 </wgt>
<wgt id='1261'> +1.2839784e-12 </wgt>
<wgt id='1262'> +1.2832461e-12 </wgt>
<wgt id='1263'> +1.2876548e-12 </wgt>
<wgt id='1264'> +1.2928558e-12 </wgt>
<wgt id='1265'> +1.2833177e-12 </wgt>
<wgt id='1266'> +1.2724347e-12 </wgt>
<wgt id='1267'> +1.2989095e-12 </wgt>
<wgt id='1268'> +1.2910804e-12 </wgt>
<wgt id='1269'> +1.2832973e-12 </wgt>
<wgt id='1270'> +1.2836568e-12 </wgt>
<wgt id='1271'> +1.2858943e-12 </wgt>
<wgt id='1272'> +1.2861903e-12 </wgt>
<wgt id='1273'> +1.2864733e-12 </wgt>
<wgt id='1274'> +1.2877338e-12 </wgt>
<wgt id='1275'> +1.2841464e-12 </wgt>
<wgt id='1276'> +1.2945907e-12 </wgt>
<wgt id='1277'> +1.2749914e-12 </wgt>
<wgt id='1278'> +1.2902318e-12 </wgt>
<wgt id='1279'> +1.2888514e-12 </wgt>
<wgt id='1280'> +1.2872271e-12 </wgt>
<wgt id='1281'> +1.2838632e-12 </wgt>
<wgt id='1282'> +1.2864032e-12 </wgt>
<wgt id='1283'> +1.2788977e-12 </wgt>
<wgt id='1284'> +1.2819182e-12 </wgt>
<wgt id='1285'> +1.2844008e-12 </wgt>
<wgt id='1286'> +1.2885392e-12 </wgt>
<wgt id='1287'> +1.2900711e-12 </wgt>
<wgt id='1288'> +1.2913422e-12 </wgt>
<wgt id='1289'> +1.4098456e-12 </wgt>
<wgt id='1290'> +1.4092090e-12 </wgt>
<wgt id='1291'> +1.4104931e-12 </wgt>
<wgt id='1292'> +1.4085663e-12 </wgt>
<wgt id='1293'> +1.4107314e-12 </wgt>
<wgt id='1294'> +1.3995339e-12 </wgt>
<wgt id='1295'> +1.4198255e-12 </wgt>
<wgt id='1296'> +1.4090180e-12 </wgt>
<wgt id='1297'> +1.4107617e-12 </wgt>
<wgt id='1298'> +1.4141792e-12 </wgt>
<wgt id='1299'> +1.4043651e-12 </wgt>
<wgt id='1300'> +1.4122141e-12 </wgt>
<wgt id='1301'> +1.4049971e-12 </wgt>
<wgt id='1302'> +1.4070444e-12 </wgt>
<wgt id='1303'> +1.4136684e-12 </wgt>
<wgt id='1304'> +1.4076979e-12 </wgt>
<wgt id='1305'> +1.4112809e-12 </wgt>
<wgt id='1306'> +1.4067507e-12 </wgt>
<wgt id='1307'> +1.4131907e-12 </wgt>
<wgt id='1308'> +1.4028854e-12 </wgt>
<wgt id='1309'> +1.4151335e-12 </wgt>
<wgt id='1310'> +1.4075639e-12 </wgt>
<wgt id='1311'> +1.4123496e-12 </wgt>
<wgt id='1312'> +1.4127214e-12 </wgt>
<wgt id='1313'> +1.4069560e-12 </wgt>
<wgt id='1314'> +1.3964266e-12 </wgt>
<wgt id='1315'> +1.4198844e-12 </wgt>
<wgt id='1316'> +1.4182286e-12 </wgt>
<wgt id='1317'> +1.4084777e-12 </wgt>
<wgt id='1318'> +1.4205921e-12 </wgt>
<wgt id='1319'> +1.3966405e-12 </wgt>
<wgt id='1320'> +1.4193754e-12 </wgt>
<wgt id='1321'> +1.4016945e-12 </wgt>
<wgt id='1322'> +1.4091746e-12 </wgt>
<wgt id='1323'> +1.4107275e-12 </wgt>
<wgt id='1324'> +1.4044418e-12 </wgt>
<wgt id='1325'> +1.4270858e-12 </wgt>
<wgt id='1326'> +1.4095010e-12 </wgt>
<wgt id='1327'> +1.4122333e-12 </wgt>
<wgt id='1328'> +1.4099340e-12 </wgt>
<wgt id='1329'> +1.4094665e-12 </wgt>
<wgt id='1330'> +1.4145945e-12 </wgt>
<wgt id='1331'> +1.4081169e-12 </wgt>
<wgt id='1332'> +1.4235901e-12 </wgt>
<wgt id='1333'> +1.4070945e-12 </wgt>
<wgt id='1334'> +1.4078768e-12 </wgt>
<wgt id='1335'> +1.4161739e-12 </wgt>
<wgt id='1336'> +1.4090508e-12 </wgt>
<wgt id='1337'> +1.4130320e-12 </wgt>
<wgt id='1338'> +1.4069314e-12 </wgt>
<wgt id='1339'> +1.4105577e-12 </wgt>
<wgt id='1340'> +1.3805596e-12 </wgt>
<wgt id='1341'> +1.3798891e-12 </wgt>
<wgt id='1342'> +1.3812785e-12 </wgt>
<wgt id='1343'> +1.3793312e-12 </wgt>
<wgt id='1344'> +1.3814146e-12 </wgt>
<wgt id='1345'> +1.3699781e-12 </wgt>
<wgt id='1346'> +1.3904410e-12 </wgt>
<wgt id='1347'> +1.3803189e-12 </wgt>
<wgt id='1348'> +1.3807188e-12 </wgt>
<wgt id='1349'> +1.3845762e-12 </wgt>
<wgt id='1350'> +1.3766513e-12 </wgt>
<wgt id='1351'> +1.3827595e-12 </wgt>
<wgt id='1352'> +1.3757564e-12 </wgt>
<wgt id='1353'> +1.3770084e-12 </wgt>
<wgt id='1354'> +1.3868851e-12 </wgt>
<wgt id='1355'> +1.3789382e-12 </wgt>
<wgt id='1356'> +1.3814747e-12 </wgt>
<wgt id='1357'> +1.3759891e-12 </wgt>
<wgt id='1358'> +1.3858167e-12 </wgt>
<wgt id='1359'> +1.3745596e-12 </wgt>
<wgt id='1360'> +1.3857815e-12 </wgt>
<wgt id='1361'> +1.3789630e-12 </wgt>
<wgt id='1362'> +1.3828334e-12 </wgt>
<wgt id='1363'> +1.3872444e-12 </wgt>
<wgt id='1364'> +1.3763707e-12 </wgt>
<wgt id='1365'> +1.3855655e-12 </wgt>
<wgt id='1366'> +1.3681206e-12 </wgt>
<wgt id='1367'> +1.3888281e-12 </wgt>
<wgt id='1368'> +1.3787116e-12 </wgt>
<wgt id='1369'> +1.3898139e-12 </wgt>
<wgt id='1370'> +1.3693170e-12 </wgt>
<wgt id='1371'> +1.3884068e-12 </wgt>
<wgt id='1372'> +1.3712842e-12 </wgt>
<wgt id='1373'> +1.3777514e-12 </wgt>
<wgt id='1374'> +1.3832829e-12 </wgt>
<wgt id='1375'> +1.3753490e-12 </wgt>
<wgt id='1376'> +1.3983740e-12 </wgt>
<wgt id='1377'> +1.3798695e-12 </wgt>
<wgt id='1378'> +1.3834800e-12 </wgt>
<wgt id='1379'> +1.3806378e-12 </wgt>
<wgt id='1380'> +1.3802242e-12 </wgt>
<wgt id='1381'> +1.3857135e-12 </wgt>
<wgt id='1382'> +1.3782046e-12 </wgt>
<wgt id='1383'> +1.3929141e-12 </wgt>
<wgt id='1384'> +1.3796241e-12 </wgt>
<wgt id='1385'> +1.3789439e-12 </wgt>
<wgt id='1386'> +1.3855339e-12 </wgt>
<wgt id='1387'> +1.3788625e-12 </wgt>
<wgt id='1388'> +1.3837944e-12 </wgt>
<wgt id='1389'> +1.3767577e-12 </wgt>
<wgt id='1390'> +1.3816356e-12 </wgt>
<wgt id='1391'> +1.3531530e-12 </wgt>
<wgt id='1392'> +1.3125839e-12 </wgt>
<wgt id='1393'> +1.3262165e-12 </wgt>
<wgt id='1394'> +1.3404560e-12 </wgt>
<wgt id='1395'> +1.3675352e-12 </wgt>
<wgt id='1396'> +1.3541862e-12 </wgt>
<wgt id='1397'> +1.3281753e-12 </wgt>
<wgt id='1398'> +1.3330074e-12 </wgt>
<wgt id='1399'> +1.3375117e-12 </wgt>
<wgt id='1400'> +1.3426464e-12 </wgt>
<wgt id='1401'> +1.3484201e-12 </wgt>
<wgt id='1402'> +1.3599041e-12 </wgt>
<wgt id='1403'> +1.3658282e-12 </wgt>
<wgt id='1404'> +1.3717952e-12 </wgt>
<wgt id='1405'> +1.3541862e-12 </wgt>
<wgt id='1406'> +1.3495651e-12 </wgt>
<wgt id='1407'> +1.3520049e-12 </wgt>
<wgt id='1408'> +1.3561972e-12 </wgt>
<wgt id='1409'> +1.3581739e-12 </wgt>
<wgt id='1410'> +1.2960784e-12 </wgt>
<wgt id='1411'> +1.2967843e-12 </wgt>
<wgt id='1412'> +1.2951177e-12 </wgt>
<wgt id='1413'> +1.2927252e-12 </wgt>
<wgt id='1414'> +1.2993595e-12 </wgt>
<wgt id='1415'> +1.2927724e-12 </wgt>
<wgt id='1416'> +1.2973861e-12 </wgt>
<wgt id='1417'> +1.2887100e-12 </wgt>
<wgt id='1418'> +1.3033672e-12 </wgt>
<wgt id='1419'> +1.2973917e-12 </wgt>
<wgt id='1420'> +1.2947708e-12 </wgt>
<wgt id='1421'> +1.2852656e-12 </wgt>
<wgt id='1422'> +1.3006700e-12 </wgt>
<wgt id='1423'> +1.2954332e-12 </wgt>
<wgt id='1424'> +1.2968354e-12 </wgt>
<wgt id='1425'> +1.2898071e-12 </wgt>
<wgt id='1426'> +1.3027666e-12 </wgt>
<wgt id='1427'> +1.2784086e-12 </wgt>
<wgt id='1428'> +1.3056211e-12 </wgt>
<wgt id='1429'> +1.2985939e-12 </wgt>
<wgt id='1430'> +1.2926395e-12 </wgt>
<wgt id='1431'> +1.2957081e-12 </wgt>
<wgt id='1432'> +1.2962044e-12 </wgt>
<wgt id='1433'> +1.2894464e-12 </wgt>
<wgt id='1434'> +1.3004265e-12 </wgt>
<wgt id='1435'> +1.2918087e-12 </wgt>
<wgt id='1436'> +1.3064323e-12 </wgt>
<wgt id='1437'> +1.3037252e-12 </wgt>
<wgt id='1438'> +1.2951733e-12 </wgt>
<wgt id='1439'> +1.2906826e-12 </wgt>
<wgt id='1440'> +1.3068036e-12 </wgt>
<wgt id='1441'> +1.2977370e-12 </wgt>
<wgt id='1442'> +1.2936768e-12 </wgt>
<wgt id='1443'> +1.2923635e-12 </wgt>
<wgt id='1444'> +1.3053843e-12 </wgt>
<wgt id='1445'> +1.3143904e-12 </wgt>
<wgt id='1446'> +1.2897420e-12 </wgt>
<wgt id='1447'> +1.2955089e-12 </wgt>
<wgt id='1448'> +1.2999631e-12 </wgt>
<wgt id='1449'> +1.2966844e-12 </wgt>
<wgt id='1450'> +1.2952081e-12 </wgt>
<wgt id='1451'> +1.2945175e-12 </wgt>
<wgt id='1452'> +1.3003852e-12 </wgt>
<wgt id='1453'> +1.2968064e-12 </wgt>
<wgt id='1454'> +1.2894245e-12 </wgt>
<wgt id='1455'> +1.2996006e-12 </wgt>
<wgt id='1456'> +1.2987617e-12 </wgt>
<wgt id='1457'> +1.2995524e-12 </wgt>
<wgt id='1458'> +1.2951092e-12 </wgt>
<wgt id='1459'> +1.2997272e-12 </wgt>
<wgt id='1460'> +1.2981565e-12 </wgt>
<wgt id='1461'> +1.2960784e-12 </wgt>
<wgt id='1462'> +1.2847824e-12 </wgt>
<wgt id='1463'> +1.3039158e-12 </wgt>
<wgt id='1464'> +1.2947075e-12 </wgt>
<wgt id='1465'> +1.2685079e-12 </wgt>
<wgt id='1466'> +1.2733463e-12 </wgt>
<wgt id='1467'> +1.2788503e-12 </wgt>
<wgt id='1468'> +1.2845657e-12 </wgt>
<wgt id='1469'> +1.2893431e-12 </wgt>
<wgt id='1470'> +1.3004435e-12 </wgt>
<wgt id='1471'> +1.3051350e-12 </wgt>
<wgt id='1472'> +1.3105763e-12 </wgt>
<wgt id='1473'> +1.2947075e-12 </wgt>
<wgt id='1474'> +1.2904217e-12 </wgt>
<wgt id='1475'> +1.2925575e-12 </wgt>
<wgt id='1476'> +1.2964953e-12 </wgt>
<wgt id='1477'> +1.2980290e-12 </wgt>
<wgt id='1478'> +1.3161008e-12 </wgt>
<wgt id='1479'> +1.3150865e-12 </wgt>
<wgt id='1480'> +1.3041729e-12 </wgt>
<wgt id='1481'> +1.3238510e-12 </wgt>
<wgt id='1482'> +1.3152168e-12 </wgt>
<wgt id='1483'> +1.3037281e-12 </wgt>
<wgt id='1484'> +1.3126621e-12 </wgt>
<wgt id='1485'> +1.3157685e-12 </wgt>
<wgt id='1486'> +1.3161582e-12 </wgt>
<wgt id='1487'> +1.3197912e-12 </wgt>
<wgt id='1488'> +1.3135926e-12 </wgt>
<wgt id='1489'> +1.3225478e-12 </wgt>
<wgt id='1490'> +1.3117338e-12 </wgt>
<wgt id='1491'> +1.3188601e-12 </wgt>
<wgt id='1492'> +1.3191881e-12 </wgt>
<wgt id='1493'> +1.2985808e-12 </wgt>
<wgt id='1494'> +1.3162025e-12 </wgt>
<wgt id='1495'> +1.2996805e-12 </wgt>
<wgt id='1496'> +1.3157441e-12 </wgt>
<wgt id='1497'> +1.3172653e-12 </wgt>
<wgt id='1498'> +1.3163813e-12 </wgt>
<wgt id='1499'> +1.3174229e-12 </wgt>
<wgt id='1500'> +1.3153462e-12 </wgt>
<wgt id='1501'> +1.3166991e-12 </wgt>
<wgt id='1502'> +1.3191522e-12 </wgt>
<wgt id='1503'> +1.3195143e-12 </wgt>
<wgt id='1504'> +1.3148350e-12 </wgt>
<wgt id='1505'> +1.3167831e-12 </wgt>
<wgt id='1506'> +1.3160551e-12 </wgt>
<wgt id='1507'> +1.3158897e-12 </wgt>
<wgt id='1508'> +1.3210570e-12 </wgt>
<wgt id='1509'> +1.3211198e-12 </wgt>
<wgt id='1510'> +1.3216642e-12 </wgt>
<wgt id='1511'> +1.3165672e-12 </wgt>
<wgt id='1512'> +1.3152877e-12 </wgt>
<wgt id='1513'> +1.3208753e-12 </wgt>
<wgt id='1514'> +1.3261619e-12 </wgt>
<wgt id='1515'> +1.3242032e-12 </wgt>
<wgt id='1516'> +1.3264201e-12 </wgt>
<wgt id='1517'> +1.3249574e-12 </wgt>
<wgt id='1518'> +1.3217923e-12 </wgt>
<wgt id='1519'> +1.3176390e-12 </wgt>
<wgt id='1520'> +1.3219239e-12 </wgt>
<wgt id='1521'> +1.3234085e-12 </wgt>
<wgt id='1522'> +1.3214955e-12 </wgt>
<wgt id='1523'> +1.3265149e-12 </wgt>
<wgt id='1524'> +1.3223390e-12 </wgt>
<wgt id='1525'> +1.3242580e-12 </wgt>
<wgt id='1526'> +1.3200482e-12 </wgt>
<wgt id='1527'> +1.3200282e-12 </wgt>
<wgt id='1528'> +1.3221104e-12 </wgt>
<wgt id='1529'> +1.3205862e-12 </wgt>
<wgt id='1530'> +1.3253142e-12 </wgt>
<wgt id='1531'> +1.3226233e-12 </wgt>
<wgt id='1532'> +1.3160078e-12 </wgt>
<wgt id='1533'> +1.3210615e-12 </wgt>
<wgt id='1534'> +1.3237622e-12 </wgt>
<wgt id='1535'> +1.3140967e-12 </wgt>
<wgt id='1536'> +1.3208263e-12 </wgt>
<wgt id='1537'> +1.3198463e-12 </wgt>
<wgt id='1538'> +1.3167014e-12 </wgt>
<wgt id='1539'> +1.3282014e-12 </wgt>
<wgt id='1540'> +1.3226269e-12 </wgt>
<wgt id='1541'> +1.3198027e-12 </wgt>
<wgt id='1542'> +1.3193955e-12 </wgt>
<wgt id='1543'> +1.3221714e-12 </wgt>
<wgt id='1544'> +1.3215167e-12 </wgt>
<wgt id='1545'> +1.3192670e-12 </wgt>
<wgt id='1546'> +1.3181561e-12 </wgt>
<wgt id='1547'> +1.3213911e-12 </wgt>
<wgt id='1548'> +1.3206294e-12 </wgt>
<wgt id='1549'> +1.3205403e-12 </wgt>
<wgt id='1550'> +1.3214285e-12 </wgt>
<wgt id='1551'> +1.3217319e-12 </wgt>
<wgt id='1552'> +1.3229266e-12 </wgt>
<wgt id='1553'> +1.3201152e-12 </wgt>
<wgt id='1554'> +1.3211500e-12 </wgt>
<wgt id='1555'> +1.3217369e-12 </wgt>
<wgt id='1556'> +1.3214425e-12 </wgt>
<wgt id='1557'> +1.3223145e-12 </wgt>
<wgt id='1558'> +1.3181581e-12 </wgt>
<wgt id='1559'> +1.3197372e-12 </wgt>
<wgt id='1560'> +1.3220658e-12 </wgt>
<wgt id='1561'> +1.3198887e-12 </wgt>
<wgt id='1562'> +1.3219469e-12 </wgt>
<wgt id='1563'> +1.3216937e-12 </wgt>
<wgt id='1564'> +1.3225709e-12 </wgt>
<wgt id='1565'> +1.3198678e-12 </wgt>
<wgt id='1566'> +1.3219462e-12 </wgt>
<wgt id='1567'> +1.3224778e-12 </wgt>
<wgt id='1568'> +1.3197379e-12 </wgt>
<wgt id='1569'> +1.3215671e-12 </wgt>
<wgt id='1570'> +1.3212336e-12 </wgt>
<wgt id='1571'> +1.3204207e-12 </wgt>
<wgt id='1572'> +1.3207506e-12 </wgt>
<wgt id='1573'> +1.3219905e-12 </wgt>
<wgt id='1574'> +1.3205275e-12 </wgt>
<wgt id='1575'> +1.3207067e-12 </wgt>
<wgt id='1576'> +1.3208774e-12 </wgt>
<wgt id='1577'> +1.3222134e-12 </wgt>
<wgt id='1578'> +1.3225226e-12 </wgt>
<wgt id='1579'> +1.3205114e-12 </wgt>
<wgt id='1580'> +1.3204348e-12 </wgt>
<wgt id='1581'> +1.3217974e-12 </wgt>
<wgt id='1582'> +1.3237929e-12 </wgt>
<wgt id='1583'> +1.3205637e-12 </wgt>
<wgt id='1584'> +1.3218570e-12 </wgt>
<wgt id='1585'> +1.3215693e-12 </wgt>
<wgt id='1586'> +1.3207878e-12 </wgt>
<wgt id='1587'> +1.3220694e-12 </wgt>
<wgt id='1588'> +1.3215176e-12 </wgt>
<wgt id='1589'> +1.3205431e-12 </wgt>
<wgt id='1590'> +1.3215530e-12 </wgt>
<wgt id='1591'> +1.3213128e-12 </wgt>
<wgt id='1592'> +1.3220087e-12 </wgt>
<wgt id='1593'> +1.3209889e-12 </wgt>
<wgt id='1594'> +1.3207716e-12 </wgt>
<wgt id='1595'> +1.3209718e-12 </wgt>
<wgt id='1596'> +1.3204892e-12 </wgt>
<wgt id='1597'> +1.3214982e-12 </wgt>
<wgt id='1598'> +1.3209142e-12 </wgt>
<wgt id='1599'> +1.3196393e-12 </wgt>
<wgt id='1600'> +1.3213241e-12 </wgt>
<wgt id='1601'> +1.3216943e-12 </wgt>
<wgt id='1602'> +1.3215609e-12 </wgt>
<wgt id='1603'> +1.3204601e-12 </wgt>
<wgt id='1604'> +1.3202720e-12 </wgt>
<wgt id='1605'> +1.3210089e-12 </wgt>
<wgt id='1606'> +1.3211137e-12 </wgt>
<wgt id='1607'> +1.3212435e-12 </wgt>
<wgt id='1608'> +1.3213535e-12 </wgt>
<wgt id='1609'> +1.3217060e-12 </wgt>
<wgt id='1610'> +1.3075802e-12 </wgt>
<wgt id='1611'> +1.3351404e-12 </wgt>
<wgt id='1612'> +1.5305062e-12 </wgt>
<wgt id='1613'> +1.4912548e-12 </wgt>
<wgt id='1614'> +1.5068355e-12 </wgt>
<wgt id='1615'> +1.5351555e-12 </wgt>
<wgt id='1616'> +1.4919213e-12 </wgt>
<wgt id='1617'> +1.5506437e-12 </wgt>
<wgt id='1618'> +1.5467382e-12 </wgt>
<wgt id='1619'> +1.5293411e-12 </wgt>
<wgt id='1620'> +1.4946131e-12 </wgt>
<wgt id='1621'> +1.5620446e-12 </wgt>
<wgt id='1622'> +1.5265592e-12 </wgt>
<wgt id='1623'> +1.5175303e-12 </wgt>
<wgt id='1624'> +1.5342702e-12 </wgt>
<wgt id='1625'> +1.5295982e-12 </wgt>
<wgt id='1626'> +1.5135152e-12 </wgt>
<wgt id='1627'> +1.5266967e-12 </wgt>
<wgt id='1628'> +1.4897323e-12 </wgt>
<wgt id='1629'> +1.5816983e-12 </wgt>
<wgt id='1630'> +1.5154143e-12 </wgt>
<wgt id='1631'> +1.5337646e-12 </wgt>
<wgt id='1632'> +1.4915153e-12 </wgt>
<wgt id='1633'> +1.4953660e-12 </wgt>
<wgt id='1634'> +1.5440930e-12 </wgt>
<wgt id='1635'> +1.5509148e-12 </wgt>
<wgt id='1636'> +1.5688978e-12 </wgt>
<wgt id='1637'> +1.5408591e-12 </wgt>
<wgt id='1638'> +1.5513633e-12 </wgt>
<wgt id='1639'> +1.5043487e-12 </wgt>
<wgt id='1640'> +1.5445487e-12 </wgt>
<wgt id='1641'> +1.5137830e-12 </wgt>
<wgt id='1642'> +1.5209270e-12 </wgt>
<wgt id='1643'> +1.4964912e-12 </wgt>
<wgt id='1644'> +1.5526132e-12 </wgt>
<wgt id='1645'> +1.5394276e-12 </wgt>
<wgt id='1646'> +1.5265057e-12 </wgt>
<wgt id='1647'> +1.5242685e-12 </wgt>
<wgt id='1648'> +1.5663743e-12 </wgt>
<wgt id='1649'> +1.5437072e-12 </wgt>
<wgt id='1650'> +1.5168748e-12 </wgt>
<wgt id='1651'> +1.5063252e-12 </wgt>
<wgt id='1652'> +1.5079006e-12 </wgt>
<wgt id='1653'> +1.5427004e-12 </wgt>
<wgt id='1654'> +1.5317998e-12 </wgt>
<wgt id='1655'> +1.5278489e-12 </wgt>
<wgt id='1656'> +1.5192275e-12 </wgt>
<wgt id='1657'> +1.5140756e-12 </wgt>
<wgt id='1658'> +1.5159572e-12 </wgt>
<wgt id='1659'> +1.5342702e-12 </wgt>
<wgt id='1660'> +1.5693016e-12 </wgt>
<wgt id='1661'> +1.5379963e-12 </wgt>
<wgt id='1662'> +1.5605787e-12 </wgt>
<wgt id='1663'> +1.5214056e-12 </wgt>
<wgt id='1664'> +1.5374032e-12 </wgt>
<wgt id='1665'> +1.4767271e-12 </wgt>
<wgt id='1666'> +1.5274336e-12 </wgt>
<wgt id='1667'> +1.5202349e-12 </wgt>
<wgt id='1668'> +1.5618473e-12 </wgt>
<wgt id='1669'> +1.5547796e-12 </wgt>
<wgt id='1670'> +1.5521249e-12 </wgt>
<wgt id='1671'> +1.5489371e-12 </wgt>
<wgt id='1672'> +1.5697948e-12 </wgt>
<wgt id='1673'> +1.5094671e-12 </wgt>
<wgt id='1674'> +1.4735607e-12 </wgt>
<wgt id='1675'> +1.5444354e-12 </wgt>
<wgt id='1676'> +1.5452892e-12 </wgt>
<wgt id='1677'> +1.5748684e-12 </wgt>
<wgt id='1678'> +1.5190345e-12 </wgt>
<wgt id='1679'> +1.5180507e-12 </wgt>
<wgt id='1680'> +1.5488662e-12 </wgt>
<wgt id='1681'> +1.5504157e-12 </wgt>
<wgt id='1682'> +1.5318647e-12 </wgt>
<wgt id='1683'> +1.4956837e-12 </wgt>
<wgt id='1684'> +1.5425815e-12 </wgt>
<wgt id='1685'> +1.5129628e-12 </wgt>
<wgt id='1686'> +1.5324068e-12 </wgt>
<wgt id='1687'> +1.5464415e-12 </wgt>
<wgt id='1688'> +1.5124307e-12 </wgt>
<wgt id='1689'> +1.5577660e-12 </wgt>
<wgt id='1690'> +1.5397143e-12 </wgt>
<wgt id='1691'> +1.5380794e-12 </wgt>
<wgt id='1692'> +1.5784898e-12 </wgt>
<wgt id='1693'> +1.5452607e-12 </wgt>
<wgt id='1694'> +1.5468280e-12 </wgt>
<wgt id='1695'> +1.5657682e-12 </wgt>
<wgt id='1696'> +1.5355397e-12 </wgt>
<wgt id='1697'> +1.5036775e-12 </wgt>
<wgt id='1698'> +1.5274852e-12 </wgt>
<wgt id='1699'> +1.5249696e-12 </wgt>
<wgt id='1700'> +1.5152852e-12 </wgt>
<wgt id='1701'> +1.5545446e-12 </wgt>
<wgt id='1702'> +1.5070284e-12 </wgt>
<wgt id='1703'> +1.5377748e-12 </wgt>
<wgt id='1704'> +1.5316426e-12 </wgt>
<wgt id='1705'> +1.4727941e-12 </wgt>
<wgt id='1706'> +1.5470846e-12 </wgt>
<wgt id='1707'> +1.5132062e-12 </wgt>
<wgt id='1708'> +1.5451561e-12 </wgt>
<wgt id='1709'> +1.5448444e-12 </wgt>
<wgt id='1710'> +1.5084706e-12 </wgt>
<wgt id='1711'> +1.5009354e-12 </wgt>
<wgt id='1712'> +1.5398636e-12 </wgt>
<wgt id='1713'> +1.2757328e-12 </wgt>
<wgt id='1714'> +1.2516628e-12 </wgt>
<wgt id='1715'> +1.2557392e-12 </wgt>
<wgt id='1716'> +1.2988479e-12 </wgt>
<wgt id='1717'> +1.2750153e-12 </wgt>
<wgt id='1718'> +1.2849209e-12 </wgt>
<wgt id='1719'> +1.2741623e-12 </wgt>
<wgt id='1720'> +1.2697009e-12 </wgt>
<wgt id='1721'> +1.2550375e-12 </wgt>
<wgt id='1722'> +1.2619976e-12 </wgt>
<wgt id='1723'> +1.2889504e-12 </wgt>
<wgt id='1724'> +1.3298338e-12 </wgt>
<wgt id='1725'> +1.2760719e-12 </wgt>
<wgt id='1726'> +1.2700281e-12 </wgt>
<wgt id='1727'> +1.3106609e-12 </wgt>
<wgt id='1728'> +1.2711546e-12 </wgt>
<wgt id='1729'> +1.2344453e-12 </wgt>
<wgt id='1730'> +1.2771510e-12 </wgt>
<wgt id='1731'> +1.2203438e-12 </wgt>
<wgt id='1732'> +1.2915020e-12 </wgt>
<wgt id='1733'> +1.2244023e-12 </wgt>
<wgt id='1734'> +1.3175222e-12 </wgt>
<wgt id='1735'> +1.2663352e-12 </wgt>
<wgt id='1736'> +1.3121696e-12 </wgt>
<wgt id='1737'> +1.3052516e-12 </wgt>
<wgt id='1738'> +1.2802960e-12 </wgt>
<wgt id='1739'> +1.2626681e-12 </wgt>
<wgt id='1740'> +1.2197947e-12 </wgt>
<wgt id='1741'> +1.3195408e-12 </wgt>
<wgt id='1742'> +1.2570589e-12 </wgt>
<wgt id='1743'> +1.2529747e-12 </wgt>
<wgt id='1744'> +1.2893932e-12 </wgt>
<wgt id='1745'> +1.2811052e-12 </wgt>
<wgt id='1746'> +1.2730484e-12 </wgt>
<wgt id='1747'> +1.2977098e-12 </wgt>
<wgt id='1748'> +1.2506856e-12 </wgt>
<wgt id='1749'> +1.2627508e-12 </wgt>
<wgt id='1750'> +1.2589193e-12 </wgt>
<wgt id='1751'> +1.2488771e-12 </wgt>
<wgt id='1752'> +1.2569101e-12 </wgt>
<wgt id='1753'> +1.2869426e-12 </wgt>
<wgt id='1754'> +1.3019173e-12 </wgt>
<wgt id='1755'> +1.2888431e-12 </wgt>
<wgt id='1756'> +1.2909268e-12 </wgt>
<wgt id='1757'> +1.2715054e-12 </wgt>
<wgt id='1758'> +1.3129116e-12 </wgt>
<wgt id='1759'> +1.2803109e-12 </wgt>
<wgt id='1760'> +1.2618312e-12 </wgt>
<wgt id='1761'> +1.2714100e-12 </wgt>
<wgt id='1762'> +1.2421019e-12 </wgt>
<wgt id='1763'> +1.2909231e-12 </wgt>
<wgt id='1764'> +1.2995553e-12 </wgt>
<wgt id='1765'> +1.2535573e-12 </wgt>
<wgt id='1766'> +1.3038323e-12 </wgt>
<wgt id='1767'> +1.2895450e-12 </wgt>
<wgt id='1768'> +1.2887475e-12 </wgt>
<wgt id='1769'> +1.2774289e-12 </wgt>
<wgt id='1770'> +1.2536702e-12 </wgt>
<wgt id='1771'> +1.3068606e-12 </wgt>
<wgt id='1772'> +1.2749328e-12 </wgt>
<wgt id='1773'> +1.2688320e-12 </wgt>
<wgt id='1774'> +1.2516167e-12 </wgt>
<wgt id='1775'> +1.2772463e-12 </wgt>
<wgt id='1776'> +1.3234062e-12 </wgt>
<wgt id='1777'> +1.2338385e-12 </wgt>
<wgt id='1778'> +1.2739663e-12 </wgt>
<wgt id='1779'> +1.2770557e-12 </wgt>
<wgt id='1780'> +1.2933762e-12 </wgt>
<wgt id='1781'> +1.2803349e-12 </wgt>
<wgt id='1782'> +1.2677055e-12 </wgt>
<wgt id='1783'> +1.2748584e-12 </wgt>
<wgt id='1784'> +1.2836967e-12 </wgt>
<wgt id='1785'> +1.2850753e-12 </wgt>
<wgt id='1786'> +1.2818271e-12 </wgt>
<wgt id='1787'> +1.3226711e-12 </wgt>
<wgt id='1788'> +1.2846479e-12 </wgt>
<wgt id='1789'> +1.3226646e-12 </wgt>
<wgt id='1790'> +1.2900614e-12 </wgt>
<wgt id='1791'> +1.2748782e-12 </wgt>
<wgt id='1792'> +1.2557781e-12 </wgt>
<wgt id='1793'> +1.2696966e-12 </wgt>
<wgt id='1794'> +1.3021192e-12 </wgt>
<wgt id='1795'> +1.2825049e-12 </wgt>
<wgt id='1796'> +1.2528384e-12 </wgt>
<wgt id='1797'> +1.2819457e-12 </wgt>
<wgt id='1798'> +1.2747868e-12 </wgt>
<wgt id='1799'> +1.2901641e-12 </wgt>
<wgt id='1800'> +1.2973354e-12 </wgt>
<wgt id='1801'> +1.2760315e-12 </wgt>
<wgt id='1802'> +1.2632684e-12 </wgt>
<wgt id='1803'> +1.3037424e-12 </wgt>
<wgt id='1804'> +1.2591134e-12 </wgt>
<wgt id='1805'> +1.2402658e-12 </wgt>
<wgt id='1806'> +1.2453521e-12 </wgt>
<wgt id='1807'> +1.2941040e-12 </wgt>
<wgt id='1808'> +1.2576242e-12 </wgt>
<wgt id='1809'> +1.2724642e-12 </wgt>
<wgt id='1810'> +1.2626178e-12 </wgt>
<wgt id='1811'> +1.2789639e-12 </wgt>
<wgt id='1812'> +1.2583538e-12 </wgt>
<wgt id='1813'> +1.2099976e-12 </wgt>
<wgt id='1814'> +1.5438032e-12 </wgt>
<wgt id='1815'> +1.8127949e-12 </wgt>
<wgt id='1816'> +1.2757328e-12 </wgt>
<wgt id='1817'> +1.2516628e-12 </wgt>
<wgt id='1818'> +1.2557392e-12 </wgt>
<wgt id='1819'> +1.2988479e-12 </wgt>
<wgt id='1820'> +1.2750153e-12 </wgt>
<wgt id='1821'> +1.2849209e-12 </wgt>
<wgt id='1822'> +1.2741623e-12 </wgt>
<wgt id='1823'> +1.2697009e-12 </wgt>
<wgt id='1824'> +1.2550375e-12 </wgt>
<wgt id='1825'> +1.2619976e-12 </wgt>
<wgt id='1826'> +1.2889504e-12 </wgt>
<wgt id='1827'> +1.3298338e-12 </wgt>
<wgt id='1828'> +1.2760719e-12 </wgt>
<wgt id='1829'> +1.2700281e-12 </wgt>
<wgt id='1830'> +1.3106609e-12 </wgt>
<wgt id='1831'> +1.2711546e-12 </wgt>
<wgt id='1832'> +1.2344453e-12 </wgt>
<wgt id='1833'> +1.2771510e-12 </wgt>
<wgt id='1834'> +1.2203438e-12 </wgt>
<wgt id='1835'> +1.2915020e-12 </wgt>
<wgt id='1836'> +1.2244023e-12 </wgt>
<wgt id='1837'> +1.3175222e-12 </wgt>
<wgt id='1838'> +1.2663352e-12 </wgt>
<wgt id='1839'> +1.3121696e-12 </wgt>
<wgt id='1840'> +1.3052516e-12 </wgt>
<wgt id='1841'> +1.2802960e-12 </wgt>
<wgt id='1842'> +1.2626681e-12 </wgt>
<wgt id='1843'> +1.2197947e-12 </wgt>
<wgt id='1844'> +1.3195408e-12 </wgt>
<wgt id='1845'> +1.2570589e-12 </wgt>
<wgt id='1846'> +1.2529747e-12 </wgt>
<wgt id='1847'> +1.2893932e-12 </wgt>
<wgt id='1848'> +1.2811052e-12 </wgt>
<wgt id='1849'> +1.2730484e-12 </wgt>
<wgt id='1850'> +1.2977098e-12 </wgt>
<wgt id='1851'> +1.2506856e-12 </wgt>
<wgt id='1852'> +1.2627508e-12 </wgt>
<wgt id='1853'> +1.2589193e-12 </wgt>
<wgt id='1854'> +1.2488771e-12 </wgt>
<wgt id='1855'> +1.2569101e-12 </wgt>
<wgt id='1856'> +1.2869426e-12 </wgt>
<wgt id='1857'> +1.3019173e-12 </wgt>
<wgt id='1858'> +1.2888431e-12 </wgt>
<wgt id='1859'> +1.2909268e-12 </wgt>
<wgt id='1860'> +1.2715054e-12 </wgt>
<wgt id='1861'> +1.3129116e-12 </wgt>
<wgt id='1862'> +1.2803109e-12 </wgt>
<wgt id='1863'> +1.2618312e-12 </wgt>
<wgt id='1864'> +1.2714100e-12 </wgt>
<wgt id='1865'> +1.2421019e-12 </wgt>
<wgt id='1866'> +1.2909231e-12 </wgt>
<wgt id='1867'> +1.2995553e-12 </wgt>
<wgt id='1868'> +1.2535573e-12 </wgt>
<wgt id='1869'> +1.3038323e-12 </wgt>
<wgt id='1870'> +1.2895450e-12 </wgt>
<wgt id='1871'> +1.2887475e-12 </wgt>
<wgt id='1872'> +1.2774289e-12 </wgt>
<wgt id='1873'> +1.2536702e-12 </wgt>
<wgt id='1874'> +1.3068606e-12 </wgt>
<wgt id='1875'> +1.2749328e-12 </wgt>
<wgt id='1876'> +1.2688320e-12 </wgt>
<wgt id='1877'> +1.2516167e-12 </wgt>
<wgt id='1878'> +1.2772463e-12 </wgt>
<wgt id='1879'> +1.3234062e-12 </wgt>
<wgt id='1880'> +1.2338385e-12 </wgt>
<wgt id='1881'> +1.2739663e-12 </wgt>
<wgt id='1882'> +1.2770557e-12 </wgt>
<wgt id='1883'> +1.2933762e-12 </wgt>
<wgt id='1884'> +1.2803349e-12 </wgt>
<wgt id='1885'> +1.2677055e-12 </wgt>
<wgt id='1886'> +1.2748584e-12 </wgt>
<wgt id='1887'> +1.2836967e-12 </wgt>
<wgt id='1888'> +1.2850753e-12 </wgt>
<wgt id='1889'> +1.2818271e-12 </wgt>
<wgt id='1890'> +1.3226711e-12 </wgt>
<wgt id='1891'> +1.2846479e-12 </wgt>
<wgt id='1892'> +1.3226646e-12 </wgt>
<wgt id='1893'> +1.2900614e-12 </wgt>
<wgt id='1894'> +1.2748782e-12 </wgt>
<wgt id='1895'> +1.2557781e-12 </wgt>
<wgt id='1896'> +1.2696966e-12 </wgt>
<wgt id='1897'> +1.3021192e-12 </wgt>
<wgt id='1898'> +1.2825049e-12 </wgt>
<wgt id='1899'> +1.2528384e-12 </wgt>
<wgt id='1900'> +1.2819457e-12 </wgt>
<wgt id='1901'> +1.2747868e-12 </wgt>
<wgt id='1902'> +1.2901641e-12 </wgt>
<wgt id='1903'> +1.2973354e-12 </wgt>
<wgt id='1904'> +1.2760315e-12 </wgt>
<wgt id='1905'> +1.2632684e-12 </wgt>
<wgt id='1906'> +1.3037424e-12 </wgt>
<wgt id='1907'> +1.2591134e-12 </wgt>
<wgt id='1908'> +1.2402658e-12 </wgt>
<wgt id='1909'> +1.2453521e-12 </wgt>
<wgt id='1910'> +1.2941040e-12 </wgt>
<wgt id='1911'> +1.2576242e-12 </wgt>
<wgt id='1912'> +1.2724642e-12 </wgt>
<wgt id='1913'> +1.2626178e-12 </wgt>
<wgt id='1914'> +1.2789639e-12 </wgt>
<wgt id='1915'> +1.2583538e-12 </wgt>
<wgt id='1916'> +1.2099976e-12 </wgt>
<wgt id='1917'> +1.2637642e-12 </wgt>
<wgt id='1918'> +1.2844677e-12 </wgt>
<wgt id='1919'> +1.2668624e-12 </wgt>
</rwgt>
</event>
<event>
 9      1 +1.5538000e-12 8.23197900e+01 7.81860800e-03 1.20045500e-01
        2 -1    0    0  502    0 -0.0000000000e+00 +0.0000000000e+00 +1.1767657898e+03 1.1767657898e+03 0.0000000000e+00 0.0000e+00 1.0000e+00
       21 -1    0    0  501  502 +0.0000000000e+00 -0.0000000000e+00 -1.4396552377e+00 1.4396552377e+00 0.0000000000e+00 0.0000e+00 1.0000e+00
     1023  2    1    2    0    0 +3.4162929774e+00 +3.8209361312e+01 +7.5855874195e+02 7.5967625144e+02 1.5000522051e+01 0.0000e+00 0.0000e+00
  1000023  2    3    3    0    0 +9.3949606887e-01 +1.1942415107e+01 +3.4119624157e+02 3.4145078150e+02 5.5006355038e+00 0.0000e+00 0.0000e+00
        2  1    1    2  501    0 -3.4162929774e+00 -3.8209361312e+01 +4.1676739257e+02 4.1852919356e+02 0.0000000000e+00 0.0000e+00 1.0000e+00
  1000022  1    4    4    0    0 +8.0010049162e-01 +9.9391019404e+00 +2.8868464497e+02 2.8890006949e+02 5.0000000000e+00 0.0000e+00 -1.0000e+00
      -13  1    4    4    0    0 +3.9755926441e-02 +8.2802282065e-01 +1.9565718084e+01 1.9583556852e+01 1.0570000000e-01 0.0000e+00 1.0000e+00
       13  1    4    4    0    0 +9.9639650802e-02 +1.1752903461e+00 +3.2945878519e+01 3.2967155160e+01 1.0570000000e-01 0.0000e+00 -1.0000e+00
  1000022  1    3    3    0    0 +2.4767969085e+00 +2.6266946205e+01 +4.1736250038e+02 4.1822546994e+02 5.0000000000e+00 0.0000e+00 1.0000e+00
<mgrwt>
<rscale>  1 0.82319792E+02</rscale>
<asrwt>0</asrwt>
<pdfrwt beam="1">  1       21 0.22148636E-03 0.82319792E+02</pdfrwt>
<pdfrwt beam="2">  1        2 0.18104012E+00 0.82319792E+02</pdfrwt>
<totfact> 0.80901121E+06</totfact>
</mgrwt>
<rwgt>
<wgt id='1001'> +1.5538000e-12 </wgt>
<wgt id='1002'> +1.5530577e-12 </wgt>
<wgt id='1003'> +1.5533179e-12 </wgt>
<wgt id='1004'> +1.5263581e-12 </wgt>
<wgt id='1005'> +1.5538000e-12 </wgt>
<wgt id='1006'> +1.3911126e-12 </wgt>
<wgt id='1007'> +1.3885991e-12 </wgt>
<wgt id='1008'> +1.3893990e-12 </wgt>
<wgt id='1009'> +1.3449357e-12 </wgt>
<wgt id='1010'> +1.3911126e-12 </wgt>
<wgt id='1011'> +1.7612848e-12 </wgt>
<wgt id='1012'> +1.7634957e-12 </wgt>
<wgt id='1013'> +1.7628495e-12 </wgt>
<wgt id='1014'> +1.7669997e-12 </wgt>
<wgt id='1015'> +1.7612848e-12 </wgt>
<wgt id='1016'> +1.7270942e-12 </wgt>
<wgt id='1017'> +1.7314738e-12 </wgt>
<wgt id='1018'> +1.7301596e-12 </wgt>
<wgt id='1019'> +1.7628495e-12 </wgt>
<wgt id='1020'> +1.7270942e-12 </wgt>
<wgt id='1021'> +1.5462624e-12 </wgt>
<wgt id='1022'> +1.5481221e-12 </wgt>
<wgt id='1023'> +1.5475790e-12 </wgt>
<wgt id='1024'> +1.5533179e-12 </wgt>
<wgt id='1025'> +1.5462624e-12 </wgt>
<wgt id='1026'> +1.9577197e-12 </wgt>
<wgt id='1027'> +1.9660871e-12 </wgt>
<wgt id='1028'> +1.9635460e-12 </wgt>
<wgt id='1029'> +2.0407758e-12 </wgt>
<wgt id='1030'> +1.9577197e-12 </wgt>
<wgt id='1031'> +1.3494936e-12 </wgt>
<wgt id='1032'> +1.3428597e-12 </wgt>
<wgt id='1033'> +1.3449357e-12 </wgt>
<wgt id='1034'> +1.2486624e-12 </wgt>
<wgt id='1035'> +1.3494936e-12 </wgt>
<wgt id='1036'> +1.2081976e-12 </wgt>
<wgt id='1037'> +1.2006597e-12 </wgt>
<wgt id='1038'> +1.2030071e-12 </wgt>
<wgt id='1039'> +1.1002468e-12 </wgt>
<wgt id='1040'> +1.2081976e-12 </wgt>
<wgt id='1041'> +1.5296966e-12 </wgt>
<wgt id='1042'> +1.5248161e-12 </wgt>
<wgt id='1043'> +1.5263581e-12 </wgt>
<wgt id='1044'> +1.4455233e-12 </wgt>
<wgt id='1045'> +1.5296966e-12 </wgt>
<wgt id='1046'> +1.5538000e-12 </wgt>
<wgt id='1047'> +1.5518543e-12 </wgt>
<wgt id='1048'> +1.6010974e-12 </wgt>
<wgt id='1049'> +1.5199991e-12 </wgt>
<wgt id='1050'> +1.5356934e-12 </wgt>
<wgt id='1051'> +1.5295806e-12 </wgt>
<wgt id='1052'> +1.5279242e-12 </wgt>
<wgt id='1053'> +1.6098418e-12 </wgt>
<wgt id='1054'> +1.5936839e-12 </wgt>
<wgt id='1055'> +1.5351411e-12 </wgt>
<wgt id='1056'> +1.4513529e-12 </wgt>
<wgt id='1057'> +1.5478283e-12 </wgt>
<wgt id='1058'> +1.5280092e-12 </wgt>
<wgt id='1059'> +1.5527935e-12 </wgt>
<wgt id='1060'> +1.5803008e-12 </wgt>
<wgt id='1061'> +1.5830129e-12 </wgt>
<wgt id='1062'> +1.5340548e-12 </wgt>
<wgt id='1063'> +1.4988504e-12 </wgt>
<wgt id='1064'> +1.5643636e-12 </wgt>
<wgt id='1065'> +1.5806481e-12 </wgt>
<wgt id='1066'> +1.5506079e-12 </wgt>
<wgt id='1067'> +1.5942584e-12 </wgt>
<wgt id='1068'> +1.6094612e-12 </wgt>
<wgt id='1069'> +1.6044486e-12 </wgt>
<wgt id='1070'> +1.5456382e-12 </wgt>
<wgt id='1071'> +1.5736637e-12 </wgt>
<wgt id='1072'> +1.5836337e-12 </wgt>
<wgt id='1073'> +1.5097982e-12 </wgt>
<wgt id='1074'> +1.5660183e-12 </wgt>
<wgt id='1075'> +1.5240087e-12 </wgt>
<wgt id='1076'> +1.5405934e-12 </wgt>
<wgt id='1077'> +1.5545575e-12 </wgt>
<wgt id='1078'> +1.5482098e-12 </wgt>
<wgt id='1079'> +1.5649151e-12 </wgt>
<wgt id='1080'> +1.5313090e-12 </wgt>
<wgt id='1081'> +1.5324817e-12 </wgt>
<wgt id='1082'> +1.5692336e-12 </wgt>
<wgt id='1083'> +1.5438351e-12 </wgt>
<wgt id='1084'> +1.5424793e-12 </wgt>
<wgt id='1085'> +1.5639690e-12 </wgt>
<wgt id='1086'> +1.5988547e-12 </wgt>
<wgt id='1087'> +1.5394123e-12 </wgt>
<wgt id='1088'> +1.5513378e-12 </wgt>
<wgt id='1089'> +1.5194557e-12 </wgt>
<wgt id='1090'> +1.5396288e-12 </wgt>
<wgt id='1091'> +1.5782497e-12 </wgt>
<wgt id='1092'> +1.5418811e-12 </wgt>
<wgt id='1093'> +1.5713046e-12 </wgt>
<wgt id='1094'> +1.5878582e-12 </wgt>
<wgt id='1095'> +1.5816785e-12 </wgt>
<wgt id='1096'> +1.5107404e-12 </wgt>
<wgt id='1097'> +1.5636767e-12 </wgt>
<wgt id='1098'> +1.5894105e-12 </wgt>
<wgt id='1099'> +1.5516555e-12 </wgt>
<wgt id='1100'> +1.5891496e-12 </wgt>
<wgt id='1101'> +1.5707538e-12 </wgt>
<wgt id='1102'> +1.5281715e-12 </wgt>
<wgt id='1103'> +1.5475501e-12 </wgt>
<wgt id='1104'> +1.5714257e-12 </wgt>
<wgt id='1105'> +1.5214300e-12 </wgt>
<wgt id='1106'> +1.5641443e-12 </wgt>
<wgt id='1107'> +1.5688709e-12 </wgt>
<wgt id='1108'> +1.5470432e-12 </wgt>
<wgt id='1109'> +1.5410718e-12 </wgt>
<wgt id='1110'> +1.5667261e-12 </wgt>
<wgt id='1111'> +1.5578372e-12 </wgt>
<wgt id='1112'> +1.5641585e-12 </wgt>
<wgt id='1113'> +1.6045148e-12 </wgt>
<wgt id='1114'> +1.5552016e-12 </wgt>
<wgt id='1115'> +1.5705396e-12 </wgt>
<wgt id='1116'> +1.5965273e-12 </wgt>
<wgt id='1117'> +1.5557378e-12 </wgt>
<wgt id='1118'> +1.5348916e-12 </wgt>
<wgt id='1119'> +1.5374335e-12 </wgt>
<wgt id='1120'> +1.5460208e-12 </wgt>
<wgt id='1121'> +1.5187305e-12 </wgt>
<wgt id='1122'> +1.5325517e-12 </wgt>
<wgt id='1123'> +1.5648882e-12 </wgt>
<wgt id='1124'> +1.5967848e-12 </wgt>
<wgt id='1125'> +1.5175606e-12 </wgt>
<wgt id='1126'> +1.5111147e-12 </wgt>
<wgt id='1127'> +1.5736009e-12 </wgt>
<wgt id='1128'> +1.5340548e-12 </wgt>
<wgt id='1129'> +1.5231448e-12 </wgt>
<wgt id='1130'> +1.5520751e-12 </wgt>
<wgt id='1131'> +1.5892961e-12 </wgt>
<wgt id='1132'> +1.5419757e-12 </wgt>
<wgt id='1133'> +1.5621462e-12 </wgt>
<wgt id='1134'> +1.5139873e-12 </wgt>
<wgt id='1135'> +1.4934726e-12 </wgt>
<wgt id='1136'> +1.5355818e-12 </wgt>
<wgt id='1137'> +1.5638748e-12 </wgt>
<wgt id='1138'> +1.5441463e-12 </wgt>
<wgt id='1139'> +1.5521595e-12 </wgt>
<wgt id='1140'> +1.5512036e-12 </wgt>
<wgt id='1141'> +1.5547074e-12 </wgt>
<wgt id='1142'> +1.5941319e-12 </wgt>
<wgt id='1143'> +1.5049851e-12 </wgt>
<wgt id='1144'> +1.5449188e-12 </wgt>
<wgt id='1145'> +1.5904418e-12 </wgt>
<wgt id='1146'> +1.5728627e-12 </wgt>
<wgt id='1147'> +1.4284928e-12 </wgt>
<wgt id='1148'> +1.4484002e-12 </wgt>
<wgt id='1149'> +1.3914574e-12 </wgt>
<wgt id='1150'> +1.4418538e-12 </wgt>
<wgt id='1151'> +1.6649929e-12 </wgt>
<wgt id='1152'> +2.2360043e-12 </wgt>
<wgt id='1153'> +2.2442898e-12 </wgt>
<wgt id='1154'> +2.2311415e-12 </wgt>
<wgt id='1155'> +2.2320190e-12 </wgt>
<wgt id='1156'> +2.2380183e-12 </wgt>
<wgt id='1157'> +2.2408134e-12 </wgt>
<wgt id='1158'> +2.2294613e-12 </wgt>
<wgt id='1159'> +2.2396933e-12 </wgt>
<wgt id='1160'> +2.2336307e-12 </wgt>
<wgt id='1161'> +2.2306338e-12 </wgt>
<wgt id='1162'> +2.2396835e-12 </wgt>
<wgt id='1163'> +2.2348565e-12 </wgt>
<wgt id='1164'> +2.2371474e-12 </wgt>
<wgt id='1165'> +2.2428871e-12 </wgt>
<wgt id='1166'> +2.2291104e-12 </wgt>
<wgt id='1167'> +2.2629010e-12 </wgt>
<wgt id='1168'> +2.2032751e-12 </wgt>
<wgt id='1169'> +2.2451301e-12 </wgt>
<wgt id='1170'> +2.2291649e-12 </wgt>
<wgt id='1171'> +2.2283645e-12 </wgt>
<wgt id='1172'> +2.2455896e-12 </wgt>
<wgt id='1173'> +2.2111781e-12 </wgt>
<wgt id='1174'> +2.2619467e-12 </wgt>
<wgt id='1175'> +2.2365757e-12 </wgt>
<wgt id='1176'> +2.2353253e-12 </wgt>
<wgt id='1177'> +2.2339151e-12 </wgt>
<wgt id='1178'> +2.2405342e-12 </wgt>
<wgt id='1179'> +2.2346525e-12 </wgt>
<wgt id='1180'> +2.2324033e-12 </wgt>
<wgt id='1181'> +2.2354746e-12 </wgt>
<wgt id='1182'> +2.2355036e-12 </wgt>
<wgt id='1183'> +2.2400519e-12 </wgt>
<wgt id='1184'> +2.2358231e-12 </wgt>
<wgt id='1185'> +2.2304331e-12 </wgt>
<wgt id='1186'> +2.2381884e-12 </wgt>
<wgt id='1187'> +2.2399437e-12 </wgt>
<wgt id='1188'> +2.2346312e-12 </wgt>
<wgt id='1189'> +2.2308906e-12 </wgt>
<wgt id='1190'> +2.2160922e-12 </wgt>
<wgt id='1191'> +2.2370907e-12 </wgt>
<wgt id='1192'> +2.2426034e-12 </wgt>
<wgt id='1193'> +1.4312778e-12 </wgt>
<wgt id='1194'> +1.4187508e-12 </wgt>
<wgt id='1195'> +1.4415315e-12 </wgt>
<wgt id='1196'> +1.4274733e-12 </wgt>
<wgt id='1197'> +1.4354900e-12 </wgt>
<wgt id='1198'> +1.4297940e-12 </wgt>
<wgt id='1199'> +1.4334625e-12 </wgt>
<wgt id='1200'> +1.4291302e-12 </wgt>
<wgt id='1201'> +1.4327120e-12 </wgt>
<wgt id='1202'> +1.4309027e-12 </wgt>
<wgt id='1203'> +1.4317546e-12 </wgt>
<wgt id='1204'> +1.4283585e-12 </wgt>
<wgt id='1205'> +1.4328414e-12 </wgt>
<wgt id='1206'> +1.4348946e-12 </wgt>
<wgt id='1207'> +1.4262912e-12 </wgt>
<wgt id='1208'> +1.4412834e-12 </wgt>
<wgt id='1209'> +1.4277143e-12 </wgt>
<wgt id='1210'> +1.4316781e-12 </wgt>
<wgt id='1211'> +1.4271416e-12 </wgt>
<wgt id='1212'> +1.4309950e-12 </wgt>
<wgt id='1213'> +1.4318830e-12 </wgt>
<wgt id='1214'> +1.4147496e-12 </wgt>
<wgt id='1215'> +1.4559612e-12 </wgt>
<wgt id='1216'> +1.4410993e-12 </wgt>
<wgt id='1217'> +1.4245675e-12 </wgt>
<wgt id='1218'> +1.4340009e-12 </wgt>
<wgt id='1219'> +1.4297083e-12 </wgt>
<wgt id='1220'> +1.4389149e-12 </wgt>
<wgt id='1221'> +1.4292455e-12 </wgt>
<wgt id='1222'> +1.4503374e-12 </wgt>
<wgt id='1223'> +1.4049003e-12 </wgt>
<wgt id='1224'> +1.4336812e-12 </wgt>
<wgt id='1225'> +1.4303750e-12 </wgt>
<wgt id='1226'> +1.4292883e-12 </wgt>
<wgt id='1227'> +1.4327017e-12 </wgt>
<wgt id='1228'> +1.4297000e-12 </wgt>
<wgt id='1229'> +1.4324744e-12 </wgt>
<wgt id='1230'> +1.4327008e-12 </wgt>
<wgt id='1231'> +1.4380606e-12 </wgt>
<wgt id='1232'> +1.4355059e-12 </wgt>
<wgt id='1233'> +1.4302113e-12 </wgt>
<wgt id='1234'> +1.4312778e-12 </wgt>
<wgt id='1235'> +1.4252642e-12 </wgt>
<wgt id='1236'> +1.4275885e-12 </wgt>
<wgt id='1237'> +1.4296585e-12 </wgt>
<wgt id='1238'> +1.4329753e-12 </wgt>
<wgt id='1239'> +1.4343401e-12 </wgt>
<wgt id='1240'> +1.4356132e-12 </wgt>
<wgt id='1241'> +1.3825095e-12 </wgt>
<wgt id='1242'> +1.3697354e-12 </wgt>
<wgt id='1243'> +1.3951043e-12 </wgt>
<wgt id='1244'> +1.3910490e-12 </wgt>
<wgt id='1245'> +1.3762271e-12 </wgt>
<wgt id='1246'> +1.3794022e-12 </wgt>
<wgt id='1247'> +1.3851584e-12 </wgt>
<wgt id='1248'> +1.3825578e-12 </wgt>
<wgt id='1249'> +1.3824586e-12 </wgt>
<wgt id='1250'> +1.3838538e-12 </wgt>
<wgt id='1251'> +1.3815787e-12 </wgt>
<wgt id='1252'> +1.3788438e-12 </wgt>
<wgt id='1253'> +1.3853622e-12 </wgt>
<wgt id='1254'> +1.3788047e-12 </wgt>
<wgt id='1255'> +1.3846657e-12 </wgt>
<wgt id='1256'> +1.3787955e-12 </wgt>
<wgt id='1257'> +1.3918902e-12 </wgt>
<wgt id='1258'> +1.3983896e-12 </wgt>
<wgt id='1259'> +1.3669616e-12 </wgt>
<wgt id='1260'> +1.3862355e-12 </wgt>
<wgt id='1261'> +1.3784688e-12 </wgt>
<wgt id='1262'> +1.3861169e-12 </wgt>
<wgt id='1263'> +1.3810291e-12 </wgt>
<wgt id='1264'> +1.3862902e-12 </wgt>
<wgt id='1265'> +1.3810143e-12 </wgt>
<wgt id='1266'> +1.3623965e-12 </wgt>
<wgt id='1267'> +1.4017710e-12 </wgt>
<wgt id='1268'> +1.3891501e-12 </wgt>
<wgt id='1269'> +1.3772661e-12 </wgt>
<wgt id='1270'> +1.3872817e-12 </wgt>
<wgt id='1271'> +1.3833870e-12 </wgt>
<wgt id='1272'> +1.3846975e-12 </wgt>
<wgt id='1273'> +1.3824653e-12 </wgt>
<wgt id='1274'> +1.3835197e-12 </wgt>
<wgt id='1275'> +1.3807425e-12 </wgt>
<wgt id='1276'> +1.3858781e-12 </wgt>
<wgt id='1277'> +1.3801762e-12 </wgt>
<wgt id='1278'> +1.3916659e-12 </wgt>
<wgt id='1279'> +1.3876813e-12 </wgt>
<wgt id='1280'> +1.3821291e-12 </wgt>
<wgt id='1281'> +1.3897876e-12 </wgt>
<wgt id='1282'> +1.3825095e-12 </wgt>
<wgt id='1283'> +1.3764589e-12 </wgt>
<wgt id='1284'> +1.3789504e-12 </wgt>
<wgt id='1285'> +1.3809206e-12 </wgt>
<wgt id='1286'> +1.3841589e-12 </wgt>
<wgt id='1287'> +1.3853193e-12 </wgt>
<wgt id='1288'> +1.3861700e-12 </wgt>
<wgt id='1289'> +1.4851792e-12 </wgt>
<wgt id='1290'> +1.4888541e-12 </wgt>
<wgt id='1291'> +1.4812221e-12 </wgt>
<wgt id='1292'> +1.4858373e-12 </wgt>
<wgt id='1293'> +1.4847253e-12 </wgt>
<wgt id='1294'> +1.4742496e-12 </wgt>
<wgt id='1295'> +1.4956648e-12 </wgt>
<wgt id='1296'> +1.4934899e-12 </wgt>
<wgt id='1297'> +1.4748383e-12 </wgt>
<wgt id='1298'> +1.4900634e-12 </wgt>
<wgt id='1299'> +1.4789529e-12 </wgt>
<wgt id='1300'> +1.4874809e-12 </wgt>
<wgt id='1301'> +1.4805443e-12 </wgt>
<wgt id='1302'> +1.4814255e-12 </wgt>
<wgt id='1303'> +1.4903965e-12 </wgt>
<wgt id='1304'> +1.4826944e-12 </wgt>
<wgt id='1305'> +1.4868714e-12 </wgt>
<wgt id='1306'> +1.4890121e-12 </wgt>
<wgt id='1307'> +1.4807022e-12 </wgt>
<wgt id='1308'> +1.4801231e-12 </wgt>
<wgt id='1309'> +1.4890422e-12 </wgt>
<wgt id='1310'> +1.4895826e-12 </wgt>
<wgt id='1311'> +1.4807376e-12 </wgt>
<wgt id='1312'> +1.4911146e-12 </wgt>
<wgt id='1313'> +1.4795049e-12 </wgt>
<wgt id='1314'> +1.4680183e-12 </wgt>
<wgt id='1315'> +1.5001481e-12 </wgt>
<wgt id='1316'> +1.4908185e-12 </wgt>
<wgt id='1317'> +1.4870716e-12 </wgt>
<wgt id='1318'> +1.4961423e-12 </wgt>
<wgt id='1319'> +1.4713984e-12 </wgt>
<wgt id='1320'> +1.5040330e-12 </wgt>
<wgt id='1321'> +1.4683013e-12 </wgt>
<wgt id='1322'> +1.4851088e-12 </wgt>
<wgt id='1323'> +1.4851610e-12 </wgt>
<wgt id='1324'> +1.4825077e-12 </wgt>
<wgt id='1325'> +1.4879671e-12 </wgt>
<wgt id='1326'> +1.4846437e-12 </wgt>
<wgt id='1327'> +1.4881538e-12 </wgt>
<wgt id='1328'> +1.4845622e-12 </wgt>
<wgt id='1329'> +1.4851025e-12 </wgt>
<wgt id='1330'> +1.4899392e-12 </wgt>
<wgt id='1331'> +1.4793104e-12 </wgt>
<wgt id='1332'> +1.4953232e-12 </wgt>
<wgt id='1333'> +1.4894241e-12 </wgt>
<wgt id='1334'> +1.4836426e-12 </wgt>
<wgt id='1335'> +1.4893564e-12 </wgt>
<wgt id='1336'> +1.4867212e-12 </wgt>
<wgt id='1337'> +1.4919021e-12 </wgt>
<wgt id='1338'> +1.4858087e-12 </wgt>
<wgt id='1339'> +1.4884611e-12 </wgt>
<wgt id='1340'> +1.4570256e-12 </wgt>
<wgt id='1341'> +1.4606143e-12 </wgt>
<wgt id='1342'> +1.4531899e-12 </wgt>
<wgt id='1343'> +1.4578281e-12 </wgt>
<wgt id='1344'> +1.4565192e-12 </wgt>
<wgt id='1345'> +1.4456219e-12 </wgt>
<wgt id='1346'> +1.4675434e-12 </wgt>
<wgt id='1347'> +1.4658402e-12 </wgt>
<wgt id='1348'> +1.4471521e-12 </wgt>
<wgt id='1349'> +1.4616764e-12 </wgt>
<wgt id='1350'> +1.4524290e-12 </wgt>
<wgt id='1351'> +1.4591371e-12 </wgt>
<wgt id='1352'> +1.4524337e-12 </wgt>
<wgt id='1353'> +1.4523629e-12 </wgt>
<wgt id='1354'> +1.4653713e-12 </wgt>
<wgt id='1355'> +1.4553682e-12 </wgt>
<wgt id='1356'> +1.4579517e-12 </wgt>
<wgt id='1357'> +1.4599781e-12 </wgt>
<wgt id='1358'> +1.4533438e-12 </wgt>
<wgt id='1359'> +1.4513022e-12 </wgt>
<wgt id='1360'> +1.4619954e-12 </wgt>
<wgt id='1361'> +1.4614177e-12 </wgt>
<wgt id='1362'> +1.4514470e-12 </wgt>
<wgt id='1363'> +1.4678531e-12 </wgt>
<wgt id='1364'> +1.4502694e-12 </wgt>
<wgt id='1365'> +1.4640074e-12 </wgt>
<wgt id='1366'> +1.4427146e-12 </wgt>
<wgt id='1367'> +1.4629615e-12 </wgt>
<wgt id='1368'> +1.4575401e-12 </wgt>
<wgt id='1369'> +1.4658085e-12 </wgt>
<wgt id='1370'> +1.4461106e-12 </wgt>
<wgt id='1371'> +1.4722581e-12 </wgt>
<wgt id='1372'> +1.4378488e-12 </wgt>
<wgt id='1373'> +1.4535159e-12 </wgt>
<wgt id='1374'> +1.4599115e-12 </wgt>
<wgt id='1375'> +1.4542840e-12 </wgt>
<wgt id='1376'> +1.4604667e-12 </wgt>
<wgt id='1377'> +1.4569280e-12 </wgt>
<wgt id='1378'> +1.4598810e-12 </wgt>
<wgt id='1379'> +1.4566039e-12 </wgt>
<wgt id='1380'> +1.4567759e-12 </wgt>
<wgt id='1381'> +1.4620894e-12 </wgt>
<wgt id='1382'> +1.4514888e-12 </wgt>
<wgt id='1383'> +1.4648934e-12 </wgt>
<wgt id='1384'> +1.4620961e-12 </wgt>
<wgt id='1385'> +1.4557458e-12 </wgt>
<wgt id='1386'> +1.4601379e-12 </wgt>
<wgt id='1387'> +1.4591653e-12 </wgt>
<wgt id='1388'> +1.4642901e-12 </wgt>
<wgt id='1389'> +1.4574680e-12 </wgt>
<wgt id='1390'> +1.4616462e-12 </wgt>
<wgt id='1391'> +1.4211852e-12 </wgt>
<wgt id='1392'> +1.3817607e-12 </wgt>
<wgt id='1393'> +1.3954854e-12 </wgt>
<wgt id='1394'> +1.4087766e-12 </wgt>
<wgt id='1395'> +1.4347398e-12 </wgt>
<wgt id='1396'> +1.4218100e-12 </wgt>
<wgt id='1397'> +1.4081497e-12 </wgt>
<wgt id='1398'> +1.4097641e-12 </wgt>
<wgt id='1399'> +1.4117363e-12 </wgt>
<wgt id='1400'> +1.4145458e-12 </wgt>
<wgt id='1401'> +1.4180652e-12 </wgt>
<wgt id='1402'> +1.4256936e-12 </wgt>
<wgt id='1403'> +1.4301041e-12 </wgt>
<wgt id='1404'> +1.4347208e-12 </wgt>
<wgt id='1405'> +1.4218100e-12 </wgt>
<wgt id='1406'> +1.4182957e-12 </wgt>
<wgt id='1407'> +1.4200825e-12 </wgt>
<wgt id='1408'> +1.4233208e-12 </wgt>
<wgt id='1409'> +1.4245165e-12 </wgt>
<wgt id='1410'> +1.3536734e-12 </wgt>
<wgt id='1411'> +1.3593291e-12 </wgt>
<wgt id='1412'> +1.3463905e-12 </wgt>
<wgt id='1413'> +1.3487968e-12 </wgt>
<wgt id='1414'> +1.3585081e-12 </wgt>
<wgt id='1415'> +1.3517565e-12 </wgt>
<wgt id='1416'> +1.3544396e-12 </wgt>
<wgt id='1417'> +1.3551950e-12 </wgt>
<wgt id='1418'> +1.3520585e-12 </wgt>
<wgt id='1419'> +1.3546032e-12 </wgt>
<wgt id='1420'> +1.3527258e-12 </wgt>
<wgt id='1421'> +1.3435079e-12 </wgt>
<wgt id='1422'> +1.3579294e-12 </wgt>
<wgt id='1423'> +1.3531175e-12 </wgt>
<wgt id='1424'> +1.3543340e-12 </wgt>
<wgt id='1425'> +1.3458252e-12 </wgt>
<wgt id='1426'> +1.3621064e-12 </wgt>
<wgt id='1427'> +1.3438650e-12 </wgt>
<wgt id='1428'> +1.3586836e-12 </wgt>
<wgt id='1429'> +1.3566424e-12 </wgt>
<wgt id='1430'> +1.3497144e-12 </wgt>
<wgt id='1431'> +1.3536944e-12 </wgt>
<wgt id='1432'> +1.3535919e-12 </wgt>
<wgt id='1433'> +1.3355035e-12 </wgt>
<wgt id='1434'> +1.3688858e-12 </wgt>
<wgt id='1435'> +1.3479850e-12 </wgt>
<wgt id='1436'> +1.3681831e-12 </wgt>
<wgt id='1437'> +1.3581131e-12 </wgt>
<wgt id='1438'> +1.3575710e-12 </wgt>
<wgt id='1439'> +1.3468806e-12 </wgt>
<wgt id='1440'> +1.3665894e-12 </wgt>
<wgt id='1441'> +1.3590970e-12 </wgt>
<wgt id='1442'> +1.3407397e-12 </wgt>
<wgt id='1443'> +1.3498134e-12 </wgt>
<wgt id='1444'> +1.3608003e-12 </wgt>
<wgt id='1445'> +1.3612429e-12 </wgt>
<wgt id='1446'> +1.3497713e-12 </wgt>
<wgt id='1447'> +1.3551110e-12 </wgt>
<wgt id='1448'> +1.3555369e-12 </wgt>
<wgt id='1449'> +1.3536328e-12 </wgt>
<wgt id='1450'> +1.3527784e-12 </wgt>
<wgt id='1451'> +1.3527157e-12 </wgt>
<wgt id='1452'> +1.3562995e-12 </wgt>
<wgt id='1453'> +1.3547513e-12 </wgt>
<wgt id='1454'> +1.3567002e-12 </wgt>
<wgt id='1455'> +1.3625363e-12 </wgt>
<wgt id='1456'> +1.3582779e-12 </wgt>
<wgt id='1457'> +1.3589941e-12 </wgt>
<wgt id='1458'> +1.3526690e-12 </wgt>
<wgt id='1459'> +1.3581849e-12 </wgt>
<wgt id='1460'> +1.3618959e-12 </wgt>
<wgt id='1461'> +1.3536734e-12 </wgt>
<wgt id='1462'> +1.3436984e-12 </wgt>
<wgt id='1463'> +1.3602659e-12 </wgt>
<wgt id='1464'> +1.3521965e-12 </wgt>
<wgt id='1465'> +1.3355881e-12 </wgt>
<wgt id='1466'> +1.3377250e-12 </wgt>
<wgt id='1467'> +1.3407000e-12 </wgt>
<wgt id='1468'> +1.3458880e-12 </wgt>
<wgt id='1469'> +1.3483138e-12 </wgt>
<wgt id='1470'> +1.3565352e-12 </wgt>
<wgt id='1471'> +1.3604524e-12 </wgt>
<wgt id='1472'> +1.3646432e-12 </wgt>
<wgt id='1473'> +1.3521965e-12 </wgt>
<wgt id='1474'> +1.3490538e-12 </wgt>
<wgt id='1475'> +1.3511740e-12 </wgt>
<wgt id='1476'> +1.3533145e-12 </wgt>
<wgt id='1477'> +1.3542971e-12 </wgt>
<wgt id='1478'> +1.4033025e-12 </wgt>
<wgt id='1479'> +1.4038526e-12 </wgt>
<wgt id='1480'> +1.3922010e-12 </wgt>
<wgt id='1481'> +1.4192268e-12 </wgt>
<wgt id='1482'> +1.4064113e-12 </wgt>
<wgt id='1483'> +1.3901750e-12 </wgt>
<wgt id='1484'> +1.3906284e-12 </wgt>
<wgt id='1485'> +1.4152046e-12 </wgt>
<wgt id='1486'> +1.4025657e-12 </wgt>
<wgt id='1487'> +1.4130569e-12 </wgt>
<wgt id='1488'> +1.4009364e-12 </wgt>
<wgt id='1489'> +1.4055741e-12 </wgt>
<wgt id='1490'> +1.4007640e-12 </wgt>
<wgt id='1491'> +1.4090963e-12 </wgt>
<wgt id='1492'> +1.4030944e-12 </wgt>
<wgt id='1493'> +1.3857203e-12 </wgt>
<wgt id='1494'> +1.4001551e-12 </wgt>
<wgt id='1495'> +1.3965212e-12 </wgt>
<wgt id='1496'> +1.4040643e-12 </wgt>
<wgt id='1497'> +1.4030929e-12 </wgt>
<wgt id='1498'> +1.4034810e-12 </wgt>
<wgt id='1499'> +1.4064324e-12 </wgt>
<wgt id='1500'> +1.4061140e-12 </wgt>
<wgt id='1501'> +1.4048104e-12 </wgt>
<wgt id='1502'> +1.4011293e-12 </wgt>
<wgt id='1503'> +1.4079884e-12 </wgt>
<wgt id='1504'> +1.3984737e-12 </wgt>
<wgt id='1505'> +1.4084452e-12 </wgt>
<wgt id='1506'> +1.4058344e-12 </wgt>
<wgt id='1507'> +1.4031254e-12 </wgt>
<wgt id='1508'> +1.4060440e-12 </wgt>
<wgt id='1509'> +1.3788630e-12 </wgt>
<wgt id='1510'> +1.3816370e-12 </wgt>
<wgt id='1511'> +1.3669897e-12 </wgt>
<wgt id='1512'> +1.3702262e-12 </wgt>
<wgt id='1513'> +1.3759042e-12 </wgt>
<wgt id='1514'> +1.3829276e-12 </wgt>
<wgt id='1515'> +1.3838213e-12 </wgt>
<wgt id='1516'> +1.3818699e-12 </wgt>
<wgt id='1517'> +1.3811930e-12 </wgt>
<wgt id='1518'> +1.3770498e-12 </wgt>
<wgt id='1519'> +1.3806162e-12 </wgt>
<wgt id='1520'> +1.3805457e-12 </wgt>
<wgt id='1521'> +1.3782417e-12 </wgt>
<wgt id='1522'> +1.3817214e-12 </wgt>
<wgt id='1523'> +1.3821077e-12 </wgt>
<wgt id='1524'> +1.3770713e-12 </wgt>
<wgt id='1525'> +1.3777854e-12 </wgt>
<wgt id='1526'> +1.3807374e-12 </wgt>
<wgt id='1527'> +1.3792574e-12 </wgt>
<wgt id='1528'> +1.3801142e-12 </wgt>
<wgt id='1529'> +1.3801038e-12 </wgt>
<wgt id='1530'> +1.3789554e-12 </wgt>
<wgt id='1531'> +1.3815696e-12 </wgt>
<wgt id='1532'> +1.3759198e-12 </wgt>
<wgt id='1533'> +1.3786608e-12 </wgt>
<wgt id='1534'> +1.3799936e-12 </wgt>
<wgt id='1535'> +1.3754461e-12 </wgt>
<wgt id='1536'> +1.3832829e-12 </wgt>
<wgt id='1537'> +1.3820484e-12 </wgt>
<wgt id='1538'> +1.3643787e-12 </wgt>
<wgt id='1539'> +1.3754200e-12 </wgt>
<wgt id='1540'> +1.3777476e-12 </wgt>
<wgt id='1541'> +1.3753760e-12 </wgt>
<wgt id='1542'> +1.3767637e-12 </wgt>
<wgt id='1543'> +1.3799440e-12 </wgt>
<wgt id='1544'> +1.3767812e-12 </wgt>
<wgt id='1545'> +1.3776812e-12 </wgt>
<wgt id='1546'> +1.3801980e-12 </wgt>
<wgt id='1547'> +1.3776656e-12 </wgt>
<wgt id='1548'> +1.3794807e-12 </wgt>
<wgt id='1549'> +1.3777248e-12 </wgt>
<wgt id='1550'> +1.3790283e-12 </wgt>
<wgt id='1551'> +1.3784597e-12 </wgt>
<wgt id='1552'> +1.3806301e-12 </wgt>
<wgt id='1553'> +1.3786738e-12 </wgt>
<wgt id='1554'> +1.3781971e-12 </wgt>
<wgt id='1555'> +1.3799586e-12 </wgt>
<wgt id='1556'> +1.3810832e-12 </wgt>
<wgt id='1557'> +1.3791363e-12 </wgt>
<wgt id='1558'> +1.3792795e-12 </wgt>
<wgt id='1559'> +1.3786641e-12 </wgt>
<wgt id='1560'> +1.3805700e-12 </wgt>
<wgt id='1561'> +1.3796701e-12 </wgt>
<wgt id='1562'> +1.3795133e-12 </wgt>
<wgt id='1563'> +1.3802338e-12 </wgt>
<wgt id='1564'> +1.3779563e-12 </wgt>
<wgt id='1565'> +1.3782172e-12 </wgt>
<wgt id='1566'> +1.3786110e-12 </wgt>
<wgt id='1567'> +1.3767827e-12 </wgt>
<wgt id='1568'> +1.3793331e-12 </wgt>
<wgt id='1569'> +1.3807995e-12 </wgt>
<wgt id='1570'> +1.3795419e-12 </wgt>
<wgt id='1571'> +1.3787669e-12 </wgt>
<wgt id='1572'> +1.3779758e-12 </wgt>
<wgt id='1573'> +1.3770111e-12 </wgt>
<wgt id='1574'> +1.3788222e-12 </wgt>
<wgt id='1575'> +1.3797824e-12 </wgt>
<wgt id='1576'> +1.3802594e-12 </wgt>
<wgt id='1577'> +1.3816742e-12 </wgt>
<wgt id='1578'> +1.3783158e-12 </wgt>
<wgt id='1579'> +1.3785073e-12 </wgt>
<wgt id='1580'> +1.3790099e-12 </wgt>
<wgt id='1581'> +1.3789634e-12 </wgt>
<wgt id='1582'> +1.3783174e-12 </wgt>
<wgt id='1583'> +1.3783455e-12 </wgt>
<wgt id='1584'> +1.3771655e-12 </wgt>
<wgt id='1585'> +1.3779872e-12 </wgt>
<wgt id='1586'> +1.3796272e-12 </wgt>
<wgt id='1587'> +1.3800431e-12 </wgt>
<wgt id='1588'> +1.3787983e-12 </wgt>
<wgt id='1589'> +1.3792290e-12 </wgt>
<wgt id='1590'> +1.3800818e-12 </wgt>
<wgt id='1591'> +1.3799256e-12 </wgt>
<wgt id='1592'> +1.3800725e-12 </wgt>
<wgt id='1593'> +1.3783910e-12 </wgt>
<wgt id='1594'> +1.3790920e-12 </wgt>
<wgt id='1595'> +1.3776679e-12 </wgt>
<wgt id='1596'> +1.3787761e-12 </wgt>
<wgt id='1597'> +1.3777473e-12 </wgt>
<wgt id='1598'> +1.3795507e-12 </wgt>
<wgt id='1599'> +1.3789334e-12 </wgt>
<wgt id='1600'> +1.3783256e-12 </wgt>
<wgt id='1601'> +1.3789775e-12 </wgt>
<wgt id='1602'> +1.3777504e-12 </wgt>
<wgt id='1603'> +1.3784369e-12 </wgt>
<wgt id='1604'> +1.3784655e-12 </wgt>
<wgt id='1605'> +1.3787117e-12 </wgt>
<wgt id='1606'> +1.3793309e-12 </wgt>
<wgt id='1607'> +1.3786767e-12 </wgt>
<wgt id='1608'> +1.3786192e-12 </wgt>
<wgt id='1609'> +1.3785503e-12 </wgt>
<wgt id='1610'> +1.3622950e-12 </wgt>
<wgt id='1611'> +1.3941103e-12 </wgt>
<wgt id='1612'> +1.5355203e-12 </wgt>
<wgt id='1613'> +1.5025070e-12 </wgt>
<wgt id='1614'> +1.4729976e-12 </wgt>
<wgt id='1615'> +1.5166672e-12 </wgt>
<wgt id='1616'> +1.4742626e-12 </wgt>
<wgt id='1617'> +1.5363420e-12 </wgt>
<wgt id='1618'> +1.5149000e-12 </wgt>
<wgt id='1619'> +1.4925337e-12 </wgt>
<wgt id='1620'> +1.5034586e-12 </wgt>
<wgt id='1621'> +1.5524271e-12 </wgt>
<wgt id='1622'> +1.5526133e-12 </wgt>
<wgt id='1623'> +1.5544318e-12 </wgt>
<wgt id='1624'> +1.5585946e-12 </wgt>
<wgt id='1625'> +1.5044289e-12 </wgt>
<wgt id='1626'> +1.5316604e-12 </wgt>
<wgt id='1627'> +1.5428228e-12 </wgt>
<wgt id='1628'> +1.4404186e-12 </wgt>
<wgt id='1629'> +1.5736706e-12 </wgt>
<wgt id='1630'> +1.5074539e-12 </wgt>
<wgt id='1631'> +1.5230867e-12 </wgt>
<wgt id='1632'> +1.4819195e-12 </wgt>
<wgt id='1633'> +1.5075891e-12 </wgt>
<wgt id='1634'> +1.5411786e-12 </wgt>
<wgt id='1635'> +1.5551683e-12 </wgt>
<wgt id='1636'> +1.5226174e-12 </wgt>
<wgt id='1637'> +1.5599837e-12 </wgt>
<wgt id='1638'> +1.5386539e-12 </wgt>
<wgt id='1639'> +1.5418064e-12 </wgt>
<wgt id='1640'> +1.5238868e-12 </wgt>
<wgt id='1641'> +1.5463132e-12 </wgt>
<wgt id='1642'> +1.4853028e-12 </wgt>
<wgt id='1643'> +1.5205427e-12 </wgt>
<wgt id='1644'> +1.5701861e-12 </wgt>
<wgt id='1645'> +1.5184503e-12 </wgt>
<wgt id='1646'> +1.5679147e-12 </wgt>
<wgt id='1647'> +1.5676755e-12 </wgt>
<wgt id='1648'> +1.5324179e-12 </wgt>
<wgt id='1649'> +1.5549234e-12 </wgt>
<wgt id='1650'> +1.5185257e-12 </wgt>
<wgt id='1651'> +1.5560835e-12 </wgt>
<wgt id='1652'> +1.5406402e-12 </wgt>
<wgt id='1653'> +1.5101726e-12 </wgt>
<wgt id='1654'> +1.5332031e-12 </wgt>
<wgt id='1655'> +1.5580374e-12 </wgt>
<wgt id='1656'> +1.5426526e-12 </wgt>
<wgt id='1657'> +1.5341490e-12 </wgt>
<wgt id='1658'> +1.5395127e-12 </wgt>
<wgt id='1659'> +1.5585946e-12 </wgt>
<wgt id='1660'> +1.5406558e-12 </wgt>
<wgt id='1661'> +1.5777097e-12 </wgt>
<wgt id='1662'> +1.5859471e-12 </wgt>
<wgt id='1663'> +1.5567736e-12 </wgt>
<wgt id='1664'> +1.5339061e-12 </wgt>
<wgt id='1665'> +1.5106630e-12 </wgt>
<wgt id='1666'> +1.5521608e-12 </wgt>
<wgt id='1667'> +1.5562685e-12 </wgt>
<wgt id='1668'> +1.5267200e-12 </wgt>
<wgt id='1669'> +1.5485215e-12 </wgt>
<wgt id='1670'> +1.5298110e-12 </wgt>
<wgt id='1671'> +1.5061451e-12 </wgt>
<wgt id='1672'> +1.5641163e-12 </wgt>
<wgt id='1673'> +1.5459631e-12 </wgt>
<wgt id='1674'> +1.5262090e-12 </wgt>
<wgt id='1675'> +1.5374247e-12 </wgt>
<wgt id='1676'> +1.5183233e-12 </wgt>
<wgt id='1677'> +1.5479922e-12 </wgt>
<wgt id='1678'> +1.5296713e-12 </wgt>
<wgt id='1679'> +1.5497250e-12 </wgt>
<wgt id='1680'> +1.5453442e-12 </wgt>
<wgt id='1681'> +1.5692996e-12 </wgt>
<wgt id='1682'> +1.5280367e-12 </wgt>
<wgt id='1683'> +1.5525294e-12 </wgt>
<wgt id='1684'> +1.5894631e-12 </wgt>
<wgt id='1685'> +1.5220239e-12 </wgt>
<wgt id='1686'> +1.5443242e-12 </wgt>
<wgt id='1687'> +1.5675173e-12 </wgt>
<wgt id='1688'> +1.4942059e-12 </wgt>
<wgt id='1689'> +1.5823805e-12 </wgt>
<wgt id='1690'> +1.5450736e-12 </wgt>
<wgt id='1691'> +1.4781339e-12 </wgt>
<wgt id='1692'> +1.4925067e-12 </wgt>
<wgt id='1693'> +1.5466667e-12 </wgt>
<wgt id='1694'> +1.5332410e-12 </wgt>
<wgt id='1695'> +1.5465760e-12 </wgt>
<wgt id='1696'> +1.5340609e-12 </wgt>
<wgt id='1697'> +1.5192400e-12 </wgt>
<wgt id='1698'> +1.5365649e-12 </wgt>
<wgt id='1699'> +1.5353427e-12 </wgt>
<wgt id='1700'> +1.5169192e-12 </wgt>
<wgt id='1701'> +1.5789212e-12 </wgt>
<wgt id='1702'> +1.4969273e-12 </wgt>
<wgt id='1703'> +1.5097362e-12 </wgt>
<wgt id='1704'> +1.5142582e-12 </wgt>
<wgt id='1705'> +1.4963270e-12 </wgt>
<wgt id='1706'> +1.5532280e-12 </wgt>
<wgt id='1707'> +1.5372052e-12 </wgt>
<wgt id='1708'> +1.5927882e-12 </wgt>
<wgt id='1709'> +1.5773803e-12 </wgt>
<wgt id='1710'> +1.5379996e-12 </wgt>
<wgt id='1711'> +1.5439396e-12 </wgt>
<wgt id='1712'> +1.6006059e-12 </wgt>
<wgt id='1713'> +1.3786403e-12 </wgt>
<wgt id='1714'> +1.3619103e-12 </wgt>
<wgt id='1715'> +1.3361800e-12 </wgt>
<wgt id='1716'> +1.4132822e-12 </wgt>
<wgt id='1717'> +1.3968907e-12 </wgt>
<wgt id='1718'> +1.4201134e-12 </wgt>
<wgt id='1719'> +1.3955512e-12 </wgt>
<wgt id='1720'> +1.3494124e-12 </wgt>
<wgt id='1721'> +1.3573636e-12 </wgt>
<wgt id='1722'> +1.3760725e-12 </wgt>
<wgt id='1723'> +1.4064620e-12 </wgt>
<wgt id='1724'> +1.3981888e-12 </wgt>
<wgt id='1725'> +1.3944852e-12 </wgt>
<wgt id='1726'> +1.3853118e-12 </wgt>
<wgt id='1727'> +1.4176865e-12 </wgt>
<wgt id='1728'> +1.3702476e-12 </wgt>
<wgt id='1729'> +1.3237330e-12 </wgt>
<wgt id='1730'> +1.3554358e-12 </wgt>
<wgt id='1731'> +1.3175700e-12 </wgt>
<wgt id='1732'> +1.3789098e-12 </wgt>
<wgt id='1733'> +1.3286492e-12 </wgt>
<wgt id='1734'> +1.4372249e-12 </wgt>
<wgt id='1735'> +1.3595433e-12 </wgt>
<wgt id='1736'> +1.4140617e-12 </wgt>
<wgt id='1737'> +1.4166759e-12 </wgt>
<wgt id='1738'> +1.3740958e-12 </wgt>
<wgt id='1739'> +1.3944634e-12 </wgt>
<wgt id='1740'> +1.3082818e-12 </wgt>
<wgt id='1741'> +1.4233975e-12 </wgt>
<wgt id='1742'> +1.3657792e-12 </wgt>
<wgt id='1743'> +1.3623949e-12 </wgt>
<wgt id='1744'> +1.3951751e-12 </wgt>
<wgt id='1745'> +1.4131560e-12 </wgt>
<wgt id='1746'> +1.3759997e-12 </wgt>
<wgt id='1747'> +1.4204183e-12 </wgt>
<wgt id='1748'> +1.3851505e-12 </wgt>
<wgt id='1749'> +1.3683620e-12 </wgt>
<wgt id='1750'> +1.3535011e-12 </wgt>
<wgt id='1751'> +1.3665439e-12 </wgt>
<wgt id='1752'> +1.3572550e-12 </wgt>
<wgt id='1753'> +1.3904186e-12 </wgt>
<wgt id='1754'> +1.3964308e-12 </wgt>
<wgt id='1755'> +1.3812039e-12 </wgt>
<wgt id='1756'> +1.4020757e-12 </wgt>
<wgt id='1757'> +1.3961837e-12 </wgt>
<wgt id='1758'> +1.4103828e-12 </wgt>
<wgt id='1759'> +1.3918562e-12 </wgt>
<wgt id='1760'> +1.3688573e-12 </wgt>
<wgt id='1761'> +1.3606687e-12 </wgt>
<wgt id='1762'> +1.3772417e-12 </wgt>
<wgt id='1763'> +1.3966739e-12 </wgt>
<wgt id='1764'> +1.4235857e-12 </wgt>
<wgt id='1765'> +1.3791030e-12 </wgt>
<wgt id='1766'> +1.4161190e-12 </wgt>
<wgt id='1767'> +1.3628296e-12 </wgt>
<wgt id='1768'> +1.3928443e-12 </wgt>
<wgt id='1769'> +1.3597064e-12 </wgt>
<wgt id='1770'> +1.3711158e-12 </wgt>
<wgt id='1771'> +1.4249231e-12 </wgt>
<wgt id='1772'> +1.3576794e-12 </wgt>
<wgt id='1773'> +1.3799361e-12 </wgt>
<wgt id='1774'> +1.3768975e-12 </wgt>
<wgt id='1775'> +1.3776369e-12 </wgt>
<wgt id='1776'> +1.4348031e-12 </wgt>
<wgt id='1777'> +1.3187111e-12 </wgt>
<wgt id='1778'> +1.3916675e-12 </wgt>
<wgt id='1779'> +1.3691957e-12 </wgt>
<wgt id='1780'> +1.3953899e-12 </wgt>
<wgt id='1781'> +1.3914974e-12 </wgt>
<wgt id='1782'> +1.3642989e-12 </wgt>
<wgt id='1783'> +1.3732782e-12 </wgt>
<wgt id='1784'> +1.3788829e-12 </wgt>
<wgt id='1785'> +1.4003919e-12 </wgt>
<wgt id='1786'> +1.3700817e-12 </wgt>
<wgt id='1787'> +1.4536161e-12 </wgt>
<wgt id='1788'> +1.3666482e-12 </wgt>
<wgt id='1789'> +1.4540716e-12 </wgt>
<wgt id='1790'> +1.3724106e-12 </wgt>
<wgt id='1791'> +1.3688999e-12 </wgt>
<wgt id='1792'> +1.3743777e-12 </wgt>
<wgt id='1793'> +1.3585268e-12 </wgt>
<wgt id='1794'> +1.3979062e-12 </wgt>
<wgt id='1795'> +1.3886850e-12 </wgt>
<wgt id='1796'> +1.3348321e-12 </wgt>
<wgt id='1797'> +1.3730673e-12 </wgt>
<wgt id='1798'> +1.3744962e-12 </wgt>
<wgt id='1799'> +1.3614113e-12 </wgt>
<wgt id='1800'> +1.3908101e-12 </wgt>
<wgt id='1801'> +1.3801658e-12 </wgt>
<wgt id='1802'> +1.3338421e-12 </wgt>
<wgt id='1803'> +1.3836026e-12 </wgt>
<wgt id='1804'> +1.3821100e-12 </wgt>
<wgt id='1805'> +1.3577344e-12 </wgt>
<wgt id='1806'> +1.3459094e-12 </wgt>
<wgt id='1807'> +1.3580309e-12 </wgt>
<wgt id='1808'> +1.3469682e-12 </wgt>
<wgt id='1809'> +1.3570880e-12 </wgt>
<wgt id='1810'> +1.3477163e-12 </wgt>
<wgt id='1811'> +1.3959230e-12 </wgt>
<wgt id='1812'> +1.3599288e-12 </wgt>
<wgt id='1813'> +1.2958705e-12 </wgt>
<wgt id='1814'> +1.7308614e-12 </wgt>
<wgt id='1815'> +2.0663631e-12 </wgt>
<wgt id='1816'> +1.3786403e-12 </wgt>
<wgt id='1817'> +1.3619103e-12 </wgt>
<wgt id='1818'> +1.3361800e-12 </wgt>
<wgt id='1819'> +1.4132822e-12 </wgt>
<wgt id='1820'> +1.3968907e-12 </wgt>
<wgt id='1821'> +1.4201134e-12 </wgt>
<wgt id='1822'> +1.3955512e-12 </wgt>
<wgt id='1823'> +1.3494124e-12 </wgt>
<wgt id='1824'> +1.3573636e-12 </wgt>
<wgt id='1825'> +1.3760725e-12 </wgt>
<wgt id='1826'> +1.4064620e-12 </wgt>
<wgt id='1827'> +1.3981888e-12 </wgt>
<wgt id='1828'> +1.3944852e-12 </wgt>
<wgt id='1829'> +1.3853118e-12 </wgt>
<wgt id='1830'> +1.4176865e-12 </wgt>
<wgt id='1831'> +1.3702476e-12 </wgt>
<wgt id='1832'> +1.3237330e-12 </wgt>
<wgt id='1833'> +1.3554358e-12 </wgt>
<wgt id='1834'> +1.3175700e-12 </wgt>
<wgt id='1835'> +1.3789098e-12 </wgt>
<wgt id='1836'> +1.3286492e-12 </wgt>
<wgt id='1837'> +1.4372249e-12 </wgt>
<wgt id='1838'> +1.3595433e-12 </wgt>
<wgt id='1839'> +1.4140617e-12 </wgt>
<wgt id='1840'> +1.4166759e-12 </wgt>
<wgt id='1841'> +1.3740958e-12 </wgt>
<wgt id='1842'> +1.3944634e-12 </wgt>
<wgt id='1843'> +1.3082818e-12 </wgt>
<wgt id='1844'> +1.4233975e-12 </wgt>
<wgt id='1845'> +1.3657792e-12 </wgt>
<wgt id='1846'> +1.3623949e-12 </wgt>
<wgt id='1847'> +1.3951751e-12 </wgt>
<wgt id='1848'> +1.4131560e-12 </wgt>
<wgt id='1849'> +1.3759997e-12 </wgt>
<wgt id='1850'> +1.4204183e-12 </wgt>
<wgt id='1851'> +1.3851505e-12 </wgt>
<wgt id='1852'> +1.3683620e-12 </wgt>
<wgt id='1853'> +1.3535011e-12 </wgt>
<wgt id='1854'> +1.3665439e-12 </wgt>
<wgt id='1855'> +1.3572550e-12 </wgt>
<wgt id='1856'> +1.3904186e-12 </wgt>
<wgt id='1857'> +1.3964308e-12 </wgt>
<wgt id='1858'> +1.3812039e-12 </wgt>
<wgt id='1859'> +1.4020757e-12 </wgt>
<wgt id='1860'> +1.3961837e-12 </wgt>
<wgt id='1861'> +1.4103828e-12 </wgt>
<wgt id='1862'> +1.3918562e-12 </wgt>
<wgt id='1863'> +1.3688573e-12 </wgt>
<wgt id='1864'> +1.3606687e-12 </wgt>
<wgt id='1865'> +1.3772417e-12 </wgt>
<wgt id='1866'> +1.3966739e-12 </wgt>
<wgt id='1867'> +1.4235857e-12 </wgt>
<wgt id='1868'> +1.3791030e-12 </wgt>
<wgt id='1869'> +1.4161190e-12 </wgt>
<wgt id='1870'> +1.3628296e-12 </wgt>
<wgt id='1871'> +1.3928443e-12 </wgt>
<wgt id='1872'> +1.3597064e-12 </wgt>
<wgt id='1873'> +1.3711158e-12 </wgt>
<wgt id='1874'> +1.4249231e-12 </wgt>
<wgt id='1875'> +1.3576794e-12 </wgt>
<wgt id='1876'> +1.3799361e-12 </wgt>
<wgt id='1877'> +1.3768975e-12 </wgt>
<wgt id='1878'> +1.3776369e-12 </wgt>
<wgt id='1879'> +1.4348031e-12 </wgt>
<wgt id='1880'> +1.3187111e-12 </wgt>
<wgt id='1881'> +1.3916675e-12 </wgt>
<wgt id='1882'> +1.3691957e-12 </wgt>
<wgt id='1883'> +1.3953899e-12 </wgt>
<wgt id='1884'> +1.3914974e-12 </wgt>
<wgt id='1885'> +1.3642989e-12 </wgt>
<wgt id='1886'> +1.3732782e-12 </wgt>
<wgt id='1887'> +1.3788829e-12 </wgt>
<wgt id='1888'> +1.4003919e-12 </wgt>
<wgt id='1889'> +1.3700817e-12 </wgt>
<wgt id='1890'> +1.4536161e-12 </wgt>
<wgt id='1891'> +1.3666482e-12 </wgt>
<wgt id='1892'> +1.4540716e-12 </wgt>
<wgt id='1893'> +1.3724106e-12 </wgt>
<wgt id='1894'> +1.3688999e-12 </wgt>
<wgt id='1895'> +1.3743777e-12 </wgt>
<wgt id='1896'> +1.3585268e-12 </wgt>
<wgt id='1897'> +1.3979062e-12 </wgt>
<wgt id='1898'> +1.3886850e-12 </wgt>
<wgt id='1899'> +1.3348321e-12 </wgt>
<wgt id='1900'> +1.3730673e-12 </wgt>
<wgt id='1901'> +1.3744962e-12 </wgt>
<wgt id='1902'> +1.3614113e-12 </wgt>
<wgt id='1903'> +1.3908101e-12 </wgt>
<wgt id='1904'> +1.3801658e-12 </wgt>
<wgt id='1905'> +1.3338421e-12 </wgt>
<wgt id='1906'> +1.3836026e-12 </wgt>
<wgt id='1907'> +1.3821100e-12 </wgt>
<wgt id='1908'> +1.3577344e-12 </wgt>
<wgt id='1909'> +1.3459094e-12 </wgt>
<wgt id='1910'> +1.3580309e-12 </wgt>
<wgt id='1911'> +1.3469682e-12 </wgt>
<wgt id='1912'> +1.3570880e-12 </wgt>
<wgt id='1913'> +1.3477163e-12 </wgt>
<wgt id='1914'> +1.3959230e-12 </wgt>
<wgt id='1915'> +1.3599288e-12 </wgt>
<wgt id='1916'> +1.2958705e-12 </wgt>
<wgt id='1917'> +1.3713993e-12 </wgt>
<wgt id='1918'> +1.3920522e-12 </wgt>
<wgt id='1919'> +1.3553931e-12 </wgt>
</rwgt>
</event>
<event>
 9      1 +1.5538000e-12 5.96859300e+01 7.81860800e-03 1.26967800e-01
        2 -1    0    0  502    0 -0.0000000000e+00 +0.0000000000e+00 +1.9368806383e+03 1.9368806383e+03 0.0000000000e+00 0.0000e+00 1.0000e+00
       21 -1    0    0  501  502 +0.0000000000e+00 -0.0000000000e+00 -4.5981278165e-01 4.5981278165e-01 0.0000000000e+00 0.0000e+00 1.0000e+00
     1023  2    1    2    0    0 +1.9749149148e+01 +1.6603125126e+01 +1.3788824350e+03 1.3792053871e+03 1.5001260467e+01 0.0000e+00 0.0000e+00
  1000023  2    3    3    0    0 +1.6851360042e+00 +4.3028524534e+00 +2.6489247090e+02 2.6498985803e+02 5.4999542903e+00 0.0000e+00 0.0000e+00
        2  1    1    2  501    0 -1.9749149148e+01 -1.6603125126e+01 +5.5753839058e+02 5.5813506396e+02 0.0000000000e+00 0.0000e+00 1.0000e+00
  1000022  1    4    4    0    0 +1.2589472779e+00 +3.8710613589e+00 +2.3223110582e+02 2.3232059008e+02 5.0000000000e+00 0.0000e+00 1.0000e+00
      -13  1    4    4    0    0 +1.8954179882e-01 +3.4403966031e-01 +2.4355978238e+01 2.4359374742e+01 1.0570000000e-01 0.0000e+00 1.0000e+00
       13  1    4    4    0    0 +2.3664692754e-01 +8.7751434204e-02 +8.3053868407e+00 8.3098932091e+00 1.0570000000e-01 0.0000e+00 1.0000e+00
  1000022  1    3    3    0    0 +1.8064013144e+01 +1.2300272673e+01 +1.1139899641e+03 1.1142155291e+03 5.0000000000e+00 0.0000e+00 1.0000e+00
<mgrwt>
<rscale>  1 0.59685927E+02</rscale>
<asrwt>0</asrwt>
<pdfrwt beam="1">  1       21 0.70741979E-04 0.59685927E+02</pdfrwt>
<pdfrwt beam="2">  1        2 0.29797510E+00 0.59685927E+02</pdfrwt>
<totfact> 0.14962827E+07</totfact>
</mgrwt>
<rwgt>
<wgt id='1001'> +1.5538000e-12 </wgt>
<wgt id='1002'> +1.5478291e-12 </wgt>
<wgt id='1003'> +1.5505772e-12 </wgt>
<wgt id='1004'> +1.4911664e-12 </wgt>
<wgt id='1005'> +1.5538000e-12 </wgt>
<wgt id='1006'> +1.3822797e-12 </wgt>
<wgt id='1007'> +1.3731043e-12 </wgt>
<wgt id='1008'> +1.3771983e-12 </wgt>
<wgt id='1009'> +1.3018626e-12 </wgt>
<wgt id='1010'> +1.3822797e-12 </wgt>
<wgt id='1011'> +1.7759955e-12 </wgt>
<wgt id='1012'> +1.7757388e-12 </wgt>
<wgt id='1013'> +1.7760466e-12 </wgt>
<wgt id='1014'> +1.7481638e-12 </wgt>
<wgt id='1015'> +1.7759955e-12 </wgt>
<wgt id='1016'> +1.7562950e-12 </wgt>
<wgt id='1017'> +1.7621505e-12 </wgt>
<wgt id='1018'> +1.7597611e-12 </wgt>
<wgt id='1019'> +1.7760466e-12 </wgt>
<wgt id='1020'> +1.7562950e-12 </wgt>
<wgt id='1021'> +1.5624218e-12 </wgt>
<wgt id='1022'> +1.5632323e-12 </wgt>
<wgt id='1023'> +1.5629921e-12 </wgt>
<wgt id='1024'> +1.5505772e-12 </wgt>
<wgt id='1025'> +1.5624218e-12 </wgt>
<wgt id='1026'> +2.0074476e-12 </wgt>
<wgt id='1027'> +2.0216179e-12 </wgt>
<wgt id='1028'> +2.0156479e-12 </wgt>
<wgt id='1029'> +2.0821422e-12 </wgt>
<wgt id='1030'> +2.0074476e-12 </wgt>
<wgt id='1031'> +1.3131062e-12 </wgt>
<wgt id='1032'> +1.2931967e-12 </wgt>
<wgt id='1033'> +1.3018626e-12 </wgt>
<wgt id='1034'> +1.1581839e-12 </wgt>
<wgt id='1035'> +1.3131062e-12 </wgt>
<wgt id='1036'> +1.1681556e-12 </wgt>
<wgt id='1037'> +1.1472158e-12 </wgt>
<wgt id='1038'> +1.1562939e-12 </wgt>
<wgt id='1039'> +1.0111523e-12 </wgt>
<wgt id='1040'> +1.1681556e-12 </wgt>
<wgt id='1041'> +1.5008822e-12 </wgt>
<wgt id='1042'> +1.4836131e-12 </wgt>
<wgt id='1043'> +1.4911664e-12 </wgt>
<wgt id='1044'> +1.3577930e-12 </wgt>
<wgt id='1045'> +1.5008822e-12 </wgt>
<wgt id='1046'> +1.5538000e-12 </wgt>
<wgt id='1047'> +1.5311340e-12 </wgt>
<wgt id='1048'> +1.5938100e-12 </wgt>
<wgt id='1049'> +1.5130253e-12 </wgt>
<wgt id='1050'> +1.5291266e-12 </wgt>
<wgt id='1051'> +1.5507847e-12 </wgt>
<wgt id='1052'> +1.5273736e-12 </wgt>
<wgt id='1053'> +1.6026412e-12 </wgt>
<wgt id='1054'> +1.5959661e-12 </wgt>
<wgt id='1055'> +1.5611785e-12 </wgt>
<wgt id='1056'> +1.4474779e-12 </wgt>
<wgt id='1057'> +1.5216720e-12 </wgt>
<wgt id='1058'> +1.5426827e-12 </wgt>
<wgt id='1059'> +1.5403337e-12 </wgt>
<wgt id='1060'> +1.5497795e-12 </wgt>
<wgt id='1061'> +1.5963358e-12 </wgt>
<wgt id='1062'> +1.5329292e-12 </wgt>
<wgt id='1063'> +1.4989672e-12 </wgt>
<wgt id='1064'> +1.5483489e-12 </wgt>
<wgt id='1065'> +1.5777713e-12 </wgt>
<wgt id='1066'> +1.5563293e-12 </wgt>
<wgt id='1067'> +1.6279641e-12 </wgt>
<wgt id='1068'> +1.6238567e-12 </wgt>
<wgt id='1069'> +1.6367437e-12 </wgt>
<wgt id='1070'> +1.5613399e-12 </wgt>
<wgt id='1071'> +1.5728916e-12 </wgt>
<wgt id='1072'> +1.5324829e-12 </wgt>
<wgt id='1073'> +1.5403637e-12 </wgt>
<wgt id='1074'> +1.5630798e-12 </wgt>
<wgt id='1075'> +1.5278411e-12 </wgt>
<wgt id='1076'> +1.5269799e-12 </wgt>
<wgt id='1077'> +1.6026288e-12 </wgt>
<wgt id='1078'> +1.5335226e-12 </wgt>
<wgt id='1079'> +1.5795727e-12 </wgt>
<wgt id='1080'> +1.5521039e-12 </wgt>
<wgt id='1081'> +1.5251636e-12 </wgt>
<wgt id='1082'> +1.5636587e-12 </wgt>
<wgt id='1083'> +1.5438498e-12 </wgt>
<wgt id='1084'> +1.5522701e-12 </wgt>
<wgt id='1085'> +1.5377887e-12 </wgt>
<wgt id='1086'> +1.6193053e-12 </wgt>
<wgt id='1087'> +1.5206585e-12 </wgt>
<wgt id='1088'> +1.5287010e-12 </wgt>
<wgt id='1089'> +1.5233470e-12 </wgt>
<wgt id='1090'> +1.5688324e-12 </wgt>
<wgt id='1091'> +1.5458952e-12 </wgt>
<wgt id='1092'> +1.5245116e-12 </wgt>
<wgt id='1093'> +1.5865292e-12 </wgt>
<wgt id='1094'> +1.5601565e-12 </wgt>
<wgt id='1095'> +1.5928698e-12 </wgt>
<wgt id='1096'> +1.5274727e-12 </wgt>
<wgt id='1097'> +1.5639611e-12 </wgt>
<wgt id='1098'> +1.5996656e-12 </wgt>
<wgt id='1099'> +1.5390308e-12 </wgt>
<wgt id='1100'> +1.6178002e-12 </wgt>
<wgt id='1101'> +1.5715864e-12 </wgt>
<wgt id='1102'> +1.4838789e-12 </wgt>
<wgt id='1103'> +1.5187886e-12 </wgt>
<wgt id='1104'> +1.5536163e-12 </wgt>
<wgt id='1105'> +1.4892664e-12 </wgt>
<wgt id='1106'> +1.5548838e-12 </wgt>
<wgt id='1107'> +1.6111952e-12 </wgt>
<wgt id='1108'> +1.5442739e-12 </wgt>
<wgt id='1109'> +1.5648428e-12 </wgt>
<wgt id='1110'> +1.5490768e-12 </wgt>
<wgt id='1111'> +1.5987931e-12 </wgt>
<wgt id='1112'> +1.5240263e-12 </wgt>
<wgt id='1113'> +1.6382756e-12 </wgt>
<wgt id='1114'> +1.5627491e-12 </wgt>
<wgt id='1115'> +1.5704116e-12 </wgt>
<wgt id='1116'> +1.6604809e-12 </wgt>
<wgt id='1117'> +1.5475438e-12 </wgt>
<wgt id='1118'> +1.5126935e-12 </wgt>
<wgt id='1119'> +1.5244144e-12 </wgt>
<wgt id='1120'> +1.5618598e-12 </wgt>
<wgt id='1121'> +1.4895637e-12 </wgt>
<wgt id='1122'> +1.5167040e-12 </wgt>
<wgt id='1123'> +1.5918344e-12 </wgt>
<wgt id='1124'> +1.6240559e-12 </wgt>
<wgt id='1125'> +1.4843080e-12 </wgt>
<wgt id='1126'> +1.4798970e-12 </wgt>
<wgt id='1127'> +1.5730938e-12 </wgt>
<wgt id='1128'> +1.5329292e-12 </wgt>
<wgt id='1129'> +1.5551183e-12 </wgt>
<wgt id='1130'> +1.5466202e-12 </wgt>
<wgt id='1131'> +1.5980526e-12 </wgt>
<wgt id='1132'> +1.5357772e-12 </wgt>
<wgt id='1133'> +1.5663131e-12 </wgt>
<wgt id='1134'> +1.5429460e-12 </wgt>
<wgt id='1135'> +1.5208054e-12 </wgt>
<wgt id='1136'> +1.5468250e-12 </wgt>
<wgt id='1137'> +1.5778187e-12 </wgt>
<wgt id='1138'> +1.5619905e-12 </wgt>
<wgt id='1139'> +1.5562822e-12 </wgt>
<wgt id='1140'> +1.5697132e-12 </wgt>
<wgt id='1141'> +1.5496286e-12 </wgt>
<wgt id='1142'> +1.6072857e-12 </wgt>
<wgt id='1143'> +1.4481337e-12 </wgt>
<wgt id='1144'> +1.5275686e-12 </wgt>
<wgt id='1145'> +1.5383936e-12 </wgt>
<wgt id='1146'> +1.5507056e-12 </wgt>
<wgt id='1147'> +1.4961017e-12 </wgt>
<wgt id='1148'> +1.5166812e-12 </wgt>
<wgt id='1149'> +1.4154645e-12 </wgt>
<wgt id='1150'> +1.5036125e-12 </wgt>
<wgt id='1151'> +1.9860582e-12 </wgt>
<wgt id='1152'> +2.8012886e-12 </wgt>
<wgt id='1153'> +2.8170476e-12 </wgt>
<wgt id='1154'> +2.7921282e-12 </wgt>
<wgt id='1155'> +2.7984478e-12 </wgt>
<wgt id='1156'> +2.8027496e-12 </wgt>
<wgt id='1157'> +2.8098226e-12 </wgt>
<wgt id='1158'> +2.7898982e-12 </wgt>
<wgt id='1159'> +2.8075643e-12 </wgt>
<wgt id='1160'> +2.7973212e-12 </wgt>
<wgt id='1161'> +2.7929701e-12 </wgt>
<wgt id='1162'> +2.8069956e-12 </wgt>
<wgt id='1163'> +2.7987936e-12 </wgt>
<wgt id='1164'> +2.8039810e-12 </wgt>
<wgt id='1165'> +2.8037766e-12 </wgt>
<wgt id='1166'> +2.7988349e-12 </wgt>
<wgt id='1167'> +2.8429390e-12 </wgt>
<wgt id='1168'> +2.7528159e-12 </wgt>
<wgt id='1169'> +2.8182853e-12 </wgt>
<wgt id='1170'> +2.7888272e-12 </wgt>
<wgt id='1171'> +2.7868031e-12 </wgt>
<wgt id='1172'> +2.8196469e-12 </wgt>
<wgt id='1173'> +2.7707064e-12 </wgt>
<wgt id='1174'> +2.8334200e-12 </wgt>
<wgt id='1175'> +2.8094105e-12 </wgt>
<wgt id='1176'> +2.7955680e-12 </wgt>
<wgt id='1177'> +2.8038252e-12 </wgt>
<wgt id='1178'> +2.7940414e-12 </wgt>
<wgt id='1179'> +2.7919241e-12 </wgt>
<wgt id='1180'> +2.8064764e-12 </wgt>
<wgt id='1181'> +2.8016239e-12 </wgt>
<wgt id='1182'> +2.8019056e-12 </wgt>
<wgt id='1183'> +2.8163840e-12 </wgt>
<wgt id='1184'> +2.8004521e-12 </wgt>
<wgt id='1185'> +2.7930423e-12 </wgt>
<wgt id='1186'> +2.8050624e-12 </wgt>
<wgt id='1187'> +2.8059651e-12 </wgt>
<wgt id='1188'> +2.7997098e-12 </wgt>
<wgt id='1189'> +2.7918291e-12 </wgt>
<wgt id='1190'> +2.7702427e-12 </wgt>
<wgt id='1191'> +2.7988320e-12 </wgt>
<wgt id='1192'> +2.8266763e-12 </wgt>
<wgt id='1193'> +1.4872128e-12 </wgt>
<wgt id='1194'> +1.4614426e-12 </wgt>
<wgt id='1195'> +1.5083782e-12 </wgt>
<wgt id='1196'> +1.4787707e-12 </wgt>
<wgt id='1197'> +1.4965965e-12 </wgt>
<wgt id='1198'> +1.4853955e-12 </wgt>
<wgt id='1199'> +1.4900236e-12 </wgt>
<wgt id='1200'> +1.4859911e-12 </wgt>
<wgt id='1201'> +1.4880608e-12 </wgt>
<wgt id='1202'> +1.4872901e-12 </wgt>
<wgt id='1203'> +1.4870947e-12 </wgt>
<wgt id='1204'> +1.4862711e-12 </wgt>
<wgt id='1205'> +1.4875569e-12 </wgt>
<wgt id='1206'> +1.4907148e-12 </wgt>
<wgt id='1207'> +1.4824118e-12 </wgt>
<wgt id='1208'> +1.4968927e-12 </wgt>
<wgt id='1209'> +1.4838354e-12 </wgt>
<wgt id='1210'> +1.5065319e-12 </wgt>
<wgt id='1211'> +1.4742850e-12 </wgt>
<wgt id='1212'> +1.4817098e-12 </wgt>
<wgt id='1213'> +1.4936314e-12 </wgt>
<wgt id='1214'> +1.4766591e-12 </wgt>
<wgt id='1215'> +1.4971309e-12 </wgt>
<wgt id='1216'> +1.4914047e-12 </wgt>
<wgt id='1217'> +1.4838894e-12 </wgt>
<wgt id='1218'> +1.4935506e-12 </wgt>
<wgt id='1219'> +1.4840502e-12 </wgt>
<wgt id='1220'> +1.5000850e-12 </wgt>
<wgt id='1221'> +1.4827634e-12 </wgt>
<wgt id='1222'> +1.5133503e-12 </wgt>
<wgt id='1223'> +1.4531256e-12 </wgt>
<wgt id='1224'> +1.4896643e-12 </wgt>
<wgt id='1225'> +1.4863024e-12 </wgt>
<wgt id='1226'> +1.4835188e-12 </wgt>
<wgt id='1227'> +1.4898095e-12 </wgt>
<wgt id='1228'> +1.4919802e-12 </wgt>
<wgt id='1229'> +1.4858611e-12 </wgt>
<wgt id='1230'> +1.4884118e-12 </wgt>
<wgt id='1231'> +1.5044737e-12 </wgt>
<wgt id='1232'> +1.4934697e-12 </wgt>
<wgt id='1233'> +1.4858101e-12 </wgt>
<wgt id='1234'> +1.4872128e-12 </wgt>
<wgt id='1235'> +1.4808524e-12 </wgt>
<wgt id='1236'> +1.4832974e-12 </wgt>
<wgt id='1237'> +1.4854409e-12 </wgt>
<wgt id='1238'> +1.4889458e-12 </wgt>
<wgt id='1239'> +1.4903492e-12 </wgt>
<wgt id='1240'> +1.4918604e-12 </wgt>
<wgt id='1241'> +1.3806639e-12 </wgt>
<wgt id='1242'> +1.3595144e-12 </wgt>
<wgt id='1243'> +1.4014916e-12 </wgt>
<wgt id='1244'> +1.3956181e-12 </wgt>
<wgt id='1245'> +1.3696796e-12 </wgt>
<wgt id='1246'> +1.3783402e-12 </wgt>
<wgt id='1247'> +1.3826203e-12 </wgt>
<wgt id='1248'> +1.3807848e-12 </wgt>
<wgt id='1249'> +1.3805270e-12 </wgt>
<wgt id='1250'> +1.3822827e-12 </wgt>
<wgt id='1251'> +1.3795449e-12 </wgt>
<wgt id='1252'> +1.3767381e-12 </wgt>
<wgt id='1253'> +1.3836824e-12 </wgt>
<wgt id='1254'> +1.3794665e-12 </wgt>
<wgt id='1255'> +1.3812434e-12 </wgt>
<wgt id='1256'> +1.3765712e-12 </wgt>
<wgt id='1257'> +1.3909685e-12 </wgt>
<wgt id='1258'> +1.3815824e-12 </wgt>
<wgt id='1259'> +1.3751190e-12 </wgt>
<wgt id='1260'> +1.3838119e-12 </wgt>
<wgt id='1261'> +1.3773977e-12 </wgt>
<wgt id='1262'> +1.3765484e-12 </wgt>
<wgt id='1263'> +1.3826172e-12 </wgt>
<wgt id='1264'> +1.3867199e-12 </wgt>
<wgt id='1265'> +1.3786027e-12 </wgt>
<wgt id='1266'> +1.3548362e-12 </wgt>
<wgt id='1267'> +1.4059748e-12 </wgt>
<wgt id='1268'> +1.3897966e-12 </wgt>
<wgt id='1269'> +1.3728534e-12 </wgt>
<wgt id='1270'> +1.4041312e-12 </wgt>
<wgt id='1271'> +1.3840718e-12 </wgt>
<wgt id='1272'> +1.3882608e-12 </wgt>
<wgt id='1273'> +1.3800691e-12 </wgt>
<wgt id='1274'> +1.3836821e-12 </wgt>
<wgt id='1275'> +1.3764710e-12 </wgt>
<wgt id='1276'> +1.3797115e-12 </wgt>
<wgt id='1277'> +1.3843522e-12 </wgt>
<wgt id='1278'> +1.4049957e-12 </wgt>
<wgt id='1279'> +1.3818775e-12 </wgt>
<wgt id='1280'> +1.3807128e-12 </wgt>
<wgt id='1281'> +1.3894666e-12 </wgt>
<wgt id='1282'> +1.3806639e-12 </wgt>
<wgt id='1283'> +1.3758122e-12 </wgt>
<wgt id='1284'> +1.3778332e-12 </wgt>
<wgt id='1285'> +1.3794295e-12 </wgt>
<wgt id='1286'> +1.3821103e-12 </wgt>
<wgt id='1287'> +1.3828605e-12 </wgt>
<wgt id='1288'> +1.3836695e-12 </wgt>
<wgt id='1289'> +1.5632272e-12 </wgt>
<wgt id='1290'> +1.5700008e-12 </wgt>
<wgt id='1291'> +1.5559592e-12 </wgt>
<wgt id='1292'> +1.5644239e-12 </wgt>
<wgt id='1293'> +1.5623672e-12 </wgt>
<wgt id='1294'> +1.5399823e-12 </wgt>
<wgt id='1295'> +1.5854989e-12 </wgt>
<wgt id='1296'> +1.5824145e-12 </wgt>
<wgt id='1297'> +1.5395651e-12 </wgt>
<wgt id='1298'> +1.5724606e-12 </wgt>
<wgt id='1299'> +1.5515502e-12 </wgt>
<wgt id='1300'> +1.5656216e-12 </wgt>
<wgt id='1301'> +1.5583902e-12 </wgt>
<wgt id='1302'> +1.5593709e-12 </wgt>
<wgt id='1303'> +1.5685741e-12 </wgt>
<wgt id='1304'> +1.5607510e-12 </wgt>
<wgt id='1305'> +1.5648801e-12 </wgt>
<wgt id='1306'> +1.5656933e-12 </wgt>
<wgt id='1307'> +1.5603578e-12 </wgt>
<wgt id='1308'> +1.5574523e-12 </wgt>
<wgt id='1309'> +1.5676631e-12 </wgt>
<wgt id='1310'> +1.5743524e-12 </wgt>
<wgt id='1311'> +1.5518023e-12 </wgt>
<wgt id='1312'> +1.5703946e-12 </wgt>
<wgt id='1313'> +1.5568034e-12 </wgt>
<wgt id='1314'> +1.5526458e-12 </wgt>
<wgt id='1315'> +1.5756903e-12 </wgt>
<wgt id='1316'> +1.5703290e-12 </wgt>
<wgt id='1317'> +1.5670726e-12 </wgt>
<wgt id='1318'> +1.5717466e-12 </wgt>
<wgt id='1319'> +1.5508852e-12 </wgt>
<wgt id='1320'> +1.5823121e-12 </wgt>
<wgt id='1321'> +1.5449475e-12 </wgt>
<wgt id='1322'> +1.5619150e-12 </wgt>
<wgt id='1323'> +1.5646326e-12 </wgt>
<wgt id='1324'> +1.5603295e-12 </wgt>
<wgt id='1325'> +1.5701451e-12 </wgt>
<wgt id='1326'> +1.5631872e-12 </wgt>
<wgt id='1327'> +1.5669865e-12 </wgt>
<wgt id='1328'> +1.5635337e-12 </wgt>
<wgt id='1329'> +1.5622070e-12 </wgt>
<wgt id='1330'> +1.5688930e-12 </wgt>
<wgt id='1331'> +1.5559409e-12 </wgt>
<wgt id='1332'> +1.5713149e-12 </wgt>
<wgt id='1333'> +1.5786239e-12 </wgt>
<wgt id='1334'> +1.5635129e-12 </wgt>
<wgt id='1335'> +1.5633675e-12 </wgt>
<wgt id='1336'> +1.5676263e-12 </wgt>
<wgt id='1337'> +1.5764950e-12 </wgt>
<wgt id='1338'> +1.5643630e-12 </wgt>
<wgt id='1339'> +1.5661259e-12 </wgt>
<wgt id='1340'> +1.5331648e-12 </wgt>
<wgt id='1341'> +1.5396916e-12 </wgt>
<wgt id='1342'> +1.5261674e-12 </wgt>
<wgt id='1343'> +1.5345546e-12 </wgt>
<wgt id='1344'> +1.5322694e-12 </wgt>
<wgt id='1345'> +1.5090054e-12 </wgt>
<wgt id='1346'> +1.5553961e-12 </wgt>
<wgt id='1347'> +1.5531345e-12 </wgt>
<wgt id='1348'> +1.5109679e-12 </wgt>
<wgt id='1349'> +1.5423663e-12 </wgt>
<wgt id='1350'> +1.5240659e-12 </wgt>
<wgt id='1351'> +1.5355688e-12 </wgt>
<wgt id='1352'> +1.5278738e-12 </wgt>
<wgt id='1353'> +1.5284333e-12 </wgt>
<wgt id='1354'> +1.5415883e-12 </wgt>
<wgt id='1355'> +1.5316690e-12 </wgt>
<wgt id='1356'> +1.5339750e-12 </wgt>
<wgt id='1357'> +1.5345318e-12 </wgt>
<wgt id='1358'> +1.5313603e-12 </wgt>
<wgt id='1359'> +1.5273046e-12 </wgt>
<wgt id='1360'> +1.5382471e-12 </wgt>
<wgt id='1361'> +1.5431961e-12 </wgt>
<wgt id='1362'> +1.5202829e-12 </wgt>
<wgt id='1363'> +1.5446849e-12 </wgt>
<wgt id='1364'> +1.5260739e-12 </wgt>
<wgt id='1365'> +1.5365622e-12 </wgt>
<wgt id='1366'> +1.5281264e-12 </wgt>
<wgt id='1367'> +1.5402548e-12 </wgt>
<wgt id='1368'> +1.5350494e-12 </wgt>
<wgt id='1369'> +1.5395116e-12 </wgt>
<wgt id='1370'> +1.5243078e-12 </wgt>
<wgt id='1371'> +1.5478851e-12 </wgt>
<wgt id='1372'> +1.5136681e-12 </wgt>
<wgt id='1373'> +1.5277489e-12 </wgt>
<wgt id='1374'> +1.5375495e-12 </wgt>
<wgt id='1375'> +1.5302285e-12 </wgt>
<wgt id='1376'> +1.5403709e-12 </wgt>
<wgt id='1377'> +1.5337398e-12 </wgt>
<wgt id='1378'> +1.5367409e-12 </wgt>
<wgt id='1379'> +1.5336045e-12 </wgt>
<wgt id='1380'> +1.5318768e-12 </wgt>
<wgt id='1381'> +1.5385192e-12 </wgt>
<wgt id='1382'> +1.5270365e-12 </wgt>
<wgt id='1383'> +1.5381847e-12 </wgt>
<wgt id='1384'> +1.5492549e-12 </wgt>
<wgt id='1385'> +1.5335154e-12 </wgt>
<wgt id='1386'> +1.5325753e-12 </wgt>
<wgt id='1387'> +1.5384126e-12 </wgt>
<wgt id='1388'> +1.5468977e-12 </wgt>
<wgt id='1389'> +1.5345438e-12 </wgt>
<wgt id='1390'> +1.5373131e-12 </wgt>
<wgt id='1391'> +1.4997219e-12 </wgt>
<wgt id='1392'> +1.4572877e-12 </wgt>
<wgt id='1393'> +1.4721836e-12 </wgt>
<wgt id='1394'> +1.4864092e-12 </wgt>
<wgt id='1395'> +1.5138534e-12 </wgt>
<wgt id='1396'> +1.5001874e-12 </wgt>
<wgt id='1397'> +1.4787072e-12 </wgt>
<wgt id='1398'> +1.4812646e-12 </wgt>
<wgt id='1399'> +1.4847531e-12 </wgt>
<wgt id='1400'> +1.4891687e-12 </wgt>
<wgt id='1401'> +1.4945219e-12 </wgt>
<wgt id='1402'> +1.5054566e-12 </wgt>
<wgt id='1403'> +1.5112260e-12 </wgt>
<wgt id='1404'> +1.5171551e-12 </wgt>
<wgt id='1405'> +1.5001874e-12 </wgt>
<wgt id='1406'> +1.4965700e-12 </wgt>
<wgt id='1407'> +1.4983544e-12 </wgt>
<wgt id='1408'> +1.5017922e-12 </wgt>
<wgt id='1409'> +1.5027158e-12 </wgt>
<wgt id='1410'> +1.3691700e-12 </wgt>
<wgt id='1411'> +1.3810227e-12 </wgt>
<wgt id='1412'> +1.3539101e-12 </wgt>
<wgt id='1413'> +1.3533467e-12 </wgt>
<wgt id='1414'> +1.3848758e-12 </wgt>
<wgt id='1415'> +1.3626846e-12 </wgt>
<wgt id='1416'> +1.3717629e-12 </wgt>
<wgt id='1417'> +1.3771010e-12 </wgt>
<wgt id='1418'> +1.3611905e-12 </wgt>
<wgt id='1419'> +1.3709397e-12 </wgt>
<wgt id='1420'> +1.3673748e-12 </wgt>
<wgt id='1421'> +1.3573805e-12 </wgt>
<wgt id='1422'> +1.3740253e-12 </wgt>
<wgt id='1423'> +1.3691475e-12 </wgt>
<wgt id='1424'> +1.3691959e-12 </wgt>
<wgt id='1425'> +1.3602311e-12 </wgt>
<wgt id='1426'> +1.3787879e-12 </wgt>
<wgt id='1427'> +1.3570834e-12 </wgt>
<wgt id='1428'> +1.3757024e-12 </wgt>
<wgt id='1429'> +1.3694295e-12 </wgt>
<wgt id='1430'> +1.3691230e-12 </wgt>
<wgt id='1431'> +1.3661647e-12 </wgt>
<wgt id='1432'> +1.3713558e-12 </wgt>
<wgt id='1433'> +1.3462355e-12 </wgt>
<wgt id='1434'> +1.3893783e-12 </wgt>
<wgt id='1435'> +1.3644067e-12 </wgt>
<wgt id='1436'> +1.3819145e-12 </wgt>
<wgt id='1437'> +1.3762079e-12 </wgt>
<wgt id='1438'> +1.3758148e-12 </wgt>
<wgt id='1439'> +1.3621956e-12 </wgt>
<wgt id='1440'> +1.3787813e-12 </wgt>
<wgt id='1441'> +1.3754945e-12 </wgt>
<wgt id='1442'> +1.3547461e-12 </wgt>
<wgt id='1443'> +1.3658781e-12 </wgt>
<wgt id='1444'> +1.3772046e-12 </wgt>
<wgt id='1445'> +1.3821477e-12 </wgt>
<wgt id='1446'> +1.3645295e-12 </wgt>
<wgt id='1447'> +1.3709983e-12 </wgt>
<wgt id='1448'> +1.3734494e-12 </wgt>
<wgt id='1449'> +1.3701685e-12 </wgt>
<wgt id='1450'> +1.3674108e-12 </wgt>
<wgt id='1451'> +1.3678995e-12 </wgt>
<wgt id='1452'> +1.3776851e-12 </wgt>
<wgt id='1453'> +1.3695918e-12 </wgt>
<wgt id='1454'> +1.3766381e-12 </wgt>
<wgt id='1455'> +1.3842018e-12 </wgt>
<wgt id='1456'> +1.3828131e-12 </wgt>
<wgt id='1457'> +1.3764670e-12 </wgt>
<wgt id='1458'> +1.3690385e-12 </wgt>
<wgt id='1459'> +1.3772634e-12 </wgt>
<wgt id='1460'> +1.3879017e-12 </wgt>
<wgt id='1461'> +1.3691700e-12 </wgt>
<wgt id='1462'> +1.3603863e-12 </wgt>
<wgt id='1463'> +1.3716578e-12 </wgt>
<wgt id='1464'> +1.3663469e-12 </wgt>
<wgt id='1465'> +1.3413274e-12 </wgt>
<wgt id='1466'> +1.3446247e-12 </wgt>
<wgt id='1467'> +1.3490972e-12 </wgt>
<wgt id='1468'> +1.3576593e-12 </wgt>
<wgt id='1469'> +1.3607645e-12 </wgt>
<wgt id='1470'> +1.3722982e-12 </wgt>
<wgt id='1471'> +1.3779055e-12 </wgt>
<wgt id='1472'> +1.3836083e-12 </wgt>
<wgt id='1473'> +1.3663469e-12 </wgt>
<wgt id='1474'> +1.3641252e-12 </wgt>
<wgt id='1475'> +1.3662062e-12 </wgt>
<wgt id='1476'> +1.3668602e-12 </wgt>
<wgt id='1477'> +1.3674305e-12 </wgt>
<wgt id='1478'> +1.4683606e-12 </wgt>
<wgt id='1479'> +1.4692053e-12 </wgt>
<wgt id='1480'> +1.4581943e-12 </wgt>
<wgt id='1481'> +1.5091030e-12 </wgt>
<wgt id='1482'> +1.4730422e-12 </wgt>
<wgt id='1483'> +1.4584991e-12 </wgt>
<wgt id='1484'> +1.4501065e-12 </wgt>
<wgt id='1485'> +1.4807590e-12 </wgt>
<wgt id='1486'> +1.4676623e-12 </wgt>
<wgt id='1487'> +1.4762869e-12 </wgt>
<wgt id='1488'> +1.4659303e-12 </wgt>
<wgt id='1489'> +1.4710852e-12 </wgt>
<wgt id='1490'> +1.4659176e-12 </wgt>
<wgt id='1491'> +1.4750128e-12 </wgt>
<wgt id='1492'> +1.4682999e-12 </wgt>
<wgt id='1493'> +1.4494021e-12 </wgt>
<wgt id='1494'> +1.4618081e-12 </wgt>
<wgt id='1495'> +1.4651588e-12 </wgt>
<wgt id='1496'> +1.4690240e-12 </wgt>
<wgt id='1497'> +1.4676646e-12 </wgt>
<wgt id='1498'> +1.4687226e-12 </wgt>
<wgt id='1499'> +1.4711373e-12 </wgt>
<wgt id='1500'> +1.4699119e-12 </wgt>
<wgt id='1501'> +1.4700347e-12 </wgt>
<wgt id='1502'> +1.4677101e-12 </wgt>
<wgt id='1503'> +1.4721382e-12 </wgt>
<wgt id='1504'> +1.4649552e-12 </wgt>
<wgt id='1505'> +1.4727987e-12 </wgt>
<wgt id='1506'> +1.4701407e-12 </wgt>
<wgt id='1507'> +1.4695441e-12 </wgt>
<wgt id='1508'> +1.4713203e-12 </wgt>
<wgt id='1509'> +1.3787735e-12 </wgt>
<wgt id='1510'> +1.3870732e-12 </wgt>
<wgt id='1511'> +1.3531904e-12 </wgt>
<wgt id='1512'> +1.3703298e-12 </wgt>
<wgt id='1513'> +1.3747972e-12 </wgt>
<wgt id='1514'> +1.3805263e-12 </wgt>
<wgt id='1515'> +1.3824787e-12 </wgt>
<wgt id='1516'> +1.3787248e-12 </wgt>
<wgt id='1517'> +1.3814605e-12 </wgt>
<wgt id='1518'> +1.3753424e-12 </wgt>
<wgt id='1519'> +1.3819864e-12 </wgt>
<wgt id='1520'> +1.3812928e-12 </wgt>
<wgt id='1521'> +1.3767578e-12 </wgt>
<wgt id='1522'> +1.3806539e-12 </wgt>
<wgt id='1523'> +1.3820143e-12 </wgt>
<wgt id='1524'> +1.3765559e-12 </wgt>
<wgt id='1525'> +1.3778138e-12 </wgt>
<wgt id='1526'> +1.3808559e-12 </wgt>
<wgt id='1527'> +1.3796825e-12 </wgt>
<wgt id='1528'> +1.3792368e-12 </wgt>
<wgt id='1529'> +1.3779505e-12 </wgt>
<wgt id='1530'> +1.3784488e-12 </wgt>
<wgt id='1531'> +1.3805838e-12 </wgt>
<wgt id='1532'> +1.3745988e-12 </wgt>
<wgt id='1533'> +1.3798265e-12 </wgt>
<wgt id='1534'> +1.3802089e-12 </wgt>
<wgt id='1535'> +1.3763195e-12 </wgt>
<wgt id='1536'> +1.3833206e-12 </wgt>
<wgt id='1537'> +1.3815900e-12 </wgt>
<wgt id='1538'> +1.3647909e-12 </wgt>
<wgt id='1539'> +1.3753037e-12 </wgt>
<wgt id='1540'> +1.3778141e-12 </wgt>
<wgt id='1541'> +1.3758530e-12 </wgt>
<wgt id='1542'> +1.3768042e-12 </wgt>
<wgt id='1543'> +1.3804644e-12 </wgt>
<wgt id='1544'> +1.3771503e-12 </wgt>
<wgt id='1545'> +1.3767113e-12 </wgt>
<wgt id='1546'> +1.3796503e-12 </wgt>
<wgt id='1547'> +1.3780187e-12 </wgt>
<wgt id='1548'> +1.3788588e-12 </wgt>
<wgt id='1549'> +1.3776605e-12 </wgt>
<wgt id='1550'> +1.3770790e-12 </wgt>
<wgt id='1551'> +1.3792568e-12 </wgt>
<wgt id='1552'> +1.3815567e-12 </wgt>
<wgt id='1553'> +1.3776226e-12 </wgt>
<wgt id='1554'> +1.3789377e-12 </wgt>
<wgt id='1555'> +1.3791669e-12 </wgt>
<wgt id='1556'> +1.3795812e-12 </wgt>
<wgt id='1557'> +1.3817914e-12 </wgt>
<wgt id='1558'> +1.3804001e-12 </wgt>
<wgt id='1559'> +1.3818403e-12 </wgt>
<wgt id='1560'> +1.3826994e-12 </wgt>
<wgt id='1561'> +1.3802431e-12 </wgt>
<wgt id='1562'> +1.3805012e-12 </wgt>
<wgt id='1563'> +1.3810991e-12 </wgt>
<wgt id='1564'> +1.3798407e-12 </wgt>
<wgt id='1565'> +1.3763964e-12 </wgt>
<wgt id='1566'> +1.3776842e-12 </wgt>
<wgt id='1567'> +1.3784009e-12 </wgt>
<wgt id='1568'> +1.3799929e-12 </wgt>
<wgt id='1569'> +1.3769351e-12 </wgt>
<wgt id='1570'> +1.3794550e-12 </wgt>
<wgt id='1571'> +1.3787696e-12 </wgt>
<wgt id='1572'> +1.3791787e-12 </wgt>
<wgt id='1573'> +1.3762757e-12 </wgt>
<wgt id='1574'> +1.3796966e-12 </wgt>
<wgt id='1575'> +1.3798652e-12 </wgt>
<wgt id='1576'> +1.3814368e-12 </wgt>
<wgt id='1577'> +1.3803524e-12 </wgt>
<wgt id='1578'> +1.3793522e-12 </wgt>
<wgt id='1579'> +1.3783582e-12 </wgt>
<wgt id='1580'> +1.3777675e-12 </wgt>
<wgt id='1581'> +1.3776546e-12 </wgt>
<wgt id='1582'> +1.3753619e-12 </wgt>
<wgt id='1583'> +1.3794533e-12 </wgt>
<wgt id='1584'> +1.3802513e-12 </wgt>
<wgt id='1585'> +1.3793662e-12 </wgt>
<wgt id='1586'> +1.3803596e-12 </wgt>
<wgt id='1587'> +1.3773729e-12 </wgt>
<wgt id='1588'> +1.3808978e-12 </wgt>
<wgt id='1589'> +1.3781153e-12 </wgt>
<wgt id='1590'> +1.3798620e-12 </wgt>
<wgt id='1591'> +1.3803066e-12 </wgt>
<wgt id='1592'> +1.3780341e-12 </wgt>
<wgt id='1593'> +1.3792913e-12 </wgt>
<wgt id='1594'> +1.3785903e-12 </wgt>
<wgt id='1595'> +1.3795830e-12 </wgt>
<wgt id='1596'> +1.3784098e-12 </wgt>
<wgt id='1597'> +1.3808236e-12 </wgt>
<wgt id='1598'> +1.3778915e-12 </wgt>
<wgt id='1599'> +1.3791918e-12 </wgt>
<wgt id='1600'> +1.3792900e-12 </wgt>
<wgt id='1601'> +1.3793383e-12 </wgt>
<wgt id='1602'> +1.3797602e-12 </wgt>
<wgt id='1603'> +1.3786136e-12 </wgt>
<wgt id='1604'> +1.3796807e-12 </wgt>
<wgt id='1605'> +1.3778082e-12 </wgt>
<wgt id='1606'> +1.3783112e-12 </wgt>
<wgt id='1607'> +1.3788275e-12 </wgt>
<wgt id='1608'> +1.3791894e-12 </wgt>
<wgt id='1609'> +1.3778753e-12 </wgt>
<wgt id='1610'> +1.3633770e-12 </wgt>
<wgt id='1611'> +1.3916664e-12 </wgt>
<wgt id='1612'> +1.5500410e-12 </wgt>
<wgt id='1613'> +1.5070800e-12 </wgt>
<wgt id='1614'> +1.4641493e-12 </wgt>
<wgt id='1615'> +1.5105723e-12 </wgt>
<wgt id='1616'> +1.4987524e-12 </wgt>
<wgt id='1617'> +1.4828221e-12 </wgt>
<wgt id='1618'> +1.5514325e-12 </wgt>
<wgt id='1619'> +1.4912542e-12 </wgt>
<wgt id='1620'> +1.5143683e-12 </wgt>
<wgt id='1621'> +1.5645377e-12 </wgt>
<wgt id='1622'> +1.5576116e-12 </wgt>
<wgt id='1623'> +1.5840057e-12 </wgt>
<wgt id='1624'> +1.6135750e-12 </wgt>
<wgt id='1625'> +1.4471040e-12 </wgt>
<wgt id='1626'> +1.5241924e-12 </wgt>
<wgt id='1627'> +1.5687179e-12 </wgt>
<wgt id='1628'> +1.4859986e-12 </wgt>
<wgt id='1629'> +1.5701160e-12 </wgt>
<wgt id='1630'> +1.4981171e-12 </wgt>
<wgt id='1631'> +1.5116460e-12 </wgt>
<wgt id='1632'> +1.4997416e-12 </wgt>
<wgt id='1633'> +1.4469016e-12 </wgt>
<wgt id='1634'> +1.5547106e-12 </wgt>
<wgt id='1635'> +1.5672093e-12 </wgt>
<wgt id='1636'> +1.5054871e-12 </wgt>
<wgt id='1637'> +1.5806241e-12 </wgt>
<wgt id='1638'> +1.5860898e-12 </wgt>
<wgt id='1639'> +1.5301939e-12 </wgt>
<wgt id='1640'> +1.5040372e-12 </wgt>
<wgt id='1641'> +1.5696611e-12 </wgt>
<wgt id='1642'> +1.4869498e-12 </wgt>
<wgt id='1643'> +1.5180437e-12 </wgt>
<wgt id='1644'> +1.5908586e-12 </wgt>
<wgt id='1645'> +1.5273216e-12 </wgt>
<wgt id='1646'> +1.5631260e-12 </wgt>
<wgt id='1647'> +1.6008030e-12 </wgt>
<wgt id='1648'> +1.5467051e-12 </wgt>
<wgt id='1649'> +1.6240691e-12 </wgt>
<wgt id='1650'> +1.5191690e-12 </wgt>
<wgt id='1651'> +1.6320374e-12 </wgt>
<wgt id='1652'> +1.5135514e-12 </wgt>
<wgt id='1653'> +1.5415037e-12 </wgt>
<wgt id='1654'> +1.5689666e-12 </wgt>
<wgt id='1655'> +1.5977519e-12 </wgt>
<wgt id='1656'> +1.4879267e-12 </wgt>
<wgt id='1657'> +1.5874201e-12 </wgt>
<wgt id='1658'> +1.5315598e-12 </wgt>
<wgt id='1659'> +1.6135750e-12 </wgt>
<wgt id='1660'> +1.5553636e-12 </wgt>
<wgt id='1661'> +1.5936048e-12 </wgt>
<wgt id='1662'> +1.6191111e-12 </wgt>
<wgt id='1663'> +1.5679718e-12 </wgt>
<wgt id='1664'> +1.5403385e-12 </wgt>
<wgt id='1665'> +1.4955694e-12 </wgt>
<wgt id='1666'> +1.5712789e-12 </wgt>
<wgt id='1667'> +1.5744867e-12 </wgt>
<wgt id='1668'> +1.5947702e-12 </wgt>
<wgt id='1669'> +1.6210402e-12 </wgt>
<wgt id='1670'> +1.5082547e-12 </wgt>
<wgt id='1671'> +1.5167809e-12 </wgt>
<wgt id='1672'> +1.5743678e-12 </wgt>
<wgt id='1673'> +1.5918472e-12 </wgt>
<wgt id='1674'> +1.5249252e-12 </wgt>
<wgt id='1675'> +1.5615569e-12 </wgt>
<wgt id='1676'> +1.5251219e-12 </wgt>
<wgt id='1677'> +1.5148058e-12 </wgt>
<wgt id='1678'> +1.5323136e-12 </wgt>
<wgt id='1679'> +1.5761840e-12 </wgt>
<wgt id='1680'> +1.5987461e-12 </wgt>
<wgt id='1681'> +1.5843730e-12 </wgt>
<wgt id='1682'> +1.5566068e-12 </wgt>
<wgt id='1683'> +1.5825752e-12 </wgt>
<wgt id='1684'> +1.6122717e-12 </wgt>
<wgt id='1685'> +1.5391371e-12 </wgt>
<wgt id='1686'> +1.5434080e-12 </wgt>
<wgt id='1687'> +1.5509804e-12 </wgt>
<wgt id='1688'> +1.5345403e-12 </wgt>
<wgt id='1689'> +1.5902691e-12 </wgt>
<wgt id='1690'> +1.5870923e-12 </wgt>
<wgt id='1691'> +1.4433812e-12 </wgt>
<wgt id='1692'> +1.5005768e-12 </wgt>
<wgt id='1693'> +1.5608036e-12 </wgt>
<wgt id='1694'> +1.5131460e-12 </wgt>
<wgt id='1695'> +1.5506528e-12 </wgt>
<wgt id='1696'> +1.5626404e-12 </wgt>
<wgt id='1697'> +1.5796375e-12 </wgt>
<wgt id='1698'> +1.5522786e-12 </wgt>
<wgt id='1699'> +1.5730163e-12 </wgt>
<wgt id='1700'> +1.5068306e-12 </wgt>
<wgt id='1701'> +1.6304056e-12 </wgt>
<wgt id='1702'> +1.5205488e-12 </wgt>
<wgt id='1703'> +1.5409599e-12 </wgt>
<wgt id='1704'> +1.4864434e-12 </wgt>
<wgt id='1705'> +1.5161248e-12 </wgt>
<wgt id='1706'> +1.6056811e-12 </wgt>
<wgt id='1707'> +1.6026591e-12 </wgt>
<wgt id='1708'> +1.6555492e-12 </wgt>
<wgt id='1709'> +1.6179388e-12 </wgt>
<wgt id='1710'> +1.5371092e-12 </wgt>
<wgt id='1711'> +1.5185944e-12 </wgt>
<wgt id='1712'> +1.6291603e-12 </wgt>
<wgt id='1713'> +1.4354162e-12 </wgt>
<wgt id='1714'> +1.4371924e-12 </wgt>
<wgt id='1715'> +1.3718268e-12 </wgt>
<wgt id='1716'> +1.4639941e-12 </wgt>
<wgt id='1717'> +1.4785526e-12 </wgt>
<wgt id='1718'> +1.4624323e-12 </wgt>
<wgt id='1719'> +1.4421098e-12 </wgt>
<wgt id='1720'> +1.3790189e-12 </wgt>
<wgt id='1721'> +1.4019819e-12 </wgt>
<wgt id='1722'> +1.4226486e-12 </wgt>
<wgt id='1723'> +1.5163810e-12 </wgt>
<wgt id='1724'> +1.4227248e-12 </wgt>
<wgt id='1725'> +1.4447440e-12 </wgt>
<wgt id='1726'> +1.4082074e-12 </wgt>
<wgt id='1727'> +1.5175179e-12 </wgt>
<wgt id='1728'> +1.4055878e-12 </wgt>
<wgt id='1729'> +1.3676188e-12 </wgt>
<wgt id='1730'> +1.3978859e-12 </wgt>
<wgt id='1731'> +1.3721503e-12 </wgt>
<wgt id='1732'> +1.4470321e-12 </wgt>
<wgt id='1733'> +1.3941006e-12 </wgt>
<wgt id='1734'> +1.5053890e-12 </wgt>
<wgt id='1735'> +1.4064405e-12 </wgt>
<wgt id='1736'> +1.4514803e-12 </wgt>
<wgt id='1737'> +1.5155551e-12 </wgt>
<wgt id='1738'> +1.4133240e-12 </wgt>
<wgt id='1739'> +1.4476956e-12 </wgt>
<wgt id='1740'> +1.3560485e-12 </wgt>
<wgt id='1741'> +1.4990849e-12 </wgt>
<wgt id='1742'> +1.4278673e-12 </wgt>
<wgt id='1743'> +1.3883257e-12 </wgt>
<wgt id='1744'> +1.4701164e-12 </wgt>
<wgt id='1745'> +1.4661467e-12 </wgt>
<wgt id='1746'> +1.4320245e-12 </wgt>
<wgt id='1747'> +1.5121149e-12 </wgt>
<wgt id='1748'> +1.4535949e-12 </wgt>
<wgt id='1749'> +1.4265144e-12 </wgt>
<wgt id='1750'> +1.3857182e-12 </wgt>
<wgt id='1751'> +1.4162729e-12 </wgt>
<wgt id='1752'> +1.4409676e-12 </wgt>
<wgt id='1753'> +1.4571536e-12 </wgt>
<wgt id='1754'> +1.4523365e-12 </wgt>
<wgt id='1755'> +1.4243346e-12 </wgt>
<wgt id='1756'> +1.4493782e-12 </wgt>
<wgt id='1757'> +1.4791463e-12 </wgt>
<wgt id='1758'> +1.5018509e-12 </wgt>
<wgt id='1759'> +1.4677459e-12 </wgt>
<wgt id='1760'> +1.4174859e-12 </wgt>
<wgt id='1761'> +1.4356936e-12 </wgt>
<wgt id='1762'> +1.4262007e-12 </wgt>
<wgt id='1763'> +1.4620158e-12 </wgt>
<wgt id='1764'> +1.4919963e-12 </wgt>
<wgt id='1765'> +1.4108019e-12 </wgt>
<wgt id='1766'> +1.4817779e-12 </wgt>
<wgt id='1767'> +1.4108763e-12 </wgt>
<wgt id='1768'> +1.4623713e-12 </wgt>
<wgt id='1769'> +1.4341624e-12 </wgt>
<wgt id='1770'> +1.4205714e-12 </wgt>
<wgt id='1771'> +1.4935293e-12 </wgt>
<wgt id='1772'> +1.4111061e-12 </wgt>
<wgt id='1773'> +1.4342547e-12 </wgt>
<wgt id='1774'> +1.4133946e-12 </wgt>
<wgt id='1775'> +1.4238191e-12 </wgt>
<wgt id='1776'> +1.5163118e-12 </wgt>
<wgt id='1777'> +1.3865745e-12 </wgt>
<wgt id='1778'> +1.4764389e-12 </wgt>
<wgt id='1779'> +1.4134762e-12 </wgt>
<wgt id='1780'> +1.4482864e-12 </wgt>
<wgt id='1781'> +1.4703818e-12 </wgt>
<wgt id='1782'> +1.4363890e-12 </wgt>
<wgt id='1783'> +1.4506434e-12 </wgt>
<wgt id='1784'> +1.3970906e-12 </wgt>
<wgt id='1785'> +1.4308018e-12 </wgt>
<wgt id='1786'> +1.4174075e-12 </wgt>
<wgt id='1787'> +1.5444064e-12 </wgt>
<wgt id='1788'> +1.4030751e-12 </wgt>
<wgt id='1789'> +1.5185285e-12 </wgt>
<wgt id='1790'> +1.4466497e-12 </wgt>
<wgt id='1791'> +1.3991918e-12 </wgt>
<wgt id='1792'> +1.4285430e-12 </wgt>
<wgt id='1793'> +1.4022657e-12 </wgt>
<wgt id='1794'> +1.4700527e-12 </wgt>
<wgt id='1795'> +1.4534373e-12 </wgt>
<wgt id='1796'> +1.4055382e-12 </wgt>
<wgt id='1797'> +1.4499480e-12 </wgt>
<wgt id='1798'> +1.4033221e-12 </wgt>
<wgt id='1799'> +1.3894259e-12 </wgt>
<wgt id='1800'> +1.4497105e-12 </wgt>
<wgt id='1801'> +1.4194577e-12 </wgt>
<wgt id='1802'> +1.3778823e-12 </wgt>
<wgt id='1803'> +1.4383890e-12 </wgt>
<wgt id='1804'> +1.4718593e-12 </wgt>
<wgt id='1805'> +1.4040987e-12 </wgt>
<wgt id='1806'> +1.4167910e-12 </wgt>
<wgt id='1807'> +1.4098041e-12 </wgt>
<wgt id='1808'> +1.3905967e-12 </wgt>
<wgt id='1809'> +1.4006013e-12 </wgt>
<wgt id='1810'> +1.4247753e-12 </wgt>
<wgt id='1811'> +1.4343053e-12 </wgt>
<wgt id='1812'> +1.4007488e-12 </wgt>
<wgt id='1813'> +1.3239631e-12 </wgt>
<wgt id='1814'> +2.0323105e-12 </wgt>
<wgt id='1815'> +2.4906515e-12 </wgt>
<wgt id='1816'> +1.4354162e-12 </wgt>
<wgt id='1817'> +1.4371924e-12 </wgt>
<wgt id='1818'> +1.3718268e-12 </wgt>
<wgt id='1819'> +1.4639941e-12 </wgt>
<wgt id='1820'> +1.4785526e-12 </wgt>
<wgt id='1821'> +1.4624323e-12 </wgt>
<wgt id='1822'> +1.4421098e-12 </wgt>
<wgt id='1823'> +1.3790189e-12 </wgt>
<wgt id='1824'> +1.4019819e-12 </wgt>
<wgt id='1825'> +1.4226486e-12 </wgt>
<wgt id='1826'> +1.5163810e-12 </wgt>
<wgt id='1827'> +1.4227248e-12 </wgt>
<wgt id='1828'> +1.4447440e-12 </wgt>
<wgt id='1829'> +1.4082074e-12 </wgt>
<wgt id='1830'> +1.5175179e-12 </wgt>
<wgt id='1831'> +1.4055878e-12 </wgt>
<wgt id='1832'> +1.3676188e-12 </wgt>
<wgt id='1833'> +1.3978859e-12 </wgt>
<wgt id='1834'> +1.3721503e-12 </wgt>
<wgt id='1835'> +1.4470321e-12 </wgt>
<wgt id='1836'> +1.3941006e-12 </wgt>
<wgt id='1837'> +1.5053890e-12 </wgt>
<wgt id='1838'> +1.4064405e-12 </wgt>
<wgt id='1839'> +1.4514803e-12 </wgt>
<wgt id='1840'> +1.5155551e-12 </wgt>
<wgt id='1841'> +1.4133240e-12 </wgt>
<wgt id='1842'> +1.4476956e-12 </wgt>
<wgt id='1843'> +1.3560485e-12 </wgt>
<wgt id='1844'> +1.4990849e-12 </wgt>
<wgt id='1845'> +1.4278673e-12 </wgt>
<wgt id='1846'> +1.3883257e-12 </wgt>
<wgt id='1847'> +1.4701164e-12 </wgt>
<wgt id='1848'> +1.4661467e-12 </wgt>
<wgt id='1849'> +1.4320245e-12 </wgt>
<wgt id='1850'> +1.5121149e-12 </wgt>
<wgt id='1851'> +1.4535949e-12 </wgt>
<wgt id='1852'> +1.4265144e-12 </wgt>
<wgt id='1853'> +1.3857182e-12 </wgt>
<wgt id='1854'> +1.4162729e-12 </wgt>
<wgt id='1855'> +1.4409676e-12 </wgt>
<wgt id='1856'> +1.4571536e-12 </wgt>
<wgt id='1857'> +1.4523365e-12 </wgt>
<wgt id='1858'> +1.4243346e-12 </wgt>
<wgt id='1859'> +1.4493782e-12 </wgt>
<wgt id='1860'> +1.4791463e-12 </wgt>
<wgt id='1861'> +1.5018509e-12 </wgt>
<wgt id='1862'> +1.4677459e-12 </wgt>
<wgt id='1863'> +1.4174859e-12 </wgt>
<wgt id='1864'> +1.4356936e-12 </wgt>
<wgt id='1865'> +1.4262007e-12 </wgt>
<wgt id='1866'> +1.4620158e-12 </wgt>
<wgt id='1867'> +1.4919963e-12 </wgt>
<wgt id='1868'> +1.4108019e-12 </wgt>
<wgt id='1869'> +1.4817779e-12 </wgt>
<wgt id='1870'> +1.4108763e-12 </wgt>
<wgt id='1871'> +1.4623713e-12 </wgt>
<wgt id='1872'> +1.4341624e-12 </wgt>
<wgt id='1873'> +1.4205714e-12 </wgt>
<wgt id='1874'> +1.4935293e-12 </wgt>
<wgt id='1875'> +1.4111061e-12 </wgt>
<wgt id='1876'> +1.4342547e-12 </wgt>
<wgt id='1877'> +1.4133946e-12 </wgt>
<wgt id='1878'> +1.4238191e-12 </wgt>
<wgt id='1879'> +1.5163118e-12 </wgt>
<wgt id='1880'> +1.3865745e-12 </wgt>
<wgt id='1881'> +1.4764389e-12 </wgt>
<wgt id='1882'> +1.4134762e-12 </wgt>
<wgt id='1883'> +1.4482864e-12 </wgt>
<wgt id='1884'> +1.4703818e-12 </wgt>
<wgt id='1885'> +1.4363890e-12 </wgt>
<wgt id='1886'> +1.4506434e-12 </wgt>
<wgt id='1887'> +1.3970906e-12 </wgt>
<wgt id='1888'> +1.4308018e-12 </wgt>
<wgt id='1889'> +1.4174075e-12 </wgt>
<wgt id='1890'> +1.5444064e-12 </wgt>
<wgt id='1891'> +1.4030751e-12 </wgt>
<wgt id='1892'> +1.5185285e-12 </wgt>
<wgt id='1893'> +1.4466497e-12 </wgt>
<wgt id='1894'> +1.3991918e-12 </wgt>
<wgt id='1895'> +1.4285430e-12 </wgt>
<wgt id='1896'> +1.4022657e-12 </wgt>
<wgt id='1897'> +1.4700527e-12 </wgt>
<wgt id='1898'> +1.4534373e-12 </wgt>
<wgt id='1899'> +1.4055382e-12 </wgt>
<wgt id='1900'> +1.4499480e-12 </wgt>
<wgt id='1901'> +1.4033221e-12 </wgt>
<wgt id='1902'> +1.3894259e-12 </wgt>
<wgt id='1903'> +1.4497105e-12 </wgt>
<wgt id='1904'> +1.4194577e-12 </wgt>
<wgt id='1905'> +1.3778823e-12 </wgt>
<wgt id='1906'> +1.4383890e-12 </wgt>
<wgt id='1907'> +1.4718593e-12 </wgt>
<wgt id='1908'> +1.4040987e-12 </wgt>
<wgt id='1909'> +1.4167910e-12 </wgt>
<wgt id='1910'> +1.4098041e-12 </wgt>
<wgt id='1911'> +1.3905967e-12 </wgt>
<wgt id='1912'> +1.4006013e-12 </wgt>
<wgt id='1913'> +1.4247753e-12 </wgt>
<wgt id='1914'> +1.4343053e-12 </wgt>
<wgt id='1915'> +1.4007488e-12 </wgt>
<wgt id='1916'> +1.3239631e-12 </wgt>
<wgt id='1917'> +1.4305335e-12 </wgt>
<wgt id='1918'> +1.4530521e-12 </wgt>
<wgt id='1919'> +1.3679953e-12 </wgt>
</rwgt>
</event>
<event>
 9      1 +1.5538000e-12 6.78476500e+01 7.81860800e-03 1.24112200e-01
       21 -1    0    0  501  502 +0.0000000000e+00 +0.0000000000e+00 +1.5848684139e+02 1.5848684139e+02 0.0000000000e+00 0.0000e+00 -1.0000e+00
       -3 -1    0    0    0  501 -0.0000000000e+00 -0.0000000000e+00 -7.2613349398e+00 7.2613349398e+00 0.0000000000e+00 0.0000e+00 -1.0000e+00
     1023  2    1    2    0    0 -2.2980220260e+01 +2.0978608795e+01 +5.8454839949e+01 6.7898346932e+01 1.5000821725e+01 0.0000e+00 0.0000e+00
  1000023  2    3    3    0    0 -1.3404642942e+01 +6.9557547839e+00 +2.0758767738e+01 2.6253107399e+01 5.4983845902e+00 0.0000e+00 0.0000e+00
       -3  1    1    2    0  502 +2.2980220260e+01 -2.0978608795e+01 +9.2770666504e+01 9.7849829401e+01 0.0000000000e+00 0.0000e+00 -1.0000e+00
  1000022  1    4    4    0    0 -1.2869163516e+01 +6.5771263521e+00 +1.9345317870e+01 2.4659993596e+01 5.0000000000e+00 0.0000e+00 -1.0000e+00
      -11  1    4    4    0    0 -9.6340856926e-02 +4.6965485152e-02 +6.0952368090e-01 6.1887534788e-01 5.1100000000e-04 0.0000e+00 -1.0000e+00
       11  1    4    4    0    0 -4.3913856917e-01 +3.3166294667e-01 +8.0392618670e-01 9.7423845536e-01 5.1100000000e-04 0.0000e+00 1.0000e+00
  1000022  1    3    3    0    0 -9.5755773184e+00 +1.4022854011e+01 +3.7696072211e+01 4.1645239532e+01 5.0000000000e+00 0.0000e+00 -1.0000e+00
<mgrwt>
<rscale>  1 0.67847654E+02</rscale>
<asrwt>0</asrwt>
<pdfrwt beam="1">  1       21 0.24382588E-01 0.67847654E+02</pdfrwt>
<pdfrwt beam="2">  1       -3 0.11171286E-02 0.67847654E+02</pdfrwt>
<totfact> 0.23670441E+06</totfact>
</mgrwt>
<rwgt>
<wgt id='1001'> +1.5538000e-12 </wgt>
<wgt id='1002'> +1.5548020e-12 </wgt>
<wgt id='1003'> +1.5545475e-12 </wgt>
<wgt id='1004'> +1.5501746e-12 </wgt>
<wgt id='1005'> +1.5538000e-12 </wgt>
<wgt id='1006'> +1.3859172e-12 </wgt>
<wgt id='1007'> +1.3850116e-12 </wgt>
<wgt id='1008'> +1.3852834e-12 </wgt>
<wgt id='1009'> +1.3592531e-12 </wgt>
<wgt id='1010'> +1.3859172e-12 </wgt>
<wgt id='1011'> +1.7698705e-12 </wgt>
<wgt id='1012'> +1.7740321e-12 </wgt>
<wgt id='1013'> +1.7729001e-12 </wgt>
<wgt id='1014'> +1.8065430e-12 </wgt>
<wgt id='1015'> +1.7698705e-12 </wgt>
<wgt id='1016'> +1.7174881e-12 </wgt>
<wgt id='1017'> +1.7227567e-12 </wgt>
<wgt id='1018'> +1.7213165e-12 </wgt>
<wgt id='1019'> +1.7729001e-12 </wgt>
<wgt id='1020'> +1.7174881e-12 </wgt>
<wgt id='1021'> +1.5319194e-12 </wgt>
<wgt id='1022'> +1.5346251e-12 </wgt>
<wgt id='1023'> +1.5338941e-12 </wgt>
<wgt id='1024'> +1.5545475e-12 </wgt>
<wgt id='1025'> +1.5319194e-12 </wgt>
<wgt id='1026'> +1.9563210e-12 </wgt>
<wgt id='1027'> +1.9656688e-12 </wgt>
<wgt id='1028'> +1.9630937e-12 </wgt>
<wgt id='1029'> +2.0661030e-12 </wgt>
<wgt id='1030'> +1.9563210e-12 </wgt>
<wgt id='1031'> +1.3621331e-12 </wgt>
<wgt id='1032'> +1.3581072e-12 </wgt>
<wgt id='1033'> +1.3592531e-12 </wgt>
<wgt id='1034'> +1.2903638e-12 </wgt>
<wgt id='1035'> +1.3621331e-12 </wgt>
<wgt id='1036'> +1.2149593e-12 </wgt>
<wgt id='1037'> +1.2097967e-12 </wgt>
<wgt id='1038'> +1.2112533e-12 </wgt>
<wgt id='1039'> +1.1314409e-12 </wgt>
<wgt id='1040'> +1.2149593e-12 </wgt>
<wgt id='1041'> +1.5515504e-12 </wgt>
<wgt id='1042'> +1.5496030e-12 </wgt>
<wgt id='1043'> +1.5501746e-12 </wgt>
<wgt id='1044'> +1.5037646e-12 </wgt>
<wgt id='1045'> +1.5515504e-12 </wgt>
<wgt id='1046'> +1.5538000e-12 </wgt>
<wgt id='1047'> +1.4374117e-12 </wgt>
<wgt id='1048'> +1.5793065e-12 </wgt>
<wgt id='1049'> +1.5971722e-12 </wgt>
<wgt id='1050'> +1.5631020e-12 </wgt>
<wgt id='1051'> +1.5335531e-12 </wgt>
<wgt id='1052'> +1.4341085e-12 </wgt>
<wgt id='1053'> +1.5582841e-12 </wgt>
<wgt id='1054'> +1.6090190e-12 </wgt>
<wgt id='1055'> +1.5813857e-12 </wgt>
<wgt id='1056'> +1.5034306e-12 </wgt>
<wgt id='1057'> +1.5315178e-12 </wgt>
<wgt id='1058'> +1.5936171e-12 </wgt>
<wgt id='1059'> +1.6080592e-12 </wgt>
<wgt id='1060'> +1.5031512e-12 </wgt>
<wgt id='1061'> +1.6197170e-12 </wgt>
<wgt id='1062'> +1.6125588e-12 </wgt>
<wgt id='1063'> +1.3538240e-12 </wgt>
<wgt id='1064'> +1.6278442e-12 </wgt>
<wgt id='1065'> +1.5908807e-12 </wgt>
<wgt id='1066'> +1.6275664e-12 </wgt>
<wgt id='1067'> +1.5565064e-12 </wgt>
<wgt id='1068'> +1.5759310e-12 </wgt>
<wgt id='1069'> +1.5386896e-12 </wgt>
<wgt id='1070'> +1.6033519e-12 </wgt>
<wgt id='1071'> +1.5846957e-12 </wgt>
<wgt id='1072'> +1.5411863e-12 </wgt>
<wgt id='1073'> +1.3197475e-12 </wgt>
<wgt id='1074'> +1.5756512e-12 </wgt>
<wgt id='1075'> +1.4913357e-12 </wgt>
<wgt id='1076'> +1.4101963e-12 </wgt>
<wgt id='1077'> +1.4681086e-12 </wgt>
<wgt id='1078'> +1.5946443e-12 </wgt>
<wgt id='1079'> +1.5348220e-12 </wgt>
<wgt id='1080'> +1.5787416e-12 </wgt>
<wgt id='1081'> +1.4977047e-12 </wgt>
<wgt id='1082'> +1.5594484e-12 </wgt>
<wgt id='1083'> +1.6672527e-12 </wgt>
<wgt id='1084'> +1.4814791e-12 </wgt>
<wgt id='1085'> +1.6134529e-12 </wgt>
<wgt id='1086'> +1.5767494e-12 </wgt>
<wgt id='1087'> +1.5561146e-12 </wgt>
<wgt id='1088'> +1.5726442e-12 </wgt>
<wgt id='1089'> +1.4860897e-12 </wgt>
<wgt id='1090'> +1.4733897e-12 </wgt>
<wgt id='1091'> +1.6992208e-12 </wgt>
<wgt id='1092'> +1.5457413e-12 </wgt>
<wgt id='1093'> +1.5344067e-12 </wgt>
<wgt id='1094'> +1.5745955e-12 </wgt>
<wgt id='1095'> +1.4855829e-12 </wgt>
<wgt id='1096'> +1.4857998e-12 </wgt>
<wgt id='1097'> +1.5782283e-12 </wgt>
<wgt id='1098'> +1.5602248e-12 </wgt>
<wgt id='1099'> +1.4321425e-12 </wgt>
<wgt id='1100'> +1.5685417e-12 </wgt>
<wgt id='1101'> +1.5819077e-12 </wgt>
<wgt id='1102'> +1.6005819e-12 </wgt>
<wgt id='1103'> +1.5836097e-12 </wgt>
<wgt id='1104'> +1.5894564e-12 </wgt>
<wgt id='1105'> +1.4270965e-12 </wgt>
<wgt id='1106'> +1.5246047e-12 </wgt>
<wgt id='1107'> +1.5248687e-12 </wgt>
<wgt id='1108'> +1.5950214e-12 </wgt>
<wgt id='1109'> +1.4294384e-12 </wgt>
<wgt id='1110'> +1.5858746e-12 </wgt>
<wgt id='1111'> +1.5635494e-12 </wgt>
<wgt id='1112'> +1.5807344e-12 </wgt>
<wgt id='1113'> +1.6646346e-12 </wgt>
<wgt id='1114'> +1.4739873e-12 </wgt>
<wgt id='1115'> +1.5453608e-12 </wgt>
<wgt id='1116'> +1.5210626e-12 </wgt>
<wgt id='1117'> +1.4883973e-12 </wgt>
<wgt id='1118'> +1.6704404e-12 </wgt>
<wgt id='1119'> +1.6122605e-12 </wgt>
<wgt id='1120'> +1.6309341e-12 </wgt>
<wgt id='1121'> +1.5876588e-12 </wgt>
<wgt id='1122'> +1.4764098e-12 </wgt>
<wgt id='1123'> +1.5871929e-12 </wgt>
<wgt id='1124'> +1.5741185e-12 </wgt>
<wgt id='1125'> +1.5542019e-12 </wgt>
<wgt id='1126'> +1.4152370e-12 </wgt>
<wgt id='1127'> +1.5500164e-12 </wgt>
<wgt id='1128'> +1.6125588e-12 </wgt>
<wgt id='1129'> +1.5485529e-12 </wgt>
<wgt id='1130'> +1.6064898e-12 </wgt>
<wgt id='1131'> +1.6187809e-12 </wgt>
<wgt id='1132'> +1.5298009e-12 </wgt>
<wgt id='1133'> +1.6667150e-12 </wgt>
<wgt id='1134'> +1.4244718e-12 </wgt>
<wgt id='1135'> +1.6350118e-12 </wgt>
<wgt id='1136'> +1.5840585e-12 </wgt>
<wgt id='1137'> +1.6099595e-12 </wgt>
<wgt id='1138'> +1.6327129e-12 </wgt>
<wgt id='1139'> +1.5817610e-12 </wgt>
<wgt id='1140'> +1.5162489e-12 </wgt>
<wgt id='1141'> +1.7225237e-12 </wgt>
<wgt id='1142'> +1.5877635e-12 </wgt>
<wgt id='1143'> +1.4595562e-12 </wgt>
<wgt id='1144'> +1.4895736e-12 </wgt>
<wgt id='1145'> +1.6045218e-12 </wgt>
<wgt id='1146'> +1.6070533e-12 </wgt>
<wgt id='1147'> +1.2549312e-12 </wgt>
<wgt id='1148'> +1.2810422e-12 </wgt>
<wgt id='1149'> +1.2452815e-12 </wgt>
<wgt id='1150'> +1.2168440e-12 </wgt>
<wgt id='1151'> +1.0050991e-12 </wgt>
<wgt id='1152'> +1.3444404e-12 </wgt>
<wgt id='1153'> +1.3401311e-12 </wgt>
<wgt id='1154'> +1.3468722e-12 </wgt>
<wgt id='1155'> +1.3455068e-12 </wgt>
<wgt id='1156'> +1.3438417e-12 </wgt>
<wgt id='1157'> +1.3372354e-12 </wgt>
<wgt id='1158'> +1.3541565e-12 </wgt>
<wgt id='1159'> +1.3390517e-12 </wgt>
<wgt id='1160'> +1.3478655e-12 </wgt>
<wgt id='1161'> +1.3348716e-12 </wgt>
<wgt id='1162'> +1.3510158e-12 </wgt>
<wgt id='1163'> +1.3384515e-12 </wgt>
<wgt id='1164'> +1.3503792e-12 </wgt>
<wgt id='1165'> +1.3336967e-12 </wgt>
<wgt id='1166'> +1.3548597e-12 </wgt>
<wgt id='1167'> +1.3573981e-12 </wgt>
<wgt id='1168'> +1.3269642e-12 </wgt>
<wgt id='1169'> +1.3473110e-12 </wgt>
<wgt id='1170'> +1.3422411e-12 </wgt>
<wgt id='1171'> +1.3413765e-12 </wgt>
<wgt id='1172'> +1.3482508e-12 </wgt>
<wgt id='1173'> +1.3387451e-12 </wgt>
<wgt id='1174'> +1.3496147e-12 </wgt>
<wgt id='1175'> +1.3431215e-12 </wgt>
<wgt id='1176'> +1.3447063e-12 </wgt>
<wgt id='1177'> +1.3451169e-12 </wgt>
<wgt id='1178'> +1.3426078e-12 </wgt>
<wgt id='1179'> +1.3543675e-12 </wgt>
<wgt id='1180'> +1.3302350e-12 </wgt>
<wgt id='1181'> +1.3415733e-12 </wgt>
<wgt id='1182'> +1.3470557e-12 </wgt>
<wgt id='1183'> +1.3448817e-12 </wgt>
<wgt id='1184'> +1.3443979e-12 </wgt>
<wgt id='1185'> +1.3732999e-12 </wgt>
<wgt id='1186'> +1.3300245e-12 </wgt>
<wgt id='1187'> +1.3491291e-12 </wgt>
<wgt id='1188'> +1.3425050e-12 </wgt>
<wgt id='1189'> +1.3415899e-12 </wgt>
<wgt id='1190'> +1.3297734e-12 </wgt>
<wgt id='1191'> +1.3406881e-12 </wgt>
<wgt id='1192'> +1.3467369e-12 </wgt>
<wgt id='1193'> +1.2166271e-12 </wgt>
<wgt id='1194'> +1.2130724e-12 </wgt>
<wgt id='1195'> +1.2195079e-12 </wgt>
<wgt id='1196'> +1.2151141e-12 </wgt>
<wgt id='1197'> +1.2184010e-12 </wgt>
<wgt id='1198'> +1.2223379e-12 </wgt>
<wgt id='1199'> +1.2082622e-12 </wgt>
<wgt id='1200'> +1.2153526e-12 </wgt>
<wgt id='1201'> +1.2175083e-12 </wgt>
<wgt id='1202'> +1.2141533e-12 </wgt>
<wgt id='1203'> +1.2201739e-12 </wgt>
<wgt id='1204'> +1.2054350e-12 </wgt>
<wgt id='1205'> +1.2235803e-12 </wgt>
<wgt id='1206'> +1.2214820e-12 </wgt>
<wgt id='1207'> +1.2100327e-12 </wgt>
<wgt id='1208'> +1.2106082e-12 </wgt>
<wgt id='1209'> +1.2188516e-12 </wgt>
<wgt id='1210'> +1.2148891e-12 </wgt>
<wgt id='1211'> +1.2104617e-12 </wgt>
<wgt id='1212'> +1.2150107e-12 </wgt>
<wgt id='1213'> +1.2181048e-12 </wgt>
<wgt id='1214'> +1.2051869e-12 </wgt>
<wgt id='1215'> +1.2340702e-12 </wgt>
<wgt id='1216'> +1.2234094e-12 </wgt>
<wgt id='1217'> +1.2118850e-12 </wgt>
<wgt id='1218'> +1.2231557e-12 </wgt>
<wgt id='1219'> +1.2133115e-12 </wgt>
<wgt id='1220'> +1.2217176e-12 </wgt>
<wgt id='1221'> +1.2154864e-12 </wgt>
<wgt id='1222'> +1.2188572e-12 </wgt>
<wgt id='1223'> +1.2156869e-12 </wgt>
<wgt id='1224'> +1.2129754e-12 </wgt>
<wgt id='1225'> +1.2181375e-12 </wgt>
<wgt id='1226'> +1.2259310e-12 </wgt>
<wgt id='1227'> +1.2108525e-12 </wgt>
<wgt id='1228'> +1.2125787e-12 </wgt>
<wgt id='1229'> +1.2184314e-12 </wgt>
<wgt id='1230'> +1.2195654e-12 </wgt>
<wgt id='1231'> +1.2083584e-12 </wgt>
<wgt id='1232'> +1.2141537e-12 </wgt>
<wgt id='1233'> +1.2170860e-12 </wgt>
<wgt id='1234'> +1.2166271e-12 </wgt>
<wgt id='1235'> +1.2090049e-12 </wgt>
<wgt id='1236'> +1.2118970e-12 </wgt>
<wgt id='1237'> +1.2144902e-12 </wgt>
<wgt id='1238'> +1.2189923e-12 </wgt>
<wgt id='1239'> +1.2207035e-12 </wgt>
<wgt id='1240'> +1.2225046e-12 </wgt>
<wgt id='1241'> +1.2429437e-12 </wgt>
<wgt id='1242'> +1.2366913e-12 </wgt>
<wgt id='1243'> +1.2489618e-12 </wgt>
<wgt id='1244'> +1.2388731e-12 </wgt>
<wgt id='1245'> +1.2459632e-12 </wgt>
<wgt id='1246'> +1.2447205e-12 </wgt>
<wgt id='1247'> +1.2414432e-12 </wgt>
<wgt id='1248'> +1.2426879e-12 </wgt>
<wgt id='1249'> +1.2432886e-12 </wgt>
<wgt id='1250'> +1.2335811e-12 </wgt>
<wgt id='1251'> +1.2495128e-12 </wgt>
<wgt id='1252'> +1.2381921e-12 </wgt>
<wgt id='1253'> +1.2466354e-12 </wgt>
<wgt id='1254'> +1.2327976e-12 </wgt>
<wgt id='1255'> +1.2489332e-12 </wgt>
<wgt id='1256'> +1.2468866e-12 </wgt>
<wgt id='1257'> +1.2329416e-12 </wgt>
<wgt id='1258'> +1.2579349e-12 </wgt>
<wgt id='1259'> +1.2285625e-12 </wgt>
<wgt id='1260'> +1.2477115e-12 </wgt>
<wgt id='1261'> +1.2374517e-12 </wgt>
<wgt id='1262'> +1.2459597e-12 </wgt>
<wgt id='1263'> +1.2414873e-12 </wgt>
<wgt id='1264'> +1.2522704e-12 </wgt>
<wgt id='1265'> +1.2385080e-12 </wgt>
<wgt id='1266'> +1.2397876e-12 </wgt>
<wgt id='1267'> +1.2469009e-12 </wgt>
<wgt id='1268'> +1.2428306e-12 </wgt>
<wgt id='1269'> +1.2467901e-12 </wgt>
<wgt id='1270'> +1.2396454e-12 </wgt>
<wgt id='1271'> +1.2381194e-12 </wgt>
<wgt id='1272'> +1.2447139e-12 </wgt>
<wgt id='1273'> +1.2420160e-12 </wgt>
<wgt id='1274'> +1.2367393e-12 </wgt>
<wgt id='1275'> +1.2521111e-12 </wgt>
<wgt id='1276'> +1.2450629e-12 </wgt>
<wgt id='1277'> +1.2400045e-12 </wgt>
<wgt id='1278'> +1.2426903e-12 </wgt>
<wgt id='1279'> +1.2418088e-12 </wgt>
<wgt id='1280'> +1.2443273e-12 </wgt>
<wgt id='1281'> +1.2348884e-12 </wgt>
<wgt id='1282'> +1.2429437e-12 </wgt>
<wgt id='1283'> +1.2336185e-12 </wgt>
<wgt id='1284'> +1.2373031e-12 </wgt>
<wgt id='1285'> +1.2403887e-12 </wgt>
<wgt id='1286'> +1.2456639e-12 </wgt>
<wgt id='1287'> +1.2476913e-12 </wgt>
<wgt id='1288'> +1.2495487e-12 </wgt>
<wgt id='1289'> +1.3188102e-12 </wgt>
<wgt id='1290'> +1.3211919e-12 </wgt>
<wgt id='1291'> +1.3162542e-12 </wgt>
<wgt id='1292'> +1.3205021e-12 </wgt>
<wgt id='1293'> +1.3175936e-12 </wgt>
<wgt id='1294'> +1.3170437e-12 </wgt>
<wgt id='1295'> +1.3205566e-12 </wgt>
<wgt id='1296'> +1.3130588e-12 </wgt>
<wgt id='1297'> +1.3260206e-12 </wgt>
<wgt id='1298'> +1.3238044e-12 </wgt>
<wgt id='1299'> +1.3126880e-12 </wgt>
<wgt id='1300'> +1.3195433e-12 </wgt>
<wgt id='1301'> +1.3175416e-12 </wgt>
<wgt id='1302'> +1.3153351e-12 </wgt>
<wgt id='1303'> +1.3236622e-12 </wgt>
<wgt id='1304'> +1.3106416e-12 </wgt>
<wgt id='1305'> +1.3244423e-12 </wgt>
<wgt id='1306'> +1.3021876e-12 </wgt>
<wgt id='1307'> +1.3374114e-12 </wgt>
<wgt id='1308'> +1.2628470e-12 </wgt>
<wgt id='1309'> +1.3615031e-12 </wgt>
<wgt id='1310'> +1.3171629e-12 </wgt>
<wgt id='1311'> +1.3206586e-12 </wgt>
<wgt id='1312'> +1.3128503e-12 </wgt>
<wgt id='1313'> +1.3250713e-12 </wgt>
<wgt id='1314'> +1.3173318e-12 </wgt>
<wgt id='1315'> +1.3145038e-12 </wgt>
<wgt id='1316'> +1.3202566e-12 </wgt>
<wgt id='1317'> +1.3231110e-12 </wgt>
<wgt id='1318'> +1.3318945e-12 </wgt>
<wgt id='1319'> +1.3035431e-12 </wgt>
<wgt id='1320'> +1.3309450e-12 </wgt>
<wgt id='1321'> +1.3086450e-12 </wgt>
<wgt id='1322'> +1.3241743e-12 </wgt>
<wgt id='1323'> +1.3116227e-12 </wgt>
<wgt id='1324'> +1.3206193e-12 </wgt>
<wgt id='1325'> +1.3187611e-12 </wgt>
<wgt id='1326'> +1.3288478e-12 </wgt>
<wgt id='1327'> +1.3129469e-12 </wgt>
<wgt id='1328'> +1.3141249e-12 </wgt>
<wgt id='1329'> +1.3233614e-12 </wgt>
<wgt id='1330'> +1.4077077e-12 </wgt>
<wgt id='1331'> +1.2442277e-12 </wgt>
<wgt id='1332'> +1.2814716e-12 </wgt>
<wgt id='1333'> +1.3639789e-12 </wgt>
<wgt id='1334'> +1.3340135e-12 </wgt>
<wgt id='1335'> +1.2822817e-12 </wgt>
<wgt id='1336'> +1.3120599e-12 </wgt>
<wgt id='1337'> +1.3260023e-12 </wgt>
<wgt id='1338'> +1.3137745e-12 </wgt>
<wgt id='1339'> +1.3213818e-12 </wgt>
<wgt id='1340'> +1.2955940e-12 </wgt>
<wgt id='1341'> +1.2980332e-12 </wgt>
<wgt id='1342'> +1.2929933e-12 </wgt>
<wgt id='1343'> +1.2975011e-12 </wgt>
<wgt id='1344'> +1.2943128e-12 </wgt>
<wgt id='1345'> +1.2937429e-12 </wgt>
<wgt id='1346'> +1.2973630e-12 </wgt>
<wgt id='1347'> +1.2899223e-12 </wgt>
<wgt id='1348'> +1.3019653e-12 </wgt>
<wgt id='1349'> +1.3008916e-12 </wgt>
<wgt id='1350'> +1.2904763e-12 </wgt>
<wgt id='1351'> +1.2958908e-12 </wgt>
<wgt id='1352'> +1.2950601e-12 </wgt>
<wgt id='1353'> +1.2904563e-12 </wgt>
<wgt id='1354'> +1.3046650e-12 </wgt>
<wgt id='1355'> +1.2871119e-12 </wgt>
<wgt id='1356'> +1.3004864e-12 </wgt>
<wgt id='1357'> +1.2620929e-12 </wgt>
<wgt id='1358'> +1.3347376e-12 </wgt>
<wgt id='1359'> +1.2436692e-12 </wgt>
<wgt id='1360'> +1.3405625e-12 </wgt>
<wgt id='1361'> +1.2936593e-12 </wgt>
<wgt id='1362'> +1.2982591e-12 </wgt>
<wgt id='1363'> +1.2881587e-12 </wgt>
<wgt id='1364'> +1.3010965e-12 </wgt>
<wgt id='1365'> +1.2912658e-12 </wgt>
<wgt id='1366'> +1.2930523e-12 </wgt>
<wgt id='1367'> +1.2976028e-12 </wgt>
<wgt id='1368'> +1.2982420e-12 </wgt>
<wgt id='1369'> +1.3051670e-12 </wgt>
<wgt id='1370'> +1.2842181e-12 </wgt>
<wgt id='1371'> +1.3076582e-12 </wgt>
<wgt id='1372'> +1.2815547e-12 </wgt>
<wgt id='1373'> +1.3006492e-12 </wgt>
<wgt id='1374'> +1.2903236e-12 </wgt>
<wgt id='1375'> +1.2966923e-12 </wgt>
<wgt id='1376'> +1.2968682e-12 </wgt>
<wgt id='1377'> +1.3040614e-12 </wgt>
<wgt id='1378'> +1.2915603e-12 </wgt>
<wgt id='1379'> +1.2921725e-12 </wgt>
<wgt id='1380'> +1.2993571e-12 </wgt>
<wgt id='1381'> +1.3910412e-12 </wgt>
<wgt id='1382'> +1.2207352e-12 </wgt>
<wgt id='1383'> +1.2491214e-12 </wgt>
<wgt id='1384'> +1.3527276e-12 </wgt>
<wgt id='1385'> +1.3125895e-12 </wgt>
<wgt id='1386'> +1.2565268e-12 </wgt>
<wgt id='1387'> +1.2858416e-12 </wgt>
<wgt id='1388'> +1.3058512e-12 </wgt>
<wgt id='1389'> +1.2892835e-12 </wgt>
<wgt id='1390'> +1.2986486e-12 </wgt>
<wgt id='1391'> +1.2638978e-12 </wgt>
<wgt id='1392'> +1.2279091e-12 </wgt>
<wgt id='1393'> +1.2427509e-12 </wgt>
<wgt id='1394'> +1.2553421e-12 </wgt>
<wgt id='1395'> +1.2829086e-12 </wgt>
<wgt id='1396'> +1.2680038e-12 </wgt>
<wgt id='1397'> +1.2303006e-12 </wgt>
<wgt id='1398'> +1.2364340e-12 </wgt>
<wgt id='1399'> +1.2421185e-12 </wgt>
<wgt id='1400'> +1.2502388e-12 </wgt>
<wgt id='1401'> +1.2584340e-12 </wgt>
<wgt id='1402'> +1.2805614e-12 </wgt>
<wgt id='1403'> +1.2915985e-12 </wgt>
<wgt id='1404'> +1.3037479e-12 </wgt>
<wgt id='1405'> +1.2680038e-12 </wgt>
<wgt id='1406'> +1.2580553e-12 </wgt>
<wgt id='1407'> +1.2629809e-12 </wgt>
<wgt id='1408'> +1.2721050e-12 </wgt>
<wgt id='1409'> +1.2783806e-12 </wgt>
<wgt id='1410'> +1.2979112e-12 </wgt>
<wgt id='1411'> +1.2999831e-12 </wgt>
<wgt id='1412'> +1.2953264e-12 </wgt>
<wgt id='1413'> +1.3003136e-12 </wgt>
<wgt id='1414'> +1.2955047e-12 </wgt>
<wgt id='1415'> +1.3008699e-12 </wgt>
<wgt id='1416'> +1.2967239e-12 </wgt>
<wgt id='1417'> +1.2883256e-12 </wgt>
<wgt id='1418'> +1.3075950e-12 </wgt>
<wgt id='1419'> +1.3005634e-12 </wgt>
<wgt id='1420'> +1.2955022e-12 </wgt>
<wgt id='1421'> +1.2923878e-12 </wgt>
<wgt id='1422'> +1.3005489e-12 </wgt>
<wgt id='1423'> +1.2988355e-12 </wgt>
<wgt id='1424'> +1.2968355e-12 </wgt>
<wgt id='1425'> +1.2886680e-12 </wgt>
<wgt id='1426'> +1.3078346e-12 </wgt>
<wgt id='1427'> +1.2449998e-12 </wgt>
<wgt id='1428'> +1.3269938e-12 </wgt>
<wgt id='1429'> +1.3237945e-12 </wgt>
<wgt id='1430'> +1.2636813e-12 </wgt>
<wgt id='1431'> +1.2635848e-12 </wgt>
<wgt id='1432'> +1.3220861e-12 </wgt>
<wgt id='1433'> +1.3093366e-12 </wgt>
<wgt id='1434'> +1.2855247e-12 </wgt>
<wgt id='1435'> +1.3019772e-12 </wgt>
<wgt id='1436'> +1.2881459e-12 </wgt>
<wgt id='1437'> +1.3026803e-12 </wgt>
<wgt id='1438'> +1.2987049e-12 </wgt>
<wgt id='1439'> +1.2907526e-12 </wgt>
<wgt id='1440'> +1.3150296e-12 </wgt>
<wgt id='1441'> +1.3016351e-12 </wgt>
<wgt id='1442'> +1.2908795e-12 </wgt>
<wgt id='1443'> +1.2947297e-12 </wgt>
<wgt id='1444'> +1.3056978e-12 </wgt>
<wgt id='1445'> +1.2969170e-12 </wgt>
<wgt id='1446'> +1.2997323e-12 </wgt>
<wgt id='1447'> +1.2991660e-12 </wgt>
<wgt id='1448'> +1.2985383e-12 </wgt>
<wgt id='1449'> +1.2937052e-12 </wgt>
<wgt id='1450'> +1.3008744e-12 </wgt>
<wgt id='1451'> +1.2453458e-12 </wgt>
<wgt id='1452'> +1.3995217e-12 </wgt>
<wgt id='1453'> +1.2926374e-12 </wgt>
<wgt id='1454'> +1.3303354e-12 </wgt>
<wgt id='1455'> +1.3387367e-12 </wgt>
<wgt id='1456'> +1.2668073e-12 </wgt>
<wgt id='1457'> +1.2719139e-12 </wgt>
<wgt id='1458'> +1.3088076e-12 </wgt>
<wgt id='1459'> +1.2792014e-12 </wgt>
<wgt id='1460'> +1.3137832e-12 </wgt>
<wgt id='1461'> +1.2979112e-12 </wgt>
<wgt id='1462'> +1.2796191e-12 </wgt>
<wgt id='1463'> +1.2987868e-12 </wgt>
<wgt id='1464'> +1.2891071e-12 </wgt>
<wgt id='1465'> +1.2480182e-12 </wgt>
<wgt id='1466'> +1.2539453e-12 </wgt>
<wgt id='1467'> +1.2615807e-12 </wgt>
<wgt id='1468'> +1.2716544e-12 </wgt>
<wgt id='1469'> +1.2799138e-12 </wgt>
<wgt id='1470'> +1.2985983e-12 </wgt>
<wgt id='1471'> +1.3093712e-12 </wgt>
<wgt id='1472'> +1.3199645e-12 </wgt>
<wgt id='1473'> +1.2891071e-12 </wgt>
<wgt id='1474'> +1.2795159e-12 </wgt>
<wgt id='1475'> +1.2855172e-12 </wgt>
<wgt id='1476'> +1.2932936e-12 </wgt>
<wgt id='1477'> +1.2965896e-12 </wgt>
<wgt id='1478'> +1.2292348e-12 </wgt>
<wgt id='1479'> +1.2299184e-12 </wgt>
<wgt id='1480'> +1.1859948e-12 </wgt>
<wgt id='1481'> +1.2162690e-12 </wgt>
<wgt id='1482'> +1.2364754e-12 </wgt>
<wgt id='1483'> +1.2644216e-12 </wgt>
<wgt id='1484'> +1.2211077e-12 </wgt>
<wgt id='1485'> +1.2470456e-12 </wgt>
<wgt id='1486'> +1.2253976e-12 </wgt>
<wgt id='1487'> +1.2324701e-12 </wgt>
<wgt id='1488'> +1.2281696e-12 </wgt>
<wgt id='1489'> +1.2286253e-12 </wgt>
<wgt id='1490'> +1.2284541e-12 </wgt>
<wgt id='1491'> +1.2453218e-12 </wgt>
<wgt id='1492'> +1.2247965e-12 </wgt>
<wgt id='1493'> +1.2335112e-12 </wgt>
<wgt id='1494'> +1.1577835e-12 </wgt>
<wgt id='1495'> +1.2327669e-12 </wgt>
<wgt id='1496'> +1.2339879e-12 </wgt>
<wgt id='1497'> +1.2364310e-12 </wgt>
<wgt id='1498'> +1.2309409e-12 </wgt>
<wgt id='1499'> +1.2314346e-12 </wgt>
<wgt id='1500'> +1.2258136e-12 </wgt>
<wgt id='1501'> +1.2314068e-12 </wgt>
<wgt id='1502'> +1.2355036e-12 </wgt>
<wgt id='1503'> +1.2258197e-12 </wgt>
<wgt id='1504'> +1.2313935e-12 </wgt>
<wgt id='1505'> +1.2323466e-12 </wgt>
<wgt id='1506'> +1.2334439e-12 </wgt>
<wgt id='1507'> +1.2269152e-12 </wgt>
<wgt id='1508'> +1.2353394e-12 </wgt>
<wgt id='1509'> +1.3004213e-12 </wgt>
<wgt id='1510'> +1.3045229e-12 </wgt>
<wgt id='1511'> +1.2962229e-12 </wgt>
<wgt id='1512'> +1.3009012e-12 </wgt>
<wgt id='1513'> +1.2582658e-12 </wgt>
<wgt id='1514'> +1.3068112e-12 </wgt>
<wgt id='1515'> +1.3198323e-12 </wgt>
<wgt id='1516'> +1.2996860e-12 </wgt>
<wgt id='1517'> +1.3146024e-12 </wgt>
<wgt id='1518'> +1.2747400e-12 </wgt>
<wgt id='1519'> +1.3234507e-12 </wgt>
<wgt id='1520'> +1.3118394e-12 </wgt>
<wgt id='1521'> +1.2885847e-12 </wgt>
<wgt id='1522'> +1.3026555e-12 </wgt>
<wgt id='1523'> +1.2896042e-12 </wgt>
<wgt id='1524'> +1.2968954e-12 </wgt>
<wgt id='1525'> +1.2915139e-12 </wgt>
<wgt id='1526'> +1.3041923e-12 </wgt>
<wgt id='1527'> +1.3082834e-12 </wgt>
<wgt id='1528'> +1.3020076e-12 </wgt>
<wgt id='1529'> +1.3099715e-12 </wgt>
<wgt id='1530'> +1.2969897e-12 </wgt>
<wgt id='1531'> +1.3057765e-12 </wgt>
<wgt id='1532'> +1.3001090e-12 </wgt>
<wgt id='1533'> +1.3039351e-12 </wgt>
<wgt id='1534'> +1.3045032e-12 </wgt>
<wgt id='1535'> +1.2990092e-12 </wgt>
<wgt id='1536'> +1.3015626e-12 </wgt>
<wgt id='1537'> +1.2990369e-12 </wgt>
<wgt id='1538'> +1.3018923e-12 </wgt>
<wgt id='1539'> +1.3000239e-12 </wgt>
<wgt id='1540'> +1.3027753e-12 </wgt>
<wgt id='1541'> +1.3033267e-12 </wgt>
<wgt id='1542'> +1.3021794e-12 </wgt>
<wgt id='1543'> +1.3011783e-12 </wgt>
<wgt id='1544'> +1.3001043e-12 </wgt>
<wgt id='1545'> +1.2990572e-12 </wgt>
<wgt id='1546'> +1.3004908e-12 </wgt>
<wgt id='1547'> +1.2997410e-12 </wgt>
<wgt id='1548'> +1.3009337e-12 </wgt>
<wgt id='1549'> +1.2999853e-12 </wgt>
<wgt id='1550'> +1.2996582e-12 </wgt>
<wgt id='1551'> +1.3017136e-12 </wgt>
<wgt id='1552'> +1.3015485e-12 </wgt>
<wgt id='1553'> +1.3016610e-12 </wgt>
<wgt id='1554'> +1.3019243e-12 </wgt>
<wgt id='1555'> +1.3014797e-12 </wgt>
<wgt id='1556'> +1.3016589e-12 </wgt>
<wgt id='1557'> +1.2990030e-12 </wgt>
<wgt id='1558'> +1.3009324e-12 </wgt>
<wgt id='1559'> +1.3006577e-12 </wgt>
<wgt id='1560'> +1.2999139e-12 </wgt>
<wgt id='1561'> +1.2997445e-12 </wgt>
<wgt id='1562'> +1.3006642e-12 </wgt>
<wgt id='1563'> +1.3005583e-12 </wgt>
<wgt id='1564'> +1.3006563e-12 </wgt>
<wgt id='1565'> +1.3002063e-12 </wgt>
<wgt id='1566'> +1.3011664e-12 </wgt>
<wgt id='1567'> +1.3002721e-12 </wgt>
<wgt id='1568'> +1.3013817e-12 </wgt>
<wgt id='1569'> +1.2989545e-12 </wgt>
<wgt id='1570'> +1.2995240e-12 </wgt>
<wgt id='1571'> +1.3001845e-12 </wgt>
<wgt id='1572'> +1.2999138e-12 </wgt>
<wgt id='1573'> +1.3003372e-12 </wgt>
<wgt id='1574'> +1.3005699e-12 </wgt>
<wgt id='1575'> +1.3000525e-12 </wgt>
<wgt id='1576'> +1.3003666e-12 </wgt>
<wgt id='1577'> +1.3015327e-12 </wgt>
<wgt id='1578'> +1.3006140e-12 </wgt>
<wgt id='1579'> +1.2999794e-12 </wgt>
<wgt id='1580'> +1.3005370e-12 </wgt>
<wgt id='1581'> +1.3002820e-12 </wgt>
<wgt id='1582'> +1.3005122e-12 </wgt>
<wgt id='1583'> +1.3001455e-12 </wgt>
<wgt id='1584'> +1.3003531e-12 </wgt>
<wgt id='1585'> +1.3004869e-12 </wgt>
<wgt id='1586'> +1.3007160e-12 </wgt>
<wgt id='1587'> +1.3003568e-12 </wgt>
<wgt id='1588'> +1.3003034e-12 </wgt>
<wgt id='1589'> +1.3007023e-12 </wgt>
<wgt id='1590'> +1.3002547e-12 </wgt>
<wgt id='1591'> +1.3000188e-12 </wgt>
<wgt id='1592'> +1.3007494e-12 </wgt>
<wgt id='1593'> +1.2999784e-12 </wgt>
<wgt id='1594'> +1.3003779e-12 </wgt>
<wgt id='1595'> +1.3003373e-12 </wgt>
<wgt id='1596'> +1.3005672e-12 </wgt>
<wgt id='1597'> +1.3007193e-12 </wgt>
<wgt id='1598'> +1.3002051e-12 </wgt>
<wgt id='1599'> +1.3005763e-12 </wgt>
<wgt id='1600'> +1.3005214e-12 </wgt>
<wgt id='1601'> +1.3000627e-12 </wgt>
<wgt id='1602'> +1.3003316e-12 </wgt>
<wgt id='1603'> +1.3007188e-12 </wgt>
<wgt id='1604'> +1.3003919e-12 </wgt>
<wgt id='1605'> +1.3004376e-12 </wgt>
<wgt id='1606'> +1.3003924e-12 </wgt>
<wgt id='1607'> +1.2999291e-12 </wgt>
<wgt id='1608'> +1.3004151e-12 </wgt>
<wgt id='1609'> +1.3005549e-12 </wgt>
<wgt id='1610'> +1.2652118e-12 </wgt>
<wgt id='1611'> +1.3186188e-12 </wgt>
<wgt id='1612'> +1.4869486e-12 </wgt>
<wgt id='1613'> +1.4133304e-12 </wgt>
<wgt id='1614'> +1.4200677e-12 </wgt>
<wgt id='1615'> +1.5073542e-12 </wgt>
<wgt id='1616'> +1.2766385e-12 </wgt>
<wgt id='1617'> +1.3984670e-12 </wgt>
<wgt id='1618'> +1.4400339e-12 </wgt>
<wgt id='1619'> +1.3740506e-12 </wgt>
<wgt id='1620'> +1.5083584e-12 </wgt>
<wgt id='1621'> +1.5189782e-12 </wgt>
<wgt id='1622'> +1.5282445e-12 </wgt>
<wgt id='1623'> +1.5060252e-12 </wgt>
<wgt id='1624'> +1.5049762e-12 </wgt>
<wgt id='1625'> +1.5976488e-12 </wgt>
<wgt id='1626'> +1.5421966e-12 </wgt>
<wgt id='1627'> +1.5353799e-12 </wgt>
<wgt id='1628'> +1.4250678e-12 </wgt>
<wgt id='1629'> +1.5163775e-12 </wgt>
<wgt id='1630'> +1.4842991e-12 </wgt>
<wgt id='1631'> +1.5336909e-12 </wgt>
<wgt id='1632'> +1.5744979e-12 </wgt>
<wgt id='1633'> +1.5226890e-12 </wgt>
<wgt id='1634'> +1.4758416e-12 </wgt>
<wgt id='1635'> +1.4945745e-12 </wgt>
<wgt id='1636'> +1.3900608e-12 </wgt>
<wgt id='1637'> +1.4769299e-12 </wgt>
<wgt id='1638'> +1.5393229e-12 </wgt>
<wgt id='1639'> +1.4680539e-12 </wgt>
<wgt id='1640'> +1.5322228e-12 </wgt>
<wgt id='1641'> +1.5018691e-12 </wgt>
<wgt id='1642'> +1.5300477e-12 </wgt>
<wgt id='1643'> +1.3644352e-12 </wgt>
<wgt id='1644'> +1.6847969e-12 </wgt>
<wgt id='1645'> +1.5053693e-12 </wgt>
<wgt id='1646'> +1.5107897e-12 </wgt>
<wgt id='1647'> +1.4936576e-12 </wgt>
<wgt id='1648'> +1.3938445e-12 </wgt>
<wgt id='1649'> +1.3682026e-12 </wgt>
<wgt id='1650'> +1.4771289e-12 </wgt>
<wgt id='1651'> +1.5194130e-12 </wgt>
<wgt id='1652'> +1.5371647e-12 </wgt>
<wgt id='1653'> +1.3949960e-12 </wgt>
<wgt id='1654'> +1.5196277e-12 </wgt>
<wgt id='1655'> +1.5051562e-12 </wgt>
<wgt id='1656'> +1.5661533e-12 </wgt>
<wgt id='1657'> +1.4783537e-12 </wgt>
<wgt id='1658'> +1.5498602e-12 </wgt>
<wgt id='1659'> +1.5049762e-12 </wgt>
<wgt id='1660'> +1.4641776e-12 </wgt>
<wgt id='1661'> +1.5793472e-12 </wgt>
<wgt id='1662'> +1.4553514e-12 </wgt>
<wgt id='1663'> +1.5029195e-12 </wgt>
<wgt id='1664'> +1.5348021e-12 </wgt>
<wgt id='1665'> +1.5643015e-12 </wgt>
<wgt id='1666'> +1.4521839e-12 </wgt>
<wgt id='1667'> +1.5103855e-12 </wgt>
<wgt id='1668'> +1.4314225e-12 </wgt>
<wgt id='1669'> +1.7024014e-12 </wgt>
<wgt id='1670'> +1.4492346e-12 </wgt>
<wgt id='1671'> +1.5334704e-12 </wgt>
<wgt id='1672'> +1.5770448e-12 </wgt>
<wgt id='1673'> +1.4771546e-12 </wgt>
<wgt id='1674'> +1.4618887e-12 </wgt>
<wgt id='1675'> +1.4657950e-12 </wgt>
<wgt id='1676'> +1.4720032e-12 </wgt>
<wgt id='1677'> +1.3479837e-12 </wgt>
<wgt id='1678'> +1.4884815e-12 </wgt>
<wgt id='1679'> +1.4891053e-12 </wgt>
<wgt id='1680'> +1.3824635e-12 </wgt>
<wgt id='1681'> +1.5270301e-12 </wgt>
<wgt id='1682'> +1.5053133e-12 </wgt>
<wgt id='1683'> +1.5200439e-12 </wgt>
<wgt id='1684'> +1.5700660e-12 </wgt>
<wgt id='1685'> +1.5284591e-12 </wgt>
<wgt id='1686'> +1.5053825e-12 </wgt>
<wgt id='1687'> +1.4155623e-12 </wgt>
<wgt id='1688'> +1.4213861e-12 </wgt>
<wgt id='1689'> +1.5182699e-12 </wgt>
<wgt id='1690'> +1.5080458e-12 </wgt>
<wgt id='1691'> +1.3947868e-12 </wgt>
<wgt id='1692'> +1.4763027e-12 </wgt>
<wgt id='1693'> +1.4416470e-12 </wgt>
<wgt id='1694'> +1.6287053e-12 </wgt>
<wgt id='1695'> +1.4906582e-12 </wgt>
<wgt id='1696'> +1.4589276e-12 </wgt>
<wgt id='1697'> +1.3870850e-12 </wgt>
<wgt id='1698'> +1.5140194e-12 </wgt>
<wgt id='1699'> +1.4148506e-12 </wgt>
<wgt id='1700'> +1.5010513e-12 </wgt>
<wgt id='1701'> +1.4257414e-12 </wgt>
<wgt id='1702'> +1.4312190e-12 </wgt>
<wgt id='1703'> +1.4195357e-12 </wgt>
<wgt id='1704'> +1.5154849e-12 </wgt>
<wgt id='1705'> +1.5513682e-12 </wgt>
<wgt id='1706'> +1.4406054e-12 </wgt>
<wgt id='1707'> +1.4806867e-12 </wgt>
<wgt id='1708'> +1.5189963e-12 </wgt>
<wgt id='1709'> +1.5052864e-12 </wgt>
<wgt id='1710'> +1.4868509e-12 </wgt>
<wgt id='1711'> +1.4136428e-12 </wgt>
<wgt id='1712'> +1.4943157e-12 </wgt>
<wgt id='1713'> +1.2499861e-12 </wgt>
<wgt id='1714'> +1.2259429e-12 </wgt>
<wgt id='1715'> +1.1406324e-12 </wgt>
<wgt id='1716'> +1.1497220e-12 </wgt>
<wgt id='1717'> +1.1948370e-12 </wgt>
<wgt id='1718'> +1.2332863e-12 </wgt>
<wgt id='1719'> +1.2783763e-12 </wgt>
<wgt id='1720'> +1.2646815e-12 </wgt>
<wgt id='1721'> +1.2456646e-12 </wgt>
<wgt id='1722'> +1.2624987e-12 </wgt>
<wgt id='1723'> +1.3170085e-12 </wgt>
<wgt id='1724'> +1.7127968e-12 </wgt>
<wgt id='1725'> +1.2276865e-12 </wgt>
<wgt id='1726'> +1.0928231e-12 </wgt>
<wgt id='1727'> +1.2863221e-12 </wgt>
<wgt id='1728'> +1.2707529e-12 </wgt>
<wgt id='1729'> +1.2895595e-12 </wgt>
<wgt id='1730'> +1.2672000e-12 </wgt>
<wgt id='1731'> +1.2603536e-12 </wgt>
<wgt id='1732'> +1.2390972e-12 </wgt>
<wgt id='1733'> +1.1693534e-12 </wgt>
<wgt id='1734'> +1.1874135e-12 </wgt>
<wgt id='1735'> +1.3908332e-12 </wgt>
<wgt id='1736'> +1.3021733e-12 </wgt>
<wgt id='1737'> +1.1882410e-12 </wgt>
<wgt id='1738'> +1.2255165e-12 </wgt>
<wgt id='1739'> +1.2600264e-12 </wgt>
<wgt id='1740'> +1.2040550e-12 </wgt>
<wgt id='1741'> +1.2649027e-12 </wgt>
<wgt id='1742'> +1.1454031e-12 </wgt>
<wgt id='1743'> +1.1855076e-12 </wgt>
<wgt id='1744'> +1.0976045e-12 </wgt>
<wgt id='1745'> +1.5222581e-12 </wgt>
<wgt id='1746'> +1.1549988e-12 </wgt>
<wgt id='1747'> +1.2687627e-12 </wgt>
<wgt id='1748'> +1.1708434e-12 </wgt>
<wgt id='1749'> +1.2027572e-12 </wgt>
<wgt id='1750'> +1.2327846e-12 </wgt>
<wgt id='1751'> +1.4729271e-12 </wgt>
<wgt id='1752'> +1.2124390e-12 </wgt>
<wgt id='1753'> +1.2283482e-12 </wgt>
<wgt id='1754'> +1.2195136e-12 </wgt>
<wgt id='1755'> +1.2283896e-12 </wgt>
<wgt id='1756'> +1.2949778e-12 </wgt>
<wgt id='1757'> +1.2767856e-12 </wgt>
<wgt id='1758'> +1.2129760e-12 </wgt>
<wgt id='1759'> +1.2104230e-12 </wgt>
<wgt id='1760'> +1.2674434e-12 </wgt>
<wgt id='1761'> +1.2247124e-12 </wgt>
<wgt id='1762'> +1.1420814e-12 </wgt>
<wgt id='1763'> +1.1735107e-12 </wgt>
<wgt id='1764'> +1.2352910e-12 </wgt>
<wgt id='1765'> +1.2115473e-12 </wgt>
<wgt id='1766'> +1.3644938e-12 </wgt>
<wgt id='1767'> +1.2559599e-12 </wgt>
<wgt id='1768'> +1.2459310e-12 </wgt>
<wgt id='1769'> +1.2372316e-12 </wgt>
<wgt id='1770'> +1.1138219e-12 </wgt>
<wgt id='1771'> +1.2300405e-12 </wgt>
<wgt id='1772'> +1.1321838e-12 </wgt>
<wgt id='1773'> +1.2374960e-12 </wgt>
<wgt id='1774'> +1.1843292e-12 </wgt>
<wgt id='1775'> +1.2128794e-12 </wgt>
<wgt id='1776'> +1.2588766e-12 </wgt>
<wgt id='1777'> +1.3039958e-12 </wgt>
<wgt id='1778'> +1.2190659e-12 </wgt>
<wgt id='1779'> +1.1975326e-12 </wgt>
<wgt id='1780'> +1.4863114e-12 </wgt>
<wgt id='1781'> +1.1613578e-12 </wgt>
<wgt id='1782'> +1.2709040e-12 </wgt>
<wgt id='1783'> +1.2563691e-12 </wgt>
<wgt id='1784'> +1.3118791e-12 </wgt>
<wgt id='1785'> +1.4710432e-12 </wgt>
<wgt id='1786'> +1.4343609e-12 </wgt>
<wgt id='1787'> +1.2532848e-12 </wgt>
<wgt id='1788'> +1.2118287e-12 </wgt>
<wgt id='1789'> +1.6269152e-12 </wgt>
<wgt id='1790'> +1.4023871e-12 </wgt>
<wgt id='1791'> +1.2906177e-12 </wgt>
<wgt id='1792'> +1.3241918e-12 </wgt>
<wgt id='1793'> +1.2270328e-12 </wgt>
<wgt id='1794'> +1.2612826e-12 </wgt>
<wgt id='1795'> +1.1571387e-12 </wgt>
<wgt id='1796'> +1.2778970e-12 </wgt>
<wgt id='1797'> +1.2049711e-12 </wgt>
<wgt id='1798'> +1.2110435e-12 </wgt>
<wgt id='1799'> +1.2818361e-12 </wgt>
<wgt id='1800'> +1.2522335e-12 </wgt>
<wgt id='1801'> +1.2074170e-12 </wgt>
<wgt id='1802'> +1.3579750e-12 </wgt>
<wgt id='1803'> +1.1833091e-12 </wgt>
<wgt id='1804'> +1.1950661e-12 </wgt>
<wgt id='1805'> +1.2683062e-12 </wgt>
<wgt id='1806'> +1.2263231e-12 </wgt>
<wgt id='1807'> +1.2636629e-12 </wgt>
<wgt id='1808'> +1.1432602e-12 </wgt>
<wgt id='1809'> +1.2946707e-12 </wgt>
<wgt id='1810'> +1.1611181e-12 </wgt>
<wgt id='1811'> +1.1137000e-12 </wgt>
<wgt id='1812'> +1.1610617e-12 </wgt>
<wgt id='1813'> +1.0566480e-12 </wgt>
<wgt id='1814'> +1.1424561e-12 </wgt>
<wgt id='1815'> +1.3013922e-12 </wgt>
<wgt id='1816'> +1.2499861e-12 </wgt>
<wgt id='1817'> +1.2259429e-12 </wgt>
<wgt id='1818'> +1.1406324e-12 </wgt>
<wgt id='1819'> +1.1497220e-12 </wgt>
<wgt id='1820'> +1.1948370e-12 </wgt>
<wgt id='1821'> +1.2332863e-12 </wgt>
<wgt id='1822'> +1.2783763e-12 </wgt>
<wgt id='1823'> +1.2646815e-12 </wgt>
<wgt id='1824'> +1.2456646e-12 </wgt>
<wgt id='1825'> +1.2624987e-12 </wgt>
<wgt id='1826'> +1.3170085e-12 </wgt>
<wgt id='1827'> +1.7127968e-12 </wgt>
<wgt id='1828'> +1.2276865e-12 </wgt>
<wgt id='1829'> +1.0928231e-12 </wgt>
<wgt id='1830'> +1.2863221e-12 </wgt>
<wgt id='1831'> +1.2707529e-12 </wgt>
<wgt id='1832'> +1.2895595e-12 </wgt>
<wgt id='1833'> +1.2672000e-12 </wgt>
<wgt id='1834'> +1.2603536e-12 </wgt>
<wgt id='1835'> +1.2390972e-12 </wgt>
<wgt id='1836'> +1.1693534e-12 </wgt>
<wgt id='1837'> +1.1874135e-12 </wgt>
<wgt id='1838'> +1.3908332e-12 </wgt>
<wgt id='1839'> +1.3021733e-12 </wgt>
<wgt id='1840'> +1.1882410e-12 </wgt>
<wgt id='1841'> +1.2255165e-12 </wgt>
<wgt id='1842'> +1.2600264e-12 </wgt>
<wgt id='1843'> +1.2040550e-12 </wgt>
<wgt id='1844'> +1.2649027e-12 </wgt>
<wgt id='1845'> +1.1454031e-12 </wgt>
<wgt id='1846'> +1.1855076e-12 </wgt>
<wgt id='1847'> +1.0976045e-12 </wgt>
<wgt id='1848'> +1.5222581e-12 </wgt>
<wgt id='1849'> +1.1549988e-12 </wgt>
<wgt id='1850'> +1.2687627e-12 </wgt>
<wgt id='1851'> +1.1708434e-12 </wgt>
<wgt id='1852'> +1.2027572e-12 </wgt>
<wgt id='1853'> +1.2327846e-12 </wgt>
<wgt id='1854'> +1.4729271e-12 </wgt>
<wgt id='1855'> +1.2124390e-12 </wgt>
<wgt id='1856'> +1.2283482e-12 </wgt>
<wgt id='1857'> +1.2195136e-12 </wgt>
<wgt id='1858'> +1.2283896e-12 </wgt>
<wgt id='1859'> +1.2949778e-12 </wgt>
<wgt id='1860'> +1.2767856e-12 </wgt>
<wgt id='1861'> +1.2129760e-12 </wgt>
<wgt id='1862'> +1.2104230e-12 </wgt>
<wgt id='1863'> +1.2674434e-12 </wgt>
<wgt id='1864'> +1.2247124e-12 </wgt>
<wgt id='1865'> +1.1420814e-12 </wgt>
<wgt id='1866'> +1.1735107e-12 </wgt>
<wgt id='1867'> +1.2352910e-12 </wgt>
<wgt id='1868'> +1.2115473e-12 </wgt>
<wgt id='1869'> +1.3644938e-12 </wgt>
<wgt id='1870'> +1.2559599e-12 </wgt>
<wgt id='1871'> +1.2459310e-12 </wgt>
<wgt id='1872'> +1.2372316e-12 </wgt>
<wgt id='1873'> +1.1138219e-12 </wgt>
<wgt id='1874'> +1.2300405e-12 </wgt>
<wgt id='1875'> +1.1321838e-12 </wgt>
<wgt id='1876'> +1.2374960e-12 </wgt>
<wgt id='1877'> +1.1843292e-12 </wgt>
<wgt id='1878'> +1.2128794e-12 </wgt>
<wgt id='1879'> +1.2588766e-12 </wgt>
<wgt id='1880'> +1.3039958e-12 </wgt>
<wgt id='1881'> +1.2190659e-12 </wgt>
<wgt id='1882'> +1.1975326e-12 </wgt>
<wgt id='1883'> +1.4863114e-12 </wgt>
<wgt id='1884'> +1.1613578e-12 </wgt>
<wgt id='1885'> +1.2709040e-12 </wgt>
<wgt id='1886'> +1.2563691e-12 </wgt>
<wgt id='1887'> +1.3118791e-12 </wgt>
<wgt id='1888'> +1.4710432e-12 </wgt>
<wgt id='1889'> +1.4343609e-12 </wgt>
<wgt id='1890'> +1.2532848e-12 </wgt>
<wgt id='1891'> +1.2118287e-12 </wgt>
<wgt id='1892'> +1.6269152e-12 </wgt>
<wgt id='1893'> +1.4023871e-12 </wgt>
<wgt id='1894'> +1.2906177e-12 </wgt>
<wgt id='1895'> +1.3241918e-12 </wgt>
<wgt id='1896'> +1.2270328e-12 </wgt>
<wgt id='1897'> +1.2612826e-12 </wgt>
<wgt id='1898'> +1.1571387e-12 </wgt>
<wgt id='1899'> +1.2778970e-12 </wgt>
<wgt id='1900'> +1.2049711e-12 </wgt>
<wgt id='1901'> +1.2110435e-12 </wgt>
<wgt id='1902'> +1.2818361e-12 </wgt>
<wgt id='1903'> +1.2522335e-12 </wgt>
<wgt id='1904'> +1.2074170e-12 </wgt>
<wgt id='1905'> +1.3579750e-12 </wgt>
<wgt id='1906'> +1.1833091e-12 </wgt>
<wgt id='1907'> +1.1950661e-12 </wgt>
<wgt id='1908'> +1.2683062e-12 </wgt>
<wgt id='1909'> +1.2263231e-12 </wgt>
<wgt id='1910'> +1.2636629e-12 </wgt>
<wgt id='1911'> +1.1432602e-12 </wgt>
<wgt id='1912'> +1.2946707e-12 </wgt>
<wgt id='1913'> +1.1611181e-12 </wgt>
<wgt id='1914'> +1.1137000e-12 </wgt>
<wgt id='1915'> +1.1610617e-12 </wgt>
<wgt id='1916'> +1.0566480e-12 </wgt>
<wgt id='1917'> +1.2180468e-12 </wgt>
<wgt id='1918'> +1.2528193e-12 </wgt>
<wgt id='1919'> +1.2652074e-12 </wgt>
</rwgt>
</event>
<event>
 9      1 +1.5538000e-12 3.02566200e+01 7.81860800e-03 1.44711500e-01
       -1 -1    0    0    0  501 -0.0000000000e+00 +0.0000000000e+00 +5.3944934006e+01 5.3944934006e+01 0.0000000000e+00 0.0000e+00 1.0000e+00
       21 -1    0    0  501  502 +0.0000000000e+00 -0.0000000000e+00 -2.6881768576e+01 2.6881768576e+01 0.0000000000e+00 0.0000e+00 1.0000e+00
     1023  2    1    2    0    0 +2.3686513960e+01 +1.1376224544e+01 +4.1099790451e+01 5.1035826958e+01 1.4999780990e+01 0.0000e+00 0.0000e+00
  1000023  2    3    3    0    0 +4.0895907571e+00 +5.1181175594e+00 +1.6461578001e+01 1.8551295027e+01 5.4997379019e+00 0.0000e+00 0.0000e+00
       -1  1    1    2    0  502 -2.3686513960e+01 -1.1376224544e+01 -1.4036625022e+01 2.9790875624e+01 0.0000000000e+00 0.0000e+00 1.0000e+00
  1000022  1    4    4    0    0 +3.4377133823e+00 +4.8841151899e+00 +1.4669380900e+01 1.6609129732e+01 5.0000000000e+00 0.0000e+00 1.0000e+00
      -13  1    4    4    0    0 +1.9182527578e-01 +1.4843934727e-03 +6.1075413174e-01 6.4883914747e-01 1.0570000000e-01 0.0000e+00 -1.0000e+00
       13  1    4    4    0    0 +4.6005209904e-01 +2.3251797603e-01 +1.1814429697e+00 1.2933261474e+00 1.0570000000e-01 0.0000e+00 1.0000e+00
  1000022  1    3    3    0    0 +1.9596923202e+01 +6.2581069843e+00 +2.4638212450e+01 3.2484531931e+01 5.0000000000e+00 0.0000e+00 1.0000e+00
<mgrwt>
<rscale>  1 0.30256617E+02</rscale>
<asrwt>0</asrwt>
<pdfrwt beam="1">  1       21 0.41356567E-02 0.30256617E+02</pdfrwt>
<pdfrwt beam="2">  1       -1 0.82992206E-02 0.30256617E+02</pdfrwt>
<totfact> 0.23836475E+06</totfact>
</mgrwt>
<rwgt>
<wgt id='1001'> +1.5538000e-12 </wgt>
<wgt id='1002'> +1.5853722e-12 </wgt>
<wgt id='1003'> +1.5863787e-12 </wgt>
<wgt id='1004'> +1.5468919e-12 </wgt>
<wgt id='1005'> +1.5916275e-12 </wgt>
<wgt id='1006'> +1.3599175e-12 </wgt>
<wgt id='1007'> +1.4073921e-12 </wgt>
<wgt id='1008'> +1.4093419e-12 </wgt>
<wgt id='1009'> +1.3509505e-12 </wgt>
<wgt id='1010'> +1.4228823e-12 </wgt>
<wgt id='1011'> +1.8153369e-12 </wgt>
<wgt id='1012'> +1.8171163e-12 </wgt>
<wgt id='1013'> +1.8164667e-12 </wgt>
<wgt id='1014'> +1.8126807e-12 </wgt>
<wgt id='1015'> +1.8076283e-12 </wgt>
<wgt id='1016'> +1.8147416e-12 </wgt>
<wgt id='1017'> +1.7921147e-12 </wgt>
<wgt id='1018'> +1.7903244e-12 </wgt>
<wgt id='1019'> +1.8164667e-12 </wgt>
<wgt id='1020'> +1.7728735e-12 </wgt>
<wgt id='1021'> +1.5882990e-12 </wgt>
<wgt id='1022'> +1.5909249e-12 </wgt>
<wgt id='1023'> +1.5905276e-12 </wgt>
<wgt id='1024'> +1.5863787e-12 </wgt>
<wgt id='1025'> +1.5849125e-12 </wgt>
<wgt id='1026'> +2.1202004e-12 </wgt>
<wgt id='1027'> +2.0540796e-12 </wgt>
<wgt id='1028'> +2.0499926e-12 </wgt>
<wgt id='1029'> +2.1285740e-12 </wgt>
<wgt id='1030'> +2.0134712e-12 </wgt>
<wgt id='1031'> +1.2551360e-12 </wgt>
<wgt id='1032'> +1.3467463e-12 </wgt>
<wgt id='1033'> +1.3509505e-12 </wgt>
<wgt id='1034'> +1.2391110e-12 </wgt>
<wgt id='1035'> +1.3823944e-12 </wgt>
<wgt id='1036'> +1.0985207e-12 </wgt>
<wgt id='1037'> +1.1955553e-12 </wgt>
<wgt id='1038'> +1.2001869e-12 </wgt>
<wgt id='1039'> +1.0821555e-12 </wgt>
<wgt id='1040'> +1.2358322e-12 </wgt>
<wgt id='1041'> +1.4664015e-12 </wgt>
<wgt id='1042'> +1.5436089e-12 </wgt>
<wgt id='1043'> +1.5468919e-12 </wgt>
<wgt id='1044'> +1.4520165e-12 </wgt>
<wgt id='1045'> +1.5700000e-12 </wgt>
<wgt id='1046'> +1.5538000e-12 </wgt>
<wgt id='1047'> +1.6222862e-12 </wgt>
<wgt id='1048'> +1.5735859e-12 </wgt>
<wgt id='1049'> +1.4785401e-12 </wgt>
<wgt id='1050'> +1.5420341e-12 </wgt>
<wgt id='1051'> +1.5528707e-12 </wgt>
<wgt id='1052'> +1.6264869e-12 </wgt>
<wgt id='1053'> +1.5790097e-12 </wgt>
<wgt id='1054'> +1.4926965e-12 </wgt>
<wgt id='1055'> +1.5399102e-12 </wgt>
<wgt id='1056'> +1.5477973e-12 </wgt>
<wgt id='1057'> +1.5491194e-12 </wgt>
<wgt id='1058'> +1.5071518e-12 </wgt>
<wgt id='1059'> +1.5443323e-12 </wgt>
<wgt id='1060'> +1.5223604e-12 </wgt>
<wgt id='1061'> +1.5587338e-12 </wgt>
<wgt id='1062'> +1.5785257e-12 </wgt>
<wgt id='1063'> +1.5869529e-12 </wgt>
<wgt id='1064'> +1.5424675e-12 </wgt>
<wgt id='1065'> +1.5723747e-12 </wgt>
<wgt id='1066'> +1.5073535e-12 </wgt>
<wgt id='1067'> +1.5203267e-12 </wgt>
<wgt id='1068'> +1.5927770e-12 </wgt>
<wgt id='1069'> +1.5963990e-12 </wgt>
<wgt id='1070'> +1.5163441e-12 </wgt>
<wgt id='1071'> +1.5553358e-12 </wgt>
<wgt id='1072'> +1.5645884e-12 </wgt>
<wgt id='1073'> +1.6148656e-12 </wgt>
<wgt id='1074'> +1.5324015e-12 </wgt>
<wgt id='1075'> +1.5505831e-12 </wgt>
<wgt id='1076'> +1.6012002e-12 </wgt>
<wgt id='1077'> +1.5692320e-12 </wgt>
<wgt id='1078'> +1.5510813e-12 </wgt>
<wgt id='1079'> +1.6093034e-12 </wgt>
<wgt id='1080'> +1.4685167e-12 </wgt>
<wgt id='1081'> +1.5588049e-12 </wgt>
<wgt id='1082'> +1.5551821e-12 </wgt>
<wgt id='1083'> +1.5627790e-12 </wgt>
<wgt id='1084'> +1.5562403e-12 </wgt>
<wgt id='1085'> +1.5338851e-12 </wgt>
<wgt id='1086'> +1.5473641e-12 </wgt>
<wgt id='1087'> +1.5770204e-12 </wgt>
<wgt id='1088'> +1.5651622e-12 </wgt>
<wgt id='1089'> +1.5815294e-12 </wgt>
<wgt id='1090'> +1.5670790e-12 </wgt>
<wgt id='1091'> +1.5358506e-12 </wgt>
<wgt id='1092'> +1.5848122e-12 </wgt>
<wgt id='1093'> +1.5627599e-12 </wgt>
<wgt id='1094'> +1.5093819e-12 </wgt>
<wgt id='1095'> +1.5872846e-12 </wgt>
<wgt id='1096'> +1.5735103e-12 </wgt>
<wgt id='1097'> +1.4837613e-12 </wgt>
<wgt id='1098'> +1.5610084e-12 </wgt>
<wgt id='1099'> +1.5396316e-12 </wgt>
<wgt id='1100'> +1.5653296e-12 </wgt>
<wgt id='1101'> +1.5272741e-12 </wgt>
<wgt id='1102'> +1.5671331e-12 </wgt>
<wgt id='1103'> +1.5935454e-12 </wgt>
<wgt id='1104'> +1.5713729e-12 </wgt>
<wgt id='1105'> +1.5581628e-12 </wgt>
<wgt id='1106'> +1.5698754e-12 </wgt>
<wgt id='1107'> +1.5725367e-12 </wgt>
<wgt id='1108'> +1.5684232e-12 </wgt>
<wgt id='1109'> +1.5378506e-12 </wgt>
<wgt id='1110'> +1.4870235e-12 </wgt>
<wgt id='1111'> +1.6096694e-12 </wgt>
<wgt id='1112'> +1.5642003e-12 </wgt>
<wgt id='1113'> +1.5322506e-12 </wgt>
<wgt id='1114'> +1.6102873e-12 </wgt>
<wgt id='1115'> +1.5626714e-12 </wgt>
<wgt id='1116'> +1.5137322e-12 </wgt>
<wgt id='1117'> +1.5583244e-12 </wgt>
<wgt id='1118'> +1.5261101e-12 </wgt>
<wgt id='1119'> +1.5436515e-12 </wgt>
<wgt id='1120'> +1.5202062e-12 </wgt>
<wgt id='1121'> +1.5438827e-12 </wgt>
<wgt id='1122'> +1.5968726e-12 </wgt>
<wgt id='1123'> +1.5575914e-12 </wgt>
<wgt id='1124'> +1.5537277e-12 </wgt>
<wgt id='1125'> +1.5479560e-12 </wgt>
<wgt id='1126'> +1.5302662e-12 </wgt>
<wgt id='1127'> +1.5478042e-12 </wgt>
<wgt id='1128'> +1.5785257e-12 </wgt>
<wgt id='1129'> +1.5288065e-12 </wgt>
<wgt id='1130'> +1.5262621e-12 </wgt>
<wgt id='1131'> +1.5509297e-12 </wgt>
<wgt id='1132'> +1.5811938e-12 </wgt>
<wgt id='1133'> +1.5164847e-12 </wgt>
<wgt id='1134'> +1.5740208e-12 </wgt>
<wgt id='1135'> +1.5018062e-12 </wgt>
<wgt id='1136'> +1.5252291e-12 </wgt>
<wgt id='1137'> +1.5353936e-12 </wgt>
<wgt id='1138'> +1.4960585e-12 </wgt>
<wgt id='1139'> +1.5350631e-12 </wgt>
<wgt id='1140'> +1.5654891e-12 </wgt>
<wgt id='1141'> +1.5544935e-12 </wgt>
<wgt id='1142'> +1.5481559e-12 </wgt>
<wgt id='1143'> +1.5708316e-12 </wgt>
<wgt id='1144'> +1.5641104e-12 </wgt>
<wgt id='1145'> +1.5727535e-12 </wgt>
<wgt id='1146'> +1.5969028e-12 </wgt>
<wgt id='1147'> +1.2070508e-12 </wgt>
<wgt id='1148'> +1.2337321e-12 </wgt>
<wgt id='1149'> +1.2254992e-12 </wgt>
<wgt id='1150'> +1.2242822e-12 </wgt>
<wgt id='1151'> +1.2585274e-12 </wgt>
<wgt id='1152'> +1.5149863e-12 </wgt>
<wgt id='1153'> +1.5069594e-12 </wgt>
<wgt id='1154'> +1.5196066e-12 </wgt>
<wgt id='1155'> +1.5151361e-12 </wgt>
<wgt id='1156'> +1.5148935e-12 </wgt>
<wgt id='1157'> +1.5200953e-12 </wgt>
<wgt id='1158'> +1.5080887e-12 </wgt>
<wgt id='1159'> +1.5191406e-12 </wgt>
<wgt id='1160'> +1.5123265e-12 </wgt>
<wgt id='1161'> +1.5115620e-12 </wgt>
<wgt id='1162'> +1.5173168e-12 </wgt>
<wgt id='1163'> +1.5190691e-12 </wgt>
<wgt id='1164'> +1.5109889e-12 </wgt>
<wgt id='1165'> +1.5076688e-12 </wgt>
<wgt id='1166'> +1.5220835e-12 </wgt>
<wgt id='1167'> +1.5212190e-12 </wgt>
<wgt id='1168'> +1.5056591e-12 </wgt>
<wgt id='1169'> +1.5157815e-12 </wgt>
<wgt id='1170'> +1.5143942e-12 </wgt>
<wgt id='1171'> +1.5121889e-12 </wgt>
<wgt id='1172'> +1.5185662e-12 </wgt>
<wgt id='1173'> +1.5000223e-12 </wgt>
<wgt id='1174'> +1.5297617e-12 </wgt>
<wgt id='1175'> +1.5142079e-12 </wgt>
<wgt id='1176'> +1.5146332e-12 </wgt>
<wgt id='1177'> +1.5155553e-12 </wgt>
<wgt id='1178'> +1.5137274e-12 </wgt>
<wgt id='1179'> +1.5216671e-12 </wgt>
<wgt id='1180'> +1.5016862e-12 </wgt>
<wgt id='1181'> +1.5091464e-12 </wgt>
<wgt id='1182'> +1.5205074e-12 </wgt>
<wgt id='1183'> +1.5149363e-12 </wgt>
<wgt id='1184'> +1.5150799e-12 </wgt>
<wgt id='1185'> +1.5053860e-12 </wgt>
<wgt id='1186'> +1.5204120e-12 </wgt>
<wgt id='1187'> +1.5144225e-12 </wgt>
<wgt id='1188'> +1.5151969e-12 </wgt>
<wgt id='1189'> +1.5097972e-12 </wgt>
<wgt id='1190'> +1.5058183e-12 </wgt>
<wgt id='1191'> +1.5096076e-12 </wgt>
<wgt id='1192'> +1.5155423e-12 </wgt>
<wgt id='1193'> +1.2434475e-12 </wgt>
<wgt id='1194'> +1.2432482e-12 </wgt>
<wgt id='1195'> +1.2435329e-12 </wgt>
<wgt id='1196'> +1.2504914e-12 </wgt>
<wgt id='1197'> +1.2355614e-12 </wgt>
<wgt id='1198'> +1.2430848e-12 </wgt>
<wgt id='1199'> +1.2439772e-12 </wgt>
<wgt id='1200'> +1.2466424e-12 </wgt>
<wgt id='1201'> +1.2413404e-12 </wgt>
<wgt id='1202'> +1.2421919e-12 </wgt>
<wgt id='1203'> +1.2451753e-12 </wgt>
<wgt id='1204'> +1.2355986e-12 </wgt>
<wgt id='1205'> +1.2482735e-12 </wgt>
<wgt id='1206'> +1.2479239e-12 </wgt>
<wgt id='1207'> +1.2374197e-12 </wgt>
<wgt id='1208'> +1.2362750e-12 </wgt>
<wgt id='1209'> +1.2460413e-12 </wgt>
<wgt id='1210'> +1.2490941e-12 </wgt>
<wgt id='1211'> +1.2293148e-12 </wgt>
<wgt id='1212'> +1.2443969e-12 </wgt>
<wgt id='1213'> +1.2424447e-12 </wgt>
<wgt id='1214'> +1.2270817e-12 </wgt>
<wgt id='1215'> +1.2708839e-12 </wgt>
<wgt id='1216'> +1.2555595e-12 </wgt>
<wgt id='1217'> +1.2359845e-12 </wgt>
<wgt id='1218'> +1.2473034e-12 </wgt>
<wgt id='1219'> +1.2413834e-12 </wgt>
<wgt id='1220'> +1.2471588e-12 </wgt>
<wgt id='1221'> +1.2430879e-12 </wgt>
<wgt id='1222'> +1.2449235e-12 </wgt>
<wgt id='1223'> +1.2397029e-12 </wgt>
<wgt id='1224'> +1.2452225e-12 </wgt>
<wgt id='1225'> +1.2427820e-12 </wgt>
<wgt id='1226'> +1.2394323e-12 </wgt>
<wgt id='1227'> +1.2461155e-12 </wgt>
<wgt id='1228'> +1.2418473e-12 </wgt>
<wgt id='1229'> +1.2437783e-12 </wgt>
<wgt id='1230'> +1.2352268e-12 </wgt>
<wgt id='1231'> +1.2388894e-12 </wgt>
<wgt id='1232'> +1.2441159e-12 </wgt>
<wgt id='1233'> +1.2432399e-12 </wgt>
<wgt id='1234'> +1.2434475e-12 </wgt>
<wgt id='1235'> +1.2348182e-12 </wgt>
<wgt id='1236'> +1.2380129e-12 </wgt>
<wgt id='1237'> +1.2408792e-12 </wgt>
<wgt id='1238'> +1.2458377e-12 </wgt>
<wgt id='1239'> +1.2478290e-12 </wgt>
<wgt id='1240'> +1.2497403e-12 </wgt>
<wgt id='1241'> +1.2436099e-12 </wgt>
<wgt id='1242'> +1.2393919e-12 </wgt>
<wgt id='1243'> +1.2479429e-12 </wgt>
<wgt id='1244'> +1.2361602e-12 </wgt>
<wgt id='1245'> +1.2491651e-12 </wgt>
<wgt id='1246'> +1.2449076e-12 </wgt>
<wgt id='1247'> +1.2426176e-12 </wgt>
<wgt id='1248'> +1.2436091e-12 </wgt>
<wgt id='1249'> +1.2437085e-12 </wgt>
<wgt id='1250'> +1.2467802e-12 </wgt>
<wgt id='1251'> +1.2414823e-12 </wgt>
<wgt id='1252'> +1.2402197e-12 </wgt>
<wgt id='1253'> +1.2462870e-12 </wgt>
<wgt id='1254'> +1.2350593e-12 </wgt>
<wgt id='1255'> +1.2488557e-12 </wgt>
<wgt id='1256'> +1.2474948e-12 </wgt>
<wgt id='1257'> +1.2340659e-12 </wgt>
<wgt id='1258'> +1.2668683e-12 </wgt>
<wgt id='1259'> +1.2225400e-12 </wgt>
<wgt id='1260'> +1.2471741e-12 </wgt>
<wgt id='1261'> +1.2397281e-12 </wgt>
<wgt id='1262'> +1.2482313e-12 </wgt>
<wgt id='1263'> +1.2418562e-12 </wgt>
<wgt id='1264'> +1.2467362e-12 </wgt>
<wgt id='1265'> +1.2420918e-12 </wgt>
<wgt id='1266'> +1.2364847e-12 </wgt>
<wgt id='1267'> +1.2498631e-12 </wgt>
<wgt id='1268'> +1.2457351e-12 </wgt>
<wgt id='1269'> +1.2444113e-12 </wgt>
<wgt id='1270'> +1.2363488e-12 </wgt>
<wgt id='1271'> +1.2360074e-12 </wgt>
<wgt id='1272'> +1.2422106e-12 </wgt>
<wgt id='1273'> +1.2434033e-12 </wgt>
<wgt id='1274'> +1.2464221e-12 </wgt>
<wgt id='1275'> +1.2381946e-12 </wgt>
<wgt id='1276'> +1.2434360e-12 </wgt>
<wgt id='1277'> +1.2428677e-12 </wgt>
<wgt id='1278'> +1.2421167e-12 </wgt>
<wgt id='1279'> +1.2392621e-12 </wgt>
<wgt id='1280'> +1.2434386e-12 </wgt>
<wgt id='1281'> +1.2443834e-12 </wgt>
<wgt id='1282'> +1.2436099e-12 </wgt>
<wgt id='1283'> +1.2345159e-12 </wgt>
<wgt id='1284'> +1.2380497e-12 </wgt>
<wgt id='1285'> +1.2410986e-12 </wgt>
<wgt id='1286'> +1.2461954e-12 </wgt>
<wgt id='1287'> +1.2482694e-12 </wgt>
<wgt id='1288'> +1.2498850e-12 </wgt>
<wgt id='1289'> +1.2455529e-12 </wgt>
<wgt id='1290'> +1.2446677e-12 </wgt>
<wgt id='1291'> +1.2464445e-12 </wgt>
<wgt id='1292'> +1.2389114e-12 </wgt>
<wgt id='1293'> +1.2502344e-12 </wgt>
<wgt id='1294'> +1.2425895e-12 </wgt>
<wgt id='1295'> +1.2484432e-12 </wgt>
<wgt id='1296'> +1.2425362e-12 </wgt>
<wgt id='1297'> +1.2491677e-12 </wgt>
<wgt id='1298'> +1.2490277e-12 </wgt>
<wgt id='1299'> +1.2411020e-12 </wgt>
<wgt id='1300'> +1.2475781e-12 </wgt>
<wgt id='1301'> +1.2412779e-12 </wgt>
<wgt id='1302'> +1.2446533e-12 </wgt>
<wgt id='1303'> +1.2466781e-12 </wgt>
<wgt id='1304'> +1.2421605e-12 </wgt>
<wgt id='1305'> +1.2478346e-12 </wgt>
<wgt id='1306'> +1.2446745e-12 </wgt>
<wgt id='1307'> +1.2466319e-12 </wgt>
<wgt id='1308'> +1.2480679e-12 </wgt>
<wgt id='1309'> +1.2436142e-12 </wgt>
<wgt id='1310'> +1.2461432e-12 </wgt>
<wgt id='1311'> +1.2450011e-12 </wgt>
<wgt id='1312'> +1.2467104e-12 </wgt>
<wgt id='1313'> +1.2445904e-12 </wgt>
<wgt id='1314'> +1.2471899e-12 </wgt>
<wgt id='1315'> +1.2396614e-12 </wgt>
<wgt id='1316'> +1.2509259e-12 </wgt>
<wgt id='1317'> +1.2457017e-12 </wgt>
<wgt id='1318'> +1.2547089e-12 </wgt>
<wgt id='1319'> +1.2346527e-12 </wgt>
<wgt id='1320'> +1.2644495e-12 </wgt>
<wgt id='1321'> +1.2308415e-12 </wgt>
<wgt id='1322'> +1.2472034e-12 </wgt>
<wgt id='1323'> +1.2434469e-12 </wgt>
<wgt id='1324'> +1.2440806e-12 </wgt>
<wgt id='1325'> +1.2522712e-12 </wgt>
<wgt id='1326'> +1.2442065e-12 </wgt>
<wgt id='1327'> +1.2483181e-12 </wgt>
<wgt id='1328'> +1.2460736e-12 </wgt>
<wgt id='1329'> +1.2448622e-12 </wgt>
<wgt id='1330'> +1.2258773e-12 </wgt>
<wgt id='1331'> +1.2616675e-12 </wgt>
<wgt id='1332'> +1.2682871e-12 </wgt>
<wgt id='1333'> +1.2290773e-12 </wgt>
<wgt id='1334'> +1.2390012e-12 </wgt>
<wgt id='1335'> +1.2623339e-12 </wgt>
<wgt id='1336'> +1.2395948e-12 </wgt>
<wgt id='1337'> +1.2438172e-12 </wgt>
<wgt id='1338'> +1.2474842e-12 </wgt>
<wgt id='1339'> +1.2449286e-12 </wgt>
<wgt id='1340'> +1.2273510e-12 </wgt>
<wgt id='1341'> +1.2267034e-12 </wgt>
<wgt id='1342'> +1.2280059e-12 </wgt>
<wgt id='1343'> +1.2205094e-12 </wgt>
<wgt id='1344'> +1.2318837e-12 </wgt>
<wgt id='1345'> +1.2245391e-12 </wgt>
<wgt id='1346'> +1.2299452e-12 </wgt>
<wgt id='1347'> +1.2243623e-12 </wgt>
<wgt id='1348'> +1.2305664e-12 </wgt>
<wgt id='1349'> +1.2304510e-12 </wgt>
<wgt id='1350'> +1.2242155e-12 </wgt>
<wgt id='1351'> +1.2293716e-12 </wgt>
<wgt id='1352'> +1.2228250e-12 </wgt>
<wgt id='1353'> +1.2260078e-12 </wgt>
<wgt id='1354'> +1.2296347e-12 </wgt>
<wgt id='1355'> +1.2239870e-12 </wgt>
<wgt id='1356'> +1.2291814e-12 </wgt>
<wgt id='1357'> +1.2272451e-12 </wgt>
<wgt id='1358'> +1.2275938e-12 </wgt>
<wgt id='1359'> +1.2304733e-12 </wgt>
<wgt id='1360'> +1.2246424e-12 </wgt>
<wgt id='1361'> +1.2277794e-12 </wgt>
<wgt id='1362'> +1.2268513e-12 </wgt>
<wgt id='1363'> +1.2286886e-12 </wgt>
<wgt id='1364'> +1.2267811e-12 </wgt>
<wgt id='1365'> +1.2185647e-12 </wgt>
<wgt id='1366'> +1.2316613e-12 </wgt>
<wgt id='1367'> +1.2323594e-12 </wgt>
<wgt id='1368'> +1.2271716e-12 </wgt>
<wgt id='1369'> +1.2344700e-12 </wgt>
<wgt id='1370'> +1.2188639e-12 </wgt>
<wgt id='1371'> +1.2418100e-12 </wgt>
<wgt id='1372'> +1.2109942e-12 </wgt>
<wgt id='1373'> +1.2274915e-12 </wgt>
<wgt id='1374'> +1.2272028e-12 </wgt>
<wgt id='1375'> +1.2259187e-12 </wgt>
<wgt id='1376'> +1.2342494e-12 </wgt>
<wgt id='1377'> +1.2265913e-12 </wgt>
<wgt id='1378'> +1.2298614e-12 </wgt>
<wgt id='1379'> +1.2274792e-12 </wgt>
<wgt id='1380'> +1.2269869e-12 </wgt>
<wgt id='1381'> +1.2074602e-12 </wgt>
<wgt id='1382'> +1.2417626e-12 </wgt>
<wgt id='1383'> +1.2509009e-12 </wgt>
<wgt id='1384'> +1.2094396e-12 </wgt>
<wgt id='1385'> +1.2209023e-12 </wgt>
<wgt id='1386'> +1.2430232e-12 </wgt>
<wgt id='1387'> +1.2193952e-12 </wgt>
<wgt id='1388'> +1.2267915e-12 </wgt>
<wgt id='1389'> +1.2277264e-12 </wgt>
<wgt id='1390'> +1.2272530e-12 </wgt>
<wgt id='1391'> +1.2029015e-12 </wgt>
<wgt id='1392'> +1.1770791e-12 </wgt>
<wgt id='1393'> +1.1863266e-12 </wgt>
<wgt id='1394'> +1.1949429e-12 </wgt>
<wgt id='1395'> +1.2121370e-12 </wgt>
<wgt id='1396'> +1.2040849e-12 </wgt>
<wgt id='1397'> +1.1654723e-12 </wgt>
<wgt id='1398'> +1.1737888e-12 </wgt>
<wgt id='1399'> +1.1809955e-12 </wgt>
<wgt id='1400'> +1.1882687e-12 </wgt>
<wgt id='1401'> +1.1962143e-12 </wgt>
<wgt id='1402'> +1.2113591e-12 </wgt>
<wgt id='1403'> +1.2185947e-12 </wgt>
<wgt id='1404'> +1.2254409e-12 </wgt>
<wgt id='1405'> +1.2040849e-12 </wgt>
<wgt id='1406'> +1.2000977e-12 </wgt>
<wgt id='1407'> +1.2023823e-12 </wgt>
<wgt id='1408'> +1.2056518e-12 </wgt>
<wgt id='1409'> +1.2076473e-12 </wgt>
<wgt id='1410'> +1.2075538e-12 </wgt>
<wgt id='1411'> +1.2063655e-12 </wgt>
<wgt id='1412'> +1.2091265e-12 </wgt>
<wgt id='1413'> +1.2113235e-12 </wgt>
<wgt id='1414'> +1.2038146e-12 </wgt>
<wgt id='1415'> +1.1989662e-12 </wgt>
<wgt id='1416'> +1.2110587e-12 </wgt>
<wgt id='1417'> +1.2011886e-12 </wgt>
<wgt id='1418'> +1.2139059e-12 </wgt>
<wgt id='1419'> +1.2087371e-12 </wgt>
<wgt id='1420'> +1.2064248e-12 </wgt>
<wgt id='1421'> +1.1979112e-12 </wgt>
<wgt id='1422'> +1.2116830e-12 </wgt>
<wgt id='1423'> +1.2078933e-12 </wgt>
<wgt id='1424'> +1.2071366e-12 </wgt>
<wgt id='1425'> +1.2035337e-12 </wgt>
<wgt id='1426'> +1.2119333e-12 </wgt>
<wgt id='1427'> +1.2072483e-12 </wgt>
<wgt id='1428'> +1.2075595e-12 </wgt>
<wgt id='1429'> +1.2053694e-12 </wgt>
<wgt id='1430'> +1.2105670e-12 </wgt>
<wgt id='1431'> +1.2094701e-12 </wgt>
<wgt id='1432'> +1.2061541e-12 </wgt>
<wgt id='1433'> +1.2082301e-12 </wgt>
<wgt id='1434'> +1.2061137e-12 </wgt>
<wgt id='1435'> +1.2078002e-12 </wgt>
<wgt id='1436'> +1.2071957e-12 </wgt>
<wgt id='1437'> +1.2128545e-12 </wgt>
<wgt id='1438'> +1.2067828e-12 </wgt>
<wgt id='1439'> +1.2005958e-12 </wgt>
<wgt id='1440'> +1.2245587e-12 </wgt>
<wgt id='1441'> +1.2130679e-12 </wgt>
<wgt id='1442'> +1.1969740e-12 </wgt>
<wgt id='1443'> +1.2038979e-12 </wgt>
<wgt id='1444'> +1.2162442e-12 </wgt>
<wgt id='1445'> +1.2150743e-12 </wgt>
<wgt id='1446'> +1.2052109e-12 </wgt>
<wgt id='1447'> +1.2078977e-12 </wgt>
<wgt id='1448'> +1.2089581e-12 </wgt>
<wgt id='1449'> +1.2086921e-12 </wgt>
<wgt id='1450'> +1.2065347e-12 </wgt>
<wgt id='1451'> +1.2177046e-12 </wgt>
<wgt id='1452'> +1.1824724e-12 </wgt>
<wgt id='1453'> +1.2092163e-12 </wgt>
<wgt id='1454'> +1.1994520e-12 </wgt>
<wgt id='1455'> +1.1954089e-12 </wgt>
<wgt id='1456'> +1.2119427e-12 </wgt>
<wgt id='1457'> +1.2157543e-12 </wgt>
<wgt id='1458'> +1.2035397e-12 </wgt>
<wgt id='1459'> +1.2119113e-12 </wgt>
<wgt id='1460'> +1.2001904e-12 </wgt>
<wgt id='1461'> +1.2075538e-12 </wgt>
<wgt id='1462'> +1.2012793e-12 </wgt>
<wgt id='1463'> +1.2177724e-12 </wgt>
<wgt id='1464'> +1.2090552e-12 </wgt>
<wgt id='1465'> +1.1767993e-12 </wgt>
<wgt id='1466'> +1.1839849e-12 </wgt>
<wgt id='1467'> +1.1912318e-12 </wgt>
<wgt id='1468'> +1.1961598e-12 </wgt>
<wgt id='1469'> +1.2031001e-12 </wgt>
<wgt id='1470'> +1.2154215e-12 </wgt>
<wgt id='1471'> +1.2196676e-12 </wgt>
<wgt id='1472'> +1.2256927e-12 </wgt>
<wgt id='1473'> +1.2090552e-12 </wgt>
<wgt id='1474'> +1.2046454e-12 </wgt>
<wgt id='1475'> +1.2059048e-12 </wgt>
<wgt id='1476'> +1.2109780e-12 </wgt>
<wgt id='1477'> +1.2129555e-12 </wgt>
<wgt id='1478'> +1.2060051e-12 </wgt>
<wgt id='1479'> +1.2066856e-12 </wgt>
<wgt id='1480'> +1.2204248e-12 </wgt>
<wgt id='1481'> +1.2016317e-12 </wgt>
<wgt id='1482'> +1.2082714e-12 </wgt>
<wgt id='1483'> +1.1854684e-12 </wgt>
<wgt id='1484'> +1.2050809e-12 </wgt>
<wgt id='1485'> +1.2186225e-12 </wgt>
<wgt id='1486'> +1.2049082e-12 </wgt>
<wgt id='1487'> +1.2114248e-12 </wgt>
<wgt id='1488'> +1.2034969e-12 </wgt>
<wgt id='1489'> +1.2192204e-12 </wgt>
<wgt id='1490'> +1.2017087e-12 </wgt>
<wgt id='1491'> +1.2121899e-12 </wgt>
<wgt id='1492'> +1.2053532e-12 </wgt>
<wgt id='1493'> +1.1843292e-12 </wgt>
<wgt id='1494'> +1.2102298e-12 </wgt>
<wgt id='1495'> +1.2033295e-12 </wgt>
<wgt id='1496'> +1.2062659e-12 </wgt>
<wgt id='1497'> +1.2017208e-12 </wgt>
<wgt id='1498'> +1.2062829e-12 </wgt>
<wgt id='1499'> +1.2081716e-12 </wgt>
<wgt id='1500'> +1.2083843e-12 </wgt>
<wgt id='1501'> +1.2051310e-12 </wgt>
<wgt id='1502'> +1.2060623e-12 </wgt>
<wgt id='1503'> +1.2111212e-12 </wgt>
<wgt id='1504'> +1.1984194e-12 </wgt>
<wgt id='1505'> +1.2114728e-12 </wgt>
<wgt id='1506'> +1.2063168e-12 </wgt>
<wgt id='1507'> +1.2047336e-12 </wgt>
<wgt id='1508'> +1.2111647e-12 </wgt>
<wgt id='1509'> +1.2950533e-12 </wgt>
<wgt id='1510'> +1.2935656e-12 </wgt>
<wgt id='1511'> +1.2974363e-12 </wgt>
<wgt id='1512'> +1.2958023e-12 </wgt>
<wgt id='1513'> +1.3004545e-12 </wgt>
<wgt id='1514'> +1.2942977e-12 </wgt>
<wgt id='1515'> +1.2909482e-12 </wgt>
<wgt id='1516'> +1.2958272e-12 </wgt>
<wgt id='1517'> +1.2951254e-12 </wgt>
<wgt id='1518'> +1.2970368e-12 </wgt>
<wgt id='1519'> +1.2863215e-12 </wgt>
<wgt id='1520'> +1.2929730e-12 </wgt>
<wgt id='1521'> +1.3036333e-12 </wgt>
<wgt id='1522'> +1.2951637e-12 </wgt>
<wgt id='1523'> +1.2987090e-12 </wgt>
<wgt id='1524'> +1.3038022e-12 </wgt>
<wgt id='1525'> +1.3029992e-12 </wgt>
<wgt id='1526'> +1.2888414e-12 </wgt>
<wgt id='1527'> +1.2915079e-12 </wgt>
<wgt id='1528'> +1.2888109e-12 </wgt>
<wgt id='1529'> +1.2929915e-12 </wgt>
<wgt id='1530'> +1.3008645e-12 </wgt>
<wgt id='1531'> +1.2970625e-12 </wgt>
<wgt id='1532'> +1.2871239e-12 </wgt>
<wgt id='1533'> +1.3035442e-12 </wgt>
<wgt id='1534'> +1.2956280e-12 </wgt>
<wgt id='1535'> +1.2945247e-12 </wgt>
<wgt id='1536'> +1.2995902e-12 </wgt>
<wgt id='1537'> +1.2971813e-12 </wgt>
<wgt id='1538'> +1.2901000e-12 </wgt>
<wgt id='1539'> +1.2859439e-12 </wgt>
<wgt id='1540'> +1.2959035e-12 </wgt>
<wgt id='1541'> +1.2942081e-12 </wgt>
<wgt id='1542'> +1.3019881e-12 </wgt>
<wgt id='1543'> +1.2960486e-12 </wgt>
<wgt id='1544'> +1.2929503e-12 </wgt>
<wgt id='1545'> +1.2953270e-12 </wgt>
<wgt id='1546'> +1.2951221e-12 </wgt>
<wgt id='1547'> +1.2952134e-12 </wgt>
<wgt id='1548'> +1.2936958e-12 </wgt>
<wgt id='1549'> +1.2963212e-12 </wgt>
<wgt id='1550'> +1.2935971e-12 </wgt>
<wgt id='1551'> +1.2920234e-12 </wgt>
<wgt id='1552'> +1.2917005e-12 </wgt>
<wgt id='1553'> +1.2976384e-12 </wgt>
<wgt id='1554'> +1.2961463e-12 </wgt>
<wgt id='1555'> +1.2956320e-12 </wgt>
<wgt id='1556'> +1.2938899e-12 </wgt>
<wgt id='1557'> +1.2945938e-12 </wgt>
<wgt id='1558'> +1.2971607e-12 </wgt>
<wgt id='1559'> +1.2963288e-12 </wgt>
<wgt id='1560'> +1.2934234e-12 </wgt>
<wgt id='1561'> +1.2946558e-12 </wgt>
<wgt id='1562'> +1.2940471e-12 </wgt>
<wgt id='1563'> +1.2926067e-12 </wgt>
<wgt id='1564'> +1.2928829e-12 </wgt>
<wgt id='1565'> +1.2958776e-12 </wgt>
<wgt id='1566'> +1.2964972e-12 </wgt>
<wgt id='1567'> +1.2957241e-12 </wgt>
<wgt id='1568'> +1.2952984e-12 </wgt>
<wgt id='1569'> +1.2957270e-12 </wgt>
<wgt id='1570'> +1.2933176e-12 </wgt>
<wgt id='1571'> +1.2956845e-12 </wgt>
<wgt id='1572'> +1.2951700e-12 </wgt>
<wgt id='1573'> +1.2948327e-12 </wgt>
<wgt id='1574'> +1.2959389e-12 </wgt>
<wgt id='1575'> +1.2943101e-12 </wgt>
<wgt id='1576'> +1.2950776e-12 </wgt>
<wgt id='1577'> +1.2947609e-12 </wgt>
<wgt id='1578'> +1.2945264e-12 </wgt>
<wgt id='1579'> +1.2954745e-12 </wgt>
<wgt id='1580'> +1.2933677e-12 </wgt>
<wgt id='1581'> +1.2941458e-12 </wgt>
<wgt id='1582'> +1.2954579e-12 </wgt>
<wgt id='1583'> +1.2945777e-12 </wgt>
<wgt id='1584'> +1.2944341e-12 </wgt>
<wgt id='1585'> +1.2953116e-12 </wgt>
<wgt id='1586'> +1.2940976e-12 </wgt>
<wgt id='1587'> +1.2950315e-12 </wgt>
<wgt id='1588'> +1.2945773e-12 </wgt>
<wgt id='1589'> +1.2946889e-12 </wgt>
<wgt id='1590'> +1.2954436e-12 </wgt>
<wgt id='1591'> +1.2953805e-12 </wgt>
<wgt id='1592'> +1.2950855e-12 </wgt>
<wgt id='1593'> +1.2966140e-12 </wgt>
<wgt id='1594'> +1.2953489e-12 </wgt>
<wgt id='1595'> +1.2959741e-12 </wgt>
<wgt id='1596'> +1.2953986e-12 </wgt>
<wgt id='1597'> +1.2957395e-12 </wgt>
<wgt id='1598'> +1.2954539e-12 </wgt>
<wgt id='1599'> +1.2946491e-12 </wgt>
<wgt id='1600'> +1.2950533e-12 </wgt>
<wgt id='1601'> +1.2947638e-12 </wgt>
<wgt id='1602'> +1.2958333e-12 </wgt>
<wgt id='1603'> +1.2958212e-12 </wgt>
<wgt id='1604'> +1.2948151e-12 </wgt>
<wgt id='1605'> +1.2943410e-12 </wgt>
<wgt id='1606'> +1.2946218e-12 </wgt>
<wgt id='1607'> +1.2950529e-12 </wgt>
<wgt id='1608'> +1.2954219e-12 </wgt>
<wgt id='1609'> +1.2943744e-12 </wgt>
<wgt id='1610'> +1.2935673e-12 </wgt>
<wgt id='1611'> +1.3033714e-12 </wgt>
<wgt id='1612'> +1.5013514e-12 </wgt>
<wgt id='1613'> +1.5211338e-12 </wgt>
<wgt id='1614'> +1.5310129e-12 </wgt>
<wgt id='1615'> +1.4742001e-12 </wgt>
<wgt id='1616'> +1.5642863e-12 </wgt>
<wgt id='1617'> +1.5527034e-12 </wgt>
<wgt id='1618'> +1.5154477e-12 </wgt>
<wgt id='1619'> +1.4993177e-12 </wgt>
<wgt id='1620'> +1.4965090e-12 </wgt>
<wgt id='1621'> +1.4889409e-12 </wgt>
<wgt id='1622'> +1.4803220e-12 </wgt>
<wgt id='1623'> +1.4642905e-12 </wgt>
<wgt id='1624'> +1.4770641e-12 </wgt>
<wgt id='1625'> +1.5148628e-12 </wgt>
<wgt id='1626'> +1.4472926e-12 </wgt>
<wgt id='1627'> +1.4747304e-12 </wgt>
<wgt id='1628'> +1.5054779e-12 </wgt>
<wgt id='1629'> +1.5715468e-12 </wgt>
<wgt id='1630'> +1.5056864e-12 </wgt>
<wgt id='1631'> +1.5097420e-12 </wgt>
<wgt id='1632'> +1.4285999e-12 </wgt>
<wgt id='1633'> +1.4606927e-12 </wgt>
<wgt id='1634'> +1.4767793e-12 </wgt>
<wgt id='1635'> +1.5046724e-12 </wgt>
<wgt id='1636'> +1.5573228e-12 </wgt>
<wgt id='1637'> +1.4997392e-12 </wgt>
<wgt id='1638'> +1.4718926e-12 </wgt>
<wgt id='1639'> +1.5304151e-12 </wgt>
<wgt id='1640'> +1.4626469e-12 </wgt>
<wgt id='1641'> +1.4894171e-12 </wgt>
<wgt id='1642'> +1.4597858e-12 </wgt>
<wgt id='1643'> +1.5690141e-12 </wgt>
<wgt id='1644'> +1.4441564e-12 </wgt>
<wgt id='1645'> +1.4687683e-12 </wgt>
<wgt id='1646'> +1.4993512e-12 </wgt>
<wgt id='1647'> +1.5253888e-12 </wgt>
<wgt id='1648'> +1.5071062e-12 </wgt>
<wgt id='1649'> +1.5414913e-12 </wgt>
<wgt id='1650'> +1.4942188e-12 </wgt>
<wgt id='1651'> +1.4715435e-12 </wgt>
<wgt id='1652'> +1.4861870e-12 </wgt>
<wgt id='1653'> +1.5669608e-12 </wgt>
<wgt id='1654'> +1.5260258e-12 </wgt>
<wgt id='1655'> +1.4986510e-12 </wgt>
<wgt id='1656'> +1.4442276e-12 </wgt>
<wgt id='1657'> +1.5075753e-12 </wgt>
<wgt id='1658'> +1.4540213e-12 </wgt>
<wgt id='1659'> +1.4770641e-12 </wgt>
<wgt id='1660'> +1.4877707e-12 </wgt>
<wgt id='1661'> +1.4812431e-12 </wgt>
<wgt id='1662'> +1.4600861e-12 </wgt>
<wgt id='1663'> +1.5022829e-12 </wgt>
<wgt id='1664'> +1.4965820e-12 </wgt>
<wgt id='1665'> +1.4056447e-12 </wgt>
<wgt id='1666'> +1.4914808e-12 </wgt>
<wgt id='1667'> +1.5196900e-12 </wgt>
<wgt id='1668'> +1.5416472e-12 </wgt>
<wgt id='1669'> +1.5010244e-12 </wgt>
<wgt id='1670'> +1.4925954e-12 </wgt>
<wgt id='1671'> +1.4449820e-12 </wgt>
<wgt id='1672'> +1.4859756e-12 </wgt>
<wgt id='1673'> +1.5667657e-12 </wgt>
<wgt id='1674'> +1.5319675e-12 </wgt>
<wgt id='1675'> +1.5116873e-12 </wgt>
<wgt id='1676'> +1.5498969e-12 </wgt>
<wgt id='1677'> +1.5232879e-12 </wgt>
<wgt id='1678'> +1.4725159e-12 </wgt>
<wgt id='1679'> +1.5686930e-12 </wgt>
<wgt id='1680'> +1.5345344e-12 </wgt>
<wgt id='1681'> +1.5030905e-12 </wgt>
<wgt id='1682'> +1.4702745e-12 </wgt>
<wgt id='1683'> +1.4937209e-12 </wgt>
<wgt id='1684'> +1.4503668e-12 </wgt>
<wgt id='1685'> +1.4973366e-12 </wgt>
<wgt id='1686'> +1.4973010e-12 </wgt>
<wgt id='1687'> +1.5444143e-12 </wgt>
<wgt id='1688'> +1.4907909e-12 </wgt>
<wgt id='1689'> +1.4686586e-12 </wgt>
<wgt id='1690'> +1.4927871e-12 </wgt>
<wgt id='1691'> +1.5049455e-12 </wgt>
<wgt id='1692'> +1.5169783e-12 </wgt>
<wgt id='1693'> +1.5166072e-12 </wgt>
<wgt id='1694'> +1.4546615e-12 </wgt>
<wgt id='1695'> +1.4587454e-12 </wgt>
<wgt id='1696'> +1.5268719e-12 </wgt>
<wgt id='1697'> +1.5511877e-12 </wgt>
<wgt id='1698'> +1.4753273e-12 </wgt>
<wgt id='1699'> +1.5677882e-12 </wgt>
<wgt id='1700'> +1.4916198e-12 </wgt>
<wgt id='1701'> +1.5138898e-12 </wgt>
<wgt id='1702'> +1.5583737e-12 </wgt>
<wgt id='1703'> +1.5175071e-12 </wgt>
<wgt id='1704'> +1.5133482e-12 </wgt>
<wgt id='1705'> +1.4709579e-12 </wgt>
<wgt id='1706'> +1.5477790e-12 </wgt>
<wgt id='1707'> +1.4629227e-12 </wgt>
<wgt id='1708'> +1.5427128e-12 </wgt>
<wgt id='1709'> +1.4919831e-12 </wgt>
<wgt id='1710'> +1.5142954e-12 </wgt>
<wgt id='1711'> +1.5177204e-12 </wgt>
<wgt id='1712'> +1.5104587e-12 </wgt>
<wgt id='1713'> +1.2120995e-12 </wgt>
<wgt id='1714'> +1.1647296e-12 </wgt>
<wgt id='1715'> +1.2251067e-12 </wgt>
<wgt id='1716'> +1.2582905e-12 </wgt>
<wgt id='1717'> +1.2403638e-12 </wgt>
<wgt id='1718'> +1.1935718e-12 </wgt>
<wgt id='1719'> +1.1608774e-12 </wgt>
<wgt id='1720'> +1.2438302e-12 </wgt>
<wgt id='1721'> +1.2248289e-12 </wgt>
<wgt id='1722'> +1.2179895e-12 </wgt>
<wgt id='1723'> +1.1841079e-12 </wgt>
<wgt id='1724'> +1.1734908e-12 </wgt>
<wgt id='1725'> +1.2329242e-12 </wgt>
<wgt id='1726'> +1.2521839e-12 </wgt>
<wgt id='1727'> +1.1960795e-12 </wgt>
<wgt id='1728'> +1.2098679e-12 </wgt>
<wgt id='1729'> +1.2017041e-12 </wgt>
<wgt id='1730'> +1.1631127e-12 </wgt>
<wgt id='1731'> +1.1586371e-12 </wgt>
<wgt id='1732'> +1.1901968e-12 </wgt>
<wgt id='1733'> +1.2352883e-12 </wgt>
<wgt id='1734'> +1.2651654e-12 </wgt>
<wgt id='1735'> +1.2445911e-12 </wgt>
<wgt id='1736'> +1.2733107e-12 </wgt>
<wgt id='1737'> +1.2321635e-12 </wgt>
<wgt id='1738'> +1.2306453e-12 </wgt>
<wgt id='1739'> +1.1983622e-12 </wgt>
<wgt id='1740'> +1.1858694e-12 </wgt>
<wgt id='1741'> +1.1873829e-12 </wgt>
<wgt id='1742'> +1.2013908e-12 </wgt>
<wgt id='1743'> +1.2716823e-12 </wgt>
<wgt id='1744'> +1.2596095e-12 </wgt>
<wgt id='1745'> +1.1620537e-12 </wgt>
<wgt id='1746'> +1.2356885e-12 </wgt>
<wgt id='1747'> +1.2193091e-12 </wgt>
<wgt id='1748'> +1.2704603e-12 </wgt>
<wgt id='1749'> +1.2054210e-12 </wgt>
<wgt id='1750'> +1.2285089e-12 </wgt>
<wgt id='1751'> +1.1557988e-12 </wgt>
<wgt id='1752'> +1.1932148e-12 </wgt>
<wgt id='1753'> +1.2397649e-12 </wgt>
<wgt id='1754'> +1.1993021e-12 </wgt>
<wgt id='1755'> +1.2028536e-12 </wgt>
<wgt id='1756'> +1.2306791e-12 </wgt>
<wgt id='1757'> +1.2176557e-12 </wgt>
<wgt id='1758'> +1.2380906e-12 </wgt>
<wgt id='1759'> +1.1826535e-12 </wgt>
<wgt id='1760'> +1.1690496e-12 </wgt>
<wgt id='1761'> +1.1814851e-12 </wgt>
<wgt id='1762'> +1.2620109e-12 </wgt>
<wgt id='1763'> +1.2386256e-12 </wgt>
<wgt id='1764'> +1.2314723e-12 </wgt>
<wgt id='1765'> +1.2139038e-12 </wgt>
<wgt id='1766'> +1.1847410e-12 </wgt>
<wgt id='1767'> +1.2134919e-12 </wgt>
<wgt id='1768'> +1.2071246e-12 </wgt>
<wgt id='1769'> +1.1751673e-12 </wgt>
<wgt id='1770'> +1.2384498e-12 </wgt>
<wgt id='1771'> +1.2249487e-12 </wgt>
<wgt id='1772'> +1.2369674e-12 </wgt>
<wgt id='1773'> +1.2451950e-12 </wgt>
<wgt id='1774'> +1.2129975e-12 </wgt>
<wgt id='1775'> +1.2243792e-12 </wgt>
<wgt id='1776'> +1.1886564e-12 </wgt>
<wgt id='1777'> +1.1953190e-12 </wgt>
<wgt id='1778'> +1.2055340e-12 </wgt>
<wgt id='1779'> +1.2338759e-12 </wgt>
<wgt id='1780'> +1.2071600e-12 </wgt>
<wgt id='1781'> +1.2082991e-12 </wgt>
<wgt id='1782'> +1.1586303e-12 </wgt>
<wgt id='1783'> +1.2096352e-12 </wgt>
<wgt id='1784'> +1.2156459e-12 </wgt>
<wgt id='1785'> +1.1477450e-12 </wgt>
<wgt id='1786'> +1.1547389e-12 </wgt>
<wgt id='1787'> +1.2284829e-12 </wgt>
<wgt id='1788'> +1.1864268e-12 </wgt>
<wgt id='1789'> +1.1922815e-12 </wgt>
<wgt id='1790'> +1.2268124e-12 </wgt>
<wgt id='1791'> +1.2459949e-12 </wgt>
<wgt id='1792'> +1.1813381e-12 </wgt>
<wgt id='1793'> +1.2558323e-12 </wgt>
<wgt id='1794'> +1.2285876e-12 </wgt>
<wgt id='1795'> +1.2443419e-12 </wgt>
<wgt id='1796'> +1.1811868e-12 </wgt>
<wgt id='1797'> +1.2232699e-12 </wgt>
<wgt id='1798'> +1.1861527e-12 </wgt>
<wgt id='1799'> +1.2096935e-12 </wgt>
<wgt id='1800'> +1.2033362e-12 </wgt>
<wgt id='1801'> +1.2265285e-12 </wgt>
<wgt id='1802'> +1.1955283e-12 </wgt>
<wgt id='1803'> +1.2289099e-12 </wgt>
<wgt id='1804'> +1.2276031e-12 </wgt>
<wgt id='1805'> +1.2370200e-12 </wgt>
<wgt id='1806'> +1.1979295e-12 </wgt>
<wgt id='1807'> +1.2066767e-12 </wgt>
<wgt id='1808'> +1.1981823e-12 </wgt>
<wgt id='1809'> +1.1730863e-12 </wgt>
<wgt id='1810'> +1.2098186e-12 </wgt>
<wgt id='1811'> +1.2319062e-12 </wgt>
<wgt id='1812'> +1.2397847e-12 </wgt>
<wgt id='1813'> +1.2028025e-12 </wgt>
<wgt id='1814'> +1.3876673e-12 </wgt>
<wgt id='1815'> +1.5821787e-12 </wgt>
<wgt id='1816'> +1.2120995e-12 </wgt>
<wgt id='1817'> +1.1647296e-12 </wgt>
<wgt id='1818'> +1.2251067e-12 </wgt>
<wgt id='1819'> +1.2582905e-12 </wgt>
<wgt id='1820'> +1.2403638e-12 </wgt>
<wgt id='1821'> +1.1935718e-12 </wgt>
<wgt id='1822'> +1.1608774e-12 </wgt>
<wgt id='1823'> +1.2438302e-12 </wgt>
<wgt id='1824'> +1.2248289e-12 </wgt>
<wgt id='1825'> +1.2179895e-12 </wgt>
<wgt id='1826'> +1.1841079e-12 </wgt>
<wgt id='1827'> +1.1734908e-12 </wgt>
<wgt id='1828'> +1.2329242e-12 </wgt>
<wgt id='1829'> +1.2521839e-12 </wgt>
<wgt id='1830'> +1.1960795e-12 </wgt>
<wgt id='1831'> +1.2098679e-12 </wgt>
<wgt id='1832'> +1.2017041e-12 </wgt>
<wgt id='1833'> +1.1631127e-12 </wgt>
<wgt id='1834'> +1.1586371e-12 </wgt>
<wgt id='1835'> +1.1901968e-12 </wgt>
<wgt id='1836'> +1.2352883e-12 </wgt>
<wgt id='1837'> +1.2651654e-12 </wgt>
<wgt id='1838'> +1.2445911e-12 </wgt>
<wgt id='1839'> +1.2733107e-12 </wgt>
<wgt id='1840'> +1.2321635e-12 </wgt>
<wgt id='1841'> +1.2306453e-12 </wgt>
<wgt id='1842'> +1.1983622e-12 </wgt>
<wgt id='1843'> +1.1858694e-12 </wgt>
<wgt id='1844'> +1.1873829e-12 </wgt>
<wgt id='1845'> +1.2013908e-12 </wgt>
<wgt id='1846'> +1.2716823e-12 </wgt>
<wgt id='1847'> +1.2596095e-12 </wgt>
<wgt id='1848'> +1.1620537e-12 </wgt>
<wgt id='1849'> +1.2356885e-12 </wgt>
<wgt id='1850'> +1.2193091e-12 </wgt>
<wgt id='1851'> +1.2704603e-12 </wgt>
<wgt id='1852'> +1.2054210e-12 </wgt>
<wgt id='1853'> +1.2285089e-12 </wgt>
<wgt id='1854'> +1.1557988e-12 </wgt>
<wgt id='1855'> +1.1932148e-12 </wgt>
<wgt id='1856'> +1.2397649e-12 </wgt>
<wgt id='1857'> +1.1993021e-12 </wgt>
<wgt id='1858'> +1.2028536e-12 </wgt>
<wgt id='1859'> +1.2306791e-12 </wgt>
<wgt id='1860'> +1.2176557e-12 </wgt>
<wgt id='1861'> +1.2380906e-12 </wgt>
<wgt id='1862'> +1.1826535e-12 </wgt>
<wgt id='1863'> +1.1690496e-12 </wgt>
<wgt id='1864'> +1.1814851e-12 </wgt>
<wgt id='1865'> +1.2620109e-12 </wgt>
<wgt id='1866'> +1.2386256e-12 </wgt>
<wgt id='1867'> +1.2314723e-12 </wgt>
<wgt id='1868'> +1.2139038e-12 </wgt>
<wgt id='1869'> +1.1847410e-12 </wgt>
<wgt id='1870'> +1.2134919e-12 </wgt>
<wgt id='1871'> +1.2071246e-12 </wgt>
<wgt id='1872'> +1.1751673e-12 </wgt>
<wgt id='1873'> +1.2384498e-12 </wgt>
<wgt id='1874'> +1.2249487e-12 </wgt>
<wgt id='1875'> +1.2369674e-12 </wgt>
<wgt id='1876'> +1.2451950e-12 </wgt>
<wgt id='1877'> +1.2129975e-12 </wgt>
<wgt id='1878'> +1.2243792e-12 </wgt>
<wgt id='1879'> +1.1886564e-12 </wgt>
<wgt id='1880'> +1.1953190e-12 </wgt>
<wgt id='1881'> +1.2055340e-12 </wgt>
<wgt id='1882'> +1.2338759e-12 </wgt>
<wgt id='1883'> +1.2071600e-12 </wgt>
<wgt id='1884'> +1.2082991e-12 </wgt>
<wgt id='1885'> +1.1586303e-12 </wgt>
<wgt id='1886'> +1.2096352e-12 </wgt>
<wgt id='1887'> +1.2156459e-12 </wgt>
<wgt id='1888'> +1.1477450e-12 </wgt>
<wgt id='1889'> +1.1547389e-12 </wgt>
<wgt id='1890'> +1.2284829e-12 </wgt>
<wgt id='1891'> +1.1864268e-12 </wgt>
<wgt id='1892'> +1.1922815e-12 </wgt>
<wgt id='1893'> +1.2268124e-12 </wgt>
<wgt id='1894'> +1.2459949e-12 </wgt>
<wgt id='1895'> +1.1813381e-12 </wgt>
<wgt id='1896'> +1.2558323e-12 </wgt>
<wgt id='1897'> +1.2285876e-12 </wgt>
<wgt id='1898'> +1.2443419e-12 </wgt>
<wgt id='1899'> +1.1811868e-12 </wgt>
<wgt id='1900'> +1.2232699e-12 </wgt>
<wgt id='1901'> +1.1861527e-12 </wgt>
<wgt id='1902'> +1.2096935e-12 </wgt>
<wgt id='1903'> +1.2033362e-12 </wgt>
<wgt id='1904'> +1.2265285e-12 </wgt>
<wgt id='1905'> +1.1955283e-12 </wgt>
<wgt id='1906'> +1.2289099e-12 </wgt>
<wgt id='1907'> +1.2276031e-12 </wgt>
<wgt id='1908'> +1.2370200e-12 </wgt>
<wgt id='1909'> +1.1979295e-12 </wgt>
<wgt id='1910'> +1.2066767e-12 </wgt>
<wgt id='1911'> +1.1981823e-12 </wgt>
<wgt id='1912'> +1.1730863e-12 </wgt>
<wgt id='1913'> +1.2098186e-12 </wgt>
<wgt id='1914'> +1.2319062e-12 </wgt>
<wgt id='1915'> +1.2397847e-12 </wgt>
<wgt id='1916'> +1.2028025e-12 </wgt>
<wgt id='1917'> +1.2049169e-12 </wgt>
<wgt id='1918'> +1.2178825e-12 </wgt>
<wgt id='1919'> +1.2421713e-12 </wgt>
</rwgt>
</event>
<event>
 9      1 +1.5538000e-12 5.01096400e+01 7.81860800e-03 1.31091700e-01
       21 -1    0    0  501  502 +0.0000000000e+00 +0.0000000000e+00 +1.3067254964e+00 1.3067254964e+00 0.0000000000e+00 0.0000e+00 1.0000e+00
        2 -1    0    0  502    0 -0.0000000000e+00 -0.0000000000e+00 -4.8039476778e+02 4.8039476778e+02 0.0000000000e+00 0.0000e+00 -1.0000e+00
     1023  2    1    2    0    0 -1.8685033593e+01 -1.0748037018e+01 -1.8930310616e+02 1.9111594652e+02 1.4999607727e+01 0.0000e+00 0.0000e+00
  1000023  2    3    3    0    0 -3.3590543067e+00 -5.9382830435e+00 -8.6824766601e+01 8.7265913042e+01 5.5002756699e+00 0.0000e+00 0.0000e+00
        2  1    1    2  501    0 +1.8685033593e+01 +1.0748037018e+01 -2.8978493612e+02 2.9058554676e+02 0.0000000000e+00 0.0000e+00 -1.0000e+00
  1000022  1    4    4    0    0 -3.5482592637e+00 -5.7522481565e+00 -8.1691616208e+01 8.2123070214e+01 5.0000000000e+00 0.0000e+00 -1.0000e+00
      -11  1    4    4    0    0 +1.5018277471e-02 -3.3477635846e-02 -2.2853350414e+00 2.2856296317e+00 5.1100000000e-04 0.0000e+00 -1.0000e+00
       11  1    4    4    0    0 +1.7418667954e-01 -1.5255725111e-01 -2.8478153510e+00 2.8572131963e+00 5.1100000000e-04 0.0000e+00 1.0000e+00
  1000022  1    3    3    0    0 -1.5325979286e+01 -4.8097539740e+00 -1.0247833956e+02 1.0385003348e+02 5.0000000000e+00 0.0000e+00 1.0000e+00
<mgrwt>
<rscale>  1 0.50109643E+02</rscale>
<asrwt>0</asrwt>
<pdfrwt beam="1">  1       21 0.20103474E-03 0.50109643E+02</pdfrwt>
<pdfrwt beam="2">  1        2 0.73906870E-01 0.50109643E+02</pdfrwt>
<totfact> 0.24505129E+07</totfact>
</mgrwt>
<rwgt>
<wgt id='1001'> +1.5538000e-12 </wgt>
<wgt id='1002'> +1.5367549e-12 </wgt>
<wgt id='1003'> +1.5446101e-12 </wgt>
<wgt id='1004'> +1.4121672e-12 </wgt>
<wgt id='1005'> +1.5538000e-12 </wgt>
<wgt id='1006'> +1.3770491e-12 </wgt>
<wgt id='1007'> +1.3583614e-12 </wgt>
<wgt id='1008'> +1.3669466e-12 </wgt>
<wgt id='1009'> +1.2269879e-12 </wgt>
<wgt id='1010'> +1.3770491e-12 </wgt>
<wgt id='1011'> +1.7849218e-12 </wgt>
<wgt id='1012'> +1.7715201e-12 </wgt>
<wgt id='1013'> +1.7777255e-12 </wgt>
<wgt id='1014'> +1.6666397e-12 </wgt>
<wgt id='1015'> +1.7849218e-12 </wgt>
<wgt id='1016'> +1.8398193e-12 </wgt>
<wgt id='1017'> +1.8334653e-12 </wgt>
<wgt id='1018'> +1.8364555e-12 </wgt>
<wgt id='1019'> +1.7777255e-12 </wgt>
<wgt id='1020'> +1.8398193e-12 </wgt>
<wgt id='1021'> +1.6305326e-12 </wgt>
<wgt id='1022'> +1.6206284e-12 </wgt>
<wgt id='1023'> +1.6252235e-12 </wgt>
<wgt id='1024'> +1.5446101e-12 </wgt>
<wgt id='1025'> +1.6305326e-12 </wgt>
<wgt id='1026'> +2.1134854e-12 </wgt>
<wgt id='1027'> +2.1135581e-12 </wgt>
<wgt id='1028'> +2.1136167e-12 </wgt>
<wgt id='1029'> +2.0980717e-12 </wgt>
<wgt id='1030'> +2.1134854e-12 </wgt>
<wgt id='1031'> +1.2419277e-12 </wgt>
<wgt id='1032'> +1.2142821e-12 </wgt>
<wgt id='1033'> +1.2269879e-12 </wgt>
<wgt id='1034'> +1.0221815e-12 </wgt>
<wgt id='1035'> +1.2419277e-12 </wgt>
<wgt id='1036'> +1.1006535e-12 </wgt>
<wgt id='1037'> +1.0733228e-12 </wgt>
<wgt id='1038'> +1.0858578e-12 </wgt>
<wgt id='1039'> +8.8814159e-13 </wgt>
<wgt id='1040'> +1.1006535e-12 </wgt>
<wgt id='1041'> +1.4266597e-12 </wgt>
<wgt id='1042'> +1.3997842e-12 </wgt>
<wgt id='1043'> +1.4121672e-12 </wgt>
<wgt id='1044'> +1.2063787e-12 </wgt>
<wgt id='1045'> +1.4266597e-12 </wgt>
<wgt id='1046'> +1.5538000e-12 </wgt>
<wgt id='1047'> +1.5590933e-12 </wgt>
<wgt id='1048'> +1.6023514e-12 </wgt>
<wgt id='1049'> +1.4979010e-12 </wgt>
<wgt id='1050'> +1.5288047e-12 </wgt>
<wgt id='1051'> +1.5240087e-12 </wgt>
<wgt id='1052'> +1.5230535e-12 </wgt>
<wgt id='1053'> +1.6191761e-12 </wgt>
<wgt id='1054'> +1.5831787e-12 </wgt>
<wgt id='1055'> +1.5339018e-12 </wgt>
<wgt id='1056'> +1.5006830e-12 </wgt>
<wgt id='1057'> +1.5370480e-12 </wgt>
<wgt id='1058'> +1.5141950e-12 </wgt>
<wgt id='1059'> +1.5679690e-12 </wgt>
<wgt id='1060'> +1.5681681e-12 </wgt>
<wgt id='1061'> +1.5814663e-12 </wgt>
<wgt id='1062'> +1.5520994e-12 </wgt>
<wgt id='1063'> +1.5053774e-12 </wgt>
<wgt id='1064'> +1.5449474e-12 </wgt>
<wgt id='1065'> +1.5978705e-12 </wgt>
<wgt id='1066'> +1.5576947e-12 </wgt>
<wgt id='1067'> +1.5811843e-12 </wgt>
<wgt id='1068'> +1.5955145e-12 </wgt>
<wgt id='1069'> +1.6108118e-12 </wgt>
<wgt id='1070'> +1.5494557e-12 </wgt>
<wgt id='1071'> +1.5568558e-12 </wgt>
<wgt id='1072'> +1.5672321e-12 </wgt>
<wgt id='1073'> +1.5465054e-12 </wgt>
<wgt id='1074'> +1.5565370e-12 </wgt>
<wgt id='1075'> +1.5508182e-12 </wgt>
<wgt id='1076'> +1.5641807e-12 </wgt>
<wgt id='1077'> +1.5722784e-12 </wgt>
<wgt id='1078'> +1.5131395e-12 </wgt>
<wgt id='1079'> +1.5531996e-12 </wgt>
<wgt id='1080'> +1.5431635e-12 </wgt>
<wgt id='1081'> +1.5117190e-12 </wgt>
<wgt id='1082'> +1.5436552e-12 </wgt>
<wgt id='1083'> +1.5301225e-12 </wgt>
<wgt id='1084'> +1.5365970e-12 </wgt>
<wgt id='1085'> +1.5815113e-12 </wgt>
<wgt id='1086'> +1.5994814e-12 </wgt>
<wgt id='1087'> +1.5375748e-12 </wgt>
<wgt id='1088'> +1.5508110e-12 </wgt>
<wgt id='1089'> +1.5303760e-12 </wgt>
<wgt id='1090'> +1.5624939e-12 </wgt>
<wgt id='1091'> +1.5592253e-12 </wgt>
<wgt id='1092'> +1.5493995e-12 </wgt>
<wgt id='1093'> +1.5805999e-12 </wgt>
<wgt id='1094'> +1.6042195e-12 </wgt>
<wgt id='1095'> +1.5964485e-12 </wgt>
<wgt id='1096'> +1.5292174e-12 </wgt>
<wgt id='1097'> +1.5582161e-12 </wgt>
<wgt id='1098'> +1.5765753e-12 </wgt>
<wgt id='1099'> +1.5412406e-12 </wgt>
<wgt id='1100'> +1.5840751e-12 </wgt>
<wgt id='1101'> +1.5686917e-12 </wgt>
<wgt id='1102'> +1.5320144e-12 </wgt>
<wgt id='1103'> +1.5417194e-12 </wgt>
<wgt id='1104'> +1.5588835e-12 </wgt>
<wgt id='1105'> +1.5039601e-12 </wgt>
<wgt id='1106'> +1.5522317e-12 </wgt>
<wgt id='1107'> +1.6023871e-12 </wgt>
<wgt id='1108'> +1.5439986e-12 </wgt>
<wgt id='1109'> +1.5478023e-12 </wgt>
<wgt id='1110'> +1.5408176e-12 </wgt>
<wgt id='1111'> +1.5587170e-12 </wgt>
<wgt id='1112'> +1.5607811e-12 </wgt>
<wgt id='1113'> +1.6181078e-12 </wgt>
<wgt id='1114'> +1.5811242e-12 </wgt>
<wgt id='1115'> +1.5940612e-12 </wgt>
<wgt id='1116'> +1.6233927e-12 </wgt>
<wgt id='1117'> +1.5449570e-12 </wgt>
<wgt id='1118'> +1.6130531e-12 </wgt>
<wgt id='1119'> +1.4993516e-12 </wgt>
<wgt id='1120'> +1.5413447e-12 </wgt>
<wgt id='1121'> +1.5184292e-12 </wgt>
<wgt id='1122'> +1.5419563e-12 </wgt>
<wgt id='1123'> +1.5836516e-12 </wgt>
<wgt id='1124'> +1.5798584e-12 </wgt>
<wgt id='1125'> +1.5032009e-12 </wgt>
<wgt id='1126'> +1.5387352e-12 </wgt>
<wgt id='1127'> +1.5547721e-12 </wgt>
<wgt id='1128'> +1.5520994e-12 </wgt>
<wgt id='1129'> +1.5207296e-12 </wgt>
<wgt id='1130'> +1.5379020e-12 </wgt>
<wgt id='1131'> +1.5676493e-12 </wgt>
<wgt id='1132'> +1.5735999e-12 </wgt>
<wgt id='1133'> +1.5216373e-12 </wgt>
<wgt id='1134'> +1.5261643e-12 </wgt>
<wgt id='1135'> +1.4916242e-12 </wgt>
<wgt id='1136'> +1.5163004e-12 </wgt>
<wgt id='1137'> +1.5591537e-12 </wgt>
<wgt id='1138'> +1.5385869e-12 </wgt>
<wgt id='1139'> +1.5461503e-12 </wgt>
<wgt id='1140'> +1.5738467e-12 </wgt>
<wgt id='1141'> +1.5463171e-12 </wgt>
<wgt id='1142'> +1.5827308e-12 </wgt>
<wgt id='1143'> +1.4963373e-12 </wgt>
<wgt id='1144'> +1.5446737e-12 </wgt>
<wgt id='1145'> +1.5563276e-12 </wgt>
<wgt id='1146'> +1.5570283e-12 </wgt>
<wgt id='1147'> +1.3929231e-12 </wgt>
<wgt id='1148'> +1.4215532e-12 </wgt>
<wgt id='1149'> +1.3394026e-12 </wgt>
<wgt id='1150'> +1.3955176e-12 </wgt>
<wgt id='1151'> +1.6288081e-12 </wgt>
<wgt id='1152'> +2.2213163e-12 </wgt>
<wgt id='1153'> +2.2207231e-12 </wgt>
<wgt id='1154'> +2.2215652e-12 </wgt>
<wgt id='1155'> +2.2154892e-12 </wgt>
<wgt id='1156'> +2.2242647e-12 </wgt>
<wgt id='1157'> +2.2248881e-12 </wgt>
<wgt id='1158'> +2.2164453e-12 </wgt>
<wgt id='1159'> +2.2243994e-12 </wgt>
<wgt id='1160'> +2.2193245e-12 </wgt>
<wgt id='1161'> +2.2174403e-12 </wgt>
<wgt id='1162'> +2.2239315e-12 </wgt>
<wgt id='1163'> +2.2214393e-12 </wgt>
<wgt id='1164'> +2.2211976e-12 </wgt>
<wgt id='1165'> +2.2219409e-12 </wgt>
<wgt id='1166'> +2.2204924e-12 </wgt>
<wgt id='1167'> +2.2460301e-12 </wgt>
<wgt id='1168'> +2.1912012e-12 </wgt>
<wgt id='1169'> +2.2287287e-12 </wgt>
<wgt id='1170'> +2.2157775e-12 </wgt>
<wgt id='1171'> +2.2130412e-12 </wgt>
<wgt id='1172'> +2.2320392e-12 </wgt>
<wgt id='1173'> +2.1976026e-12 </wgt>
<wgt id='1174'> +2.2458929e-12 </wgt>
<wgt id='1175'> +2.2257526e-12 </wgt>
<wgt id='1176'> +2.2172435e-12 </wgt>
<wgt id='1177'> +2.2154558e-12 </wgt>
<wgt id='1178'> +2.2367235e-12 </wgt>
<wgt id='1179'> +2.2187181e-12 </wgt>
<wgt id='1180'> +2.2178575e-12 </wgt>
<wgt id='1181'> +2.2281930e-12 </wgt>
<wgt id='1182'> +2.2127613e-12 </wgt>
<wgt id='1183'> +2.2126124e-12 </wgt>
<wgt id='1184'> +2.2218560e-12 </wgt>
<wgt id='1185'> +2.2172951e-12 </wgt>
<wgt id='1186'> +2.2235698e-12 </wgt>
<wgt id='1187'> +2.2244039e-12 </wgt>
<wgt id='1188'> +2.2202097e-12 </wgt>
<wgt id='1189'> +2.2150763e-12 </wgt>
<wgt id='1190'> +2.1992721e-12 </wgt>
<wgt id='1191'> +2.2243050e-12 </wgt>
<wgt id='1192'> +2.2275919e-12 </wgt>
<wgt id='1193'> +1.3922796e-12 </wgt>
<wgt id='1194'> +1.3770324e-12 </wgt>
<wgt id='1195'> +1.4047890e-12 </wgt>
<wgt id='1196'> +1.3926383e-12 </wgt>
<wgt id='1197'> +1.3918711e-12 </wgt>
<wgt id='1198'> +1.3914896e-12 </wgt>
<wgt id='1199'> +1.3935157e-12 </wgt>
<wgt id='1200'> +1.3889099e-12 </wgt>
<wgt id='1201'> +1.3945736e-12 </wgt>
<wgt id='1202'> +1.3912040e-12 </wgt>
<wgt id='1203'> +1.3938038e-12 </wgt>
<wgt id='1204'> +1.3859297e-12 </wgt>
<wgt id='1205'> +1.3960325e-12 </wgt>
<wgt id='1206'> +1.3952091e-12 </wgt>
<wgt id='1207'> +1.3882680e-12 </wgt>
<wgt id='1208'> +1.3975424e-12 </wgt>
<wgt id='1209'> +1.3904411e-12 </wgt>
<wgt id='1210'> +1.3938250e-12 </wgt>
<wgt id='1211'> +1.3883043e-12 </wgt>
<wgt id='1212'> +1.3923451e-12 </wgt>
<wgt id='1213'> +1.3926637e-12 </wgt>
<wgt id='1214'> +1.3796947e-12 </wgt>
<wgt id='1215'> +1.4088975e-12 </wgt>
<wgt id='1216'> +1.3971036e-12 </wgt>
<wgt id='1217'> +1.3890859e-12 </wgt>
<wgt id='1218'> +1.3970095e-12 </wgt>
<wgt id='1219'> +1.3896807e-12 </wgt>
<wgt id='1220'> +1.4003912e-12 </wgt>
<wgt id='1221'> +1.3904792e-12 </wgt>
<wgt id='1222'> +1.4119405e-12 </wgt>
<wgt id='1223'> +1.3639898e-12 </wgt>
<wgt id='1224'> +1.3964211e-12 </wgt>
<wgt id='1225'> +1.3906266e-12 </wgt>
<wgt id='1226'> +1.3907098e-12 </wgt>
<wgt id='1227'> +1.3936471e-12 </wgt>
<wgt id='1228'> +1.3824918e-12 </wgt>
<wgt id='1229'> +1.3962567e-12 </wgt>
<wgt id='1230'> +1.3931409e-12 </wgt>
<wgt id='1231'> +1.4017455e-12 </wgt>
<wgt id='1232'> +1.3921033e-12 </wgt>
<wgt id='1233'> +1.3923051e-12 </wgt>
<wgt id='1234'> +1.3922796e-12 </wgt>
<wgt id='1235'> +1.3848494e-12 </wgt>
<wgt id='1236'> +1.3877332e-12 </wgt>
<wgt id='1237'> +1.3903046e-12 </wgt>
<wgt id='1238'> +1.3944694e-12 </wgt>
<wgt id='1239'> +1.3961319e-12 </wgt>
<wgt id='1240'> +1.3978574e-12 </wgt>
<wgt id='1241'> +1.3203748e-12 </wgt>
<wgt id='1242'> +1.3050264e-12 </wgt>
<wgt id='1243'> +1.3355382e-12 </wgt>
<wgt id='1244'> +1.3232580e-12 </wgt>
<wgt id='1245'> +1.3181865e-12 </wgt>
<wgt id='1246'> +1.3162757e-12 </wgt>
<wgt id='1247'> +1.3238517e-12 </wgt>
<wgt id='1248'> +1.3203761e-12 </wgt>
<wgt id='1249'> +1.3203843e-12 </wgt>
<wgt id='1250'> +1.3213592e-12 </wgt>
<wgt id='1251'> +1.3197044e-12 </wgt>
<wgt id='1252'> +1.3181517e-12 </wgt>
<wgt id='1253'> +1.3220852e-12 </wgt>
<wgt id='1254'> +1.3157434e-12 </wgt>
<wgt id='1255'> +1.3230797e-12 </wgt>
<wgt id='1256'> +1.3185697e-12 </wgt>
<wgt id='1257'> +1.3248734e-12 </wgt>
<wgt id='1258'> +1.3299021e-12 </wgt>
<wgt id='1259'> +1.3096641e-12 </wgt>
<wgt id='1260'> +1.3223363e-12 </wgt>
<wgt id='1261'> +1.3185134e-12 </wgt>
<wgt id='1262'> +1.3198440e-12 </wgt>
<wgt id='1263'> +1.3209461e-12 </wgt>
<wgt id='1264'> +1.3265959e-12 </wgt>
<wgt id='1265'> +1.3175914e-12 </wgt>
<wgt id='1266'> +1.3006996e-12 </wgt>
<wgt id='1267'> +1.3387127e-12 </wgt>
<wgt id='1268'> +1.3276442e-12 </wgt>
<wgt id='1269'> +1.3143983e-12 </wgt>
<wgt id='1270'> +1.3269602e-12 </wgt>
<wgt id='1271'> +1.3229297e-12 </wgt>
<wgt id='1272'> +1.3240550e-12 </wgt>
<wgt id='1273'> +1.3200080e-12 </wgt>
<wgt id='1274'> +1.3219606e-12 </wgt>
<wgt id='1275'> +1.3182801e-12 </wgt>
<wgt id='1276'> +1.3269596e-12 </wgt>
<wgt id='1277'> +1.3113214e-12 </wgt>
<wgt id='1278'> +1.3328059e-12 </wgt>
<wgt id='1279'> +1.3247345e-12 </wgt>
<wgt id='1280'> +1.3211154e-12 </wgt>
<wgt id='1281'> +1.3211622e-12 </wgt>
<wgt id='1282'> +1.3203748e-12 </wgt>
<wgt id='1283'> +1.3134662e-12 </wgt>
<wgt id='1284'> +1.3163325e-12 </wgt>
<wgt id='1285'> +1.3185205e-12 </wgt>
<wgt id='1286'> +1.3222816e-12 </wgt>
<wgt id='1287'> +1.3235654e-12 </wgt>
<wgt id='1288'> +1.3246429e-12 </wgt>
<wgt id='1289'> +1.4388398e-12 </wgt>
<wgt id='1290'> +1.4415415e-12 </wgt>
<wgt id='1291'> +1.4359066e-12 </wgt>
<wgt id='1292'> +1.4397683e-12 </wgt>
<wgt id='1293'> +1.4381767e-12 </wgt>
<wgt id='1294'> +1.4230395e-12 </wgt>
<wgt id='1295'> +1.4541001e-12 </wgt>
<wgt id='1296'> +1.4428931e-12 </wgt>
<wgt id='1297'> +1.4336989e-12 </wgt>
<wgt id='1298'> +1.4455207e-12 </wgt>
<wgt id='1299'> +1.4304326e-12 </wgt>
<wgt id='1300'> +1.4419910e-12 </wgt>
<wgt id='1301'> +1.4325332e-12 </wgt>
<wgt id='1302'> +1.4346591e-12 </wgt>
<wgt id='1303'> +1.4446624e-12 </wgt>
<wgt id='1304'> +1.4374916e-12 </wgt>
<wgt id='1305'> +1.4397364e-12 </wgt>
<wgt id='1306'> +1.4398173e-12 </wgt>
<wgt id='1307'> +1.4375694e-12 </wgt>
<wgt id='1308'> +1.4310897e-12 </wgt>
<wgt id='1309'> +1.4447563e-12 </wgt>
<wgt id='1310'> +1.4374590e-12 </wgt>
<wgt id='1311'> +1.4405008e-12 </wgt>
<wgt id='1312'> +1.4476529e-12 </wgt>
<wgt id='1313'> +1.4305284e-12 </wgt>
<wgt id='1314'> +1.4207504e-12 </wgt>
<wgt id='1315'> +1.4551073e-12 </wgt>
<wgt id='1316'> +1.4475350e-12 </wgt>
<wgt id='1317'> +1.4390208e-12 </wgt>
<wgt id='1318'> +1.4490455e-12 </wgt>
<wgt id='1319'> +1.4256820e-12 </wgt>
<wgt id='1320'> +1.4528884e-12 </wgt>
<wgt id='1321'> +1.4262231e-12 </wgt>
<wgt id='1322'> +1.4384722e-12 </wgt>
<wgt id='1323'> +1.4398865e-12 </wgt>
<wgt id='1324'> +1.4353575e-12 </wgt>
<wgt id='1325'> +1.4493157e-12 </wgt>
<wgt id='1326'> +1.4377097e-12 </wgt>
<wgt id='1327'> +1.4425698e-12 </wgt>
<wgt id='1328'> +1.4383558e-12 </wgt>
<wgt id='1329'> +1.4388609e-12 </wgt>
<wgt id='1330'> +1.4465498e-12 </wgt>
<wgt id='1331'> +1.4334210e-12 </wgt>
<wgt id='1332'> +1.4505280e-12 </wgt>
<wgt id='1333'> +1.4426567e-12 </wgt>
<wgt id='1334'> +1.4368846e-12 </wgt>
<wgt id='1335'> +1.4449256e-12 </wgt>
<wgt id='1336'> +1.4412306e-12 </wgt>
<wgt id='1337'> +1.4465404e-12 </wgt>
<wgt id='1338'> +1.4380577e-12 </wgt>
<wgt id='1339'> +1.4397372e-12 </wgt>
<wgt id='1340'> +1.4042348e-12 </wgt>
<wgt id='1341'> +1.4067446e-12 </wgt>
<wgt id='1342'> +1.4015333e-12 </wgt>
<wgt id='1343'> +1.4052423e-12 </wgt>
<wgt id='1344'> +1.4035543e-12 </wgt>
<wgt id='1345'> +1.3878406e-12 </wgt>
<wgt id='1346'> +1.4194308e-12 </wgt>
<wgt id='1347'> +1.4090863e-12 </wgt>
<wgt id='1348'> +1.3987042e-12 </wgt>
<wgt id='1349'> +1.4104447e-12 </wgt>
<wgt id='1350'> +1.3981209e-12 </wgt>
<wgt id='1351'> +1.4071585e-12 </wgt>
<wgt id='1352'> +1.3978568e-12 </wgt>
<wgt id='1353'> +1.3990821e-12 </wgt>
<wgt id='1354'> +1.4134356e-12 </wgt>
<wgt id='1355'> +1.4038250e-12 </wgt>
<wgt id='1356'> +1.4044574e-12 </wgt>
<wgt id='1357'> +1.4038246e-12 </wgt>
<wgt id='1358'> +1.4044758e-12 </wgt>
<wgt id='1359'> +1.3965934e-12 </wgt>
<wgt id='1360'> +1.4108384e-12 </wgt>
<wgt id='1361'> +1.4037717e-12 </wgt>
<wgt id='1362'> +1.4050462e-12 </wgt>
<wgt id='1363'> +1.4194554e-12 </wgt>
<wgt id='1364'> +1.3948026e-12 </wgt>
<wgt id='1365'> +1.4123590e-12 </wgt>
<wgt id='1366'> +1.3889047e-12 </wgt>
<wgt id='1367'> +1.4128252e-12 </wgt>
<wgt id='1368'> +1.4033925e-12 </wgt>
<wgt id='1369'> +1.4126104e-12 </wgt>
<wgt id='1370'> +1.3937286e-12 </wgt>
<wgt id='1371'> +1.4159063e-12 </wgt>
<wgt id='1372'> +1.3898491e-12 </wgt>
<wgt id='1373'> +1.4009914e-12 </wgt>
<wgt id='1374'> +1.4077883e-12 </wgt>
<wgt id='1375'> +1.4008817e-12 </wgt>
<wgt id='1376'> +1.4147877e-12 </wgt>
<wgt id='1377'> +1.4029134e-12 </wgt>
<wgt id='1378'> +1.4082741e-12 </wgt>
<wgt id='1379'> +1.4039263e-12 </wgt>
<wgt id='1380'> +1.4040669e-12 </wgt>
<wgt id='1381'> +1.4121796e-12 </wgt>
<wgt id='1382'> +1.3988498e-12 </wgt>
<wgt id='1383'> +1.4141835e-12 </wgt>
<wgt id='1384'> +1.4091357e-12 </wgt>
<wgt id='1385'> +1.4025563e-12 </wgt>
<wgt id='1386'> +1.4090928e-12 </wgt>
<wgt id='1387'> +1.4062780e-12 </wgt>
<wgt id='1388'> +1.4119642e-12 </wgt>
<wgt id='1389'> +1.4033053e-12 </wgt>
<wgt id='1390'> +1.4056638e-12 </wgt>
<wgt id='1391'> +1.3825129e-12 </wgt>
<wgt id='1392'> +1.3337589e-12 </wgt>
<wgt id='1393'> +1.3504502e-12 </wgt>
<wgt id='1394'> +1.3668563e-12 </wgt>
<wgt id='1395'> +1.3994174e-12 </wgt>
<wgt id='1396'> +1.3831982e-12 </wgt>
<wgt id='1397'> +1.3613250e-12 </wgt>
<wgt id='1398'> +1.3646833e-12 </wgt>
<wgt id='1399'> +1.3682589e-12 </wgt>
<wgt id='1400'> +1.3727255e-12 </wgt>
<wgt id='1401'> +1.3778970e-12 </wgt>
<wgt id='1402'> +1.3883429e-12 </wgt>
<wgt id='1403'> +1.3939945e-12 </wgt>
<wgt id='1404'> +1.3997517e-12 </wgt>
<wgt id='1405'> +1.3831982e-12 </wgt>
<wgt id='1406'> +1.3787402e-12 </wgt>
<wgt id='1407'> +1.3810394e-12 </wgt>
<wgt id='1408'> +1.3851446e-12 </wgt>
<wgt id='1409'> +1.3866742e-12 </wgt>
<wgt id='1410'> +1.3008000e-12 </wgt>
<wgt id='1411'> +1.3062943e-12 </wgt>
<wgt id='1412'> +1.2937041e-12 </wgt>
<wgt id='1413'> +1.2926277e-12 </wgt>
<wgt id='1414'> +1.3089458e-12 </wgt>
<wgt id='1415'> +1.2981708e-12 </wgt>
<wgt id='1416'> +1.3018597e-12 </wgt>
<wgt id='1417'> +1.2961655e-12 </wgt>
<wgt id='1418'> +1.3053888e-12 </wgt>
<wgt id='1419'> +1.3024097e-12 </wgt>
<wgt id='1420'> +1.2992414e-12 </wgt>
<wgt id='1421'> +1.2880573e-12 </wgt>
<wgt id='1422'> +1.3062036e-12 </wgt>
<wgt id='1423'> +1.2993685e-12 </wgt>
<wgt id='1424'> +1.3025475e-12 </wgt>
<wgt id='1425'> +1.2930646e-12 </wgt>
<wgt id='1426'> +1.3091250e-12 </wgt>
<wgt id='1427'> +1.2842282e-12 </wgt>
<wgt id='1428'> +1.3096715e-12 </wgt>
<wgt id='1429'> +1.3047723e-12 </wgt>
<wgt id='1430'> +1.2954817e-12 </wgt>
<wgt id='1431'> +1.3014224e-12 </wgt>
<wgt id='1432'> +1.3002986e-12 </wgt>
<wgt id='1433'> +1.2884018e-12 </wgt>
<wgt id='1434'> +1.3102207e-12 </wgt>
<wgt id='1435'> +1.2932528e-12 </wgt>
<wgt id='1436'> +1.3199552e-12 </wgt>
<wgt id='1437'> +1.3085986e-12 </wgt>
<wgt id='1438'> +1.3028252e-12 </wgt>
<wgt id='1439'> +1.2948547e-12 </wgt>
<wgt id='1440'> +1.3105872e-12 </wgt>
<wgt id='1441'> +1.3044598e-12 </wgt>
<wgt id='1442'> +1.2935741e-12 </wgt>
<wgt id='1443'> +1.2976268e-12 </wgt>
<wgt id='1444'> +1.3099373e-12 </wgt>
<wgt id='1445'> +1.3162046e-12 </wgt>
<wgt id='1446'> +1.2956859e-12 </wgt>
<wgt id='1447'> +1.3018413e-12 </wgt>
<wgt id='1448'> +1.3040482e-12 </wgt>
<wgt id='1449'> +1.3009728e-12 </wgt>
<wgt id='1450'> +1.3000000e-12 </wgt>
<wgt id='1451'> +1.2990494e-12 </wgt>
<wgt id='1452'> +1.3083367e-12 </wgt>
<wgt id='1453'> +1.3010727e-12 </wgt>
<wgt id='1454'> +1.2983166e-12 </wgt>
<wgt id='1455'> +1.3103795e-12 </wgt>
<wgt id='1456'> +1.3080856e-12 </wgt>
<wgt id='1457'> +1.3075800e-12 </wgt>
<wgt id='1458'> +1.2995211e-12 </wgt>
<wgt id='1459'> +1.3061675e-12 </wgt>
<wgt id='1460'> +1.3104956e-12 </wgt>
<wgt id='1461'> +1.3008000e-12 </wgt>
<wgt id='1462'> +1.2884573e-12 </wgt>
<wgt id='1463'> +1.3087855e-12 </wgt>
<wgt id='1464'> +1.2982379e-12 </wgt>
<wgt id='1465'> +1.2731455e-12 </wgt>
<wgt id='1466'> +1.2773716e-12 </wgt>
<wgt id='1467'> +1.2820822e-12 </wgt>
<wgt id='1468'> +1.2888301e-12 </wgt>
<wgt id='1469'> +1.2930088e-12 </wgt>
<wgt id='1470'> +1.3037529e-12 </wgt>
<wgt id='1471'> +1.3088093e-12 </wgt>
<wgt id='1472'> +1.3141254e-12 </wgt>
<wgt id='1473'> +1.2982379e-12 </wgt>
<wgt id='1474'> +1.2945510e-12 </wgt>
<wgt id='1475'> +1.2969264e-12 </wgt>
<wgt id='1476'> +1.2995898e-12 </wgt>
<wgt id='1477'> +1.3007678e-12 </wgt>
<wgt id='1478'> +1.3498220e-12 </wgt>
<wgt id='1479'> +1.3492251e-12 </wgt>
<wgt id='1480'> +1.3350679e-12 </wgt>
<wgt id='1481'> +1.3707300e-12 </wgt>
<wgt id='1482'> +1.3506063e-12 </wgt>
<wgt id='1483'> +1.3341560e-12 </wgt>
<wgt id='1484'> +1.3415864e-12 </wgt>
<wgt id='1485'> +1.3557960e-12 </wgt>
<wgt id='1486'> +1.3496343e-12 </wgt>
<wgt id='1487'> +1.3598163e-12 </wgt>
<wgt id='1488'> +1.3472540e-12 </wgt>
<wgt id='1489'> +1.3521723e-12 </wgt>
<wgt id='1490'> +1.3459940e-12 </wgt>
<wgt id='1491'> +1.3554094e-12 </wgt>
<wgt id='1492'> +1.3515266e-12 </wgt>
<wgt id='1493'> +1.3314577e-12 </wgt>
<wgt id='1494'> +1.3469408e-12 </wgt>
<wgt id='1495'> +1.3351190e-12 </wgt>
<wgt id='1496'> +1.3502240e-12 </wgt>
<wgt id='1497'> +1.3509710e-12 </wgt>
<wgt id='1498'> +1.3496527e-12 </wgt>
<wgt id='1499'> +1.3526202e-12 </wgt>
<wgt id='1500'> +1.3496862e-12 </wgt>
<wgt id='1501'> +1.3503749e-12 </wgt>
<wgt id='1502'> +1.3497947e-12 </wgt>
<wgt id='1503'> +1.3540411e-12 </wgt>
<wgt id='1504'> +1.3461561e-12 </wgt>
<wgt id='1505'> +1.3524256e-12 </wgt>
<wgt id='1506'> +1.3509206e-12 </wgt>
<wgt id='1507'> +1.3494886e-12 </wgt>
<wgt id='1508'> +1.3536604e-12 </wgt>
<wgt id='1509'> +1.3197841e-12 </wgt>
<wgt id='1510'> +1.3239622e-12 </wgt>
<wgt id='1511'> +1.3035990e-12 </wgt>
<wgt id='1512'> +1.3087927e-12 </wgt>
<wgt id='1513'> +1.3189440e-12 </wgt>
<wgt id='1514'> +1.3250649e-12 </wgt>
<wgt id='1515'> +1.3230325e-12 </wgt>
<wgt id='1516'> +1.3235349e-12 </wgt>
<wgt id='1517'> +1.3210042e-12 </wgt>
<wgt id='1518'> +1.3197466e-12 </wgt>
<wgt id='1519'> +1.3196374e-12 </wgt>
<wgt id='1520'> +1.3203124e-12 </wgt>
<wgt id='1521'> +1.3203496e-12 </wgt>
<wgt id='1522'> +1.3217330e-12 </wgt>
<wgt id='1523'> +1.3221953e-12 </wgt>
<wgt id='1524'> +1.3187374e-12 </wgt>
<wgt id='1525'> +1.3208354e-12 </wgt>
<wgt id='1526'> +1.3200848e-12 </wgt>
<wgt id='1527'> +1.3190399e-12 </wgt>
<wgt id='1528'> +1.3203707e-12 </wgt>
<wgt id='1529'> +1.3199559e-12 </wgt>
<wgt id='1530'> +1.3215810e-12 </wgt>
<wgt id='1531'> +1.3212165e-12 </wgt>
<wgt id='1532'> +1.3152771e-12 </wgt>
<wgt id='1533'> +1.3206074e-12 </wgt>
<wgt id='1534'> +1.3197770e-12 </wgt>
<wgt id='1535'> +1.3141297e-12 </wgt>
<wgt id='1536'> +1.3217562e-12 </wgt>
<wgt id='1537'> +1.3214128e-12 </wgt>
<wgt id='1538'> +1.3100418e-12 </wgt>
<wgt id='1539'> +1.3220092e-12 </wgt>
<wgt id='1540'> +1.3196684e-12 </wgt>
<wgt id='1541'> +1.3176890e-12 </wgt>
<wgt id='1542'> +1.3178802e-12 </wgt>
<wgt id='1543'> +1.3203870e-12 </wgt>
<wgt id='1544'> +1.3193638e-12 </wgt>
<wgt id='1545'> +1.3177957e-12 </wgt>
<wgt id='1546'> +1.3183617e-12 </wgt>
<wgt id='1547'> +1.3186126e-12 </wgt>
<wgt id='1548'> +1.3204287e-12 </wgt>
<wgt id='1549'> +1.3181898e-12 </wgt>
<wgt id='1550'> +1.3197584e-12 </wgt>
<wgt id='1551'> +1.3208766e-12 </wgt>
<wgt id='1552'> +1.3212340e-12 </wgt>
<wgt id='1553'> +1.3193990e-12 </wgt>
<wgt id='1554'> +1.3184866e-12 </wgt>
<wgt id='1555'> +1.3220641e-12 </wgt>
<wgt id='1556'> +1.3234695e-12 </wgt>
<wgt id='1557'> +1.3193625e-12 </wgt>
<wgt id='1558'> +1.3189141e-12 </wgt>
<wgt id='1559'> +1.3168015e-12 </wgt>
<wgt id='1560'> +1.3194380e-12 </wgt>
<wgt id='1561'> +1.3190603e-12 </wgt>
<wgt id='1562'> +1.3196879e-12 </wgt>
<wgt id='1563'> +1.3194158e-12 </wgt>
<wgt id='1564'> +1.3190125e-12 </wgt>
<wgt id='1565'> +1.3203858e-12 </wgt>
<wgt id='1566'> +1.3202190e-12 </wgt>
<wgt id='1567'> +1.3207261e-12 </wgt>
<wgt id='1568'> +1.3185841e-12 </wgt>
<wgt id='1569'> +1.3221354e-12 </wgt>
<wgt id='1570'> +1.3204466e-12 </wgt>
<wgt id='1571'> +1.3203545e-12 </wgt>
<wgt id='1572'> +1.3205443e-12 </wgt>
<wgt id='1573'> +1.3201158e-12 </wgt>
<wgt id='1574'> +1.3208304e-12 </wgt>
<wgt id='1575'> +1.3185756e-12 </wgt>
<wgt id='1576'> +1.3198863e-12 </wgt>
<wgt id='1577'> +1.3202463e-12 </wgt>
<wgt id='1578'> +1.3214548e-12 </wgt>
<wgt id='1579'> +1.3187472e-12 </wgt>
<wgt id='1580'> +1.3190705e-12 </wgt>
<wgt id='1581'> +1.3199605e-12 </wgt>
<wgt id='1582'> +1.3214998e-12 </wgt>
<wgt id='1583'> +1.3191007e-12 </wgt>
<wgt id='1584'> +1.3208039e-12 </wgt>
<wgt id='1585'> +1.3204168e-12 </wgt>
<wgt id='1586'> +1.3196476e-12 </wgt>
<wgt id='1587'> +1.3193581e-12 </wgt>
<wgt id='1588'> +1.3190564e-12 </wgt>
<wgt id='1589'> +1.3205566e-12 </wgt>
<wgt id='1590'> +1.3197948e-12 </wgt>
<wgt id='1591'> +1.3200183e-12 </wgt>
<wgt id='1592'> +1.3190967e-12 </wgt>
<wgt id='1593'> +1.3209499e-12 </wgt>
<wgt id='1594'> +1.3195738e-12 </wgt>
<wgt id='1595'> +1.3202340e-12 </wgt>
<wgt id='1596'> +1.3186232e-12 </wgt>
<wgt id='1597'> +1.3209464e-12 </wgt>
<wgt id='1598'> +1.3193218e-12 </wgt>
<wgt id='1599'> +1.3193038e-12 </wgt>
<wgt id='1600'> +1.3186178e-12 </wgt>
<wgt id='1601'> +1.3196842e-12 </wgt>
<wgt id='1602'> +1.3201409e-12 </wgt>
<wgt id='1603'> +1.3203233e-12 </wgt>
<wgt id='1604'> +1.3203355e-12 </wgt>
<wgt id='1605'> +1.3200328e-12 </wgt>
<wgt id='1606'> +1.3195549e-12 </wgt>
<wgt id='1607'> +1.3191671e-12 </wgt>
<wgt id='1608'> +1.3201851e-12 </wgt>
<wgt id='1609'> +1.3202704e-12 </wgt>
<wgt id='1610'> +1.3027984e-12 </wgt>
<wgt id='1611'> +1.3355537e-12 </wgt>
<wgt id='1612'> +1.5367922e-12 </wgt>
<wgt id='1613'> +1.5083821e-12 </wgt>
<wgt id='1614'> +1.4858078e-12 </wgt>
<wgt id='1615'> +1.5232602e-12 </wgt>
<wgt id='1616'> +1.4874581e-12 </wgt>
<wgt id='1617'> +1.5102756e-12 </wgt>
<wgt id='1618'> +1.5508006e-12 </wgt>
<wgt id='1619'> +1.5202786e-12 </wgt>
<wgt id='1620'> +1.5115723e-12 </wgt>
<wgt id='1621'> +1.5450564e-12 </wgt>
<wgt id='1622'> +1.5492332e-12 </wgt>
<wgt id='1623'> +1.5239862e-12 </wgt>
<wgt id='1624'> +1.5694155e-12 </wgt>
<wgt id='1625'> +1.4879969e-12 </wgt>
<wgt id='1626'> +1.5112152e-12 </wgt>
<wgt id='1627'> +1.5615321e-12 </wgt>
<wgt id='1628'> +1.4847517e-12 </wgt>
<wgt id='1629'> +1.5652086e-12 </wgt>
<wgt id='1630'> +1.4954554e-12 </wgt>
<wgt id='1631'> +1.5155433e-12 </wgt>
<wgt id='1632'> +1.4664264e-12 </wgt>
<wgt id='1633'> +1.4778004e-12 </wgt>
<wgt id='1634'> +1.5315492e-12 </wgt>
<wgt id='1635'> +1.5657739e-12 </wgt>
<wgt id='1636'> +1.5527994e-12 </wgt>
<wgt id='1637'> +1.5691315e-12 </wgt>
<wgt id='1638'> +1.5528960e-12 </wgt>
<wgt id='1639'> +1.5093394e-12 </wgt>
<wgt id='1640'> +1.5381851e-12 </wgt>
<wgt id='1641'> +1.5316417e-12 </wgt>
<wgt id='1642'> +1.4833909e-12 </wgt>
<wgt id='1643'> +1.5095286e-12 </wgt>
<wgt id='1644'> +1.5633299e-12 </wgt>
<wgt id='1645'> +1.5157030e-12 </wgt>
<wgt id='1646'> +1.5370003e-12 </wgt>
<wgt id='1647'> +1.5609961e-12 </wgt>
<wgt id='1648'> +1.5428118e-12 </wgt>
<wgt id='1649'> +1.6115152e-12 </wgt>
<wgt id='1650'> +1.5069288e-12 </wgt>
<wgt id='1651'> +1.5469943e-12 </wgt>
<wgt id='1652'> +1.4992561e-12 </wgt>
<wgt id='1653'> +1.5514592e-12 </wgt>
<wgt id='1654'> +1.5414010e-12 </wgt>
<wgt id='1655'> +1.5742183e-12 </wgt>
<wgt id='1656'> +1.5255681e-12 </wgt>
<wgt id='1657'> +1.5453234e-12 </wgt>
<wgt id='1658'> +1.5038850e-12 </wgt>
<wgt id='1659'> +1.5694155e-12 </wgt>
<wgt id='1660'> +1.5580838e-12 </wgt>
<wgt id='1661'> +1.5629048e-12 </wgt>
<wgt id='1662'> +1.6064358e-12 </wgt>
<wgt id='1663'> +1.5367562e-12 </wgt>
<wgt id='1664'> +1.5177315e-12 </wgt>
<wgt id='1665'> +1.5062476e-12 </wgt>
<wgt id='1666'> +1.5629812e-12 </wgt>
<wgt id='1667'> +1.5278169e-12 </wgt>
<wgt id='1668'> +1.5570595e-12 </wgt>
<wgt id='1669'> +1.5567190e-12 </wgt>
<wgt id='1670'> +1.5188352e-12 </wgt>
<wgt id='1671'> +1.5204397e-12 </wgt>
<wgt id='1672'> +1.5630605e-12 </wgt>
<wgt id='1673'> +1.5336318e-12 </wgt>
<wgt id='1674'> +1.5034495e-12 </wgt>
<wgt id='1675'> +1.5346871e-12 </wgt>
<wgt id='1676'> +1.5205501e-12 </wgt>
<wgt id='1677'> +1.5455099e-12 </wgt>
<wgt id='1678'> +1.5150843e-12 </wgt>
<wgt id='1679'> +1.5377137e-12 </wgt>
<wgt id='1680'> +1.5887349e-12 </wgt>
<wgt id='1681'> +1.5716398e-12 </wgt>
<wgt id='1682'> +1.5288377e-12 </wgt>
<wgt id='1683'> +1.5338741e-12 </wgt>
<wgt id='1684'> +1.5852764e-12 </wgt>
<wgt id='1685'> +1.5339296e-12 </wgt>
<wgt id='1686'> +1.5260999e-12 </wgt>
<wgt id='1687'> +1.5547539e-12 </wgt>
<wgt id='1688'> +1.5184070e-12 </wgt>
<wgt id='1689'> +1.5986325e-12 </wgt>
<wgt id='1690'> +1.5346590e-12 </wgt>
<wgt id='1691'> +1.4911566e-12 </wgt>
<wgt id='1692'> +1.5728485e-12 </wgt>
<wgt id='1693'> +1.5329086e-12 </wgt>
<wgt id='1694'> +1.5245882e-12 </wgt>
<wgt id='1695'> +1.5514148e-12 </wgt>
<wgt id='1696'> +1.5315274e-12 </wgt>
<wgt id='1697'> +1.5329803e-12 </wgt>
<wgt id='1698'> +1.5507082e-12 </wgt>
<wgt id='1699'> +1.5496451e-12 </wgt>
<wgt id='1700'> +1.5155334e-12 </wgt>
<wgt id='1701'> +1.6002119e-12 </wgt>
<wgt id='1702'> +1.4969502e-12 </wgt>
<wgt id='1703'> +1.5182302e-12 </wgt>
<wgt id='1704'> +1.5143641e-12 </wgt>
<wgt id='1705'> +1.4688293e-12 </wgt>
<wgt id='1706'> +1.5817300e-12 </wgt>
<wgt id='1707'> +1.5529734e-12 </wgt>
<wgt id='1708'> +1.6013604e-12 </wgt>
<wgt id='1709'> +1.5893183e-12 </wgt>
<wgt id='1710'> +1.5270113e-12 </wgt>
<wgt id='1711'> +1.5367600e-12 </wgt>
<wgt id='1712'> +1.5840857e-12 </wgt>
<wgt id='1713'> +1.3102533e-12 </wgt>
<wgt id='1714'> +1.3066632e-12 </wgt>
<wgt id='1715'> +1.2817039e-12 </wgt>
<wgt id='1716'> +1.3383903e-12 </wgt>
<wgt id='1717'> +1.3214724e-12 </wgt>
<wgt id='1718'> +1.3341464e-12 </wgt>
<wgt id='1719'> +1.3286600e-12 </wgt>
<wgt id='1720'> +1.2702239e-12 </wgt>
<wgt id='1721'> +1.2819047e-12 </wgt>
<wgt id='1722'> +1.3019727e-12 </wgt>
<wgt id='1723'> +1.3553253e-12 </wgt>
<wgt id='1724'> +1.3151460e-12 </wgt>
<wgt id='1725'> +1.3122248e-12 </wgt>
<wgt id='1726'> +1.3121136e-12 </wgt>
<wgt id='1727'> +1.3566461e-12 </wgt>
<wgt id='1728'> +1.2996525e-12 </wgt>
<wgt id='1729'> +1.2574994e-12 </wgt>
<wgt id='1730'> +1.2916420e-12 </wgt>
<wgt id='1731'> +1.2433925e-12 </wgt>
<wgt id='1732'> +1.3146256e-12 </wgt>
<wgt id='1733'> +1.2480134e-12 </wgt>
<wgt id='1734'> +1.3765680e-12 </wgt>
<wgt id='1735'> +1.2892163e-12 </wgt>
<wgt id='1736'> +1.3360680e-12 </wgt>
<wgt id='1737'> +1.3554272e-12 </wgt>
<wgt id='1738'> +1.3007992e-12 </wgt>
<wgt id='1739'> +1.3124021e-12 </wgt>
<wgt id='1740'> +1.2323538e-12 </wgt>
<wgt id='1741'> +1.3550839e-12 </wgt>
<wgt id='1742'> +1.2920112e-12 </wgt>
<wgt id='1743'> +1.2821997e-12 </wgt>
<wgt id='1744'> +1.3288658e-12 </wgt>
<wgt id='1745'> +1.3317882e-12 </wgt>
<wgt id='1746'> +1.2887339e-12 </wgt>
<wgt id='1747'> +1.3664505e-12 </wgt>
<wgt id='1748'> +1.2990051e-12 </wgt>
<wgt id='1749'> +1.2976261e-12 </wgt>
<wgt id='1750'> +1.2856556e-12 </wgt>
<wgt id='1751'> +1.2898494e-12 </wgt>
<wgt id='1752'> +1.3039016e-12 </wgt>
<wgt id='1753'> +1.3241562e-12 </wgt>
<wgt id='1754'> +1.3322187e-12 </wgt>
<wgt id='1755'> +1.3195920e-12 </wgt>
<wgt id='1756'> +1.3326412e-12 </wgt>
<wgt id='1757'> +1.3313151e-12 </wgt>
<wgt id='1758'> +1.3655079e-12 </wgt>
<wgt id='1759'> +1.3344960e-12 </wgt>
<wgt id='1760'> +1.3034771e-12 </wgt>
<wgt id='1761'> +1.3134587e-12 </wgt>
<wgt id='1762'> +1.2845046e-12 </wgt>
<wgt id='1763'> +1.3315892e-12 </wgt>
<wgt id='1764'> +1.3458031e-12 </wgt>
<wgt id='1765'> +1.2953873e-12 </wgt>
<wgt id='1766'> +1.3450541e-12 </wgt>
<wgt id='1767'> +1.3153714e-12 </wgt>
<wgt id='1768'> +1.3277766e-12 </wgt>
<wgt id='1769'> +1.3243970e-12 </wgt>
<wgt id='1770'> +1.2996573e-12 </wgt>
<wgt id='1771'> +1.3600709e-12 </wgt>
<wgt id='1772'> +1.3043023e-12 </wgt>
<wgt id='1773'> +1.3118361e-12 </wgt>
<wgt id='1774'> +1.2898690e-12 </wgt>
<wgt id='1775'> +1.3077050e-12 </wgt>
<wgt id='1776'> +1.3621543e-12 </wgt>
<wgt id='1777'> +1.2529926e-12 </wgt>
<wgt id='1778'> +1.3121224e-12 </wgt>
<wgt id='1779'> +1.3000513e-12 </wgt>
<wgt id='1780'> +1.3069717e-12 </wgt>
<wgt id='1781'> +1.3357296e-12 </wgt>
<wgt id='1782'> +1.2982222e-12 </wgt>
<wgt id='1783'> +1.3191773e-12 </wgt>
<wgt id='1784'> +1.3048494e-12 </wgt>
<wgt id='1785'> +1.3143493e-12 </wgt>
<wgt id='1786'> +1.3048996e-12 </wgt>
<wgt id='1787'> +1.3884974e-12 </wgt>
<wgt id='1788'> +1.3012695e-12 </wgt>
<wgt id='1789'> +1.3817502e-12 </wgt>
<wgt id='1790'> +1.3208807e-12 </wgt>
<wgt id='1791'> +1.2968703e-12 </wgt>
<wgt id='1792'> +1.2855916e-12 </wgt>
<wgt id='1793'> +1.2922448e-12 </wgt>
<wgt id='1794'> +1.3487952e-12 </wgt>
<wgt id='1795'> +1.3201994e-12 </wgt>
<wgt id='1796'> +1.2791926e-12 </wgt>
<wgt id='1797'> +1.3166371e-12 </wgt>
<wgt id='1798'> +1.2989416e-12 </wgt>
<wgt id='1799'> +1.2967532e-12 </wgt>
<wgt id='1800'> +1.3250352e-12 </wgt>
<wgt id='1801'> +1.3081475e-12 </wgt>
<wgt id='1802'> +1.2828102e-12 </wgt>
<wgt id='1803'> +1.3252868e-12 </wgt>
<wgt id='1804'> +1.3182412e-12 </wgt>
<wgt id='1805'> +1.2753428e-12 </wgt>
<wgt id='1806'> +1.2842731e-12 </wgt>
<wgt id='1807'> +1.2957068e-12 </wgt>
<wgt id='1808'> +1.2757196e-12 </wgt>
<wgt id='1809'> +1.2947045e-12 </wgt>
<wgt id='1810'> +1.2843862e-12 </wgt>
<wgt id='1811'> +1.3152054e-12 </wgt>
<wgt id='1812'> +1.2832454e-12 </wgt>
<wgt id='1813'> +1.2321830e-12 </wgt>
<wgt id='1814'> +1.6424635e-12 </wgt>
<wgt id='1815'> +1.9955770e-12 </wgt>
<wgt id='1816'> +1.3102533e-12 </wgt>
<wgt id='1817'> +1.3066632e-12 </wgt>
<wgt id='1818'> +1.2817039e-12 </wgt>
<wgt id='1819'> +1.3383903e-12 </wgt>
<wgt id='1820'> +1.3214724e-12 </wgt>
<wgt id='1821'> +1.3341464e-12 </wgt>
<wgt id='1822'> +1.3286600e-12 </wgt>
<wgt id='1823'> +1.2702239e-12 </wgt>
<wgt id='1824'> +1.2819047e-12 </wgt>
<wgt id='1825'> +1.3019727e-12 </wgt>
<wgt id='1826'> +1.3553253e-12 </wgt>
<wgt id='1827'> +1.3151460e-12 </wgt>
<wgt id='1828'> +1.3122248e-12 </wgt>
<wgt id='1829'> +1.3121136e-12 </wgt>
<wgt id='1830'> +1.3566461e-12 </wgt>
<wgt id='1831'> +1.2996525e-12 </wgt>
<wgt id='1832'> +1.2574994e-12 </wgt>
<wgt id='1833'> +1.2916420e-12 </wgt>
<wgt id='1834'> +1.2433925e-12 </wgt>
<wgt id='1835'> +1.3146256e-12 </wgt>
<wgt id='1836'> +1.2480134e-12 </wgt>
<wgt id='1837'> +1.3765680e-12 </wgt>
<wgt id='1838'> +1.2892163e-12 </wgt>
<wgt id='1839'> +1.3360680e-12 </wgt>
<wgt id='1840'> +1.3554272e-12 </wgt>
<wgt id='1841'> +1.3007992e-12 </wgt>
<wgt id='1842'> +1.3124021e-12 </wgt>
<wgt id='1843'> +1.2323538e-12 </wgt>
<wgt id='1844'> +1.3550839e-12 </wgt>
<wgt id='1845'> +1.2920112e-12 </wgt>
<wgt id='1846'> +1.2821997e-12 </wgt>
<wgt id='1847'> +1.3288658e-12 </wgt>
<wgt id='1848'> +1.3317882e-12 </wgt>
<wgt id='1849'> +1.2887339e-12 </wgt>
<wgt id='1850'> +1.3664505e-12 </wgt>
<wgt id='1851'> +1.2990051e-12 </wgt>
<wgt id='1852'> +1.2976261e-12 </wgt>
<wgt id='1853'> +1.2856556e-12 </wgt>
<wgt id='1854'> +1.2898494e-12 </wgt>
<wgt id='1855'> +1.3039016e-12 </wgt>
<wgt id='1856'> +1.3241562e-12 </wgt>
<wgt id='1857'> +1.3322187e-12 </wgt>
<wgt id='1858'> +1.3195920e-12 </wgt>
<wgt id='1859'> +1.3326412e-12 </wgt>
<wgt id='1860'> +1.3313151e-12 </wgt>
<wgt id='1861'> +1.3655079e-12 </wgt>
<wgt id='1862'> +1.3344960e-12 </wgt>
<wgt id='1863'> +1.3034771e-12 </wgt>
<wgt id='1864'> +1.3134587e-12 </wgt>
<wgt id='1865'> +1.2845046e-12 </wgt>
<wgt id='1866'> +1.3315892e-12 </wgt>
<wgt id='1867'> +1.3458031e-12 </wgt>
<wgt id='1868'> +1.2953873e-12 </wgt>
<wgt id='1869'> +1.3450541e-12 </wgt>
<wgt id='1870'> +1.3153714e-12 </wgt>
<wgt id='1871'> +1.3277766e-12 </wgt>
<wgt id='1872'> +1.3243970e-12 </wgt>
<wgt id='1873'> +1.2996573e-12 </wgt>
<wgt id='1874'> +1.3600709e-12 </wgt>
<wgt id='1875'> +1.3043023e-12 </wgt>
<wgt id='1876'> +1.3118361e-12 </wgt>
<wgt id='1877'> +1.2898690e-12 </wgt>
<wgt id='1878'> +1.3077050e-12 </wgt>
<wgt id='1879'> +1.3621543e-12 </wgt>
<wgt id='1880'> +1.2529926e-12 </wgt>
<wgt id='1881'> +1.3121224e-12 </wgt>
<wgt id='1882'> +1.3000513e-12 </wgt>
<wgt id='1883'> +1.3069717e-12 </wgt>
<wgt id='1884'> +1.3357296e-12 </wgt>
<wgt id='1885'> +1.2982222e-12 </wgt>
<wgt id='1886'> +1.3191773e-12 </wgt>
<wgt id='1887'> +1.3048494e-12 </wgt>
<wgt id='1888'> +1.3143493e-12 </wgt>
<wgt id='1889'> +1.3048996e-12 </wgt>
<wgt id='1890'> +1.3884974e-12 </wgt>
<wgt id='1891'> +1.3012695e-12 </wgt>
<wgt id='1892'> +1.3817502e-12 </wgt>
<wgt id='1893'> +1.3208807e-12 </wgt>
<wgt id='1894'> +1.2968703e-12 </wgt>
<wgt id='1895'> +1.2855916e-12 </wgt>
<wgt id='1896'> +1.2922448e-12 </wgt>
<wgt id='1897'> +1.3487952e-12 </wgt>
<wgt id='1898'> +1.3201994e-12 </wgt>
<wgt id='1899'> +1.2791926e-12 </wgt>
<wgt id='1900'> +1.3166371e-12 </wgt>
<wgt id='1901'> +1.2989416e-12 </wgt>
<wgt id='1902'> +1.2967532e-12 </wgt>
<wgt id='1903'> +1.3250352e-12 </wgt>
<wgt id='1904'> +1.3081475e-12 </wgt>
<wgt id='1905'> +1.2828102e-12 </wgt>
<wgt id='1906'> +1.3252868e-12 </wgt>
<wgt id='1907'> +1.3182412e-12 </wgt>
<wgt id='1908'> +1.2753428e-12 </wgt>
<wgt id='1909'> +1.2842731e-12 </wgt>
<wgt id='1910'> +1.2957068e-12 </wgt>
<wgt id='1911'> +1.2757196e-12 </wgt>
<wgt id='1912'> +1.2947045e-12 </wgt>
<wgt id='1913'> +1.2843862e-12 </wgt>
<wgt id='1914'> +1.3152054e-12 </wgt>
<wgt id='1915'> +1.2832454e-12 </wgt>
<wgt id='1916'> +1.2321830e-12 </wgt>
<wgt id='1917'> +1.3011335e-12 </wgt>
<wgt id='1918'> +1.3267011e-12 </wgt>
<wgt id='1919'> +1.2736569e-12 </wgt>
</rwgt>
</event>
<event>
 9      1 +1.5538000e-12 3.38257500e+01 7.81860800e-03 1.41453700e-01
        2 -1    0    0  502    0 -0.0000000000e+00 +0.0000000000e+00 +7.9276761850e+02 7.9276761850e+02 0.0000000000e+00 0.0000e+00 1.0000e+00
       21 -1    0    0  501  502 +0.0000000000e+00 -0.0000000000e+00 -1.4190146067e+00 1.4190146067e+00 0.0000000000e+00 0.0000e+00 1.0000e+00
     1023  2    1    2    0    0 +2.5085035266e+01 -1.7026340261e+01 +5.3151886392e+02 5.3259410830e+02 1.5000874725e+01 0.0000e+00 0.0000e+00
  1000023  2    3    3    0    0 +5.5070833325e+00 -6.3899825794e-01 +1.2184433917e+02 1.2209434289e+02 5.4999356054e+00 0.0000e+00 0.0000e+00
        2  1    1    2  501    0 -2.5085035266e+01 +1.7026340261e+01 +2.5982973998e+02 2.6159252481e+02 0.0000000000e+00 0.0000e+00 1.0000e+00
  1000022  1    4    4    0    0 +5.5011111832e+00 -5.2528752096e-01 +1.1286885404e+02 1.1311461605e+02 5.0000000000e+00 0.0000e+00 1.0000e+00
      -11  1    4    4    0    0 -4.6194654014e-02 -1.3627261684e-01 +2.5934518059e+00 2.5974404137e+00 5.1100000000e-04 0.0000e+00 1.0000e+00
       11  1    4    4    0    0 +5.2166803363e-02 +2.2561879870e-02 +6.3820333238e+00 6.3822864258e+00 5.1100000000e-04 0.0000e+00 -1.0000e+00
  1000022  1    3    3    0    0 +1.9577951933e+01 -1.6387342003e+01 +4.0967452475e+02 4.1049976541e+02 5.0000000000e+00 0.0000e+00 1.0000e+00
<mgrwt>
<rscale>  1 0.33825752E+02</rscale>
<asrwt>0</asrwt>
<pdfrwt beam="1">  1       21 0.21831057E-03 0.33825752E+02</pdfrwt>
<pdfrwt beam="2">  1        2 0.12196390E+00 0.33825752E+02</pdfrwt>
<totfact> 0.11253313E+07</totfact>
</mgrwt>
<rwgt>
<wgt id='1001'> +1.5538000e-12 </wgt>
<wgt id='1002'> +1.6181026e-12 </wgt>
<wgt id='1003'> +1.6209740e-12 </wgt>
<wgt id='1004'> +1.5456712e-12 </wgt>
<wgt id='1005'> +1.6243358e-12 </wgt>
<wgt id='1006'> +1.3640047e-12 </wgt>
<wgt id='1007'> +1.4404250e-12 </wgt>
<wgt id='1008'> +1.4441198e-12 </wgt>
<wgt id='1009'> +1.3548624e-12 </wgt>
<wgt id='1010'> +1.4485011e-12 </wgt>
<wgt id='1011'> +1.8079284e-12 </wgt>
<wgt id='1012'> +1.8479079e-12 </wgt>
<wgt id='1013'> +1.8492599e-12 </wgt>
<wgt id='1014'> +1.8020927e-12 </wgt>
<wgt id='1015'> +1.8507663e-12 </wgt>
<wgt id='1016'> +1.8510188e-12 </wgt>
<wgt id='1017'> +1.8562895e-12 </wgt>
<wgt id='1018'> +1.8559641e-12 </wgt>
<wgt id='1019'> +1.8492599e-12 </wgt>
<wgt id='1020'> +1.8554592e-12 </wgt>
<wgt id='1021'> +1.6249186e-12 </wgt>
<wgt id='1022'> +1.6524574e-12 </wgt>
<wgt id='1023'> +1.6534716e-12 </wgt>
<wgt id='1024'> +1.6209740e-12 </wgt>
<wgt id='1025'> +1.6546054e-12 </wgt>
<wgt id='1026'> +2.1537582e-12 </wgt>
<wgt id='1027'> +2.1199225e-12 </wgt>
<wgt id='1028'> +2.1173443e-12 </wgt>
<wgt id='1029'> +2.1560458e-12 </wgt>
<wgt id='1030'> +2.1141080e-12 </wgt>
<wgt id='1031'> +1.2198441e-12 </wgt>
<wgt id='1032'> +1.3483119e-12 </wgt>
<wgt id='1033'> +1.3548624e-12 </wgt>
<wgt id='1034'> +1.2050048e-12 </wgt>
<wgt id='1035'> +1.3626409e-12 </wgt>
<wgt id='1036'> +1.0708412e-12 </wgt>
<wgt id='1037'> +1.2002589e-12 </wgt>
<wgt id='1038'> +1.2070420e-12 </wgt>
<wgt id='1039'> +1.0562504e-12 </wgt>
<wgt id='1040'> +1.2151348e-12 </wgt>
<wgt id='1041'> +1.4193530e-12 </wgt>
<wgt id='1042'> +1.5398011e-12 </wgt>
<wgt id='1043'> +1.5456712e-12 </wgt>
<wgt id='1044'> +1.4049109e-12 </wgt>
<wgt id='1045'> +1.5525914e-12 </wgt>
<wgt id='1046'> +1.5538000e-12 </wgt>
<wgt id='1047'> +1.5530701e-12 </wgt>
<wgt id='1048'> +1.6234603e-12 </wgt>
<wgt id='1049'> +1.5128305e-12 </wgt>
<wgt id='1050'> +1.5195965e-12 </wgt>
<wgt id='1051'> +1.5053844e-12 </wgt>
<wgt id='1052'> +1.5171299e-12 </wgt>
<wgt id='1053'> +1.6205861e-12 </wgt>
<wgt id='1054'> +1.5895032e-12 </wgt>
<wgt id='1055'> +1.5289051e-12 </wgt>
<wgt id='1056'> +1.4754687e-12 </wgt>
<wgt id='1057'> +1.5383714e-12 </wgt>
<wgt id='1058'> +1.5139609e-12 </wgt>
<wgt id='1059'> +1.5635815e-12 </wgt>
<wgt id='1060'> +1.5725968e-12 </wgt>
<wgt id='1061'> +1.5816052e-12 </wgt>
<wgt id='1062'> +1.5326172e-12 </wgt>
<wgt id='1063'> +1.4924343e-12 </wgt>
<wgt id='1064'> +1.5496728e-12 </wgt>
<wgt id='1065'> +1.5957490e-12 </wgt>
<wgt id='1066'> +1.5581242e-12 </wgt>
<wgt id='1067'> +1.5780273e-12 </wgt>
<wgt id='1068'> +1.6048316e-12 </wgt>
<wgt id='1069'> +1.6212157e-12 </wgt>
<wgt id='1070'> +1.5411429e-12 </wgt>
<wgt id='1071'> +1.5714270e-12 </wgt>
<wgt id='1072'> +1.5664830e-12 </wgt>
<wgt id='1073'> +1.5284277e-12 </wgt>
<wgt id='1074'> +1.5603853e-12 </wgt>
<wgt id='1075'> +1.5304249e-12 </wgt>
<wgt id='1076'> +1.5671894e-12 </wgt>
<wgt id='1077'> +1.5719692e-12 </wgt>
<wgt id='1078'> +1.5388116e-12 </wgt>
<wgt id='1079'> +1.5636570e-12 </wgt>
<wgt id='1080'> +1.5357776e-12 </wgt>
<wgt id='1081'> +1.5054896e-12 </wgt>
<wgt id='1082'> +1.5618818e-12 </wgt>
<wgt id='1083'> +1.5290703e-12 </wgt>
<wgt id='1084'> +1.5382797e-12 </wgt>
<wgt id='1085'> +1.5866462e-12 </wgt>
<wgt id='1086'> +1.6083882e-12 </wgt>
<wgt id='1087'> +1.5380177e-12 </wgt>
<wgt id='1088'> +1.5524629e-12 </wgt>
<wgt id='1089'> +1.5223324e-12 </wgt>
<wgt id='1090'> +1.5509156e-12 </wgt>
<wgt id='1091'> +1.5692734e-12 </wgt>
<wgt id='1092'> +1.5371223e-12 </wgt>
<wgt id='1093'> +1.5912729e-12 </wgt>
<wgt id='1094'> +1.5921701e-12 </wgt>
<wgt id='1095'> +1.6007988e-12 </wgt>
<wgt id='1096'> +1.5031583e-12 </wgt>
<wgt id='1097'> +1.5610790e-12 </wgt>
<wgt id='1098'> +1.5856552e-12 </wgt>
<wgt id='1099'> +1.5490598e-12 </wgt>
<wgt id='1100'> +1.5796471e-12 </wgt>
<wgt id='1101'> +1.5624113e-12 </wgt>
<wgt id='1102'> +1.5255421e-12 </wgt>
<wgt id='1103'> +1.5320494e-12 </wgt>
<wgt id='1104'> +1.5658336e-12 </wgt>
<wgt id='1105'> +1.5046539e-12 </wgt>
<wgt id='1106'> +1.5496318e-12 </wgt>
<wgt id='1107'> +1.6004384e-12 </wgt>
<wgt id='1108'> +1.5407085e-12 </wgt>
<wgt id='1109'> +1.5371271e-12 </wgt>
<wgt id='1110'> +1.5584160e-12 </wgt>
<wgt id='1111'> +1.5589220e-12 </wgt>
<wgt id='1112'> +1.5815942e-12 </wgt>
<wgt id='1113'> +1.6215902e-12 </wgt>
<wgt id='1114'> +1.5864049e-12 </wgt>
<wgt id='1115'> +1.5927417e-12 </wgt>
<wgt id='1116'> +1.6223911e-12 </wgt>
<wgt id='1117'> +1.5456336e-12 </wgt>
<wgt id='1118'> +1.5775345e-12 </wgt>
<wgt id='1119'> +1.5108178e-12 </wgt>
<wgt id='1120'> +1.5512881e-12 </wgt>
<wgt id='1121'> +1.5246792e-12 </wgt>
<wgt id='1122'> +1.5345707e-12 </wgt>
<wgt id='1123'> +1.5794659e-12 </wgt>
<wgt id='1124'> +1.5969051e-12 </wgt>
<wgt id='1125'> +1.4986640e-12 </wgt>
<wgt id='1126'> +1.5219879e-12 </wgt>
<wgt id='1127'> +1.5566237e-12 </wgt>
<wgt id='1128'> +1.5326172e-12 </wgt>
<wgt id='1129'> +1.5225174e-12 </wgt>
<wgt id='1130'> +1.5406276e-12 </wgt>
<wgt id='1131'> +1.5777712e-12 </wgt>
<wgt id='1132'> +1.5702867e-12 </wgt>
<wgt id='1133'> +1.5404706e-12 </wgt>
<wgt id='1134'> +1.5186979e-12 </wgt>
<wgt id='1135'> +1.4912508e-12 </wgt>
<wgt id='1136'> +1.5173913e-12 </wgt>
<wgt id='1137'> +1.5543503e-12 </wgt>
<wgt id='1138'> +1.5404555e-12 </wgt>
<wgt id='1139'> +1.5473564e-12 </wgt>
<wgt id='1140'> +1.5713646e-12 </wgt>
<wgt id='1141'> +1.5418839e-12 </wgt>
<wgt id='1142'> +1.5962565e-12 </wgt>
<wgt id='1143'> +1.4968622e-12 </wgt>
<wgt id='1144'> +1.5541746e-12 </wgt>
<wgt id='1145'> +1.5822130e-12 </wgt>
<wgt id='1146'> +1.5559242e-12 </wgt>
<wgt id='1147'> +1.4109949e-12 </wgt>
<wgt id='1148'> +1.4372321e-12 </wgt>
<wgt id='1149'> +1.3586009e-12 </wgt>
<wgt id='1150'> +1.4206385e-12 </wgt>
<wgt id='1151'> +1.6696645e-12 </wgt>
<wgt id='1152'> +2.3114623e-12 </wgt>
<wgt id='1153'> +2.3152270e-12 </wgt>
<wgt id='1154'> +2.3092100e-12 </wgt>
<wgt id='1155'> +2.3055764e-12 </wgt>
<wgt id='1156'> +2.3144370e-12 </wgt>
<wgt id='1157'> +2.3155311e-12 </wgt>
<wgt id='1158'> +2.3059459e-12 </wgt>
<wgt id='1159'> +2.3148400e-12 </wgt>
<wgt id='1160'> +2.3093098e-12 </wgt>
<wgt id='1161'> +2.3066705e-12 </wgt>
<wgt id='1162'> +2.3147400e-12 </wgt>
<wgt id='1163'> +2.3106520e-12 </wgt>
<wgt id='1164'> +2.3122558e-12 </wgt>
<wgt id='1165'> +2.3151494e-12 </wgt>
<wgt id='1166'> +2.3077420e-12 </wgt>
<wgt id='1167'> +2.3419545e-12 </wgt>
<wgt id='1168'> +2.2748189e-12 </wgt>
<wgt id='1169'> +2.3209447e-12 </wgt>
<wgt id='1170'> +2.3043631e-12 </wgt>
<wgt id='1171'> +2.3043865e-12 </wgt>
<wgt id='1172'> +2.3206595e-12 </wgt>
<wgt id='1173'> +2.2834251e-12 </wgt>
<wgt id='1174'> +2.3408902e-12 </wgt>
<wgt id='1175'> +2.3143808e-12 </wgt>
<wgt id='1176'> +2.3086919e-12 </wgt>
<wgt id='1177'> +2.3064821e-12 </wgt>
<wgt id='1178'> +2.3237597e-12 </wgt>
<wgt id='1179'> +2.3075911e-12 </wgt>
<wgt id='1180'> +2.3096699e-12 </wgt>
<wgt id='1181'> +2.3160780e-12 </wgt>
<wgt id='1182'> +2.3051785e-12 </wgt>
<wgt id='1183'> +2.3087549e-12 </wgt>
<wgt id='1184'> +2.3115435e-12 </wgt>
<wgt id='1185'> +2.3057468e-12 </wgt>
<wgt id='1186'> +2.3139400e-12 </wgt>
<wgt id='1187'> +2.3153779e-12 </wgt>
<wgt id='1188'> +2.3100493e-12 </wgt>
<wgt id='1189'> +2.3044113e-12 </wgt>
<wgt id='1190'> +2.2879373e-12 </wgt>
<wgt id='1191'> +2.3151670e-12 </wgt>
<wgt id='1192'> +2.3193856e-12 </wgt>
<wgt id='1193'> +1.4125966e-12 </wgt>
<wgt id='1194'> +1.3954728e-12 </wgt>
<wgt id='1195'> +1.4266355e-12 </wgt>
<wgt id='1196'> +1.4105182e-12 </wgt>
<wgt id='1197'> +1.4148966e-12 </wgt>
<wgt id='1198'> +1.4115836e-12 </wgt>
<wgt id='1199'> +1.4141353e-12 </wgt>
<wgt id='1200'> +1.4089944e-12 </wgt>
<wgt id='1201'> +1.4150432e-12 </wgt>
<wgt id='1202'> +1.4116526e-12 </wgt>
<wgt id='1203'> +1.4139165e-12 </wgt>
<wgt id='1204'> +1.4067422e-12 </wgt>
<wgt id='1205'> +1.4159805e-12 </wgt>
<wgt id='1206'> +1.4158592e-12 </wgt>
<wgt id='1207'> +1.4081178e-12 </wgt>
<wgt id='1208'> +1.4211358e-12 </wgt>
<wgt id='1209'> +1.4095955e-12 </wgt>
<wgt id='1210'> +1.4142959e-12 </wgt>
<wgt id='1211'> +1.4085718e-12 </wgt>
<wgt id='1212'> +1.4122870e-12 </wgt>
<wgt id='1213'> +1.4133925e-12 </wgt>
<wgt id='1214'> +1.3987783e-12 </wgt>
<wgt id='1215'> +1.4309742e-12 </wgt>
<wgt id='1216'> +1.4219214e-12 </wgt>
<wgt id='1217'> +1.4063825e-12 </wgt>
<wgt id='1218'> +1.4163918e-12 </wgt>
<wgt id='1219'> +1.4104003e-12 </wgt>
<wgt id='1220'> +1.4212462e-12 </wgt>
<wgt id='1221'> +1.4107879e-12 </wgt>
<wgt id='1222'> +1.4350605e-12 </wgt>
<wgt id='1223'> +1.3811904e-12 </wgt>
<wgt id='1224'> +1.4163407e-12 </wgt>
<wgt id='1225'> +1.4111441e-12 </wgt>
<wgt id='1226'> +1.4106531e-12 </wgt>
<wgt id='1227'> +1.4141560e-12 </wgt>
<wgt id='1228'> +1.4071575e-12 </wgt>
<wgt id='1229'> +1.4147849e-12 </wgt>
<wgt id='1230'> +1.4145563e-12 </wgt>
<wgt id='1231'> +1.4230603e-12 </wgt>
<wgt id='1232'> +1.4151249e-12 </wgt>
<wgt id='1233'> +1.4119386e-12 </wgt>
<wgt id='1234'> +1.4125966e-12 </wgt>
<wgt id='1235'> +1.4057780e-12 </wgt>
<wgt id='1236'> +1.4084953e-12 </wgt>
<wgt id='1237'> +1.4108062e-12 </wgt>
<wgt id='1238'> +1.4146449e-12 </wgt>
<wgt id='1239'> +1.4161186e-12 </wgt>
<wgt id='1240'> +1.4177163e-12 </wgt>
<wgt id='1241'> +1.3460503e-12 </wgt>
<wgt id='1242'> +1.3292104e-12 </wgt>
<wgt id='1243'> +1.3626597e-12 </wgt>
<wgt id='1244'> +1.3523819e-12 </wgt>
<wgt id='1245'> +1.3413251e-12 </wgt>
<wgt id='1246'> +1.3416501e-12 </wgt>
<wgt id='1247'> +1.3497971e-12 </wgt>
<wgt id='1248'> +1.3460444e-12 </wgt>
<wgt id='1249'> +1.3460391e-12 </wgt>
<wgt id='1250'> +1.3468486e-12 </wgt>
<wgt id='1251'> +1.3455060e-12 </wgt>
<wgt id='1252'> +1.3433110e-12 </wgt>
<wgt id='1253'> +1.3481557e-12 </wgt>
<wgt id='1254'> +1.3415058e-12 </wgt>
<wgt id='1255'> +1.3486687e-12 </wgt>
<wgt id='1256'> +1.3429238e-12 </wgt>
<wgt id='1257'> +1.3538879e-12 </wgt>
<wgt id='1258'> +1.3572063e-12 </wgt>
<wgt id='1259'> +1.3337986e-12 </wgt>
<wgt id='1260'> +1.3486126e-12 </wgt>
<wgt id='1261'> +1.3434957e-12 </wgt>
<wgt id='1262'> +1.3494314e-12 </wgt>
<wgt id='1263'> +1.3448818e-12 </wgt>
<wgt id='1264'> +1.3513103e-12 </wgt>
<wgt id='1265'> +1.3438066e-12 </wgt>
<wgt id='1266'> +1.3239047e-12 </wgt>
<wgt id='1267'> +1.3670306e-12 </wgt>
<wgt id='1268'> +1.3540754e-12 </wgt>
<wgt id='1269'> +1.3393225e-12 </wgt>
<wgt id='1270'> +1.3541070e-12 </wgt>
<wgt id='1271'> +1.3491216e-12 </wgt>
<wgt id='1272'> +1.3498353e-12 </wgt>
<wgt id='1273'> +1.3458313e-12 </wgt>
<wgt id='1274'> +1.3475514e-12 </wgt>
<wgt id='1275'> +1.3439956e-12 </wgt>
<wgt id='1276'> +1.3504668e-12 </wgt>
<wgt id='1277'> +1.3405918e-12 </wgt>
<wgt id='1278'> +1.3598016e-12 </wgt>
<wgt id='1279'> +1.3517104e-12 </wgt>
<wgt id='1280'> +1.3462081e-12 </wgt>
<wgt id='1281'> +1.3509566e-12 </wgt>
<wgt id='1282'> +1.3460503e-12 </wgt>
<wgt id='1283'> +1.3395478e-12 </wgt>
<wgt id='1284'> +1.3422986e-12 </wgt>
<wgt id='1285'> +1.3443423e-12 </wgt>
<wgt id='1286'> +1.3478511e-12 </wgt>
<wgt id='1287'> +1.3490072e-12 </wgt>
<wgt id='1288'> +1.3499619e-12 </wgt>
<wgt id='1289'> +1.4485306e-12 </wgt>
<wgt id='1290'> +1.4526605e-12 </wgt>
<wgt id='1291'> +1.4440842e-12 </wgt>
<wgt id='1292'> +1.4497096e-12 </wgt>
<wgt id='1293'> +1.4476669e-12 </wgt>
<wgt id='1294'> +1.4325029e-12 </wgt>
<wgt id='1295'> +1.4639055e-12 </wgt>
<wgt id='1296'> +1.4554969e-12 </wgt>
<wgt id='1297'> +1.4397490e-12 </wgt>
<wgt id='1298'> +1.4559491e-12 </wgt>
<wgt id='1299'> +1.4391324e-12 </wgt>
<wgt id='1300'> +1.4518018e-12 </wgt>
<wgt id='1301'> +1.4419475e-12 </wgt>
<wgt id='1302'> +1.4440999e-12 </wgt>
<wgt id='1303'> +1.4546743e-12 </wgt>
<wgt id='1304'> +1.4469822e-12 </wgt>
<wgt id='1305'> +1.4495455e-12 </wgt>
<wgt id='1306'> +1.4516297e-12 </wgt>
<wgt id='1307'> +1.4448091e-12 </wgt>
<wgt id='1308'> +1.4420243e-12 </wgt>
<wgt id='1309'> +1.4534877e-12 </wgt>
<wgt id='1310'> +1.4496374e-12 </wgt>
<wgt id='1311'> +1.4475885e-12 </wgt>
<wgt id='1312'> +1.4572795e-12 </wgt>
<wgt id='1313'> +1.4403874e-12 </wgt>
<wgt id='1314'> +1.4285308e-12 </wgt>
<wgt id='1315'> +1.4667258e-12 </wgt>
<wgt id='1316'> +1.4560545e-12 </wgt>
<wgt id='1317'> +1.4501070e-12 </wgt>
<wgt id='1318'> +1.4584365e-12 </wgt>
<wgt id='1319'> +1.4356028e-12 </wgt>
<wgt id='1320'> +1.4667281e-12 </wgt>
<wgt id='1321'> +1.4321237e-12 </wgt>
<wgt id='1322'> +1.4486486e-12 </wgt>
<wgt id='1323'> +1.4486988e-12 </wgt>
<wgt id='1324'> +1.4461838e-12 </wgt>
<wgt id='1325'> +1.4533791e-12 </wgt>
<wgt id='1326'> +1.4474405e-12 </wgt>
<wgt id='1327'> +1.4523929e-12 </wgt>
<wgt id='1328'> +1.4477752e-12 </wgt>
<wgt id='1329'> +1.4486330e-12 </wgt>
<wgt id='1330'> +1.4552229e-12 </wgt>
<wgt id='1331'> +1.4422376e-12 </wgt>
<wgt id='1332'> +1.4609427e-12 </wgt>
<wgt id='1333'> +1.4531566e-12 </wgt>
<wgt id='1334'> +1.4464896e-12 </wgt>
<wgt id='1335'> +1.4543895e-12 </wgt>
<wgt id='1336'> +1.4515719e-12 </wgt>
<wgt id='1337'> +1.4571072e-12 </wgt>
<wgt id='1338'> +1.4494405e-12 </wgt>
<wgt id='1339'> +1.4502753e-12 </wgt>
<wgt id='1340'> +1.4161641e-12 </wgt>
<wgt id='1341'> +1.4201181e-12 </wgt>
<wgt id='1342'> +1.4119463e-12 </wgt>
<wgt id='1343'> +1.4175150e-12 </wgt>
<wgt id='1344'> +1.4152674e-12 </wgt>
<wgt id='1345'> +1.3995429e-12 </wgt>
<wgt id='1346'> +1.4315450e-12 </wgt>
<wgt id='1347'> +1.4239030e-12 </wgt>
<wgt id='1348'> +1.4074753e-12 </wgt>
<wgt id='1349'> +1.4231093e-12 </wgt>
<wgt id='1350'> +1.4093048e-12 </wgt>
<wgt id='1351'> +1.4192502e-12 </wgt>
<wgt id='1352'> +1.4094502e-12 </wgt>
<wgt id='1353'> +1.4107351e-12 </wgt>
<wgt id='1354'> +1.4258716e-12 </wgt>
<wgt id='1355'> +1.4156683e-12 </wgt>
<wgt id='1356'> +1.4164286e-12 </wgt>
<wgt id='1357'> +1.4182731e-12 </wgt>
<wgt id='1358'> +1.4134802e-12 </wgt>
<wgt id='1359'> +1.4092460e-12 </wgt>
<wgt id='1360'> +1.4221395e-12 </wgt>
<wgt id='1361'> +1.4179169e-12 </wgt>
<wgt id='1362'> +1.4141138e-12 </wgt>
<wgt id='1363'> +1.4314090e-12 </wgt>
<wgt id='1364'> +1.4068516e-12 </wgt>
<wgt id='1365'> +1.4253940e-12 </wgt>
<wgt id='1366'> +1.3991312e-12 </wgt>
<wgt id='1367'> +1.4238130e-12 </wgt>
<wgt id='1368'> +1.4163055e-12 </wgt>
<wgt id='1369'> +1.4240857e-12 </wgt>
<wgt id='1370'> +1.4061471e-12 </wgt>
<wgt id='1371'> +1.4311455e-12 </wgt>
<wgt id='1372'> +1.3974473e-12 </wgt>
<wgt id='1373'> +1.4129265e-12 </wgt>
<wgt id='1374'> +1.4192914e-12 </wgt>
<wgt id='1375'> +1.4137738e-12 </wgt>
<wgt id='1376'> +1.4213359e-12 </wgt>
<wgt id='1377'> +1.4152527e-12 </wgt>
<wgt id='1378'> +1.4200846e-12 </wgt>
<wgt id='1379'> +1.4156855e-12 </wgt>
<wgt id='1380'> +1.4160570e-12 </wgt>
<wgt id='1381'> +1.4231309e-12 </wgt>
<wgt id='1382'> +1.4101126e-12 </wgt>
<wgt id='1383'> +1.4263773e-12 </wgt>
<wgt id='1384'> +1.4215665e-12 </wgt>
<wgt id='1385'> +1.4143804e-12 </wgt>
<wgt id='1386'> +1.4207947e-12 </wgt>
<wgt id='1387'> +1.4193707e-12 </wgt>
<wgt id='1388'> +1.4250615e-12 </wgt>
<wgt id='1389'> +1.4171810e-12 </wgt>
<wgt id='1390'> +1.4188877e-12 </wgt>
<wgt id='1391'> +1.3972311e-12 </wgt>
<wgt id='1392'> +1.3512548e-12 </wgt>
<wgt id='1393'> +1.3671815e-12 </wgt>
<wgt id='1394'> +1.3825694e-12 </wgt>
<wgt id='1395'> +1.4132449e-12 </wgt>
<wgt id='1396'> +1.3979048e-12 </wgt>
<wgt id='1397'> +1.3780261e-12 </wgt>
<wgt id='1398'> +1.3807408e-12 </wgt>
<wgt id='1399'> +1.3838908e-12 </wgt>
<wgt id='1400'> +1.3879866e-12 </wgt>
<wgt id='1401'> +1.3928725e-12 </wgt>
<wgt id='1402'> +1.4029890e-12 </wgt>
<wgt id='1403'> +1.4086227e-12 </wgt>
<wgt id='1404'> +1.4144204e-12 </wgt>
<wgt id='1405'> +1.3979048e-12 </wgt>
<wgt id='1406'> +1.3938965e-12 </wgt>
<wgt id='1407'> +1.3959320e-12 </wgt>
<wgt id='1408'> +1.3997298e-12 </wgt>
<wgt id='1409'> +1.4009897e-12 </wgt>
<wgt id='1410'> +1.3117092e-12 </wgt>
<wgt id='1411'> +1.3188262e-12 </wgt>
<wgt id='1412'> +1.3025935e-12 </wgt>
<wgt id='1413'> +1.3034639e-12 </wgt>
<wgt id='1414'> +1.3199636e-12 </wgt>
<wgt id='1415'> +1.3091089e-12 </wgt>
<wgt id='1416'> +1.3127730e-12 </wgt>
<wgt id='1417'> +1.3097760e-12 </wgt>
<wgt id='1418'> +1.3135777e-12 </wgt>
<wgt id='1419'> +1.3135025e-12 </wgt>
<wgt id='1420'> +1.3099904e-12 </wgt>
<wgt id='1421'> +1.2980289e-12 </wgt>
<wgt id='1422'> +1.3175040e-12 </wgt>
<wgt id='1423'> +1.3103116e-12 </wgt>
<wgt id='1424'> +1.3134336e-12 </wgt>
<wgt id='1425'> +1.3033193e-12 </wgt>
<wgt id='1426'> +1.3207657e-12 </wgt>
<wgt id='1427'> +1.2974088e-12 </wgt>
<wgt id='1428'> +1.3192300e-12 </wgt>
<wgt id='1429'> +1.3152642e-12 </wgt>
<wgt id='1430'> +1.3069925e-12 </wgt>
<wgt id='1431'> +1.3130483e-12 </wgt>
<wgt id='1432'> +1.3107306e-12 </wgt>
<wgt id='1433'> +1.2944701e-12 </wgt>
<wgt id='1434'> +1.3256261e-12 </wgt>
<wgt id='1435'> +1.3040288e-12 </wgt>
<wgt id='1436'> +1.3315372e-12 </wgt>
<wgt id='1437'> +1.3181465e-12 </wgt>
<wgt id='1438'> +1.3156600e-12 </wgt>
<wgt id='1439'> +1.3053664e-12 </wgt>
<wgt id='1440'> +1.3219984e-12 </wgt>
<wgt id='1441'> +1.3171786e-12 </wgt>
<wgt id='1442'> +1.2997508e-12 </wgt>
<wgt id='1443'> +1.3080477e-12 </wgt>
<wgt id='1444'> +1.3205716e-12 </wgt>
<wgt id='1445'> +1.3222089e-12 </wgt>
<wgt id='1446'> +1.3078560e-12 </wgt>
<wgt id='1447'> +1.3133262e-12 </wgt>
<wgt id='1448'> +1.3144471e-12 </wgt>
<wgt id='1449'> +1.3116468e-12 </wgt>
<wgt id='1450'> +1.3109250e-12 </wgt>
<wgt id='1451'> +1.3107539e-12 </wgt>
<wgt id='1452'> +1.3170758e-12 </wgt>
<wgt id='1453'> +1.3120047e-12 </wgt>
<wgt id='1454'> +1.3133095e-12 </wgt>
<wgt id='1455'> +1.3225403e-12 </wgt>
<wgt id='1456'> +1.3197508e-12 </wgt>
<wgt id='1457'> +1.3191086e-12 </wgt>
<wgt id='1458'> +1.3103858e-12 </wgt>
<wgt id='1459'> +1.3179573e-12 </wgt>
<wgt id='1460'> +1.3228360e-12 </wgt>
<wgt id='1461'> +1.3117092e-12 </wgt>
<wgt id='1462'> +1.3006979e-12 </wgt>
<wgt id='1463'> +1.3189262e-12 </wgt>
<wgt id='1464'> +1.3095785e-12 </wgt>
<wgt id='1465'> +1.2860984e-12 </wgt>
<wgt id='1466'> +1.2896511e-12 </wgt>
<wgt id='1467'> +1.2939041e-12 </wgt>
<wgt id='1468'> +1.3008410e-12 </wgt>
<wgt id='1469'> +1.3045089e-12 </wgt>
<wgt id='1470'> +1.3150762e-12 </wgt>
<wgt id='1471'> +1.3201984e-12 </wgt>
<wgt id='1472'> +1.3254891e-12 </wgt>
<wgt id='1473'> +1.3095785e-12 </wgt>
<wgt id='1474'> +1.3062735e-12 </wgt>
<wgt id='1475'> +1.3086217e-12 </wgt>
<wgt id='1476'> +1.3107231e-12 </wgt>
<wgt id='1477'> +1.3116929e-12 </wgt>
<wgt id='1478'> +1.3729972e-12 </wgt>
<wgt id='1479'> +1.3738012e-12 </wgt>
<wgt id='1480'> +1.3587437e-12 </wgt>
<wgt id='1481'> +1.3967189e-12 </wgt>
<wgt id='1482'> +1.3750983e-12 </wgt>
<wgt id='1483'> +1.3567760e-12 </wgt>
<wgt id='1484'> +1.3625691e-12 </wgt>
<wgt id='1485'> +1.3834345e-12 </wgt>
<wgt id='1486'> +1.3726644e-12 </wgt>
<wgt id='1487'> +1.3852420e-12 </wgt>
<wgt id='1488'> +1.3702342e-12 </wgt>
<wgt id='1489'> +1.3740321e-12 </wgt>
<wgt id='1490'> +1.3694021e-12 </wgt>
<wgt id='1491'> +1.3792395e-12 </wgt>
<wgt id='1492'> +1.3736323e-12 </wgt>
<wgt id='1493'> +1.3532471e-12 </wgt>
<wgt id='1494'> +1.3697392e-12 </wgt>
<wgt id='1495'> +1.3628616e-12 </wgt>
<wgt id='1496'> +1.3739599e-12 </wgt>
<wgt id='1497'> +1.3731519e-12 </wgt>
<wgt id='1498'> +1.3733263e-12 </wgt>
<wgt id='1499'> +1.3760199e-12 </wgt>
<wgt id='1500'> +1.3745799e-12 </wgt>
<wgt id='1501'> +1.3739619e-12 </wgt>
<wgt id='1502'> +1.3720260e-12 </wgt>
<wgt id='1503'> +1.3783149e-12 </wgt>
<wgt id='1504'> +1.3672916e-12 </wgt>
<wgt id='1505'> +1.3773936e-12 </wgt>
<wgt id='1506'> +1.3745302e-12 </wgt>
<wgt id='1507'> +1.3735028e-12 </wgt>
<wgt id='1508'> +1.3759100e-12 </wgt>
<wgt id='1509'> +1.3269754e-12 </wgt>
<wgt id='1510'> +1.3317314e-12 </wgt>
<wgt id='1511'> +1.3085702e-12 </wgt>
<wgt id='1512'> +1.3143251e-12 </wgt>
<wgt id='1513'> +1.3256351e-12 </wgt>
<wgt id='1514'> +1.3325154e-12 </wgt>
<wgt id='1515'> +1.3309095e-12 </wgt>
<wgt id='1516'> +1.3308867e-12 </wgt>
<wgt id='1517'> +1.3277934e-12 </wgt>
<wgt id='1518'> +1.3263592e-12 </wgt>
<wgt id='1519'> +1.3283417e-12 </wgt>
<wgt id='1520'> +1.3278429e-12 </wgt>
<wgt id='1521'> +1.3266527e-12 </wgt>
<wgt id='1522'> +1.3296469e-12 </wgt>
<wgt id='1523'> +1.3295470e-12 </wgt>
<wgt id='1524'> +1.3252761e-12 </wgt>
<wgt id='1525'> +1.3268422e-12 </wgt>
<wgt id='1526'> +1.3279115e-12 </wgt>
<wgt id='1527'> +1.3266101e-12 </wgt>
<wgt id='1528'> +1.3277330e-12 </wgt>
<wgt id='1529'> +1.3279890e-12 </wgt>
<wgt id='1530'> +1.3277291e-12 </wgt>
<wgt id='1531'> +1.3291428e-12 </wgt>
<wgt id='1532'> +1.3230940e-12 </wgt>
<wgt id='1533'> +1.3275519e-12 </wgt>
<wgt id='1534'> +1.3269284e-12 </wgt>
<wgt id='1535'> +1.3225871e-12 </wgt>
<wgt id='1536'> +1.3305776e-12 </wgt>
<wgt id='1537'> +1.3298073e-12 </wgt>
<wgt id='1538'> +1.3143320e-12 </wgt>
<wgt id='1539'> +1.3255287e-12 </wgt>
<wgt id='1540'> +1.3262469e-12 </wgt>
<wgt id='1541'> +1.3245056e-12 </wgt>
<wgt id='1542'> +1.3251417e-12 </wgt>
<wgt id='1543'> +1.3276088e-12 </wgt>
<wgt id='1544'> +1.3252728e-12 </wgt>
<wgt id='1545'> +1.3253777e-12 </wgt>
<wgt id='1546'> +1.3275650e-12 </wgt>
<wgt id='1547'> +1.3257422e-12 </wgt>
<wgt id='1548'> +1.3277880e-12 </wgt>
<wgt id='1549'> +1.3258144e-12 </wgt>
<wgt id='1550'> +1.3268987e-12 </wgt>
<wgt id='1551'> +1.3268514e-12 </wgt>
<wgt id='1552'> +1.3287113e-12 </wgt>
<wgt id='1553'> +1.3270910e-12 </wgt>
<wgt id='1554'> +1.3259480e-12 </wgt>
<wgt id='1555'> +1.3290490e-12 </wgt>
<wgt id='1556'> +1.3304415e-12 </wgt>
<wgt id='1557'> +1.3266973e-12 </wgt>
<wgt id='1558'> +1.3269233e-12 </wgt>
<wgt id='1559'> +1.3252416e-12 </wgt>
<wgt id='1560'> +1.3267663e-12 </wgt>
<wgt id='1561'> +1.3270546e-12 </wgt>
<wgt id='1562'> +1.3267407e-12 </wgt>
<wgt id='1563'> +1.3269396e-12 </wgt>
<wgt id='1564'> +1.3256729e-12 </wgt>
<wgt id='1565'> +1.3270675e-12 </wgt>
<wgt id='1566'> +1.3269509e-12 </wgt>
<wgt id='1567'> +1.3262911e-12 </wgt>
<wgt id='1568'> +1.3267066e-12 </wgt>
<wgt id='1569'> +1.3300884e-12 </wgt>
<wgt id='1570'> +1.3276282e-12 </wgt>
<wgt id='1571'> +1.3278433e-12 </wgt>
<wgt id='1572'> +1.3273016e-12 </wgt>
<wgt id='1573'> +1.3267464e-12 </wgt>
<wgt id='1574'> +1.3277686e-12 </wgt>
<wgt id='1575'> +1.3264821e-12 </wgt>
<wgt id='1576'> +1.3274747e-12 </wgt>
<wgt id='1577'> +1.3284230e-12 </wgt>
<wgt id='1578'> +1.3278133e-12 </wgt>
<wgt id='1579'> +1.3261496e-12 </wgt>
<wgt id='1580'> +1.3265665e-12 </wgt>
<wgt id='1581'> +1.3272709e-12 </wgt>
<wgt id='1582'> +1.3277977e-12 </wgt>
<wgt id='1583'> +1.3261697e-12 </wgt>
<wgt id='1584'> +1.3265515e-12 </wgt>
<wgt id='1585'> +1.3270808e-12 </wgt>
<wgt id='1586'> +1.3269534e-12 </wgt>
<wgt id='1587'> +1.3273717e-12 </wgt>
<wgt id='1588'> +1.3254964e-12 </wgt>
<wgt id='1589'> +1.3284067e-12 </wgt>
<wgt id='1590'> +1.3271287e-12 </wgt>
<wgt id='1591'> +1.3270745e-12 </wgt>
<wgt id='1592'> +1.3269501e-12 </wgt>
<wgt id='1593'> +1.3279829e-12 </wgt>
<wgt id='1594'> +1.3266002e-12 </wgt>
<wgt id='1595'> +1.3263594e-12 </wgt>
<wgt id='1596'> +1.3260983e-12 </wgt>
<wgt id='1597'> +1.3264754e-12 </wgt>
<wgt id='1598'> +1.3272291e-12 </wgt>
<wgt id='1599'> +1.3277621e-12 </wgt>
<wgt id='1600'> +1.3258583e-12 </wgt>
<wgt id='1601'> +1.3274849e-12 </wgt>
<wgt id='1602'> +1.3267138e-12 </wgt>
<wgt id='1603'> +1.3280409e-12 </wgt>
<wgt id='1604'> +1.3272209e-12 </wgt>
<wgt id='1605'> +1.3276944e-12 </wgt>
<wgt id='1606'> +1.3269414e-12 </wgt>
<wgt id='1607'> +1.3272959e-12 </wgt>
<wgt id='1608'> +1.3275157e-12 </wgt>
<wgt id='1609'> +1.3272703e-12 </wgt>
<wgt id='1610'> +1.3121507e-12 </wgt>
<wgt id='1611'> +1.3403725e-12 </wgt>
<wgt id='1612'> +1.5390407e-12 </wgt>
<wgt id='1613'> +1.5081096e-12 </wgt>
<wgt id='1614'> +1.4690798e-12 </wgt>
<wgt id='1615'> +1.5189292e-12 </wgt>
<wgt id='1616'> +1.4717085e-12 </wgt>
<wgt id='1617'> +1.5131351e-12 </wgt>
<wgt id='1618'> +1.5381758e-12 </wgt>
<wgt id='1619'> +1.5044972e-12 </wgt>
<wgt id='1620'> +1.5181092e-12 </wgt>
<wgt id='1621'> +1.5433839e-12 </wgt>
<wgt id='1622'> +1.5498949e-12 </wgt>
<wgt id='1623'> +1.5523765e-12 </wgt>
<wgt id='1624'> +1.5813776e-12 </wgt>
<wgt id='1625'> +1.4880767e-12 </wgt>
<wgt id='1626'> +1.5277521e-12 </wgt>
<wgt id='1627'> +1.5639800e-12 </wgt>
<wgt id='1628'> +1.4523547e-12 </wgt>
<wgt id='1629'> +1.5683425e-12 </wgt>
<wgt id='1630'> +1.4936825e-12 </wgt>
<wgt id='1631'> +1.5023247e-12 </wgt>
<wgt id='1632'> +1.4687093e-12 </wgt>
<wgt id='1633'> +1.4735441e-12 </wgt>
<wgt id='1634'> +1.5300578e-12 </wgt>
<wgt id='1635'> +1.5569074e-12 </wgt>
<wgt id='1636'> +1.5428490e-12 </wgt>
<wgt id='1637'> +1.5752023e-12 </wgt>
<wgt id='1638'> +1.5449386e-12 </wgt>
<wgt id='1639'> +1.5294522e-12 </wgt>
<wgt id='1640'> +1.5307320e-12 </wgt>
<wgt id='1641'> +1.5463134e-12 </wgt>
<wgt id='1642'> +1.4740465e-12 </wgt>
<wgt id='1643'> +1.5120959e-12 </wgt>
<wgt id='1644'> +1.5698881e-12 </wgt>
<wgt id='1645'> +1.4984241e-12 </wgt>
<wgt id='1646'> +1.5537857e-12 </wgt>
<wgt id='1647'> +1.5830607e-12 </wgt>
<wgt id='1648'> +1.5370932e-12 </wgt>
<wgt id='1649'> +1.6144453e-12 </wgt>
<wgt id='1650'> +1.5072774e-12 </wgt>
<wgt id='1651'> +1.5621981e-12 </wgt>
<wgt id='1652'> +1.5207542e-12 </wgt>
<wgt id='1653'> +1.5372334e-12 </wgt>
<wgt id='1654'> +1.5458560e-12 </wgt>
<wgt id='1655'> +1.5805257e-12 </wgt>
<wgt id='1656'> +1.5322183e-12 </wgt>
<wgt id='1657'> +1.5482886e-12 </wgt>
<wgt id='1658'> +1.5233490e-12 </wgt>
<wgt id='1659'> +1.5813776e-12 </wgt>
<wgt id='1660'> +1.5537809e-12 </wgt>
<wgt id='1661'> +1.5782601e-12 </wgt>
<wgt id='1662'> +1.6084218e-12 </wgt>
<wgt id='1663'> +1.5344514e-12 </wgt>
<wgt id='1664'> +1.5206251e-12 </wgt>
<wgt id='1665'> +1.5186598e-12 </wgt>
<wgt id='1666'> +1.5647524e-12 </wgt>
<wgt id='1667'> +1.5525685e-12 </wgt>
<wgt id='1668'> +1.5675827e-12 </wgt>
<wgt id='1669'> +1.5517846e-12 </wgt>
<wgt id='1670'> +1.5108593e-12 </wgt>
<wgt id='1671'> +1.5066712e-12 </wgt>
<wgt id='1672'> +1.5674271e-12 </wgt>
<wgt id='1673'> +1.5430655e-12 </wgt>
<wgt id='1674'> +1.5246093e-12 </wgt>
<wgt id='1675'> +1.5212890e-12 </wgt>
<wgt id='1676'> +1.5148482e-12 </wgt>
<wgt id='1677'> +1.5388406e-12 </wgt>
<wgt id='1678'> +1.5208441e-12 </wgt>
<wgt id='1679'> +1.5503191e-12 </wgt>
<wgt id='1680'> +1.5706158e-12 </wgt>
<wgt id='1681'> +1.5712345e-12 </wgt>
<wgt id='1682'> +1.5283910e-12 </wgt>
<wgt id='1683'> +1.5605277e-12 </wgt>
<wgt id='1684'> +1.6073504e-12 </wgt>
<wgt id='1685'> +1.5314804e-12 </wgt>
<wgt id='1686'> +1.5327925e-12 </wgt>
<wgt id='1687'> +1.5702552e-12 </wgt>
<wgt id='1688'> +1.5066934e-12 </wgt>
<wgt id='1689'> +1.6085774e-12 </wgt>
<wgt id='1690'> +1.5354367e-12 </wgt>
<wgt id='1691'> +1.4717743e-12 </wgt>
<wgt id='1692'> +1.5386302e-12 </wgt>
<wgt id='1693'> +1.5448214e-12 </wgt>
<wgt id='1694'> +1.5286923e-12 </wgt>
<wgt id='1695'> +1.5481835e-12 </wgt>
<wgt id='1696'> +1.5226406e-12 </wgt>
<wgt id='1697'> +1.5284904e-12 </wgt>
<wgt id='1698'> +1.5504125e-12 </wgt>
<wgt id='1699'> +1.5634758e-12 </wgt>
<wgt id='1700'> +1.5155423e-12 </wgt>
<wgt id='1701'> +1.6024825e-12 </wgt>
<wgt id='1702'> +1.4936499e-12 </wgt>
<wgt id='1703'> +1.5145592e-12 </wgt>
<wgt id='1704'> +1.5172031e-12 </wgt>
<wgt id='1705'> +1.4768584e-12 </wgt>
<wgt id='1706'> +1.5769487e-12 </wgt>
<wgt id='1707'> +1.5596023e-12 </wgt>
<wgt id='1708'> +1.6221210e-12 </wgt>
<wgt id='1709'> +1.5970676e-12 </wgt>
<wgt id='1710'> +1.5400233e-12 </wgt>
<wgt id='1711'> +1.5504217e-12 </wgt>
<wgt id='1712'> +1.6181268e-12 </wgt>
<wgt id='1713'> +1.3384960e-12 </wgt>
<wgt id='1714'> +1.3263571e-12 </wgt>
<wgt id='1715'> +1.2955263e-12 </wgt>
<wgt id='1716'> +1.3686887e-12 </wgt>
<wgt id='1717'> +1.3483666e-12 </wgt>
<wgt id='1718'> +1.3798498e-12 </wgt>
<wgt id='1719'> +1.3625649e-12 </wgt>
<wgt id='1720'> +1.2929401e-12 </wgt>
<wgt id='1721'> +1.3123979e-12 </wgt>
<wgt id='1722'> +1.3292638e-12 </wgt>
<wgt id='1723'> +1.3902468e-12 </wgt>
<wgt id='1724'> +1.3336919e-12 </wgt>
<wgt id='1725'> +1.3543778e-12 </wgt>
<wgt id='1726'> +1.3452789e-12 </wgt>
<wgt id='1727'> +1.3842858e-12 </wgt>
<wgt id='1728'> +1.3197621e-12 </wgt>
<wgt id='1729'> +1.2776520e-12 </wgt>
<wgt id='1730'> +1.3122849e-12 </wgt>
<wgt id='1731'> +1.2769693e-12 </wgt>
<wgt id='1732'> +1.3412872e-12 </wgt>
<wgt id='1733'> +1.2775925e-12 </wgt>
<wgt id='1734'> +1.4045158e-12 </wgt>
<wgt id='1735'> +1.3100921e-12 </wgt>
<wgt id='1736'> +1.3627036e-12 </wgt>
<wgt id='1737'> +1.3826596e-12 </wgt>
<wgt id='1738'> +1.3329375e-12 </wgt>
<wgt id='1739'> +1.3448711e-12 </wgt>
<wgt id='1740'> +1.2641385e-12 </wgt>
<wgt id='1741'> +1.3817967e-12 </wgt>
<wgt id='1742'> +1.3223386e-12 </wgt>
<wgt id='1743'> +1.3128441e-12 </wgt>
<wgt id='1744'> +1.3651153e-12 </wgt>
<wgt id='1745'> +1.3551489e-12 </wgt>
<wgt id='1746'> +1.3233404e-12 </wgt>
<wgt id='1747'> +1.3969703e-12 </wgt>
<wgt id='1748'> +1.3425107e-12 </wgt>
<wgt id='1749'> +1.3397435e-12 </wgt>
<wgt id='1750'> +1.3113680e-12 </wgt>
<wgt id='1751'> +1.3236432e-12 </wgt>
<wgt id='1752'> +1.3209563e-12 </wgt>
<wgt id='1753'> +1.3453302e-12 </wgt>
<wgt id='1754'> +1.3518871e-12 </wgt>
<wgt id='1755'> +1.3514601e-12 </wgt>
<wgt id='1756'> +1.3625543e-12 </wgt>
<wgt id='1757'> +1.3624511e-12 </wgt>
<wgt id='1758'> +1.3887602e-12 </wgt>
<wgt id='1759'> +1.3684651e-12 </wgt>
<wgt id='1760'> +1.3363742e-12 </wgt>
<wgt id='1761'> +1.3366578e-12 </wgt>
<wgt id='1762'> +1.3200735e-12 </wgt>
<wgt id='1763'> +1.3610438e-12 </wgt>
<wgt id='1764'> +1.3890483e-12 </wgt>
<wgt id='1765'> +1.3382288e-12 </wgt>
<wgt id='1766'> +1.3737639e-12 </wgt>
<wgt id='1767'> +1.3283804e-12 </wgt>
<wgt id='1768'> +1.3632179e-12 </wgt>
<wgt id='1769'> +1.3408312e-12 </wgt>
<wgt id='1770'> +1.3298295e-12 </wgt>
<wgt id='1771'> +1.3930276e-12 </wgt>
<wgt id='1772'> +1.3202978e-12 </wgt>
<wgt id='1773'> +1.3478603e-12 </wgt>
<wgt id='1774'> +1.3281337e-12 </wgt>
<wgt id='1775'> +1.3384927e-12 </wgt>
<wgt id='1776'> +1.3926837e-12 </wgt>
<wgt id='1777'> +1.2794539e-12 </wgt>
<wgt id='1778'> +1.3537308e-12 </wgt>
<wgt id='1779'> +1.3233931e-12 </wgt>
<wgt id='1780'> +1.3329377e-12 </wgt>
<wgt id='1781'> +1.3681516e-12 </wgt>
<wgt id='1782'> +1.3334127e-12 </wgt>
<wgt id='1783'> +1.3467020e-12 </wgt>
<wgt id='1784'> +1.3310376e-12 </wgt>
<wgt id='1785'> +1.3489089e-12 </wgt>
<wgt id='1786'> +1.3235759e-12 </wgt>
<wgt id='1787'> +1.4278299e-12 </wgt>
<wgt id='1788'> +1.3197517e-12 </wgt>
<wgt id='1789'> +1.4209060e-12 </wgt>
<wgt id='1790'> +1.3379828e-12 </wgt>
<wgt id='1791'> +1.3198724e-12 </wgt>
<wgt id='1792'> +1.3177876e-12 </wgt>
<wgt id='1793'> +1.3185783e-12 </wgt>
<wgt id='1794'> +1.3638033e-12 </wgt>
<wgt id='1795'> +1.3478401e-12 </wgt>
<wgt id='1796'> +1.3004404e-12 </wgt>
<wgt id='1797'> +1.3383578e-12 </wgt>
<wgt id='1798'> +1.3304262e-12 </wgt>
<wgt id='1799'> +1.3181636e-12 </wgt>
<wgt id='1800'> +1.3605410e-12 </wgt>
<wgt id='1801'> +1.3357307e-12 </wgt>
<wgt id='1802'> +1.2961789e-12 </wgt>
<wgt id='1803'> +1.3430054e-12 </wgt>
<wgt id='1804'> +1.3531136e-12 </wgt>
<wgt id='1805'> +1.3005348e-12 </wgt>
<wgt id='1806'> +1.3068653e-12 </wgt>
<wgt id='1807'> +1.3118720e-12 </wgt>
<wgt id='1808'> +1.3110891e-12 </wgt>
<wgt id='1809'> +1.3142118e-12 </wgt>
<wgt id='1810'> +1.3062245e-12 </wgt>
<wgt id='1811'> +1.3486463e-12 </wgt>
<wgt id='1812'> +1.3134213e-12 </wgt>
<wgt id='1813'> +1.2589369e-12 </wgt>
<wgt id='1814'> +1.6939267e-12 </wgt>
<wgt id='1815'> +2.0656099e-12 </wgt>
<wgt id='1816'> +1.3384960e-12 </wgt>
<wgt id='1817'> +1.3263571e-12 </wgt>
<wgt id='1818'> +1.2955263e-12 </wgt>
<wgt id='1819'> +1.3686887e-12 </wgt>
<wgt id='1820'> +1.3483666e-12 </wgt>
<wgt id='1821'> +1.3798498e-12 </wgt>
<wgt id='1822'> +1.3625649e-12 </wgt>
<wgt id='1823'> +1.2929401e-12 </wgt>
<wgt id='1824'> +1.3123979e-12 </wgt>
<wgt id='1825'> +1.3292638e-12 </wgt>
<wgt id='1826'> +1.3902468e-12 </wgt>
<wgt id='1827'> +1.3336919e-12 </wgt>
<wgt id='1828'> +1.3543778e-12 </wgt>
<wgt id='1829'> +1.3452789e-12 </wgt>
<wgt id='1830'> +1.3842858e-12 </wgt>
<wgt id='1831'> +1.3197621e-12 </wgt>
<wgt id='1832'> +1.2776520e-12 </wgt>
<wgt id='1833'> +1.3122849e-12 </wgt>
<wgt id='1834'> +1.2769693e-12 </wgt>
<wgt id='1835'> +1.3412872e-12 </wgt>
<wgt id='1836'> +1.2775925e-12 </wgt>
<wgt id='1837'> +1.4045158e-12 </wgt>
<wgt id='1838'> +1.3100921e-12 </wgt>
<wgt id='1839'> +1.3627036e-12 </wgt>
<wgt id='1840'> +1.3826596e-12 </wgt>
<wgt id='1841'> +1.3329375e-12 </wgt>
<wgt id='1842'> +1.3448711e-12 </wgt>
<wgt id='1843'> +1.2641385e-12 </wgt>
<wgt id='1844'> +1.3817967e-12 </wgt>
<wgt id='1845'> +1.3223386e-12 </wgt>
<wgt id='1846'> +1.3128441e-12 </wgt>
<wgt id='1847'> +1.3651153e-12 </wgt>
<wgt id='1848'> +1.3551489e-12 </wgt>
<wgt id='1849'> +1.3233404e-12 </wgt>
<wgt id='1850'> +1.3969703e-12 </wgt>
<wgt id='1851'> +1.3425107e-12 </wgt>
<wgt id='1852'> +1.3397435e-12 </wgt>
<wgt id='1853'> +1.3113680e-12 </wgt>
<wgt id='1854'> +1.3236432e-12 </wgt>
<wgt id='1855'> +1.3209563e-12 </wgt>
<wgt id='1856'> +1.3453302e-12 </wgt>
<wgt id='1857'> +1.3518871e-12 </wgt>
<wgt id='1858'> +1.3514601e-12 </wgt>
<wgt id='1859'> +1.3625543e-12 </wgt>
<wgt id='1860'> +1.3624511e-12 </wgt>
<wgt id='1861'> +1.3887602e-12 </wgt>
<wgt id='1862'> +1.3684651e-12 </wgt>
<wgt id='1863'> +1.3363742e-12 </wgt>
<wgt id='1864'> +1.3366578e-12 </wgt>
<wgt id='1865'> +1.3200735e-12 </wgt>
<wgt id='1866'> +1.3610438e-12 </wgt>
<wgt id='1867'> +1.3890483e-12 </wgt>
<wgt id='1868'> +1.3382288e-12 </wgt>
<wgt id='1869'> +1.3737639e-12 </wgt>
<wgt id='1870'> +1.3283804e-12 </wgt>
<wgt id='1871'> +1.3632179e-12 </wgt>
<wgt id='1872'> +1.3408312e-12 </wgt>
<wgt id='1873'> +1.3298295e-12 </wgt>
<wgt id='1874'> +1.3930276e-12 </wgt>
<wgt id='1875'> +1.3202978e-12 </wgt>
<wgt id='1876'> +1.3478603e-12 </wgt>
<wgt id='1877'> +1.3281337e-12 </wgt>
<wgt id='1878'> +1.3384927e-12 </wgt>
<wgt id='1879'> +1.3926837e-12 </wgt>
<wgt id='1880'> +1.2794539e-12 </wgt>
<wgt id='1881'> +1.3537308e-12 </wgt>
<wgt id='1882'> +1.3233931e-12 </wgt>
<wgt id='1883'> +1.3329377e-12 </wgt>
<wgt id='1884'> +1.3681516e-12 </wgt>
<wgt id='1885'> +1.3334127e-12 </wgt>
<wgt id='1886'> +1.3467020e-12 </wgt>
<wgt id='1887'> +1.3310376e-12 </wgt>
<wgt id='1888'> +1.3489089e-12 </wgt>
<wgt id='1889'> +1.3235759e-12 </wgt>
<wgt id='1890'> +1.4278299e-12 </wgt>
<wgt id='1891'> +1.3197517e-12 </wgt>
<wgt id='1892'> +1.4209060e-12 </wgt>
<wgt id='1893'> +1.3379828e-12 </wgt>
<wgt id='1894'> +1.3198724e-12 </wgt>
<wgt id='1895'> +1.3177876e-12 </wgt>
<wgt id='1896'> +1.3185783e-12 </wgt>
<wgt id='1897'> +1.3638033e-12 </wgt>
<wgt id='1898'> +1.3478401e-12 </wgt>
<wgt id='1899'> +1.3004404e-12 </wgt>
<wgt id='1900'> +1.3383578e-12 </wgt>
<wgt id='1901'> +1.3304262e-12 </wgt>
<wgt id='1902'> +1.3181636e-12 </wgt>
<wgt id='1903'> +1.3605410e-12 </wgt>
<wgt id='1904'> +1.3357307e-12 </wgt>
<wgt id='1905'> +1.2961789e-12 </wgt>
<wgt id='1906'> +1.3430054e-12 </wgt>
<wgt id='1907'> +1.3531136e-12 </wgt>
<wgt id='1908'> +1.3005348e-12 </wgt>
<wgt id='1909'> +1.3068653e-12 </wgt>
<wgt id='1910'> +1.3118720e-12 </wgt>
<wgt id='1911'> +1.3110891e-12 </wgt>
<wgt id='1912'> +1.3142118e-12 </wgt>
<wgt id='1913'> +1.3062245e-12 </wgt>
<wgt id='1914'> +1.3486463e-12 </wgt>
<wgt id='1915'> +1.3134213e-12 </wgt>
<wgt id='1916'> +1.2589369e-12 </wgt>
<wgt id='1917'> +1.3312232e-12 </wgt>
<wgt id='1918'> +1.3556108e-12 </wgt>
<wgt id='1919'> +1.2981429e-12 </wgt>
</rwgt>
</event>
<event>
 9      1 +1.5538000e-12 5.56161700e+01 7.81860800e-03 1.28601200e-01
       21 -1    0    0  501  502 +0.0000000000e+00 +0.0000000000e+00 +8.2660851591e-01 8.2660851591e-01 0.0000000000e+00 0.0000e+00 -1.0000e+00
        2 -1    0    0  502    0 -0.0000000000e+00 -0.0000000000e+00 -9.3549679607e+02 9.3549679607e+02 0.0000000000e+00 0.0000e+00 -1.0000e+00
     1023  2    1    2    0    0 +2.3957008452e+01 -8.9929321020e+00 -5.5473815100e+02 5.5553059546e+02 1.5000507846e+01 0.0000e+00 0.0000e+00
  1000023  2    3    3    0    0 +1.5105085042e+01 -2.9743623408e+00 -4.0378820743e+02 4.0411901997e+02 5.5004920471e+00 0.0000e+00 0.0000e+00
        2  1    1    2  501    0 -2.3957008452e+01 +8.9929321020e+00 -3.7993203655e+02 3.8079280912e+02 0.0000000000e+00 0.0000e+00 -1.0000e+00
  1000022  1    4    4    0    0 +1.3730313324e+01 -2.2582972049e+00 -3.6268517710e+02 3.6298644479e+02 5.0000000000e+00 0.0000e+00 1.0000e+00
      -11  1    4    4    0    0 +5.8576903035e-01 -3.2720720400e-01 -1.9895580187e+01 1.9906890796e+01 5.1100000000e-04 0.0000e+00 1.0000e+00
       11  1    4    4    0    0 +7.8900268722e-01 -3.8885793192e-01 -2.1207450143e+01 2.1225684384e+01 5.1100000000e-04 0.0000e+00 -1.0000e+00
  1000022  1    3    3    0    0 +8.8519234099e+00 -6.0185697612e+00 -1.5094994357e+02 1.5141157549e+02 5.0000000000e+00 0.0000e+00 -1.0000e+00
<mgrwt>
<rscale>  1 0.55616171E+02</rscale>
<asrwt>0</asrwt>
<pdfrwt beam="1">  1       21 0.12717159E-03 0.55616171E+02</pdfrwt>
<pdfrwt beam="2">  1        2 0.14392140E+00 0.55616171E+02</pdfrwt>
<totfact> 0.22235272E+07</totfact>
</mgrwt>
<rwgt>
<wgt id='1001'> +1.5538000e-12 </wgt>
<wgt id='1002'> +1.5458402e-12 </wgt>
<wgt id='1003'> +1.5500611e-12 </wgt>
<wgt id='1004'> +1.4458458e-12 </wgt>
<wgt id='1005'> +1.5538000e-12 </wgt>
<wgt id='1006'> +1.3802044e-12 </wgt>
<wgt id='1007'> +1.3709876e-12 </wgt>
<wgt id='1008'> +1.3758610e-12 </wgt>
<wgt id='1009'> +1.2612269e-12 </wgt>
<wgt id='1010'> +1.3802044e-12 </wgt>
<wgt id='1011'> +1.7794933e-12 </wgt>
<wgt id='1012'> +1.7740662e-12 </wgt>
<wgt id='1013'> +1.7769598e-12 </wgt>
<wgt id='1014'> +1.6970222e-12 </wgt>
<wgt id='1015'> +1.7794933e-12 </wgt>
<wgt id='1016'> +1.8089284e-12 </wgt>
<wgt id='1017'> +1.8074964e-12 </wgt>
<wgt id='1018'> +1.8082797e-12 </wgt>
<wgt id='1019'> +1.7769598e-12 </wgt>
<wgt id='1020'> +1.8089284e-12 </wgt>
<wgt id='1021'> +1.6068291e-12 </wgt>
<wgt id='1022'> +1.6030474e-12 </wgt>
<wgt id='1023'> +1.6050603e-12 </wgt>
<wgt id='1024'> +1.5500611e-12 </wgt>
<wgt id='1025'> +1.6068291e-12 </wgt>
<wgt id='1026'> +2.0716797e-12 </wgt>
<wgt id='1027'> +2.0743530e-12 </wgt>
<wgt id='1028'> +2.0729765e-12 </wgt>
<wgt id='1029'> +2.0856582e-12 </wgt>
<wgt id='1030'> +2.0716797e-12 </wgt>
<wgt id='1031'> +1.2683131e-12 </wgt>
<wgt id='1032'> +1.2533821e-12 </wgt>
<wgt id='1033'> +1.2612269e-12 </wgt>
<wgt id='1034'> +1.0826861e-12 </wgt>
<wgt id='1035'> +1.2683131e-12 </wgt>
<wgt id='1036'> +1.1266131e-12 </wgt>
<wgt id='1037'> +1.1116099e-12 </wgt>
<wgt id='1038'> +1.1194868e-12 </wgt>
<wgt id='1039'> +9.4443871e-13 </wgt>
<wgt id='1040'> +1.1266131e-12 </wgt>
<wgt id='1041'> +1.4525388e-12 </wgt>
<wgt id='1042'> +1.4384299e-12 </wgt>
<wgt id='1043'> +1.4458458e-12 </wgt>
<wgt id='1044'> +1.2707733e-12 </wgt>
<wgt id='1045'> +1.4525388e-12 </wgt>
<wgt id='1046'> +1.5538000e-12 </wgt>
<wgt id='1047'> +1.5572412e-12 </wgt>
<wgt id='1048'> +1.6217591e-12 </wgt>
<wgt id='1049'> +1.5140939e-12 </wgt>
<wgt id='1050'> +1.5280819e-12 </wgt>
<wgt id='1051'> +1.5207100e-12 </wgt>
<wgt id='1052'> +1.5243205e-12 </wgt>
<wgt id='1053'> +1.6206794e-12 </wgt>
<wgt id='1054'> +1.5884179e-12 </wgt>
<wgt id='1055'> +1.5322071e-12 </wgt>
<wgt id='1056'> +1.4624890e-12 </wgt>
<wgt id='1057'> +1.5417935e-12 </wgt>
<wgt id='1058'> +1.5169990e-12 </wgt>
<wgt id='1059'> +1.5624336e-12 </wgt>
<wgt id='1060'> +1.5736849e-12 </wgt>
<wgt id='1061'> +1.5837688e-12 </wgt>
<wgt id='1062'> +1.5297573e-12 </wgt>
<wgt id='1063'> +1.4829455e-12 </wgt>
<wgt id='1064'> +1.5523496e-12 </wgt>
<wgt id='1065'> +1.5931944e-12 </wgt>
<wgt id='1066'> +1.5556639e-12 </wgt>
<wgt id='1067'> +1.5895531e-12 </wgt>
<wgt id='1068'> +1.6105993e-12 </wgt>
<wgt id='1069'> +1.6175249e-12 </wgt>
<wgt id='1070'> +1.5448880e-12 </wgt>
<wgt id='1071'> +1.5688119e-12 </wgt>
<wgt id='1072'> +1.5694997e-12 </wgt>
<wgt id='1073'> +1.5187334e-12 </wgt>
<wgt id='1074'> +1.5635284e-12 </wgt>
<wgt id='1075'> +1.5234920e-12 </wgt>
<wgt id='1076'> +1.5594072e-12 </wgt>
<wgt id='1077'> +1.5662847e-12 </wgt>
<wgt id='1078'> +1.5455277e-12 </wgt>
<wgt id='1079'> +1.5678833e-12 </wgt>
<wgt id='1080'> +1.5319000e-12 </wgt>
<wgt id='1081'> +1.5128580e-12 </wgt>
<wgt id='1082'> +1.5673382e-12 </wgt>
<wgt id='1083'> +1.5446980e-12 </wgt>
<wgt id='1084'> +1.5434649e-12 </wgt>
<wgt id='1085'> +1.5850030e-12 </wgt>
<wgt id='1086'> +1.6119534e-12 </wgt>
<wgt id='1087'> +1.5356546e-12 </wgt>
<wgt id='1088'> +1.5478790e-12 </wgt>
<wgt id='1089'> +1.5183629e-12 </wgt>
<wgt id='1090'> +1.5494862e-12 </wgt>
<wgt id='1091'> +1.5790857e-12 </wgt>
<wgt id='1092'> +1.5369022e-12 </wgt>
<wgt id='1093'> +1.5896042e-12 </wgt>
<wgt id='1094'> +1.5828176e-12 </wgt>
<wgt id='1095'> +1.5947174e-12 </wgt>
<wgt id='1096'> +1.4974385e-12 </wgt>
<wgt id='1097'> +1.5679518e-12 </wgt>
<wgt id='1098'> +1.5865023e-12 </wgt>
<wgt id='1099'> +1.5512109e-12 </wgt>
<wgt id='1100'> +1.5896778e-12 </wgt>
<wgt id='1101'> +1.5652739e-12 </wgt>
<wgt id='1102'> +1.5105494e-12 </wgt>
<wgt id='1103'> +1.5212807e-12 </wgt>
<wgt id='1104'> +1.5654430e-12 </wgt>
<wgt id='1105'> +1.5043548e-12 </wgt>
<wgt id='1106'> +1.5461286e-12 </wgt>
<wgt id='1107'> +1.5991974e-12 </wgt>
<wgt id='1108'> +1.5396120e-12 </wgt>
<wgt id='1109'> +1.5439114e-12 </wgt>
<wgt id='1110'> +1.5549099e-12 </wgt>
<wgt id='1111'> +1.5638275e-12 </wgt>
<wgt id='1112'> +1.5835487e-12 </wgt>
<wgt id='1113'> +1.6286968e-12 </wgt>
<wgt id='1114'> +1.5788125e-12 </wgt>
<wgt id='1115'> +1.5874012e-12 </wgt>
<wgt id='1116'> +1.6250670e-12 </wgt>
<wgt id='1117'> +1.5491831e-12 </wgt>
<wgt id='1118'> +1.5589397e-12 </wgt>
<wgt id='1119'> +1.5163263e-12 </wgt>
<wgt id='1120'> +1.5518001e-12 </wgt>
<wgt id='1121'> +1.5152467e-12 </wgt>
<wgt id='1122'> +1.5312376e-12 </wgt>
<wgt id='1123'> +1.5763650e-12 </wgt>
<wgt id='1124'> +1.6050887e-12 </wgt>
<wgt id='1125'> +1.4951786e-12 </wgt>
<wgt id='1126'> +1.5211946e-12 </wgt>
<wgt id='1127'> +1.5561805e-12 </wgt>
<wgt id='1128'> +1.5297573e-12 </wgt>
<wgt id='1129'> +1.5274001e-12 </wgt>
<wgt id='1130'> +1.5432839e-12 </wgt>
<wgt id='1131'> +1.5853734e-12 </wgt>
<wgt id='1132'> +1.5598973e-12 </wgt>
<wgt id='1133'> +1.5495653e-12 </wgt>
<wgt id='1134'> +1.5180587e-12 </wgt>
<wgt id='1135'> +1.4947473e-12 </wgt>
<wgt id='1136'> +1.5202819e-12 </wgt>
<wgt id='1137'> +1.5567286e-12 </wgt>
<wgt id='1138'> +1.5406378e-12 </wgt>
<wgt id='1139'> +1.5505270e-12 </wgt>
<wgt id='1140'> +1.5646023e-12 </wgt>
<wgt id='1141'> +1.5415967e-12 </wgt>
<wgt id='1142'> +1.5945142e-12 </wgt>
<wgt id='1143'> +1.4872872e-12 </wgt>
<wgt id='1144'> +1.5551861e-12 </wgt>
<wgt id='1145'> +1.5722236e-12 </wgt>
<wgt id='1146'> +1.5583761e-12 </wgt>
<wgt id='1147'> +1.4228111e-12 </wgt>
<wgt id='1148'> +1.4486296e-12 </wgt>
<wgt id='1149'> +1.3707493e-12 </wgt>
<wgt id='1150'> +1.4354863e-12 </wgt>
<wgt id='1151'> +1.6974618e-12 </wgt>
<wgt id='1152'> +2.3949970e-12 </wgt>
<wgt id='1153'> +2.4009674e-12 </wgt>
<wgt id='1154'> +2.3915773e-12 </wgt>
<wgt id='1155'> +2.3896524e-12 </wgt>
<wgt id='1156'> +2.3977201e-12 </wgt>
<wgt id='1157'> +2.3997450e-12 </wgt>
<wgt id='1158'> +2.3886533e-12 </wgt>
<wgt id='1159'> +2.3986861e-12 </wgt>
<wgt id='1160'> +2.3926084e-12 </wgt>
<wgt id='1161'> +2.3896517e-12 </wgt>
<wgt id='1162'> +2.3987524e-12 </wgt>
<wgt id='1163'> +2.3939003e-12 </wgt>
<wgt id='1164'> +2.3962423e-12 </wgt>
<wgt id='1165'> +2.3996566e-12 </wgt>
<wgt id='1166'> +2.3904318e-12 </wgt>
<wgt id='1167'> +2.4281826e-12 </wgt>
<wgt id='1168'> +2.3554664e-12 </wgt>
<wgt id='1169'> +2.4054379e-12 </wgt>
<wgt id='1170'> +2.3871387e-12 </wgt>
<wgt id='1171'> +2.3875477e-12 </wgt>
<wgt id='1172'> +2.4043532e-12 </wgt>
<wgt id='1173'> +2.3660372e-12 </wgt>
<wgt id='1174'> +2.4254838e-12 </wgt>
<wgt id='1175'> +2.3979419e-12 </wgt>
<wgt id='1176'> +2.3924903e-12 </wgt>
<wgt id='1177'> +2.3910112e-12 </wgt>
<wgt id='1178'> +2.4043411e-12 </wgt>
<wgt id='1179'> +2.3896029e-12 </wgt>
<wgt id='1180'> +2.3953452e-12 </wgt>
<wgt id='1181'> +2.3985618e-12 </wgt>
<wgt id='1182'> +2.3902391e-12 </wgt>
<wgt id='1183'> +2.3954219e-12 </wgt>
<wgt id='1184'> +2.3948961e-12 </wgt>
<wgt id='1185'> +2.3886619e-12 </wgt>
<wgt id='1186'> +2.3976182e-12 </wgt>
<wgt id='1187'> +2.3992220e-12 </wgt>
<wgt id='1188'> +2.3935282e-12 </wgt>
<wgt id='1189'> +2.3872137e-12 </wgt>
<wgt id='1190'> +2.3704705e-12 </wgt>
<wgt id='1191'> +2.3973354e-12 </wgt>
<wgt id='1192'> +2.4070465e-12 </wgt>
<wgt id='1193'> +1.4274325e-12 </wgt>
<wgt id='1194'> +1.4080608e-12 </wgt>
<wgt id='1195'> +1.4433658e-12 </wgt>
<wgt id='1196'> +1.4239230e-12 </wgt>
<wgt id='1197'> +1.4313663e-12 </wgt>
<wgt id='1198'> +1.4262621e-12 </wgt>
<wgt id='1199'> +1.4292417e-12 </wgt>
<wgt id='1200'> +1.4241320e-12 </wgt>
<wgt id='1201'> +1.4297023e-12 </wgt>
<wgt id='1202'> +1.4267441e-12 </wgt>
<wgt id='1203'> +1.4284140e-12 </wgt>
<wgt id='1204'> +1.4229421e-12 </wgt>
<wgt id='1205'> +1.4300015e-12 </wgt>
<wgt id='1206'> +1.4305904e-12 </wgt>
<wgt id='1207'> +1.4230827e-12 </wgt>
<wgt id='1208'> +1.4372707e-12 </wgt>
<wgt id='1209'> +1.4239973e-12 </wgt>
<wgt id='1210'> +1.4355208e-12 </wgt>
<wgt id='1211'> +1.4200446e-12 </wgt>
<wgt id='1212'> +1.4258666e-12 </wgt>
<wgt id='1213'> +1.4296420e-12 </wgt>
<wgt id='1214'> +1.4156068e-12 </wgt>
<wgt id='1215'> +1.4415686e-12 </wgt>
<wgt id='1216'> +1.4369560e-12 </wgt>
<wgt id='1217'> +1.4208697e-12 </wgt>
<wgt id='1218'> +1.4311234e-12 </wgt>
<wgt id='1219'> +1.4253196e-12 </wgt>
<wgt id='1220'> +1.4363023e-12 </wgt>
<wgt id='1221'> +1.4257541e-12 </wgt>
<wgt id='1222'> +1.4504571e-12 </wgt>
<wgt id='1223'> +1.3959913e-12 </wgt>
<wgt id='1224'> +1.4306765e-12 </wgt>
<wgt id='1225'> +1.4261811e-12 </wgt>
<wgt id='1226'> +1.4252071e-12 </wgt>
<wgt id='1227'> +1.4291621e-12 </wgt>
<wgt id='1228'> +1.4243877e-12 </wgt>
<wgt id='1229'> +1.4286725e-12 </wgt>
<wgt id='1230'> +1.4286664e-12 </wgt>
<wgt id='1231'> +1.4399754e-12 </wgt>
<wgt id='1232'> +1.4310497e-12 </wgt>
<wgt id='1233'> +1.4265246e-12 </wgt>
<wgt id='1234'> +1.4274325e-12 </wgt>
<wgt id='1235'> +1.4206217e-12 </wgt>
<wgt id='1236'> +1.4232980e-12 </wgt>
<wgt id='1237'> +1.4256172e-12 </wgt>
<wgt id='1238'> +1.4294278e-12 </wgt>
<wgt id='1239'> +1.4309039e-12 </wgt>
<wgt id='1240'> +1.4325114e-12 </wgt>
<wgt id='1241'> +1.3486399e-12 </wgt>
<wgt id='1242'> +1.3309122e-12 </wgt>
<wgt id='1243'> +1.3661560e-12 </wgt>
<wgt id='1244'> +1.3568132e-12 </wgt>
<wgt id='1245'> +1.3425968e-12 </wgt>
<wgt id='1246'> +1.3445459e-12 </wgt>
<wgt id='1247'> +1.3521408e-12 </wgt>
<wgt id='1248'> +1.3486846e-12 </wgt>
<wgt id='1249'> +1.3486172e-12 </wgt>
<wgt id='1250'> +1.3495612e-12 </wgt>
<wgt id='1251'> +1.3480421e-12 </wgt>
<wgt id='1252'> +1.3457475e-12 </wgt>
<wgt id='1253'> +1.3508979e-12 </wgt>
<wgt id='1254'> +1.3449797e-12 </wgt>
<wgt id='1255'> +1.3507314e-12 </wgt>
<wgt id='1256'> +1.3448969e-12 </wgt>
<wgt id='1257'> +1.3581593e-12 </wgt>
<wgt id='1258'> +1.3564128e-12 </wgt>
<wgt id='1259'> +1.3387758e-12 </wgt>
<wgt id='1260'> +1.3508131e-12 </wgt>
<wgt id='1261'> +1.3465491e-12 </wgt>
<wgt id='1262'> +1.3515685e-12 </wgt>
<wgt id='1263'> +1.3475528e-12 </wgt>
<wgt id='1264'> +1.3529936e-12 </wgt>
<wgt id='1265'> +1.3469096e-12 </wgt>
<wgt id='1266'> +1.3259711e-12 </wgt>
<wgt id='1267'> +1.3703300e-12 </wgt>
<wgt id='1268'> +1.3572514e-12 </wgt>
<wgt id='1269'> +1.3411941e-12 </wgt>
<wgt id='1270'> +1.3619211e-12 </wgt>
<wgt id='1271'> +1.3516108e-12 </wgt>
<wgt id='1272'> +1.3536264e-12 </wgt>
<wgt id='1273'> +1.3483043e-12 </wgt>
<wgt id='1274'> +1.3505929e-12 </wgt>
<wgt id='1275'> +1.3460477e-12 </wgt>
<wgt id='1276'> +1.3514097e-12 </wgt>
<wgt id='1277'> +1.3455575e-12 </wgt>
<wgt id='1278'> +1.3657934e-12 </wgt>
<wgt id='1279'> +1.3522962e-12 </wgt>
<wgt id='1280'> +1.3488144e-12 </wgt>
<wgt id='1281'> +1.3542437e-12 </wgt>
<wgt id='1282'> +1.3486399e-12 </wgt>
<wgt id='1283'> +1.3424610e-12 </wgt>
<wgt id='1284'> +1.3450425e-12 </wgt>
<wgt id='1285'> +1.3470391e-12 </wgt>
<wgt id='1286'> +1.3503682e-12 </wgt>
<wgt id='1287'> +1.3514341e-12 </wgt>
<wgt id='1288'> +1.3523656e-12 </wgt>
<wgt id='1289'> +1.4795939e-12 </wgt>
<wgt id='1290'> +1.4844893e-12 </wgt>
<wgt id='1291'> +1.4742970e-12 </wgt>
<wgt id='1292'> +1.4808318e-12 </wgt>
<wgt id='1293'> +1.4786840e-12 </wgt>
<wgt id='1294'> +1.4616949e-12 </wgt>
<wgt id='1295'> +1.4967683e-12 </wgt>
<wgt id='1296'> +1.4892048e-12 </wgt>
<wgt id='1297'> +1.4675770e-12 </wgt>
<wgt id='1298'> +1.4875665e-12 </wgt>
<wgt id='1299'> +1.4694691e-12 </wgt>
<wgt id='1300'> +1.4827541e-12 </wgt>
<wgt id='1301'> +1.4732087e-12 </wgt>
<wgt id='1302'> +1.4751894e-12 </wgt>
<wgt id='1303'> +1.4856428e-12 </wgt>
<wgt id='1304'> +1.4779951e-12 </wgt>
<wgt id='1305'> +1.4806177e-12 </wgt>
<wgt id='1306'> +1.4837196e-12 </wgt>
<wgt id='1307'> +1.4747490e-12 </wgt>
<wgt id='1308'> +1.4732046e-12 </wgt>
<wgt id='1309'> +1.4844425e-12 </wgt>
<wgt id='1310'> +1.4828411e-12 </wgt>
<wgt id='1311'> +1.4764062e-12 </wgt>
<wgt id='1312'> +1.4889406e-12 </wgt>
<wgt id='1313'> +1.4709832e-12 </wgt>
<wgt id='1314'> +1.4634002e-12 </wgt>
<wgt id='1315'> +1.4953155e-12 </wgt>
<wgt id='1316'> +1.4867092e-12 </wgt>
<wgt id='1317'> +1.4818615e-12 </wgt>
<wgt id='1318'> +1.4886790e-12 </wgt>
<wgt id='1319'> +1.4673083e-12 </wgt>
<wgt id='1320'> +1.4979266e-12 </wgt>
<wgt id='1321'> +1.4626052e-12 </wgt>
<wgt id='1322'> +1.4796074e-12 </wgt>
<wgt id='1323'> +1.4796353e-12 </wgt>
<wgt id='1324'> +1.4773792e-12 </wgt>
<wgt id='1325'> +1.4832655e-12 </wgt>
<wgt id='1326'> +1.4785021e-12 </wgt>
<wgt id='1327'> +1.4835614e-12 </wgt>
<wgt id='1328'> +1.4788713e-12 </wgt>
<wgt id='1329'> +1.4795766e-12 </wgt>
<wgt id='1330'> +1.4857207e-12 </wgt>
<wgt id='1331'> +1.4731871e-12 </wgt>
<wgt id='1332'> +1.4905000e-12 </wgt>
<wgt id='1333'> +1.4867866e-12 </wgt>
<wgt id='1334'> +1.4778855e-12 </wgt>
<wgt id='1335'> +1.4844409e-12 </wgt>
<wgt id='1336'> +1.4832478e-12 </wgt>
<wgt id='1337'> +1.4888928e-12 </wgt>
<wgt id='1338'> +1.4806334e-12 </wgt>
<wgt id='1339'> +1.4821173e-12 </wgt>
<wgt id='1340'> +1.4457582e-12 </wgt>
<wgt id='1341'> +1.4504481e-12 </wgt>
<wgt id='1342'> +1.4407059e-12 </wgt>
<wgt id='1343'> +1.4471420e-12 </wgt>
<wgt id='1344'> +1.4448092e-12 </wgt>
<wgt id='1345'> +1.4271661e-12 </wgt>
<wgt id='1346'> +1.4629278e-12 </wgt>
<wgt id='1347'> +1.4561394e-12 </wgt>
<wgt id='1348'> +1.4341082e-12 </wgt>
<wgt id='1349'> +1.4533469e-12 </wgt>
<wgt id='1350'> +1.4382376e-12 </wgt>
<wgt id='1351'> +1.4487668e-12 </wgt>
<wgt id='1352'> +1.4391480e-12 </wgt>
<wgt id='1353'> +1.4403841e-12 </wgt>
<wgt id='1354'> +1.4553508e-12 </wgt>
<wgt id='1355'> +1.4452137e-12 </wgt>
<wgt id='1356'> +1.4460317e-12 </wgt>
<wgt id='1357'> +1.4488514e-12 </wgt>
<wgt id='1358'> +1.4418861e-12 </wgt>
<wgt id='1359'> +1.4387895e-12 </wgt>
<wgt id='1360'> +1.4518074e-12 </wgt>
<wgt id='1361'> +1.4492973e-12 </wgt>
<wgt id='1362'> +1.4414011e-12 </wgt>
<wgt id='1363'> +1.4611930e-12 </wgt>
<wgt id='1364'> +1.4363407e-12 </wgt>
<wgt id='1365'> +1.4525364e-12 </wgt>
<wgt id='1366'> +1.4335672e-12 </wgt>
<wgt id='1367'> +1.4529527e-12 </wgt>
<wgt id='1368'> +1.4465072e-12 </wgt>
<wgt id='1369'> +1.4528026e-12 </wgt>
<wgt id='1370'> +1.4366027e-12 </wgt>
<wgt id='1371'> +1.4606092e-12 </wgt>
<wgt id='1372'> +1.4267762e-12 </wgt>
<wgt id='1373'> +1.4423846e-12 </wgt>
<wgt id='1374'> +1.4487009e-12 </wgt>
<wgt id='1375'> +1.4435207e-12 </wgt>
<wgt id='1376'> +1.4497518e-12 </wgt>
<wgt id='1377'> +1.4450499e-12 </wgt>
<wgt id='1378'> +1.4496720e-12 </wgt>
<wgt id='1379'> +1.4452808e-12 </wgt>
<wgt id='1380'> +1.4455257e-12 </wgt>
<wgt id='1381'> +1.4520398e-12 </wgt>
<wgt id='1382'> +1.4398348e-12 </wgt>
<wgt id='1383'> +1.4542970e-12 </wgt>
<wgt id='1384'> +1.4536047e-12 </wgt>
<wgt id='1385'> +1.4443075e-12 </wgt>
<wgt id='1386'> +1.4494892e-12 </wgt>
<wgt id='1387'> +1.4500946e-12 </wgt>
<wgt id='1388'> +1.4553348e-12 </wgt>
<wgt id='1389'> +1.4470082e-12 </wgt>
<wgt id='1390'> +1.4494450e-12 </wgt>
<wgt id='1391'> +1.4203538e-12 </wgt>
<wgt id='1392'> +1.3725016e-12 </wgt>
<wgt id='1393'> +1.3890992e-12 </wgt>
<wgt id='1394'> +1.4050437e-12 </wgt>
<wgt id='1395'> +1.4367840e-12 </wgt>
<wgt id='1396'> +1.4208955e-12 </wgt>
<wgt id='1397'> +1.4012138e-12 </wgt>
<wgt id='1398'> +1.4038064e-12 </wgt>
<wgt id='1399'> +1.4069272e-12 </wgt>
<wgt id='1400'> +1.4109703e-12 </wgt>
<wgt id='1401'> +1.4158385e-12 </wgt>
<wgt id='1402'> +1.4258283e-12 </wgt>
<wgt id='1403'> +1.4312662e-12 </wgt>
<wgt id='1404'> +1.4368740e-12 </wgt>
<wgt id='1405'> +1.4208955e-12 </wgt>
<wgt id='1406'> +1.4169021e-12 </wgt>
<wgt id='1407'> +1.4189284e-12 </wgt>
<wgt id='1408'> +1.4226898e-12 </wgt>
<wgt id='1409'> +1.4238936e-12 </wgt>
<wgt id='1410'> +1.3230169e-12 </wgt>
<wgt id='1411'> +1.3314960e-12 </wgt>
<wgt id='1412'> +1.3121038e-12 </wgt>
<wgt id='1413'> +1.3125097e-12 </wgt>
<wgt id='1414'> +1.3334270e-12 </wgt>
<wgt id='1415'> +1.3193396e-12 </wgt>
<wgt id='1416'> +1.3244804e-12 </wgt>
<wgt id='1417'> +1.3233804e-12 </wgt>
<wgt id='1418'> +1.3225418e-12 </wgt>
<wgt id='1419'> +1.3247826e-12 </wgt>
<wgt id='1420'> +1.3212555e-12 </wgt>
<wgt id='1421'> +1.3099232e-12 </wgt>
<wgt id='1422'> +1.3285054e-12 </wgt>
<wgt id='1423'> +1.3218296e-12 </wgt>
<wgt id='1424'> +1.3244493e-12 </wgt>
<wgt id='1425'> +1.3147366e-12 </wgt>
<wgt id='1426'> +1.3319166e-12 </wgt>
<wgt id='1427'> +1.3111078e-12 </wgt>
<wgt id='1428'> +1.3292778e-12 </wgt>
<wgt id='1429'> +1.3265649e-12 </wgt>
<wgt id='1430'> +1.3183400e-12 </wgt>
<wgt id='1431'> +1.3233483e-12 </wgt>
<wgt id='1432'> +1.3227628e-12 </wgt>
<wgt id='1433'> +1.3052364e-12 </wgt>
<wgt id='1434'> +1.3378060e-12 </wgt>
<wgt id='1435'> +1.3159777e-12 </wgt>
<wgt id='1436'> +1.3413810e-12 </wgt>
<wgt id='1437'> +1.3292028e-12 </wgt>
<wgt id='1438'> +1.3279437e-12 </wgt>
<wgt id='1439'> +1.3165894e-12 </wgt>
<wgt id='1440'> +1.3329764e-12 </wgt>
<wgt id='1441'> +1.3288307e-12 </wgt>
<wgt id='1442'> +1.3098623e-12 </wgt>
<wgt id='1443'> +1.3193107e-12 </wgt>
<wgt id='1444'> +1.3314679e-12 </wgt>
<wgt id='1445'> +1.3324025e-12 </wgt>
<wgt id='1446'> +1.3194518e-12 </wgt>
<wgt id='1447'> +1.3247810e-12 </wgt>
<wgt id='1448'> +1.3258714e-12 </wgt>
<wgt id='1449'> +1.3228453e-12 </wgt>
<wgt id='1450'> +1.3221872e-12 </wgt>
<wgt id='1451'> +1.3220271e-12 </wgt>
<wgt id='1452'> +1.3287876e-12 </wgt>
<wgt id='1453'> +1.3235578e-12 </wgt>
<wgt id='1454'> +1.3258152e-12 </wgt>
<wgt id='1455'> +1.3346881e-12 </wgt>
<wgt id='1456'> +1.3327762e-12 </wgt>
<wgt id='1457'> +1.3309613e-12 </wgt>
<wgt id='1458'> +1.3217181e-12 </wgt>
<wgt id='1459'> +1.3296646e-12 </wgt>
<wgt id='1460'> +1.3361647e-12 </wgt>
<wgt id='1461'> +1.3230169e-12 </wgt>
<wgt id='1462'> +1.3114439e-12 </wgt>
<wgt id='1463'> +1.3303421e-12 </wgt>
<wgt id='1464'> +1.3208440e-12 </wgt>
<wgt id='1465'> +1.2977304e-12 </wgt>
<wgt id='1466'> +1.3010874e-12 </wgt>
<wgt id='1467'> +1.3052516e-12 </wgt>
<wgt id='1468'> +1.3124363e-12 </wgt>
<wgt id='1469'> +1.3158024e-12 </wgt>
<wgt id='1470'> +1.3262379e-12 </wgt>
<wgt id='1471'> +1.3312903e-12 </wgt>
<wgt id='1472'> +1.3364878e-12 </wgt>
<wgt id='1473'> +1.3208440e-12 </wgt>
<wgt id='1474'> +1.3176780e-12 </wgt>
<wgt id='1475'> +1.3200063e-12 </wgt>
<wgt id='1476'> +1.3218904e-12 </wgt>
<wgt id='1477'> +1.3227923e-12 </wgt>
<wgt id='1478'> +1.3913357e-12 </wgt>
<wgt id='1479'> +1.3921469e-12 </wgt>
<wgt id='1480'> +1.3782471e-12 </wgt>
<wgt id='1481'> +1.4189557e-12 </wgt>
<wgt id='1482'> +1.3939745e-12 </wgt>
<wgt id='1483'> +1.3766466e-12 </wgt>
<wgt id='1484'> +1.3798744e-12 </wgt>
<wgt id='1485'> +1.4025520e-12 </wgt>
<wgt id='1486'> +1.3907643e-12 </wgt>
<wgt id='1487'> +1.4029147e-12 </wgt>
<wgt id='1488'> +1.3888456e-12 </wgt>
<wgt id='1489'> +1.3926996e-12 </wgt>
<wgt id='1490'> +1.3880619e-12 </wgt>
<wgt id='1491'> +1.3975312e-12 </wgt>
<wgt id='1492'> +1.3914842e-12 </wgt>
<wgt id='1493'> +1.3724874e-12 </wgt>
<wgt id='1494'> +1.3872061e-12 </wgt>
<wgt id='1495'> +1.3825801e-12 </wgt>
<wgt id='1496'> +1.3923301e-12 </wgt>
<wgt id='1497'> +1.3912331e-12 </wgt>
<wgt id='1498'> +1.3916799e-12 </wgt>
<wgt id='1499'> +1.3944440e-12 </wgt>
<wgt id='1500'> +1.3936835e-12 </wgt>
<wgt id='1501'> +1.3925212e-12 </wgt>
<wgt id='1502'> +1.3898019e-12 </wgt>
<wgt id='1503'> +1.3961808e-12 </wgt>
<wgt id='1504'> +1.3857303e-12 </wgt>
<wgt id='1505'> +1.3961701e-12 </wgt>
<wgt id='1506'> +1.3933243e-12 </wgt>
<wgt id='1507'> +1.3916054e-12 </wgt>
<wgt id='1508'> +1.3940228e-12 </wgt>
<wgt id='1509'> +1.3409169e-12 </wgt>
<wgt id='1510'> +1.3464463e-12 </wgt>
<wgt id='1511'> +1.3205976e-12 </wgt>
<wgt id='1512'> +1.3299327e-12 </wgt>
<wgt id='1513'> +1.3386784e-12 </wgt>
<wgt id='1514'> +1.3448574e-12 </wgt>
<wgt id='1515'> +1.3445513e-12 </wgt>
<wgt id='1516'> +1.3424434e-12 </wgt>
<wgt id='1517'> +1.3420882e-12 </wgt>
<wgt id='1518'> +1.3398451e-12 </wgt>
<wgt id='1519'> +1.3427452e-12 </wgt>
<wgt id='1520'> +1.3429424e-12 </wgt>
<wgt id='1521'> +1.3405384e-12 </wgt>
<wgt id='1522'> +1.3433051e-12 </wgt>
<wgt id='1523'> +1.3436974e-12 </wgt>
<wgt id='1524'> +1.3392494e-12 </wgt>
<wgt id='1525'> +1.3406621e-12 </wgt>
<wgt id='1526'> +1.3422019e-12 </wgt>
<wgt id='1527'> +1.3409852e-12 </wgt>
<wgt id='1528'> +1.3419109e-12 </wgt>
<wgt id='1529'> +1.3423540e-12 </wgt>
<wgt id='1530'> +1.3414184e-12 </wgt>
<wgt id='1531'> +1.3430260e-12 </wgt>
<wgt id='1532'> +1.3375358e-12 </wgt>
<wgt id='1533'> +1.3410179e-12 </wgt>
<wgt id='1534'> +1.3415357e-12 </wgt>
<wgt id='1535'> +1.3370571e-12 </wgt>
<wgt id='1536'> +1.3449802e-12 </wgt>
<wgt id='1537'> +1.3439820e-12 </wgt>
<wgt id='1538'> +1.3272933e-12 </wgt>
<wgt id='1539'> +1.3383732e-12 </wgt>
<wgt id='1540'> +1.3397860e-12 </wgt>
<wgt id='1541'> +1.3380887e-12 </wgt>
<wgt id='1542'> +1.3390574e-12 </wgt>
<wgt id='1543'> +1.3417226e-12 </wgt>
<wgt id='1544'> +1.3389453e-12 </wgt>
<wgt id='1545'> +1.3397427e-12 </wgt>
<wgt id='1546'> +1.3419206e-12 </wgt>
<wgt id='1547'> +1.3397221e-12 </wgt>
<wgt id='1548'> +1.3417328e-12 </wgt>
<wgt id='1549'> +1.3398014e-12 </wgt>
<wgt id='1550'> +1.3411112e-12 </wgt>
<wgt id='1551'> +1.3404918e-12 </wgt>
<wgt id='1552'> +1.3426287e-12 </wgt>
<wgt id='1553'> +1.3410639e-12 </wgt>
<wgt id='1554'> +1.3401569e-12 </wgt>
<wgt id='1555'> +1.3425356e-12 </wgt>
<wgt id='1556'> +1.3438150e-12 </wgt>
<wgt id='1557'> +1.3406999e-12 </wgt>
<wgt id='1558'> +1.3409810e-12 </wgt>
<wgt id='1559'> +1.3397920e-12 </wgt>
<wgt id='1560'> +1.3414586e-12 </wgt>
<wgt id='1561'> +1.3413216e-12 </wgt>
<wgt id='1562'> +1.3409495e-12 </wgt>
<wgt id='1563'> +1.3414581e-12 </wgt>
<wgt id='1564'> +1.3396974e-12 </wgt>
<wgt id='1565'> +1.3407456e-12 </wgt>
<wgt id='1566'> +1.3408358e-12 </wgt>
<wgt id='1567'> +1.3394725e-12 </wgt>
<wgt id='1568'> +1.3410597e-12 </wgt>
<wgt id='1569'> +1.3437286e-12 </wgt>
<wgt id='1570'> +1.3415574e-12 </wgt>
<wgt id='1571'> +1.3413103e-12 </wgt>
<wgt id='1572'> +1.3406287e-12 </wgt>
<wgt id='1573'> +1.3401204e-12 </wgt>
<wgt id='1574'> +1.3414407e-12 </wgt>
<wgt id='1575'> +1.3410464e-12 </wgt>
<wgt id='1576'> +1.3418042e-12 </wgt>
<wgt id='1577'> +1.3430293e-12 </wgt>
<wgt id='1578'> +1.3409440e-12 </wgt>
<wgt id='1579'> +1.3402338e-12 </wgt>
<wgt id='1580'> +1.3409276e-12 </wgt>
<wgt id='1581'> +1.3410865e-12 </wgt>
<wgt id='1582'> +1.3412294e-12 </wgt>
<wgt id='1583'> +1.3401115e-12 </wgt>
<wgt id='1584'> +1.3396923e-12 </wgt>
<wgt id='1585'> +1.3405336e-12 </wgt>
<wgt id='1586'> +1.3410314e-12 </wgt>
<wgt id='1587'> +1.3418528e-12 </wgt>
<wgt id='1588'> +1.3397458e-12 </wgt>
<wgt id='1589'> +1.3420241e-12 </wgt>
<wgt id='1590'> +1.3416349e-12 </wgt>
<wgt id='1591'> +1.3413660e-12 </wgt>
<wgt id='1592'> +1.3416663e-12 </wgt>
<wgt id='1593'> +1.3413089e-12 </wgt>
<wgt id='1594'> +1.3408585e-12 </wgt>
<wgt id='1595'> +1.3399220e-12 </wgt>
<wgt id='1596'> +1.3404339e-12 </wgt>
<wgt id='1597'> +1.3398644e-12 </wgt>
<wgt id='1598'> +1.3415225e-12 </wgt>
<wgt id='1599'> +1.3415101e-12 </wgt>
<wgt id='1600'> +1.3400226e-12 </wgt>
<wgt id='1601'> +1.3411824e-12 </wgt>
<wgt id='1602'> +1.3402247e-12 </wgt>
<wgt id='1603'> +1.3414295e-12 </wgt>
<wgt id='1604'> +1.3408159e-12 </wgt>
<wgt id='1605'> +1.3414120e-12 </wgt>
<wgt id='1606'> +1.3412493e-12 </wgt>
<wgt id='1607'> +1.3411898e-12 </wgt>
<wgt id='1608'> +1.3411263e-12 </wgt>
<wgt id='1609'> +1.3410035e-12 </wgt>
<wgt id='1610'> +1.3234917e-12 </wgt>
<wgt id='1611'> +1.3556085e-12 </wgt>
<wgt id='1612'> +1.5382217e-12 </wgt>
<wgt id='1613'> +1.5042068e-12 </wgt>
<wgt id='1614'> +1.4552664e-12 </wgt>
<wgt id='1615'> +1.5109264e-12 </wgt>
<wgt id='1616'> +1.4769888e-12 </wgt>
<wgt id='1617'> +1.4894736e-12 </wgt>
<wgt id='1618'> +1.5361158e-12 </wgt>
<wgt id='1619'> +1.5070163e-12 </wgt>
<wgt id='1620'> +1.5152131e-12 </wgt>
<wgt id='1621'> +1.5368088e-12 </wgt>
<wgt id='1622'> +1.5472482e-12 </wgt>
<wgt id='1623'> +1.5649377e-12 </wgt>
<wgt id='1624'> +1.5859875e-12 </wgt>
<wgt id='1625'> +1.4675318e-12 </wgt>
<wgt id='1626'> +1.5267507e-12 </wgt>
<wgt id='1627'> +1.5640769e-12 </wgt>
<wgt id='1628'> +1.4446298e-12 </wgt>
<wgt id='1629'> +1.5730477e-12 </wgt>
<wgt id='1630'> +1.4917350e-12 </wgt>
<wgt id='1631'> +1.4960053e-12 </wgt>
<wgt id='1632'> +1.4726217e-12 </wgt>
<wgt id='1633'> +1.4585693e-12 </wgt>
<wgt id='1634'> +1.5368229e-12 </wgt>
<wgt id='1635'> +1.5504829e-12 </wgt>
<wgt id='1636'> +1.5275907e-12 </wgt>
<wgt id='1637'> +1.5744515e-12 </wgt>
<wgt id='1638'> +1.5457896e-12 </wgt>
<wgt id='1639'> +1.5219686e-12 </wgt>
<wgt id='1640'> +1.5272323e-12 </wgt>
<wgt id='1641'> +1.5440534e-12 </wgt>
<wgt id='1642'> +1.4752841e-12 </wgt>
<wgt id='1643'> +1.5096886e-12 </wgt>
<wgt id='1644'> +1.5676924e-12 </wgt>
<wgt id='1645'> +1.4941181e-12 </wgt>
<wgt id='1646'> +1.5560763e-12 </wgt>
<wgt id='1647'> +1.5890122e-12 </wgt>
<wgt id='1648'> +1.5331163e-12 </wgt>
<wgt id='1649'> +1.6146957e-12 </wgt>
<wgt id='1650'> +1.4996441e-12 </wgt>
<wgt id='1651'> +1.5771146e-12 </wgt>
<wgt id='1652'> +1.5267991e-12 </wgt>
<wgt id='1653'> +1.5301818e-12 </wgt>
<wgt id='1654'> +1.5510023e-12 </wgt>
<wgt id='1655'> +1.5855252e-12 </wgt>
<wgt id='1656'> +1.5181588e-12 </wgt>
<wgt id='1657'> +1.5551899e-12 </wgt>
<wgt id='1658'> +1.5201631e-12 </wgt>
<wgt id='1659'> +1.5859875e-12 </wgt>
<wgt id='1660'> +1.5531382e-12 </wgt>
<wgt id='1661'> +1.5842626e-12 </wgt>
<wgt id='1662'> +1.6067527e-12 </wgt>
<wgt id='1663'> +1.5363965e-12 </wgt>
<wgt id='1664'> +1.5186842e-12 </wgt>
<wgt id='1665'> +1.5199138e-12 </wgt>
<wgt id='1666'> +1.5639957e-12 </wgt>
<wgt id='1667'> +1.5629292e-12 </wgt>
<wgt id='1668'> +1.5699569e-12 </wgt>
<wgt id='1669'> +1.5531931e-12 </wgt>
<wgt id='1670'> +1.5057874e-12 </wgt>
<wgt id='1671'> +1.5035621e-12 </wgt>
<wgt id='1672'> +1.5675084e-12 </wgt>
<wgt id='1673'> +1.5521670e-12 </wgt>
<wgt id='1674'> +1.5311996e-12 </wgt>
<wgt id='1675'> +1.5201153e-12 </wgt>
<wgt id='1676'> +1.5116698e-12 </wgt>
<wgt id='1677'> +1.5269360e-12 </wgt>
<wgt id='1678'> +1.5230415e-12 </wgt>
<wgt id='1679'> +1.5555279e-12 </wgt>
<wgt id='1680'> +1.5644590e-12 </wgt>
<wgt id='1681'> +1.5761595e-12 </wgt>
<wgt id='1682'> +1.5262283e-12 </wgt>
<wgt id='1683'> +1.5644127e-12 </wgt>
<wgt id='1684'> +1.6128463e-12 </wgt>
<wgt id='1685'> +1.5292518e-12 </wgt>
<wgt id='1686'> +1.5288625e-12 </wgt>
<wgt id='1687'> +1.5764697e-12 </wgt>
<wgt id='1688'> +1.5059300e-12 </wgt>
<wgt id='1689'> +1.6112128e-12 </wgt>
<wgt id='1690'> +1.5438244e-12 </wgt>
<wgt id='1691'> +1.4536078e-12 </wgt>
<wgt id='1692'> +1.5207515e-12 </wgt>
<wgt id='1693'> +1.5569236e-12 </wgt>
<wgt id='1694'> +1.5248845e-12 </wgt>
<wgt id='1695'> +1.5486885e-12 </wgt>
<wgt id='1696'> +1.5251554e-12 </wgt>
<wgt id='1697'> +1.5294394e-12 </wgt>
<wgt id='1698'> +1.5569249e-12 </wgt>
<wgt id='1699'> +1.5673459e-12 </wgt>
<wgt id='1700'> +1.5043800e-12 </wgt>
<wgt id='1701'> +1.6017400e-12 </wgt>
<wgt id='1702'> +1.4949995e-12 </wgt>
<wgt id='1703'> +1.5151513e-12 </wgt>
<wgt id='1704'> +1.4955323e-12 </wgt>
<wgt id='1705'> +1.4806008e-12 </wgt>
<wgt id='1706'> +1.5761454e-12 </wgt>
<wgt id='1707'> +1.5640784e-12 </wgt>
<wgt id='1708'> +1.6291160e-12 </wgt>
<wgt id='1709'> +1.6000725e-12 </wgt>
<wgt id='1710'> +1.5410438e-12 </wgt>
<wgt id='1711'> +1.5576463e-12 </wgt>
<wgt id='1712'> +1.6247314e-12 </wgt>
<wgt id='1713'> +1.3560817e-12 </wgt>
<wgt id='1714'> +1.3435164e-12 </wgt>
<wgt id='1715'> +1.3060424e-12 </wgt>
<wgt id='1716'> +1.3875306e-12 </wgt>
<wgt id='1717'> +1.3709565e-12 </wgt>
<wgt id='1718'> +1.3920747e-12 </wgt>
<wgt id='1719'> +1.3778289e-12 </wgt>
<wgt id='1720'> +1.3083737e-12 </wgt>
<wgt id='1721'> +1.3329646e-12 </wgt>
<wgt id='1722'> +1.3500771e-12 </wgt>
<wgt id='1723'> +1.4049004e-12 </wgt>
<wgt id='1724'> +1.3495421e-12 </wgt>
<wgt id='1725'> +1.3772310e-12 </wgt>
<wgt id='1726'> +1.3603427e-12 </wgt>
<wgt id='1727'> +1.4115426e-12 </wgt>
<wgt id='1728'> +1.3390675e-12 </wgt>
<wgt id='1729'> +1.2900493e-12 </wgt>
<wgt id='1730'> +1.3304774e-12 </wgt>
<wgt id='1731'> +1.2946202e-12 </wgt>
<wgt id='1732'> +1.3601104e-12 </wgt>
<wgt id='1733'> +1.2921602e-12 </wgt>
<wgt id='1734'> +1.4272853e-12 </wgt>
<wgt id='1735'> +1.3189144e-12 </wgt>
<wgt id='1736'> +1.3797429e-12 </wgt>
<wgt id='1737'> +1.4047504e-12 </wgt>
<wgt id='1738'> +1.3466709e-12 </wgt>
<wgt id='1739'> +1.3714467e-12 </wgt>
<wgt id='1740'> +1.2822074e-12 </wgt>
<wgt id='1741'> +1.4066157e-12 </wgt>
<wgt id='1742'> +1.3430493e-12 </wgt>
<wgt id='1743'> +1.3273939e-12 </wgt>
<wgt id='1744'> +1.3786250e-12 </wgt>
<wgt id='1745'> +1.3799906e-12 </wgt>
<wgt id='1746'> +1.3441135e-12 </wgt>
<wgt id='1747'> +1.4121029e-12 </wgt>
<wgt id='1748'> +1.3656832e-12 </wgt>
<wgt id='1749'> +1.3562501e-12 </wgt>
<wgt id='1750'> +1.3302205e-12 </wgt>
<wgt id='1751'> +1.3486191e-12 </wgt>
<wgt id='1752'> +1.3364707e-12 </wgt>
<wgt id='1753'> +1.3629385e-12 </wgt>
<wgt id='1754'> +1.3705619e-12 </wgt>
<wgt id='1755'> +1.3658177e-12 </wgt>
<wgt id='1756'> +1.3789051e-12 </wgt>
<wgt id='1757'> +1.3799978e-12 </wgt>
<wgt id='1758'> +1.4040483e-12 </wgt>
<wgt id='1759'> +1.3834140e-12 </wgt>
<wgt id='1760'> +1.3561272e-12 </wgt>
<wgt id='1761'> +1.3497109e-12 </wgt>
<wgt id='1762'> +1.3469712e-12 </wgt>
<wgt id='1763'> +1.3800873e-12 </wgt>
<wgt id='1764'> +1.4143492e-12 </wgt>
<wgt id='1765'> +1.3582819e-12 </wgt>
<wgt id='1766'> +1.3907761e-12 </wgt>
<wgt id='1767'> +1.3357964e-12 </wgt>
<wgt id='1768'> +1.3833135e-12 </wgt>
<wgt id='1769'> +1.3511108e-12 </wgt>
<wgt id='1770'> +1.3489905e-12 </wgt>
<wgt id='1771'> +1.4163644e-12 </wgt>
<wgt id='1772'> +1.3375914e-12 </wgt>
<wgt id='1773'> +1.3660859e-12 </wgt>
<wgt id='1774'> +1.3500446e-12 </wgt>
<wgt id='1775'> +1.3569060e-12 </wgt>
<wgt id='1776'> +1.4096507e-12 </wgt>
<wgt id='1777'> +1.2980305e-12 </wgt>
<wgt id='1778'> +1.3764665e-12 </wgt>
<wgt id='1779'> +1.3374589e-12 </wgt>
<wgt id='1780'> +1.3592298e-12 </wgt>
<wgt id='1781'> +1.3832884e-12 </wgt>
<wgt id='1782'> +1.3516794e-12 </wgt>
<wgt id='1783'> +1.3599823e-12 </wgt>
<wgt id='1784'> +1.3445619e-12 </wgt>
<wgt id='1785'> +1.3707695e-12 </wgt>
<wgt id='1786'> +1.3405523e-12 </wgt>
<wgt id='1787'> +1.4468928e-12 </wgt>
<wgt id='1788'> +1.3364519e-12 </wgt>
<wgt id='1789'> +1.4371604e-12 </wgt>
<wgt id='1790'> +1.3474929e-12 </wgt>
<wgt id='1791'> +1.3318646e-12 </wgt>
<wgt id='1792'> +1.3402560e-12 </wgt>
<wgt id='1793'> +1.3324178e-12 </wgt>
<wgt id='1794'> +1.3762971e-12 </wgt>
<wgt id='1795'> +1.3648845e-12 </wgt>
<wgt id='1796'> +1.3151112e-12 </wgt>
<wgt id='1797'> +1.3532334e-12 </wgt>
<wgt id='1798'> +1.3544514e-12 </wgt>
<wgt id='1799'> +1.3348331e-12 </wgt>
<wgt id='1800'> +1.3757631e-12 </wgt>
<wgt id='1801'> +1.3536202e-12 </wgt>
<wgt id='1802'> +1.3079099e-12 </wgt>
<wgt id='1803'> +1.3621995e-12 </wgt>
<wgt id='1804'> +1.3722597e-12 </wgt>
<wgt id='1805'> +1.3197683e-12 </wgt>
<wgt id='1806'> +1.3249450e-12 </wgt>
<wgt id='1807'> +1.3198173e-12 </wgt>
<wgt id='1808'> +1.3291702e-12 </wgt>
<wgt id='1809'> +1.3285188e-12 </wgt>
<wgt id='1810'> +1.3245808e-12 </wgt>
<wgt id='1811'> +1.3659441e-12 </wgt>
<wgt id='1812'> +1.3303140e-12 </wgt>
<wgt id='1813'> +1.2720883e-12 </wgt>
<wgt id='1814'> +1.7363028e-12 </wgt>
<wgt id='1815'> +2.1246592e-12 </wgt>
<wgt id='1816'> +1.3560817e-12 </wgt>
<wgt id='1817'> +1.3435164e-12 </wgt>
<wgt id='1818'> +1.3060424e-12 </wgt>
<wgt id='1819'> +1.3875306e-12 </wgt>
<wgt id='1820'> +1.3709565e-12 </wgt>
<wgt id='1821'> +1.3920747e-12 </wgt>
<wgt id='1822'> +1.3778289e-12 </wgt>
<wgt id='1823'> +1.3083737e-12 </wgt>
<wgt id='1824'> +1.3329646e-12 </wgt>
<wgt id='1825'> +1.3500771e-12 </wgt>
<wgt id='1826'> +1.4049004e-12 </wgt>
<wgt id='1827'> +1.3495421e-12 </wgt>
<wgt id='1828'> +1.3772310e-12 </wgt>
<wgt id='1829'> +1.3603427e-12 </wgt>
<wgt id='1830'> +1.4115426e-12 </wgt>
<wgt id='1831'> +1.3390675e-12 </wgt>
<wgt id='1832'> +1.2900493e-12 </wgt>
<wgt id='1833'> +1.3304774e-12 </wgt>
<wgt id='1834'> +1.2946202e-12 </wgt>
<wgt id='1835'> +1.3601104e-12 </wgt>
<wgt id='1836'> +1.2921602e-12 </wgt>
<wgt id='1837'> +1.4272853e-12 </wgt>
<wgt id='1838'> +1.3189144e-12 </wgt>
<wgt id='1839'> +1.3797429e-12 </wgt>
<wgt id='1840'> +1.4047504e-12 </wgt>
<wgt id='1841'> +1.3466709e-12 </wgt>
<wgt id='1842'> +1.3714467e-12 </wgt>
<wgt id='1843'> +1.2822074e-12 </wgt>
<wgt id='1844'> +1.4066157e-12 </wgt>
<wgt id='1845'> +1.3430493e-12 </wgt>
<wgt id='1846'> +1.3273939e-12 </wgt>
<wgt id='1847'> +1.3786250e-12 </wgt>
<wgt id='1848'> +1.3799906e-12 </wgt>
<wgt id='1849'> +1.3441135e-12 </wgt>
<wgt id='1850'> +1.4121029e-12 </wgt>
<wgt id='1851'> +1.3656832e-12 </wgt>
<wgt id='1852'> +1.3562501e-12 </wgt>
<wgt id='1853'> +1.3302205e-12 </wgt>
<wgt id='1854'> +1.3486191e-12 </wgt>
<wgt id='1855'> +1.3364707e-12 </wgt>
<wgt id='1856'> +1.3629385e-12 </wgt>
<wgt id='1857'> +1.3705619e-12 </wgt>
<wgt id='1858'> +1.3658177e-12 </wgt>
<wgt id='1859'> +1.3789051e-12 </wgt>
<wgt id='1860'> +1.3799978e-12 </wgt>
<wgt id='1861'> +1.4040483e-12 </wgt>
<wgt id='1862'> +1.3834140e-12 </wgt>
<wgt id='1863'> +1.3561272e-12 </wgt>
<wgt id='1864'> +1.3497109e-12 </wgt>
<wgt id='1865'> +1.3469712e-12 </wgt>
<wgt id='1866'> +1.3800873e-12 </wgt>
<wgt id='1867'> +1.4143492e-12 </wgt>
<wgt id='1868'> +1.3582819e-12 </wgt>
<wgt id='1869'> +1.3907761e-12 </wgt>
<wgt id='1870'> +1.3357964e-12 </wgt>
<wgt id='1871'> +1.3833135e-12 </wgt>
<wgt id='1872'> +1.3511108e-12 </wgt>
<wgt id='1873'> +1.3489905e-12 </wgt>
<wgt id='1874'> +1.4163644e-12 </wgt>
<wgt id='1875'> +1.3375914e-12 </wgt>
<wgt id='1876'> +1.3660859e-12 </wgt>
<wgt id='1877'> +1.3500446e-12 </wgt>
<wgt id='1878'> +1.3569060e-12 </wgt>
<wgt id='1879'> +1.4096507e-12 </wgt>
<wgt id='1880'> +1.2980305e-12 </wgt>
<wgt id='1881'> +1.3764665e-12 </wgt>
<wgt id='1882'> +1.3374589e-12 </wgt>
<wgt id='1883'> +1.3592298e-12 </wgt>
<wgt id='1884'> +1.3832884e-12 </wgt>
<wgt id='1885'> +1.3516794e-12 </wgt>
<wgt id='1886'> +1.3599823e-12 </wgt>
<wgt id='1887'> +1.3445619e-12 </wgt>
<wgt id='1888'> +1.3707695e-12 </wgt>
<wgt id='1889'> +1.3405523e-12 </wgt>
<wgt id='1890'> +1.4468928e-12 </wgt>
<wgt id='1891'> +1.3364519e-12 </wgt>
<wgt id='1892'> +1.4371604e-12 </wgt>
<wgt id='1893'> +1.3474929e-12 </wgt>
<wgt id='1894'> +1.3318646e-12 </wgt>
<wgt id='1895'> +1.3402560e-12 </wgt>
<wgt id='1896'> +1.3324178e-12 </wgt>
<wgt id='1897'> +1.3762971e-12 </wgt>
<wgt id='1898'> +1.3648845e-12 </wgt>
<wgt id='1899'> +1.3151112e-12 </wgt>
<wgt id='1900'> +1.3532334e-12 </wgt>
<wgt id='1901'> +1.3544514e-12 </wgt>
<wgt id='1902'> +1.3348331e-12 </wgt>
<wgt id='1903'> +1.3757631e-12 </wgt>
<wgt id='1904'> +1.3536202e-12 </wgt>
<wgt id='1905'> +1.3079099e-12 </wgt>
<wgt id='1906'> +1.3621995e-12 </wgt>
<wgt id='1907'> +1.3722597e-12 </wgt>
<wgt id='1908'> +1.3197683e-12 </wgt>
<wgt id='1909'> +1.3249450e-12 </wgt>
<wgt id='1910'> +1.3198173e-12 </wgt>
<wgt id='1911'> +1.3291702e-12 </wgt>
<wgt id='1912'> +1.3285188e-12 </wgt>
<wgt id='1913'> +1.3245808e-12 </wgt>
<wgt id='1914'> +1.3659441e-12 </wgt>
<wgt id='1915'> +1.3303140e-12 </wgt>
<wgt id='1916'> +1.2720883e-12 </wgt>
<wgt id='1917'> +1.3491262e-12 </wgt>
<wgt id='1918'> +1.3741924e-12 </wgt>
<wgt id='1919'> +1.3102840e-12 </wgt>
</rwgt>
</event>
<event>
 9      1 +1.5538000e-12 2.93436500e+01 7.81860800e-03 1.45633600e-01
       21 -1    0    0  501  502 +0.0000000000e+00 +0.0000000000e+00 +4.4134626174e+01 4.4134626174e+01 0.0000000000e+00 0.0000e+00 1.0000e+00
       -2 -1    0    0    0  501 -0.0000000000e+00 -0.0000000000e+00 -1.8960174693e+01 1.8960174693e+01 0.0000000000e+00 0.0000e+00 1.0000e+00
     1023  2    1    2    0    0 -2.4964424661e+01 -3.5805932089e+00 +2.9710203639e+00 2.9493677378e+01 1.5000229895e+01 0.0000e+00 0.0000e+00
  1000023  2    3    3    0    0 -2.1200043654e+01 +4.2690771733e-01 +2.5101980240e+00 2.2047672726e+01 5.4931482236e+00 0.0000e+00 0.0000e+00
       -2  1    1    2    0  502 +2.4964424661e+01 +3.5805932089e+00 +2.2203431118e+01 3.3601123490e+01 0.0000000000e+00 0.0000e+00 1.0000e+00
  1000022  1    4    4    0    0 -2.0608969258e+01 +1.1062310874e-01 +2.3335020101e+00 2.1335113850e+01 5.0000000000e+00 0.0000e+00 1.0000e+00
      -11  1    4    4    0    0 -8.6778255647e-02 +6.5624090610e-02 -2.9685975454e-02 1.1277635027e-01 5.1100000000e-04 0.0000e+00 1.0000e+00
       11  1    4    4    0    0 -5.0429614012e-01 +2.5066051797e-01 +2.0638198941e-01 5.9978252633e-01 5.1100000000e-04 0.0000e+00 -1.0000e+00
  1000022  1    3    3    0    0 -3.7643810069e+00 -4.0075009263e+00 +4.6082233989e-01 7.4460046513e+00 5.0000000000e+00 0.0000e+00 -1.0000e+00
<mgrwt>
<rscale>  1 0.29343654E+02</rscale>
<asrwt>0</asrwt>
<pdfrwt beam="1">  1       21 0.67899425E-02 0.29343654E+02</pdfrwt>
<pdfrwt beam="2">  1       -2 0.29169500E-02 0.29343654E+02</pdfrwt>
<totfact> 0.47620290E+06</totfact>
</mgrwt>
<rwgt>
<wgt id='1001'> +1.5538000e-12 </wgt>
<wgt id='1002'> +1.6045698e-12 </wgt>
<wgt id='1003'> +1.6045894e-12 </wgt>
<wgt id='1004'> +1.5451145e-12 </wgt>
<wgt id='1005'> +1.6077344e-12 </wgt>
<wgt id='1006'> +1.3587713e-12 </wgt>
<wgt id='1007'> +1.4246850e-12 </wgt>
<wgt id='1008'> +1.4247132e-12 </wgt>
<wgt id='1009'> +1.3483883e-12 </wgt>
<wgt id='1010'> +1.4293182e-12 </wgt>
<wgt id='1011'> +1.8174508e-12 </wgt>
<wgt id='1012'> +1.8386908e-12 </wgt>
<wgt id='1013'> +1.8386946e-12 </wgt>
<wgt id='1014'> +1.8124777e-12 </wgt>
<wgt id='1015'> +1.8392246e-12 </wgt>
<wgt id='1016'> +1.8393174e-12 </wgt>
<wgt id='1017'> +1.8323481e-12 </wgt>
<wgt id='1018'> +1.8323391e-12 </wgt>
<wgt id='1019'> +1.8386946e-12 </wgt>
<wgt id='1020'> +1.8307494e-12 </wgt>
<wgt id='1021'> +1.6084513e-12 </wgt>
<wgt id='1022'> +1.6269276e-12 </wgt>
<wgt id='1023'> +1.6269320e-12 </wgt>
<wgt id='1024'> +1.6045894e-12 </wgt>
<wgt id='1025'> +1.6275844e-12 </wgt>
<wgt id='1026'> +2.1514151e-12 </wgt>
<wgt id='1027'> +2.0997040e-12 </wgt>
<wgt id='1028'> +2.0996724e-12 </wgt>
<wgt id='1029'> +2.1568584e-12 </wgt>
<wgt id='1030'> +2.0943505e-12 </wgt>
<wgt id='1031'> +1.2361972e-12 </wgt>
<wgt id='1032'> +1.3483372e-12 </wgt>
<wgt id='1033'> +1.3483883e-12 </wgt>
<wgt id='1034'> +1.2193414e-12 </wgt>
<wgt id='1035'> +1.3567961e-12 </wgt>
<wgt id='1036'> +1.0810332e-12 </wgt>
<wgt id='1037'> +1.1971781e-12 </wgt>
<wgt id='1038'> +1.1972325e-12 </wgt>
<wgt id='1039'> +1.0640931e-12 </wgt>
<wgt id='1040'> +1.2062275e-12 </wgt>
<wgt id='1041'> +1.4459568e-12 </wgt>
<wgt id='1042'> +1.5450716e-12 </wgt>
<wgt id='1043'> +1.5451145e-12 </wgt>
<wgt id='1044'> +1.4303336e-12 </wgt>
<wgt id='1045'> +1.5521549e-12 </wgt>
<wgt id='1046'> +1.5538000e-12 </wgt>
<wgt id='1047'> +1.5797918e-12 </wgt>
<wgt id='1048'> +1.5351791e-12 </wgt>
<wgt id='1049'> +1.5211269e-12 </wgt>
<wgt id='1050'> +1.5388069e-12 </wgt>
<wgt id='1051'> +1.5438314e-12 </wgt>
<wgt id='1052'> +1.5650385e-12 </wgt>
<wgt id='1053'> +1.5407831e-12 </wgt>
<wgt id='1054'> +1.5422694e-12 </wgt>
<wgt id='1055'> +1.5241713e-12 </wgt>
<wgt id='1056'> +1.5473705e-12 </wgt>
<wgt id='1057'> +1.5957621e-12 </wgt>
<wgt id='1058'> +1.4980639e-12 </wgt>
<wgt id='1059'> +1.5522767e-12 </wgt>
<wgt id='1060'> +1.5611495e-12 </wgt>
<wgt id='1061'> +1.5747983e-12 </wgt>
<wgt id='1062'> +1.5664968e-12 </wgt>
<wgt id='1063'> +1.5785323e-12 </wgt>
<wgt id='1064'> +1.5449328e-12 </wgt>
<wgt id='1065'> +1.5588960e-12 </wgt>
<wgt id='1066'> +1.5456091e-12 </wgt>
<wgt id='1067'> +1.4945064e-12 </wgt>
<wgt id='1068'> +1.5621653e-12 </wgt>
<wgt id='1069'> +1.5508167e-12 </wgt>
<wgt id='1070'> +1.5403688e-12 </wgt>
<wgt id='1071'> +1.5324432e-12 </wgt>
<wgt id='1072'> +1.6087596e-12 </wgt>
<wgt id='1073'> +1.5954248e-12 </wgt>
<wgt id='1074'> +1.5209288e-12 </wgt>
<wgt id='1075'> +1.5686886e-12 </wgt>
<wgt id='1076'> +1.5725415e-12 </wgt>
<wgt id='1077'> +1.5584576e-12 </wgt>
<wgt id='1078'> +1.5280236e-12 </wgt>
<wgt id='1079'> +1.5557446e-12 </wgt>
<wgt id='1080'> +1.5333226e-12 </wgt>
<wgt id='1081'> +1.6050508e-12 </wgt>
<wgt id='1082'> +1.5531348e-12 </wgt>
<wgt id='1083'> +1.5665187e-12 </wgt>
<wgt id='1084'> +1.5676650e-12 </wgt>
<wgt id='1085'> +1.5195089e-12 </wgt>
<wgt id='1086'> +1.5776034e-12 </wgt>
<wgt id='1087'> +1.5916864e-12 </wgt>
<wgt id='1088'> +1.5374738e-12 </wgt>
<wgt id='1089'> +1.5606316e-12 </wgt>
<wgt id='1090'> +1.5426779e-12 </wgt>
<wgt id='1091'> +1.5523992e-12 </wgt>
<wgt id='1092'> +1.5822868e-12 </wgt>
<wgt id='1093'> +1.5577881e-12 </wgt>
<wgt id='1094'> +1.5744024e-12 </wgt>
<wgt id='1095'> +1.5760848e-12 </wgt>
<wgt id='1096'> +1.5673573e-12 </wgt>
<wgt id='1097'> +1.5048771e-12 </wgt>
<wgt id='1098'> +1.5278662e-12 </wgt>
<wgt id='1099'> +1.5776826e-12 </wgt>
<wgt id='1100'> +1.5317520e-12 </wgt>
<wgt id='1101'> +1.5927157e-12 </wgt>
<wgt id='1102'> +1.5300531e-12 </wgt>
<wgt id='1103'> +1.5531743e-12 </wgt>
<wgt id='1104'> +1.5411527e-12 </wgt>
<wgt id='1105'> +1.5924740e-12 </wgt>
<wgt id='1106'> +1.5743185e-12 </wgt>
<wgt id='1107'> +1.5509958e-12 </wgt>
<wgt id='1108'> +1.5418817e-12 </wgt>
<wgt id='1109'> +1.5685073e-12 </wgt>
<wgt id='1110'> +1.5505623e-12 </wgt>
<wgt id='1111'> +1.5736985e-12 </wgt>
<wgt id='1112'> +1.5901648e-12 </wgt>
<wgt id='1113'> +1.5351634e-12 </wgt>
<wgt id='1114'> +1.5755392e-12 </wgt>
<wgt id='1115'> +1.5506187e-12 </wgt>
<wgt id='1116'> +1.5122062e-12 </wgt>
<wgt id='1117'> +1.5539939e-12 </wgt>
<wgt id='1118'> +1.5524998e-12 </wgt>
<wgt id='1119'> +1.5189510e-12 </wgt>
<wgt id='1120'> +1.5537762e-12 </wgt>
<wgt id='1121'> +1.5605079e-12 </wgt>
<wgt id='1122'> +1.6099700e-12 </wgt>
<wgt id='1123'> +1.5221282e-12 </wgt>
<wgt id='1124'> +1.5514049e-12 </wgt>
<wgt id='1125'> +1.5678440e-12 </wgt>
<wgt id='1126'> +1.5763439e-12 </wgt>
<wgt id='1127'> +1.5191109e-12 </wgt>
<wgt id='1128'> +1.5664968e-12 </wgt>
<wgt id='1129'> +1.5607649e-12 </wgt>
<wgt id='1130'> +1.5478770e-12 </wgt>
<wgt id='1131'> +1.5625552e-12 </wgt>
<wgt id='1132'> +1.5349575e-12 </wgt>
<wgt id='1133'> +1.5383804e-12 </wgt>
<wgt id='1134'> +1.5739536e-12 </wgt>
<wgt id='1135'> +1.5628316e-12 </wgt>
<wgt id='1136'> +1.5144704e-12 </wgt>
<wgt id='1137'> +1.5355252e-12 </wgt>
<wgt id='1138'> +1.5664479e-12 </wgt>
<wgt id='1139'> +1.5616294e-12 </wgt>
<wgt id='1140'> +1.5381802e-12 </wgt>
<wgt id='1141'> +1.4986258e-12 </wgt>
<wgt id='1142'> +1.5498446e-12 </wgt>
<wgt id='1143'> +1.5695339e-12 </wgt>
<wgt id='1144'> +1.5530266e-12 </wgt>
<wgt id='1145'> +1.5667801e-12 </wgt>
<wgt id='1146'> +1.5433803e-12 </wgt>
<wgt id='1147'> +1.1844737e-12 </wgt>
<wgt id='1148'> +1.2140981e-12 </wgt>
<wgt id='1149'> +1.2689550e-12 </wgt>
<wgt id='1150'> +1.2132430e-12 </wgt>
<wgt id='1151'> +1.1736675e-12 </wgt>
<wgt id='1152'> +1.4882246e-12 </wgt>
<wgt id='1153'> +1.4804767e-12 </wgt>
<wgt id='1154'> +1.4927178e-12 </wgt>
<wgt id='1155'> +1.4876307e-12 </wgt>
<wgt id='1156'> +1.4885903e-12 </wgt>
<wgt id='1157'> +1.4918582e-12 </wgt>
<wgt id='1158'> +1.4833153e-12 </wgt>
<wgt id='1159'> +1.4912771e-12 </wgt>
<wgt id='1160'> +1.4861995e-12 </wgt>
<wgt id='1161'> +1.4845451e-12 </wgt>
<wgt id='1162'> +1.4906954e-12 </wgt>
<wgt id='1163'> +1.4923129e-12 </wgt>
<wgt id='1164'> +1.4842159e-12 </wgt>
<wgt id='1165'> +1.4785017e-12 </wgt>
<wgt id='1166'> +1.4977750e-12 </wgt>
<wgt id='1167'> +1.4981990e-12 </wgt>
<wgt id='1168'> +1.4746960e-12 </wgt>
<wgt id='1169'> +1.4908089e-12 </wgt>
<wgt id='1170'> +1.4863030e-12 </wgt>
<wgt id='1171'> +1.4849501e-12 </wgt>
<wgt id='1172'> +1.4921366e-12 </wgt>
<wgt id='1173'> +1.4782314e-12 </wgt>
<wgt id='1174'> +1.4975210e-12 </wgt>
<wgt id='1175'> +1.4874263e-12 </wgt>
<wgt id='1176'> +1.4880064e-12 </wgt>
<wgt id='1177'> +1.4886496e-12 </wgt>
<wgt id='1178'> +1.4873850e-12 </wgt>
<wgt id='1179'> +1.4983847e-12 </wgt>
<wgt id='1180'> +1.4725284e-12 </wgt>
<wgt id='1181'> +1.4827848e-12 </wgt>
<wgt id='1182'> +1.4933845e-12 </wgt>
<wgt id='1183'> +1.4866858e-12 </wgt>
<wgt id='1184'> +1.4884076e-12 </wgt>
<wgt id='1185'> +1.4794979e-12 </wgt>
<wgt id='1186'> +1.4928128e-12 </wgt>
<wgt id='1187'> +1.4871826e-12 </wgt>
<wgt id='1188'> +1.4886005e-12 </wgt>
<wgt id='1189'> +1.4818577e-12 </wgt>
<wgt id='1190'> +1.4778399e-12 </wgt>
<wgt id='1191'> +1.4858004e-12 </wgt>
<wgt id='1192'> +1.4881742e-12 </wgt>
<wgt id='1193'> +1.2356769e-12 </wgt>
<wgt id='1194'> +1.2340217e-12 </wgt>
<wgt id='1195'> +1.2370198e-12 </wgt>
<wgt id='1196'> +1.2418433e-12 </wgt>
<wgt id='1197'> +1.2289344e-12 </wgt>
<wgt id='1198'> +1.2360182e-12 </wgt>
<wgt id='1199'> +1.2352008e-12 </wgt>
<wgt id='1200'> +1.2377293e-12 </wgt>
<wgt id='1201'> +1.2343647e-12 </wgt>
<wgt id='1202'> +1.2337687e-12 </wgt>
<wgt id='1203'> +1.2385139e-12 </wgt>
<wgt id='1204'> +1.2239914e-12 </wgt>
<wgt id='1205'> +1.2429463e-12 </wgt>
<wgt id='1206'> +1.2405484e-12 </wgt>
<wgt id='1207'> +1.2290328e-12 </wgt>
<wgt id='1208'> +1.2279367e-12 </wgt>
<wgt id='1209'> +1.2385382e-12 </wgt>
<wgt id='1210'> +1.2378563e-12 </wgt>
<wgt id='1211'> +1.2241597e-12 </wgt>
<wgt id='1212'> +1.2362371e-12 </wgt>
<wgt id='1213'> +1.2351163e-12 </wgt>
<wgt id='1214'> +1.2175868e-12 </wgt>
<wgt id='1215'> +1.2656417e-12 </wgt>
<wgt id='1216'> +1.2446489e-12 </wgt>
<wgt id='1217'> +1.2295485e-12 </wgt>
<wgt id='1218'> +1.2400256e-12 </wgt>
<wgt id='1219'> +1.2334044e-12 </wgt>
<wgt id='1220'> +1.2404784e-12 </wgt>
<wgt id='1221'> +1.2349257e-12 </wgt>
<wgt id='1222'> +1.2343188e-12 </wgt>
<wgt id='1223'> +1.2380432e-12 </wgt>
<wgt id='1224'> +1.2375910e-12 </wgt>
<wgt id='1225'> +1.2349873e-12 </wgt>
<wgt id='1226'> +1.2331867e-12 </wgt>
<wgt id='1227'> +1.2374614e-12 </wgt>
<wgt id='1228'> +1.2324080e-12 </wgt>
<wgt id='1229'> +1.2370570e-12 </wgt>
<wgt id='1230'> +1.2284863e-12 </wgt>
<wgt id='1231'> +1.2320648e-12 </wgt>
<wgt id='1232'> +1.2346344e-12 </wgt>
<wgt id='1233'> +1.2360319e-12 </wgt>
<wgt id='1234'> +1.2356769e-12 </wgt>
<wgt id='1235'> +1.2264999e-12 </wgt>
<wgt id='1236'> +1.2299277e-12 </wgt>
<wgt id='1237'> +1.2330390e-12 </wgt>
<wgt id='1238'> +1.2381947e-12 </wgt>
<wgt id='1239'> +1.2403685e-12 </wgt>
<wgt id='1240'> +1.2423960e-12 </wgt>
<wgt id='1241'> +1.2606354e-12 </wgt>
<wgt id='1242'> +1.2547234e-12 </wgt>
<wgt id='1243'> +1.2666278e-12 </wgt>
<wgt id='1244'> +1.2533540e-12 </wgt>
<wgt id='1245'> +1.2660139e-12 </wgt>
<wgt id='1246'> +1.2613425e-12 </wgt>
<wgt id='1247'> +1.2601070e-12 </wgt>
<wgt id='1248'> +1.2605417e-12 </wgt>
<wgt id='1249'> +1.2607357e-12 </wgt>
<wgt id='1250'> +1.2620356e-12 </wgt>
<wgt id='1251'> +1.2597482e-12 </wgt>
<wgt id='1252'> +1.2573313e-12 </wgt>
<wgt id='1253'> +1.2632728e-12 </wgt>
<wgt id='1254'> +1.2489261e-12 </wgt>
<wgt id='1255'> +1.2676919e-12 </wgt>
<wgt id='1256'> +1.2651413e-12 </wgt>
<wgt id='1257'> +1.2493510e-12 </wgt>
<wgt id='1258'> +1.2839270e-12 </wgt>
<wgt id='1259'> +1.2387500e-12 </wgt>
<wgt id='1260'> +1.2650623e-12 </wgt>
<wgt id='1261'> +1.2557059e-12 </wgt>
<wgt id='1262'> +1.2626777e-12 </wgt>
<wgt id='1263'> +1.2595552e-12 </wgt>
<wgt id='1264'> +1.2648241e-12 </wgt>
<wgt id='1265'> +1.2585363e-12 </wgt>
<wgt id='1266'> +1.2568141e-12 </wgt>
<wgt id='1267'> +1.2646141e-12 </wgt>
<wgt id='1268'> +1.2607642e-12 </wgt>
<wgt id='1269'> +1.2645974e-12 </wgt>
<wgt id='1270'> +1.2531184e-12 </wgt>
<wgt id='1271'> +1.2514413e-12 </wgt>
<wgt id='1272'> +1.2613441e-12 </wgt>
<wgt id='1273'> +1.2596486e-12 </wgt>
<wgt id='1274'> +1.2629893e-12 </wgt>
<wgt id='1275'> +1.2555200e-12 </wgt>
<wgt id='1276'> +1.2623084e-12 </wgt>
<wgt id='1277'> +1.2580610e-12 </wgt>
<wgt id='1278'> +1.2597738e-12 </wgt>
<wgt id='1279'> +1.2580270e-12 </wgt>
<wgt id='1280'> +1.2610667e-12 </wgt>
<wgt id='1281'> +1.2586947e-12 </wgt>
<wgt id='1282'> +1.2606354e-12 </wgt>
<wgt id='1283'> +1.2506439e-12 </wgt>
<wgt id='1284'> +1.2545171e-12 </wgt>
<wgt id='1285'> +1.2578994e-12 </wgt>
<wgt id='1286'> +1.2634876e-12 </wgt>
<wgt id='1287'> +1.2657439e-12 </wgt>
<wgt id='1288'> +1.2676114e-12 </wgt>
<wgt id='1289'> +1.2411126e-12 </wgt>
<wgt id='1290'> +1.2444559e-12 </wgt>
<wgt id='1291'> +1.2375609e-12 </wgt>
<wgt id='1292'> +1.2351235e-12 </wgt>
<wgt id='1293'> +1.2454355e-12 </wgt>
<wgt id='1294'> +1.2412431e-12 </wgt>
<wgt id='1295'> +1.2410142e-12 </wgt>
<wgt id='1296'> +1.2361614e-12 </wgt>
<wgt id='1297'> +1.2473049e-12 </wgt>
<wgt id='1298'> +1.2462359e-12 </wgt>
<wgt id='1299'> +1.2347127e-12 </wgt>
<wgt id='1300'> +1.2442332e-12 </wgt>
<wgt id='1301'> +1.2348246e-12 </wgt>
<wgt id='1302'> +1.2397471e-12 </wgt>
<wgt id='1303'> +1.2430101e-12 </wgt>
<wgt id='1304'> +1.2388445e-12 </wgt>
<wgt id='1305'> +1.2426065e-12 </wgt>
<wgt id='1306'> +1.2383889e-12 </wgt>
<wgt id='1307'> +1.2443976e-12 </wgt>
<wgt id='1308'> +1.2507020e-12 </wgt>
<wgt id='1309'> +1.2338155e-12 </wgt>
<wgt id='1310'> +1.2405071e-12 </wgt>
<wgt id='1311'> +1.2418946e-12 </wgt>
<wgt id='1312'> +1.2412280e-12 </wgt>
<wgt id='1313'> +1.2412959e-12 </wgt>
<wgt id='1314'> +1.2449432e-12 </wgt>
<wgt id='1315'> +1.2313288e-12 </wgt>
<wgt id='1316'> +1.2478280e-12 </wgt>
<wgt id='1317'> +1.2409449e-12 </wgt>
<wgt id='1318'> +1.2517798e-12 </wgt>
<wgt id='1319'> +1.2283616e-12 </wgt>
<wgt id='1320'> +1.2517834e-12 </wgt>
<wgt id='1321'> +1.2318504e-12 </wgt>
<wgt id='1322'> +1.2402703e-12 </wgt>
<wgt id='1323'> +1.2419944e-12 </wgt>
<wgt id='1324'> +1.2385914e-12 </wgt>
<wgt id='1325'> +1.2508785e-12 </wgt>
<wgt id='1326'> +1.2402346e-12 </wgt>
<wgt id='1327'> +1.2437922e-12 </wgt>
<wgt id='1328'> +1.2421367e-12 </wgt>
<wgt id='1329'> +1.2400446e-12 </wgt>
<wgt id='1330'> +1.2182565e-12 </wgt>
<wgt id='1331'> +1.2548744e-12 </wgt>
<wgt id='1332'> +1.2627724e-12 </wgt>
<wgt id='1333'> +1.2260811e-12 </wgt>
<wgt id='1334'> +1.2358145e-12 </wgt>
<wgt id='1335'> +1.2541045e-12 </wgt>
<wgt id='1336'> +1.2362805e-12 </wgt>
<wgt id='1337'> +1.2391422e-12 </wgt>
<wgt id='1338'> +1.2390131e-12 </wgt>
<wgt id='1339'> +1.2416608e-12 </wgt>
<wgt id='1340'> +1.2195647e-12 </wgt>
<wgt id='1341'> +1.2230543e-12 </wgt>
<wgt id='1342'> +1.2157816e-12 </wgt>
<wgt id='1343'> +1.2133808e-12 </wgt>
<wgt id='1344'> +1.2237006e-12 </wgt>
<wgt id='1345'> +1.2195780e-12 </wgt>
<wgt id='1346'> +1.2195113e-12 </wgt>
<wgt id='1347'> +1.2145663e-12 </wgt>
<wgt id='1348'> +1.2250225e-12 </wgt>
<wgt id='1349'> +1.2240852e-12 </wgt>
<wgt id='1350'> +1.2151015e-12 </wgt>
<wgt id='1351'> +1.2226931e-12 </wgt>
<wgt id='1352'> +1.2127168e-12 </wgt>
<wgt id='1353'> +1.2176887e-12 </wgt>
<wgt id='1354'> +1.2229271e-12 </wgt>
<wgt id='1355'> +1.2175580e-12 </wgt>
<wgt id='1356'> +1.2206259e-12 </wgt>
<wgt id='1357'> +1.2194619e-12 </wgt>
<wgt id='1358'> +1.2197891e-12 </wgt>
<wgt id='1359'> +1.2299503e-12 </wgt>
<wgt id='1360'> +1.2105857e-12 </wgt>
<wgt id='1361'> +1.2189075e-12 </wgt>
<wgt id='1362'> +1.2205794e-12 </wgt>
<wgt id='1363'> +1.2194097e-12 </wgt>
<wgt id='1364'> +1.2200629e-12 </wgt>
<wgt id='1365'> +1.2084676e-12 </wgt>
<wgt id='1366'> +1.2248014e-12 </wgt>
<wgt id='1367'> +1.2255448e-12 </wgt>
<wgt id='1368'> +1.2191661e-12 </wgt>
<wgt id='1369'> +1.2286100e-12 </wgt>
<wgt id='1370'> +1.2086534e-12 </wgt>
<wgt id='1371'> +1.2274080e-12 </wgt>
<wgt id='1372'> +1.2097522e-12 </wgt>
<wgt id='1373'> +1.2168058e-12 </wgt>
<wgt id='1374'> +1.2216036e-12 </wgt>
<wgt id='1375'> +1.2172320e-12 </wgt>
<wgt id='1376'> +1.2291450e-12 </wgt>
<wgt id='1377'> +1.2187986e-12 </wgt>
<wgt id='1378'> +1.2224041e-12 </wgt>
<wgt id='1379'> +1.2200894e-12 </wgt>
<wgt id='1380'> +1.2187618e-12 </wgt>
<wgt id='1381'> +1.1956335e-12 </wgt>
<wgt id='1382'> +1.2322555e-12 </wgt>
<wgt id='1383'> +1.2415383e-12 </wgt>
<wgt id='1384'> +1.2022222e-12 </wgt>
<wgt id='1385'> +1.2141666e-12 </wgt>
<wgt id='1386'> +1.2317598e-12 </wgt>
<wgt id='1387'> +1.2135350e-12 </wgt>
<wgt id='1388'> +1.2165672e-12 </wgt>
<wgt id='1389'> +1.2153739e-12 </wgt>
<wgt id='1390'> +1.2205266e-12 </wgt>
<wgt id='1391'> +1.1990261e-12 </wgt>
<wgt id='1392'> +1.1697953e-12 </wgt>
<wgt id='1393'> +1.1792031e-12 </wgt>
<wgt id='1394'> +1.1889988e-12 </wgt>
<wgt id='1395'> +1.2074094e-12 </wgt>
<wgt id='1396'> +1.1989615e-12 </wgt>
<wgt id='1397'> +1.1630810e-12 </wgt>
<wgt id='1398'> +1.1705701e-12 </wgt>
<wgt id='1399'> +1.1772977e-12 </wgt>
<wgt id='1400'> +1.1840192e-12 </wgt>
<wgt id='1401'> +1.1915020e-12 </wgt>
<wgt id='1402'> +1.2052882e-12 </wgt>
<wgt id='1403'> +1.2120955e-12 </wgt>
<wgt id='1404'> +1.2183449e-12 </wgt>
<wgt id='1405'> +1.1989615e-12 </wgt>
<wgt id='1406'> +1.1946102e-12 </wgt>
<wgt id='1407'> +1.1970432e-12 </wgt>
<wgt id='1408'> +1.2007203e-12 </wgt>
<wgt id='1409'> +1.2022151e-12 </wgt>
<wgt id='1410'> +1.2239480e-12 </wgt>
<wgt id='1411'> +1.2258121e-12 </wgt>
<wgt id='1412'> +1.2214695e-12 </wgt>
<wgt id='1413'> +1.2305889e-12 </wgt>
<wgt id='1414'> +1.2173270e-12 </wgt>
<wgt id='1415'> +1.2170227e-12 </wgt>
<wgt id='1416'> +1.2267458e-12 </wgt>
<wgt id='1417'> +1.2161399e-12 </wgt>
<wgt id='1418'> +1.2317512e-12 </wgt>
<wgt id='1419'> +1.2255264e-12 </wgt>
<wgt id='1420'> +1.2224145e-12 </wgt>
<wgt id='1421'> +1.2116825e-12 </wgt>
<wgt id='1422'> +1.2292421e-12 </wgt>
<wgt id='1423'> +1.2235737e-12 </wgt>
<wgt id='1424'> +1.2244184e-12 </wgt>
<wgt id='1425'> +1.2200661e-12 </wgt>
<wgt id='1426'> +1.2281460e-12 </wgt>
<wgt id='1427'> +1.2285691e-12 </wgt>
<wgt id='1428'> +1.2211799e-12 </wgt>
<wgt id='1429'> +1.2172390e-12 </wgt>
<wgt id='1430'> +1.2329409e-12 </wgt>
<wgt id='1431'> +1.2295294e-12 </wgt>
<wgt id='1432'> +1.2199694e-12 </wgt>
<wgt id='1433'> +1.2291372e-12 </wgt>
<wgt id='1434'> +1.2178510e-12 </wgt>
<wgt id='1435'> +1.2254239e-12 </wgt>
<wgt id='1436'> +1.2204367e-12 </wgt>
<wgt id='1437'> +1.2304585e-12 </wgt>
<wgt id='1438'> +1.2229001e-12 </wgt>
<wgt id='1439'> +1.2168435e-12 </wgt>
<wgt id='1440'> +1.2407004e-12 </wgt>
<wgt id='1441'> +1.2264593e-12 </wgt>
<wgt id='1442'> +1.2192252e-12 </wgt>
<wgt id='1443'> +1.2213762e-12 </wgt>
<wgt id='1444'> +1.2301657e-12 </wgt>
<wgt id='1445'> +1.2355969e-12 </wgt>
<wgt id='1446'> +1.2198750e-12 </wgt>
<wgt id='1447'> +1.2250771e-12 </wgt>
<wgt id='1448'> +1.2245830e-12 </wgt>
<wgt id='1449'> +1.2253479e-12 </wgt>
<wgt id='1450'> +1.2226572e-12 </wgt>
<wgt id='1451'> +1.2336541e-12 </wgt>
<wgt id='1452'> +1.1967146e-12 </wgt>
<wgt id='1453'> +1.2262805e-12 </wgt>
<wgt id='1454'> +1.2088153e-12 </wgt>
<wgt id='1455'> +1.2101991e-12 </wgt>
<wgt id='1456'> +1.2294666e-12 </wgt>
<wgt id='1457'> +1.2309605e-12 </wgt>
<wgt id='1458'> +1.2206420e-12 </wgt>
<wgt id='1459'> +1.2282108e-12 </wgt>
<wgt id='1460'> +1.2177566e-12 </wgt>
<wgt id='1461'> +1.2239480e-12 </wgt>
<wgt id='1462'> +1.2162943e-12 </wgt>
<wgt id='1463'> +1.2343906e-12 </wgt>
<wgt id='1464'> +1.2255106e-12 </wgt>
<wgt id='1465'> +1.1971472e-12 </wgt>
<wgt id='1466'> +1.2031526e-12 </wgt>
<wgt id='1467'> +1.2094582e-12 </wgt>
<wgt id='1468'> +1.2141508e-12 </wgt>
<wgt id='1469'> +1.2200049e-12 </wgt>
<wgt id='1470'> +1.2314958e-12 </wgt>
<wgt id='1471'> +1.2360874e-12 </wgt>
<wgt id='1472'> +1.2416514e-12 </wgt>
<wgt id='1473'> +1.2255106e-12 </wgt>
<wgt id='1474'> +1.2204831e-12 </wgt>
<wgt id='1475'> +1.2222492e-12 </wgt>
<wgt id='1476'> +1.2275971e-12 </wgt>
<wgt id='1477'> +1.2296498e-12 </wgt>
<wgt id='1478'> +1.1859686e-12 </wgt>
<wgt id='1479'> +1.1843184e-12 </wgt>
<wgt id='1480'> +1.1852921e-12 </wgt>
<wgt id='1481'> +1.1803689e-12 </wgt>
<wgt id='1482'> +1.1847405e-12 </wgt>
<wgt id='1483'> +1.1650507e-12 </wgt>
<wgt id='1484'> +1.1841059e-12 </wgt>
<wgt id='1485'> +1.1864153e-12 </wgt>
<wgt id='1486'> +1.1870107e-12 </wgt>
<wgt id='1487'> +1.1915186e-12 </wgt>
<wgt id='1488'> +1.1834450e-12 </wgt>
<wgt id='1489'> +1.2077467e-12 </wgt>
<wgt id='1490'> +1.1841962e-12 </wgt>
<wgt id='1491'> +1.1858265e-12 </wgt>
<wgt id='1492'> +1.1879284e-12 </wgt>
<wgt id='1493'> +1.1729294e-12 </wgt>
<wgt id='1494'> +1.2026902e-12 </wgt>
<wgt id='1495'> +1.1784366e-12 </wgt>
<wgt id='1496'> +1.1845072e-12 </wgt>
<wgt id='1497'> +1.1855780e-12 </wgt>
<wgt id='1498'> +1.1849684e-12 </wgt>
<wgt id='1499'> +1.1875257e-12 </wgt>
<wgt id='1500'> +1.1874814e-12 </wgt>
<wgt id='1501'> +1.1845043e-12 </wgt>
<wgt id='1502'> +1.1838082e-12 </wgt>
<wgt id='1503'> +1.1872376e-12 </wgt>
<wgt id='1504'> +1.1814922e-12 </wgt>
<wgt id='1505'> +1.1862653e-12 </wgt>
<wgt id='1506'> +1.1846331e-12 </wgt>
<wgt id='1507'> +1.1849783e-12 </wgt>
<wgt id='1508'> +1.1900270e-12 </wgt>
<wgt id='1509'> +1.2737107e-12 </wgt>
<wgt id='1510'> +1.2725071e-12 </wgt>
<wgt id='1511'> +1.2791729e-12 </wgt>
<wgt id='1512'> +1.2770079e-12 </wgt>
<wgt id='1513'> +1.2801800e-12 </wgt>
<wgt id='1514'> +1.2718592e-12 </wgt>
<wgt id='1515'> +1.2699700e-12 </wgt>
<wgt id='1516'> +1.2719690e-12 </wgt>
<wgt id='1517'> +1.2735277e-12 </wgt>
<wgt id='1518'> +1.2781253e-12 </wgt>
<wgt id='1519'> +1.2685729e-12 </wgt>
<wgt id='1520'> +1.2776828e-12 </wgt>
<wgt id='1521'> +1.2817124e-12 </wgt>
<wgt id='1522'> +1.2803917e-12 </wgt>
<wgt id='1523'> +1.2808674e-12 </wgt>
<wgt id='1524'> +1.2744232e-12 </wgt>
<wgt id='1525'> +1.2754449e-12 </wgt>
<wgt id='1526'> +1.2717224e-12 </wgt>
<wgt id='1527'> +1.2738098e-12 </wgt>
<wgt id='1528'> +1.2770722e-12 </wgt>
<wgt id='1529'> +1.2754807e-12 </wgt>
<wgt id='1530'> +1.2794537e-12 </wgt>
<wgt id='1531'> +1.2744932e-12 </wgt>
<wgt id='1532'> +1.2725007e-12 </wgt>
<wgt id='1533'> +1.2713413e-12 </wgt>
<wgt id='1534'> +1.2777566e-12 </wgt>
<wgt id='1535'> +1.2666418e-12 </wgt>
<wgt id='1536'> +1.2706984e-12 </wgt>
<wgt id='1537'> +1.2746309e-12 </wgt>
<wgt id='1538'> +1.2710353e-12 </wgt>
<wgt id='1539'> +1.2710129e-12 </wgt>
<wgt id='1540'> +1.2748168e-12 </wgt>
<wgt id='1541'> +1.2727721e-12 </wgt>
<wgt id='1542'> +1.2757252e-12 </wgt>
<wgt id='1543'> +1.2727589e-12 </wgt>
<wgt id='1544'> +1.2697546e-12 </wgt>
<wgt id='1545'> +1.2751649e-12 </wgt>
<wgt id='1546'> +1.2741375e-12 </wgt>
<wgt id='1547'> +1.2743653e-12 </wgt>
<wgt id='1548'> +1.2720852e-12 </wgt>
<wgt id='1549'> +1.2711888e-12 </wgt>
<wgt id='1550'> +1.2766380e-12 </wgt>
<wgt id='1551'> +1.2708192e-12 </wgt>
<wgt id='1552'> +1.2743127e-12 </wgt>
<wgt id='1553'> +1.2751722e-12 </wgt>
<wgt id='1554'> +1.2749753e-12 </wgt>
<wgt id='1555'> +1.2762439e-12 </wgt>
<wgt id='1556'> +1.2739715e-12 </wgt>
<wgt id='1557'> +1.2742183e-12 </wgt>
<wgt id='1558'> +1.2711576e-12 </wgt>
<wgt id='1559'> +1.2717055e-12 </wgt>
<wgt id='1560'> +1.2731608e-12 </wgt>
<wgt id='1561'> +1.2725125e-12 </wgt>
<wgt id='1562'> +1.2738550e-12 </wgt>
<wgt id='1563'> +1.2740867e-12 </wgt>
<wgt id='1564'> +1.2746006e-12 </wgt>
<wgt id='1565'> +1.2735564e-12 </wgt>
<wgt id='1566'> +1.2740804e-12 </wgt>
<wgt id='1567'> +1.2737338e-12 </wgt>
<wgt id='1568'> +1.2728693e-12 </wgt>
<wgt id='1569'> +1.2727593e-12 </wgt>
<wgt id='1570'> +1.2739085e-12 </wgt>
<wgt id='1571'> +1.2740141e-12 </wgt>
<wgt id='1572'> +1.2741259e-12 </wgt>
<wgt id='1573'> +1.2750136e-12 </wgt>
<wgt id='1574'> +1.2733494e-12 </wgt>
<wgt id='1575'> +1.2735230e-12 </wgt>
<wgt id='1576'> +1.2737550e-12 </wgt>
<wgt id='1577'> +1.2739501e-12 </wgt>
<wgt id='1578'> +1.2732389e-12 </wgt>
<wgt id='1579'> +1.2740589e-12 </wgt>
<wgt id='1580'> +1.2736708e-12 </wgt>
<wgt id='1581'> +1.2736085e-12 </wgt>
<wgt id='1582'> +1.2728017e-12 </wgt>
<wgt id='1583'> +1.2742717e-12 </wgt>
<wgt id='1584'> +1.2735874e-12 </wgt>
<wgt id='1585'> +1.2734779e-12 </wgt>
<wgt id='1586'> +1.2739591e-12 </wgt>
<wgt id='1587'> +1.2728130e-12 </wgt>
<wgt id='1588'> +1.2744433e-12 </wgt>
<wgt id='1589'> +1.2735253e-12 </wgt>
<wgt id='1590'> +1.2736340e-12 </wgt>
<wgt id='1591'> +1.2735223e-12 </wgt>
<wgt id='1592'> +1.2737092e-12 </wgt>
<wgt id='1593'> +1.2736265e-12 </wgt>
<wgt id='1594'> +1.2735675e-12 </wgt>
<wgt id='1595'> +1.2729807e-12 </wgt>
<wgt id='1596'> +1.2735282e-12 </wgt>
<wgt id='1597'> +1.2737719e-12 </wgt>
<wgt id='1598'> +1.2735062e-12 </wgt>
<wgt id='1599'> +1.2740099e-12 </wgt>
<wgt id='1600'> +1.2729815e-12 </wgt>
<wgt id='1601'> +1.2733981e-12 </wgt>
<wgt id='1602'> +1.2736755e-12 </wgt>
<wgt id='1603'> +1.2740075e-12 </wgt>
<wgt id='1604'> +1.2737090e-12 </wgt>
<wgt id='1605'> +1.2738530e-12 </wgt>
<wgt id='1606'> +1.2740237e-12 </wgt>
<wgt id='1607'> +1.2731704e-12 </wgt>
<wgt id='1608'> +1.2737426e-12 </wgt>
<wgt id='1609'> +1.2741913e-12 </wgt>
<wgt id='1610'> +1.2613082e-12 </wgt>
<wgt id='1611'> +1.2856616e-12 </wgt>
<wgt id='1612'> +1.4856193e-12 </wgt>
<wgt id='1613'> +1.4655445e-12 </wgt>
<wgt id='1614'> +1.4937331e-12 </wgt>
<wgt id='1615'> +1.4633493e-12 </wgt>
<wgt id='1616'> +1.5528654e-12 </wgt>
<wgt id='1617'> +1.5202423e-12 </wgt>
<wgt id='1618'> +1.4439319e-12 </wgt>
<wgt id='1619'> +1.5012156e-12 </wgt>
<wgt id='1620'> +1.4525836e-12 </wgt>
<wgt id='1621'> +1.4813414e-12 </wgt>
<wgt id='1622'> +1.4868717e-12 </wgt>
<wgt id='1623'> +1.5037533e-12 </wgt>
<wgt id='1624'> +1.4499992e-12 </wgt>
<wgt id='1625'> +1.4583343e-12 </wgt>
<wgt id='1626'> +1.4735843e-12 </wgt>
<wgt id='1627'> +1.4619617e-12 </wgt>
<wgt id='1628'> +1.4594376e-12 </wgt>
<wgt id='1629'> +1.5366952e-12 </wgt>
<wgt id='1630'> +1.4959468e-12 </wgt>
<wgt id='1631'> +1.4576131e-12 </wgt>
<wgt id='1632'> +1.4319566e-12 </wgt>
<wgt id='1633'> +1.4398924e-12 </wgt>
<wgt id='1634'> +1.5452634e-12 </wgt>
<wgt id='1635'> +1.4891894e-12 </wgt>
<wgt id='1636'> +1.4952996e-12 </wgt>
<wgt id='1637'> +1.4588782e-12 </wgt>
<wgt id='1638'> +1.4775674e-12 </wgt>
<wgt id='1639'> +1.5011791e-12 </wgt>
<wgt id='1640'> +1.4986813e-12 </wgt>
<wgt id='1641'> +1.4628829e-12 </wgt>
<wgt id='1642'> +1.4773661e-12 </wgt>
<wgt id='1643'> +1.5305314e-12 </wgt>
<wgt id='1644'> +1.4163985e-12 </wgt>
<wgt id='1645'> +1.4809053e-12 </wgt>
<wgt id='1646'> +1.4932186e-12 </wgt>
<wgt id='1647'> +1.4937042e-12 </wgt>
<wgt id='1648'> +1.4766667e-12 </wgt>
<wgt id='1649'> +1.4814230e-12 </wgt>
<wgt id='1650'> +1.4748623e-12 </wgt>
<wgt id='1651'> +1.4420898e-12 </wgt>
<wgt id='1652'> +1.4796944e-12 </wgt>
<wgt id='1653'> +1.5348052e-12 </wgt>
<wgt id='1654'> +1.4747564e-12 </wgt>
<wgt id='1655'> +1.4498314e-12 </wgt>
<wgt id='1656'> +1.4404472e-12 </wgt>
<wgt id='1657'> +1.4686916e-12 </wgt>
<wgt id='1658'> +1.4243004e-12 </wgt>
<wgt id='1659'> +1.4499992e-12 </wgt>
<wgt id='1660'> +1.4927032e-12 </wgt>
<wgt id='1661'> +1.4894629e-12 </wgt>
<wgt id='1662'> +1.4915298e-12 </wgt>
<wgt id='1663'> +1.5180978e-12 </wgt>
<wgt id='1664'> +1.4679908e-12 </wgt>
<wgt id='1665'> +1.4149952e-12 </wgt>
<wgt id='1666'> +1.5156758e-12 </wgt>
<wgt id='1667'> +1.4834140e-12 </wgt>
<wgt id='1668'> +1.5284309e-12 </wgt>
<wgt id='1669'> +1.4272031e-12 </wgt>
<wgt id='1670'> +1.5080275e-12 </wgt>
<wgt id='1671'> +1.4771227e-12 </wgt>
<wgt id='1672'> +1.4826122e-12 </wgt>
<wgt id='1673'> +1.5274080e-12 </wgt>
<wgt id='1674'> +1.4633137e-12 </wgt>
<wgt id='1675'> +1.5253481e-12 </wgt>
<wgt id='1676'> +1.5188653e-12 </wgt>
<wgt id='1677'> +1.5734242e-12 </wgt>
<wgt id='1678'> +1.4855970e-12 </wgt>
<wgt id='1679'> +1.5307704e-12 </wgt>
<wgt id='1680'> +1.5109655e-12 </wgt>
<wgt id='1681'> +1.5089786e-12 </wgt>
<wgt id='1682'> +1.5016096e-12 </wgt>
<wgt id='1683'> +1.4666459e-12 </wgt>
<wgt id='1684'> +1.4772467e-12 </wgt>
<wgt id='1685'> +1.4607272e-12 </wgt>
<wgt id='1686'> +1.4930525e-12 </wgt>
<wgt id='1687'> +1.5376865e-12 </wgt>
<wgt id='1688'> +1.4962788e-12 </wgt>
<wgt id='1689'> +1.4645406e-12 </wgt>
<wgt id='1690'> +1.4852137e-12 </wgt>
<wgt id='1691'> +1.4976486e-12 </wgt>
<wgt id='1692'> +1.5431922e-12 </wgt>
<wgt id='1693'> +1.5439070e-12 </wgt>
<wgt id='1694'> +1.4284097e-12 </wgt>
<wgt id='1695'> +1.4850330e-12 </wgt>
<wgt id='1696'> +1.5300248e-12 </wgt>
<wgt id='1697'> +1.5005527e-12 </wgt>
<wgt id='1698'> +1.4656774e-12 </wgt>
<wgt id='1699'> +1.5000975e-12 </wgt>
<wgt id='1700'> +1.4616908e-12 </wgt>
<wgt id='1701'> +1.5157591e-12 </wgt>
<wgt id='1702'> +1.4903146e-12 </wgt>
<wgt id='1703'> +1.4989234e-12 </wgt>
<wgt id='1704'> +1.4566584e-12 </wgt>
<wgt id='1705'> +1.4675123e-12 </wgt>
<wgt id='1706'> +1.4748748e-12 </wgt>
<wgt id='1707'> +1.4819104e-12 </wgt>
<wgt id='1708'> +1.4644826e-12 </wgt>
<wgt id='1709'> +1.4777957e-12 </wgt>
<wgt id='1710'> +1.4746567e-12 </wgt>
<wgt id='1711'> +1.5537881e-12 </wgt>
<wgt id='1712'> +1.4786904e-12 </wgt>
<wgt id='1713'> +1.1698515e-12 </wgt>
<wgt id='1714'> +1.1398027e-12 </wgt>
<wgt id='1715'> +1.1897941e-12 </wgt>
<wgt id='1716'> +1.2136957e-12 </wgt>
<wgt id='1717'> +1.1812952e-12 </wgt>
<wgt id='1718'> +1.1821170e-12 </wgt>
<wgt id='1719'> +1.1791785e-12 </wgt>
<wgt id='1720'> +1.1833763e-12 </wgt>
<wgt id='1721'> +1.1495221e-12 </wgt>
<wgt id='1722'> +1.1590327e-12 </wgt>
<wgt id='1723'> +1.1155890e-12 </wgt>
<wgt id='1724'> +1.1126892e-12 </wgt>
<wgt id='1725'> +1.1939527e-12 </wgt>
<wgt id='1726'> +1.2118303e-12 </wgt>
<wgt id='1727'> +1.1440188e-12 </wgt>
<wgt id='1728'> +1.1723179e-12 </wgt>
<wgt id='1729'> +1.1689876e-12 </wgt>
<wgt id='1730'> +1.1421657e-12 </wgt>
<wgt id='1731'> +1.1298979e-12 </wgt>
<wgt id='1732'> +1.1698617e-12 </wgt>
<wgt id='1733'> +1.1735372e-12 </wgt>
<wgt id='1734'> +1.2009930e-12 </wgt>
<wgt id='1735'> +1.1325476e-12 </wgt>
<wgt id='1736'> +1.2525072e-12 </wgt>
<wgt id='1737'> +1.2026260e-12 </wgt>
<wgt id='1738'> +1.1818198e-12 </wgt>
<wgt id='1739'> +1.1733721e-12 </wgt>
<wgt id='1740'> +1.1516794e-12 </wgt>
<wgt id='1741'> +1.1641487e-12 </wgt>
<wgt id='1742'> +1.1686298e-12 </wgt>
<wgt id='1743'> +1.1992398e-12 </wgt>
<wgt id='1744'> +1.2054256e-12 </wgt>
<wgt id='1745'> +1.0961864e-12 </wgt>
<wgt id='1746'> +1.1940929e-12 </wgt>
<wgt id='1747'> +1.1929618e-12 </wgt>
<wgt id='1748'> +1.1901082e-12 </wgt>
<wgt id='1749'> +1.1894231e-12 </wgt>
<wgt id='1750'> +1.1731555e-12 </wgt>
<wgt id='1751'> +1.0861566e-12 </wgt>
<wgt id='1752'> +1.1564049e-12 </wgt>
<wgt id='1753'> +1.1897033e-12 </wgt>
<wgt id='1754'> +1.1684185e-12 </wgt>
<wgt id='1755'> +1.1918229e-12 </wgt>
<wgt id='1756'> +1.1825480e-12 </wgt>
<wgt id='1757'> +1.1555020e-12 </wgt>
<wgt id='1758'> +1.1933131e-12 </wgt>
<wgt id='1759'> +1.1801290e-12 </wgt>
<wgt id='1760'> +1.1356525e-12 </wgt>
<wgt id='1761'> +1.1476436e-12 </wgt>
<wgt id='1762'> +1.1853821e-12 </wgt>
<wgt id='1763'> +1.1976154e-12 </wgt>
<wgt id='1764'> +1.1721288e-12 </wgt>
<wgt id='1765'> +1.1762922e-12 </wgt>
<wgt id='1766'> +1.1942892e-12 </wgt>
<wgt id='1767'> +1.1788537e-12 </wgt>
<wgt id='1768'> +1.1694047e-12 </wgt>
<wgt id='1769'> +1.1353113e-12 </wgt>
<wgt id='1770'> +1.2304131e-12 </wgt>
<wgt id='1771'> +1.1825983e-12 </wgt>
<wgt id='1772'> +1.2061984e-12 </wgt>
<wgt id='1773'> +1.1628177e-12 </wgt>
<wgt id='1774'> +1.1818176e-12 </wgt>
<wgt id='1775'> +1.1743019e-12 </wgt>
<wgt id='1776'> +1.2058400e-12 </wgt>
<wgt id='1777'> +1.1016703e-12 </wgt>
<wgt id='1778'> +1.1577189e-12 </wgt>
<wgt id='1779'> +1.1898826e-12 </wgt>
<wgt id='1780'> +1.1619424e-12 </wgt>
<wgt id='1781'> +1.1627504e-12 </wgt>
<wgt id='1782'> +1.1282343e-12 </wgt>
<wgt id='1783'> +1.1658415e-12 </wgt>
<wgt id='1784'> +1.1796583e-12 </wgt>
<wgt id='1785'> +1.1279484e-12 </wgt>
<wgt id='1786'> +1.0767696e-12 </wgt>
<wgt id='1787'> +1.2164633e-12 </wgt>
<wgt id='1788'> +1.1559534e-12 </wgt>
<wgt id='1789'> +1.1239914e-12 </wgt>
<wgt id='1790'> +1.1622119e-12 </wgt>
<wgt id='1791'> +1.1872528e-12 </wgt>
<wgt id='1792'> +1.1306794e-12 </wgt>
<wgt id='1793'> +1.1913077e-12 </wgt>
<wgt id='1794'> +1.1789683e-12 </wgt>
<wgt id='1795'> +1.1942580e-12 </wgt>
<wgt id='1796'> +1.1458157e-12 </wgt>
<wgt id='1797'> +1.1746486e-12 </wgt>
<wgt id='1798'> +1.1533250e-12 </wgt>
<wgt id='1799'> +1.1538214e-12 </wgt>
<wgt id='1800'> +1.1742054e-12 </wgt>
<wgt id='1801'> +1.1738194e-12 </wgt>
<wgt id='1802'> +1.1468083e-12 </wgt>
<wgt id='1803'> +1.1879328e-12 </wgt>
<wgt id='1804'> +1.1435250e-12 </wgt>
<wgt id='1805'> +1.1671282e-12 </wgt>
<wgt id='1806'> +1.1572751e-12 </wgt>
<wgt id='1807'> +1.1880577e-12 </wgt>
<wgt id='1808'> +1.1720713e-12 </wgt>
<wgt id='1809'> +1.1512315e-12 </wgt>
<wgt id='1810'> +1.1730774e-12 </wgt>
<wgt id='1811'> +1.2279049e-12 </wgt>
<wgt id='1812'> +1.2013007e-12 </wgt>
<wgt id='1813'> +1.1843471e-12 </wgt>
<wgt id='1814'> +1.2820508e-12 </wgt>
<wgt id='1815'> +1.4496254e-12 </wgt>
<wgt id='1816'> +1.1698515e-12 </wgt>
<wgt id='1817'> +1.1398027e-12 </wgt>
<wgt id='1818'> +1.1897941e-12 </wgt>
<wgt id='1819'> +1.2136957e-12 </wgt>
<wgt id='1820'> +1.1812952e-12 </wgt>
<wgt id='1821'> +1.1821170e-12 </wgt>
<wgt id='1822'> +1.1791785e-12 </wgt>
<wgt id='1823'> +1.1833763e-12 </wgt>
<wgt id='1824'> +1.1495221e-12 </wgt>
<wgt id='1825'> +1.1590327e-12 </wgt>
<wgt id='1826'> +1.1155890e-12 </wgt>
<wgt id='1827'> +1.1126892e-12 </wgt>
<wgt id='1828'> +1.1939527e-12 </wgt>
<wgt id='1829'> +1.2118303e-12 </wgt>
<wgt id='1830'> +1.1440188e-12 </wgt>
<wgt id='1831'> +1.1723179e-12 </wgt>
<wgt id='1832'> +1.1689876e-12 </wgt>
<wgt id='1833'> +1.1421657e-12 </wgt>
<wgt id='1834'> +1.1298979e-12 </wgt>
<wgt id='1835'> +1.1698617e-12 </wgt>
<wgt id='1836'> +1.1735372e-12 </wgt>
<wgt id='1837'> +1.2009930e-12 </wgt>
<wgt id='1838'> +1.1325476e-12 </wgt>
<wgt id='1839'> +1.2525072e-12 </wgt>
<wgt id='1840'> +1.2026260e-12 </wgt>
<wgt id='1841'> +1.1818198e-12 </wgt>
<wgt id='1842'> +1.1733721e-12 </wgt>
<wgt id='1843'> +1.1516794e-12 </wgt>
<wgt id='1844'> +1.1641487e-12 </wgt>
<wgt id='1845'> +1.1686298e-12 </wgt>
<wgt id='1846'> +1.1992398e-12 </wgt>
<wgt id='1847'> +1.2054256e-12 </wgt>
<wgt id='1848'> +1.0961864e-12 </wgt>
<wgt id='1849'> +1.1940929e-12 </wgt>
<wgt id='1850'> +1.1929618e-12 </wgt>
<wgt id='1851'> +1.1901082e-12 </wgt>
<wgt id='1852'> +1.1894231e-12 </wgt>
<wgt id='1853'> +1.1731555e-12 </wgt>
<wgt id='1854'> +1.0861566e-12 </wgt>
<wgt id='1855'> +1.1564049e-12 </wgt>
<wgt id='1856'> +1.1897033e-12 </wgt>
<wgt id='1857'> +1.1684185e-12 </wgt>
<wgt id='1858'> +1.1918229e-12 </wgt>
<wgt id='1859'> +1.1825480e-12 </wgt>
<wgt id='1860'> +1.1555020e-12 </wgt>
<wgt id='1861'> +1.1933131e-12 </wgt>
<wgt id='1862'> +1.1801290e-12 </wgt>
<wgt id='1863'> +1.1356525e-12 </wgt>
<wgt id='1864'> +1.1476436e-12 </wgt>
<wgt id='1865'> +1.1853821e-12 </wgt>
<wgt id='1866'> +1.1976154e-12 </wgt>
<wgt id='1867'> +1.1721288e-12 </wgt>
<wgt id='1868'> +1.1762922e-12 </wgt>
<wgt id='1869'> +1.1942892e-12 </wgt>
<wgt id='1870'> +1.1788537e-12 </wgt>
<wgt id='1871'> +1.1694047e-12 </wgt>
<wgt id='1872'> +1.1353113e-12 </wgt>
<wgt id='1873'> +1.2304131e-12 </wgt>
<wgt id='1874'> +1.1825983e-12 </wgt>
<wgt id='1875'> +1.2061984e-12 </wgt>
<wgt id='1876'> +1.1628177e-12 </wgt>
<wgt id='1877'> +1.1818176e-12 </wgt>
<wgt id='1878'> +1.1743019e-12 </wgt>
<wgt id='1879'> +1.2058400e-12 </wgt>
<wgt id='1880'> +1.1016703e-12 </wgt>
<wgt id='1881'> +1.1577189e-12 </wgt>
<wgt id='1882'> +1.1898826e-12 </wgt>
<wgt id='1883'> +1.1619424e-12 </wgt>
<wgt id='1884'> +1.1627504e-12 </wgt>
<wgt id='1885'> +1.1282343e-12 </wgt>
<wgt id='1886'> +1.1658415e-12 </wgt>
<wgt id='1887'> +1.1796583e-12 </wgt>
<wgt id='1888'> +1.1279484e-12 </wgt>
<wgt id='1889'> +1.0767696e-12 </wgt>
<wgt id='1890'> +1.2164633e-12 </wgt>
<wgt id='1891'> +1.1559534e-12 </wgt>
<wgt id='1892'> +1.1239914e-12 </wgt>
<wgt id='1893'> +1.1622119e-12 </wgt>
<wgt id='1894'> +1.1872528e-12 </wgt>
<wgt id='1895'> +1.1306794e-12 </wgt>
<wgt id='1896'> +1.1913077e-12 </wgt>
<wgt id='1897'> +1.1789683e-12 </wgt>
<wgt id='1898'> +1.1942580e-12 </wgt>
<wgt id='1899'> +1.1458157e-12 </wgt>
<wgt id='1900'> +1.1746486e-12 </wgt>
<wgt id='1901'> +1.1533250e-12 </wgt>
<wgt id='1902'> +1.1538214e-12 </wgt>
<wgt id='1903'> +1.1742054e-12 </wgt>
<wgt id='1904'> +1.1738194e-12 </wgt>
<wgt id='1905'> +1.1468083e-12 </wgt>
<wgt id='1906'> +1.1879328e-12 </wgt>
<wgt id='1907'> +1.1435250e-12 </wgt>
<wgt id='1908'> +1.1671282e-12 </wgt>
<wgt id='1909'> +1.1572751e-12 </wgt>
<wgt id='1910'> +1.1880577e-12 </wgt>
<wgt id='1911'> +1.1720713e-12 </wgt>
<wgt id='1912'> +1.1512315e-12 </wgt>
<wgt id='1913'> +1.1730774e-12 </wgt>
<wgt id='1914'> +1.2279049e-12 </wgt>
<wgt id='1915'> +1.2013007e-12 </wgt>
<wgt id='1916'> +1.1843471e-12 </wgt>
<wgt id='1917'> +1.1611282e-12 </wgt>
<wgt id='1918'> +1.1738845e-12 </wgt>
<wgt id='1919'> +1.2247704e-12 </wgt>
</rwgt>
</event>
<event>
 9      1 +1.5538000e-12 3.40107100e+01 7.81860800e-03 1.41298400e-01
        2 -1    0    0  502    0 -0.0000000000e+00 +0.0000000000e+00 +1.2323157307e+03 1.2323157307e+03 0.0000000000e+00 0.0000e+00 1.0000e+00
       21 -1    0    0  501  502 +0.0000000000e+00 -0.0000000000e+00 -9.6739887730e-01 9.6739887730e-01 0.0000000000e+00 0.0000e+00 1.0000e+00
     1023  2    1    2    0    0 -1.9399004603e+01 -2.3566807034e+01 +4.2557519339e+02 4.2693204822e+02 1.5000426725e+01 0.0000e+00 0.0000e+00
  1000023  2    3    3    0    0 -7.2750935962e+00 -1.6885721244e+01 +2.2435841457e+02 2.2517769709e+02 5.4993189163e+00 0.0000e+00 0.0000e+00
        2  1    1    2  501    0 +1.9399004603e+01 +2.3566807034e+01 +8.0577313844e+02 8.0635108135e+02 0.0000000000e+00 0.0000e+00 1.0000e+00
  1000022  1    4    4    0    0 -7.1165579812e+00 -1.5618287320e+01 +2.0680058304e+02 2.0757181273e+02 5.0000000000e+00 0.0000e+00 1.0000e+00
      -11  1    4    4    0    0 -2.5708538426e-02 -6.6541767898e-01 +7.6704073832e+00 7.6992591398e+00 5.1100000000e-04 0.0000e+00 1.0000e+00
       11  1    4    4    0    0 -1.3282707652e-01 -6.0201624523e-01 +9.8874241491e+00 9.9066252154e+00 5.1100000000e-04 0.0000e+00 -1.0000e+00
  1000022  1    3    3    0    0 -1.2123911006e+01 -6.6810857902e+00 +2.0121677882e+02 2.0175435114e+02 5.0000000000e+00 0.0000e+00 1.0000e+00
<mgrwt>
<rscale>  1 0.34010713E+02</rscale>
<asrwt>0</asrwt>
<pdfrwt beam="1">  1       21 0.14883158E-03 0.34010713E+02</pdfrwt>
<pdfrwt beam="2">  1        2 0.18958578E+00 0.34010713E+02</pdfrwt>
<totfact> 0.10811502E+07</totfact>
</mgrwt>
<rwgt>
<wgt id='1001'> +1.5538000e-12 </wgt>
<wgt id='1002'> +1.6047955e-12 </wgt>
<wgt id='1003'> +1.6060633e-12 </wgt>
<wgt id='1004'> +1.5471014e-12 </wgt>
<wgt id='1005'> +1.6093386e-12 </wgt>
<wgt id='1006'> +1.3641991e-12 </wgt>
<wgt id='1007'> +1.4291674e-12 </wgt>
<wgt id='1008'> +1.4310247e-12 </wgt>
<wgt id='1009'> +1.3563520e-12 </wgt>
<wgt id='1010'> +1.4359610e-12 </wgt>
<wgt id='1011'> +1.8075774e-12 </wgt>
<wgt id='1012'> +1.8317157e-12 </wgt>
<wgt id='1013'> +1.8319307e-12 </wgt>
<wgt id='1014'> +1.8033343e-12 </wgt>
<wgt id='1015'> +1.8322919e-12 </wgt>
<wgt id='1016'> +1.8322442e-12 </wgt>
<wgt id='1017'> +1.8222694e-12 </wgt>
<wgt id='1018'> +1.8214699e-12 </wgt>
<wgt id='1019'> +1.8319307e-12 </wgt>
<wgt id='1020'> +1.8190523e-12 </wgt>
<wgt id='1021'> +1.6086664e-12 </wgt>
<wgt id='1022'> +1.6228410e-12 </wgt>
<wgt id='1023'> +1.6229549e-12 </wgt>
<wgt id='1024'> +1.6060633e-12 </wgt>
<wgt id='1025'> +1.6230817e-12 </wgt>
<wgt id='1026'> +2.1314990e-12 </wgt>
<wgt id='1027'> +2.0799407e-12 </wgt>
<wgt id='1028'> +2.0776308e-12 </wgt>
<wgt id='1029'> +2.1353373e-12 </wgt>
<wgt id='1030'> +2.0710587e-12 </wgt>
<wgt id='1031'> +1.2333143e-12 </wgt>
<wgt id='1032'> +1.3526476e-12 </wgt>
<wgt id='1033'> +1.3563520e-12 </wgt>
<wgt id='1034'> +1.2196608e-12 </wgt>
<wgt id='1035'> +1.3662899e-12 </wgt>
<wgt id='1036'> +1.0828203e-12 </wgt>
<wgt id='1037'> +1.2046144e-12 </wgt>
<wgt id='1038'> +1.2085284e-12 </wgt>
<wgt id='1039'> +1.0692831e-12 </wgt>
<wgt id='1040'> +1.2190965e-12 </wgt>
<wgt id='1041'> +1.4347477e-12 </wgt>
<wgt id='1042'> +1.5439138e-12 </wgt>
<wgt id='1043'> +1.5471014e-12 </wgt>
<wgt id='1044'> +1.4216625e-12 </wgt>
<wgt id='1045'> +1.5555719e-12 </wgt>
<wgt id='1046'> +1.5538000e-12 </wgt>
<wgt id='1047'> +1.5545223e-12 </wgt>
<wgt id='1048'> +1.6184131e-12 </wgt>
<wgt id='1049'> +1.5078506e-12 </wgt>
<wgt id='1050'> +1.5392566e-12 </wgt>
<wgt id='1051'> +1.5295905e-12 </wgt>
<wgt id='1052'> +1.5302933e-12 </wgt>
<wgt id='1053'> +1.6277027e-12 </wgt>
<wgt id='1054'> +1.5969711e-12 </wgt>
<wgt id='1055'> +1.5284544e-12 </wgt>
<wgt id='1056'> +1.4437640e-12 </wgt>
<wgt id='1057'> +1.5433801e-12 </wgt>
<wgt id='1058'> +1.5192722e-12 </wgt>
<wgt id='1059'> +1.5567847e-12 </wgt>
<wgt id='1060'> +1.5751196e-12 </wgt>
<wgt id='1061'> +1.5904755e-12 </wgt>
<wgt id='1062'> +1.5239660e-12 </wgt>
<wgt id='1063'> +1.4699327e-12 </wgt>
<wgt id='1064'> +1.5574154e-12 </wgt>
<wgt id='1065'> +1.5880241e-12 </wgt>
<wgt id='1066'> +1.5533137e-12 </wgt>
<wgt id='1067'> +1.6112833e-12 </wgt>
<wgt id='1068'> +1.6203587e-12 </wgt>
<wgt id='1069'> +1.6211108e-12 </wgt>
<wgt id='1070'> +1.5470148e-12 </wgt>
<wgt id='1071'> +1.5641016e-12 </wgt>
<wgt id='1072'> +1.5686754e-12 </wgt>
<wgt id='1073'> +1.5190685e-12 </wgt>
<wgt id='1074'> +1.5673846e-12 </wgt>
<wgt id='1075'> +1.5185563e-12 </wgt>
<wgt id='1076'> +1.5452275e-12 </wgt>
<wgt id='1077'> +1.5626374e-12 </wgt>
<wgt id='1078'> +1.5464515e-12 </wgt>
<wgt id='1079'> +1.5711854e-12 </wgt>
<wgt id='1080'> +1.5337218e-12 </wgt>
<wgt id='1081'> +1.5310258e-12 </wgt>
<wgt id='1082'> +1.5673116e-12 </wgt>
<wgt id='1083'> +1.5338574e-12 </wgt>
<wgt id='1084'> +1.5483561e-12 </wgt>
<wgt id='1085'> +1.5805329e-12 </wgt>
<wgt id='1086'> +1.6212969e-12 </wgt>
<wgt id='1087'> +1.5289759e-12 </wgt>
<wgt id='1088'> +1.5451406e-12 </wgt>
<wgt id='1089'> +1.5151986e-12 </wgt>
<wgt id='1090'> +1.5535019e-12 </wgt>
<wgt id='1091'> +1.5762820e-12 </wgt>
<wgt id='1092'> +1.5326824e-12 </wgt>
<wgt id='1093'> +1.5879738e-12 </wgt>
<wgt id='1094'> +1.5830210e-12 </wgt>
<wgt id='1095'> +1.5955984e-12 </wgt>
<wgt id='1096'> +1.4942701e-12 </wgt>
<wgt id='1097'> +1.5768007e-12 </wgt>
<wgt id='1098'> +1.5943456e-12 </wgt>
<wgt id='1099'> +1.5525406e-12 </wgt>
<wgt id='1100'> +1.6022659e-12 </wgt>
<wgt id='1101'> +1.5628880e-12 </wgt>
<wgt id='1102'> +1.5020734e-12 </wgt>
<wgt id='1103'> +1.5154612e-12 </wgt>
<wgt id='1104'> +1.5585017e-12 </wgt>
<wgt id='1105'> +1.4939583e-12 </wgt>
<wgt id='1106'> +1.5444241e-12 </wgt>
<wgt id='1107'> +1.6001928e-12 </wgt>
<wgt id='1108'> +1.5388062e-12 </wgt>
<wgt id='1109'> +1.5487549e-12 </wgt>
<wgt id='1110'> +1.5518154e-12 </wgt>
<wgt id='1111'> +1.5605670e-12 </wgt>
<wgt id='1112'> +1.5717566e-12 </wgt>
<wgt id='1113'> +1.6384975e-12 </wgt>
<wgt id='1114'> +1.5664044e-12 </wgt>
<wgt id='1115'> +1.5832390e-12 </wgt>
<wgt id='1116'> +1.6381036e-12 </wgt>
<wgt id='1117'> +1.5571771e-12 </wgt>
<wgt id='1118'> +1.5399678e-12 </wgt>
<wgt id='1119'> +1.5212326e-12 </wgt>
<wgt id='1120'> +1.5499407e-12 </wgt>
<wgt id='1121'> +1.5050479e-12 </wgt>
<wgt id='1122'> +1.5229081e-12 </wgt>
<wgt id='1123'> +1.5864915e-12 </wgt>
<wgt id='1124'> +1.6123317e-12 </wgt>
<wgt id='1125'> +1.4879643e-12 </wgt>
<wgt id='1126'> +1.5138848e-12 </wgt>
<wgt id='1127'> +1.5734547e-12 </wgt>
<wgt id='1128'> +1.5239660e-12 </wgt>
<wgt id='1129'> +1.5345123e-12 </wgt>
<wgt id='1130'> +1.5451983e-12 </wgt>
<wgt id='1131'> +1.5986384e-12 </wgt>
<wgt id='1132'> +1.5462577e-12 </wgt>
<wgt id='1133'> +1.5556138e-12 </wgt>
<wgt id='1134'> +1.5223644e-12 </wgt>
<wgt id='1135'> +1.4953875e-12 </wgt>
<wgt id='1136'> +1.5215774e-12 </wgt>
<wgt id='1137'> +1.5601609e-12 </wgt>
<wgt id='1138'> +1.5398146e-12 </wgt>
<wgt id='1139'> +1.5496319e-12 </wgt>
<wgt id='1140'> +1.5607100e-12 </wgt>
<wgt id='1141'> +1.5478395e-12 </wgt>
<wgt id='1142'> +1.6101489e-12 </wgt>
<wgt id='1143'> +1.4734397e-12 </wgt>
<wgt id='1144'> +1.5436401e-12 </wgt>
<wgt id='1145'> +1.5685491e-12 </wgt>
<wgt id='1146'> +1.5607791e-12 </wgt>
<wgt id='1147'> +1.4356510e-12 </wgt>
<wgt id='1148'> +1.4600139e-12 </wgt>
<wgt id='1149'> +1.3812568e-12 </wgt>
<wgt id='1150'> +1.4520865e-12 </wgt>
<wgt id='1151'> +1.7774581e-12 </wgt>
<wgt id='1152'> +2.5101668e-12 </wgt>
<wgt id='1153'> +2.5190498e-12 </wgt>
<wgt id='1154'> +2.5049067e-12 </wgt>
<wgt id='1155'> +2.5057624e-12 </wgt>
<wgt id='1156'> +2.5123806e-12 </wgt>
<wgt id='1157'> +2.5158504e-12 </wgt>
<wgt id='1158'> +2.5024476e-12 </wgt>
<wgt id='1159'> +2.5144535e-12 </wgt>
<wgt id='1160'> +2.5073281e-12 </wgt>
<wgt id='1161'> +2.5036219e-12 </wgt>
<wgt id='1162'> +2.5147217e-12 </wgt>
<wgt id='1163'> +2.5085468e-12 </wgt>
<wgt id='1164'> +2.5117747e-12 </wgt>
<wgt id='1165'> +2.5152769e-12 </wgt>
<wgt id='1166'> +2.5051397e-12 </wgt>
<wgt id='1167'> +2.5475846e-12 </wgt>
<wgt id='1168'> +2.4658631e-12 </wgt>
<wgt id='1169'> +2.5221484e-12 </wgt>
<wgt id='1170'> +2.5012797e-12 </wgt>
<wgt id='1171'> +2.5009671e-12 </wgt>
<wgt id='1172'> +2.5216625e-12 </wgt>
<wgt id='1173'> +2.4793098e-12 </wgt>
<wgt id='1174'> +2.5424682e-12 </wgt>
<wgt id='1175'> +2.5140584e-12 </wgt>
<wgt id='1176'> +2.5069434e-12 </wgt>
<wgt id='1177'> +2.5079059e-12 </wgt>
<wgt id='1178'> +2.5151461e-12 </wgt>
<wgt id='1179'> +2.5031747e-12 </wgt>
<wgt id='1180'> +2.5119754e-12 </wgt>
<wgt id='1181'> +2.5117086e-12 </wgt>
<wgt id='1182'> +2.5078349e-12 </wgt>
<wgt id='1183'> +2.5148055e-12 </wgt>
<wgt id='1184'> +2.5098953e-12 </wgt>
<wgt id='1185'> +2.5025572e-12 </wgt>
<wgt id='1186'> +2.5132605e-12 </wgt>
<wgt id='1187'> +2.5146546e-12 </wgt>
<wgt id='1188'> +2.5085517e-12 </wgt>
<wgt id='1189'> +2.5022058e-12 </wgt>
<wgt id='1190'> +2.4825727e-12 </wgt>
<wgt id='1191'> +2.5119030e-12 </wgt>
<wgt id='1192'> +2.5252947e-12 </wgt>
<wgt id='1193'> +1.4377373e-12 </wgt>
<wgt id='1194'> +1.4162668e-12 </wgt>
<wgt id='1195'> +1.4553791e-12 </wgt>
<wgt id='1196'> +1.4326057e-12 </wgt>
<wgt id='1197'> +1.4434646e-12 </wgt>
<wgt id='1198'> +1.4365089e-12 </wgt>
<wgt id='1199'> +1.4396477e-12 </wgt>
<wgt id='1200'> +1.4352659e-12 </wgt>
<wgt id='1201'> +1.4394419e-12 </wgt>
<wgt id='1202'> +1.4371491e-12 </wgt>
<wgt id='1203'> +1.4385536e-12 </wgt>
<wgt id='1204'> +1.4334605e-12 </wgt>
<wgt id='1205'> +1.4401403e-12 </wgt>
<wgt id='1206'> +1.4412637e-12 </wgt>
<wgt id='1207'> +1.4329127e-12 </wgt>
<wgt id='1208'> +1.4485418e-12 </wgt>
<wgt id='1209'> +1.4339644e-12 </wgt>
<wgt id='1210'> +1.4461584e-12 </wgt>
<wgt id='1211'> +1.4303072e-12 </wgt>
<wgt id='1212'> +1.4357504e-12 </wgt>
<wgt id='1213'> +1.4404357e-12 </wgt>
<wgt id='1214'> +1.4251795e-12 </wgt>
<wgt id='1215'> +1.4525652e-12 </wgt>
<wgt id='1216'> +1.4463635e-12 </wgt>
<wgt id='1217'> +1.4314159e-12 </wgt>
<wgt id='1218'> +1.4419842e-12 </wgt>
<wgt id='1219'> +1.4353771e-12 </wgt>
<wgt id='1220'> +1.4476955e-12 </wgt>
<wgt id='1221'> +1.4355254e-12 </wgt>
<wgt id='1222'> +1.4630966e-12 </wgt>
<wgt id='1223'> +1.4034960e-12 </wgt>
<wgt id='1224'> +1.4403522e-12 </wgt>
<wgt id='1225'> +1.4367700e-12 </wgt>
<wgt id='1226'> +1.4346609e-12 </wgt>
<wgt id='1227'> +1.4399722e-12 </wgt>
<wgt id='1228'> +1.4374508e-12 </wgt>
<wgt id='1229'> +1.4380443e-12 </wgt>
<wgt id='1230'> +1.4402836e-12 </wgt>
<wgt id='1231'> +1.4510913e-12 </wgt>
<wgt id='1232'> +1.4428232e-12 </wgt>
<wgt id='1233'> +1.4365116e-12 </wgt>
<wgt id='1234'> +1.4377373e-12 </wgt>
<wgt id='1235'> +1.4313006e-12 </wgt>
<wgt id='1236'> +1.4338727e-12 </wgt>
<wgt id='1237'> +1.4360499e-12 </wgt>
<wgt id='1238'> +1.4396757e-12 </wgt>
<wgt id='1239'> +1.4410796e-12 </wgt>
<wgt id='1240'> +1.4425897e-12 </wgt>
<wgt id='1241'> +1.3579433e-12 </wgt>
<wgt id='1242'> +1.3385158e-12 </wgt>
<wgt id='1243'> +1.3771081e-12 </wgt>
<wgt id='1244'> +1.3684422e-12 </wgt>
<wgt id='1245'> +1.3502157e-12 </wgt>
<wgt id='1246'> +1.3545301e-12 </wgt>
<wgt id='1247'> +1.3608646e-12 </wgt>
<wgt id='1248'> +1.3580204e-12 </wgt>
<wgt id='1249'> +1.3578787e-12 </wgt>
<wgt id='1250'> +1.3588975e-12 </wgt>
<wgt id='1251'> +1.3572888e-12 </wgt>
<wgt id='1252'> +1.3546058e-12 </wgt>
<wgt id='1253'> +1.3605352e-12 </wgt>
<wgt id='1254'> +1.3544171e-12 </wgt>
<wgt id='1255'> +1.3599390e-12 </wgt>
<wgt id='1256'> +1.3537748e-12 </wgt>
<wgt id='1257'> +1.3685261e-12 </wgt>
<wgt id='1258'> +1.3656410e-12 </wgt>
<wgt id='1259'> +1.3478894e-12 </wgt>
<wgt id='1260'> +1.3605160e-12 </wgt>
<wgt id='1261'> +1.3554302e-12 </wgt>
<wgt id='1262'> +1.3597817e-12 </wgt>
<wgt id='1263'> +1.3571493e-12 </wgt>
<wgt id='1264'> +1.3630321e-12 </wgt>
<wgt id='1265'> +1.3559863e-12 </wgt>
<wgt id='1266'> +1.3334871e-12 </wgt>
<wgt id='1267'> +1.3815606e-12 </wgt>
<wgt id='1268'> +1.3670488e-12 </wgt>
<wgt id='1269'> +1.3500692e-12 </wgt>
<wgt id='1270'> +1.3729413e-12 </wgt>
<wgt id='1271'> +1.3616693e-12 </wgt>
<wgt id='1272'> +1.3624873e-12 </wgt>
<wgt id='1273'> +1.3579316e-12 </wgt>
<wgt id='1274'> +1.3599913e-12 </wgt>
<wgt id='1275'> +1.3551373e-12 </wgt>
<wgt id='1276'> +1.3594065e-12 </wgt>
<wgt id='1277'> +1.3572206e-12 </wgt>
<wgt id='1278'> +1.3763510e-12 </wgt>
<wgt id='1279'> +1.3625820e-12 </wgt>
<wgt id='1280'> +1.3577852e-12 </wgt>
<wgt id='1281'> +1.3661697e-12 </wgt>
<wgt id='1282'> +1.3579433e-12 </wgt>
<wgt id='1283'> +1.3521304e-12 </wgt>
<wgt id='1284'> +1.3545999e-12 </wgt>
<wgt id='1285'> +1.3564660e-12 </wgt>
<wgt id='1286'> +1.3596076e-12 </wgt>
<wgt id='1287'> +1.3605529e-12 </wgt>
<wgt id='1288'> +1.3613977e-12 </wgt>
<wgt id='1289'> +1.4878749e-12 </wgt>
<wgt id='1290'> +1.4935123e-12 </wgt>
<wgt id='1291'> +1.4818171e-12 </wgt>
<wgt id='1292'> +1.4890639e-12 </wgt>
<wgt id='1293'> +1.4869966e-12 </wgt>
<wgt id='1294'> +1.4684592e-12 </wgt>
<wgt id='1295'> +1.5064921e-12 </wgt>
<wgt id='1296'> +1.5002808e-12 </wgt>
<wgt id='1297'> +1.4724235e-12 </wgt>
<wgt id='1298'> +1.4967648e-12 </wgt>
<wgt id='1299'> +1.4766231e-12 </wgt>
<wgt id='1300'> +1.4909967e-12 </wgt>
<wgt id='1301'> +1.4815095e-12 </wgt>
<wgt id='1302'> +1.4836532e-12 </wgt>
<wgt id='1303'> +1.4937184e-12 </wgt>
<wgt id='1304'> +1.4857977e-12 </wgt>
<wgt id='1305'> +1.4892415e-12 </wgt>
<wgt id='1306'> +1.4920356e-12 </wgt>
<wgt id='1307'> +1.4829731e-12 </wgt>
<wgt id='1308'> +1.4818602e-12 </wgt>
<wgt id='1309'> +1.4924620e-12 </wgt>
<wgt id='1310'> +1.4935510e-12 </wgt>
<wgt id='1311'> +1.4821514e-12 </wgt>
<wgt id='1312'> +1.4954518e-12 </wgt>
<wgt id='1313'> +1.4810238e-12 </wgt>
<wgt id='1314'> +1.4700110e-12 </wgt>
<wgt id='1315'> +1.5051955e-12 </wgt>
<wgt id='1316'> +1.4947132e-12 </wgt>
<wgt id='1317'> +1.4910022e-12 </wgt>
<wgt id='1318'> +1.4968232e-12 </wgt>
<wgt id='1319'> +1.4755731e-12 </wgt>
<wgt id='1320'> +1.5074638e-12 </wgt>
<wgt id='1321'> +1.4695055e-12 </wgt>
<wgt id='1322'> +1.4874288e-12 </wgt>
<wgt id='1323'> +1.4882477e-12 </wgt>
<wgt id='1324'> +1.4856206e-12 </wgt>
<wgt id='1325'> +1.4912463e-12 </wgt>
<wgt id='1326'> +1.4871570e-12 </wgt>
<wgt id='1327'> +1.4917917e-12 </wgt>
<wgt id='1328'> +1.4872829e-12 </wgt>
<wgt id='1329'> +1.4876664e-12 </wgt>
<wgt id='1330'> +1.4938964e-12 </wgt>
<wgt id='1331'> +1.4807198e-12 </wgt>
<wgt id='1332'> +1.4994557e-12 </wgt>
<wgt id='1333'> +1.4966096e-12 </wgt>
<wgt id='1334'> +1.4866417e-12 </wgt>
<wgt id='1335'> +1.4915738e-12 </wgt>
<wgt id='1336'> +1.4923239e-12 </wgt>
<wgt id='1337'> +1.4979975e-12 </wgt>
<wgt id='1338'> +1.4889595e-12 </wgt>
<wgt id='1339'> +1.4912891e-12 </wgt>
<wgt id='1340'> +1.4563913e-12 </wgt>
<wgt id='1341'> +1.4618104e-12 </wgt>
<wgt id='1342'> +1.4505915e-12 </wgt>
<wgt id='1343'> +1.4577714e-12 </wgt>
<wgt id='1344'> +1.4554882e-12 </wgt>
<wgt id='1345'> +1.4362698e-12 </wgt>
<wgt id='1346'> +1.4749678e-12 </wgt>
<wgt id='1347'> +1.4695712e-12 </wgt>
<wgt id='1348'> +1.4416698e-12 </wgt>
<wgt id='1349'> +1.4649436e-12 </wgt>
<wgt id='1350'> +1.4479533e-12 </wgt>
<wgt id='1351'> +1.4594550e-12 </wgt>
<wgt id='1352'> +1.4496979e-12 </wgt>
<wgt id='1353'> +1.4512088e-12 </wgt>
<wgt id='1354'> +1.4656756e-12 </wgt>
<wgt id='1355'> +1.4553683e-12 </wgt>
<wgt id='1356'> +1.4569461e-12 </wgt>
<wgt id='1357'> +1.4596032e-12 </wgt>
<wgt id='1358'> +1.4524091e-12 </wgt>
<wgt id='1359'> +1.4497779e-12 </wgt>
<wgt id='1360'> +1.4621313e-12 </wgt>
<wgt id='1361'> +1.4619917e-12 </wgt>
<wgt id='1362'> +1.4493338e-12 </wgt>
<wgt id='1363'> +1.4696397e-12 </wgt>
<wgt id='1364'> +1.4484201e-12 </wgt>
<wgt id='1365'> +1.4645023e-12 </wgt>
<wgt id='1366'> +1.4422751e-12 </wgt>
<wgt id='1367'> +1.4634264e-12 </wgt>
<wgt id='1368'> +1.4576666e-12 </wgt>
<wgt id='1369'> +1.4632910e-12 </wgt>
<wgt id='1370'> +1.4472541e-12 </wgt>
<wgt id='1371'> +1.4721576e-12 </wgt>
<wgt id='1372'> +1.4359669e-12 </wgt>
<wgt id='1373'> +1.4520307e-12 </wgt>
<wgt id='1374'> +1.4599072e-12 </wgt>
<wgt id='1375'> +1.4540348e-12 </wgt>
<wgt id='1376'> +1.4602891e-12 </wgt>
<wgt id='1377'> +1.4562371e-12 </wgt>
<wgt id='1378'> +1.4601371e-12 </wgt>
<wgt id='1379'> +1.4560711e-12 </wgt>
<wgt id='1380'> +1.4559536e-12 </wgt>
<wgt id='1381'> +1.4625351e-12 </wgt>
<wgt id='1382'> +1.4498763e-12 </wgt>
<wgt id='1383'> +1.4651026e-12 </wgt>
<wgt id='1384'> +1.4658253e-12 </wgt>
<wgt id='1385'> +1.4553823e-12 </wgt>
<wgt id='1386'> +1.4589513e-12 </wgt>
<wgt id='1387'> +1.4619296e-12 </wgt>
<wgt id='1388'> +1.4668156e-12 </wgt>
<wgt id='1389'> +1.4577511e-12 </wgt>
<wgt id='1390'> +1.4612142e-12 </wgt>
<wgt id='1391'> +1.4350989e-12 </wgt>
<wgt id='1392'> +1.3904114e-12 </wgt>
<wgt id='1393'> +1.4059364e-12 </wgt>
<wgt id='1394'> +1.4209634e-12 </wgt>
<wgt id='1395'> +1.4505387e-12 </wgt>
<wgt id='1396'> +1.4357380e-12 </wgt>
<wgt id='1397'> +1.4149320e-12 </wgt>
<wgt id='1398'> +1.4175400e-12 </wgt>
<wgt id='1399'> +1.4208497e-12 </wgt>
<wgt id='1400'> +1.4251944e-12 </wgt>
<wgt id='1401'> +1.4303623e-12 </wgt>
<wgt id='1402'> +1.4410837e-12 </wgt>
<wgt id='1403'> +1.4469907e-12 </wgt>
<wgt id='1404'> +1.4530238e-12 </wgt>
<wgt id='1405'> +1.4357380e-12 </wgt>
<wgt id='1406'> +1.4320113e-12 </wgt>
<wgt id='1407'> +1.4338875e-12 </wgt>
<wgt id='1408'> +1.4374494e-12 </wgt>
<wgt id='1409'> +1.4385202e-12 </wgt>
<wgt id='1410'> +1.3308123e-12 </wgt>
<wgt id='1411'> +1.3404064e-12 </wgt>
<wgt id='1412'> +1.3184975e-12 </wgt>
<wgt id='1413'> +1.3194008e-12 </wgt>
<wgt id='1414'> +1.3421474e-12 </wgt>
<wgt id='1415'> +1.3264678e-12 </wgt>
<wgt id='1416'> +1.3325624e-12 </wgt>
<wgt id='1417'> +1.3331631e-12 </wgt>
<wgt id='1418'> +1.3283665e-12 </wgt>
<wgt id='1419'> +1.3328872e-12 </wgt>
<wgt id='1420'> +1.3287605e-12 </wgt>
<wgt id='1421'> +1.3166508e-12 </wgt>
<wgt id='1422'> +1.3367315e-12 </wgt>
<wgt id='1423'> +1.3300633e-12 </wgt>
<wgt id='1424'> +1.3317153e-12 </wgt>
<wgt id='1425'> +1.3220094e-12 </wgt>
<wgt id='1426'> +1.3402886e-12 </wgt>
<wgt id='1427'> +1.3177394e-12 </wgt>
<wgt id='1428'> +1.3376745e-12 </wgt>
<wgt id='1429'> +1.3334822e-12 </wgt>
<wgt id='1430'> +1.3273518e-12 </wgt>
<wgt id='1431'> +1.3311811e-12 </wgt>
<wgt id='1432'> +1.3305424e-12 </wgt>
<wgt id='1433'> +1.3087481e-12 </wgt>
<wgt id='1434'> +1.3494814e-12 </wgt>
<wgt id='1435'> +1.3242800e-12 </wgt>
<wgt id='1436'> +1.3479578e-12 </wgt>
<wgt id='1437'> +1.3367356e-12 </wgt>
<wgt id='1438'> +1.3368657e-12 </wgt>
<wgt id='1439'> +1.3242212e-12 </wgt>
<wgt id='1440'> +1.3404476e-12 </wgt>
<wgt id='1441'> +1.3372906e-12 </wgt>
<wgt id='1442'> +1.3159290e-12 </wgt>
<wgt id='1443'> +1.3272295e-12 </wgt>
<wgt id='1444'> +1.3385474e-12 </wgt>
<wgt id='1445'> +1.3401844e-12 </wgt>
<wgt id='1446'> +1.3270683e-12 </wgt>
<wgt id='1447'> +1.3327002e-12 </wgt>
<wgt id='1448'> +1.3339978e-12 </wgt>
<wgt id='1449'> +1.3308240e-12 </wgt>
<wgt id='1450'> +1.3297563e-12 </wgt>
<wgt id='1451'> +1.3297980e-12 </wgt>
<wgt id='1452'> +1.3369491e-12 </wgt>
<wgt id='1453'> +1.3317626e-12 </wgt>
<wgt id='1454'> +1.3348304e-12 </wgt>
<wgt id='1455'> +1.3438314e-12 </wgt>
<wgt id='1456'> +1.3417010e-12 </wgt>
<wgt id='1457'> +1.3389396e-12 </wgt>
<wgt id='1458'> +1.3297422e-12 </wgt>
<wgt id='1459'> +1.3380968e-12 </wgt>
<wgt id='1460'> +1.3457706e-12 </wgt>
<wgt id='1461'> +1.3308123e-12 </wgt>
<wgt id='1462'> +1.3206506e-12 </wgt>
<wgt id='1463'> +1.3363604e-12 </wgt>
<wgt id='1464'> +1.3286397e-12 </wgt>
<wgt id='1465'> +1.3043459e-12 </wgt>
<wgt id='1466'> +1.3077094e-12 </wgt>
<wgt id='1467'> +1.3120696e-12 </wgt>
<wgt id='1468'> +1.3198972e-12 </wgt>
<wgt id='1469'> +1.3232603e-12 </wgt>
<wgt id='1470'> +1.3344643e-12 </wgt>
<wgt id='1471'> +1.3399409e-12 </wgt>
<wgt id='1472'> +1.3455228e-12 </wgt>
<wgt id='1473'> +1.3286397e-12 </wgt>
<wgt id='1474'> +1.3258594e-12 </wgt>
<wgt id='1475'> +1.3281082e-12 </wgt>
<wgt id='1476'> +1.3294818e-12 </wgt>
<wgt id='1477'> +1.3302252e-12 </wgt>
<wgt id='1478'> +1.4085369e-12 </wgt>
<wgt id='1479'> +1.4092157e-12 </wgt>
<wgt id='1480'> +1.3961952e-12 </wgt>
<wgt id='1481'> +1.4398493e-12 </wgt>
<wgt id='1482'> +1.4119355e-12 </wgt>
<wgt id='1483'> +1.3946179e-12 </wgt>
<wgt id='1484'> +1.3957552e-12 </wgt>
<wgt id='1485'> +1.4219599e-12 </wgt>
<wgt id='1486'> +1.4077016e-12 </wgt>
<wgt id='1487'> +1.4196890e-12 </wgt>
<wgt id='1488'> +1.4060858e-12 </wgt>
<wgt id='1489'> +1.4089514e-12 </wgt>
<wgt id='1490'> +1.4054795e-12 </wgt>
<wgt id='1491'> +1.4153596e-12 </wgt>
<wgt id='1492'> +1.4081698e-12 </wgt>
<wgt id='1493'> +1.3883122e-12 </wgt>
<wgt id='1494'> +1.4038457e-12 </wgt>
<wgt id='1495'> +1.4014463e-12 </wgt>
<wgt id='1496'> +1.4091946e-12 </wgt>
<wgt id='1497'> +1.4080162e-12 </wgt>
<wgt id='1498'> +1.4088930e-12 </wgt>
<wgt id='1499'> +1.4118329e-12 </wgt>
<wgt id='1500'> +1.4112749e-12 </wgt>
<wgt id='1501'> +1.4101350e-12 </wgt>
<wgt id='1502'> +1.4063473e-12 </wgt>
<wgt id='1503'> +1.4138909e-12 </wgt>
<wgt id='1504'> +1.4029046e-12 </wgt>
<wgt id='1505'> +1.4141442e-12 </wgt>
<wgt id='1506'> +1.4112770e-12 </wgt>
<wgt id='1507'> +1.4084423e-12 </wgt>
<wgt id='1508'> +1.4112399e-12 </wgt>
<wgt id='1509'> +1.3419883e-12 </wgt>
<wgt id='1510'> +1.3480864e-12 </wgt>
<wgt id='1511'> +1.3189011e-12 </wgt>
<wgt id='1512'> +1.3293111e-12 </wgt>
<wgt id='1513'> +1.3393638e-12 </wgt>
<wgt id='1514'> +1.3461475e-12 </wgt>
<wgt id='1515'> +1.3461196e-12 </wgt>
<wgt id='1516'> +1.3435804e-12 </wgt>
<wgt id='1517'> +1.3425984e-12 </wgt>
<wgt id='1518'> +1.3408744e-12 </wgt>
<wgt id='1519'> +1.3442809e-12 </wgt>
<wgt id='1520'> +1.3438571e-12 </wgt>
<wgt id='1521'> +1.3409909e-12 </wgt>
<wgt id='1522'> +1.3443031e-12 </wgt>
<wgt id='1523'> +1.3449170e-12 </wgt>
<wgt id='1524'> +1.3400721e-12 </wgt>
<wgt id='1525'> +1.3414962e-12 </wgt>
<wgt id='1526'> +1.3438024e-12 </wgt>
<wgt id='1527'> +1.3421061e-12 </wgt>
<wgt id='1528'> +1.3433093e-12 </wgt>
<wgt id='1529'> +1.3433522e-12 </wgt>
<wgt id='1530'> +1.3419664e-12 </wgt>
<wgt id='1531'> +1.3442421e-12 </wgt>
<wgt id='1532'> +1.3389558e-12 </wgt>
<wgt id='1533'> +1.3416564e-12 </wgt>
<wgt id='1534'> +1.3431502e-12 </wgt>
<wgt id='1535'> +1.3386788e-12 </wgt>
<wgt id='1536'> +1.3462322e-12 </wgt>
<wgt id='1537'> +1.3450589e-12 </wgt>
<wgt id='1538'> +1.3276487e-12 </wgt>
<wgt id='1539'> +1.3385290e-12 </wgt>
<wgt id='1540'> +1.3407305e-12 </wgt>
<wgt id='1541'> +1.3386576e-12 </wgt>
<wgt id='1542'> +1.3398772e-12 </wgt>
<wgt id='1543'> +1.3431356e-12 </wgt>
<wgt id='1544'> +1.3399429e-12 </wgt>
<wgt id='1545'> +1.3408773e-12 </wgt>
<wgt id='1546'> +1.3432913e-12 </wgt>
<wgt id='1547'> +1.3408207e-12 </wgt>
<wgt id='1548'> +1.3425964e-12 </wgt>
<wgt id='1549'> +1.3408359e-12 </wgt>
<wgt id='1550'> +1.3422167e-12 </wgt>
<wgt id='1551'> +1.3416083e-12 </wgt>
<wgt id='1552'> +1.3437302e-12 </wgt>
<wgt id='1553'> +1.3417177e-12 </wgt>
<wgt id='1554'> +1.3412675e-12 </wgt>
<wgt id='1555'> +1.3430457e-12 </wgt>
<wgt id='1556'> +1.3440613e-12 </wgt>
<wgt id='1557'> +1.3422578e-12 </wgt>
<wgt id='1558'> +1.3424161e-12 </wgt>
<wgt id='1559'> +1.3417151e-12 </wgt>
<wgt id='1560'> +1.3436489e-12 </wgt>
<wgt id='1561'> +1.3428379e-12 </wgt>
<wgt id='1562'> +1.3425215e-12 </wgt>
<wgt id='1563'> +1.3433866e-12 </wgt>
<wgt id='1564'> +1.3411078e-12 </wgt>
<wgt id='1565'> +1.3413493e-12 </wgt>
<wgt id='1566'> +1.3417632e-12 </wgt>
<wgt id='1567'> +1.3397766e-12 </wgt>
<wgt id='1568'> +1.3424365e-12 </wgt>
<wgt id='1569'> +1.3438940e-12 </wgt>
<wgt id='1570'> +1.3426544e-12 </wgt>
<wgt id='1571'> +1.3418572e-12 </wgt>
<wgt id='1572'> +1.3410400e-12 </wgt>
<wgt id='1573'> +1.3400783e-12 </wgt>
<wgt id='1574'> +1.3418221e-12 </wgt>
<wgt id='1575'> +1.3429732e-12 </wgt>
<wgt id='1576'> +1.3433060e-12 </wgt>
<wgt id='1577'> +1.3448299e-12 </wgt>
<wgt id='1578'> +1.3413713e-12 </wgt>
<wgt id='1579'> +1.3417032e-12 </wgt>
<wgt id='1580'> +1.3422100e-12 </wgt>
<wgt id='1581'> +1.3421125e-12 </wgt>
<wgt id='1582'> +1.3414844e-12 </wgt>
<wgt id='1583'> +1.3415186e-12 </wgt>
<wgt id='1584'> +1.3402065e-12 </wgt>
<wgt id='1585'> +1.3410460e-12 </wgt>
<wgt id='1586'> +1.3428120e-12 </wgt>
<wgt id='1587'> +1.3432095e-12 </wgt>
<wgt id='1588'> +1.3420005e-12 </wgt>
<wgt id='1589'> +1.3422728e-12 </wgt>
<wgt id='1590'> +1.3431932e-12 </wgt>
<wgt id='1591'> +1.3430698e-12 </wgt>
<wgt id='1592'> +1.3432399e-12 </wgt>
<wgt id='1593'> +1.3414048e-12 </wgt>
<wgt id='1594'> +1.3422522e-12 </wgt>
<wgt id='1595'> +1.3407854e-12 </wgt>
<wgt id='1596'> +1.3419461e-12 </wgt>
<wgt id='1597'> +1.3408838e-12 </wgt>
<wgt id='1598'> +1.3426790e-12 </wgt>
<wgt id='1599'> +1.3419680e-12 </wgt>
<wgt id='1600'> +1.3414909e-12 </wgt>
<wgt id='1601'> +1.3420984e-12 </wgt>
<wgt id='1602'> +1.3408365e-12 </wgt>
<wgt id='1603'> +1.3414752e-12 </wgt>
<wgt id='1604'> +1.3415188e-12 </wgt>
<wgt id='1605'> +1.3418074e-12 </wgt>
<wgt id='1606'> +1.3424502e-12 </wgt>
<wgt id='1607'> +1.3417146e-12 </wgt>
<wgt id='1608'> +1.3416849e-12 </wgt>
<wgt id='1609'> +1.3416281e-12 </wgt>
<wgt id='1610'> +1.3265365e-12 </wgt>
<wgt id='1611'> +1.3548941e-12 </wgt>
<wgt id='1612'> +1.5396927e-12 </wgt>
<wgt id='1613'> +1.5005734e-12 </wgt>
<wgt id='1614'> +1.4517716e-12 </wgt>
<wgt id='1615'> +1.5123488e-12 </wgt>
<wgt id='1616'> +1.4759290e-12 </wgt>
<wgt id='1617'> +1.4917650e-12 </wgt>
<wgt id='1618'> +1.5462343e-12 </wgt>
<wgt id='1619'> +1.4996043e-12 </wgt>
<wgt id='1620'> +1.5015744e-12 </wgt>
<wgt id='1621'> +1.5521361e-12 </wgt>
<wgt id='1622'> +1.5510994e-12 </wgt>
<wgt id='1623'> +1.5705516e-12 </wgt>
<wgt id='1624'> +1.5940149e-12 </wgt>
<wgt id='1625'> +1.4587472e-12 </wgt>
<wgt id='1626'> +1.5199563e-12 </wgt>
<wgt id='1627'> +1.5673297e-12 </wgt>
<wgt id='1628'> +1.4523507e-12 </wgt>
<wgt id='1629'> +1.5743283e-12 </wgt>
<wgt id='1630'> +1.4861547e-12 </wgt>
<wgt id='1631'> +1.5035465e-12 </wgt>
<wgt id='1632'> +1.4795234e-12 </wgt>
<wgt id='1633'> +1.4728605e-12 </wgt>
<wgt id='1634'> +1.5359330e-12 </wgt>
<wgt id='1635'> +1.5534161e-12 </wgt>
<wgt id='1636'> +1.5198299e-12 </wgt>
<wgt id='1637'> +1.5778586e-12 </wgt>
<wgt id='1638'> +1.5524023e-12 </wgt>
<wgt id='1639'> +1.5241112e-12 </wgt>
<wgt id='1640'> +1.5221990e-12 </wgt>
<wgt id='1641'> +1.5533022e-12 </wgt>
<wgt id='1642'> +1.4726137e-12 </wgt>
<wgt id='1643'> +1.5130803e-12 </wgt>
<wgt id='1644'> +1.5715551e-12 </wgt>
<wgt id='1645'> +1.5070325e-12 </wgt>
<wgt id='1646'> +1.5598577e-12 </wgt>
<wgt id='1647'> +1.5913555e-12 </wgt>
<wgt id='1648'> +1.5324981e-12 </wgt>
<wgt id='1649'> +1.6138136e-12 </wgt>
<wgt id='1650'> +1.5019993e-12 </wgt>
<wgt id='1651'> +1.5902287e-12 </wgt>
<wgt id='1652'> +1.5316841e-12 </wgt>
<wgt id='1653'> +1.5206997e-12 </wgt>
<wgt id='1654'> +1.5594746e-12 </wgt>
<wgt id='1655'> +1.5973452e-12 </wgt>
<wgt id='1656'> +1.5160755e-12 </wgt>
<wgt id='1657'> +1.5659981e-12 </wgt>
<wgt id='1658'> +1.5296501e-12 </wgt>
<wgt id='1659'> +1.5940149e-12 </wgt>
<wgt id='1660'> +1.5556982e-12 </wgt>
<wgt id='1661'> +1.5829159e-12 </wgt>
<wgt id='1662'> +1.6077570e-12 </wgt>
<wgt id='1663'> +1.5429204e-12 </wgt>
<wgt id='1664'> +1.5226674e-12 </wgt>
<wgt id='1665'> +1.5114766e-12 </wgt>
<wgt id='1666'> +1.5632701e-12 </wgt>
<wgt id='1667'> +1.5650322e-12 </wgt>
<wgt id='1668'> +1.5580382e-12 </wgt>
<wgt id='1669'> +1.5595527e-12 </wgt>
<wgt id='1670'> +1.5095472e-12 </wgt>
<wgt id='1671'> +1.4998567e-12 </wgt>
<wgt id='1672'> +1.5678123e-12 </wgt>
<wgt id='1673'> +1.5610476e-12 </wgt>
<wgt id='1674'> +1.5330106e-12 </wgt>
<wgt id='1675'> +1.5329252e-12 </wgt>
<wgt id='1676'> +1.5135345e-12 </wgt>
<wgt id='1677'> +1.5200242e-12 </wgt>
<wgt id='1678'> +1.5276198e-12 </wgt>
<wgt id='1679'> +1.5544020e-12 </wgt>
<wgt id='1680'> +1.5737734e-12 </wgt>
<wgt id='1681'> +1.5801134e-12 </wgt>
<wgt id='1682'> +1.5223846e-12 </wgt>
<wgt id='1683'> +1.5701573e-12 </wgt>
<wgt id='1684'> +1.6131657e-12 </wgt>
<wgt id='1685'> +1.5324604e-12 </wgt>
<wgt id='1686'> +1.5316592e-12 </wgt>
<wgt id='1687'> +1.5744680e-12 </wgt>
<wgt id='1688'> +1.5067225e-12 </wgt>
<wgt id='1689'> +1.6118221e-12 </wgt>
<wgt id='1690'> +1.5471192e-12 </wgt>
<wgt id='1691'> +1.4397660e-12 </wgt>
<wgt id='1692'> +1.4945392e-12 </wgt>
<wgt id='1693'> +1.5490972e-12 </wgt>
<wgt id='1694'> +1.5248932e-12 </wgt>
<wgt id='1695'> +1.5419066e-12 </wgt>
<wgt id='1696'> +1.5294646e-12 </wgt>
<wgt id='1697'> +1.5366922e-12 </wgt>
<wgt id='1698'> +1.5584625e-12 </wgt>
<wgt id='1699'> +1.5607131e-12 </wgt>
<wgt id='1700'> +1.5015503e-12 </wgt>
<wgt id='1701'> +1.6090496e-12 </wgt>
<wgt id='1702'> +1.4922729e-12 </wgt>
<wgt id='1703'> +1.5023006e-12 </wgt>
<wgt id='1704'> +1.4903937e-12 </wgt>
<wgt id='1705'> +1.4840675e-12 </wgt>
<wgt id='1706'> +1.5818082e-12 </wgt>
<wgt id='1707'> +1.5724295e-12 </wgt>
<wgt id='1708'> +1.6318371e-12 </wgt>
<wgt id='1709'> +1.6095510e-12 </wgt>
<wgt id='1710'> +1.5416944e-12 </wgt>
<wgt id='1711'> +1.5567310e-12 </wgt>
<wgt id='1712'> +1.6268992e-12 </wgt>
<wgt id='1713'> +1.3748381e-12 </wgt>
<wgt id='1714'> +1.3630402e-12 </wgt>
<wgt id='1715'> +1.3186031e-12 </wgt>
<wgt id='1716'> +1.4156327e-12 </wgt>
<wgt id='1717'> +1.3979090e-12 </wgt>
<wgt id='1718'> +1.4119890e-12 </wgt>
<wgt id='1719'> +1.3970287e-12 </wgt>
<wgt id='1720'> +1.3212491e-12 </wgt>
<wgt id='1721'> +1.3548480e-12 </wgt>
<wgt id='1722'> +1.3706427e-12 </wgt>
<wgt id='1723'> +1.4194052e-12 </wgt>
<wgt id='1724'> +1.3693368e-12 </wgt>
<wgt id='1725'> +1.3920324e-12 </wgt>
<wgt id='1726'> +1.3745496e-12 </wgt>
<wgt id='1727'> +1.4412403e-12 </wgt>
<wgt id='1728'> +1.3631893e-12 </wgt>
<wgt id='1729'> +1.2997463e-12 </wgt>
<wgt id='1730'> +1.3488383e-12 </wgt>
<wgt id='1731'> +1.3051500e-12 </wgt>
<wgt id='1732'> +1.3810151e-12 </wgt>
<wgt id='1733'> +1.3141513e-12 </wgt>
<wgt id='1734'> +1.4553851e-12 </wgt>
<wgt id='1735'> +1.3350631e-12 </wgt>
<wgt id='1736'> +1.3942204e-12 </wgt>
<wgt id='1737'> +1.4367301e-12 </wgt>
<wgt id='1738'> +1.3617648e-12 </wgt>
<wgt id='1739'> +1.3986593e-12 </wgt>
<wgt id='1740'> +1.2924737e-12 </wgt>
<wgt id='1741'> +1.4458606e-12 </wgt>
<wgt id='1742'> +1.3685025e-12 </wgt>
<wgt id='1743'> +1.3427111e-12 </wgt>
<wgt id='1744'> +1.3998329e-12 </wgt>
<wgt id='1745'> +1.4143783e-12 </wgt>
<wgt id='1746'> +1.3651298e-12 </wgt>
<wgt id='1747'> +1.4295971e-12 </wgt>
<wgt id='1748'> +1.3862265e-12 </wgt>
<wgt id='1749'> +1.3635269e-12 </wgt>
<wgt id='1750'> +1.3469189e-12 </wgt>
<wgt id='1751'> +1.3648821e-12 </wgt>
<wgt id='1752'> +1.3564782e-12 </wgt>
<wgt id='1753'> +1.3887305e-12 </wgt>
<wgt id='1754'> +1.3960388e-12 </wgt>
<wgt id='1755'> +1.3730122e-12 </wgt>
<wgt id='1756'> +1.3996255e-12 </wgt>
<wgt id='1757'> +1.4035206e-12 </wgt>
<wgt id='1758'> +1.4253923e-12 </wgt>
<wgt id='1759'> +1.3965275e-12 </wgt>
<wgt id='1760'> +1.3717060e-12 </wgt>
<wgt id='1761'> +1.3616739e-12 </wgt>
<wgt id='1762'> +1.3717778e-12 </wgt>
<wgt id='1763'> +1.4020912e-12 </wgt>
<wgt id='1764'> +1.4400898e-12 </wgt>
<wgt id='1765'> +1.3685998e-12 </wgt>
<wgt id='1766'> +1.4143365e-12 </wgt>
<wgt id='1767'> +1.3471923e-12 </wgt>
<wgt id='1768'> +1.3936947e-12 </wgt>
<wgt id='1769'> +1.3663856e-12 </wgt>
<wgt id='1770'> +1.3633786e-12 </wgt>
<wgt id='1771'> +1.4391872e-12 </wgt>
<wgt id='1772'> +1.3586246e-12 </wgt>
<wgt id='1773'> +1.3805653e-12 </wgt>
<wgt id='1774'> +1.3695150e-12 </wgt>
<wgt id='1775'> +1.3773870e-12 </wgt>
<wgt id='1776'> +1.4368421e-12 </wgt>
<wgt id='1777'> +1.3126961e-12 </wgt>
<wgt id='1778'> +1.3981991e-12 </wgt>
<wgt id='1779'> +1.3559149e-12 </wgt>
<wgt id='1780'> +1.3821052e-12 </wgt>
<wgt id='1781'> +1.3999988e-12 </wgt>
<wgt id='1782'> +1.3648780e-12 </wgt>
<wgt id='1783'> +1.3778345e-12 </wgt>
<wgt id='1784'> +1.3572700e-12 </wgt>
<wgt id='1785'> +1.3928755e-12 </wgt>
<wgt id='1786'> +1.3573546e-12 </wgt>
<wgt id='1787'> +1.4745285e-12 </wgt>
<wgt id='1788'> +1.3583673e-12 </wgt>
<wgt id='1789'> +1.4628307e-12 </wgt>
<wgt id='1790'> +1.3582160e-12 </wgt>
<wgt id='1791'> +1.3423233e-12 </wgt>
<wgt id='1792'> +1.3641400e-12 </wgt>
<wgt id='1793'> +1.3447699e-12 </wgt>
<wgt id='1794'> +1.4000730e-12 </wgt>
<wgt id='1795'> +1.3848286e-12 </wgt>
<wgt id='1796'> +1.3314609e-12 </wgt>
<wgt id='1797'> +1.3713652e-12 </wgt>
<wgt id='1798'> +1.3749155e-12 </wgt>
<wgt id='1799'> +1.3518858e-12 </wgt>
<wgt id='1800'> +1.3897145e-12 </wgt>
<wgt id='1801'> +1.3714381e-12 </wgt>
<wgt id='1802'> +1.3191716e-12 </wgt>
<wgt id='1803'> +1.3863610e-12 </wgt>
<wgt id='1804'> +1.3946727e-12 </wgt>
<wgt id='1805'> +1.3424672e-12 </wgt>
<wgt id='1806'> +1.3426604e-12 </wgt>
<wgt id='1807'> +1.3304697e-12 </wgt>
<wgt id='1808'> +1.3436621e-12 </wgt>
<wgt id='1809'> +1.3426283e-12 </wgt>
<wgt id='1810'> +1.3396415e-12 </wgt>
<wgt id='1811'> +1.3849197e-12 </wgt>
<wgt id='1812'> +1.3466880e-12 </wgt>
<wgt id='1813'> +1.2777437e-12 </wgt>
<wgt id='1814'> +1.8130598e-12 </wgt>
<wgt id='1815'> +2.2206726e-12 </wgt>
<wgt id='1816'> +1.3748381e-12 </wgt>
<wgt id='1817'> +1.3630402e-12 </wgt>
<wgt id='1818'> +1.3186031e-12 </wgt>
<wgt id='1819'> +1.4156327e-12 </wgt>
<wgt id='1820'> +1.3979090e-12 </wgt>
<wgt id='1821'> +1.4119890e-12 </wgt>
<wgt id='1822'> +1.3970287e-12 </wgt>
<wgt id='1823'> +1.3212491e-12 </wgt>
<wgt id='1824'> +1.3548480e-12 </wgt>
<wgt id='1825'> +1.3706427e-12 </wgt>
<wgt id='1826'> +1.4194052e-12 </wgt>
<wgt id='1827'> +1.3693368e-12 </wgt>
<wgt id='1828'> +1.3920324e-12 </wgt>
<wgt id='1829'> +1.3745496e-12 </wgt>
<wgt id='1830'> +1.4412403e-12 </wgt>
<wgt id='1831'> +1.3631893e-12 </wgt>
<wgt id='1832'> +1.2997463e-12 </wgt>
<wgt id='1833'> +1.3488383e-12 </wgt>
<wgt id='1834'> +1.3051500e-12 </wgt>
<wgt id='1835'> +1.3810151e-12 </wgt>
<wgt id='1836'> +1.3141513e-12 </wgt>
<wgt id='1837'> +1.4553851e-12 </wgt>
<wgt id='1838'> +1.3350631e-12 </wgt>
<wgt id='1839'> +1.3942204e-12 </wgt>
<wgt id='1840'> +1.4367301e-12 </wgt>
<wgt id='1841'> +1.3617648e-12 </wgt>
<wgt id='1842'> +1.3986593e-12 </wgt>
<wgt id='1843'> +1.2924737e-12 </wgt>
<wgt id='1844'> +1.4458606e-12 </wgt>
<wgt id='1845'> +1.3685025e-12 </wgt>
<wgt id='1846'> +1.3427111e-12 </wgt>
<wgt id='1847'> +1.3998329e-12 </wgt>
<wgt id='1848'> +1.4143783e-12 </wgt>
<wgt id='1849'> +1.3651298e-12 </wgt>
<wgt id='1850'> +1.4295971e-12 </wgt>
<wgt id='1851'> +1.3862265e-12 </wgt>
<wgt id='1852'> +1.3635269e-12 </wgt>
<wgt id='1853'> +1.3469189e-12 </wgt>
<wgt id='1854'> +1.3648821e-12 </wgt>
<wgt id='1855'> +1.3564782e-12 </wgt>
<wgt id='1856'> +1.3887305e-12 </wgt>
<wgt id='1857'> +1.3960388e-12 </wgt>
<wgt id='1858'> +1.3730122e-12 </wgt>
<wgt id='1859'> +1.3996255e-12 </wgt>
<wgt id='1860'> +1.4035206e-12 </wgt>
<wgt id='1861'> +1.4253923e-12 </wgt>
<wgt id='1862'> +1.3965275e-12 </wgt>
<wgt id='1863'> +1.3717060e-12 </wgt>
<wgt id='1864'> +1.3616739e-12 </wgt>
<wgt id='1865'> +1.3717778e-12 </wgt>
<wgt id='1866'> +1.4020912e-12 </wgt>
<wgt id='1867'> +1.4400898e-12 </wgt>
<wgt id='1868'> +1.3685998e-12 </wgt>
<wgt id='1869'> +1.4143365e-12 </wgt>
<wgt id='1870'> +1.3471923e-12 </wgt>
<wgt id='1871'> +1.3936947e-12 </wgt>
<wgt id='1872'> +1.3663856e-12 </wgt>
<wgt id='1873'> +1.3633786e-12 </wgt>
<wgt id='1874'> +1.4391872e-12 </wgt>
<wgt id='1875'> +1.3586246e-12 </wgt>
<wgt id='1876'> +1.3805653e-12 </wgt>
<wgt id='1877'> +1.3695150e-12 </wgt>
<wgt id='1878'> +1.3773870e-12 </wgt>
<wgt id='1879'> +1.4368421e-12 </wgt>
<wgt id='1880'> +1.3126961e-12 </wgt>
<wgt id='1881'> +1.3981991e-12 </wgt>
<wgt id='1882'> +1.3559149e-12 </wgt>
<wgt id='1883'> +1.3821052e-12 </wgt>
<wgt id='1884'> +1.3999988e-12 </wgt>
<wgt id='1885'> +1.3648780e-12 </wgt>
<wgt id='1886'> +1.3778345e-12 </wgt>
<wgt id='1887'> +1.3572700e-12 </wgt>
<wgt id='1888'> +1.3928755e-12 </wgt>
<wgt id='1889'> +1.3573546e-12 </wgt>
<wgt id='1890'> +1.4745285e-12 </wgt>
<wgt id='1891'> +1.3583673e-12 </wgt>
<wgt id='1892'> +1.4628307e-12 </wgt>
<wgt id='1893'> +1.3582160e-12 </wgt>
<wgt id='1894'> +1.3423233e-12 </wgt>
<wgt id='1895'> +1.3641400e-12 </wgt>
<wgt id='1896'> +1.3447699e-12 </wgt>
<wgt id='1897'> +1.4000730e-12 </wgt>
<wgt id='1898'> +1.3848286e-12 </wgt>
<wgt id='1899'> +1.3314609e-12 </wgt>
<wgt id='1900'> +1.3713652e-12 </wgt>
<wgt id='1901'> +1.3749155e-12 </wgt>
<wgt id='1902'> +1.3518858e-12 </wgt>
<wgt id='1903'> +1.3897145e-12 </wgt>
<wgt id='1904'> +1.3714381e-12 </wgt>
<wgt id='1905'> +1.3191716e-12 </wgt>
<wgt id='1906'> +1.3863610e-12 </wgt>
<wgt id='1907'> +1.3946727e-12 </wgt>
<wgt id='1908'> +1.3424672e-12 </wgt>
<wgt id='1909'> +1.3426604e-12 </wgt>
<wgt id='1910'> +1.3304697e-12 </wgt>
<wgt id='1911'> +1.3436621e-12 </wgt>
<wgt id='1912'> +1.3426283e-12 </wgt>
<wgt id='1913'> +1.3396415e-12 </wgt>
<wgt id='1914'> +1.3849197e-12 </wgt>
<wgt id='1915'> +1.3466880e-12 </wgt>
<wgt id='1916'> +1.2777437e-12 </wgt>
<wgt id='1917'> +1.3695489e-12 </wgt>
<wgt id='1918'> +1.3926596e-12 </wgt>
<wgt id='1919'> +1.3243053e-12 </wgt>
</rwgt>
</event>
<event>
 9      1 +1.5538000e-12 2.60267600e+01 7.81860800e-03 1.49365000e-01
        2 -1    0    0  502    0 -0.0000000000e+00 +0.0000000000e+00 +8.2323604499e+01 8.2323604499e+01 0.0000000000e+00 0.0000e+00 -1.0000e+00
       21 -1    0    0  501  502 +0.0000000000e+00 -0.0000000000e+00 -8.9771393599e+00 8.9771393599e+00 0.0000000000e+00 0.0000e+00 -1.0000e+00
     1023  2    1    2    0    0 -1.8921477050e+01 +9.7136566047e+00 +1.7033971058e+01 3.1105441650e+01 1.5000497053e+01 0.0000e+00 0.0000e+00
  1000023  2    3    3    0    0 -7.9680756971e+00 +8.8760500831e+00 +1.2729603949e+01 1.8291146425e+01 5.4998841317e+00 0.0000e+00 0.0000e+00
        2  1    1    2  501    0 +1.8921477050e+01 -9.7136566047e+00 +5.6312494081e+01 6.0195302209e+01 0.0000000000e+00 0.0000e+00 -1.0000e+00
  1000022  1    4    4    0    0 -7.3396218140e+00 +7.7103441310e+00 +1.1276905448e+01 1.6293804082e+01 5.0000000000e+00 0.0000e+00 -1.0000e+00
      -13  1    4    4    0    0 -2.5267319720e-01 +4.3726160359e-01 +7.6212720566e-01 9.2035418300e-01 1.0570000000e-01 0.0000e+00 -1.0000e+00
       13  1    4    4    0    0 -3.7578068585e-01 +7.2844434850e-01 +6.9057129535e-01 1.0769881600e+00 1.0570000000e-01 0.0000e+00 1.0000e+00
  1000022  1    3    3    0    0 -1.0953401353e+01 +8.3760652158e-01 +4.3043671089e+00 1.2814295224e+01 5.0000000000e+00 0.0000e+00 -1.0000e+00
<mgrwt>
<rscale>  1 0.26026762E+02</rscale>
<asrwt>0</asrwt>
<pdfrwt beam="1">  1       21 0.13810984E-02 0.26026762E+02</pdfrwt>
<pdfrwt beam="2">  1        2 0.12665169E-01 0.26026762E+02</pdfrwt>
<totfact> 0.90258451E+06</totfact>
</mgrwt>
<rwgt>
<wgt id='1001'> +1.5538000e-12 </wgt>
<wgt id='1002'> +1.6364015e-12 </wgt>
<wgt id='1003'> +1.6381890e-12 </wgt>
<wgt id='1004'> +1.5324867e-12 </wgt>
<wgt id='1005'> +1.6548733e-12 </wgt>
<wgt id='1006'> +1.3541317e-12 </wgt>
<wgt id='1007'> +1.4472139e-12 </wgt>
<wgt id='1008'> +1.4493230e-12 </wgt>
<wgt id='1009'> +1.3309983e-12 </wgt>
<wgt id='1010'> +1.4692664e-12 </wgt>
<wgt id='1011'> +1.8260802e-12 </wgt>
<wgt id='1012'> +1.8850352e-12 </wgt>
<wgt id='1013'> +1.8861802e-12 </wgt>
<wgt id='1014'> +1.8096641e-12 </wgt>
<wgt id='1015'> +1.8964756e-12 </wgt>
<wgt id='1016'> +1.8938541e-12 </wgt>
<wgt id='1017'> +1.9162623e-12 </wgt>
<wgt id='1018'> +1.9165673e-12 </wgt>
<wgt id='1019'> +1.8861802e-12 </wgt>
<wgt id='1020'> +1.9188292e-12 </wgt>
<wgt id='1021'> +1.6504877e-12 </wgt>
<wgt id='1022'> +1.6947194e-12 </wgt>
<wgt id='1023'> +1.6956072e-12 </wgt>
<wgt id='1024'> +1.6381890e-12 </wgt>
<wgt id='1025'> +1.7036176e-12 </wgt>
<wgt id='1026'> +2.2257237e-12 </wgt>
<wgt id='1027'> +2.2074179e-12 </wgt>
<wgt id='1028'> +2.2066998e-12 </wgt>
<wgt id='1029'> +2.2273294e-12 </wgt>
<wgt id='1030'> +2.1989676e-12 </wgt>
<wgt id='1031'> +1.1837826e-12 </wgt>
<wgt id='1032'> +1.3276821e-12 </wgt>
<wgt id='1033'> +1.3309983e-12 </wgt>
<wgt id='1034'> +1.1482405e-12 </wgt>
<wgt id='1035'> +1.3626455e-12 </wgt>
<wgt id='1036'> +1.0316627e-12 </wgt>
<wgt id='1037'> +1.1741862e-12 </wgt>
<wgt id='1038'> +1.1775482e-12 </wgt>
<wgt id='1039'> +9.9727207e-13 </wgt>
<wgt id='1040'> +1.2098142e-12 </wgt>
<wgt id='1041'> +1.3912228e-12 </wgt>
<wgt id='1042'> +1.5294093e-12 </wgt>
<wgt id='1043'> +1.5324867e-12 </wgt>
<wgt id='1044'> +1.3559201e-12 </wgt>
<wgt id='1045'> +1.5615841e-12 </wgt>
<wgt id='1046'> +1.5538000e-12 </wgt>
<wgt id='1047'> +1.6047987e-12 </wgt>
<wgt id='1048'> +1.5414300e-12 </wgt>
<wgt id='1049'> +1.5063997e-12 </wgt>
<wgt id='1050'> +1.5220666e-12 </wgt>
<wgt id='1051'> +1.5500936e-12 </wgt>
<wgt id='1052'> +1.5250730e-12 </wgt>
<wgt id='1053'> +1.5542118e-12 </wgt>
<wgt id='1054'> +1.5439571e-12 </wgt>
<wgt id='1055'> +1.5095688e-12 </wgt>
<wgt id='1056'> +1.5462671e-12 </wgt>
<wgt id='1057'> +1.5680429e-12 </wgt>
<wgt id='1058'> +1.5120423e-12 </wgt>
<wgt id='1059'> +1.5683453e-12 </wgt>
<wgt id='1060'> +1.5660957e-12 </wgt>
<wgt id='1061'> +1.5425554e-12 </wgt>
<wgt id='1062'> +1.5697677e-12 </wgt>
<wgt id='1063'> +1.5672383e-12 </wgt>
<wgt id='1064'> +1.5481332e-12 </wgt>
<wgt id='1065'> +1.5566533e-12 </wgt>
<wgt id='1066'> +1.5279255e-12 </wgt>
<wgt id='1067'> +1.5251578e-12 </wgt>
<wgt id='1068'> +1.5798471e-12 </wgt>
<wgt id='1069'> +1.5836620e-12 </wgt>
<wgt id='1070'> +1.5416380e-12 </wgt>
<wgt id='1071'> +1.4980453e-12 </wgt>
<wgt id='1072'> +1.5894861e-12 </wgt>
<wgt id='1073'> +1.5738371e-12 </wgt>
<wgt id='1074'> +1.5412252e-12 </wgt>
<wgt id='1075'> +1.5624455e-12 </wgt>
<wgt id='1076'> +1.5410517e-12 </wgt>
<wgt id='1077'> +1.5721273e-12 </wgt>
<wgt id='1078'> +1.5144467e-12 </wgt>
<wgt id='1079'> +1.5184619e-12 </wgt>
<wgt id='1080'> +1.5387957e-12 </wgt>
<wgt id='1081'> +1.5678015e-12 </wgt>
<wgt id='1082'> +1.5334054e-12 </wgt>
<wgt id='1083'> +1.5820119e-12 </wgt>
<wgt id='1084'> +1.5105559e-12 </wgt>
<wgt id='1085'> +1.5401791e-12 </wgt>
<wgt id='1086'> +1.5611818e-12 </wgt>
<wgt id='1087'> +1.5385190e-12 </wgt>
<wgt id='1088'> +1.5670868e-12 </wgt>
<wgt id='1089'> +1.5746309e-12 </wgt>
<wgt id='1090'> +1.5444184e-12 </wgt>
<wgt id='1091'> +1.5726370e-12 </wgt>
<wgt id='1092'> +1.5820526e-12 </wgt>
<wgt id='1093'> +1.5346185e-12 </wgt>
<wgt id='1094'> +1.5901725e-12 </wgt>
<wgt id='1095'> +1.5713943e-12 </wgt>
<wgt id='1096'> +1.6049405e-12 </wgt>
<wgt id='1097'> +1.5578129e-12 </wgt>
<wgt id='1098'> +1.5393127e-12 </wgt>
<wgt id='1099'> +1.5433709e-12 </wgt>
<wgt id='1100'> +1.5785788e-12 </wgt>
<wgt id='1101'> +1.5920619e-12 </wgt>
<wgt id='1102'> +1.5569670e-12 </wgt>
<wgt id='1103'> +1.6066151e-12 </wgt>
<wgt id='1104'> +1.5266058e-12 </wgt>
<wgt id='1105'> +1.5260529e-12 </wgt>
<wgt id='1106'> +1.5891184e-12 </wgt>
<wgt id='1107'> +1.5529958e-12 </wgt>
<wgt id='1108'> +1.5546696e-12 </wgt>
<wgt id='1109'> +1.5854816e-12 </wgt>
<wgt id='1110'> +1.5467831e-12 </wgt>
<wgt id='1111'> +1.5480372e-12 </wgt>
<wgt id='1112'> +1.5811917e-12 </wgt>
<wgt id='1113'> +1.6112026e-12 </wgt>
<wgt id='1114'> +1.5602959e-12 </wgt>
<wgt id='1115'> +1.5364859e-12 </wgt>
<wgt id='1116'> +1.5748425e-12 </wgt>
<wgt id='1117'> +1.5281641e-12 </wgt>
<wgt id='1118'> +1.6455088e-12 </wgt>
<wgt id='1119'> +1.4934002e-12 </wgt>
<wgt id='1120'> +1.5150557e-12 </wgt>
<wgt id='1121'> +1.5300475e-12 </wgt>
<wgt id='1122'> +1.5582900e-12 </wgt>
<wgt id='1123'> +1.5240035e-12 </wgt>
<wgt id='1124'> +1.5194214e-12 </wgt>
<wgt id='1125'> +1.5238053e-12 </wgt>
<wgt id='1126'> +1.5740100e-12 </wgt>
<wgt id='1127'> +1.5631395e-12 </wgt>
<wgt id='1128'> +1.5697677e-12 </wgt>
<wgt id='1129'> +1.5667614e-12 </wgt>
<wgt id='1130'> +1.5622340e-12 </wgt>
<wgt id='1131'> +1.5391947e-12 </wgt>
<wgt id='1132'> +1.5867689e-12 </wgt>
<wgt id='1133'> +1.5315533e-12 </wgt>
<wgt id='1134'> +1.5727554e-12 </wgt>
<wgt id='1135'> +1.5011327e-12 </wgt>
<wgt id='1136'> +1.5469625e-12 </wgt>
<wgt id='1137'> +1.5251058e-12 </wgt>
<wgt id='1138'> +1.5391104e-12 </wgt>
<wgt id='1139'> +1.5512146e-12 </wgt>
<wgt id='1140'> +1.5836491e-12 </wgt>
<wgt id='1141'> +1.5727677e-12 </wgt>
<wgt id='1142'> +1.5225603e-12 </wgt>
<wgt id='1143'> +1.5856934e-12 </wgt>
<wgt id='1144'> +1.5468974e-12 </wgt>
<wgt id='1145'> +1.5763287e-12 </wgt>
<wgt id='1146'> +1.5669682e-12 </wgt>
<wgt id='1147'> +1.2774649e-12 </wgt>
<wgt id='1148'> +1.3076550e-12 </wgt>
<wgt id='1149'> +1.2948140e-12 </wgt>
<wgt id='1150'> +1.3040646e-12 </wgt>
<wgt id='1151'> +1.4698446e-12 </wgt>
<wgt id='1152'> +1.8474987e-12 </wgt>
<wgt id='1153'> +1.8380072e-12 </wgt>
<wgt id='1154'> +1.8529160e-12 </wgt>
<wgt id='1155'> +1.8462315e-12 </wgt>
<wgt id='1156'> +1.8481655e-12 </wgt>
<wgt id='1157'> +1.8507903e-12 </wgt>
<wgt id='1158'> +1.8429826e-12 </wgt>
<wgt id='1159'> +1.8503483e-12 </wgt>
<wgt id='1160'> +1.8456750e-12 </wgt>
<wgt id='1161'> +1.8436462e-12 </wgt>
<wgt id='1162'> +1.8501105e-12 </wgt>
<wgt id='1163'> +1.8510676e-12 </wgt>
<wgt id='1164'> +1.8439385e-12 </wgt>
<wgt id='1165'> +1.8370344e-12 </wgt>
<wgt id='1166'> +1.8575062e-12 </wgt>
<wgt id='1167'> +1.8592151e-12 </wgt>
<wgt id='1168'> +1.8318512e-12 </wgt>
<wgt id='1169'> +1.8499822e-12 </wgt>
<wgt id='1170'> +1.8455952e-12 </wgt>
<wgt id='1171'> +1.8406534e-12 </wgt>
<wgt id='1172'> +1.8555633e-12 </wgt>
<wgt id='1173'> +1.8329108e-12 </wgt>
<wgt id='1174'> +1.8611824e-12 </wgt>
<wgt id='1175'> +1.8506721e-12 </wgt>
<wgt id='1176'> +1.8439277e-12 </wgt>
<wgt id='1177'> +1.8487885e-12 </wgt>
<wgt id='1178'> +1.8437703e-12 </wgt>
<wgt id='1179'> +1.8497418e-12 </wgt>
<wgt id='1180'> +1.8379925e-12 </wgt>
<wgt id='1181'> +1.8428131e-12 </wgt>
<wgt id='1182'> +1.8520128e-12 </wgt>
<wgt id='1183'> +1.8465891e-12 </wgt>
<wgt id='1184'> +1.8475531e-12 </wgt>
<wgt id='1185'> +1.8405449e-12 </wgt>
<wgt id='1186'> +1.8515958e-12 </wgt>
<wgt id='1187'> +1.8472599e-12 </wgt>
<wgt id='1188'> +1.8475839e-12 </wgt>
<wgt id='1189'> +1.8422605e-12 </wgt>
<wgt id='1190'> +1.8337942e-12 </wgt>
<wgt id='1191'> +1.8434270e-12 </wgt>
<wgt id='1192'> +1.8504700e-12 </wgt>
<wgt id='1193'> +1.2836030e-12 </wgt>
<wgt id='1194'> +1.2790081e-12 </wgt>
<wgt id='1195'> +1.2873614e-12 </wgt>
<wgt id='1196'> +1.2895252e-12 </wgt>
<wgt id='1197'> +1.2770714e-12 </wgt>
<wgt id='1198'> +1.2839668e-12 </wgt>
<wgt id='1199'> +1.2831568e-12 </wgt>
<wgt id='1200'> +1.2846995e-12 </wgt>
<wgt id='1201'> +1.2829038e-12 </wgt>
<wgt id='1202'> +1.2818644e-12 </wgt>
<wgt id='1203'> +1.2861706e-12 </wgt>
<wgt id='1204'> +1.2730386e-12 </wgt>
<wgt id='1205'> +1.2900840e-12 </wgt>
<wgt id='1206'> +1.2876368e-12 </wgt>
<wgt id='1207'> +1.2781325e-12 </wgt>
<wgt id='1208'> +1.2772619e-12 </wgt>
<wgt id='1209'> +1.2859217e-12 </wgt>
<wgt id='1210'> +1.2827719e-12 </wgt>
<wgt id='1211'> +1.2763553e-12 </wgt>
<wgt id='1212'> +1.2847900e-12 </wgt>
<wgt id='1213'> +1.2825115e-12 </wgt>
<wgt id='1214'> +1.2683196e-12 </wgt>
<wgt id='1215'> +1.3075294e-12 </wgt>
<wgt id='1216'> +1.2875462e-12 </wgt>
<wgt id='1217'> +1.2802614e-12 </wgt>
<wgt id='1218'> +1.2889925e-12 </wgt>
<wgt id='1219'> +1.2807414e-12 </wgt>
<wgt id='1220'> +1.2894973e-12 </wgt>
<wgt id='1221'> +1.2819657e-12 </wgt>
<wgt id='1222'> +1.2913017e-12 </wgt>
<wgt id='1223'> +1.2709522e-12 </wgt>
<wgt id='1224'> +1.2855689e-12 </wgt>
<wgt id='1225'> +1.2828102e-12 </wgt>
<wgt id='1226'> +1.2802722e-12 </wgt>
<wgt id='1227'> +1.2859507e-12 </wgt>
<wgt id='1228'> +1.2753902e-12 </wgt>
<wgt id='1229'> +1.2868566e-12 </wgt>
<wgt id='1230'> +1.2781544e-12 </wgt>
<wgt id='1231'> +1.2836176e-12 </wgt>
<wgt id='1232'> +1.2818048e-12 </wgt>
<wgt id='1233'> +1.2840400e-12 </wgt>
<wgt id='1234'> +1.2836030e-12 </wgt>
<wgt id='1235'> +1.2747876e-12 </wgt>
<wgt id='1236'> +1.2780384e-12 </wgt>
<wgt id='1237'> +1.2809406e-12 </wgt>
<wgt id='1238'> +1.2858317e-12 </wgt>
<wgt id='1239'> +1.2878653e-12 </wgt>
<wgt id='1240'> +1.2897889e-12 </wgt>
<wgt id='1241'> +1.2579118e-12 </wgt>
<wgt id='1242'> +1.2494577e-12 </wgt>
<wgt id='1243'> +1.2662619e-12 </wgt>
<wgt id='1244'> +1.2517765e-12 </wgt>
<wgt id='1245'> +1.2624396e-12 </wgt>
<wgt id='1246'> +1.2577890e-12 </wgt>
<wgt id='1247'> +1.2580221e-12 </wgt>
<wgt id='1248'> +1.2578533e-12 </wgt>
<wgt id='1249'> +1.2579473e-12 </wgt>
<wgt id='1250'> +1.2592609e-12 </wgt>
<wgt id='1251'> +1.2569629e-12 </wgt>
<wgt id='1252'> +1.2553818e-12 </wgt>
<wgt id='1253'> +1.2598581e-12 </wgt>
<wgt id='1254'> +1.2489684e-12 </wgt>
<wgt id='1255'> +1.2632359e-12 </wgt>
<wgt id='1256'> +1.2613808e-12 </wgt>
<wgt id='1257'> +1.2491357e-12 </wgt>
<wgt id='1258'> +1.2760368e-12 </wgt>
<wgt id='1259'> +1.2404572e-12 </wgt>
<wgt id='1260'> +1.2610382e-12 </wgt>
<wgt id='1261'> +1.2544588e-12 </wgt>
<wgt id='1262'> +1.2567088e-12 </wgt>
<wgt id='1263'> +1.2580749e-12 </wgt>
<wgt id='1264'> +1.2645863e-12 </wgt>
<wgt id='1265'> +1.2546631e-12 </wgt>
<wgt id='1266'> +1.2472068e-12 </wgt>
<wgt id='1267'> +1.2674949e-12 </wgt>
<wgt id='1268'> +1.2609494e-12 </wgt>
<wgt id='1269'> +1.2573191e-12 </wgt>
<wgt id='1270'> +1.2510488e-12 </wgt>
<wgt id='1271'> +1.2541861e-12 </wgt>
<wgt id='1272'> +1.2559326e-12 </wgt>
<wgt id='1273'> +1.2581265e-12 </wgt>
<wgt id='1274'> +1.2597717e-12 </wgt>
<wgt id='1275'> +1.2541302e-12 </wgt>
<wgt id='1276'> +1.2627184e-12 </wgt>
<wgt id='1277'> +1.2502481e-12 </wgt>
<wgt id='1278'> +1.2596566e-12 </wgt>
<wgt id='1279'> +1.2580015e-12 </wgt>
<wgt id='1280'> +1.2584609e-12 </wgt>
<wgt id='1281'> +1.2557970e-12 </wgt>
<wgt id='1282'> +1.2579118e-12 </wgt>
<wgt id='1283'> +1.2492717e-12 </wgt>
<wgt id='1284'> +1.2526513e-12 </wgt>
<wgt id='1285'> +1.2555298e-12 </wgt>
<wgt id='1286'> +1.2603175e-12 </wgt>
<wgt id='1287'> +1.2622370e-12 </wgt>
<wgt id='1288'> +1.2637997e-12 </wgt>
<wgt id='1289'> +1.3502333e-12 </wgt>
<wgt id='1290'> +1.3497093e-12 </wgt>
<wgt id='1291'> +1.3508134e-12 </wgt>
<wgt id='1292'> +1.3457902e-12 </wgt>
<wgt id='1293'> +1.3534549e-12 </wgt>
<wgt id='1294'> +1.3423112e-12 </wgt>
<wgt id='1295'> +1.3579327e-12 </wgt>
<wgt id='1296'> +1.3477356e-12 </wgt>
<wgt id='1297'> +1.3532278e-12 </wgt>
<wgt id='1298'> +1.3564299e-12 </wgt>
<wgt id='1299'> +1.3425073e-12 </wgt>
<wgt id='1300'> +1.3530404e-12 </wgt>
<wgt id='1301'> +1.3446251e-12 </wgt>
<wgt id='1302'> +1.3485325e-12 </wgt>
<wgt id='1303'> +1.3526192e-12 </wgt>
<wgt id='1304'> +1.3479092e-12 </wgt>
<wgt id='1305'> +1.3517893e-12 </wgt>
<wgt id='1306'> +1.3443747e-12 </wgt>
<wgt id='1307'> +1.3569463e-12 </wgt>
<wgt id='1308'> +1.3488281e-12 </wgt>
<wgt id='1309'> +1.3513349e-12 </wgt>
<wgt id='1310'> +1.3501283e-12 </wgt>
<wgt id='1311'> +1.3504845e-12 </wgt>
<wgt id='1312'> +1.3470698e-12 </wgt>
<wgt id='1313'> +1.3534710e-12 </wgt>
<wgt id='1314'> +1.3433845e-12 </wgt>
<wgt id='1315'> +1.3523143e-12 </wgt>
<wgt id='1316'> +1.3573553e-12 </wgt>
<wgt id='1317'> +1.3499879e-12 </wgt>
<wgt id='1318'> +1.3589754e-12 </wgt>
<wgt id='1319'> +1.3394591e-12 </wgt>
<wgt id='1320'> +1.3612857e-12 </wgt>
<wgt id='1321'> +1.3409895e-12 </wgt>
<wgt id='1322'> +1.3495933e-12 </wgt>
<wgt id='1323'> +1.3506863e-12 </wgt>
<wgt id='1324'> +1.3459927e-12 </wgt>
<wgt id='1325'> +1.3655495e-12 </wgt>
<wgt id='1326'> +1.3503865e-12 </wgt>
<wgt id='1327'> +1.3522622e-12 </wgt>
<wgt id='1328'> +1.3507495e-12 </wgt>
<wgt id='1329'> +1.3495940e-12 </wgt>
<wgt id='1330'> +1.3448532e-12 </wgt>
<wgt id='1331'> +1.3546455e-12 </wgt>
<wgt id='1332'> +1.3714443e-12 </wgt>
<wgt id='1333'> +1.3397000e-12 </wgt>
<wgt id='1334'> +1.3472327e-12 </wgt>
<wgt id='1335'> +1.3588562e-12 </wgt>
<wgt id='1336'> +1.3461472e-12 </wgt>
<wgt id='1337'> +1.3525325e-12 </wgt>
<wgt id='1338'> +1.3480381e-12 </wgt>
<wgt id='1339'> +1.3505311e-12 </wgt>
<wgt id='1340'> +1.3289435e-12 </wgt>
<wgt id='1341'> +1.3284934e-12 </wgt>
<wgt id='1342'> +1.3294487e-12 </wgt>
<wgt id='1343'> +1.3244450e-12 </wgt>
<wgt id='1344'> +1.3320099e-12 </wgt>
<wgt id='1345'> +1.3209100e-12 </wgt>
<wgt id='1346'> +1.3364590e-12 </wgt>
<wgt id='1347'> +1.3268374e-12 </wgt>
<wgt id='1348'> +1.3312512e-12 </wgt>
<wgt id='1349'> +1.3347259e-12 </wgt>
<wgt id='1350'> +1.3232945e-12 </wgt>
<wgt id='1351'> +1.3317591e-12 </wgt>
<wgt id='1352'> +1.3229160e-12 </wgt>
<wgt id='1353'> +1.3266015e-12 </wgt>
<wgt id='1354'> +1.3331210e-12 </wgt>
<wgt id='1355'> +1.3269293e-12 </wgt>
<wgt id='1356'> +1.3300475e-12 </wgt>
<wgt id='1357'> +1.3227890e-12 </wgt>
<wgt id='1358'> +1.3362570e-12 </wgt>
<wgt id='1359'> +1.3291455e-12 </wgt>
<wgt id='1360'> +1.3287998e-12 </wgt>
<wgt id='1361'> +1.3287520e-12 </wgt>
<wgt id='1362'> +1.3294134e-12 </wgt>
<wgt id='1363'> +1.3263548e-12 </wgt>
<wgt id='1364'> +1.3309890e-12 </wgt>
<wgt id='1365'> +1.3284823e-12 </wgt>
<wgt id='1366'> +1.3220292e-12 </wgt>
<wgt id='1367'> +1.3359258e-12 </wgt>
<wgt id='1368'> +1.3280517e-12 </wgt>
<wgt id='1369'> +1.3364776e-12 </wgt>
<wgt id='1370'> +1.3197511e-12 </wgt>
<wgt id='1371'> +1.3373582e-12 </wgt>
<wgt id='1372'> +1.3189250e-12 </wgt>
<wgt id='1373'> +1.3261177e-12 </wgt>
<wgt id='1374'> +1.3310370e-12 </wgt>
<wgt id='1375'> +1.3245864e-12 </wgt>
<wgt id='1376'> +1.3453497e-12 </wgt>
<wgt id='1377'> +1.3290288e-12 </wgt>
<wgt id='1378'> +1.3312651e-12 </wgt>
<wgt id='1379'> +1.3292962e-12 </wgt>
<wgt id='1380'> +1.3283803e-12 </wgt>
<wgt id='1381'> +1.3238967e-12 </wgt>
<wgt id='1382'> +1.3320218e-12 </wgt>
<wgt id='1383'> +1.3487070e-12 </wgt>
<wgt id='1384'> +1.3194464e-12 </wgt>
<wgt id='1385'> +1.3263179e-12 </wgt>
<wgt id='1386'> +1.3359839e-12 </wgt>
<wgt id='1387'> +1.3231820e-12 </wgt>
<wgt id='1388'> +1.3316576e-12 </wgt>
<wgt id='1389'> +1.3249441e-12 </wgt>
<wgt id='1390'> +1.3297896e-12 </wgt>
<wgt id='1391'> +1.3062767e-12 </wgt>
<wgt id='1392'> +1.2769872e-12 </wgt>
<wgt id='1393'> +1.2867471e-12 </wgt>
<wgt id='1394'> +1.2974298e-12 </wgt>
<wgt id='1395'> +1.3171957e-12 </wgt>
<wgt id='1396'> +1.3076375e-12 </wgt>
<wgt id='1397'> +1.2685137e-12 </wgt>
<wgt id='1398'> +1.2763982e-12 </wgt>
<wgt id='1399'> +1.2835482e-12 </wgt>
<wgt id='1400'> +1.2911544e-12 </wgt>
<wgt id='1401'> +1.2993731e-12 </wgt>
<wgt id='1402'> +1.3157086e-12 </wgt>
<wgt id='1403'> +1.3238479e-12 </wgt>
<wgt id='1404'> +1.3316876e-12 </wgt>
<wgt id='1405'> +1.3076375e-12 </wgt>
<wgt id='1406'> +1.3028614e-12 </wgt>
<wgt id='1407'> +1.3055278e-12 </wgt>
<wgt id='1408'> +1.3096546e-12 </wgt>
<wgt id='1409'> +1.3118581e-12 </wgt>
<wgt id='1410'> +1.2649556e-12 </wgt>
<wgt id='1411'> +1.2650241e-12 </wgt>
<wgt id='1412'> +1.2647657e-12 </wgt>
<wgt id='1413'> +1.2652036e-12 </wgt>
<wgt id='1414'> +1.2646353e-12 </wgt>
<wgt id='1415'> +1.2581218e-12 </wgt>
<wgt id='1416'> +1.2677124e-12 </wgt>
<wgt id='1417'> +1.2566280e-12 </wgt>
<wgt id='1418'> +1.2731773e-12 </wgt>
<wgt id='1419'> +1.2673062e-12 </wgt>
<wgt id='1420'> +1.2626639e-12 </wgt>
<wgt id='1421'> +1.2511279e-12 </wgt>
<wgt id='1422'> +1.2708736e-12 </wgt>
<wgt id='1423'> +1.2646273e-12 </wgt>
<wgt id='1424'> +1.2652972e-12 </wgt>
<wgt id='1425'> +1.2595188e-12 </wgt>
<wgt id='1426'> +1.2707587e-12 </wgt>
<wgt id='1427'> +1.2510505e-12 </wgt>
<wgt id='1428'> +1.2723940e-12 </wgt>
<wgt id='1429'> +1.2621921e-12 </wgt>
<wgt id='1430'> +1.2687105e-12 </wgt>
<wgt id='1431'> +1.2662939e-12 </wgt>
<wgt id='1432'> +1.2638843e-12 </wgt>
<wgt id='1433'> +1.2605223e-12 </wgt>
<wgt id='1434'> +1.2674240e-12 </wgt>
<wgt id='1435'> +1.2648958e-12 </wgt>
<wgt id='1436'> +1.2649593e-12 </wgt>
<wgt id='1437'> +1.2717285e-12 </wgt>
<wgt id='1438'> +1.2644250e-12 </wgt>
<wgt id='1439'> +1.2597900e-12 </wgt>
<wgt id='1440'> +1.2754239e-12 </wgt>
<wgt id='1441'> +1.2678742e-12 </wgt>
<wgt id='1442'> +1.2599198e-12 </wgt>
<wgt id='1443'> +1.2613893e-12 </wgt>
<wgt id='1444'> +1.2734275e-12 </wgt>
<wgt id='1445'> +1.2800810e-12 </wgt>
<wgt id='1446'> +1.2599400e-12 </wgt>
<wgt id='1447'> +1.2642111e-12 </wgt>
<wgt id='1448'> +1.2687573e-12 </wgt>
<wgt id='1449'> +1.2659523e-12 </wgt>
<wgt id='1450'> +1.2639195e-12 </wgt>
<wgt id='1451'> +1.2677367e-12 </wgt>
<wgt id='1452'> +1.2569566e-12 </wgt>
<wgt id='1453'> +1.2658177e-12 </wgt>
<wgt id='1454'> +1.2577236e-12 </wgt>
<wgt id='1455'> +1.2618054e-12 </wgt>
<wgt id='1456'> +1.2681522e-12 </wgt>
<wgt id='1457'> +1.2680274e-12 </wgt>
<wgt id='1458'> +1.2637236e-12 </wgt>
<wgt id='1459'> +1.2703117e-12 </wgt>
<wgt id='1460'> +1.2620606e-12 </wgt>
<wgt id='1461'> +1.2649556e-12 </wgt>
<wgt id='1462'> +1.2572694e-12 </wgt>
<wgt id='1463'> +1.2726846e-12 </wgt>
<wgt id='1464'> +1.2656855e-12 </wgt>
<wgt id='1465'> +1.2315074e-12 </wgt>
<wgt id='1466'> +1.2382177e-12 </wgt>
<wgt id='1467'> +1.2456742e-12 </wgt>
<wgt id='1468'> +1.2522959e-12 </wgt>
<wgt id='1469'> +1.2588047e-12 </wgt>
<wgt id='1470'> +1.2729691e-12 </wgt>
<wgt id='1471'> +1.2787970e-12 </wgt>
<wgt id='1472'> +1.2857985e-12 </wgt>
<wgt id='1473'> +1.2656855e-12 </wgt>
<wgt id='1474'> +1.2609929e-12 </wgt>
<wgt id='1475'> +1.2629264e-12 </wgt>
<wgt id='1476'> +1.2676588e-12 </wgt>
<wgt id='1477'> +1.2694961e-12 </wgt>
<wgt id='1478'> +1.2692204e-12 </wgt>
<wgt id='1479'> +1.2664239e-12 </wgt>
<wgt id='1480'> +1.2609581e-12 </wgt>
<wgt id='1481'> +1.2730990e-12 </wgt>
<wgt id='1482'> +1.2659754e-12 </wgt>
<wgt id='1483'> +1.2556631e-12 </wgt>
<wgt id='1484'> +1.2708124e-12 </wgt>
<wgt id='1485'> +1.2639203e-12 </wgt>
<wgt id='1486'> +1.2696280e-12 </wgt>
<wgt id='1487'> +1.2704979e-12 </wgt>
<wgt id='1488'> +1.2676940e-12 </wgt>
<wgt id='1489'> +1.2800581e-12 </wgt>
<wgt id='1490'> +1.2635139e-12 </wgt>
<wgt id='1491'> +1.2699913e-12 </wgt>
<wgt id='1492'> +1.2733354e-12 </wgt>
<wgt id='1493'> +1.2488410e-12 </wgt>
<wgt id='1494'> +1.2749367e-12 </wgt>
<wgt id='1495'> +1.2564542e-12 </wgt>
<wgt id='1496'> +1.2678132e-12 </wgt>
<wgt id='1497'> +1.2682045e-12 </wgt>
<wgt id='1498'> +1.2700874e-12 </wgt>
<wgt id='1499'> +1.2693013e-12 </wgt>
<wgt id='1500'> +1.2681540e-12 </wgt>
<wgt id='1501'> +1.2702828e-12 </wgt>
<wgt id='1502'> +1.2732109e-12 </wgt>
<wgt id='1503'> +1.2699014e-12 </wgt>
<wgt id='1504'> +1.2661971e-12 </wgt>
<wgt id='1505'> +1.2693205e-12 </wgt>
<wgt id='1506'> +1.2673507e-12 </wgt>
<wgt id='1507'> +1.2689043e-12 </wgt>
<wgt id='1508'> +1.2730744e-12 </wgt>
<wgt id='1509'> +1.2837059e-12 </wgt>
<wgt id='1510'> +1.2830835e-12 </wgt>
<wgt id='1511'> +1.2843819e-12 </wgt>
<wgt id='1512'> +1.2815856e-12 </wgt>
<wgt id='1513'> +1.2845506e-12 </wgt>
<wgt id='1514'> +1.2873207e-12 </wgt>
<wgt id='1515'> +1.2851478e-12 </wgt>
<wgt id='1516'> +1.2887332e-12 </wgt>
<wgt id='1517'> +1.2899246e-12 </wgt>
<wgt id='1518'> +1.2846766e-12 </wgt>
<wgt id='1519'> +1.2771295e-12 </wgt>
<wgt id='1520'> +1.2856901e-12 </wgt>
<wgt id='1521'> +1.2883126e-12 </wgt>
<wgt id='1522'> +1.2821045e-12 </wgt>
<wgt id='1523'> +1.2904017e-12 </wgt>
<wgt id='1524'> +1.2865941e-12 </wgt>
<wgt id='1525'> +1.2901251e-12 </wgt>
<wgt id='1526'> +1.2811315e-12 </wgt>
<wgt id='1527'> +1.2803832e-12 </wgt>
<wgt id='1528'> +1.2856220e-12 </wgt>
<wgt id='1529'> +1.2838601e-12 </wgt>
<wgt id='1530'> +1.2893697e-12 </wgt>
<wgt id='1531'> +1.2853049e-12 </wgt>
<wgt id='1532'> +1.2779400e-12 </wgt>
<wgt id='1533'> +1.2835894e-12 </wgt>
<wgt id='1534'> +1.2865761e-12 </wgt>
<wgt id='1535'> +1.2742839e-12 </wgt>
<wgt id='1536'> +1.2808684e-12 </wgt>
<wgt id='1537'> +1.2809267e-12 </wgt>
<wgt id='1538'> +1.2846956e-12 </wgt>
<wgt id='1539'> +1.2933640e-12 </wgt>
<wgt id='1540'> +1.2861287e-12 </wgt>
<wgt id='1541'> +1.2837909e-12 </wgt>
<wgt id='1542'> +1.2813508e-12 </wgt>
<wgt id='1543'> +1.2839085e-12 </wgt>
<wgt id='1544'> +1.2836691e-12 </wgt>
<wgt id='1545'> +1.2831504e-12 </wgt>
<wgt id='1546'> +1.2805524e-12 </wgt>
<wgt id='1547'> +1.2838862e-12 </wgt>
<wgt id='1548'> +1.2830160e-12 </wgt>
<wgt id='1549'> +1.2828837e-12 </wgt>
<wgt id='1550'> +1.2848033e-12 </wgt>
<wgt id='1551'> +1.2862405e-12 </wgt>
<wgt id='1552'> +1.2841104e-12 </wgt>
<wgt id='1553'> +1.2830952e-12 </wgt>
<wgt id='1554'> +1.2862464e-12 </wgt>
<wgt id='1555'> +1.2855685e-12 </wgt>
<wgt id='1556'> +1.2832455e-12 </wgt>
<wgt id='1557'> +1.2861764e-12 </wgt>
<wgt id='1558'> +1.2825663e-12 </wgt>
<wgt id='1559'> +1.2836892e-12 </wgt>
<wgt id='1560'> +1.2862313e-12 </wgt>
<wgt id='1561'> +1.2823119e-12 </wgt>
<wgt id='1562'> +1.2833623e-12 </wgt>
<wgt id='1563'> +1.2846167e-12 </wgt>
<wgt id='1564'> +1.2832332e-12 </wgt>
<wgt id='1565'> +1.2841157e-12 </wgt>
<wgt id='1566'> +1.2838000e-12 </wgt>
<wgt id='1567'> +1.2854573e-12 </wgt>
<wgt id='1568'> +1.2819270e-12 </wgt>
<wgt id='1569'> +1.2831247e-12 </wgt>
<wgt id='1570'> +1.2830462e-12 </wgt>
<wgt id='1571'> +1.2835799e-12 </wgt>
<wgt id='1572'> +1.2826624e-12 </wgt>
<wgt id='1573'> +1.2823398e-12 </wgt>
<wgt id='1574'> +1.2837994e-12 </wgt>
<wgt id='1575'> +1.2843539e-12 </wgt>
<wgt id='1576'> +1.2841780e-12 </wgt>
<wgt id='1577'> +1.2842145e-12 </wgt>
<wgt id='1578'> +1.2836388e-12 </wgt>
<wgt id='1579'> +1.2834509e-12 </wgt>
<wgt id='1580'> +1.2837574e-12 </wgt>
<wgt id='1581'> +1.2850825e-12 </wgt>
<wgt id='1582'> +1.2831606e-12 </wgt>
<wgt id='1583'> +1.2841956e-12 </wgt>
<wgt id='1584'> +1.2840533e-12 </wgt>
<wgt id='1585'> +1.2835529e-12 </wgt>
<wgt id='1586'> +1.2840249e-12 </wgt>
<wgt id='1587'> +1.2846027e-12 </wgt>
<wgt id='1588'> +1.2830171e-12 </wgt>
<wgt id='1589'> +1.2848289e-12 </wgt>
<wgt id='1590'> +1.2838405e-12 </wgt>
<wgt id='1591'> +1.2844505e-12 </wgt>
<wgt id='1592'> +1.2828519e-12 </wgt>
<wgt id='1593'> +1.2828647e-12 </wgt>
<wgt id='1594'> +1.2840541e-12 </wgt>
<wgt id='1595'> +1.2842873e-12 </wgt>
<wgt id='1596'> +1.2845662e-12 </wgt>
<wgt id='1597'> +1.2830210e-12 </wgt>
<wgt id='1598'> +1.2837807e-12 </wgt>
<wgt id='1599'> +1.2840822e-12 </wgt>
<wgt id='1600'> +1.2839977e-12 </wgt>
<wgt id='1601'> +1.2831963e-12 </wgt>
<wgt id='1602'> +1.2830338e-12 </wgt>
<wgt id='1603'> +1.2838325e-12 </wgt>
<wgt id='1604'> +1.2843544e-12 </wgt>
<wgt id='1605'> +1.2840336e-12 </wgt>
<wgt id='1606'> +1.2834524e-12 </wgt>
<wgt id='1607'> +1.2840332e-12 </wgt>
<wgt id='1608'> +1.2839445e-12 </wgt>
<wgt id='1609'> +1.2833296e-12 </wgt>
<wgt id='1610'> +1.2748715e-12 </wgt>
<wgt id='1611'> +1.2934118e-12 </wgt>
<wgt id='1612'> +1.5233257e-12 </wgt>
<wgt id='1613'> +1.4958586e-12 </wgt>
<wgt id='1614'> +1.5201918e-12 </wgt>
<wgt id='1615'> +1.5221673e-12 </wgt>
<wgt id='1616'> +1.4984661e-12 </wgt>
<wgt id='1617'> +1.5297906e-12 </wgt>
<wgt id='1618'> +1.5676032e-12 </wgt>
<wgt id='1619'> +1.5082630e-12 </wgt>
<wgt id='1620'> +1.4568532e-12 </wgt>
<wgt id='1621'> +1.5531036e-12 </wgt>
<wgt id='1622'> +1.5302261e-12 </wgt>
<wgt id='1623'> +1.5017080e-12 </wgt>
<wgt id='1624'> +1.5084051e-12 </wgt>
<wgt id='1625'> +1.5218365e-12 </wgt>
<wgt id='1626'> +1.4992452e-12 </wgt>
<wgt id='1627'> +1.5121997e-12 </wgt>
<wgt id='1628'> +1.5347268e-12 </wgt>
<wgt id='1629'> +1.5670825e-12 </wgt>
<wgt id='1630'> +1.4958839e-12 </wgt>
<wgt id='1631'> +1.5314084e-12 </wgt>
<wgt id='1632'> +1.4686004e-12 </wgt>
<wgt id='1633'> +1.4912727e-12 </wgt>
<wgt id='1634'> +1.5642799e-12 </wgt>
<wgt id='1635'> +1.5413404e-12 </wgt>
<wgt id='1636'> +1.5702532e-12 </wgt>
<wgt id='1637'> +1.5120363e-12 </wgt>
<wgt id='1638'> +1.5570366e-12 </wgt>
<wgt id='1639'> +1.4900632e-12 </wgt>
<wgt id='1640'> +1.5464245e-12 </wgt>
<wgt id='1641'> +1.5125354e-12 </wgt>
<wgt id='1642'> +1.5352090e-12 </wgt>
<wgt id='1643'> +1.5199749e-12 </wgt>
<wgt id='1644'> +1.5265325e-12 </wgt>
<wgt id='1645'> +1.5497004e-12 </wgt>
<wgt id='1646'> +1.4950658e-12 </wgt>
<wgt id='1647'> +1.4997919e-12 </wgt>
<wgt id='1648'> +1.5733762e-12 </wgt>
<wgt id='1649'> +1.5671070e-12 </wgt>
<wgt id='1650'> +1.5096841e-12 </wgt>
<wgt id='1651'> +1.4815411e-12 </wgt>
<wgt id='1652'> +1.4792221e-12 </wgt>
<wgt id='1653'> +1.5400202e-12 </wgt>
<wgt id='1654'> +1.5384444e-12 </wgt>
<wgt id='1655'> +1.5016881e-12 </wgt>
<wgt id='1656'> +1.4978881e-12 </wgt>
<wgt id='1657'> +1.4829328e-12 </wgt>
<wgt id='1658'> +1.5068031e-12 </wgt>
<wgt id='1659'> +1.5084051e-12 </wgt>
<wgt id='1660'> +1.5761350e-12 </wgt>
<wgt id='1661'> +1.5365140e-12 </wgt>
<wgt id='1662'> +1.5267399e-12 </wgt>
<wgt id='1663'> +1.5112966e-12 </wgt>
<wgt id='1664'> +1.5278577e-12 </wgt>
<wgt id='1665'> +1.5093213e-12 </wgt>
<wgt id='1666'> +1.5104337e-12 </wgt>
<wgt id='1667'> +1.4797158e-12 </wgt>
<wgt id='1668'> +1.5350479e-12 </wgt>
<wgt id='1669'> +1.5394877e-12 </wgt>
<wgt id='1670'> +1.5511963e-12 </wgt>
<wgt id='1671'> +1.5504350e-12 </wgt>
<wgt id='1672'> +1.5739119e-12 </wgt>
<wgt id='1673'> +1.4959159e-12 </wgt>
<wgt id='1674'> +1.4634395e-12 </wgt>
<wgt id='1675'> +1.5665144e-12 </wgt>
<wgt id='1676'> +1.5572511e-12 </wgt>
<wgt id='1677'> +1.5902166e-12 </wgt>
<wgt id='1678'> +1.5019540e-12 </wgt>
<wgt id='1679'> +1.5020321e-12 </wgt>
<wgt id='1680'> +1.5440898e-12 </wgt>
<wgt id='1681'> +1.5300482e-12 </wgt>
<wgt id='1682'> +1.5407546e-12 </wgt>
<wgt id='1683'> +1.4755676e-12 </wgt>
<wgt id='1684'> +1.5089661e-12 </wgt>
<wgt id='1685'> +1.5082840e-12 </wgt>
<wgt id='1686'> +1.5336070e-12 </wgt>
<wgt id='1687'> +1.5441536e-12 </wgt>
<wgt id='1688'> +1.5235525e-12 </wgt>
<wgt id='1689'> +1.5272384e-12 </wgt>
<wgt id='1690'> +1.5455672e-12 </wgt>
<wgt id='1691'> +1.5571417e-12 </wgt>
<wgt id='1692'> +1.5644864e-12 </wgt>
<wgt id='1693'> +1.5485247e-12 </wgt>
<wgt id='1694'> +1.5318127e-12 </wgt>
<wgt id='1695'> +1.5956947e-12 </wgt>
<wgt id='1696'> +1.5503266e-12 </wgt>
<wgt id='1697'> +1.5119654e-12 </wgt>
<wgt id='1698'> +1.5079717e-12 </wgt>
<wgt id='1699'> +1.5231236e-12 </wgt>
<wgt id='1700'> +1.5169178e-12 </wgt>
<wgt id='1701'> +1.5131259e-12 </wgt>
<wgt id='1702'> +1.5023220e-12 </wgt>
<wgt id='1703'> +1.5563440e-12 </wgt>
<wgt id='1704'> +1.5143543e-12 </wgt>
<wgt id='1705'> +1.4584081e-12 </wgt>
<wgt id='1706'> +1.5424798e-12 </wgt>
<wgt id='1707'> +1.4935193e-12 </wgt>
<wgt id='1708'> +1.4975707e-12 </wgt>
<wgt id='1709'> +1.5198646e-12 </wgt>
<wgt id='1710'> +1.4797875e-12 </wgt>
<wgt id='1711'> +1.5135820e-12 </wgt>
<wgt id='1712'> +1.5253232e-12 </wgt>
<wgt id='1713'> +1.2236801e-12 </wgt>
<wgt id='1714'> +1.1860548e-12 </wgt>
<wgt id='1715'> +1.2255254e-12 </wgt>
<wgt id='1716'> +1.2237819e-12 </wgt>
<wgt id='1717'> +1.2133444e-12 </wgt>
<wgt id='1718'> +1.2361190e-12 </wgt>
<wgt id='1719'> +1.2251208e-12 </wgt>
<wgt id='1720'> +1.2291443e-12 </wgt>
<wgt id='1721'> +1.1809561e-12 </wgt>
<wgt id='1722'> +1.2057462e-12 </wgt>
<wgt id='1723'> +1.2110252e-12 </wgt>
<wgt id='1724'> +1.2923277e-12 </wgt>
<wgt id='1725'> +1.2166690e-12 </wgt>
<wgt id='1726'> +1.2467718e-12 </wgt>
<wgt id='1727'> +1.2437633e-12 </wgt>
<wgt id='1728'> +1.2202560e-12 </wgt>
<wgt id='1729'> +1.1943602e-12 </wgt>
<wgt id='1730'> +1.2191137e-12 </wgt>
<wgt id='1731'> +1.1720584e-12 </wgt>
<wgt id='1732'> +1.2386807e-12 </wgt>
<wgt id='1733'> +1.2187273e-12 </wgt>
<wgt id='1734'> +1.2491809e-12 </wgt>
<wgt id='1735'> +1.2251881e-12 </wgt>
<wgt id='1736'> +1.2656669e-12 </wgt>
<wgt id='1737'> +1.2623367e-12 </wgt>
<wgt id='1738'> +1.2439059e-12 </wgt>
<wgt id='1739'> +1.1829725e-12 </wgt>
<wgt id='1740'> +1.1953286e-12 </wgt>
<wgt id='1741'> +1.2616042e-12 </wgt>
<wgt id='1742'> +1.2214534e-12 </wgt>
<wgt id='1743'> +1.2264591e-12 </wgt>
<wgt id='1744'> +1.2531874e-12 </wgt>
<wgt id='1745'> +1.1935532e-12 </wgt>
<wgt id='1746'> +1.2247930e-12 </wgt>
<wgt id='1747'> +1.2297777e-12 </wgt>
<wgt id='1748'> +1.2113545e-12 </wgt>
<wgt id='1749'> +1.2199087e-12 </wgt>
<wgt id='1750'> +1.2285051e-12 </wgt>
<wgt id='1751'> +1.1870822e-12 </wgt>
<wgt id='1752'> +1.2114659e-12 </wgt>
<wgt id='1753'> +1.2376779e-12 </wgt>
<wgt id='1754'> +1.2383380e-12 </wgt>
<wgt id='1755'> +1.2505989e-12 </wgt>
<wgt id='1756'> +1.2440263e-12 </wgt>
<wgt id='1757'> +1.2107729e-12 </wgt>
<wgt id='1758'> +1.2434038e-12 </wgt>
<wgt id='1759'> +1.2316218e-12 </wgt>
<wgt id='1760'> +1.1967438e-12 </wgt>
<wgt id='1761'> +1.2094182e-12 </wgt>
<wgt id='1762'> +1.2019033e-12 </wgt>
<wgt id='1763'> +1.2380619e-12 </wgt>
<wgt id='1764'> +1.2313837e-12 </wgt>
<wgt id='1765'> +1.2146914e-12 </wgt>
<wgt id='1766'> +1.2197563e-12 </wgt>
<wgt id='1767'> +1.2295825e-12 </wgt>
<wgt id='1768'> +1.2304989e-12 </wgt>
<wgt id='1769'> +1.2067885e-12 </wgt>
<wgt id='1770'> +1.2035224e-12 </wgt>
<wgt id='1771'> +1.2433763e-12 </wgt>
<wgt id='1772'> +1.2380436e-12 </wgt>
<wgt id='1773'> +1.2138021e-12 </wgt>
<wgt id='1774'> +1.2079969e-12 </wgt>
<wgt id='1775'> +1.2371199e-12 </wgt>
<wgt id='1776'> +1.2567637e-12 </wgt>
<wgt id='1777'> +1.1753292e-12 </wgt>
<wgt id='1778'> +1.2091903e-12 </wgt>
<wgt id='1779'> +1.2537991e-12 </wgt>
<wgt id='1780'> +1.2112187e-12 </wgt>
<wgt id='1781'> +1.2249080e-12 </wgt>
<wgt id='1782'> +1.2150471e-12 </wgt>
<wgt id='1783'> +1.2241935e-12 </wgt>
<wgt id='1784'> +1.2289939e-12 </wgt>
<wgt id='1785'> +1.2251112e-12 </wgt>
<wgt id='1786'> +1.1848767e-12 </wgt>
<wgt id='1787'> +1.2635997e-12 </wgt>
<wgt id='1788'> +1.2398889e-12 </wgt>
<wgt id='1789'> +1.2524164e-12 </wgt>
<wgt id='1790'> +1.2514661e-12 </wgt>
<wgt id='1791'> +1.2277389e-12 </wgt>
<wgt id='1792'> +1.2096502e-12 </wgt>
<wgt id='1793'> +1.2209925e-12 </wgt>
<wgt id='1794'> +1.2386775e-12 </wgt>
<wgt id='1795'> +1.2266987e-12 </wgt>
<wgt id='1796'> +1.2088178e-12 </wgt>
<wgt id='1797'> +1.2246607e-12 </wgt>
<wgt id='1798'> +1.2350263e-12 </wgt>
<wgt id='1799'> +1.2395128e-12 </wgt>
<wgt id='1800'> +1.2390154e-12 </wgt>
<wgt id='1801'> +1.2162917e-12 </wgt>
<wgt id='1802'> +1.2153302e-12 </wgt>
<wgt id='1803'> +1.2489419e-12 </wgt>
<wgt id='1804'> +1.2125162e-12 </wgt>
<wgt id='1805'> +1.1968026e-12 </wgt>
<wgt id='1806'> +1.2025338e-12 </wgt>
<wgt id='1807'> +1.2487545e-12 </wgt>
<wgt id='1808'> +1.2146467e-12 </wgt>
<wgt id='1809'> +1.2097590e-12 </wgt>
<wgt id='1810'> +1.2040592e-12 </wgt>
<wgt id='1811'> +1.2373757e-12 </wgt>
<wgt id='1812'> +1.2110799e-12 </wgt>
<wgt id='1813'> +1.1942774e-12 </wgt>
<wgt id='1814'> +1.4749988e-12 </wgt>
<wgt id='1815'> +1.7080924e-12 </wgt>
<wgt id='1816'> +1.2236801e-12 </wgt>
<wgt id='1817'> +1.1860548e-12 </wgt>
<wgt id='1818'> +1.2255254e-12 </wgt>
<wgt id='1819'> +1.2237819e-12 </wgt>
<wgt id='1820'> +1.2133444e-12 </wgt>
<wgt id='1821'> +1.2361190e-12 </wgt>
<wgt id='1822'> +1.2251208e-12 </wgt>
<wgt id='1823'> +1.2291443e-12 </wgt>
<wgt id='1824'> +1.1809561e-12 </wgt>
<wgt id='1825'> +1.2057462e-12 </wgt>
<wgt id='1826'> +1.2110252e-12 </wgt>
<wgt id='1827'> +1.2923277e-12 </wgt>
<wgt id='1828'> +1.2166690e-12 </wgt>
<wgt id='1829'> +1.2467718e-12 </wgt>
<wgt id='1830'> +1.2437633e-12 </wgt>
<wgt id='1831'> +1.2202560e-12 </wgt>
<wgt id='1832'> +1.1943602e-12 </wgt>
<wgt id='1833'> +1.2191137e-12 </wgt>
<wgt id='1834'> +1.1720584e-12 </wgt>
<wgt id='1835'> +1.2386807e-12 </wgt>
<wgt id='1836'> +1.2187273e-12 </wgt>
<wgt id='1837'> +1.2491809e-12 </wgt>
<wgt id='1838'> +1.2251881e-12 </wgt>
<wgt id='1839'> +1.2656669e-12 </wgt>
<wgt id='1840'> +1.2623367e-12 </wgt>
<wgt id='1841'> +1.2439059e-12 </wgt>
<wgt id='1842'> +1.1829725e-12 </wgt>
<wgt id='1843'> +1.1953286e-12 </wgt>
<wgt id='1844'> +1.2616042e-12 </wgt>
<wgt id='1845'> +1.2214534e-12 </wgt>
<wgt id='1846'> +1.2264591e-12 </wgt>
<wgt id='1847'> +1.2531874e-12 </wgt>
<wgt id='1848'> +1.1935532e-12 </wgt>
<wgt id='1849'> +1.2247930e-12 </wgt>
<wgt id='1850'> +1.2297777e-12 </wgt>
<wgt id='1851'> +1.2113545e-12 </wgt>
<wgt id='1852'> +1.2199087e-12 </wgt>
<wgt id='1853'> +1.2285051e-12 </wgt>
<wgt id='1854'> +1.1870822e-12 </wgt>
<wgt id='1855'> +1.2114659e-12 </wgt>
<wgt id='1856'> +1.2376779e-12 </wgt>
<wgt id='1857'> +1.2383380e-12 </wgt>
<wgt id='1858'> +1.2505989e-12 </wgt>
<wgt id='1859'> +1.2440263e-12 </wgt>
<wgt id='1860'> +1.2107729e-12 </wgt>
<wgt id='1861'> +1.2434038e-12 </wgt>
<wgt id='1862'> +1.2316218e-12 </wgt>
<wgt id='1863'> +1.1967438e-12 </wgt>
<wgt id='1864'> +1.2094182e-12 </wgt>
<wgt id='1865'> +1.2019033e-12 </wgt>
<wgt id='1866'> +1.2380619e-12 </wgt>
<wgt id='1867'> +1.2313837e-12 </wgt>
<wgt id='1868'> +1.2146914e-12 </wgt>
<wgt id='1869'> +1.2197563e-12 </wgt>
<wgt id='1870'> +1.2295825e-12 </wgt>
<wgt id='1871'> +1.2304989e-12 </wgt>
<wgt id='1872'> +1.2067885e-12 </wgt>
<wgt id='1873'> +1.2035224e-12 </wgt>
<wgt id='1874'> +1.2433763e-12 </wgt>
<wgt id='1875'> +1.2380436e-12 </wgt>
<wgt id='1876'> +1.2138021e-12 </wgt>
<wgt id='1877'> +1.2079969e-12 </wgt>
<wgt id='1878'> +1.2371199e-12 </wgt>
<wgt id='1879'> +1.2567637e-12 </wgt>
<wgt id='1880'> +1.1753292e-12 </wgt>
<wgt id='1881'> +1.2091903e-12 </wgt>
<wgt id='1882'> +1.2537991e-12 </wgt>
<wgt id='1883'> +1.2112187e-12 </wgt>
<wgt id='1884'> +1.2249080e-12 </wgt>
<wgt id='1885'> +1.2150471e-12 </wgt>
<wgt id='1886'> +1.2241935e-12 </wgt>
<wgt id='1887'> +1.2289939e-12 </wgt>
<wgt id='1888'> +1.2251112e-12 </wgt>
<wgt id='1889'> +1.1848767e-12 </wgt>
<wgt id='1890'> +1.2635997e-12 </wgt>
<wgt id='1891'> +1.2398889e-12 </wgt>
<wgt id='1892'> +1.2524164e-12 </wgt>
<wgt id='1893'> +1.2514661e-12 </wgt>
<wgt id='1894'> +1.2277389e-12 </wgt>
<wgt id='1895'> +1.2096502e-12 </wgt>
<wgt id='1896'> +1.2209925e-12 </wgt>
<wgt id='1897'> +1.2386775e-12 </wgt>
<wgt id='1898'> +1.2266987e-12 </wgt>
<wgt id='1899'> +1.2088178e-12 </wgt>
<wgt id='1900'> +1.2246607e-12 </wgt>
<wgt id='1901'> +1.2350263e-12 </wgt>
<wgt id='1902'> +1.2395128e-12 </wgt>
<wgt id='1903'> +1.2390154e-12 </wgt>
<wgt id='1904'> +1.2162917e-12 </wgt>
<wgt id='1905'> +1.2153302e-12 </wgt>
<wgt id='1906'> +1.2489419e-12 </wgt>
<wgt id='1907'> +1.2125162e-12 </wgt>
<wgt id='1908'> +1.1968026e-12 </wgt>
<wgt id='1909'> +1.2025338e-12 </wgt>
<wgt id='1910'> +1.2487545e-12 </wgt>
<wgt id='1911'> +1.2146467e-12 </wgt>
<wgt id='1912'> +1.2097590e-12 </wgt>
<wgt id='1913'> +1.2040592e-12 </wgt>
<wgt id='1914'> +1.2373757e-12 </wgt>
<wgt id='1915'> +1.2110799e-12 </wgt>
<wgt id='1916'> +1.1942774e-12 </wgt>
<wgt id='1917'> +1.2138152e-12 </wgt>
<wgt id='1918'> +1.2295850e-12 </wgt>
<wgt id='1919'> +1.2361373e-12 </wgt>
</rwgt>
</event>
<event>
 9      1 +1.5538000e-12 6.57617900e+01 7.81860800e-03 1.24795600e-01
       -2 -1    0    0    0  501 -0.0000000000e+00 +0.0000000000e+00 +2.8679029978e+02 2.8679029978e+02 0.0000000000e+00 0.0000e+00 -1.0000e+00
       21 -1    0    0  501  502 +0.0000000000e+00 -0.0000000000e+00 -3.7698388925e+00 3.7698388925e+00 0.0000000000e+00 0.0000e+00 -1.0000e+00
     1023  2    1    2    0    0 +2.7268203532e+01 -1.1331198068e+01 +1.9297273145e+02 1.9579440357e+02 1.5000747001e+01 0.0000e+00 0.0000e+00
  1000023  2    3    3    0    0 +2.4681344933e+01 -9.1710680978e+00 +1.4874969298e+02 1.5116218280e+02 5.5006426422e+00 0.0000e+00 0.0000e+00
       -2  1    1    2    0  502 -2.7268203532e+01 +1.1331198068e+01 +9.0047729429e+01 9.4765735099e+01 0.0000000000e+00 0.0000e+00 -1.0000e+00
  1000022  1    4    4    0    0 +2.1863419748e+01 -8.1671642979e+00 +1.3347236417e+02 1.3558976250e+02 5.0000000000e+00 0.0000e+00 -1.0000e+00
      -13  1    4    4    0    0 +1.4531095503e+00 -5.7528516659e-01 +8.7796902834e+00 8.9183302446e+00 1.0570000000e-01 0.0000e+00 1.0000e+00
       13  1    4    4    0    0 +1.3648156345e+00 -4.2861863333e-01 +6.4976385261e+00 6.6540900621e+00 1.0570000000e-01 0.0000e+00 -1.0000e+00
  1000022  1    3    3    0    0 +2.5868585995e+00 -2.1601299703e+00 +4.4223038472e+01 4.4632220767e+01 5.0000000000e+00 0.0000e+00 -1.0000e+00
<mgrwt>
<rscale>  1 0.65761789E+02</rscale>
<asrwt>0</asrwt>
<pdfrwt beam="1">  1       21 0.57997544E-03 0.65761789E+02</pdfrwt>
<pdfrwt beam="2">  1       -2 0.44121567E-01 0.65761789E+02</pdfrwt>
<totfact> 0.34142364E+06</totfact>
</mgrwt>
<rwgt>
<wgt id='1001'> +1.5538000e-12 </wgt>
<wgt id='1002'> +1.5479908e-12 </wgt>
<wgt id='1003'> +1.5510040e-12 </wgt>
<wgt id='1004'> +1.4892341e-12 </wgt>
<wgt id='1005'> +1.5538000e-12 </wgt>
<wgt id='1006'> +1.3850458e-12 </wgt>
<wgt id='1007'> +1.3769086e-12 </wgt>
<wgt id='1008'> +1.3810838e-12 </wgt>
<wgt id='1009'> +1.3045184e-12 </wgt>
<wgt id='1010'> +1.3850458e-12 </wgt>
<wgt id='1011'> +1.7713272e-12 </wgt>
<wgt id='1012'> +1.7696971e-12 </wgt>
<wgt id='1013'> +1.7706212e-12 </wgt>
<wgt id='1014'> +1.7378738e-12 </wgt>
<wgt id='1015'> +1.7713272e-12 </wgt>
<wgt id='1016'> +1.7648006e-12 </wgt>
<wgt id='1017'> +1.7673201e-12 </wgt>
<wgt id='1018'> +1.7661167e-12 </wgt>
<wgt id='1019'> +1.7706212e-12 </wgt>
<wgt id='1020'> +1.7648006e-12 </wgt>
<wgt id='1021'> +1.5731301e-12 </wgt>
<wgt id='1022'> +1.5719979e-12 </wgt>
<wgt id='1023'> +1.5726298e-12 </wgt>
<wgt id='1024'> +1.5510040e-12 </wgt>
<wgt id='1025'> +1.5731301e-12 </wgt>
<wgt id='1026'> +2.0118673e-12 </wgt>
<wgt id='1027'> +2.0204392e-12 </wgt>
<wgt id='1028'> +2.0161932e-12 </wgt>
<wgt id='1029'> +2.0662408e-12 </wgt>
<wgt id='1030'> +2.0118673e-12 </wgt>
<wgt id='1031'> +1.3120470e-12 </wgt>
<wgt id='1032'> +1.2966084e-12 </wgt>
<wgt id='1033'> +1.3045184e-12 </wgt>
<wgt id='1034'> +1.1701307e-12 </wgt>
<wgt id='1035'> +1.3120470e-12 </wgt>
<wgt id='1036'> +1.1695489e-12 </wgt>
<wgt id='1037'> +1.1533087e-12 </wgt>
<wgt id='1038'> +1.1616019e-12 </wgt>
<wgt id='1039'> +1.0249947e-12 </wgt>
<wgt id='1040'> +1.1695489e-12 </wgt>
<wgt id='1041'> +1.4957296e-12 </wgt>
<wgt id='1042'> +1.4823112e-12 </wgt>
<wgt id='1043'> +1.4892341e-12 </wgt>
<wgt id='1044'> +1.3654935e-12 </wgt>
<wgt id='1045'> +1.4957296e-12 </wgt>
<wgt id='1046'> +1.5538000e-12 </wgt>
<wgt id='1047'> +1.7351989e-12 </wgt>
<wgt id='1048'> +1.5682589e-12 </wgt>
<wgt id='1049'> +1.6020736e-12 </wgt>
<wgt id='1050'> +1.6026623e-12 </wgt>
<wgt id='1051'> +1.4906603e-12 </wgt>
<wgt id='1052'> +1.5350145e-12 </wgt>
<wgt id='1053'> +1.5306681e-12 </wgt>
<wgt id='1054'> +1.5347849e-12 </wgt>
<wgt id='1055'> +1.5402815e-12 </wgt>
<wgt id='1056'> +1.5250251e-12 </wgt>
<wgt id='1057'> +1.5742243e-12 </wgt>
<wgt id='1058'> +1.5064884e-12 </wgt>
<wgt id='1059'> +1.5191660e-12 </wgt>
<wgt id='1060'> +1.5752410e-12 </wgt>
<wgt id='1061'> +1.5383715e-12 </wgt>
<wgt id='1062'> +1.4959657e-12 </wgt>
<wgt id='1063'> +1.5921617e-12 </wgt>
<wgt id='1064'> +1.5555725e-12 </wgt>
<wgt id='1065'> +1.5517803e-12 </wgt>
<wgt id='1066'> +1.4715172e-12 </wgt>
<wgt id='1067'> +1.5727398e-12 </wgt>
<wgt id='1068'> +1.6661375e-12 </wgt>
<wgt id='1069'> +1.5860228e-12 </wgt>
<wgt id='1070'> +1.5512725e-12 </wgt>
<wgt id='1071'> +1.5116152e-12 </wgt>
<wgt id='1072'> +1.5481097e-12 </wgt>
<wgt id='1073'> +1.7051519e-12 </wgt>
<wgt id='1074'> +1.5648912e-12 </wgt>
<wgt id='1075'> +1.5086283e-12 </wgt>
<wgt id='1076'> +1.5543648e-12 </wgt>
<wgt id='1077'> +1.6379874e-12 </wgt>
<wgt id='1078'> +1.5367156e-12 </wgt>
<wgt id='1079'> +1.5575289e-12 </wgt>
<wgt id='1080'> +1.5652700e-12 </wgt>
<wgt id='1081'> +1.5648851e-12 </wgt>
<wgt id='1082'> +1.5872311e-12 </wgt>
<wgt id='1083'> +1.5675711e-12 </wgt>
<wgt id='1084'> +1.5015609e-12 </wgt>
<wgt id='1085'> +1.5599376e-12 </wgt>
<wgt id='1086'> +1.5407418e-12 </wgt>
<wgt id='1087'> +1.5639919e-12 </wgt>
<wgt id='1088'> +1.5570926e-12 </wgt>
<wgt id='1089'> +1.6263079e-12 </wgt>
<wgt id='1090'> +1.5717064e-12 </wgt>
<wgt id='1091'> +1.5096372e-12 </wgt>
<wgt id='1092'> +1.5592304e-12 </wgt>
<wgt id='1093'> +1.5647585e-12 </wgt>
<wgt id='1094'> +1.5355519e-12 </wgt>
<wgt id='1095'> +1.5455925e-12 </wgt>
<wgt id='1096'> +1.5438868e-12 </wgt>
<wgt id='1097'> +1.5382384e-12 </wgt>
<wgt id='1098'> +1.5157520e-12 </wgt>
<wgt id='1099'> +1.5268632e-12 </wgt>
<wgt id='1100'> +1.6021641e-12 </wgt>
<wgt id='1101'> +1.6232152e-12 </wgt>
<wgt id='1102'> +1.5874024e-12 </wgt>
<wgt id='1103'> +1.6318531e-12 </wgt>
<wgt id='1104'> +1.5607374e-12 </wgt>
<wgt id='1105'> +1.4965193e-12 </wgt>
<wgt id='1106'> +1.5989704e-12 </wgt>
<wgt id='1107'> +1.6184742e-12 </wgt>
<wgt id='1108'> +1.5248022e-12 </wgt>
<wgt id='1109'> +1.5670183e-12 </wgt>
<wgt id='1110'> +1.5100530e-12 </wgt>
<wgt id='1111'> +1.5380496e-12 </wgt>
<wgt id='1112'> +1.4632429e-12 </wgt>
<wgt id='1113'> +1.5932466e-12 </wgt>
<wgt id='1114'> +1.5502354e-12 </wgt>
<wgt id='1115'> +1.5552749e-12 </wgt>
<wgt id='1116'> +1.5858270e-12 </wgt>
<wgt id='1117'> +1.5368570e-12 </wgt>
<wgt id='1118'> +1.4559851e-12 </wgt>
<wgt id='1119'> +1.4187929e-12 </wgt>
<wgt id='1120'> +1.4798459e-12 </wgt>
<wgt id='1121'> +1.4839099e-12 </wgt>
<wgt id='1122'> +1.5893816e-12 </wgt>
<wgt id='1123'> +1.5936588e-12 </wgt>
<wgt id='1124'> +1.5394750e-12 </wgt>
<wgt id='1125'> +1.4819797e-12 </wgt>
<wgt id='1126'> +1.5923471e-12 </wgt>
<wgt id='1127'> +1.6373309e-12 </wgt>
<wgt id='1128'> +1.4959657e-12 </wgt>
<wgt id='1129'> +1.5102033e-12 </wgt>
<wgt id='1130'> +1.5383854e-12 </wgt>
<wgt id='1131'> +1.5573333e-12 </wgt>
<wgt id='1132'> +1.6545915e-12 </wgt>
<wgt id='1133'> +1.5444303e-12 </wgt>
<wgt id='1134'> +1.6313543e-12 </wgt>
<wgt id='1135'> +1.4144955e-12 </wgt>
<wgt id='1136'> +1.5154033e-12 </wgt>
<wgt id='1137'> +1.5515740e-12 </wgt>
<wgt id='1138'> +1.4218148e-12 </wgt>
<wgt id='1139'> +1.5138555e-12 </wgt>
<wgt id='1140'> +1.5247915e-12 </wgt>
<wgt id='1141'> +1.6090136e-12 </wgt>
<wgt id='1142'> +1.5566896e-12 </wgt>
<wgt id='1143'> +1.6091550e-12 </wgt>
<wgt id='1144'> +1.5784270e-12 </wgt>
<wgt id='1145'> +1.5620196e-12 </wgt>
<wgt id='1146'> +1.5793821e-12 </wgt>
<wgt id='1147'> +1.2802156e-12 </wgt>
<wgt id='1148'> +1.3042318e-12 </wgt>
<wgt id='1149'> +1.2961569e-12 </wgt>
<wgt id='1150'> +1.3461189e-12 </wgt>
<wgt id='1151'> +1.5544551e-12 </wgt>
<wgt id='1152'> +2.0253705e-12 </wgt>
<wgt id='1153'> +2.0133557e-12 </wgt>
<wgt id='1154'> +2.0324606e-12 </wgt>
<wgt id='1155'> +2.0148553e-12 </wgt>
<wgt id='1156'> +2.0307365e-12 </wgt>
<wgt id='1157'> +2.0323670e-12 </wgt>
<wgt id='1158'> +2.0159776e-12 </wgt>
<wgt id='1159'> +2.0319603e-12 </wgt>
<wgt id='1160'> +2.0212107e-12 </wgt>
<wgt id='1161'> +2.0273135e-12 </wgt>
<wgt id='1162'> +2.0240943e-12 </wgt>
<wgt id='1163'> +2.0277275e-12 </wgt>
<wgt id='1164'> +2.0230955e-12 </wgt>
<wgt id='1165'> +2.0163573e-12 </wgt>
<wgt id='1166'> +2.0341568e-12 </wgt>
<wgt id='1167'> +2.0224028e-12 </wgt>
<wgt id='1168'> +2.0265656e-12 </wgt>
<wgt id='1169'> +2.0293732e-12 </wgt>
<wgt id='1170'> +2.0224183e-12 </wgt>
<wgt id='1171'> +2.0140934e-12 </wgt>
<wgt id='1172'> +2.0400425e-12 </wgt>
<wgt id='1173'> +2.0089422e-12 </wgt>
<wgt id='1174'> +2.0411993e-12 </wgt>
<wgt id='1175'> +2.0404943e-12 </wgt>
<wgt id='1176'> +2.0122524e-12 </wgt>
<wgt id='1177'> +2.0325461e-12 </wgt>
<wgt id='1178'> +2.0029412e-12 </wgt>
<wgt id='1179'> +2.0247335e-12 </wgt>
<wgt id='1180'> +2.0156029e-12 </wgt>
<wgt id='1181'> +2.0173335e-12 </wgt>
<wgt id='1182'> +2.0334694e-12 </wgt>
<wgt id='1183'> +2.0317243e-12 </wgt>
<wgt id='1184'> +2.0243865e-12 </wgt>
<wgt id='1185'> +2.0272904e-12 </wgt>
<wgt id='1186'> +2.0263868e-12 </wgt>
<wgt id='1187'> +2.0261148e-12 </wgt>
<wgt id='1188'> +2.0252387e-12 </wgt>
<wgt id='1189'> +2.0287509e-12 </wgt>
<wgt id='1190'> +2.0011209e-12 </wgt>
<wgt id='1191'> +2.0107248e-12 </wgt>
<wgt id='1192'> +2.0358533e-12 </wgt>
<wgt id='1193'> +1.3867274e-12 </wgt>
<wgt id='1194'> +1.3810476e-12 </wgt>
<wgt id='1195'> +1.3913569e-12 </wgt>
<wgt id='1196'> +1.3983432e-12 </wgt>
<wgt id='1197'> +1.3738207e-12 </wgt>
<wgt id='1198'> +1.3833921e-12 </wgt>
<wgt id='1199'> +1.3916870e-12 </wgt>
<wgt id='1200'> +1.3814406e-12 </wgt>
<wgt id='1201'> +1.3902739e-12 </wgt>
<wgt id='1202'> +1.3866228e-12 </wgt>
<wgt id='1203'> +1.3869344e-12 </wgt>
<wgt id='1204'> +1.3863411e-12 </wgt>
<wgt id='1205'> +1.3869212e-12 </wgt>
<wgt id='1206'> +1.3882985e-12 </wgt>
<wgt id='1207'> +1.3845853e-12 </wgt>
<wgt id='1208'> +1.3775243e-12 </wgt>
<wgt id='1209'> +1.3900943e-12 </wgt>
<wgt id='1210'> +1.3828349e-12 </wgt>
<wgt id='1211'> +1.3845541e-12 </wgt>
<wgt id='1212'> +1.3878253e-12 </wgt>
<wgt id='1213'> +1.3857662e-12 </wgt>
<wgt id='1214'> +1.3715642e-12 </wgt>
<wgt id='1215'> +1.4108450e-12 </wgt>
<wgt id='1216'> +1.3849306e-12 </wgt>
<wgt id='1217'> +1.3881815e-12 </wgt>
<wgt id='1218'> +1.3983672e-12 </wgt>
<wgt id='1219'> +1.3809598e-12 </wgt>
<wgt id='1220'> +1.3977922e-12 </wgt>
<wgt id='1221'> +1.3802173e-12 </wgt>
<wgt id='1222'> +1.3977385e-12 </wgt>
<wgt id='1223'> +1.3644473e-12 </wgt>
<wgt id='1224'> +1.3881970e-12 </wgt>
<wgt id='1225'> +1.3861724e-12 </wgt>
<wgt id='1226'> +1.3819003e-12 </wgt>
<wgt id='1227'> +1.3903929e-12 </wgt>
<wgt id='1228'> +1.3981167e-12 </wgt>
<wgt id='1229'> +1.3788758e-12 </wgt>
<wgt id='1230'> +1.3975825e-12 </wgt>
<wgt id='1231'> +1.3757017e-12 </wgt>
<wgt id='1232'> +1.3929887e-12 </wgt>
<wgt id='1233'> +1.3849829e-12 </wgt>
<wgt id='1234'> +1.3867274e-12 </wgt>
<wgt id='1235'> +1.3802736e-12 </wgt>
<wgt id='1236'> +1.3827567e-12 </wgt>
<wgt id='1237'> +1.3848323e-12 </wgt>
<wgt id='1238'> +1.3886832e-12 </wgt>
<wgt id='1239'> +1.3902023e-12 </wgt>
<wgt id='1240'> +1.3915030e-12 </wgt>
<wgt id='1241'> +1.3245778e-12 </wgt>
<wgt id='1242'> +1.3162206e-12 </wgt>
<wgt id='1243'> +1.3328702e-12 </wgt>
<wgt id='1244'> +1.3167427e-12 </wgt>
<wgt id='1245'> +1.3303640e-12 </wgt>
<wgt id='1246'> +1.3173891e-12 </wgt>
<wgt id='1247'> +1.3307024e-12 </wgt>
<wgt id='1248'> +1.3244830e-12 </wgt>
<wgt id='1249'> +1.3246995e-12 </wgt>
<wgt id='1250'> +1.3314475e-12 </wgt>
<wgt id='1251'> +1.3197341e-12 </wgt>
<wgt id='1252'> +1.3233152e-12 </wgt>
<wgt id='1253'> +1.3255564e-12 </wgt>
<wgt id='1254'> +1.3255936e-12 </wgt>
<wgt id='1255'> +1.3239170e-12 </wgt>
<wgt id='1256'> +1.3279398e-12 </wgt>
<wgt id='1257'> +1.3162583e-12 </wgt>
<wgt id='1258'> +1.3385737e-12 </wgt>
<wgt id='1259'> +1.3115896e-12 </wgt>
<wgt id='1260'> +1.3278564e-12 </wgt>
<wgt id='1261'> +1.3210592e-12 </wgt>
<wgt id='1262'> +1.3184289e-12 </wgt>
<wgt id='1263'> +1.3275832e-12 </wgt>
<wgt id='1264'> +1.3363412e-12 </wgt>
<wgt id='1265'> +1.3188511e-12 </wgt>
<wgt id='1266'> +1.3076907e-12 </wgt>
<wgt id='1267'> +1.3379252e-12 </wgt>
<wgt id='1268'> +1.3284056e-12 </wgt>
<wgt id='1269'> +1.3226549e-12 </wgt>
<wgt id='1270'> +1.3226421e-12 </wgt>
<wgt id='1271'> +1.3239170e-12 </wgt>
<wgt id='1272'> +1.3241576e-12 </wgt>
<wgt id='1273'> +1.3246310e-12 </wgt>
<wgt id='1274'> +1.3271783e-12 </wgt>
<wgt id='1275'> +1.3209519e-12 </wgt>
<wgt id='1276'> +1.3118755e-12 </wgt>
<wgt id='1277'> +1.3351098e-12 </wgt>
<wgt id='1278'> +1.3196767e-12 </wgt>
<wgt id='1279'> +1.3317581e-12 </wgt>
<wgt id='1280'> +1.3218921e-12 </wgt>
<wgt id='1281'> +1.3393709e-12 </wgt>
<wgt id='1282'> +1.3245778e-12 </wgt>
<wgt id='1283'> +1.3184373e-12 </wgt>
<wgt id='1284'> +1.3207537e-12 </wgt>
<wgt id='1285'> +1.3229177e-12 </wgt>
<wgt id='1286'> +1.3263202e-12 </wgt>
<wgt id='1287'> +1.3275187e-12 </wgt>
<wgt id='1288'> +1.3286979e-12 </wgt>
<wgt id='1289'> +1.4320416e-12 </wgt>
<wgt id='1290'> +1.4263829e-12 </wgt>
<wgt id='1291'> +1.4381238e-12 </wgt>
<wgt id='1292'> +1.4306281e-12 </wgt>
<wgt id='1293'> +1.4329914e-12 </wgt>
<wgt id='1294'> +1.4174416e-12 </wgt>
<wgt id='1295'> +1.4462371e-12 </wgt>
<wgt id='1296'> +1.4308745e-12 </wgt>
<wgt id='1297'> +1.4333432e-12 </wgt>
<wgt id='1298'> +1.4281601e-12 </wgt>
<wgt id='1299'> +1.4366966e-12 </wgt>
<wgt id='1300'> +1.4320965e-12 </wgt>
<wgt id='1301'> +1.4318816e-12 </wgt>
<wgt id='1302'> +1.4269080e-12 </wgt>
<wgt id='1303'> +1.4391630e-12 </wgt>
<wgt id='1304'> +1.4316619e-12 </wgt>
<wgt id='1305'> +1.4322449e-12 </wgt>
<wgt id='1306'> +1.4227772e-12 </wgt>
<wgt id='1307'> +1.4424534e-12 </wgt>
<wgt id='1308'> +1.4164801e-12 </wgt>
<wgt id='1309'> +1.4438998e-12 </wgt>
<wgt id='1310'> +1.4389677e-12 </wgt>
<wgt id='1311'> +1.4248249e-12 </wgt>
<wgt id='1312'> +1.4216124e-12 </wgt>
<wgt id='1313'> +1.4427908e-12 </wgt>
<wgt id='1314'> +1.4205976e-12 </wgt>
<wgt id='1315'> +1.4397606e-12 </wgt>
<wgt id='1316'> +1.4367608e-12 </wgt>
<wgt id='1317'> +1.4339973e-12 </wgt>
<wgt id='1318'> +1.4411678e-12 </wgt>
<wgt id='1319'> +1.4209610e-12 </wgt>
<wgt id='1320'> +1.4605287e-12 </wgt>
<wgt id='1321'> +1.4109044e-12 </wgt>
<wgt id='1322'> +1.4263069e-12 </wgt>
<wgt id='1323'> +1.4407568e-12 </wgt>
<wgt id='1324'> +1.4346916e-12 </wgt>
<wgt id='1325'> +1.4305601e-12 </wgt>
<wgt id='1326'> +1.4306993e-12 </wgt>
<wgt id='1327'> +1.4353938e-12 </wgt>
<wgt id='1328'> +1.4291987e-12 </wgt>
<wgt id='1329'> +1.4342098e-12 </wgt>
<wgt id='1330'> +1.4194105e-12 </wgt>
<wgt id='1331'> +1.4580202e-12 </wgt>
<wgt id='1332'> +1.4447083e-12 </wgt>
<wgt id='1333'> +1.4263905e-12 </wgt>
<wgt id='1334'> +1.4254671e-12 </wgt>
<wgt id='1335'> +1.4516233e-12 </wgt>
<wgt id='1336'> +1.4359987e-12 </wgt>
<wgt id='1337'> +1.4270222e-12 </wgt>
<wgt id='1338'> +1.4307426e-12 </wgt>
<wgt id='1339'> +1.4307910e-12 </wgt>
<wgt id='1340'> +1.4116520e-12 </wgt>
<wgt id='1341'> +1.4058273e-12 </wgt>
<wgt id='1342'> +1.4178734e-12 </wgt>
<wgt id='1343'> +1.4101803e-12 </wgt>
<wgt id='1344'> +1.4126510e-12 </wgt>
<wgt id='1345'> +1.3968387e-12 </wgt>
<wgt id='1346'> +1.4255401e-12 </wgt>
<wgt id='1347'> +1.4112866e-12 </wgt>
<wgt id='1348'> +1.4119457e-12 </wgt>
<wgt id='1349'> +1.4079778e-12 </wgt>
<wgt id='1350'> +1.4151753e-12 </wgt>
<wgt id='1351'> +1.4111395e-12 </wgt>
<wgt id='1352'> +1.4127113e-12 </wgt>
<wgt id='1353'> +1.4057300e-12 </wgt>
<wgt id='1354'> +1.4222125e-12 </wgt>
<wgt id='1355'> +1.4125194e-12 </wgt>
<wgt id='1356'> +1.4111559e-12 </wgt>
<wgt id='1357'> +1.3980272e-12 </wgt>
<wgt id='1358'> +1.4277231e-12 </wgt>
<wgt id='1359'> +1.3996449e-12 </wgt>
<wgt id='1360'> +1.4220762e-12 </wgt>
<wgt id='1361'> +1.4173888e-12 </wgt>
<wgt id='1362'> +1.4042788e-12 </wgt>
<wgt id='1363'> +1.3992241e-12 </wgt>
<wgt id='1364'> +1.4205459e-12 </wgt>
<wgt id='1365'> +1.4157131e-12 </wgt>
<wgt id='1366'> +1.4002120e-12 </wgt>
<wgt id='1367'> +1.4171247e-12 </wgt>
<wgt id='1368'> +1.4120617e-12 </wgt>
<wgt id='1369'> +1.4186004e-12 </wgt>
<wgt id='1370'> +1.4034554e-12 </wgt>
<wgt id='1371'> +1.4316629e-12 </wgt>
<wgt id='1372'> +1.3898991e-12 </wgt>
<wgt id='1373'> +1.3995154e-12 </wgt>
<wgt id='1374'> +1.4249912e-12 </wgt>
<wgt id='1375'> +1.4136757e-12 </wgt>
<wgt id='1376'> +1.4108701e-12 </wgt>
<wgt id='1377'> +1.4109615e-12 </wgt>
<wgt id='1378'> +1.4147254e-12 </wgt>
<wgt id='1379'> +1.4087519e-12 </wgt>
<wgt id='1380'> +1.4142075e-12 </wgt>
<wgt id='1381'> +1.3997925e-12 </wgt>
<wgt id='1382'> +1.4350002e-12 </wgt>
<wgt id='1383'> +1.4278368e-12 </wgt>
<wgt id='1384'> +1.4062200e-12 </wgt>
<wgt id='1385'> +1.4050846e-12 </wgt>
<wgt id='1386'> +1.4301117e-12 </wgt>
<wgt id='1387'> +1.4145123e-12 </wgt>
<wgt id='1388'> +1.4071777e-12 </wgt>
<wgt id='1389'> +1.4096234e-12 </wgt>
<wgt id='1390'> +1.4104524e-12 </wgt>
<wgt id='1391'> +1.3727613e-12 </wgt>
<wgt id='1392'> +1.3433694e-12 </wgt>
<wgt id='1393'> +1.3544170e-12 </wgt>
<wgt id='1394'> +1.3643241e-12 </wgt>
<wgt id='1395'> +1.3842967e-12 </wgt>
<wgt id='1396'> +1.3742523e-12 </wgt>
<wgt id='1397'> +1.3294590e-12 </wgt>
<wgt id='1398'> +1.3387947e-12 </wgt>
<wgt id='1399'> +1.3476223e-12 </wgt>
<wgt id='1400'> +1.3562950e-12 </wgt>
<wgt id='1401'> +1.3653625e-12 </wgt>
<wgt id='1402'> +1.3834960e-12 </wgt>
<wgt id='1403'> +1.3921902e-12 </wgt>
<wgt id='1404'> +1.4009611e-12 </wgt>
<wgt id='1405'> +1.3742523e-12 </wgt>
<wgt id='1406'> +1.3715048e-12 </wgt>
<wgt id='1407'> +1.3730944e-12 </wgt>
<wgt id='1408'> +1.3753981e-12 </wgt>
<wgt id='1409'> +1.3772829e-12 </wgt>
<wgt id='1410'> +1.3101382e-12 </wgt>
<wgt id='1411'> +1.3063668e-12 </wgt>
<wgt id='1412'> +1.3148573e-12 </wgt>
<wgt id='1413'> +1.3029804e-12 </wgt>
<wgt id='1414'> +1.3172486e-12 </wgt>
<wgt id='1415'> +1.3064125e-12 </wgt>
<wgt id='1416'> +1.3116211e-12 </wgt>
<wgt id='1417'> +1.3005090e-12 </wgt>
<wgt id='1418'> +1.3197598e-12 </wgt>
<wgt id='1419'> +1.3073733e-12 </wgt>
<wgt id='1420'> +1.3127680e-12 </wgt>
<wgt id='1421'> +1.3114369e-12 </wgt>
<wgt id='1422'> +1.3094730e-12 </wgt>
<wgt id='1423'> +1.3085424e-12 </wgt>
<wgt id='1424'> +1.3120464e-12 </wgt>
<wgt id='1425'> +1.3018485e-12 </wgt>
<wgt id='1426'> +1.3190736e-12 </wgt>
<wgt id='1427'> +1.2804347e-12 </wgt>
<wgt id='1428'> +1.3266149e-12 </wgt>
<wgt id='1429'> +1.3129588e-12 </wgt>
<wgt id='1430'> +1.3064308e-12 </wgt>
<wgt id='1431'> +1.2997488e-12 </wgt>
<wgt id='1432'> +1.3172820e-12 </wgt>
<wgt id='1433'> +1.2936331e-12 </wgt>
<wgt id='1434'> +1.3242509e-12 </wgt>
<wgt id='1435'> +1.3129254e-12 </wgt>
<wgt id='1436'> +1.3035966e-12 </wgt>
<wgt id='1437'> +1.3148679e-12 </wgt>
<wgt id='1438'> +1.3115939e-12 </wgt>
<wgt id='1439'> +1.3032269e-12 </wgt>
<wgt id='1440'> +1.3255923e-12 </wgt>
<wgt id='1441'> +1.3221050e-12 </wgt>
<wgt id='1442'> +1.2871363e-12 </wgt>
<wgt id='1443'> +1.3139017e-12 </wgt>
<wgt id='1444'> +1.3061364e-12 </wgt>
<wgt id='1445'> +1.3153859e-12 </wgt>
<wgt id='1446'> +1.3094552e-12 </wgt>
<wgt id='1447'> +1.3099566e-12 </wgt>
<wgt id='1448'> +1.3134166e-12 </wgt>
<wgt id='1449'> +1.3078310e-12 </wgt>
<wgt id='1450'> +1.3111491e-12 </wgt>
<wgt id='1451'> +1.3252976e-12 </wgt>
<wgt id='1452'> +1.2888355e-12 </wgt>
<wgt id='1453'> +1.3113221e-12 </wgt>
<wgt id='1454'> +1.2978259e-12 </wgt>
<wgt id='1455'> +1.3094575e-12 </wgt>
<wgt id='1456'> +1.3169992e-12 </wgt>
<wgt id='1457'> +1.3252279e-12 </wgt>
<wgt id='1458'> +1.3038349e-12 </wgt>
<wgt id='1459'> +1.3116070e-12 </wgt>
<wgt id='1460'> +1.3115822e-12 </wgt>
<wgt id='1461'> +1.3101382e-12 </wgt>
<wgt id='1462'> +1.3046192e-12 </wgt>
<wgt id='1463'> +1.3179642e-12 </wgt>
<wgt id='1464'> +1.3112801e-12 </wgt>
<wgt id='1465'> +1.2677704e-12 </wgt>
<wgt id='1466'> +1.2776002e-12 </wgt>
<wgt id='1467'> +1.2869551e-12 </wgt>
<wgt id='1468'> +1.2943819e-12 </wgt>
<wgt id='1469'> +1.3033078e-12 </wgt>
<wgt id='1470'> +1.3191991e-12 </wgt>
<wgt id='1471'> +1.3248225e-12 </wgt>
<wgt id='1472'> +1.3324555e-12 </wgt>
<wgt id='1473'> +1.3112801e-12 </wgt>
<wgt id='1474'> +1.3087214e-12 </wgt>
<wgt id='1475'> +1.3095290e-12 </wgt>
<wgt id='1476'> +1.3123826e-12 </wgt>
<wgt id='1477'> +1.3133472e-12 </wgt>
<wgt id='1478'> +1.3382762e-12 </wgt>
<wgt id='1479'> +1.3369811e-12 </wgt>
<wgt id='1480'> +1.3444310e-12 </wgt>
<wgt id='1481'> +1.3457592e-12 </wgt>
<wgt id='1482'> +1.3403581e-12 </wgt>
<wgt id='1483'> +1.3196285e-12 </wgt>
<wgt id='1484'> +1.3412373e-12 </wgt>
<wgt id='1485'> +1.3453711e-12 </wgt>
<wgt id='1486'> +1.3384438e-12 </wgt>
<wgt id='1487'> +1.3205635e-12 </wgt>
<wgt id='1488'> +1.3360653e-12 </wgt>
<wgt id='1489'> +1.3410944e-12 </wgt>
<wgt id='1490'> +1.3338451e-12 </wgt>
<wgt id='1491'> +1.3445521e-12 </wgt>
<wgt id='1492'> +1.3373087e-12 </wgt>
<wgt id='1493'> +1.3172334e-12 </wgt>
<wgt id='1494'> +1.3358314e-12 </wgt>
<wgt id='1495'> +1.3406773e-12 </wgt>
<wgt id='1496'> +1.3410258e-12 </wgt>
<wgt id='1497'> +1.3117644e-12 </wgt>
<wgt id='1498'> +1.3366606e-12 </wgt>
<wgt id='1499'> +1.3402450e-12 </wgt>
<wgt id='1500'> +1.3375696e-12 </wgt>
<wgt id='1501'> +1.3391757e-12 </wgt>
<wgt id='1502'> +1.3429010e-12 </wgt>
<wgt id='1503'> +1.3417863e-12 </wgt>
<wgt id='1504'> +1.3363408e-12 </wgt>
<wgt id='1505'> +1.3376273e-12 </wgt>
<wgt id='1506'> +1.3394054e-12 </wgt>
<wgt id='1507'> +1.3362009e-12 </wgt>
<wgt id='1508'> +1.3470400e-12 </wgt>
<wgt id='1509'> +1.3404944e-12 </wgt>
<wgt id='1510'> +1.3395172e-12 </wgt>
<wgt id='1511'> +1.3369318e-12 </wgt>
<wgt id='1512'> +1.3332088e-12 </wgt>
<wgt id='1513'> +1.3450555e-12 </wgt>
<wgt id='1514'> +1.3456899e-12 </wgt>
<wgt id='1515'> +1.3408400e-12 </wgt>
<wgt id='1516'> +1.3486502e-12 </wgt>
<wgt id='1517'> +1.3483364e-12 </wgt>
<wgt id='1518'> +1.3458751e-12 </wgt>
<wgt id='1519'> +1.3333717e-12 </wgt>
<wgt id='1520'> +1.3384599e-12 </wgt>
<wgt id='1521'> +1.3468492e-12 </wgt>
<wgt id='1522'> +1.3374333e-12 </wgt>
<wgt id='1523'> +1.3453160e-12 </wgt>
<wgt id='1524'> +1.3420151e-12 </wgt>
<wgt id='1525'> +1.3459097e-12 </wgt>
<wgt id='1526'> +1.3360395e-12 </wgt>
<wgt id='1527'> +1.3365951e-12 </wgt>
<wgt id='1528'> +1.3422950e-12 </wgt>
<wgt id='1529'> +1.3388457e-12 </wgt>
<wgt id='1530'> +1.3459988e-12 </wgt>
<wgt id='1531'> +1.3411851e-12 </wgt>
<wgt id='1532'> +1.3382157e-12 </wgt>
<wgt id='1533'> +1.3406575e-12 </wgt>
<wgt id='1534'> +1.3412772e-12 </wgt>
<wgt id='1535'> +1.3321659e-12 </wgt>
<wgt id='1536'> +1.3382371e-12 </wgt>
<wgt id='1537'> +1.3447030e-12 </wgt>
<wgt id='1538'> +1.3396644e-12 </wgt>
<wgt id='1539'> +1.3285360e-12 </wgt>
<wgt id='1540'> +1.3481188e-12 </wgt>
<wgt id='1541'> +1.3496203e-12 </wgt>
<wgt id='1542'> +1.3423775e-12 </wgt>
<wgt id='1543'> +1.3331781e-12 </wgt>
<wgt id='1544'> +1.3587373e-12 </wgt>
<wgt id='1545'> +1.3474611e-12 </wgt>
<wgt id='1546'> +1.3344965e-12 </wgt>
<wgt id='1547'> +1.3475571e-12 </wgt>
<wgt id='1548'> +1.3362076e-12 </wgt>
<wgt id='1549'> +1.3421170e-12 </wgt>
<wgt id='1550'> +1.3411817e-12 </wgt>
<wgt id='1551'> +1.3436069e-12 </wgt>
<wgt id='1552'> +1.3379582e-12 </wgt>
<wgt id='1553'> +1.3442308e-12 </wgt>
<wgt id='1554'> +1.3368087e-12 </wgt>
<wgt id='1555'> +1.3401942e-12 </wgt>
<wgt id='1556'> +1.3362957e-12 </wgt>
<wgt id='1557'> +1.3443534e-12 </wgt>
<wgt id='1558'> +1.3427698e-12 </wgt>
<wgt id='1559'> +1.3416677e-12 </wgt>
<wgt id='1560'> +1.3437966e-12 </wgt>
<wgt id='1561'> +1.3374245e-12 </wgt>
<wgt id='1562'> +1.3403650e-12 </wgt>
<wgt id='1563'> +1.3432455e-12 </wgt>
<wgt id='1564'> +1.3401904e-12 </wgt>
<wgt id='1565'> +1.3408111e-12 </wgt>
<wgt id='1566'> +1.3411997e-12 </wgt>
<wgt id='1567'> +1.3468826e-12 </wgt>
<wgt id='1568'> +1.3402887e-12 </wgt>
<wgt id='1569'> +1.3380474e-12 </wgt>
<wgt id='1570'> +1.3414621e-12 </wgt>
<wgt id='1571'> +1.3391252e-12 </wgt>
<wgt id='1572'> +1.3373036e-12 </wgt>
<wgt id='1573'> +1.3328344e-12 </wgt>
<wgt id='1574'> +1.3434785e-12 </wgt>
<wgt id='1575'> +1.3425777e-12 </wgt>
<wgt id='1576'> +1.3411021e-12 </wgt>
<wgt id='1577'> +1.3420538e-12 </wgt>
<wgt id='1578'> +1.3426527e-12 </wgt>
<wgt id='1579'> +1.3389510e-12 </wgt>
<wgt id='1580'> +1.3379843e-12 </wgt>
<wgt id='1581'> +1.3388459e-12 </wgt>
<wgt id='1582'> +1.3420492e-12 </wgt>
<wgt id='1583'> +1.3418172e-12 </wgt>
<wgt id='1584'> +1.3425746e-12 </wgt>
<wgt id='1585'> +1.3394994e-12 </wgt>
<wgt id='1586'> +1.3396561e-12 </wgt>
<wgt id='1587'> +1.3419505e-12 </wgt>
<wgt id='1588'> +1.3377589e-12 </wgt>
<wgt id='1589'> +1.3427229e-12 </wgt>
<wgt id='1590'> +1.3424616e-12 </wgt>
<wgt id='1591'> +1.3417562e-12 </wgt>
<wgt id='1592'> +1.3407186e-12 </wgt>
<wgt id='1593'> +1.3407048e-12 </wgt>
<wgt id='1594'> +1.3402348e-12 </wgt>
<wgt id='1595'> +1.3424906e-12 </wgt>
<wgt id='1596'> +1.3380022e-12 </wgt>
<wgt id='1597'> +1.3404067e-12 </wgt>
<wgt id='1598'> +1.3405004e-12 </wgt>
<wgt id='1599'> +1.3365100e-12 </wgt>
<wgt id='1600'> +1.3371388e-12 </wgt>
<wgt id='1601'> +1.3399715e-12 </wgt>
<wgt id='1602'> +1.3402105e-12 </wgt>
<wgt id='1603'> +1.3414288e-12 </wgt>
<wgt id='1604'> +1.3394432e-12 </wgt>
<wgt id='1605'> +1.3412502e-12 </wgt>
<wgt id='1606'> +1.3416837e-12 </wgt>
<wgt id='1607'> +1.3388821e-12 </wgt>
<wgt id='1608'> +1.3423560e-12 </wgt>
<wgt id='1609'> +1.3427757e-12 </wgt>
<wgt id='1610'> +1.3410405e-12 </wgt>
<wgt id='1611'> +1.3422915e-12 </wgt>
<wgt id='1612'> +1.5861781e-12 </wgt>
<wgt id='1613'> +1.6452610e-12 </wgt>
<wgt id='1614'> +1.6121966e-12 </wgt>
<wgt id='1615'> +1.5757354e-12 </wgt>
<wgt id='1616'> +1.5729795e-12 </wgt>
<wgt id='1617'> +1.6114830e-12 </wgt>
<wgt id='1618'> +1.6846626e-12 </wgt>
<wgt id='1619'> +1.5682800e-12 </wgt>
<wgt id='1620'> +1.5103185e-12 </wgt>
<wgt id='1621'> +1.6272520e-12 </wgt>
<wgt id='1622'> +1.5521341e-12 </wgt>
<wgt id='1623'> +1.6386178e-12 </wgt>
<wgt id='1624'> +1.5878300e-12 </wgt>
<wgt id='1625'> +1.6173419e-12 </wgt>
<wgt id='1626'> +1.5413839e-12 </wgt>
<wgt id='1627'> +1.6140367e-12 </wgt>
<wgt id='1628'> +1.6874666e-12 </wgt>
<wgt id='1629'> +1.6050152e-12 </wgt>
<wgt id='1630'> +1.5300280e-12 </wgt>
<wgt id='1631'> +1.5851167e-12 </wgt>
<wgt id='1632'> +1.5148610e-12 </wgt>
<wgt id='1633'> +1.5140527e-12 </wgt>
<wgt id='1634'> +1.6229175e-12 </wgt>
<wgt id='1635'> +1.5571239e-12 </wgt>
<wgt id='1636'> +1.6149796e-12 </wgt>
<wgt id='1637'> +1.5580963e-12 </wgt>
<wgt id='1638'> +1.6057192e-12 </wgt>
<wgt id='1639'> +1.5214195e-12 </wgt>
<wgt id='1640'> +1.5363891e-12 </wgt>
<wgt id='1641'> +1.5828817e-12 </wgt>
<wgt id='1642'> +1.5176854e-12 </wgt>
<wgt id='1643'> +1.6602335e-12 </wgt>
<wgt id='1644'> +1.5232044e-12 </wgt>
<wgt id='1645'> +1.5945108e-12 </wgt>
<wgt id='1646'> +1.5553252e-12 </wgt>
<wgt id='1647'> +1.6059264e-12 </wgt>
<wgt id='1648'> +1.5795082e-12 </wgt>
<wgt id='1649'> +1.6807263e-12 </wgt>
<wgt id='1650'> +1.5784908e-12 </wgt>
<wgt id='1651'> +1.5250220e-12 </wgt>
<wgt id='1652'> +1.5765241e-12 </wgt>
<wgt id='1653'> +1.6233824e-12 </wgt>
<wgt id='1654'> +1.6651888e-12 </wgt>
<wgt id='1655'> +1.6212668e-12 </wgt>
<wgt id='1656'> +1.6021069e-12 </wgt>
<wgt id='1657'> +1.6005849e-12 </wgt>
<wgt id='1658'> +1.5206152e-12 </wgt>
<wgt id='1659'> +1.5878300e-12 </wgt>
<wgt id='1660'> +1.6424971e-12 </wgt>
<wgt id='1661'> +1.6223822e-12 </wgt>
<wgt id='1662'> +1.5629873e-12 </wgt>
<wgt id='1663'> +1.5388896e-12 </wgt>
<wgt id='1664'> +1.6140053e-12 </wgt>
<wgt id='1665'> +1.5482513e-12 </wgt>
<wgt id='1666'> +1.5916761e-12 </wgt>
<wgt id='1667'> +1.5979750e-12 </wgt>
<wgt id='1668'> +1.5991899e-12 </wgt>
<wgt id='1669'> +1.6065277e-12 </wgt>
<wgt id='1670'> +1.5771737e-12 </wgt>
<wgt id='1671'> +1.5754999e-12 </wgt>
<wgt id='1672'> +1.6036450e-12 </wgt>
<wgt id='1673'> +1.5410054e-12 </wgt>
<wgt id='1674'> +1.5863899e-12 </wgt>
<wgt id='1675'> +1.6460799e-12 </wgt>
<wgt id='1676'> +1.6430924e-12 </wgt>
<wgt id='1677'> +1.5361783e-12 </wgt>
<wgt id='1678'> +1.5288564e-12 </wgt>
<wgt id='1679'> +1.5450340e-12 </wgt>
<wgt id='1680'> +1.6928327e-12 </wgt>
<wgt id='1681'> +1.5977111e-12 </wgt>
<wgt id='1682'> +1.5860496e-12 </wgt>
<wgt id='1683'> +1.5548634e-12 </wgt>
<wgt id='1684'> +1.5723230e-12 </wgt>
<wgt id='1685'> +1.6079429e-12 </wgt>
<wgt id='1686'> +1.6190768e-12 </wgt>
<wgt id='1687'> +1.5879264e-12 </wgt>
<wgt id='1688'> +1.5608426e-12 </wgt>
<wgt id='1689'> +1.5099553e-12 </wgt>
<wgt id='1690'> +1.5680527e-12 </wgt>
<wgt id='1691'> +1.6077555e-12 </wgt>
<wgt id='1692'> +1.5844050e-12 </wgt>
<wgt id='1693'> +1.5221396e-12 </wgt>
<wgt id='1694'> +1.6251366e-12 </wgt>
<wgt id='1695'> +1.5452707e-12 </wgt>
<wgt id='1696'> +1.5466964e-12 </wgt>
<wgt id='1697'> +1.5783009e-12 </wgt>
<wgt id='1698'> +1.5799967e-12 </wgt>
<wgt id='1699'> +1.5886573e-12 </wgt>
<wgt id='1700'> +1.6083175e-12 </wgt>
<wgt id='1701'> +1.5550275e-12 </wgt>
<wgt id='1702'> +1.6251620e-12 </wgt>
<wgt id='1703'> +1.5678146e-12 </wgt>
<wgt id='1704'> +1.6300016e-12 </wgt>
<wgt id='1705'> +1.4834518e-12 </wgt>
<wgt id='1706'> +1.6186357e-12 </wgt>
<wgt id='1707'> +1.5817852e-12 </wgt>
<wgt id='1708'> +1.5914377e-12 </wgt>
<wgt id='1709'> +1.6168008e-12 </wgt>
<wgt id='1710'> +1.5530262e-12 </wgt>
<wgt id='1711'> +1.6020294e-12 </wgt>
<wgt id='1712'> +1.6291333e-12 </wgt>
<wgt id='1713'> +1.3208920e-12 </wgt>
<wgt id='1714'> +1.2220410e-12 </wgt>
<wgt id='1715'> +1.2697388e-12 </wgt>
<wgt id='1716'> +1.3103961e-12 </wgt>
<wgt id='1717'> +1.3200494e-12 </wgt>
<wgt id='1718'> +1.3580225e-12 </wgt>
<wgt id='1719'> +1.2892730e-12 </wgt>
<wgt id='1720'> +1.3676935e-12 </wgt>
<wgt id='1721'> +1.3211857e-12 </wgt>
<wgt id='1722'> +1.3282313e-12 </wgt>
<wgt id='1723'> +1.3784636e-12 </wgt>
<wgt id='1724'> +1.2919161e-12 </wgt>
<wgt id='1725'> +1.3163785e-12 </wgt>
<wgt id='1726'> +1.3695792e-12 </wgt>
<wgt id='1727'> +1.3358089e-12 </wgt>
<wgt id='1728'> +1.3069129e-12 </wgt>
<wgt id='1729'> +1.3193169e-12 </wgt>
<wgt id='1730'> +1.3087929e-12 </wgt>
<wgt id='1731'> +1.2713944e-12 </wgt>
<wgt id='1732'> +1.3322584e-12 </wgt>
<wgt id='1733'> +1.3735033e-12 </wgt>
<wgt id='1734'> +1.3509080e-12 </wgt>
<wgt id='1735'> +1.3525856e-12 </wgt>
<wgt id='1736'> +1.3738352e-12 </wgt>
<wgt id='1737'> +1.4053934e-12 </wgt>
<wgt id='1738'> +1.3311427e-12 </wgt>
<wgt id='1739'> +1.3499858e-12 </wgt>
<wgt id='1740'> +1.2997731e-12 </wgt>
<wgt id='1741'> +1.3341727e-12 </wgt>
<wgt id='1742'> +1.3169816e-12 </wgt>
<wgt id='1743'> +1.3631663e-12 </wgt>
<wgt id='1744'> +1.3884391e-12 </wgt>
<wgt id='1745'> +1.3328457e-12 </wgt>
<wgt id='1746'> +1.3439531e-12 </wgt>
<wgt id='1747'> +1.3343349e-12 </wgt>
<wgt id='1748'> +1.3460297e-12 </wgt>
<wgt id='1749'> +1.3160233e-12 </wgt>
<wgt id='1750'> +1.3483745e-12 </wgt>
<wgt id='1751'> +1.3305769e-12 </wgt>
<wgt id='1752'> +1.2957101e-12 </wgt>
<wgt id='1753'> +1.3379444e-12 </wgt>
<wgt id='1754'> +1.2429020e-12 </wgt>
<wgt id='1755'> +1.3090195e-12 </wgt>
<wgt id='1756'> +1.3665763e-12 </wgt>
<wgt id='1757'> +1.3205336e-12 </wgt>
<wgt id='1758'> +1.3618139e-12 </wgt>
<wgt id='1759'> +1.2626343e-12 </wgt>
<wgt id='1760'> +1.2918881e-12 </wgt>
<wgt id='1761'> +1.3153230e-12 </wgt>
<wgt id='1762'> +1.3483484e-12 </wgt>
<wgt id='1763'> +1.3097319e-12 </wgt>
<wgt id='1764'> +1.3102968e-12 </wgt>
<wgt id='1765'> +1.3241479e-12 </wgt>
<wgt id='1766'> +1.3931036e-12 </wgt>
<wgt id='1767'> +1.3294764e-12 </wgt>
<wgt id='1768'> +1.3387909e-12 </wgt>
<wgt id='1769'> +1.2817673e-12 </wgt>
<wgt id='1770'> +1.2403068e-12 </wgt>
<wgt id='1771'> +1.3077801e-12 </wgt>
<wgt id='1772'> +1.3534696e-12 </wgt>
<wgt id='1773'> +1.3459710e-12 </wgt>
<wgt id='1774'> +1.3053936e-12 </wgt>
<wgt id='1775'> +1.3111413e-12 </wgt>
<wgt id='1776'> +1.3054566e-12 </wgt>
<wgt id='1777'> +1.2484363e-12 </wgt>
<wgt id='1778'> +1.3016598e-12 </wgt>
<wgt id='1779'> +1.3687829e-12 </wgt>
<wgt id='1780'> +1.3338987e-12 </wgt>
<wgt id='1781'> +1.3360105e-12 </wgt>
<wgt id='1782'> +1.3501170e-12 </wgt>
<wgt id='1783'> +1.3644875e-12 </wgt>
<wgt id='1784'> +1.3116687e-12 </wgt>
<wgt id='1785'> +1.3282501e-12 </wgt>
<wgt id='1786'> +1.2411104e-12 </wgt>
<wgt id='1787'> +1.3475250e-12 </wgt>
<wgt id='1788'> +1.2700820e-12 </wgt>
<wgt id='1789'> +1.3597098e-12 </wgt>
<wgt id='1790'> +1.3435973e-12 </wgt>
<wgt id='1791'> +1.3062972e-12 </wgt>
<wgt id='1792'> +1.2947273e-12 </wgt>
<wgt id='1793'> +1.3643834e-12 </wgt>
<wgt id='1794'> +1.3197965e-12 </wgt>
<wgt id='1795'> +1.3404858e-12 </wgt>
<wgt id='1796'> +1.2775007e-12 </wgt>
<wgt id='1797'> +1.3109243e-12 </wgt>
<wgt id='1798'> +1.3018225e-12 </wgt>
<wgt id='1799'> +1.2756659e-12 </wgt>
<wgt id='1800'> +1.2869433e-12 </wgt>
<wgt id='1801'> +1.2735460e-12 </wgt>
<wgt id='1802'> +1.2742433e-12 </wgt>
<wgt id='1803'> +1.3471804e-12 </wgt>
<wgt id='1804'> +1.3209201e-12 </wgt>
<wgt id='1805'> +1.3713314e-12 </wgt>
<wgt id='1806'> +1.3012885e-12 </wgt>
<wgt id='1807'> +1.2761168e-12 </wgt>
<wgt id='1808'> +1.3025601e-12 </wgt>
<wgt id='1809'> +1.3120964e-12 </wgt>
<wgt id='1810'> +1.3172922e-12 </wgt>
<wgt id='1811'> +1.3292096e-12 </wgt>
<wgt id='1812'> +1.2868378e-12 </wgt>
<wgt id='1813'> +1.2791147e-12 </wgt>
<wgt id='1814'> +1.6704458e-12 </wgt>
<wgt id='1815'> +1.9296053e-12 </wgt>
<wgt id='1816'> +1.3208920e-12 </wgt>
<wgt id='1817'> +1.2220410e-12 </wgt>
<wgt id='1818'> +1.2697388e-12 </wgt>
<wgt id='1819'> +1.3103961e-12 </wgt>
<wgt id='1820'> +1.3200494e-12 </wgt>
<wgt id='1821'> +1.3580225e-12 </wgt>
<wgt id='1822'> +1.2892730e-12 </wgt>
<wgt id='1823'> +1.3676935e-12 </wgt>
<wgt id='1824'> +1.3211857e-12 </wgt>
<wgt id='1825'> +1.3282313e-12 </wgt>
<wgt id='1826'> +1.3784636e-12 </wgt>
<wgt id='1827'> +1.2919161e-12 </wgt>
<wgt id='1828'> +1.3163785e-12 </wgt>
<wgt id='1829'> +1.3695792e-12 </wgt>
<wgt id='1830'> +1.3358089e-12 </wgt>
<wgt id='1831'> +1.3069129e-12 </wgt>
<wgt id='1832'> +1.3193169e-12 </wgt>
<wgt id='1833'> +1.3087929e-12 </wgt>
<wgt id='1834'> +1.2713944e-12 </wgt>
<wgt id='1835'> +1.3322584e-12 </wgt>
<wgt id='1836'> +1.3735033e-12 </wgt>
<wgt id='1837'> +1.3509080e-12 </wgt>
<wgt id='1838'> +1.3525856e-12 </wgt>
<wgt id='1839'> +1.3738352e-12 </wgt>
<wgt id='1840'> +1.4053934e-12 </wgt>
<wgt id='1841'> +1.3311427e-12 </wgt>
<wgt id='1842'> +1.3499858e-12 </wgt>
<wgt id='1843'> +1.2997731e-12 </wgt>
<wgt id='1844'> +1.3341727e-12 </wgt>
<wgt id='1845'> +1.3169816e-12 </wgt>
<wgt id='1846'> +1.3631663e-12 </wgt>
<wgt id='1847'> +1.3884391e-12 </wgt>
<wgt id='1848'> +1.3328457e-12 </wgt>
<wgt id='1849'> +1.3439531e-12 </wgt>
<wgt id='1850'> +1.3343349e-12 </wgt>
<wgt id='1851'> +1.3460297e-12 </wgt>
<wgt id='1852'> +1.3160233e-12 </wgt>
<wgt id='1853'> +1.3483745e-12 </wgt>
<wgt id='1854'> +1.3305769e-12 </wgt>
<wgt id='1855'> +1.2957101e-12 </wgt>
<wgt id='1856'> +1.3379444e-12 </wgt>
<wgt id='1857'> +1.2429020e-12 </wgt>
<wgt id='1858'> +1.3090195e-12 </wgt>
<wgt id='1859'> +1.3665763e-12 </wgt>
<wgt id='1860'> +1.3205336e-12 </wgt>
<wgt id='1861'> +1.3618139e-12 </wgt>
<wgt id='1862'> +1.2626343e-12 </wgt>
<wgt id='1863'> +1.2918881e-12 </wgt>
<wgt id='1864'> +1.3153230e-12 </wgt>
<wgt id='1865'> +1.3483484e-12 </wgt>
<wgt id='1866'> +1.3097319e-12 </wgt>
<wgt id='1867'> +1.3102968e-12 </wgt>
<wgt id='1868'> +1.3241479e-12 </wgt>
<wgt id='1869'> +1.3931036e-12 </wgt>
<wgt id='1870'> +1.3294764e-12 </wgt>
<wgt id='1871'> +1.3387909e-12 </wgt>
<wgt id='1872'> +1.2817673e-12 </wgt>
<wgt id='1873'> +1.2403068e-12 </wgt>
<wgt id='1874'> +1.3077801e-12 </wgt>
<wgt id='1875'> +1.3534696e-12 </wgt>
<wgt id='1876'> +1.3459710e-12 </wgt>
<wgt id='1877'> +1.3053936e-12 </wgt>
<wgt id='1878'> +1.3111413e-12 </wgt>
<wgt id='1879'> +1.3054566e-12 </wgt>
<wgt id='1880'> +1.2484363e-12 </wgt>
<wgt id='1881'> +1.3016598e-12 </wgt>
<wgt id='1882'> +1.3687829e-12 </wgt>
<wgt id='1883'> +1.3338987e-12 </wgt>
<wgt id='1884'> +1.3360105e-12 </wgt>
<wgt id='1885'> +1.3501170e-12 </wgt>
<wgt id='1886'> +1.3644875e-12 </wgt>
<wgt id='1887'> +1.3116687e-12 </wgt>
<wgt id='1888'> +1.3282501e-12 </wgt>
<wgt id='1889'> +1.2411104e-12 </wgt>
<wgt id='1890'> +1.3475250e-12 </wgt>
<wgt id='1891'> +1.2700820e-12 </wgt>
<wgt id='1892'> +1.3597098e-12 </wgt>
<wgt id='1893'> +1.3435973e-12 </wgt>
<wgt id='1894'> +1.3062972e-12 </wgt>
<wgt id='1895'> +1.2947273e-12 </wgt>
<wgt id='1896'> +1.3643834e-12 </wgt>
<wgt id='1897'> +1.3197965e-12 </wgt>
<wgt id='1898'> +1.3404858e-12 </wgt>
<wgt id='1899'> +1.2775007e-12 </wgt>
<wgt id='1900'> +1.3109243e-12 </wgt>
<wgt id='1901'> +1.3018225e-12 </wgt>
<wgt id='1902'> +1.2756659e-12 </wgt>
<wgt id='1903'> +1.2869433e-12 </wgt>
<wgt id='1904'> +1.2735460e-12 </wgt>
<wgt id='1905'> +1.2742433e-12 </wgt>
<wgt id='1906'> +1.3471804e-12 </wgt>
<wgt id='1907'> +1.3209201e-12 </wgt>
<wgt id='1908'> +1.3713314e-12 </wgt>
<wgt id='1909'> +1.3012885e-12 </wgt>
<wgt id='1910'> +1.2761168e-12 </wgt>
<wgt id='1911'> +1.3025601e-12 </wgt>
<wgt id='1912'> +1.3120964e-12 </wgt>
<wgt id='1913'> +1.3172922e-12 </wgt>
<wgt id='1914'> +1.3292096e-12 </wgt>
<wgt id='1915'> +1.2868378e-12 </wgt>
<wgt id='1916'> +1.2791147e-12 </wgt>
<wgt id='1917'> +1.3115942e-12 </wgt>
<wgt id='1918'> +1.3262827e-12 </wgt>
<wgt id='1919'> +1.2843766e-12 </wgt>
</rwgt>
</event>
<event>
 9      1 +1.5538000e-12 2.51103800e+01 7.81860800e-03 1.50519100e-01
        3 -1    0    0  502    0 -0.0000000000e+00 +0.0000000000e+00 +1.1789731933e+01 1.1789731933e+01 0.0000000000e+00 0.0000e+00 -1.0000e+00
       21 -1    0    0  501  502 +0.0000000000e+00 -0.0000000000e+00 -1.0111746350e+02 1.0111746350e+02 0.0000000000e+00 0.0000e+00 -1.0000e+00
     1023  2    1    2    0    0 +7.0897811701e+00 +1.8849008012e+01 -4.2363252828e+00 2.5465228829e+01 1.4999377564e+01 0.0000e+00 0.0000e+00
  1000023  2    3    3    0    0 +4.0215143303e+00 +2.5647599829e+00 +1.0722260504e+00 7.3607621827e+00 5.5027792913e+00 0.0000e+00 0.0000e+00
        3  1    1    2  501    0 -7.0897811701e+00 -1.8849008012e+01 -8.5091406286e+01 8.7441966605e+01 0.0000000000e+00 0.0000e+00 -1.0000e+00
  1000022  1    4    4    0    0 +4.0415670025e+00 +2.5549826921e+00 +9.4133965157e-01 6.9819997660e+00 5.0000000000e+00 0.0000e+00 -1.0000e+00
      -13  1    4    4    0    0 +8.7884858404e-02 -7.6320623891e-02 +1.3135292369e-01 2.0487719866e-01 1.0570000000e-01 0.0000e+00 -1.0000e+00
       13  1    4    4    0    0 -1.0793753057e-01 +8.6097914673e-02 -4.6652490450e-04 1.7388521807e-01 1.0570000000e-01 0.0000e+00 1.0000e+00
  1000022  1    3    3    0    0 +3.0682668398e+00 +1.6284248029e+01 -5.3085513332e+00 1.8104466646e+01 5.0000000000e+00 0.0000e+00 -1.0000e+00
<mgrwt>
<rscale>  1 0.25110385E+02</rscale>
<asrwt>0</asrwt>
<pdfrwt beam="1">  1       21 0.15556534E-01 0.25110385E+02</pdfrwt>
<pdfrwt beam="2">  1        3 0.18138048E-02 0.25110385E+02</pdfrwt>
<totfact> 0.21314752E+06</totfact>
</mgrwt>
<rwgt>
<wgt id='1001'> +1.5538000e-12 </wgt>
<wgt id='1002'> +1.5865067e-12 </wgt>
<wgt id='1003'> +1.5866155e-12 </wgt>
<wgt id='1004'> +1.5431447e-12 </wgt>
<wgt id='1005'> +1.5935235e-12 </wgt>
<wgt id='1006'> +1.3526943e-12 </wgt>
<wgt id='1007'> +1.4022375e-12 </wgt>
<wgt id='1008'> +1.4024483e-12 </wgt>
<wgt id='1009'> +1.3386626e-12 </wgt>
<wgt id='1010'> +1.4218498e-12 </wgt>
<wgt id='1011'> +1.8287642e-12 </wgt>
<wgt id='1012'> +1.8290490e-12 </wgt>
<wgt id='1013'> +1.8289726e-12 </wgt>
<wgt id='1014'> +1.8253105e-12 </wgt>
<wgt id='1015'> +1.8142857e-12 </wgt>
<wgt id='1016'> +1.8260718e-12 </wgt>
<wgt id='1017'> +1.8015293e-12 </wgt>
<wgt id='1018'> +1.8013363e-12 </wgt>
<wgt id='1019'> +1.8289726e-12 </wgt>
<wgt id='1020'> +1.7743886e-12 </wgt>
<wgt id='1021'> +1.5897265e-12 </wgt>
<wgt id='1022'> +1.5922858e-12 </wgt>
<wgt id='1023'> +1.5922452e-12 </wgt>
<wgt id='1024'> +1.5866155e-12 </wgt>
<wgt id='1025'> +1.5832299e-12 </wgt>
<wgt id='1026'> +2.1492179e-12 </wgt>
<wgt id='1027'> +2.0769439e-12 </wgt>
<wgt id='1028'> +2.0764922e-12 </wgt>
<wgt id='1029'> +2.1634025e-12 </wgt>
<wgt id='1030'> +2.0202073e-12 </wgt>
<wgt id='1031'> +1.2420991e-12 </wgt>
<wgt id='1032'> +1.3382142e-12 </wgt>
<wgt id='1033'> +1.3386626e-12 </wgt>
<wgt id='1034'> +1.2162729e-12 </wgt>
<wgt id='1035'> +1.3841588e-12 </wgt>
<wgt id='1036'> +1.0813364e-12 </wgt>
<wgt id='1037'> +1.1827837e-12 </wgt>
<wgt id='1038'> +1.1832767e-12 </wgt>
<wgt id='1039'> +1.0551046e-12 </wgt>
<wgt id='1040'> +1.2350404e-12 </wgt>
<wgt id='1041'> +1.4619040e-12 </wgt>
<wgt id='1042'> +1.5427980e-12 </wgt>
<wgt id='1043'> +1.5431447e-12 </wgt>
<wgt id='1044'> +1.4386698e-12 </wgt>
<wgt id='1045'> +1.5759162e-12 </wgt>
<wgt id='1046'> +1.5538000e-12 </wgt>
<wgt id='1047'> +1.4127279e-12 </wgt>
<wgt id='1048'> +1.5719503e-12 </wgt>
<wgt id='1049'> +1.5218895e-12 </wgt>
<wgt id='1050'> +1.5570243e-12 </wgt>
<wgt id='1051'> +1.5714132e-12 </wgt>
<wgt id='1052'> +1.4010594e-12 </wgt>
<wgt id='1053'> +1.5371910e-12 </wgt>
<wgt id='1054'> +1.6487095e-12 </wgt>
<wgt id='1055'> +1.5807906e-12 </wgt>
<wgt id='1056'> +1.4908538e-12 </wgt>
<wgt id='1057'> +1.5229990e-12 </wgt>
<wgt id='1058'> +1.5990501e-12 </wgt>
<wgt id='1059'> +1.6234946e-12 </wgt>
<wgt id='1060'> +1.4968979e-12 </wgt>
<wgt id='1061'> +1.6121785e-12 </wgt>
<wgt id='1062'> +1.6067465e-12 </wgt>
<wgt id='1063'> +1.2981184e-12 </wgt>
<wgt id='1064'> +1.6404411e-12 </wgt>
<wgt id='1065'> +1.6126036e-12 </wgt>
<wgt id='1066'> +1.6660460e-12 </wgt>
<wgt id='1067'> +1.5430677e-12 </wgt>
<wgt id='1068'> +1.5844540e-12 </wgt>
<wgt id='1069'> +1.5310334e-12 </wgt>
<wgt id='1070'> +1.6401752e-12 </wgt>
<wgt id='1071'> +1.6110509e-12 </wgt>
<wgt id='1072'> +1.5524650e-12 </wgt>
<wgt id='1073'> +1.2836853e-12 </wgt>
<wgt id='1074'> +1.5891044e-12 </wgt>
<wgt id='1075'> +1.4873683e-12 </wgt>
<wgt id='1076'> +1.3600053e-12 </wgt>
<wgt id='1077'> +1.4205520e-12 </wgt>
<wgt id='1078'> +1.5786813e-12 </wgt>
<wgt id='1079'> +1.5270307e-12 </wgt>
<wgt id='1080'> +1.6260658e-12 </wgt>
<wgt id='1081'> +1.5063543e-12 </wgt>
<wgt id='1082'> +1.5705672e-12 </wgt>
<wgt id='1083'> +1.6989271e-12 </wgt>
<wgt id='1084'> +1.4608606e-12 </wgt>
<wgt id='1085'> +1.6037837e-12 </wgt>
<wgt id='1086'> +1.5662917e-12 </wgt>
<wgt id='1087'> +1.5718586e-12 </wgt>
<wgt id='1088'> +1.5518694e-12 </wgt>
<wgt id='1089'> +1.4662843e-12 </wgt>
<wgt id='1090'> +1.4416146e-12 </wgt>
<wgt id='1091'> +1.7104494e-12 </wgt>
<wgt id='1092'> +1.5428479e-12 </wgt>
<wgt id='1093'> +1.5417231e-12 </wgt>
<wgt id='1094'> +1.5925368e-12 </wgt>
<wgt id='1095'> +1.4779218e-12 </wgt>
<wgt id='1096'> +1.4853948e-12 </wgt>
<wgt id='1097'> +1.5999197e-12 </wgt>
<wgt id='1098'> +1.5525253e-12 </wgt>
<wgt id='1099'> +1.4280347e-12 </wgt>
<wgt id='1100'> +1.5293305e-12 </wgt>
<wgt id='1101'> +1.6171045e-12 </wgt>
<wgt id='1102'> +1.6148621e-12 </wgt>
<wgt id='1103'> +1.5871416e-12 </wgt>
<wgt id='1104'> +1.6074107e-12 </wgt>
<wgt id='1105'> +1.4510212e-12 </wgt>
<wgt id='1106'> +1.5044484e-12 </wgt>
<wgt id='1107'> +1.4788173e-12 </wgt>
<wgt id='1108'> +1.6116145e-12 </wgt>
<wgt id='1109'> +1.5070336e-12 </wgt>
<wgt id='1110'> +1.6069111e-12 </wgt>
<wgt id='1111'> +1.5574712e-12 </wgt>
<wgt id='1112'> +1.5868451e-12 </wgt>
<wgt id='1113'> +1.6613723e-12 </wgt>
<wgt id='1114'> +1.4254764e-12 </wgt>
<wgt id='1115'> +1.5378099e-12 </wgt>
<wgt id='1116'> +1.5289102e-12 </wgt>
<wgt id='1117'> +1.4691257e-12 </wgt>
<wgt id='1118'> +1.7026464e-12 </wgt>
<wgt id='1119'> +1.6266697e-12 </wgt>
<wgt id='1120'> +1.6368188e-12 </wgt>
<wgt id='1121'> +1.5952427e-12 </wgt>
<wgt id='1122'> +1.4901006e-12 </wgt>
<wgt id='1123'> +1.5816844e-12 </wgt>
<wgt id='1124'> +1.5422001e-12 </wgt>
<wgt id='1125'> +1.5596274e-12 </wgt>
<wgt id='1126'> +1.3881729e-12 </wgt>
<wgt id='1127'> +1.5537933e-12 </wgt>
<wgt id='1128'> +1.6067465e-12 </wgt>
<wgt id='1129'> +1.5235489e-12 </wgt>
<wgt id='1130'> +1.6319955e-12 </wgt>
<wgt id='1131'> +1.5811406e-12 </wgt>
<wgt id='1132'> +1.5073253e-12 </wgt>
<wgt id='1133'> +1.7032464e-12 </wgt>
<wgt id='1134'> +1.3706698e-12 </wgt>
<wgt id='1135'> +1.6899763e-12 </wgt>
<wgt id='1136'> +1.5791455e-12 </wgt>
<wgt id='1137'> +1.6401330e-12 </wgt>
<wgt id='1138'> +1.6780981e-12 </wgt>
<wgt id='1139'> +1.6041126e-12 </wgt>
<wgt id='1140'> +1.5010931e-12 </wgt>
<wgt id='1141'> +1.7338591e-12 </wgt>
<wgt id='1142'> +1.5943051e-12 </wgt>
<wgt id='1143'> +1.4431114e-12 </wgt>
<wgt id='1144'> +1.4795273e-12 </wgt>
<wgt id='1145'> +1.6314347e-12 </wgt>
<wgt id='1146'> +1.6253363e-12 </wgt>
<wgt id='1147'> +1.2326946e-12 </wgt>
<wgt id='1148'> +1.2619605e-12 </wgt>
<wgt id='1149'> +1.1989371e-12 </wgt>
<wgt id='1150'> +1.1753666e-12 </wgt>
<wgt id='1151'> +9.9039640e-13 </wgt>
<wgt id='1152'> +1.2813184e-12 </wgt>
<wgt id='1153'> +1.2769197e-12 </wgt>
<wgt id='1154'> +1.2838701e-12 </wgt>
<wgt id='1155'> +1.2825973e-12 </wgt>
<wgt id='1156'> +1.2806986e-12 </wgt>
<wgt id='1157'> +1.2739348e-12 </wgt>
<wgt id='1158'> +1.2912412e-12 </wgt>
<wgt id='1159'> +1.2733570e-12 </wgt>
<wgt id='1160'> +1.2864566e-12 </wgt>
<wgt id='1161'> +1.2701675e-12 </wgt>
<wgt id='1162'> +1.2889564e-12 </wgt>
<wgt id='1163'> +1.2718350e-12 </wgt>
<wgt id='1164'> +1.2907313e-12 </wgt>
<wgt id='1165'> +1.2686181e-12 </wgt>
<wgt id='1166'> +1.2937593e-12 </wgt>
<wgt id='1167'> +1.3002029e-12 </wgt>
<wgt id='1168'> +1.2571075e-12 </wgt>
<wgt id='1169'> +1.2855510e-12 </wgt>
<wgt id='1170'> +1.2781409e-12 </wgt>
<wgt id='1171'> +1.2765030e-12 </wgt>
<wgt id='1172'> +1.2873297e-12 </wgt>
<wgt id='1173'> +1.2720987e-12 </wgt>
<wgt id='1174'> +1.2901685e-12 </wgt>
<wgt id='1175'> +1.2800479e-12 </wgt>
<wgt id='1176'> +1.2815905e-12 </wgt>
<wgt id='1177'> +1.2821443e-12 </wgt>
<wgt id='1178'> +1.2790840e-12 </wgt>
<wgt id='1179'> +1.2903886e-12 </wgt>
<wgt id='1180'> +1.2675552e-12 </wgt>
<wgt id='1181'> +1.2794149e-12 </wgt>
<wgt id='1182'> +1.2830701e-12 </wgt>
<wgt id='1183'> +1.2816698e-12 </wgt>
<wgt id='1184'> +1.2813173e-12 </wgt>
<wgt id='1185'> +1.3193590e-12 </wgt>
<wgt id='1186'> +1.2622113e-12 </wgt>
<wgt id='1187'> +1.2877486e-12 </wgt>
<wgt id='1188'> +1.2796578e-12 </wgt>
<wgt id='1189'> +1.2741005e-12 </wgt>
<wgt id='1190'> +1.2709588e-12 </wgt>
<wgt id='1191'> +1.2818420e-12 </wgt>
<wgt id='1192'> +1.2800979e-12 </wgt>
<wgt id='1193'> +1.1556439e-12 </wgt>
<wgt id='1194'> +1.1529428e-12 </wgt>
<wgt id='1195'> +1.1578320e-12 </wgt>
<wgt id='1196'> +1.1534646e-12 </wgt>
<wgt id='1197'> +1.1581441e-12 </wgt>
<wgt id='1198'> +1.1625805e-12 </wgt>
<wgt id='1199'> +1.1454092e-12 </wgt>
<wgt id='1200'> +1.1536794e-12 </wgt>
<wgt id='1201'> +1.1570012e-12 </wgt>
<wgt id='1202'> +1.1539549e-12 </wgt>
<wgt id='1203'> +1.1580699e-12 </wgt>
<wgt id='1204'> +1.1431418e-12 </wgt>
<wgt id='1205'> +1.1633873e-12 </wgt>
<wgt id='1206'> +1.1608845e-12 </wgt>
<wgt id='1207'> +1.1485271e-12 </wgt>
<wgt id='1208'> +1.1486642e-12 </wgt>
<wgt id='1209'> +1.1582334e-12 </wgt>
<wgt id='1210'> +1.1575109e-12 </wgt>
<wgt id='1211'> +1.1444457e-12 </wgt>
<wgt id='1212'> +1.1534839e-12 </wgt>
<wgt id='1213'> +1.1576896e-12 </wgt>
<wgt id='1214'> +1.1394492e-12 </wgt>
<wgt id='1215'> +1.1817994e-12 </wgt>
<wgt id='1216'> +1.1660937e-12 </wgt>
<wgt id='1217'> +1.1486647e-12 </wgt>
<wgt id='1218'> +1.1636895e-12 </wgt>
<wgt id='1219'> +1.1515481e-12 </wgt>
<wgt id='1220'> +1.1616832e-12 </wgt>
<wgt id='1221'> +1.1537422e-12 </wgt>
<wgt id='1222'> +1.1576190e-12 </wgt>
<wgt id='1223'> +1.1551195e-12 </wgt>
<wgt id='1224'> +1.1508380e-12 </wgt>
<wgt id='1225'> +1.1575622e-12 </wgt>
<wgt id='1226'> +1.1678167e-12 </wgt>
<wgt id='1227'> +1.1479779e-12 </wgt>
<wgt id='1228'> +1.1501602e-12 </wgt>
<wgt id='1229'> +1.1583308e-12 </wgt>
<wgt id='1230'> +1.1498478e-12 </wgt>
<wgt id='1231'> +1.1525146e-12 </wgt>
<wgt id='1232'> +1.1525951e-12 </wgt>
<wgt id='1233'> +1.1570767e-12 </wgt>
<wgt id='1234'> +1.1556439e-12 </wgt>
<wgt id='1235'> +1.1465515e-12 </wgt>
<wgt id='1236'> +1.1499436e-12 </wgt>
<wgt id='1237'> +1.1530319e-12 </wgt>
<wgt id='1238'> +1.1582447e-12 </wgt>
<wgt id='1239'> +1.1604091e-12 </wgt>
<wgt id='1240'> +1.1625078e-12 </wgt>
<wgt id='1241'> +1.1865419e-12 </wgt>
<wgt id='1242'> +1.1803652e-12 </wgt>
<wgt id='1243'> +1.1926945e-12 </wgt>
<wgt id='1244'> +1.1821035e-12 </wgt>
<wgt id='1245'> +1.1898451e-12 </wgt>
<wgt id='1246'> +1.1886812e-12 </wgt>
<wgt id='1247'> +1.1847679e-12 </wgt>
<wgt id='1248'> +1.1871626e-12 </wgt>
<wgt id='1249'> +1.1856267e-12 </wgt>
<wgt id='1250'> +1.1750040e-12 </wgt>
<wgt id='1251'> +1.1947156e-12 </wgt>
<wgt id='1252'> +1.1810218e-12 </wgt>
<wgt id='1253'> +1.1908882e-12 </wgt>
<wgt id='1254'> +1.1768254e-12 </wgt>
<wgt id='1255'> +1.1924039e-12 </wgt>
<wgt id='1256'> +1.1910104e-12 </wgt>
<wgt id='1257'> +1.1753422e-12 </wgt>
<wgt id='1258'> +1.2088945e-12 </wgt>
<wgt id='1259'> +1.1657585e-12 </wgt>
<wgt id='1260'> +1.1928784e-12 </wgt>
<wgt id='1261'> +1.1792536e-12 </wgt>
<wgt id='1262'> +1.1907771e-12 </wgt>
<wgt id='1263'> +1.1846285e-12 </wgt>
<wgt id='1264'> +1.1973550e-12 </wgt>
<wgt id='1265'> +1.1813766e-12 </wgt>
<wgt id='1266'> +1.1813265e-12 </wgt>
<wgt id='1267'> +1.1923761e-12 </wgt>
<wgt id='1268'> +1.1864419e-12 </wgt>
<wgt id='1269'> +1.1909022e-12 </wgt>
<wgt id='1270'> +1.1808005e-12 </wgt>
<wgt id='1271'> +1.1789730e-12 </wgt>
<wgt id='1272'> +1.1885272e-12 </wgt>
<wgt id='1273'> +1.1853433e-12 </wgt>
<wgt id='1274'> +1.1784012e-12 </wgt>
<wgt id='1275'> +1.1985956e-12 </wgt>
<wgt id='1276'> +1.1900679e-12 </wgt>
<wgt id='1277'> +1.1822904e-12 </wgt>
<wgt id='1278'> +1.1893149e-12 </wgt>
<wgt id='1279'> +1.1817153e-12 </wgt>
<wgt id='1280'> +1.1895572e-12 </wgt>
<wgt id='1281'> +1.1746801e-12 </wgt>
<wgt id='1282'> +1.1865419e-12 </wgt>
<wgt id='1283'> +1.1757342e-12 </wgt>
<wgt id='1284'> +1.1799737e-12 </wgt>
<wgt id='1285'> +1.1835617e-12 </wgt>
<wgt id='1286'> +1.1897017e-12 </wgt>
<wgt id='1287'> +1.1922588e-12 </wgt>
<wgt id='1288'> +1.1944134e-12 </wgt>
<wgt id='1289'> +1.2565627e-12 </wgt>
<wgt id='1290'> +1.2585672e-12 </wgt>
<wgt id='1291'> +1.2543922e-12 </wgt>
<wgt id='1292'> +1.2579228e-12 </wgt>
<wgt id='1293'> +1.2555610e-12 </wgt>
<wgt id='1294'> +1.2551121e-12 </wgt>
<wgt id='1295'> +1.2578990e-12 </wgt>
<wgt id='1296'> +1.2499214e-12 </wgt>
<wgt id='1297'> +1.2647870e-12 </wgt>
<wgt id='1298'> +1.2605583e-12 </wgt>
<wgt id='1299'> +1.2517196e-12 </wgt>
<wgt id='1300'> +1.2576785e-12 </wgt>
<wgt id='1301'> +1.2544726e-12 </wgt>
<wgt id='1302'> +1.2530458e-12 </wgt>
<wgt id='1303'> +1.2614086e-12 </wgt>
<wgt id='1304'> +1.2480499e-12 </wgt>
<wgt id='1305'> +1.2624275e-12 </wgt>
<wgt id='1306'> +1.2377431e-12 </wgt>
<wgt id='1307'> +1.2776636e-12 </wgt>
<wgt id='1308'> +1.1898866e-12 </wgt>
<wgt id='1309'> +1.3074401e-12 </wgt>
<wgt id='1310'> +1.2555650e-12 </wgt>
<wgt id='1311'> +1.2577655e-12 </wgt>
<wgt id='1312'> +1.2515426e-12 </wgt>
<wgt id='1313'> +1.2618293e-12 </wgt>
<wgt id='1314'> +1.2584117e-12 </wgt>
<wgt id='1315'> +1.2484152e-12 </wgt>
<wgt id='1316'> +1.2575148e-12 </wgt>
<wgt id='1317'> +1.2615482e-12 </wgt>
<wgt id='1318'> +1.2744548e-12 </wgt>
<wgt id='1319'> +1.2359037e-12 </wgt>
<wgt id='1320'> +1.2743452e-12 </wgt>
<wgt id='1321'> +1.2422215e-12 </wgt>
<wgt id='1322'> +1.2628557e-12 </wgt>
<wgt id='1323'> +1.2481196e-12 </wgt>
<wgt id='1324'> +1.2581371e-12 </wgt>
<wgt id='1325'> +1.2572984e-12 </wgt>
<wgt id='1326'> +1.2685100e-12 </wgt>
<wgt id='1327'> +1.2492643e-12 </wgt>
<wgt id='1328'> +1.2509512e-12 </wgt>
<wgt id='1329'> +1.2619224e-12 </wgt>
<wgt id='1330'> +1.3659758e-12 </wgt>
<wgt id='1331'> +1.1637682e-12 </wgt>
<wgt id='1332'> +1.2068162e-12 </wgt>
<wgt id='1333'> +1.3124174e-12 </wgt>
<wgt id='1334'> +1.2762641e-12 </wgt>
<wgt id='1335'> +1.2092999e-12 </wgt>
<wgt id='1336'> +1.2416123e-12 </wgt>
<wgt id='1337'> +1.2729758e-12 </wgt>
<wgt id='1338'> +1.2483533e-12 </wgt>
<wgt id='1339'> +1.2606769e-12 </wgt>
<wgt id='1340'> +1.2330842e-12 </wgt>
<wgt id='1341'> +1.2351546e-12 </wgt>
<wgt id='1342'> +1.2308757e-12 </wgt>
<wgt id='1343'> +1.2346593e-12 </wgt>
<wgt id='1344'> +1.2320236e-12 </wgt>
<wgt id='1345'> +1.2315628e-12 </wgt>
<wgt id='1346'> +1.2344888e-12 </wgt>
<wgt id='1347'> +1.2266787e-12 </wgt>
<wgt id='1348'> +1.2402604e-12 </wgt>
<wgt id='1349'> +1.2373700e-12 </wgt>
<wgt id='1350'> +1.2289308e-12 </wgt>
<wgt id='1351'> +1.2336797e-12 </wgt>
<wgt id='1352'> +1.2319727e-12 </wgt>
<wgt id='1353'> +1.2277776e-12 </wgt>
<wgt id='1354'> +1.2424843e-12 </wgt>
<wgt id='1355'> +1.2241456e-12 </wgt>
<wgt id='1356'> +1.2381726e-12 </wgt>
<wgt id='1357'> +1.1942581e-12 </wgt>
<wgt id='1358'> +1.2784921e-12 </wgt>
<wgt id='1359'> +1.1708394e-12 </wgt>
<wgt id='1360'> +1.2869253e-12 </wgt>
<wgt id='1361'> +1.2316127e-12 </wgt>
<wgt id='1362'> +1.2352105e-12 </wgt>
<wgt id='1363'> +1.2266679e-12 </wgt>
<wgt id='1364'> +1.2378712e-12 </wgt>
<wgt id='1365'> +1.2239532e-12 </wgt>
<wgt id='1366'> +1.2356003e-12 </wgt>
<wgt id='1367'> +1.2346542e-12 </wgt>
<wgt id='1368'> +1.2362318e-12 </wgt>
<wgt id='1369'> +1.2461364e-12 </wgt>
<wgt id='1370'> +1.2177515e-12 </wgt>
<wgt id='1371'> +1.2495869e-12 </wgt>
<wgt id='1372'> +1.2141786e-12 </wgt>
<wgt id='1373'> +1.2385822e-12 </wgt>
<wgt id='1374'> +1.2273761e-12 </wgt>
<wgt id='1375'> +1.2337638e-12 </wgt>
<wgt id='1376'> +1.2354581e-12 </wgt>
<wgt id='1377'> +1.2429243e-12 </wgt>
<wgt id='1378'> +1.2281303e-12 </wgt>
<wgt id='1379'> +1.2291123e-12 </wgt>
<wgt id='1380'> +1.2375217e-12 </wgt>
<wgt id='1381'> +1.3496158e-12 </wgt>
<wgt id='1382'> +1.1408834e-12 </wgt>
<wgt id='1383'> +1.1723622e-12 </wgt>
<wgt id='1384'> +1.3035135e-12 </wgt>
<wgt id='1385'> +1.2548015e-12 </wgt>
<wgt id='1386'> +1.1832727e-12 </wgt>
<wgt id='1387'> +1.2135470e-12 </wgt>
<wgt id='1388'> +1.2537344e-12 </wgt>
<wgt id='1389'> +1.2218441e-12 </wgt>
<wgt id='1390'> +1.2384685e-12 </wgt>
<wgt id='1391'> +1.2161867e-12 </wgt>
<wgt id='1392'> +1.1789979e-12 </wgt>
<wgt id='1393'> +1.1944475e-12 </wgt>
<wgt id='1394'> +1.2068911e-12 </wgt>
<wgt id='1395'> +1.2351009e-12 </wgt>
<wgt id='1396'> +1.2200005e-12 </wgt>
<wgt id='1397'> +1.1759530e-12 </wgt>
<wgt id='1398'> +1.1828387e-12 </wgt>
<wgt id='1399'> +1.1896648e-12 </wgt>
<wgt id='1400'> +1.1991486e-12 </wgt>
<wgt id='1401'> +1.2087202e-12 </wgt>
<wgt id='1402'> +1.2343304e-12 </wgt>
<wgt id='1403'> +1.2473534e-12 </wgt>
<wgt id='1404'> +1.2618275e-12 </wgt>
<wgt id='1405'> +1.2200005e-12 </wgt>
<wgt id='1406'> +1.2080169e-12 </wgt>
<wgt id='1407'> +1.2139802e-12 </wgt>
<wgt id='1408'> +1.2249936e-12 </wgt>
<wgt id='1409'> +1.2320163e-12 </wgt>
<wgt id='1410'> +1.2611302e-12 </wgt>
<wgt id='1411'> +1.2626346e-12 </wgt>
<wgt id='1412'> +1.2592260e-12 </wgt>
<wgt id='1413'> +1.2642075e-12 </wgt>
<wgt id='1414'> +1.2581048e-12 </wgt>
<wgt id='1415'> +1.2639547e-12 </wgt>
<wgt id='1416'> +1.2600099e-12 </wgt>
<wgt id='1417'> +1.2504626e-12 </wgt>
<wgt id='1418'> +1.2718988e-12 </wgt>
<wgt id='1419'> +1.2630554e-12 </wgt>
<wgt id='1420'> +1.2593113e-12 </wgt>
<wgt id='1421'> +1.2550586e-12 </wgt>
<wgt id='1422'> +1.2640209e-12 </wgt>
<wgt id='1423'> +1.2621244e-12 </wgt>
<wgt id='1424'> +1.2599539e-12 </wgt>
<wgt id='1425'> +1.2513603e-12 </wgt>
<wgt id='1426'> +1.2716704e-12 </wgt>
<wgt id='1427'> +1.1984328e-12 </wgt>
<wgt id='1428'> +1.2957065e-12 </wgt>
<wgt id='1429'> +1.2932268e-12 </wgt>
<wgt id='1430'> +1.2185197e-12 </wgt>
<wgt id='1431'> +1.2175425e-12 </wgt>
<wgt id='1432'> +1.2917341e-12 </wgt>
<wgt id='1433'> +1.2756149e-12 </wgt>
<wgt id='1434'> +1.2460573e-12 </wgt>
<wgt id='1435'> +1.2656668e-12 </wgt>
<wgt id='1436'> +1.2502460e-12 </wgt>
<wgt id='1437'> +1.2660998e-12 </wgt>
<wgt id='1438'> +1.2618840e-12 </wgt>
<wgt id='1439'> +1.2513097e-12 </wgt>
<wgt id='1440'> +1.2855230e-12 </wgt>
<wgt id='1441'> +1.2663866e-12 </wgt>
<wgt id='1442'> +1.2510248e-12 </wgt>
<wgt id='1443'> +1.2566244e-12 </wgt>
<wgt id='1444'> +1.2713675e-12 </wgt>
<wgt id='1445'> +1.2609323e-12 </wgt>
<wgt id='1446'> +1.2626721e-12 </wgt>
<wgt id='1447'> +1.2627322e-12 </wgt>
<wgt id='1448'> +1.2612926e-12 </wgt>
<wgt id='1449'> +1.2562635e-12 </wgt>
<wgt id='1450'> +1.2646151e-12 </wgt>
<wgt id='1451'> +1.1959117e-12 </wgt>
<wgt id='1452'> +1.3864031e-12 </wgt>
<wgt id='1453'> +1.2543396e-12 </wgt>
<wgt id='1454'> +1.3026392e-12 </wgt>
<wgt id='1455'> +1.3154406e-12 </wgt>
<wgt id='1456'> +1.2174254e-12 </wgt>
<wgt id='1457'> +1.2245036e-12 </wgt>
<wgt id='1458'> +1.2764380e-12 </wgt>
<wgt id='1459'> +1.2389901e-12 </wgt>
<wgt id='1460'> +1.2777741e-12 </wgt>
<wgt id='1461'> +1.2611302e-12 </wgt>
<wgt id='1462'> +1.2407973e-12 </wgt>
<wgt id='1463'> +1.2609855e-12 </wgt>
<wgt id='1464'> +1.2510230e-12 </wgt>
<wgt id='1465'> +1.2003855e-12 </wgt>
<wgt id='1466'> +1.2077305e-12 </wgt>
<wgt id='1467'> +1.2171491e-12 </wgt>
<wgt id='1468'> +1.2293074e-12 </wgt>
<wgt id='1469'> +1.2396776e-12 </wgt>
<wgt id='1470'> +1.2630073e-12 </wgt>
<wgt id='1471'> +1.2774138e-12 </wgt>
<wgt id='1472'> +1.2906347e-12 </wgt>
<wgt id='1473'> +1.2510230e-12 </wgt>
<wgt id='1474'> +1.2396313e-12 </wgt>
<wgt id='1475'> +1.2467614e-12 </wgt>
<wgt id='1476'> +1.2561373e-12 </wgt>
<wgt id='1477'> +1.2600429e-12 </wgt>
<wgt id='1478'> +1.1750837e-12 </wgt>
<wgt id='1479'> +1.1750474e-12 </wgt>
<wgt id='1480'> +1.1172379e-12 </wgt>
<wgt id='1481'> +1.1581148e-12 </wgt>
<wgt id='1482'> +1.1814921e-12 </wgt>
<wgt id='1483'> +1.2200225e-12 </wgt>
<wgt id='1484'> +1.1643897e-12 </wgt>
<wgt id='1485'> +1.1904729e-12 </wgt>
<wgt id='1486'> +1.1708786e-12 </wgt>
<wgt id='1487'> +1.1793947e-12 </wgt>
<wgt id='1488'> +1.1744188e-12 </wgt>
<wgt id='1489'> +1.1771895e-12 </wgt>
<wgt id='1490'> +1.1719069e-12 </wgt>
<wgt id='1491'> +1.1945387e-12 </wgt>
<wgt id='1492'> +1.1705808e-12 </wgt>
<wgt id='1493'> +1.1763136e-12 </wgt>
<wgt id='1494'> +1.0907808e-12 </wgt>
<wgt id='1495'> +1.1733801e-12 </wgt>
<wgt id='1496'> +1.1825619e-12 </wgt>
<wgt id='1497'> +1.1819584e-12 </wgt>
<wgt id='1498'> +1.1797359e-12 </wgt>
<wgt id='1499'> +1.1778688e-12 </wgt>
<wgt id='1500'> +1.1715840e-12 </wgt>
<wgt id='1501'> +1.1780539e-12 </wgt>
<wgt id='1502'> +1.1816914e-12 </wgt>
<wgt id='1503'> +1.1688947e-12 </wgt>
<wgt id='1504'> +1.1768689e-12 </wgt>
<wgt id='1505'> +1.1804062e-12 </wgt>
<wgt id='1506'> +1.1800777e-12 </wgt>
<wgt id='1507'> +1.1725335e-12 </wgt>
<wgt id='1508'> +1.1769777e-12 </wgt>
<wgt id='1509'> +1.2646610e-12 </wgt>
<wgt id='1510'> +1.2690107e-12 </wgt>
<wgt id='1511'> +1.2636901e-12 </wgt>
<wgt id='1512'> +1.2673316e-12 </wgt>
<wgt id='1513'> +1.2191871e-12 </wgt>
<wgt id='1514'> +1.2700775e-12 </wgt>
<wgt id='1515'> +1.2869914e-12 </wgt>
<wgt id='1516'> +1.2643764e-12 </wgt>
<wgt id='1517'> +1.2820150e-12 </wgt>
<wgt id='1518'> +1.2347361e-12 </wgt>
<wgt id='1519'> +1.2921365e-12 </wgt>
<wgt id='1520'> +1.2828099e-12 </wgt>
<wgt id='1521'> +1.2503756e-12 </wgt>
<wgt id='1522'> +1.2700450e-12 </wgt>
<wgt id='1523'> +1.2451313e-12 </wgt>
<wgt id='1524'> +1.2556823e-12 </wgt>
<wgt id='1525'> +1.2489888e-12 </wgt>
<wgt id='1526'> +1.2715357e-12 </wgt>
<wgt id='1527'> +1.2729053e-12 </wgt>
<wgt id='1528'> +1.2679654e-12 </wgt>
<wgt id='1529'> +1.2700253e-12 </wgt>
<wgt id='1530'> +1.2614501e-12 </wgt>
<wgt id='1531'> +1.2664812e-12 </wgt>
<wgt id='1532'> +1.2666397e-12 </wgt>
<wgt id='1533'> +1.2696374e-12 </wgt>
<wgt id='1534'> +1.2666009e-12 </wgt>
<wgt id='1535'> +1.2587818e-12 </wgt>
<wgt id='1536'> +1.2655774e-12 </wgt>
<wgt id='1537'> +1.2642916e-12 </wgt>
<wgt id='1538'> +1.2645558e-12 </wgt>
<wgt id='1539'> +1.2677978e-12 </wgt>
<wgt id='1540'> +1.2675084e-12 </wgt>
<wgt id='1541'> +1.2662381e-12 </wgt>
<wgt id='1542'> +1.2675995e-12 </wgt>
<wgt id='1543'> +1.2689225e-12 </wgt>
<wgt id='1544'> +1.2641835e-12 </wgt>
<wgt id='1545'> +1.2607526e-12 </wgt>
<wgt id='1546'> +1.2655935e-12 </wgt>
<wgt id='1547'> +1.2638525e-12 </wgt>
<wgt id='1548'> +1.2634148e-12 </wgt>
<wgt id='1549'> +1.2658384e-12 </wgt>
<wgt id='1550'> +1.2648765e-12 </wgt>
<wgt id='1551'> +1.2621625e-12 </wgt>
<wgt id='1552'> +1.2610424e-12 </wgt>
<wgt id='1553'> +1.2635176e-12 </wgt>
<wgt id='1554'> +1.2656249e-12 </wgt>
<wgt id='1555'> +1.2639351e-12 </wgt>
<wgt id='1556'> +1.2632252e-12 </wgt>
<wgt id='1557'> +1.2645891e-12 </wgt>
<wgt id='1558'> +1.2665108e-12 </wgt>
<wgt id='1559'> +1.2641343e-12 </wgt>
<wgt id='1560'> +1.2664803e-12 </wgt>
<wgt id='1561'> +1.2641080e-12 </wgt>
<wgt id='1562'> +1.2639528e-12 </wgt>
<wgt id='1563'> +1.2646031e-12 </wgt>
<wgt id='1564'> +1.2634747e-12 </wgt>
<wgt id='1565'> +1.2661637e-12 </wgt>
<wgt id='1566'> +1.2634068e-12 </wgt>
<wgt id='1567'> +1.2650823e-12 </wgt>
<wgt id='1568'> +1.2630809e-12 </wgt>
<wgt id='1569'> +1.2658832e-12 </wgt>
<wgt id='1570'> +1.2665159e-12 </wgt>
<wgt id='1571'> +1.2644289e-12 </wgt>
<wgt id='1572'> +1.2650406e-12 </wgt>
<wgt id='1573'> +1.2640047e-12 </wgt>
<wgt id='1574'> +1.2648973e-12 </wgt>
<wgt id='1575'> +1.2643926e-12 </wgt>
<wgt id='1576'> +1.2639064e-12 </wgt>
<wgt id='1577'> +1.2644336e-12 </wgt>
<wgt id='1578'> +1.2651189e-12 </wgt>
<wgt id='1579'> +1.2653810e-12 </wgt>
<wgt id='1580'> +1.2651172e-12 </wgt>
<wgt id='1581'> +1.2634035e-12 </wgt>
<wgt id='1582'> +1.2643819e-12 </wgt>
<wgt id='1583'> +1.2642959e-12 </wgt>
<wgt id='1584'> +1.2645130e-12 </wgt>
<wgt id='1585'> +1.2635879e-12 </wgt>
<wgt id='1586'> +1.2640046e-12 </wgt>
<wgt id='1587'> +1.2648315e-12 </wgt>
<wgt id='1588'> +1.2654388e-12 </wgt>
<wgt id='1589'> +1.2645570e-12 </wgt>
<wgt id='1590'> +1.2644164e-12 </wgt>
<wgt id='1591'> +1.2642031e-12 </wgt>
<wgt id='1592'> +1.2641349e-12 </wgt>
<wgt id='1593'> +1.2648479e-12 </wgt>
<wgt id='1594'> +1.2640223e-12 </wgt>
<wgt id='1595'> +1.2641465e-12 </wgt>
<wgt id='1596'> +1.2638570e-12 </wgt>
<wgt id='1597'> +1.2643658e-12 </wgt>
<wgt id='1598'> +1.2641222e-12 </wgt>
<wgt id='1599'> +1.2643342e-12 </wgt>
<wgt id='1600'> +1.2645037e-12 </wgt>
<wgt id='1601'> +1.2649134e-12 </wgt>
<wgt id='1602'> +1.2647276e-12 </wgt>
<wgt id='1603'> +1.2641570e-12 </wgt>
<wgt id='1604'> +1.2645471e-12 </wgt>
<wgt id='1605'> +1.2647243e-12 </wgt>
<wgt id='1606'> +1.2647414e-12 </wgt>
<wgt id='1607'> +1.2647363e-12 </wgt>
<wgt id='1608'> +1.2644529e-12 </wgt>
<wgt id='1609'> +1.2645233e-12 </wgt>
<wgt id='1610'> +1.2328566e-12 </wgt>
<wgt id='1611'> +1.2778825e-12 </wgt>
<wgt id='1612'> +1.4606342e-12 </wgt>
<wgt id='1613'> +1.3580049e-12 </wgt>
<wgt id='1614'> +1.4113184e-12 </wgt>
<wgt id='1615'> +1.4756952e-12 </wgt>
<wgt id='1616'> +1.2491532e-12 </wgt>
<wgt id='1617'> +1.3508405e-12 </wgt>
<wgt id='1618'> +1.3620447e-12 </wgt>
<wgt id='1619'> +1.3387818e-12 </wgt>
<wgt id='1620'> +1.4638091e-12 </wgt>
<wgt id='1621'> +1.4656366e-12 </wgt>
<wgt id='1622'> +1.4884351e-12 </wgt>
<wgt id='1623'> +1.4875763e-12 </wgt>
<wgt id='1624'> +1.4879639e-12 </wgt>
<wgt id='1625'> +1.5647487e-12 </wgt>
<wgt id='1626'> +1.5313571e-12 </wgt>
<wgt id='1627'> +1.5149087e-12 </wgt>
<wgt id='1628'> +1.3578869e-12 </wgt>
<wgt id='1629'> +1.4292524e-12 </wgt>
<wgt id='1630'> +1.4665417e-12 </wgt>
<wgt id='1631'> +1.5002007e-12 </wgt>
<wgt id='1632'> +1.5708748e-12 </wgt>
<wgt id='1633'> +1.5029564e-12 </wgt>
<wgt id='1634'> +1.4505541e-12 </wgt>
<wgt id='1635'> +1.4654959e-12 </wgt>
<wgt id='1636'> +1.3384034e-12 </wgt>
<wgt id='1637'> +1.4817009e-12 </wgt>
<wgt id='1638'> +1.5080346e-12 </wgt>
<wgt id='1639'> +1.4234295e-12 </wgt>
<wgt id='1640'> +1.5232850e-12 </wgt>
<wgt id='1641'> +1.4862099e-12 </wgt>
<wgt id='1642'> +1.5128847e-12 </wgt>
<wgt id='1643'> +1.3089183e-12 </wgt>
<wgt id='1644'> +1.7014608e-12 </wgt>
<wgt id='1645'> +1.4854225e-12 </wgt>
<wgt id='1646'> +1.5123759e-12 </wgt>
<wgt id='1647'> +1.5064131e-12 </wgt>
<wgt id='1648'> +1.3483502e-12 </wgt>
<wgt id='1649'> +1.2540697e-12 </wgt>
<wgt id='1650'> +1.4621669e-12 </wgt>
<wgt id='1651'> +1.4866443e-12 </wgt>
<wgt id='1652'> +1.5268266e-12 </wgt>
<wgt id='1653'> +1.3675892e-12 </wgt>
<wgt id='1654'> +1.4812789e-12 </wgt>
<wgt id='1655'> +1.4752457e-12 </wgt>
<wgt id='1656'> +1.5756480e-12 </wgt>
<wgt id='1657'> +1.4207396e-12 </wgt>
<wgt id='1658'> +1.5270472e-12 </wgt>
<wgt id='1659'> +1.4879639e-12 </wgt>
<wgt id='1660'> +1.4128308e-12 </wgt>
<wgt id='1661'> +1.5928055e-12 </wgt>
<wgt id='1662'> +1.4522511e-12 </wgt>
<wgt id='1663'> +1.5386026e-12 </wgt>
<wgt id='1664'> +1.5204619e-12 </wgt>
<wgt id='1665'> +1.5975622e-12 </wgt>
<wgt id='1666'> +1.4470432e-12 </wgt>
<wgt id='1667'> +1.4784222e-12 </wgt>
<wgt id='1668'> +1.3791013e-12 </wgt>
<wgt id='1669'> +1.7111254e-12 </wgt>
<wgt id='1670'> +1.4290939e-12 </wgt>
<wgt id='1671'> +1.5811756e-12 </wgt>
<wgt id='1672'> +1.5667561e-12 </wgt>
<wgt id='1673'> +1.4918182e-12 </wgt>
<wgt id='1674'> +1.4098142e-12 </wgt>
<wgt id='1675'> +1.4420483e-12 </wgt>
<wgt id='1676'> +1.4491058e-12 </wgt>
<wgt id='1677'> +1.3168654e-12 </wgt>
<wgt id='1678'> +1.4609376e-12 </wgt>
<wgt id='1679'> +1.4383941e-12 </wgt>
<wgt id='1680'> +1.3357659e-12 </wgt>
<wgt id='1681'> +1.5061202e-12 </wgt>
<wgt id='1682'> +1.4805503e-12 </wgt>
<wgt id='1683'> +1.4912761e-12 </wgt>
<wgt id='1684'> +1.5881899e-12 </wgt>
<wgt id='1685'> +1.5217352e-12 </wgt>
<wgt id='1686'> +1.4850333e-12 </wgt>
<wgt id='1687'> +1.3771465e-12 </wgt>
<wgt id='1688'> +1.4009930e-12 </wgt>
<wgt id='1689'> +1.5011590e-12 </wgt>
<wgt id='1690'> +1.5073693e-12 </wgt>
<wgt id='1691'> +1.3612773e-12 </wgt>
<wgt id='1692'> +1.4347370e-12 </wgt>
<wgt id='1693'> +1.4144334e-12 </wgt>
<wgt id='1694'> +1.6116810e-12 </wgt>
<wgt id='1695'> +1.4500192e-12 </wgt>
<wgt id='1696'> +1.4502599e-12 </wgt>
<wgt id='1697'> +1.3001773e-12 </wgt>
<wgt id='1698'> +1.5047597e-12 </wgt>
<wgt id='1699'> +1.3525588e-12 </wgt>
<wgt id='1700'> +1.4820812e-12 </wgt>
<wgt id='1701'> +1.3601111e-12 </wgt>
<wgt id='1702'> +1.3927852e-12 </wgt>
<wgt id='1703'> +1.3662564e-12 </wgt>
<wgt id='1704'> +1.5015772e-12 </wgt>
<wgt id='1705'> +1.5364049e-12 </wgt>
<wgt id='1706'> +1.3991770e-12 </wgt>
<wgt id='1707'> +1.4258698e-12 </wgt>
<wgt id='1708'> +1.4818654e-12 </wgt>
<wgt id='1709'> +1.4722310e-12 </wgt>
<wgt id='1710'> +1.4542956e-12 </wgt>
<wgt id='1711'> +1.3958710e-12 </wgt>
<wgt id='1712'> +1.4620930e-12 </wgt>
<wgt id='1713'> +1.1804920e-12 </wgt>
<wgt id='1714'> +1.1407520e-12 </wgt>
<wgt id='1715'> +1.0484213e-12 </wgt>
<wgt id='1716'> +1.0366874e-12 </wgt>
<wgt id='1717'> +1.1097865e-12 </wgt>
<wgt id='1718'> +1.1452796e-12 </wgt>
<wgt id='1719'> +1.2106830e-12 </wgt>
<wgt id='1720'> +1.2005027e-12 </wgt>
<wgt id='1721'> +1.1549177e-12 </wgt>
<wgt id='1722'> +1.1877398e-12 </wgt>
<wgt id='1723'> +1.3284753e-12 </wgt>
<wgt id='1724'> +1.7129818e-12 </wgt>
<wgt id='1725'> +1.1438602e-12 </wgt>
<wgt id='1726'> +9.8454452e-13 </wgt>
<wgt id='1727'> +1.2486600e-12 </wgt>
<wgt id='1728'> +1.2048564e-12 </wgt>
<wgt id='1729'> +1.2274447e-12 </wgt>
<wgt id='1730'> +1.2085773e-12 </wgt>
<wgt id='1731'> +1.1914090e-12 </wgt>
<wgt id='1732'> +1.1599106e-12 </wgt>
<wgt id='1733'> +1.0635732e-12 </wgt>
<wgt id='1734'> +1.1073589e-12 </wgt>
<wgt id='1735'> +1.3579864e-12 </wgt>
<wgt id='1736'> +1.2359176e-12 </wgt>
<wgt id='1737'> +1.0920541e-12 </wgt>
<wgt id='1738'> +1.1468093e-12 </wgt>
<wgt id='1739'> +1.1603807e-12 </wgt>
<wgt id='1740'> +1.1226942e-12 </wgt>
<wgt id='1741'> +1.2081856e-12 </wgt>
<wgt id='1742'> +1.0393501e-12 </wgt>
<wgt id='1743'> +1.0819403e-12 </wgt>
<wgt id='1744'> +9.8687664e-13 </wgt>
<wgt id='1745'> +1.5428144e-12 </wgt>
<wgt id='1746'> +1.1112958e-12 </wgt>
<wgt id='1747'> +1.1988241e-12 </wgt>
<wgt id='1748'> +1.0705594e-12 </wgt>
<wgt id='1749'> +1.1010677e-12 </wgt>
<wgt id='1750'> +1.1491802e-12 </wgt>
<wgt id='1751'> +1.4252379e-12 </wgt>
<wgt id='1752'> +1.1259033e-12 </wgt>
<wgt id='1753'> +1.1562414e-12 </wgt>
<wgt id='1754'> +1.1340449e-12 </wgt>
<wgt id='1755'> +1.1662046e-12 </wgt>
<wgt id='1756'> +1.2289473e-12 </wgt>
<wgt id='1757'> +1.2080023e-12 </wgt>
<wgt id='1758'> +1.1707120e-12 </wgt>
<wgt id='1759'> +1.1000322e-12 </wgt>
<wgt id='1760'> +1.2169584e-12 </wgt>
<wgt id='1761'> +1.1531048e-12 </wgt>
<wgt id='1762'> +1.0631217e-12 </wgt>
<wgt id='1763'> +1.0775293e-12 </wgt>
<wgt id='1764'> +1.1690208e-12 </wgt>
<wgt id='1765'> +1.1361101e-12 </wgt>
<wgt id='1766'> +1.3431627e-12 </wgt>
<wgt id='1767'> +1.1868158e-12 </wgt>
<wgt id='1768'> +1.1830969e-12 </wgt>
<wgt id='1769'> +1.1581505e-12 </wgt>
<wgt id='1770'> +9.8742814e-13 </wgt>
<wgt id='1771'> +1.1432147e-12 </wgt>
<wgt id='1772'> +1.0356635e-12 </wgt>
<wgt id='1773'> +1.1651366e-12 </wgt>
<wgt id='1774'> +1.1038486e-12 </wgt>
<wgt id='1775'> +1.1304392e-12 </wgt>
<wgt id='1776'> +1.1863076e-12 </wgt>
<wgt id='1777'> +1.2804168e-12 </wgt>
<wgt id='1778'> +1.1432110e-12 </wgt>
<wgt id='1779'> +1.1160676e-12 </wgt>
<wgt id='1780'> +1.4732444e-12 </wgt>
<wgt id='1781'> +1.0827651e-12 </wgt>
<wgt id='1782'> +1.2241516e-12 </wgt>
<wgt id='1783'> +1.1830476e-12 </wgt>
<wgt id='1784'> +1.2706398e-12 </wgt>
<wgt id='1785'> +1.4531941e-12 </wgt>
<wgt id='1786'> +1.4880342e-12 </wgt>
<wgt id='1787'> +1.1751772e-12 </wgt>
<wgt id='1788'> +1.1308967e-12 </wgt>
<wgt id='1789'> +1.6160416e-12 </wgt>
<wgt id='1790'> +1.3766146e-12 </wgt>
<wgt id='1791'> +1.2161448e-12 </wgt>
<wgt id='1792'> +1.2828946e-12 </wgt>
<wgt id='1793'> +1.1409735e-12 </wgt>
<wgt id='1794'> +1.1915783e-12 </wgt>
<wgt id='1795'> +1.0789673e-12 </wgt>
<wgt id='1796'> +1.1932922e-12 </wgt>
<wgt id='1797'> +1.1141242e-12 </wgt>
<wgt id='1798'> +1.1348496e-12 </wgt>
<wgt id='1799'> +1.2431352e-12 </wgt>
<wgt id='1800'> +1.1862065e-12 </wgt>
<wgt id='1801'> +1.1263764e-12 </wgt>
<wgt id='1802'> +1.2974465e-12 </wgt>
<wgt id='1803'> +1.1097798e-12 </wgt>
<wgt id='1804'> +1.0911540e-12 </wgt>
<wgt id='1805'> +1.2124246e-12 </wgt>
<wgt id='1806'> +1.1448011e-12 </wgt>
<wgt id='1807'> +1.2246406e-12 </wgt>
<wgt id='1808'> +1.0526914e-12 </wgt>
<wgt id='1809'> +1.2523981e-12 </wgt>
<wgt id='1810'> +1.0860072e-12 </wgt>
<wgt id='1811'> +1.0230443e-12 </wgt>
<wgt id='1812'> +1.0650877e-12 </wgt>
<wgt id='1813'> +9.2433124e-13 </wgt>
<wgt id='1814'> +1.0816587e-12 </wgt>
<wgt id='1815'> +1.2683670e-12 </wgt>
<wgt id='1816'> +1.1804920e-12 </wgt>
<wgt id='1817'> +1.1407520e-12 </wgt>
<wgt id='1818'> +1.0484213e-12 </wgt>
<wgt id='1819'> +1.0366874e-12 </wgt>
<wgt id='1820'> +1.1097865e-12 </wgt>
<wgt id='1821'> +1.1452796e-12 </wgt>
<wgt id='1822'> +1.2106830e-12 </wgt>
<wgt id='1823'> +1.2005027e-12 </wgt>
<wgt id='1824'> +1.1549177e-12 </wgt>
<wgt id='1825'> +1.1877398e-12 </wgt>
<wgt id='1826'> +1.3284753e-12 </wgt>
<wgt id='1827'> +1.7129818e-12 </wgt>
<wgt id='1828'> +1.1438602e-12 </wgt>
<wgt id='1829'> +9.8454452e-13 </wgt>
<wgt id='1830'> +1.2486600e-12 </wgt>
<wgt id='1831'> +1.2048564e-12 </wgt>
<wgt id='1832'> +1.2274447e-12 </wgt>
<wgt id='1833'> +1.2085773e-12 </wgt>
<wgt id='1834'> +1.1914090e-12 </wgt>
<wgt id='1835'> +1.1599106e-12 </wgt>
<wgt id='1836'> +1.0635732e-12 </wgt>
<wgt id='1837'> +1.1073589e-12 </wgt>
<wgt id='1838'> +1.3579864e-12 </wgt>
<wgt id='1839'> +1.2359176e-12 </wgt>
<wgt id='1840'> +1.0920541e-12 </wgt>
<wgt id='1841'> +1.1468093e-12 </wgt>
<wgt id='1842'> +1.1603807e-12 </wgt>
<wgt id='1843'> +1.1226942e-12 </wgt>
<wgt id='1844'> +1.2081856e-12 </wgt>
<wgt id='1845'> +1.0393501e-12 </wgt>
<wgt id='1846'> +1.0819403e-12 </wgt>
<wgt id='1847'> +9.8687664e-13 </wgt>
<wgt id='1848'> +1.5428144e-12 </wgt>
<wgt id='1849'> +1.1112958e-12 </wgt>
<wgt id='1850'> +1.1988241e-12 </wgt>
<wgt id='1851'> +1.0705594e-12 </wgt>
<wgt id='1852'> +1.1010677e-12 </wgt>
<wgt id='1853'> +1.1491802e-12 </wgt>
<wgt id='1854'> +1.4252379e-12 </wgt>
<wgt id='1855'> +1.1259033e-12 </wgt>
<wgt id='1856'> +1.1562414e-12 </wgt>
<wgt id='1857'> +1.1340449e-12 </wgt>
<wgt id='1858'> +1.1662046e-12 </wgt>
<wgt id='1859'> +1.2289473e-12 </wgt>
<wgt id='1860'> +1.2080023e-12 </wgt>
<wgt id='1861'> +1.1707120e-12 </wgt>
<wgt id='1862'> +1.1000322e-12 </wgt>
<wgt id='1863'> +1.2169584e-12 </wgt>
<wgt id='1864'> +1.1531048e-12 </wgt>
<wgt id='1865'> +1.0631217e-12 </wgt>
<wgt id='1866'> +1.0775293e-12 </wgt>
<wgt id='1867'> +1.1690208e-12 </wgt>
<wgt id='1868'> +1.1361101e-12 </wgt>
<wgt id='1869'> +1.3431627e-12 </wgt>
<wgt id='1870'> +1.1868158e-12 </wgt>
<wgt id='1871'> +1.1830969e-12 </wgt>
<wgt id='1872'> +1.1581505e-12 </wgt>
<wgt id='1873'> +9.8742814e-13 </wgt>
<wgt id='1874'> +1.1432147e-12 </wgt>
<wgt id='1875'> +1.0356635e-12 </wgt>
<wgt id='1876'> +1.1651366e-12 </wgt>
<wgt id='1877'> +1.1038486e-12 </wgt>
<wgt id='1878'> +1.1304392e-12 </wgt>
<wgt id='1879'> +1.1863076e-12 </wgt>
<wgt id='1880'> +1.2804168e-12 </wgt>
<wgt id='1881'> +1.1432110e-12 </wgt>
<wgt id='1882'> +1.1160676e-12 </wgt>
<wgt id='1883'> +1.4732444e-12 </wgt>
<wgt id='1884'> +1.0827651e-12 </wgt>
<wgt id='1885'> +1.2241516e-12 </wgt>
<wgt id='1886'> +1.1830476e-12 </wgt>
<wgt id='1887'> +1.2706398e-12 </wgt>
<wgt id='1888'> +1.4531941e-12 </wgt>
<wgt id='1889'> +1.4880342e-12 </wgt>
<wgt id='1890'> +1.1751772e-12 </wgt>
<wgt id='1891'> +1.1308967e-12 </wgt>
<wgt id='1892'> +1.6160416e-12 </wgt>
<wgt id='1893'> +1.3766146e-12 </wgt>
<wgt id='1894'> +1.2161448e-12 </wgt>
<wgt id='1895'> +1.2828946e-12 </wgt>
<wgt id='1896'> +1.1409735e-12 </wgt>
<wgt id='1897'> +1.1915783e-12 </wgt>
<wgt id='1898'> +1.0789673e-12 </wgt>
<wgt id='1899'> +1.1932922e-12 </wgt>
<wgt id='1900'> +1.1141242e-12 </wgt>
<wgt id='1901'> +1.1348496e-12 </wgt>
<wgt id='1902'> +1.2431352e-12 </wgt>
<wgt id='1903'> +1.1862065e-12 </wgt>
<wgt id='1904'> +1.1263764e-12 </wgt>
<wgt id='1905'> +1.2974465e-12 </wgt>
<wgt id='1906'> +1.1097798e-12 </wgt>
<wgt id='1907'> +1.0911540e-12 </wgt>
<wgt id='1908'> +1.2124246e-12 </wgt>
<wgt id='1909'> +1.1448011e-12 </wgt>
<wgt id='1910'> +1.2246406e-12 </wgt>
<wgt id='1911'> +1.0526914e-12 </wgt>
<wgt id='1912'> +1.2523981e-12 </wgt>
<wgt id='1913'> +1.0860072e-12 </wgt>
<wgt id='1914'> +1.0230443e-12 </wgt>
<wgt id='1915'> +1.0650877e-12 </wgt>
<wgt id='1916'> +9.2433124e-13 </wgt>
<wgt id='1917'> +1.1414117e-12 </wgt>
<wgt id='1918'> +1.1760318e-12 </wgt>
<wgt id='1919'> +1.2029004e-12 </wgt>
</rwgt>
</event>
<event>
 9      1 +1.5538000e-12 3.47720400e+01 7.81860800e-03 1.40671400e-01
       21 -1    0    0  501  502 +0.0000000000e+00 +0.0000000000e+00 +7.5639667908e+02 7.5639667908e+02 0.0000000000e+00 0.0000e+00 -1.0000e+00
        4 -1    0    0  502    0 -0.0000000000e+00 -0.0000000000e+00 -3.4495197064e+00 3.7303600637e+00 1.4200000000e+00 0.0000e+00 -1.0000e+00
     1023  2    1    2    0    0 -3.1307375741e+01 -1.9903497724e+00 +9.0718028707e+01 9.7153773339e+01 1.4999389107e+01 0.0000e+00 0.0000e+00
  1000023  2    3    3    0    0 -2.4271993203e+01 -5.2361467677e+00 +6.2889047523e+01 6.7836815801e+01 5.5003993108e+00 0.0000e+00 0.0000e+00
        4  1    1    2  501    0 +3.1307375741e+01 +1.9903497724e+00 +6.6222913067e+02 6.6297326580e+02 1.4200000000e+00 0.0000e+00 -1.0000e+00
  1000022  1    4    4    0    0 -2.2723344415e+01 -4.6416991600e+00 +5.8151755207e+01 6.2805432776e+01 5.0000000000e+00 0.0000e+00 -1.0000e+00
      -13  1    4    4    0    0 -1.1677789155e+00 -3.3241755571e-01 +3.2991370953e+00 3.5170565948e+00 1.0570000000e-01 0.0000e+00 -1.0000e+00
       13  1    4    4    0    0 -3.8086987283e-01 -2.6203005199e-01 +1.4381552206e+00 1.5143264301e+00 1.0570000000e-01 0.0000e+00 1.0000e+00
  1000022  1    3    3    0    0 -7.0353825375e+00 +3.2457969953e+00 +2.7828981184e+01 2.9316957538e+01 5.0000000000e+00 0.0000e+00 -1.0000e+00
<mgrwt>
<rscale>  1 0.34772043E+02</rscale>
<asrwt>0</asrwt>
<pdfrwt beam="1">  1       21 0.11636859E+00 0.34772043E+02</pdfrwt>
<pdfrwt beam="2">  1        4 0.55240158E-03 0.34772043E+02</pdfrwt>
<totfact> 0.16880903E+05</totfact>
</mgrwt>
<rwgt>
<wgt id='1001'> +1.5538000e-12 </wgt>
<wgt id='1002'> +1.5021382e-12 </wgt>
<wgt id='1003'> +1.4993294e-12 </wgt>
<wgt id='1004'> +1.5571573e-12 </wgt>
<wgt id='1005'> +1.4516673e-12 </wgt>
<wgt id='1006'> +1.3649825e-12 </wgt>
<wgt id='1007'> +1.3383312e-12 </wgt>
<wgt id='1008'> +1.3366062e-12 </wgt>
<wgt id='1009'> +1.3660855e-12 </wgt>
<wgt id='1010'> +1.3051959e-12 </wgt>
<wgt id='1011'> +1.8061616e-12 </wgt>
<wgt id='1012'> +1.7135501e-12 </wgt>
<wgt id='1013'> +1.7090377e-12 </wgt>
<wgt id='1014'> +1.8133992e-12 </wgt>
<wgt id='1015'> +1.6365670e-12 </wgt>
<wgt id='1016'> +1.7008831e-12 </wgt>
<wgt id='1017'> +1.6036477e-12 </wgt>
<wgt id='1018'> +1.5991585e-12 </wgt>
<wgt id='1019'> +1.7090377e-12 </wgt>
<wgt id='1020'> +1.5280475e-12 </wgt>
<wgt id='1021'> +1.4941921e-12 </wgt>
<wgt id='1022'> +1.4287712e-12 </wgt>
<wgt id='1023'> +1.4256008e-12 </wgt>
<wgt id='1024'> +1.4993294e-12 </wgt>
<wgt id='1025'> +1.3738694e-12 </wgt>
<wgt id='1026'> +1.9771333e-12 </wgt>
<wgt id='1027'> +1.8293461e-12 </wgt>
<wgt id='1028'> +1.8228297e-12 </wgt>
<wgt id='1029'> +1.9902727e-12 </wgt>
<wgt id='1030'> +1.7226758e-12 </wgt>
<wgt id='1031'> +1.3568407e-12 </wgt>
<wgt id='1032'> +1.3665937e-12 </wgt>
<wgt id='1033'> +1.3660855e-12 </wgt>
<wgt id='1034'> +1.3537271e-12 </wgt>
<wgt id='1035'> +1.3497491e-12 </wgt>
<wgt id='1036'> +1.1919577e-12 </wgt>
<wgt id='1037'> +1.2175677e-12 </wgt>
<wgt id='1038'> +1.2178234e-12 </wgt>
<wgt id='1039'> +1.1876173e-12 </wgt>
<wgt id='1040'> +1.2135611e-12 </wgt>
<wgt id='1041'> +1.5772131e-12 </wgt>
<wgt id='1042'> +1.5589289e-12 </wgt>
<wgt id='1043'> +1.5571573e-12 </wgt>
<wgt id='1044'> +1.5764930e-12 </wgt>
<wgt id='1045'> +1.5216674e-12 </wgt>
<wgt id='1046'> +1.5538000e-12 </wgt>
<wgt id='1047'> +1.5488657e-12 </wgt>
<wgt id='1048'> +1.5850108e-12 </wgt>
<wgt id='1049'> +1.5346719e-12 </wgt>
<wgt id='1050'> +1.5649375e-12 </wgt>
<wgt id='1051'> +1.5438161e-12 </wgt>
<wgt id='1052'> +1.5164071e-12 </wgt>
<wgt id='1053'> +1.5651077e-12 </wgt>
<wgt id='1054'> +1.5707153e-12 </wgt>
<wgt id='1055'> +1.5382296e-12 </wgt>
<wgt id='1056'> +1.5831912e-12 </wgt>
<wgt id='1057'> +1.5302804e-12 </wgt>
<wgt id='1058'> +1.5309209e-12 </wgt>
<wgt id='1059'> +1.5159579e-12 </wgt>
<wgt id='1060'> +1.5697076e-12 </wgt>
<wgt id='1061'> +1.4909715e-12 </wgt>
<wgt id='1062'> +1.5379136e-12 </wgt>
<wgt id='1063'> +1.5695818e-12 </wgt>
<wgt id='1064'> +1.5613158e-12 </wgt>
<wgt id='1065'> +1.5363816e-12 </wgt>
<wgt id='1066'> +1.5444423e-12 </wgt>
<wgt id='1067'> +1.5325995e-12 </wgt>
<wgt id='1068'> +1.5553009e-12 </wgt>
<wgt id='1069'> +1.5827094e-12 </wgt>
<wgt id='1070'> +1.5872382e-12 </wgt>
<wgt id='1071'> +1.5391285e-12 </wgt>
<wgt id='1072'> +1.5224151e-12 </wgt>
<wgt id='1073'> +1.5655167e-12 </wgt>
<wgt id='1074'> +1.5319607e-12 </wgt>
<wgt id='1075'> +1.5287690e-12 </wgt>
<wgt id='1076'> +1.5468253e-12 </wgt>
<wgt id='1077'> +1.5704097e-12 </wgt>
<wgt id='1078'> +1.5152665e-12 </wgt>
<wgt id='1079'> +1.5231624e-12 </wgt>
<wgt id='1080'> +1.5993723e-12 </wgt>
<wgt id='1081'> +1.5044681e-12 </wgt>
<wgt id='1082'> +1.5079606e-12 </wgt>
<wgt id='1083'> +1.4998523e-12 </wgt>
<wgt id='1084'> +1.5374500e-12 </wgt>
<wgt id='1085'> +1.5008114e-12 </wgt>
<wgt id='1086'> +1.5865978e-12 </wgt>
<wgt id='1087'> +1.5285119e-12 </wgt>
<wgt id='1088'> +1.5795685e-12 </wgt>
<wgt id='1089'> +1.5691403e-12 </wgt>
<wgt id='1090'> +1.5759607e-12 </wgt>
<wgt id='1091'> +1.5572721e-12 </wgt>
<wgt id='1092'> +1.5542633e-12 </wgt>
<wgt id='1093'> +1.5937252e-12 </wgt>
<wgt id='1094'> +1.6325112e-12 </wgt>
<wgt id='1095'> +1.5120658e-12 </wgt>
<wgt id='1096'> +1.5303498e-12 </wgt>
<wgt id='1097'> +1.5342544e-12 </wgt>
<wgt id='1098'> +1.5722561e-12 </wgt>
<wgt id='1099'> +1.5510465e-12 </wgt>
<wgt id='1100'> +1.5388250e-12 </wgt>
<wgt id='1101'> +1.5640366e-12 </wgt>
<wgt id='1102'> +1.5566903e-12 </wgt>
<wgt id='1103'> +1.5443212e-12 </wgt>
<wgt id='1104'> +1.5844685e-12 </wgt>
<wgt id='1105'> +1.4818657e-12 </wgt>
<wgt id='1106'> +1.5406035e-12 </wgt>
<wgt id='1107'> +1.5712173e-12 </wgt>
<wgt id='1108'> +1.5665486e-12 </wgt>
<wgt id='1109'> +1.5211824e-12 </wgt>
<wgt id='1110'> +1.5921672e-12 </wgt>
<wgt id='1111'> +1.5113112e-12 </wgt>
<wgt id='1112'> +1.5653256e-12 </wgt>
<wgt id='1113'> +1.5742605e-12 </wgt>
<wgt id='1114'> +1.5614327e-12 </wgt>
<wgt id='1115'> +1.5673012e-12 </wgt>
<wgt id='1116'> +1.6766409e-12 </wgt>
<wgt id='1117'> +1.5353701e-12 </wgt>
<wgt id='1118'> +1.5245673e-12 </wgt>
<wgt id='1119'> +1.5710629e-12 </wgt>
<wgt id='1120'> +1.5018364e-12 </wgt>
<wgt id='1121'> +1.5391460e-12 </wgt>
<wgt id='1122'> +1.5084184e-12 </wgt>
<wgt id='1123'> +1.6375493e-12 </wgt>
<wgt id='1124'> +1.4969252e-12 </wgt>
<wgt id='1125'> +1.5261705e-12 </wgt>
<wgt id='1126'> +1.6291916e-12 </wgt>
<wgt id='1127'> +1.6192976e-12 </wgt>
<wgt id='1128'> +1.5379136e-12 </wgt>
<wgt id='1129'> +1.5683179e-12 </wgt>
<wgt id='1130'> +1.5455339e-12 </wgt>
<wgt id='1131'> +1.5403512e-12 </wgt>
<wgt id='1132'> +1.6221942e-12 </wgt>
<wgt id='1133'> +1.4970988e-12 </wgt>
<wgt id='1134'> +1.5747512e-12 </wgt>
<wgt id='1135'> +1.5939827e-12 </wgt>
<wgt id='1136'> +1.5735127e-12 </wgt>
<wgt id='1137'> +1.5444622e-12 </wgt>
<wgt id='1138'> +1.5187976e-12 </wgt>
<wgt id='1139'> +1.5504138e-12 </wgt>
<wgt id='1140'> +1.5923873e-12 </wgt>
<wgt id='1141'> +1.5537782e-12 </wgt>
<wgt id='1142'> +1.5498866e-12 </wgt>
<wgt id='1143'> +1.6320437e-12 </wgt>
<wgt id='1144'> +1.5746929e-12 </wgt>
<wgt id='1145'> +1.5728093e-12 </wgt>
<wgt id='1146'> +1.5580128e-12 </wgt>
<wgt id='1147'> +1.2821604e-12 </wgt>
<wgt id='1148'> +1.3092621e-12 </wgt>
<wgt id='1149'> +1.3377999e-12 </wgt>
<wgt id='1150'> +1.3344872e-12 </wgt>
<wgt id='1151'> +1.1825887e-12 </wgt>
<wgt id='1152'> +1.6153812e-12 </wgt>
<wgt id='1153'> +1.6096517e-12 </wgt>
<wgt id='1154'> +1.6187096e-12 </wgt>
<wgt id='1155'> +1.6161162e-12 </wgt>
<wgt id='1156'> +1.6149822e-12 </wgt>
<wgt id='1157'> +1.6112953e-12 </wgt>
<wgt id='1158'> +1.6209083e-12 </wgt>
<wgt id='1159'> +1.6119500e-12 </wgt>
<wgt id='1160'> +1.6175393e-12 </wgt>
<wgt id='1161'> +1.6076973e-12 </wgt>
<wgt id='1162'> +1.6206096e-12 </wgt>
<wgt id='1163'> +1.6208680e-12 </wgt>
<wgt id='1164'> +1.6099296e-12 </wgt>
<wgt id='1165'> +1.6033686e-12 </wgt>
<wgt id='1166'> +1.6268355e-12 </wgt>
<wgt id='1167'> +1.6176008e-12 </wgt>
<wgt id='1168'> +1.6105499e-12 </wgt>
<wgt id='1169'> +1.6153220e-12 </wgt>
<wgt id='1170'> +1.6154396e-12 </wgt>
<wgt id='1171'> +1.6184718e-12 </wgt>
<wgt id='1172'> +1.6114507e-12 </wgt>
<wgt id='1173'> +1.6226607e-12 </wgt>
<wgt id='1174'> +1.6069111e-12 </wgt>
<wgt id='1175'> +1.6139774e-12 </wgt>
<wgt id='1176'> +1.6156631e-12 </wgt>
<wgt id='1177'> +1.6161698e-12 </wgt>
<wgt id='1178'> +1.6138505e-12 </wgt>
<wgt id='1179'> +1.6170664e-12 </wgt>
<wgt id='1180'> +1.6085309e-12 </wgt>
<wgt id='1181'> +1.6136253e-12 </wgt>
<wgt id='1182'> +1.6177577e-12 </wgt>
<wgt id='1183'> +1.6162639e-12 </wgt>
<wgt id='1184'> +1.6153018e-12 </wgt>
<wgt id='1185'> +1.6208104e-12 </wgt>
<wgt id='1186'> +1.6128334e-12 </wgt>
<wgt id='1187'> +1.6149395e-12 </wgt>
<wgt id='1188'> +1.6154204e-12 </wgt>
<wgt id='1189'> +1.6234983e-12 </wgt>
<wgt id='1190'> +1.5831161e-12 </wgt>
<wgt id='1191'> +1.6065886e-12 </wgt>
<wgt id='1192'> +1.6252661e-12 </wgt>
<wgt id='1193'> +1.3688232e-12 </wgt>
<wgt id='1194'> +1.3602181e-12 </wgt>
<wgt id='1195'> +1.3758802e-12 </wgt>
<wgt id='1196'> +1.3689834e-12 </wgt>
<wgt id='1197'> +1.3687016e-12 </wgt>
<wgt id='1198'> +1.3712645e-12 </wgt>
<wgt id='1199'> +1.3652375e-12 </wgt>
<wgt id='1200'> +1.3702114e-12 </wgt>
<wgt id='1201'> +1.3679658e-12 </wgt>
<wgt id='1202'> +1.3647023e-12 </wgt>
<wgt id='1203'> +1.3747546e-12 </wgt>
<wgt id='1204'> +1.3447991e-12 </wgt>
<wgt id='1205'> +1.3836918e-12 </wgt>
<wgt id='1206'> +1.3741469e-12 </wgt>
<wgt id='1207'> +1.3616285e-12 </wgt>
<wgt id='1208'> +1.3633234e-12 </wgt>
<wgt id='1209'> +1.3708630e-12 </wgt>
<wgt id='1210'> +1.3470564e-12 </wgt>
<wgt id='1211'> +1.3873544e-12 </wgt>
<wgt id='1212'> +1.3701982e-12 </wgt>
<wgt id='1213'> +1.3676502e-12 </wgt>
<wgt id='1214'> +1.3763624e-12 </wgt>
<wgt id='1215'> +1.3509792e-12 </wgt>
<wgt id='1216'> +1.3595468e-12 </wgt>
<wgt id='1217'> +1.3738547e-12 </wgt>
<wgt id='1218'> +1.3679256e-12 </wgt>
<wgt id='1219'> +1.3688787e-12 </wgt>
<wgt id='1220'> +1.3728692e-12 </wgt>
<wgt id='1221'> +1.3707211e-12 </wgt>
<wgt id='1222'> +1.3762665e-12 </wgt>
<wgt id='1223'> +1.3619543e-12 </wgt>
<wgt id='1224'> +1.3672944e-12 </wgt>
<wgt id='1225'> +1.3695001e-12 </wgt>
<wgt id='1226'> +1.3686599e-12 </wgt>
<wgt id='1227'> +1.3692005e-12 </wgt>
<wgt id='1228'> +1.3718978e-12 </wgt>
<wgt id='1229'> +1.3666314e-12 </wgt>
<wgt id='1230'> +1.3856571e-12 </wgt>
<wgt id='1231'> +1.3653488e-12 </wgt>
<wgt id='1232'> +1.3706891e-12 </wgt>
<wgt id='1233'> +1.3684238e-12 </wgt>
<wgt id='1234'> +1.3688232e-12 </wgt>
<wgt id='1235'> +1.3610469e-12 </wgt>
<wgt id='1236'> +1.3639768e-12 </wgt>
<wgt id='1237'> +1.3663356e-12 </wgt>
<wgt id='1238'> +1.3706025e-12 </wgt>
<wgt id='1239'> +1.3721432e-12 </wgt>
<wgt id='1240'> +1.3737306e-12 </wgt>
<wgt id='1241'> +1.3003693e-12 </wgt>
<wgt id='1242'> +1.2895896e-12 </wgt>
<wgt id='1243'> +1.3108783e-12 </wgt>
<wgt id='1244'> +1.2980467e-12 </wgt>
<wgt id='1245'> +1.3019583e-12 </wgt>
<wgt id='1246'> +1.3011163e-12 </wgt>
<wgt id='1247'> +1.2996090e-12 </wgt>
<wgt id='1248'> +1.3001723e-12 </wgt>
<wgt id='1249'> +1.3004495e-12 </wgt>
<wgt id='1250'> +1.2966612e-12 </wgt>
<wgt id='1251'> +1.3029053e-12 </wgt>
<wgt id='1252'> +1.2988667e-12 </wgt>
<wgt id='1253'> +1.3014438e-12 </wgt>
<wgt id='1254'> +1.2825745e-12 </wgt>
<wgt id='1255'> +1.3110157e-12 </wgt>
<wgt id='1256'> +1.3039440e-12 </wgt>
<wgt id='1257'> +1.2912109e-12 </wgt>
<wgt id='1258'> +1.2790157e-12 </wgt>
<wgt id='1259'> +1.3155843e-12 </wgt>
<wgt id='1260'> +1.2983999e-12 </wgt>
<wgt id='1261'> +1.3031667e-12 </wgt>
<wgt id='1262'> +1.2966278e-12 </wgt>
<wgt id='1263'> +1.3017697e-12 </wgt>
<wgt id='1264'> +1.3045581e-12 </wgt>
<wgt id='1265'> +1.2984829e-12 </wgt>
<wgt id='1266'> +1.3020965e-12 </wgt>
<wgt id='1267'> +1.3006479e-12 </wgt>
<wgt id='1268'> +1.3019801e-12 </wgt>
<wgt id='1269'> +1.3024432e-12 </wgt>
<wgt id='1270'> +1.3052589e-12 </wgt>
<wgt id='1271'> +1.3007223e-12 </wgt>
<wgt id='1272'> +1.3008674e-12 </wgt>
<wgt id='1273'> +1.3006776e-12 </wgt>
<wgt id='1274'> +1.3002579e-12 </wgt>
<wgt id='1275'> +1.3002988e-12 </wgt>
<wgt id='1276'> +1.2958592e-12 </wgt>
<wgt id='1277'> +1.3042477e-12 </wgt>
<wgt id='1278'> +1.2952261e-12 </wgt>
<wgt id='1279'> +1.3205725e-12 </wgt>
<wgt id='1280'> +1.2989338e-12 </wgt>
<wgt id='1281'> +1.3122970e-12 </wgt>
<wgt id='1282'> +1.3003693e-12 </wgt>
<wgt id='1283'> +1.2930958e-12 </wgt>
<wgt id='1284'> +1.2960891e-12 </wgt>
<wgt id='1285'> +1.2982815e-12 </wgt>
<wgt id='1286'> +1.3021595e-12 </wgt>
<wgt id='1287'> +1.3032669e-12 </wgt>
<wgt id='1288'> +1.3043828e-12 </wgt>
<wgt id='1289'> +1.3936829e-12 </wgt>
<wgt id='1290'> +1.3978564e-12 </wgt>
<wgt id='1291'> +1.3891456e-12 </wgt>
<wgt id='1292'> +1.3950105e-12 </wgt>
<wgt id='1293'> +1.3926513e-12 </wgt>
<wgt id='1294'> +1.3884715e-12 </wgt>
<wgt id='1295'> +1.3984863e-12 </wgt>
<wgt id='1296'> +1.3928036e-12 </wgt>
<wgt id='1297'> +1.3946467e-12 </wgt>
<wgt id='1298'> +1.4058587e-12 </wgt>
<wgt id='1299'> +1.3784752e-12 </wgt>
<wgt id='1300'> +1.3983024e-12 </wgt>
<wgt id='1301'> +1.3844233e-12 </wgt>
<wgt id='1302'> +1.3918918e-12 </wgt>
<wgt id='1303'> +1.3960979e-12 </wgt>
<wgt id='1304'> +1.3903054e-12 </wgt>
<wgt id='1305'> +1.3959015e-12 </wgt>
<wgt id='1306'> +1.3838214e-12 </wgt>
<wgt id='1307'> +1.4048050e-12 </wgt>
<wgt id='1308'> +1.3902056e-12 </wgt>
<wgt id='1309'> +1.3962636e-12 </wgt>
<wgt id='1310'> +1.3900578e-12 </wgt>
<wgt id='1311'> +1.3975865e-12 </wgt>
<wgt id='1312'> +1.3825266e-12 </wgt>
<wgt id='1313'> +1.4051564e-12 </wgt>
<wgt id='1314'> +1.3736832e-12 </wgt>
<wgt id='1315'> +1.4098457e-12 </wgt>
<wgt id='1316'> +1.3989325e-12 </wgt>
<wgt id='1317'> +1.3955222e-12 </wgt>
<wgt id='1318'> +1.3884969e-12 </wgt>
<wgt id='1319'> +1.3987324e-12 </wgt>
<wgt id='1320'> +1.3798516e-12 </wgt>
<wgt id='1321'> +1.4021158e-12 </wgt>
<wgt id='1322'> +1.3960904e-12 </wgt>
<wgt id='1323'> +1.3903635e-12 </wgt>
<wgt id='1324'> +1.3968876e-12 </wgt>
<wgt id='1325'> +1.3913053e-12 </wgt>
<wgt id='1326'> +1.3959907e-12 </wgt>
<wgt id='1327'> +1.3944052e-12 </wgt>
<wgt id='1328'> +1.3889333e-12 </wgt>
<wgt id='1329'> +1.3980492e-12 </wgt>
<wgt id='1330'> +1.3877336e-12 </wgt>
<wgt id='1331'> +1.4014552e-12 </wgt>
<wgt id='1332'> +1.4217918e-12 </wgt>
<wgt id='1333'> +1.3885043e-12 </wgt>
<wgt id='1334'> +1.3916989e-12 </wgt>
<wgt id='1335'> +1.3993872e-12 </wgt>
<wgt id='1336'> +1.4033594e-12 </wgt>
<wgt id='1337'> +1.3925861e-12 </wgt>
<wgt id='1338'> +1.3959117e-12 </wgt>
<wgt id='1339'> +1.3930504e-12 </wgt>
<wgt id='1340'> +1.3555001e-12 </wgt>
<wgt id='1341'> +1.3596290e-12 </wgt>
<wgt id='1342'> +1.3510932e-12 </wgt>
<wgt id='1343'> +1.3569983e-12 </wgt>
<wgt id='1344'> +1.3545064e-12 </wgt>
<wgt id='1345'> +1.3501623e-12 </wgt>
<wgt id='1346'> +1.3603236e-12 </wgt>
<wgt id='1347'> +1.3546264e-12 </wgt>
<wgt id='1348'> +1.3564014e-12 </wgt>
<wgt id='1349'> +1.3667886e-12 </wgt>
<wgt id='1350'> +1.3444213e-12 </wgt>
<wgt id='1351'> +1.3602288e-12 </wgt>
<wgt id='1352'> +1.3452704e-12 </wgt>
<wgt id='1353'> +1.3529458e-12 </wgt>
<wgt id='1354'> +1.3599340e-12 </wgt>
<wgt id='1355'> +1.3523407e-12 </wgt>
<wgt id='1356'> +1.3573181e-12 </wgt>
<wgt id='1357'> +1.3447116e-12 </wgt>
<wgt id='1358'> +1.3682329e-12 </wgt>
<wgt id='1359'> +1.3545796e-12 </wgt>
<wgt id='1360'> +1.3563113e-12 </wgt>
<wgt id='1361'> +1.3524938e-12 </wgt>
<wgt id='1362'> +1.3597317e-12 </wgt>
<wgt id='1363'> +1.3440195e-12 </wgt>
<wgt id='1364'> +1.3638828e-12 </wgt>
<wgt id='1365'> +1.3748351e-12 </wgt>
<wgt id='1366'> +1.3269437e-12 </wgt>
<wgt id='1367'> +1.3610216e-12 </wgt>
<wgt id='1368'> +1.3560887e-12 </wgt>
<wgt id='1369'> +1.3520873e-12 </wgt>
<wgt id='1370'> +1.3591897e-12 </wgt>
<wgt id='1371'> +1.3476203e-12 </wgt>
<wgt id='1372'> +1.3630594e-12 </wgt>
<wgt id='1373'> +1.3600223e-12 </wgt>
<wgt id='1374'> +1.3506574e-12 </wgt>
<wgt id='1375'> +1.3582030e-12 </wgt>
<wgt id='1376'> +1.3532142e-12 </wgt>
<wgt id='1377'> +1.3582945e-12 </wgt>
<wgt id='1378'> +1.3560977e-12 </wgt>
<wgt id='1379'> +1.3512721e-12 </wgt>
<wgt id='1380'> +1.3601895e-12 </wgt>
<wgt id='1381'> +1.3504601e-12 </wgt>
<wgt id='1382'> +1.3618939e-12 </wgt>
<wgt id='1383'> +1.3814986e-12 </wgt>
<wgt id='1384'> +1.3504970e-12 </wgt>
<wgt id='1385'> +1.3534023e-12 </wgt>
<wgt id='1386'> +1.3611253e-12 </wgt>
<wgt id='1387'> +1.3645972e-12 </wgt>
<wgt id='1388'> +1.3564929e-12 </wgt>
<wgt id='1389'> +1.3581124e-12 </wgt>
<wgt id='1390'> +1.3551165e-12 </wgt>
<wgt id='1391'> +1.3439333e-12 </wgt>
<wgt id='1392'> +1.2898455e-12 </wgt>
<wgt id='1393'> +1.3082365e-12 </wgt>
<wgt id='1394'> +1.3260280e-12 </wgt>
<wgt id='1395'> +1.3640191e-12 </wgt>
<wgt id='1396'> +1.3445422e-12 </wgt>
<wgt id='1397'> +1.3659884e-12 </wgt>
<wgt id='1398'> +1.3615649e-12 </wgt>
<wgt id='1399'> +1.3575161e-12 </wgt>
<wgt id='1400'> +1.3534888e-12 </wgt>
<wgt id='1401'> +1.3491378e-12 </wgt>
<wgt id='1402'> +1.3401050e-12 </wgt>
<wgt id='1403'> +1.3360625e-12 </wgt>
<wgt id='1404'> +1.3318237e-12 </wgt>
<wgt id='1405'> +1.3445422e-12 </wgt>
<wgt id='1406'> +1.3387192e-12 </wgt>
<wgt id='1407'> +1.3416708e-12 </wgt>
<wgt id='1408'> +1.3473430e-12 </wgt>
<wgt id='1409'> +1.3495429e-12 </wgt>
<wgt id='1410'> +1.2577240e-12 </wgt>
<wgt id='1411'> +1.2628222e-12 </wgt>
<wgt id='1412'> +1.2512522e-12 </wgt>
<wgt id='1413'> +1.2571563e-12 </wgt>
<wgt id='1414'> +1.2582166e-12 </wgt>
<wgt id='1415'> +1.2585994e-12 </wgt>
<wgt id='1416'> +1.2573791e-12 </wgt>
<wgt id='1417'> +1.2527925e-12 </wgt>
<wgt id='1418'> +1.2624944e-12 </wgt>
<wgt id='1419'> +1.2627109e-12 </wgt>
<wgt id='1420'> +1.2529948e-12 </wgt>
<wgt id='1421'> +1.2363408e-12 </wgt>
<wgt id='1422'> +1.2668467e-12 </wgt>
<wgt id='1423'> +1.2571634e-12 </wgt>
<wgt id='1424'> +1.2583443e-12 </wgt>
<wgt id='1425'> +1.2515179e-12 </wgt>
<wgt id='1426'> +1.2643571e-12 </wgt>
<wgt id='1427'> +1.2359879e-12 </wgt>
<wgt id='1428'> +1.2694945e-12 </wgt>
<wgt id='1429'> +1.2549721e-12 </wgt>
<wgt id='1430'> +1.2616146e-12 </wgt>
<wgt id='1431'> +1.2610035e-12 </wgt>
<wgt id='1432'> +1.2553250e-12 </wgt>
<wgt id='1433'> +1.2505602e-12 </wgt>
<wgt id='1434'> +1.2617307e-12 </wgt>
<wgt id='1435'> +1.2582625e-12 </wgt>
<wgt id='1436'> +1.2569501e-12 </wgt>
<wgt id='1437'> +1.2622290e-12 </wgt>
<wgt id='1438'> +1.2601336e-12 </wgt>
<wgt id='1439'> +1.2614245e-12 </wgt>
<wgt id='1440'> +1.2433050e-12 </wgt>
<wgt id='1441'> +1.2547154e-12 </wgt>
<wgt id='1442'> +1.2646238e-12 </wgt>
<wgt id='1443'> +1.2594793e-12 </wgt>
<wgt id='1444'> +1.2565654e-12 </wgt>
<wgt id='1445'> +1.2537514e-12 </wgt>
<wgt id='1446'> +1.2613883e-12 </wgt>
<wgt id='1447'> +1.2580516e-12 </wgt>
<wgt id='1448'> +1.2609443e-12 </wgt>
<wgt id='1449'> +1.2528411e-12 </wgt>
<wgt id='1450'> +1.2611305e-12 </wgt>
<wgt id='1451'> +1.2612508e-12 </wgt>
<wgt id='1452'> +1.2560580e-12 </wgt>
<wgt id='1453'> +1.2586457e-12 </wgt>
<wgt id='1454'> +1.2526343e-12 </wgt>
<wgt id='1455'> +1.2540013e-12 </wgt>
<wgt id='1456'> +1.2715220e-12 </wgt>
<wgt id='1457'> +1.2653760e-12 </wgt>
<wgt id='1458'> +1.2559030e-12 </wgt>
<wgt id='1459'> +1.2615677e-12 </wgt>
<wgt id='1460'> +1.2664205e-12 </wgt>
<wgt id='1461'> +1.2577240e-12 </wgt>
<wgt id='1462'> +1.2410375e-12 </wgt>
<wgt id='1463'> +1.2737095e-12 </wgt>
<wgt id='1464'> +1.2571958e-12 </wgt>
<wgt id='1465'> +1.2904484e-12 </wgt>
<wgt id='1466'> +1.2824433e-12 </wgt>
<wgt id='1467'> +1.2753405e-12 </wgt>
<wgt id='1468'> +1.2709923e-12 </wgt>
<wgt id='1469'> +1.2635029e-12 </wgt>
<wgt id='1470'> +1.2509002e-12 </wgt>
<wgt id='1471'> +1.2440328e-12 </wgt>
<wgt id='1472'> +1.2379543e-12 </wgt>
<wgt id='1473'> +1.2571958e-12 </wgt>
<wgt id='1474'> +1.2511748e-12 </wgt>
<wgt id='1475'> +1.2548009e-12 </wgt>
<wgt id='1476'> +1.2597332e-12 </wgt>
<wgt id='1477'> +1.2620083e-12 </wgt>
<wgt id='1478'> +1.3362430e-12 </wgt>
<wgt id='1479'> +1.3377309e-12 </wgt>
<wgt id='1480'> +1.3338004e-12 </wgt>
<wgt id='1481'> +1.3429851e-12 </wgt>
<wgt id='1482'> +1.3426201e-12 </wgt>
<wgt id='1483'> +1.3162161e-12 </wgt>
<wgt id='1484'> +1.3434381e-12 </wgt>
<wgt id='1485'> +1.3538862e-12 </wgt>
<wgt id='1486'> +1.3359642e-12 </wgt>
<wgt id='1487'> +1.3495871e-12 </wgt>
<wgt id='1488'> +1.3309800e-12 </wgt>
<wgt id='1489'> +1.3181889e-12 </wgt>
<wgt id='1490'> +1.3385114e-12 </wgt>
<wgt id='1491'> +1.3253648e-12 </wgt>
<wgt id='1492'> +1.3326643e-12 </wgt>
<wgt id='1493'> +1.3215036e-12 </wgt>
<wgt id='1494'> +1.3391750e-12 </wgt>
<wgt id='1495'> +1.3500791e-12 </wgt>
<wgt id='1496'> +1.3325402e-12 </wgt>
<wgt id='1497'> +1.3407752e-12 </wgt>
<wgt id='1498'> +1.3317473e-12 </wgt>
<wgt id='1499'> +1.3406643e-12 </wgt>
<wgt id='1500'> +1.3353453e-12 </wgt>
<wgt id='1501'> +1.3329438e-12 </wgt>
<wgt id='1502'> +1.3375671e-12 </wgt>
<wgt id='1503'> +1.3418862e-12 </wgt>
<wgt id='1504'> +1.3363721e-12 </wgt>
<wgt id='1505'> +1.3331696e-12 </wgt>
<wgt id='1506'> +1.3373481e-12 </wgt>
<wgt id='1507'> +1.3364416e-12 </wgt>
<wgt id='1508'> +1.3481898e-12 </wgt>
<wgt id='1509'> +1.2969382e-12 </wgt>
<wgt id='1510'> +1.2971574e-12 </wgt>
<wgt id='1511'> +1.2893207e-12 </wgt>
<wgt id='1512'> +1.2851352e-12 </wgt>
<wgt id='1513'> +1.3017585e-12 </wgt>
<wgt id='1514'> +1.3041429e-12 </wgt>
<wgt id='1515'> +1.2996808e-12 </wgt>
<wgt id='1516'> +1.3110948e-12 </wgt>
<wgt id='1517'> +1.3057722e-12 </wgt>
<wgt id='1518'> +1.2959239e-12 </wgt>
<wgt id='1519'> +1.2904633e-12 </wgt>
<wgt id='1520'> +1.2948403e-12 </wgt>
<wgt id='1521'> +1.2931880e-12 </wgt>
<wgt id='1522'> +1.2915415e-12 </wgt>
<wgt id='1523'> +1.2947465e-12 </wgt>
<wgt id='1524'> +1.2943363e-12 </wgt>
<wgt id='1525'> +1.2979956e-12 </wgt>
<wgt id='1526'> +1.2993132e-12 </wgt>
<wgt id='1527'> +1.2911632e-12 </wgt>
<wgt id='1528'> +1.2940061e-12 </wgt>
<wgt id='1529'> +1.2875336e-12 </wgt>
<wgt id='1530'> +1.2944789e-12 </wgt>
<wgt id='1531'> +1.2885551e-12 </wgt>
<wgt id='1532'> +1.2945663e-12 </wgt>
<wgt id='1533'> +1.2912204e-12 </wgt>
<wgt id='1534'> +1.2878856e-12 </wgt>
<wgt id='1535'> +1.2996963e-12 </wgt>
<wgt id='1536'> +1.2969261e-12 </wgt>
<wgt id='1537'> +1.2964192e-12 </wgt>
<wgt id='1538'> +1.3078365e-12 </wgt>
<wgt id='1539'> +1.2986394e-12 </wgt>
<wgt id='1540'> +1.2961643e-12 </wgt>
<wgt id='1541'> +1.3012651e-12 </wgt>
<wgt id='1542'> +1.2980760e-12 </wgt>
<wgt id='1543'> +1.2970195e-12 </wgt>
<wgt id='1544'> +1.2953500e-12 </wgt>
<wgt id='1545'> +1.2929953e-12 </wgt>
<wgt id='1546'> +1.2981852e-12 </wgt>
<wgt id='1547'> +1.2969290e-12 </wgt>
<wgt id='1548'> +1.2979150e-12 </wgt>
<wgt id='1549'> +1.2949760e-12 </wgt>
<wgt id='1550'> +1.2928665e-12 </wgt>
<wgt id='1551'> +1.2912644e-12 </wgt>
<wgt id='1552'> +1.3006970e-12 </wgt>
<wgt id='1553'> +1.3000843e-12 </wgt>
<wgt id='1554'> +1.2961535e-12 </wgt>
<wgt id='1555'> +1.3013588e-12 </wgt>
<wgt id='1556'> +1.2995174e-12 </wgt>
<wgt id='1557'> +1.2970022e-12 </wgt>
<wgt id='1558'> +1.2972039e-12 </wgt>
<wgt id='1559'> +1.2987424e-12 </wgt>
<wgt id='1560'> +1.2982772e-12 </wgt>
<wgt id='1561'> +1.2942000e-12 </wgt>
<wgt id='1562'> +1.2957462e-12 </wgt>
<wgt id='1563'> +1.2979373e-12 </wgt>
<wgt id='1564'> +1.2977636e-12 </wgt>
<wgt id='1565'> +1.2972677e-12 </wgt>
<wgt id='1566'> +1.2947320e-12 </wgt>
<wgt id='1567'> +1.2967554e-12 </wgt>
<wgt id='1568'> +1.2965855e-12 </wgt>
<wgt id='1569'> +1.2981274e-12 </wgt>
<wgt id='1570'> +1.2972364e-12 </wgt>
<wgt id='1571'> +1.2966806e-12 </wgt>
<wgt id='1572'> +1.2960299e-12 </wgt>
<wgt id='1573'> +1.2960870e-12 </wgt>
<wgt id='1574'> +1.2961693e-12 </wgt>
<wgt id='1575'> +1.2959849e-12 </wgt>
<wgt id='1576'> +1.2972618e-12 </wgt>
<wgt id='1577'> +1.2977446e-12 </wgt>
<wgt id='1578'> +1.2971989e-12 </wgt>
<wgt id='1579'> +1.2975374e-12 </wgt>
<wgt id='1580'> +1.2963490e-12 </wgt>
<wgt id='1581'> +1.2970956e-12 </wgt>
<wgt id='1582'> +1.2971602e-12 </wgt>
<wgt id='1583'> +1.2970996e-12 </wgt>
<wgt id='1584'> +1.2968422e-12 </wgt>
<wgt id='1585'> +1.2971744e-12 </wgt>
<wgt id='1586'> +1.2973202e-12 </wgt>
<wgt id='1587'> +1.2971576e-12 </wgt>
<wgt id='1588'> +1.2968902e-12 </wgt>
<wgt id='1589'> +1.2968305e-12 </wgt>
<wgt id='1590'> +1.2973908e-12 </wgt>
<wgt id='1591'> +1.2968570e-12 </wgt>
<wgt id='1592'> +1.2970048e-12 </wgt>
<wgt id='1593'> +1.2972688e-12 </wgt>
<wgt id='1594'> +1.2960626e-12 </wgt>
<wgt id='1595'> +1.2968364e-12 </wgt>
<wgt id='1596'> +1.2963779e-12 </wgt>
<wgt id='1597'> +1.2967329e-12 </wgt>
<wgt id='1598'> +1.2971584e-12 </wgt>
<wgt id='1599'> +1.2961915e-12 </wgt>
<wgt id='1600'> +1.2963145e-12 </wgt>
<wgt id='1601'> +1.2968257e-12 </wgt>
<wgt id='1602'> +1.2972296e-12 </wgt>
<wgt id='1603'> +1.2972092e-12 </wgt>
<wgt id='1604'> +1.2970434e-12 </wgt>
<wgt id='1605'> +1.2972399e-12 </wgt>
<wgt id='1606'> +1.2963376e-12 </wgt>
<wgt id='1607'> +1.2976772e-12 </wgt>
<wgt id='1608'> +1.2967581e-12 </wgt>
<wgt id='1609'> +1.2970342e-12 </wgt>
<wgt id='1610'> +1.2651300e-12 </wgt>
<wgt id='1611'> +1.3443770e-12 </wgt>
<wgt id='1612'> +1.5157823e-12 </wgt>
<wgt id='1613'> +1.4908857e-12 </wgt>
<wgt id='1614'> +1.5683665e-12 </wgt>
<wgt id='1615'> +1.5415297e-12 </wgt>
<wgt id='1616'> +1.4708235e-12 </wgt>
<wgt id='1617'> +1.5092708e-12 </wgt>
<wgt id='1618'> +1.5553869e-12 </wgt>
<wgt id='1619'> +1.4872647e-12 </wgt>
<wgt id='1620'> +1.4888431e-12 </wgt>
<wgt id='1621'> +1.5159412e-12 </wgt>
<wgt id='1622'> +1.4957926e-12 </wgt>
<wgt id='1623'> +1.4778984e-12 </wgt>
<wgt id='1624'> +1.5406114e-12 </wgt>
<wgt id='1625'> +1.5102336e-12 </wgt>
<wgt id='1626'> +1.5223064e-12 </wgt>
<wgt id='1627'> +1.5030379e-12 </wgt>
<wgt id='1628'> +1.6051649e-12 </wgt>
<wgt id='1629'> +1.4750615e-12 </wgt>
<wgt id='1630'> +1.4828489e-12 </wgt>
<wgt id='1631'> +1.6102584e-12 </wgt>
<wgt id='1632'> +1.5118378e-12 </wgt>
<wgt id='1633'> +1.5718180e-12 </wgt>
<wgt id='1634'> +1.4763710e-12 </wgt>
<wgt id='1635'> +1.5263010e-12 </wgt>
<wgt id='1636'> +1.5205198e-12 </wgt>
<wgt id='1637'> +1.5151789e-12 </wgt>
<wgt id='1638'> +1.4850545e-12 </wgt>
<wgt id='1639'> +1.4788129e-12 </wgt>
<wgt id='1640'> +1.5244403e-12 </wgt>
<wgt id='1641'> +1.5034544e-12 </wgt>
<wgt id='1642'> +1.5506810e-12 </wgt>
<wgt id='1643'> +1.5270727e-12 </wgt>
<wgt id='1644'> +1.5250186e-12 </wgt>
<wgt id='1645'> +1.5148849e-12 </wgt>
<wgt id='1646'> +1.4911915e-12 </wgt>
<wgt id='1647'> +1.4798018e-12 </wgt>
<wgt id='1648'> +1.5683331e-12 </wgt>
<wgt id='1649'> +1.6129407e-12 </wgt>
<wgt id='1650'> +1.5416137e-12 </wgt>
<wgt id='1651'> +1.4831469e-12 </wgt>
<wgt id='1652'> +1.5149845e-12 </wgt>
<wgt id='1653'> +1.6003059e-12 </wgt>
<wgt id='1654'> +1.4695938e-12 </wgt>
<wgt id='1655'> +1.5660525e-12 </wgt>
<wgt id='1656'> +1.5996320e-12 </wgt>
<wgt id='1657'> +1.4832183e-12 </wgt>
<wgt id='1658'> +1.5195006e-12 </wgt>
<wgt id='1659'> +1.5406114e-12 </wgt>
<wgt id='1660'> +1.5333136e-12 </wgt>
<wgt id='1661'> +1.5003372e-12 </wgt>
<wgt id='1662'> +1.5280270e-12 </wgt>
<wgt id='1663'> +1.4550703e-12 </wgt>
<wgt id='1664'> +1.5395362e-12 </wgt>
<wgt id='1665'> +1.4338612e-12 </wgt>
<wgt id='1666'> +1.5061365e-12 </wgt>
<wgt id='1667'> +1.4887644e-12 </wgt>
<wgt id='1668'> +1.4716092e-12 </wgt>
<wgt id='1669'> +1.5181350e-12 </wgt>
<wgt id='1670'> +1.5021517e-12 </wgt>
<wgt id='1671'> +1.5321929e-12 </wgt>
<wgt id='1672'> +1.5611298e-12 </wgt>
<wgt id='1673'> +1.5224041e-12 </wgt>
<wgt id='1674'> +1.5079639e-12 </wgt>
<wgt id='1675'> +1.5257199e-12 </wgt>
<wgt id='1676'> +1.5312651e-12 </wgt>
<wgt id='1677'> +1.5136660e-12 </wgt>
<wgt id='1678'> +1.5058184e-12 </wgt>
<wgt id='1679'> +1.4183863e-12 </wgt>
<wgt id='1680'> +1.5663146e-12 </wgt>
<wgt id='1681'> +1.4634749e-12 </wgt>
<wgt id='1682'> +1.4776547e-12 </wgt>
<wgt id='1683'> +1.5053081e-12 </wgt>
<wgt id='1684'> +1.4962334e-12 </wgt>
<wgt id='1685'> +1.5415180e-12 </wgt>
<wgt id='1686'> +1.5094961e-12 </wgt>
<wgt id='1687'> +1.4874910e-12 </wgt>
<wgt id='1688'> +1.5886268e-12 </wgt>
<wgt id='1689'> +1.5521952e-12 </wgt>
<wgt id='1690'> +1.4669811e-12 </wgt>
<wgt id='1691'> +1.4841300e-12 </wgt>
<wgt id='1692'> +1.5083009e-12 </wgt>
<wgt id='1693'> +1.4632469e-12 </wgt>
<wgt id='1694'> +1.5593796e-12 </wgt>
<wgt id='1695'> +1.5712945e-12 </wgt>
<wgt id='1696'> +1.4708323e-12 </wgt>
<wgt id='1697'> +1.5021009e-12 </wgt>
<wgt id='1698'> +1.5194387e-12 </wgt>
<wgt id='1699'> +1.5005998e-12 </wgt>
<wgt id='1700'> +1.5047049e-12 </wgt>
<wgt id='1701'> +1.5445817e-12 </wgt>
<wgt id='1702'> +1.4805340e-12 </wgt>
<wgt id='1703'> +1.5433161e-12 </wgt>
<wgt id='1704'> +1.5785202e-12 </wgt>
<wgt id='1705'> +1.4955053e-12 </wgt>
<wgt id='1706'> +1.5576995e-12 </wgt>
<wgt id='1707'> +1.4968336e-12 </wgt>
<wgt id='1708'> +1.5104445e-12 </wgt>
<wgt id='1709'> +1.5237295e-12 </wgt>
<wgt id='1710'> +1.4728871e-12 </wgt>
<wgt id='1711'> +1.4606895e-12 </wgt>
<wgt id='1712'> +1.5293340e-12 </wgt>
<wgt id='1713'> +1.3795266e-12 </wgt>
<wgt id='1714'> +1.3708554e-12 </wgt>
<wgt id='1715'> +1.3820113e-12 </wgt>
<wgt id='1716'> +1.4404413e-12 </wgt>
<wgt id='1717'> +1.3158358e-12 </wgt>
<wgt id='1718'> +1.4201124e-12 </wgt>
<wgt id='1719'> +1.3770424e-12 </wgt>
<wgt id='1720'> +1.3659709e-12 </wgt>
<wgt id='1721'> +1.3873366e-12 </wgt>
<wgt id='1722'> +1.3829703e-12 </wgt>
<wgt id='1723'> +1.4442914e-12 </wgt>
<wgt id='1724'> +1.3612637e-12 </wgt>
<wgt id='1725'> +1.3721705e-12 </wgt>
<wgt id='1726'> +1.3316290e-12 </wgt>
<wgt id='1727'> +1.4449333e-12 </wgt>
<wgt id='1728'> +1.3826260e-12 </wgt>
<wgt id='1729'> +1.3780185e-12 </wgt>
<wgt id='1730'> +1.4088633e-12 </wgt>
<wgt id='1731'> +1.3804687e-12 </wgt>
<wgt id='1732'> +1.3670235e-12 </wgt>
<wgt id='1733'> +1.4003709e-12 </wgt>
<wgt id='1734'> +1.3797151e-12 </wgt>
<wgt id='1735'> +1.3914719e-12 </wgt>
<wgt id='1736'> +1.3736647e-12 </wgt>
<wgt id='1737'> +1.4141892e-12 </wgt>
<wgt id='1738'> +1.3679908e-12 </wgt>
<wgt id='1739'> +1.3541369e-12 </wgt>
<wgt id='1740'> +1.3608204e-12 </wgt>
<wgt id='1741'> +1.4200127e-12 </wgt>
<wgt id='1742'> +1.4239060e-12 </wgt>
<wgt id='1743'> +1.3891709e-12 </wgt>
<wgt id='1744'> +1.3896383e-12 </wgt>
<wgt id='1745'> +1.3511845e-12 </wgt>
<wgt id='1746'> +1.3505145e-12 </wgt>
<wgt id='1747'> +1.3898171e-12 </wgt>
<wgt id='1748'> +1.3833142e-12 </wgt>
<wgt id='1749'> +1.3548999e-12 </wgt>
<wgt id='1750'> +1.3959048e-12 </wgt>
<wgt id='1751'> +1.3605560e-12 </wgt>
<wgt id='1752'> +1.3471420e-12 </wgt>
<wgt id='1753'> +1.3731040e-12 </wgt>
<wgt id='1754'> +1.3572578e-12 </wgt>
<wgt id='1755'> +1.3510213e-12 </wgt>
<wgt id='1756'> +1.3687968e-12 </wgt>
<wgt id='1757'> +1.4177986e-12 </wgt>
<wgt id='1758'> +1.4522058e-12 </wgt>
<wgt id='1759'> +1.3857396e-12 </wgt>
<wgt id='1760'> +1.3756098e-12 </wgt>
<wgt id='1761'> +1.3799393e-12 </wgt>
<wgt id='1762'> +1.3952499e-12 </wgt>
<wgt id='1763'> +1.3870654e-12 </wgt>
<wgt id='1764'> +1.3947290e-12 </wgt>
<wgt id='1765'> +1.3912900e-12 </wgt>
<wgt id='1766'> +1.4136632e-12 </wgt>
<wgt id='1767'> +1.3197463e-12 </wgt>
<wgt id='1768'> +1.3710237e-12 </wgt>
<wgt id='1769'> +1.4210819e-12 </wgt>
<wgt id='1770'> +1.3339797e-12 </wgt>
<wgt id='1771'> +1.4084035e-12 </wgt>
<wgt id='1772'> +1.4216010e-12 </wgt>
<wgt id='1773'> +1.3755746e-12 </wgt>
<wgt id='1774'> +1.3713710e-12 </wgt>
<wgt id='1775'> +1.4266200e-12 </wgt>
<wgt id='1776'> +1.3492386e-12 </wgt>
<wgt id='1777'> +1.4067971e-12 </wgt>
<wgt id='1778'> +1.3032615e-12 </wgt>
<wgt id='1779'> +1.4007216e-12 </wgt>
<wgt id='1780'> +1.3909710e-12 </wgt>
<wgt id='1781'> +1.3736854e-12 </wgt>
<wgt id='1782'> +1.3315035e-12 </wgt>
<wgt id='1783'> +1.3782342e-12 </wgt>
<wgt id='1784'> +1.3531261e-12 </wgt>
<wgt id='1785'> +1.3718127e-12 </wgt>
<wgt id='1786'> +1.3491064e-12 </wgt>
<wgt id='1787'> +1.4277774e-12 </wgt>
<wgt id='1788'> +1.3751510e-12 </wgt>
<wgt id='1789'> +1.3980618e-12 </wgt>
<wgt id='1790'> +1.3557415e-12 </wgt>
<wgt id='1791'> +1.3312711e-12 </wgt>
<wgt id='1792'> +1.3544899e-12 </wgt>
<wgt id='1793'> +1.3565331e-12 </wgt>
<wgt id='1794'> +1.3783490e-12 </wgt>
<wgt id='1795'> +1.3662821e-12 </wgt>
<wgt id='1796'> +1.3851412e-12 </wgt>
<wgt id='1797'> +1.3957043e-12 </wgt>
<wgt id='1798'> +1.4120325e-12 </wgt>
<wgt id='1799'> +1.3859764e-12 </wgt>
<wgt id='1800'> +1.4149629e-12 </wgt>
<wgt id='1801'> +1.3637830e-12 </wgt>
<wgt id='1802'> +1.3529304e-12 </wgt>
<wgt id='1803'> +1.3795328e-12 </wgt>
<wgt id='1804'> +1.3720859e-12 </wgt>
<wgt id='1805'> +1.3409319e-12 </wgt>
<wgt id='1806'> +1.3839627e-12 </wgt>
<wgt id='1807'> +1.4106957e-12 </wgt>
<wgt id='1808'> +1.4391354e-12 </wgt>
<wgt id='1809'> +1.3269821e-12 </wgt>
<wgt id='1810'> +1.3613204e-12 </wgt>
<wgt id='1811'> +1.3485570e-12 </wgt>
<wgt id='1812'> +1.3538284e-12 </wgt>
<wgt id='1813'> +1.3628488e-12 </wgt>
<wgt id='1814'> +1.2126117e-12 </wgt>
<wgt id='1815'> +1.3212791e-12 </wgt>
<wgt id='1816'> +1.3795266e-12 </wgt>
<wgt id='1817'> +1.3708554e-12 </wgt>
<wgt id='1818'> +1.3820113e-12 </wgt>
<wgt id='1819'> +1.4404413e-12 </wgt>
<wgt id='1820'> +1.3158358e-12 </wgt>
<wgt id='1821'> +1.4201124e-12 </wgt>
<wgt id='1822'> +1.3770424e-12 </wgt>
<wgt id='1823'> +1.3659709e-12 </wgt>
<wgt id='1824'> +1.3873366e-12 </wgt>
<wgt id='1825'> +1.3829703e-12 </wgt>
<wgt id='1826'> +1.4442914e-12 </wgt>
<wgt id='1827'> +1.3612637e-12 </wgt>
<wgt id='1828'> +1.3721705e-12 </wgt>
<wgt id='1829'> +1.3316290e-12 </wgt>
<wgt id='1830'> +1.4449333e-12 </wgt>
<wgt id='1831'> +1.3826260e-12 </wgt>
<wgt id='1832'> +1.3780185e-12 </wgt>
<wgt id='1833'> +1.4088633e-12 </wgt>
<wgt id='1834'> +1.3804687e-12 </wgt>
<wgt id='1835'> +1.3670235e-12 </wgt>
<wgt id='1836'> +1.4003709e-12 </wgt>
<wgt id='1837'> +1.3797151e-12 </wgt>
<wgt id='1838'> +1.3914719e-12 </wgt>
<wgt id='1839'> +1.3736647e-12 </wgt>
<wgt id='1840'> +1.4141892e-12 </wgt>
<wgt id='1841'> +1.3679908e-12 </wgt>
<wgt id='1842'> +1.3541369e-12 </wgt>
<wgt id='1843'> +1.3608204e-12 </wgt>
<wgt id='1844'> +1.4200127e-12 </wgt>
<wgt id='1845'> +1.4239060e-12 </wgt>
<wgt id='1846'> +1.3891709e-12 </wgt>
<wgt id='1847'> +1.3896383e-12 </wgt>
<wgt id='1848'> +1.3511845e-12 </wgt>
<wgt id='1849'> +1.3505145e-12 </wgt>
<wgt id='1850'> +1.3898171e-12 </wgt>
<wgt id='1851'> +1.3833142e-12 </wgt>
<wgt id='1852'> +1.3548999e-12 </wgt>
<wgt id='1853'> +1.3959048e-12 </wgt>
<wgt id='1854'> +1.3605560e-12 </wgt>
<wgt id='1855'> +1.3471420e-12 </wgt>
<wgt id='1856'> +1.3731040e-12 </wgt>
<wgt id='1857'> +1.3572578e-12 </wgt>
<wgt id='1858'> +1.3510213e-12 </wgt>
<wgt id='1859'> +1.3687968e-12 </wgt>
<wgt id='1860'> +1.4177986e-12 </wgt>
<wgt id='1861'> +1.4522058e-12 </wgt>
<wgt id='1862'> +1.3857396e-12 </wgt>
<wgt id='1863'> +1.3756098e-12 </wgt>
<wgt id='1864'> +1.3799393e-12 </wgt>
<wgt id='1865'> +1.3952499e-12 </wgt>
<wgt id='1866'> +1.3870654e-12 </wgt>
<wgt id='1867'> +1.3947290e-12 </wgt>
<wgt id='1868'> +1.3912900e-12 </wgt>
<wgt id='1869'> +1.4136632e-12 </wgt>
<wgt id='1870'> +1.3197463e-12 </wgt>
<wgt id='1871'> +1.3710237e-12 </wgt>
<wgt id='1872'> +1.4210819e-12 </wgt>
<wgt id='1873'> +1.3339797e-12 </wgt>
<wgt id='1874'> +1.4084035e-12 </wgt>
<wgt id='1875'> +1.4216010e-12 </wgt>
<wgt id='1876'> +1.3755746e-12 </wgt>
<wgt id='1877'> +1.3713710e-12 </wgt>
<wgt id='1878'> +1.4266200e-12 </wgt>
<wgt id='1879'> +1.3492386e-12 </wgt>
<wgt id='1880'> +1.4067971e-12 </wgt>
<wgt id='1881'> +1.3032615e-12 </wgt>
<wgt id='1882'> +1.4007216e-12 </wgt>
<wgt id='1883'> +1.3909710e-12 </wgt>
<wgt id='1884'> +1.3736854e-12 </wgt>
<wgt id='1885'> +1.3315035e-12 </wgt>
<wgt id='1886'> +1.3782342e-12 </wgt>
<wgt id='1887'> +1.3531261e-12 </wgt>
<wgt id='1888'> +1.3718127e-12 </wgt>
<wgt id='1889'> +1.3491064e-12 </wgt>
<wgt id='1890'> +1.4277774e-12 </wgt>
<wgt id='1891'> +1.3751510e-12 </wgt>
<wgt id='1892'> +1.3980618e-12 </wgt>
<wgt id='1893'> +1.3557415e-12 </wgt>
<wgt id='1894'> +1.3312711e-12 </wgt>
<wgt id='1895'> +1.3544899e-12 </wgt>
<wgt id='1896'> +1.3565331e-12 </wgt>
<wgt id='1897'> +1.3783490e-12 </wgt>
<wgt id='1898'> +1.3662821e-12 </wgt>
<wgt id='1899'> +1.3851412e-12 </wgt>
<wgt id='1900'> +1.3957043e-12 </wgt>
<wgt id='1901'> +1.4120325e-12 </wgt>
<wgt id='1902'> +1.3859764e-12 </wgt>
<wgt id='1903'> +1.4149629e-12 </wgt>
<wgt id='1904'> +1.3637830e-12 </wgt>
<wgt id='1905'> +1.3529304e-12 </wgt>
<wgt id='1906'> +1.3795328e-12 </wgt>
<wgt id='1907'> +1.3720859e-12 </wgt>
<wgt id='1908'> +1.3409319e-12 </wgt>
<wgt id='1909'> +1.3839627e-12 </wgt>
<wgt id='1910'> +1.4106957e-12 </wgt>
<wgt id='1911'> +1.4391354e-12 </wgt>
<wgt id='1912'> +1.3269821e-12 </wgt>
<wgt id='1913'> +1.3613204e-12 </wgt>
<wgt id='1914'> +1.3485570e-12 </wgt>
<wgt id='1915'> +1.3538284e-12 </wgt>
<wgt id='1916'> +1.3628488e-12 </wgt>
<wgt id='1917'> +1.3605519e-12 </wgt>
<wgt id='1918'> +1.3983678e-12 </wgt>
<wgt id='1919'> +1.3096089e-12 </wgt>
</rwgt>
</event>
<event>
 9      1 +1.5538000e-12 3.68038200e+01 7.81860800e-03 1.39089000e-01
        2 -1    0    0  502    0 +0.0000000000e+00 +0.0000000000e+00 +9.3194591824e+01 9.3194591824e+01 0.0000000000e+00 0.0000e+00 1.0000e+00
       -2 -1    0    0    0  501 -0.0000000000e+00 -0.0000000000e+00 -2.5882393460e+01 2.5882393460e+01 0.0000000000e+00 0.0000e+00 -1.0000e+00
     1023  2    1    2    0    0 +2.2089822707e+01 -2.5328999918e+01 +7.5931710042e+01 8.4380955458e+01 1.5000085002e+01 0.0000e+00 0.0000e+00
  1000023  2    3    3    0    0 +2.0692645226e+01 -2.1360353687e+01 +6.3595487170e+01 7.0420846126e+01 5.5008458108e+00 0.0000e+00 0.0000e+00
       21  1    1    2  502  501 -2.2089822707e+01 +2.5328999918e+01 -8.6195116775e+00 3.4696029825e+01 0.0000000000e+00 0.0000e+00 -1.0000e+00
  1000022  1    4    4    0    0 +1.7908956087e+01 -1.8835036084e+01 +5.5902746149e+01 6.1851485992e+01 5.0000000000e+00 0.0000e+00 1.0000e+00
      -11  1    4    4    0    0 +2.9221837175e-01 -3.0772117573e-01 +6.4337238324e-01 7.7072185866e-01 5.1100000000e-04 0.0000e+00 -1.0000e+00
       11  1    4    4    0    0 +2.4914707680e+00 -2.2175964264e+00 +7.0493686380e+00 7.7986382756e+00 5.1100000000e-04 0.0000e+00 1.0000e+00
  1000022  1    3    3    0    0 +1.3971774808e+00 -3.9686462311e+00 +1.2336222872e+01 1.3960109332e+01 5.0000000000e+00 0.0000e+00 1.0000e+00
<mgrwt>
<rscale>  1 0.36803818E+02</rscale>
<asrwt>0</asrwt>
<pdfrwt beam="1">  1        2 0.14337629E-01 0.36803818E+02</pdfrwt>
<pdfrwt beam="2">  1       -2 0.39819067E-02 0.36803818E+02</pdfrwt>
<totfact> 0.10500730E+05</totfact>
</mgrwt>
<rwgt>
<wgt id='1001'> +1.5538000e-12 </wgt>
<wgt id='1002'> +1.5484842e-12 </wgt>
<wgt id='1003'> +1.5477874e-12 </wgt>
<wgt id='1004'> +1.5536017e-12 </wgt>
<wgt id='1005'> +1.5395001e-12 </wgt>
<wgt id='1006'> +1.3669563e-12 </wgt>
<wgt id='1007'> +1.3812175e-12 </wgt>
<wgt id='1008'> +1.3815584e-12 </wgt>
<wgt id='1009'> +1.3652223e-12 </wgt>
<wgt id='1010'> +1.3827390e-12 </wgt>
<wgt id='1011'> +1.8025921e-12 </wgt>
<wgt id='1012'> +1.7637460e-12 </wgt>
<wgt id='1013'> +1.7613581e-12 </wgt>
<wgt id='1014'> +1.8051825e-12 </wgt>
<wgt id='1015'> +1.7378888e-12 </wgt>
<wgt id='1016'> +1.7582687e-12 </wgt>
<wgt id='1017'> +1.7142831e-12 </wgt>
<wgt id='1018'> +1.7117060e-12 </wgt>
<wgt id='1019'> +1.7613581e-12 </wgt>
<wgt id='1020'> +1.6865361e-12 </wgt>
<wgt id='1021'> +1.5468377e-12 </wgt>
<wgt id='1022'> +1.5291069e-12 </wgt>
<wgt id='1023'> +1.5278726e-12 </wgt>
<wgt id='1024'> +1.5477874e-12 </wgt>
<wgt id='1025'> +1.5148029e-12 </wgt>
<wgt id='1026'> +2.0397999e-12 </wgt>
<wgt id='1027'> +1.9525934e-12 </wgt>
<wgt id='1028'> +1.9478949e-12 </wgt>
<wgt id='1029'> +2.0465816e-12 </wgt>
<wgt id='1030'> +1.9038726e-12 </wgt>
<wgt id='1031'> +1.3259042e-12 </wgt>
<wgt id='1032'> +1.3637892e-12 </wgt>
<wgt id='1033'> +1.3652223e-12 </wgt>
<wgt id='1034'> +1.3220431e-12 </wgt>
<wgt id='1035'> +1.3757081e-12 </wgt>
<wgt id='1036'> +1.1664648e-12 </wgt>
<wgt id='1037'> +1.2164732e-12 </wgt>
<wgt id='1038'> +1.2186004e-12 </wgt>
<wgt id='1039'> +1.1617408e-12 </wgt>
<wgt id='1040'> +1.2356253e-12 </wgt>
<wgt id='1041'> +1.5382059e-12 </wgt>
<wgt id='1042'> +1.5533757e-12 </wgt>
<wgt id='1043'> +1.5536017e-12 </wgt>
<wgt id='1044'> +1.5361266e-12 </wgt>
<wgt id='1045'> +1.5529896e-12 </wgt>
<wgt id='1046'> +1.5538000e-12 </wgt>
<wgt id='1047'> +1.6745530e-12 </wgt>
<wgt id='1048'> +1.5243448e-12 </wgt>
<wgt id='1049'> +1.4968626e-12 </wgt>
<wgt id='1050'> +1.5197070e-12 </wgt>
<wgt id='1051'> +1.5308538e-12 </wgt>
<wgt id='1052'> +1.5930973e-12 </wgt>
<wgt id='1053'> +1.5426571e-12 </wgt>
<wgt id='1054'> +1.5176306e-12 </wgt>
<wgt id='1055'> +1.4784511e-12 </wgt>
<wgt id='1056'> +1.5360428e-12 </wgt>
<wgt id='1057'> +1.5845941e-12 </wgt>
<wgt id='1058'> +1.4888298e-12 </wgt>
<wgt id='1059'> +1.5421956e-12 </wgt>
<wgt id='1060'> +1.5861603e-12 </wgt>
<wgt id='1061'> +1.5537421e-12 </wgt>
<wgt id='1062'> +1.5623641e-12 </wgt>
<wgt id='1063'> +1.5858420e-12 </wgt>
<wgt id='1064'> +1.5298571e-12 </wgt>
<wgt id='1065'> +1.5534136e-12 </wgt>
<wgt id='1066'> +1.4930212e-12 </wgt>
<wgt id='1067'> +1.5029316e-12 </wgt>
<wgt id='1068'> +1.5640484e-12 </wgt>
<wgt id='1069'> +1.5739758e-12 </wgt>
<wgt id='1070'> +1.5148688e-12 </wgt>
<wgt id='1071'> +1.4895506e-12 </wgt>
<wgt id='1072'> +1.6226961e-12 </wgt>
<wgt id='1073'> +1.5925192e-12 </wgt>
<wgt id='1074'> +1.5404687e-12 </wgt>
<wgt id='1075'> +1.5896772e-12 </wgt>
<wgt id='1076'> +1.5641311e-12 </wgt>
<wgt id='1077'> +1.5991560e-12 </wgt>
<wgt id='1078'> +1.5035388e-12 </wgt>
<wgt id='1079'> +1.5543341e-12 </wgt>
<wgt id='1080'> +1.5290333e-12 </wgt>
<wgt id='1081'> +1.5977162e-12 </wgt>
<wgt id='1082'> +1.5396884e-12 </wgt>
<wgt id='1083'> +1.5404766e-12 </wgt>
<wgt id='1084'> +1.5257745e-12 </wgt>
<wgt id='1085'> +1.5478015e-12 </wgt>
<wgt id='1086'> +1.5901563e-12 </wgt>
<wgt id='1087'> +1.5728325e-12 </wgt>
<wgt id='1088'> +1.5726597e-12 </wgt>
<wgt id='1089'> +1.5846314e-12 </wgt>
<wgt id='1090'> +1.5908740e-12 </wgt>
<wgt id='1091'> +1.5833546e-12 </wgt>
<wgt id='1092'> +1.6030149e-12 </wgt>
<wgt id='1093'> +1.5645592e-12 </wgt>
<wgt id='1094'> +1.5677288e-12 </wgt>
<wgt id='1095'> +1.5984924e-12 </wgt>
<wgt id='1096'> +1.5838033e-12 </wgt>
<wgt id='1097'> +1.5489327e-12 </wgt>
<wgt id='1098'> +1.5080778e-12 </wgt>
<wgt id='1099'> +1.5756032e-12 </wgt>
<wgt id='1100'> +1.5767065e-12 </wgt>
<wgt id='1101'> +1.6240996e-12 </wgt>
<wgt id='1102'> +1.5290456e-12 </wgt>
<wgt id='1103'> +1.5697578e-12 </wgt>
<wgt id='1104'> +1.5068104e-12 </wgt>
<wgt id='1105'> +1.5550583e-12 </wgt>
<wgt id='1106'> +1.6055691e-12 </wgt>
<wgt id='1107'> +1.5602319e-12 </wgt>
<wgt id='1108'> +1.5348550e-12 </wgt>
<wgt id='1109'> +1.5927676e-12 </wgt>
<wgt id='1110'> +1.5369108e-12 </wgt>
<wgt id='1111'> +1.5739660e-12 </wgt>
<wgt id='1112'> +1.6325417e-12 </wgt>
<wgt id='1113'> +1.6229953e-12 </wgt>
<wgt id='1114'> +1.5724930e-12 </wgt>
<wgt id='1115'> +1.5526853e-12 </wgt>
<wgt id='1116'> +1.5452029e-12 </wgt>
<wgt id='1117'> +1.5203038e-12 </wgt>
<wgt id='1118'> +1.6013521e-12 </wgt>
<wgt id='1119'> +1.4406515e-12 </wgt>
<wgt id='1120'> +1.4925429e-12 </wgt>
<wgt id='1121'> +1.5354964e-12 </wgt>
<wgt id='1122'> +1.6346783e-12 </wgt>
<wgt id='1123'> +1.4760690e-12 </wgt>
<wgt id='1124'> +1.5447682e-12 </wgt>
<wgt id='1125'> +1.5408600e-12 </wgt>
<wgt id='1126'> +1.6251442e-12 </wgt>
<wgt id='1127'> +1.5302739e-12 </wgt>
<wgt id='1128'> +1.5623641e-12 </wgt>
<wgt id='1129'> +1.5941756e-12 </wgt>
<wgt id='1130'> +1.5256859e-12 </wgt>
<wgt id='1131'> +1.5281961e-12 </wgt>
<wgt id='1132'> +1.5949969e-12 </wgt>
<wgt id='1133'> +1.4965373e-12 </wgt>
<wgt id='1134'> +1.5969453e-12 </wgt>
<wgt id='1135'> +1.4839813e-12 </wgt>
<wgt id='1136'> +1.5405124e-12 </wgt>
<wgt id='1137'> +1.5445658e-12 </wgt>
<wgt id='1138'> +1.5404586e-12 </wgt>
<wgt id='1139'> +1.5364978e-12 </wgt>
<wgt id='1140'> +1.5664177e-12 </wgt>
<wgt id='1141'> +1.5013956e-12 </wgt>
<wgt id='1142'> +1.5455278e-12 </wgt>
<wgt id='1143'> +1.6039980e-12 </wgt>
<wgt id='1144'> +1.5369405e-12 </wgt>
<wgt id='1145'> +1.5203806e-12 </wgt>
<wgt id='1146'> +1.5132299e-12 </wgt>
<wgt id='1147'> +1.1943578e-12 </wgt>
<wgt id='1148'> +1.2200836e-12 </wgt>
<wgt id='1149'> +1.3224146e-12 </wgt>
<wgt id='1150'> +1.2321414e-12 </wgt>
<wgt id='1151'> +1.1116742e-12 </wgt>
<wgt id='1152'> +1.3441375e-12 </wgt>
<wgt id='1153'> +1.3368058e-12 </wgt>
<wgt id='1154'> +1.3483651e-12 </wgt>
<wgt id='1155'> +1.3419428e-12 </wgt>
<wgt id='1156'> +1.3452773e-12 </wgt>
<wgt id='1157'> +1.3519745e-12 </wgt>
<wgt id='1158'> +1.3336005e-12 </wgt>
<wgt id='1159'> +1.3507705e-12 </wgt>
<wgt id='1160'> +1.3399164e-12 </wgt>
<wgt id='1161'> +1.3452311e-12 </wgt>
<wgt id='1162'> +1.3433879e-12 </wgt>
<wgt id='1163'> +1.3475563e-12 </wgt>
<wgt id='1164'> +1.3407558e-12 </wgt>
<wgt id='1165'> +1.3421886e-12 </wgt>
<wgt id='1166'> +1.3459495e-12 </wgt>
<wgt id='1167'> +1.3459699e-12 </wgt>
<wgt id='1168'> +1.3409591e-12 </wgt>
<wgt id='1169'> +1.3432242e-12 </wgt>
<wgt id='1170'> +1.3448354e-12 </wgt>
<wgt id='1171'> +1.3388267e-12 </wgt>
<wgt id='1172'> +1.3503268e-12 </wgt>
<wgt id='1173'> +1.3354613e-12 </wgt>
<wgt id='1174'> +1.3517848e-12 </wgt>
<wgt id='1175'> +1.3425846e-12 </wgt>
<wgt id='1176'> +1.3447690e-12 </wgt>
<wgt id='1177'> +1.3445440e-12 </wgt>
<wgt id='1178'> +1.3431193e-12 </wgt>
<wgt id='1179'> +1.3472026e-12 </wgt>
<wgt id='1180'> +1.3360177e-12 </wgt>
<wgt id='1181'> +1.3398691e-12 </wgt>
<wgt id='1182'> +1.3481516e-12 </wgt>
<wgt id='1183'> +1.3419495e-12 </wgt>
<wgt id='1184'> +1.3443280e-12 </wgt>
<wgt id='1185'> +1.3320133e-12 </wgt>
<wgt id='1186'> +1.3509571e-12 </wgt>
<wgt id='1187'> +1.3436729e-12 </wgt>
<wgt id='1188'> +1.3442981e-12 </wgt>
<wgt id='1189'> +1.3403153e-12 </wgt>
<wgt id='1190'> +1.3380172e-12 </wgt>
<wgt id='1191'> +1.3441102e-12 </wgt>
<wgt id='1192'> +1.3424223e-12 </wgt>
<wgt id='1193'> +1.2270348e-12 </wgt>
<wgt id='1194'> +1.2269297e-12 </wgt>
<wgt id='1195'> +1.2270929e-12 </wgt>
<wgt id='1196'> +1.2363993e-12 </wgt>
<wgt id='1197'> +1.2166403e-12 </wgt>
<wgt id='1198'> +1.2246313e-12 </wgt>
<wgt id='1199'> +1.2306006e-12 </wgt>
<wgt id='1200'> +1.2283883e-12 </wgt>
<wgt id='1201'> +1.2261538e-12 </wgt>
<wgt id='1202'> +1.2272155e-12 </wgt>
<wgt id='1203'> +1.2268025e-12 </wgt>
<wgt id='1204'> +1.2275672e-12 </wgt>
<wgt id='1205'> +1.2267063e-12 </wgt>
<wgt id='1206'> +1.2292324e-12 </wgt>
<wgt id='1207'> +1.2240449e-12 </wgt>
<wgt id='1208'> +1.2218082e-12 </wgt>
<wgt id='1209'> +1.2288910e-12 </wgt>
<wgt id='1210'> +1.2322722e-12 </wgt>
<wgt id='1211'> +1.2154317e-12 </wgt>
<wgt id='1212'> +1.2295212e-12 </wgt>
<wgt id='1213'> +1.2246198e-12 </wgt>
<wgt id='1214'> +1.2102859e-12 </wgt>
<wgt id='1215'> +1.2556207e-12 </wgt>
<wgt id='1216'> +1.2302457e-12 </wgt>
<wgt id='1217'> +1.2242908e-12 </wgt>
<wgt id='1218'> +1.2276628e-12 </wgt>
<wgt id='1219'> +1.2265071e-12 </wgt>
<wgt id='1220'> +1.2299498e-12 </wgt>
<wgt id='1221'> +1.2265054e-12 </wgt>
<wgt id='1222'> +1.2278262e-12 </wgt>
<wgt id='1223'> +1.2217080e-12 </wgt>
<wgt id='1224'> +1.2292999e-12 </wgt>
<wgt id='1225'> +1.2261470e-12 </wgt>
<wgt id='1226'> +1.2217055e-12 </wgt>
<wgt id='1227'> +1.2306150e-12 </wgt>
<wgt id='1228'> +1.2201875e-12 </wgt>
<wgt id='1229'> +1.2295718e-12 </wgt>
<wgt id='1230'> +1.2169559e-12 </wgt>
<wgt id='1231'> +1.2273790e-12 </wgt>
<wgt id='1232'> +1.2270449e-12 </wgt>
<wgt id='1233'> +1.2269572e-12 </wgt>
<wgt id='1234'> +1.2270348e-12 </wgt>
<wgt id='1235'> +1.2178817e-12 </wgt>
<wgt id='1236'> +1.2212772e-12 </wgt>
<wgt id='1237'> +1.2243541e-12 </wgt>
<wgt id='1238'> +1.2294221e-12 </wgt>
<wgt id='1239'> +1.2315656e-12 </wgt>
<wgt id='1240'> +1.2335614e-12 </wgt>
<wgt id='1241'> +1.2478465e-12 </wgt>
<wgt id='1242'> +1.2450947e-12 </wgt>
<wgt id='1243'> +1.2505845e-12 </wgt>
<wgt id='1244'> +1.2400993e-12 </wgt>
<wgt id='1245'> +1.2535360e-12 </wgt>
<wgt id='1246'> +1.2467866e-12 </wgt>
<wgt id='1247'> +1.2487483e-12 </wgt>
<wgt id='1248'> +1.2477961e-12 </wgt>
<wgt id='1249'> +1.2478812e-12 </wgt>
<wgt id='1250'> +1.2549512e-12 </wgt>
<wgt id='1251'> +1.2428505e-12 </wgt>
<wgt id='1252'> +1.2457485e-12 </wgt>
<wgt id='1253'> +1.2494947e-12 </wgt>
<wgt id='1254'> +1.2480422e-12 </wgt>
<wgt id='1255'> +1.2477235e-12 </wgt>
<wgt id='1256'> +1.2498633e-12 </wgt>
<wgt id='1257'> +1.2427101e-12 </wgt>
<wgt id='1258'> +1.2701092e-12 </wgt>
<wgt id='1259'> +1.2283649e-12 </wgt>
<wgt id='1260'> +1.2496239e-12 </wgt>
<wgt id='1261'> +1.2458987e-12 </wgt>
<wgt id='1262'> +1.2442617e-12 </wgt>
<wgt id='1263'> +1.2489613e-12 </wgt>
<wgt id='1264'> +1.2451252e-12 </wgt>
<wgt id='1265'> +1.2489419e-12 </wgt>
<wgt id='1266'> +1.2430549e-12 </wgt>
<wgt id='1267'> +1.2508912e-12 </wgt>
<wgt id='1268'> +1.2490928e-12 </wgt>
<wgt id='1269'> +1.2483574e-12 </wgt>
<wgt id='1270'> +1.2439352e-12 </wgt>
<wgt id='1271'> +1.2419265e-12 </wgt>
<wgt id='1272'> +1.2465810e-12 </wgt>
<wgt id='1273'> +1.2476799e-12 </wgt>
<wgt id='1274'> +1.2514782e-12 </wgt>
<wgt id='1275'> +1.2414246e-12 </wgt>
<wgt id='1276'> +1.2524300e-12 </wgt>
<wgt id='1277'> +1.2404704e-12 </wgt>
<wgt id='1278'> +1.2486063e-12 </wgt>
<wgt id='1279'> +1.2423766e-12 </wgt>
<wgt id='1280'> +1.2479525e-12 </wgt>
<wgt id='1281'> +1.2459095e-12 </wgt>
<wgt id='1282'> +1.2478465e-12 </wgt>
<wgt id='1283'> +1.2379567e-12 </wgt>
<wgt id='1284'> +1.2417499e-12 </wgt>
<wgt id='1285'> +1.2450212e-12 </wgt>
<wgt id='1286'> +1.2503312e-12 </wgt>
<wgt id='1287'> +1.2524957e-12 </wgt>
<wgt id='1288'> +1.2541280e-12 </wgt>
<wgt id='1289'> +1.2671847e-12 </wgt>
<wgt id='1290'> +1.2663919e-12 </wgt>
<wgt id='1291'> +1.2680441e-12 </wgt>
<wgt id='1292'> +1.2572469e-12 </wgt>
<wgt id='1293'> +1.2743773e-12 </wgt>
<wgt id='1294'> +1.2632691e-12 </wgt>
<wgt id='1295'> +1.2710420e-12 </wgt>
<wgt id='1296'> +1.2637841e-12 </wgt>
<wgt id='1297'> +1.2713148e-12 </wgt>
<wgt id='1298'> +1.2675392e-12 </wgt>
<wgt id='1299'> +1.2666512e-12 </wgt>
<wgt id='1300'> +1.2681412e-12 </wgt>
<wgt id='1301'> +1.2652932e-12 </wgt>
<wgt id='1302'> +1.2656474e-12 </wgt>
<wgt id='1303'> +1.2693255e-12 </wgt>
<wgt id='1304'> +1.2676216e-12 </wgt>
<wgt id='1305'> +1.2668599e-12 </wgt>
<wgt id='1306'> +1.2686639e-12 </wgt>
<wgt id='1307'> +1.2656685e-12 </wgt>
<wgt id='1308'> +1.2741792e-12 </wgt>
<wgt id='1309'> +1.2618500e-12 </wgt>
<wgt id='1310'> +1.2695877e-12 </wgt>
<wgt id='1311'> +1.2647593e-12 </wgt>
<wgt id='1312'> +1.2735059e-12 </wgt>
<wgt id='1313'> +1.2608608e-12 </wgt>
<wgt id='1314'> +1.2641277e-12 </wgt>
<wgt id='1315'> +1.2677874e-12 </wgt>
<wgt id='1316'> +1.2737798e-12 </wgt>
<wgt id='1317'> +1.2651839e-12 </wgt>
<wgt id='1318'> +1.2729088e-12 </wgt>
<wgt id='1319'> +1.2599963e-12 </wgt>
<wgt id='1320'> +1.2761518e-12 </wgt>
<wgt id='1321'> +1.2600471e-12 </wgt>
<wgt id='1322'> +1.2646541e-12 </wgt>
<wgt id='1323'> +1.2700677e-12 </wgt>
<wgt id='1324'> +1.2620241e-12 </wgt>
<wgt id='1325'> +1.2828235e-12 </wgt>
<wgt id='1326'> +1.2628712e-12 </wgt>
<wgt id='1327'> +1.2719311e-12 </wgt>
<wgt id='1328'> +1.2691210e-12 </wgt>
<wgt id='1329'> +1.2651900e-12 </wgt>
<wgt id='1330'> +1.2394929e-12 </wgt>
<wgt id='1331'> +1.2871869e-12 </wgt>
<wgt id='1332'> +1.2820955e-12 </wgt>
<wgt id='1333'> +1.2512909e-12 </wgt>
<wgt id='1334'> +1.2604171e-12 </wgt>
<wgt id='1335'> +1.2845427e-12 </wgt>
<wgt id='1336'> +1.2652073e-12 </wgt>
<wgt id='1337'> +1.2610789e-12 </wgt>
<wgt id='1338'> +1.2645608e-12 </wgt>
<wgt id='1339'> +1.2671777e-12 </wgt>
<wgt id='1340'> +1.2289617e-12 </wgt>
<wgt id='1341'> +1.2283896e-12 </wgt>
<wgt id='1342'> +1.2295663e-12 </wgt>
<wgt id='1343'> +1.2188707e-12 </wgt>
<wgt id='1344'> +1.2357773e-12 </wgt>
<wgt id='1345'> +1.2252881e-12 </wgt>
<wgt id='1346'> +1.2324147e-12 </wgt>
<wgt id='1347'> +1.2258247e-12 </wgt>
<wgt id='1348'> +1.2323911e-12 </wgt>
<wgt id='1349'> +1.2289138e-12 </wgt>
<wgt id='1350'> +1.2289457e-12 </wgt>
<wgt id='1351'> +1.2297669e-12 </wgt>
<wgt id='1352'> +1.2272060e-12 </wgt>
<wgt id='1353'> +1.2272642e-12 </wgt>
<wgt id='1354'> +1.2319759e-12 </wgt>
<wgt id='1355'> +1.2298861e-12 </wgt>
<wgt id='1356'> +1.2284055e-12 </wgt>
<wgt id='1357'> +1.2328670e-12 </wgt>
<wgt id='1358'> +1.2245323e-12 </wgt>
<wgt id='1359'> +1.2359373e-12 </wgt>
<wgt id='1360'> +1.2229302e-12 </wgt>
<wgt id='1361'> +1.2311242e-12 </wgt>
<wgt id='1362'> +1.2262666e-12 </wgt>
<wgt id='1363'> +1.2379235e-12 </wgt>
<wgt id='1364'> +1.2230084e-12 </wgt>
<wgt id='1365'> +1.2254471e-12 </wgt>
<wgt id='1366'> +1.2290702e-12 </wgt>
<wgt id='1367'> +1.2351605e-12 </wgt>
<wgt id='1368'> +1.2270051e-12 </wgt>
<wgt id='1369'> +1.2338283e-12 </wgt>
<wgt id='1370'> +1.2228517e-12 </wgt>
<wgt id='1371'> +1.2344623e-12 </wgt>
<wgt id='1372'> +1.2224402e-12 </wgt>
<wgt id='1373'> +1.2241117e-12 </wgt>
<wgt id='1374'> +1.2330557e-12 </wgt>
<wgt id='1375'> +1.2242069e-12 </wgt>
<wgt id='1376'> +1.2445356e-12 </wgt>
<wgt id='1377'> +1.2250644e-12 </wgt>
<wgt id='1378'> +1.2334077e-12 </wgt>
<wgt id='1379'> +1.2302836e-12 </wgt>
<wgt id='1380'> +1.2273131e-12 </wgt>
<wgt id='1381'> +1.2001338e-12 </wgt>
<wgt id='1382'> +1.2474801e-12 </wgt>
<wgt id='1383'> +1.2449762e-12 </wgt>
<wgt id='1384'> +1.2114034e-12 </wgt>
<wgt id='1385'> +1.2222022e-12 </wgt>
<wgt id='1386'> +1.2451389e-12 </wgt>
<wgt id='1387'> +1.2264271e-12 </wgt>
<wgt id='1388'> +1.2214241e-12 </wgt>
<wgt id='1389'> +1.2248192e-12 </wgt>
<wgt id='1390'> +1.2290434e-12 </wgt>
<wgt id='1391'> +1.2212282e-12 </wgt>
<wgt id='1392'> +1.1683964e-12 </wgt>
<wgt id='1393'> +1.1854140e-12 </wgt>
<wgt id='1394'> +1.2038997e-12 </wgt>
<wgt id='1395'> +1.2391784e-12 </wgt>
<wgt id='1396'> +1.2224415e-12 </wgt>
<wgt id='1397'> +1.1821483e-12 </wgt>
<wgt id='1398'> +1.1915547e-12 </wgt>
<wgt id='1399'> +1.1989369e-12 </wgt>
<wgt id='1400'> +1.2061944e-12 </wgt>
<wgt id='1401'> +1.2144904e-12 </wgt>
<wgt id='1402'> +1.2289196e-12 </wgt>
<wgt id='1403'> +1.2350971e-12 </wgt>
<wgt id='1404'> +1.2403225e-12 </wgt>
<wgt id='1405'> +1.2224415e-12 </wgt>
<wgt id='1406'> +1.2192120e-12 </wgt>
<wgt id='1407'> +1.2212067e-12 </wgt>
<wgt id='1408'> +1.2237537e-12 </wgt>
<wgt id='1409'> +1.2256276e-12 </wgt>
<wgt id='1410'> +1.2729650e-12 </wgt>
<wgt id='1411'> +1.2713875e-12 </wgt>
<wgt id='1412'> +1.2750048e-12 </wgt>
<wgt id='1413'> +1.2768463e-12 </wgt>
<wgt id='1414'> +1.2691001e-12 </wgt>
<wgt id='1415'> +1.2589060e-12 </wgt>
<wgt id='1416'> +1.2786623e-12 </wgt>
<wgt id='1417'> +1.2657896e-12 </wgt>
<wgt id='1418'> +1.2801061e-12 </wgt>
<wgt id='1419'> +1.2722746e-12 </wgt>
<wgt id='1420'> +1.2736267e-12 </wgt>
<wgt id='1421'> +1.2710844e-12 </wgt>
<wgt id='1422'> +1.2737888e-12 </wgt>
<wgt id='1423'> +1.2722951e-12 </wgt>
<wgt id='1424'> +1.2737734e-12 </wgt>
<wgt id='1425'> +1.2709479e-12 </wgt>
<wgt id='1426'> +1.2751427e-12 </wgt>
<wgt id='1427'> +1.2803144e-12 </wgt>
<wgt id='1428'> +1.2687786e-12 </wgt>
<wgt id='1429'> +1.2685648e-12 </wgt>
<wgt id='1430'> +1.2788786e-12 </wgt>
<wgt id='1431'> +1.2755374e-12 </wgt>
<wgt id='1432'> +1.2711253e-12 </wgt>
<wgt id='1433'> +1.2703521e-12 </wgt>
<wgt id='1434'> +1.2750108e-12 </wgt>
<wgt id='1435'> +1.2700765e-12 </wgt>
<wgt id='1436'> +1.2797755e-12 </wgt>
<wgt id='1437'> +1.2777098e-12 </wgt>
<wgt id='1438'> +1.2715857e-12 </wgt>
<wgt id='1439'> +1.2687995e-12 </wgt>
<wgt id='1440'> +1.2828120e-12 </wgt>
<wgt id='1441'> +1.2749824e-12 </wgt>
<wgt id='1442'> +1.2697155e-12 </wgt>
<wgt id='1443'> +1.2694700e-12 </wgt>
<wgt id='1444'> +1.2802724e-12 </wgt>
<wgt id='1445'> +1.2908676e-12 </wgt>
<wgt id='1446'> +1.2659583e-12 </wgt>
<wgt id='1447'> +1.2722433e-12 </wgt>
<wgt id='1448'> +1.2753780e-12 </wgt>
<wgt id='1449'> +1.2752661e-12 </wgt>
<wgt id='1450'> +1.2710937e-12 </wgt>
<wgt id='1451'> +1.2880197e-12 </wgt>
<wgt id='1452'> +1.2358541e-12 </wgt>
<wgt id='1453'> +1.2755173e-12 </wgt>
<wgt id='1454'> +1.2544061e-12 </wgt>
<wgt id='1455'> +1.2557613e-12 </wgt>
<wgt id='1456'> +1.2818821e-12 </wgt>
<wgt id='1457'> +1.2849328e-12 </wgt>
<wgt id='1458'> +1.2673932e-12 </wgt>
<wgt id='1459'> +1.2751753e-12 </wgt>
<wgt id='1460'> +1.2668539e-12 </wgt>
<wgt id='1461'> +1.2729650e-12 </wgt>
<wgt id='1462'> +1.2520227e-12 </wgt>
<wgt id='1463'> +1.2957065e-12 </wgt>
<wgt id='1464'> +1.2737679e-12 </wgt>
<wgt id='1465'> +1.2406729e-12 </wgt>
<wgt id='1466'> +1.2489414e-12 </wgt>
<wgt id='1467'> +1.2572139e-12 </wgt>
<wgt id='1468'> +1.2609979e-12 </wgt>
<wgt id='1469'> +1.2682822e-12 </wgt>
<wgt id='1470'> +1.2790113e-12 </wgt>
<wgt id='1471'> +1.2823926e-12 </wgt>
<wgt id='1472'> +1.2874769e-12 </wgt>
<wgt id='1473'> +1.2737679e-12 </wgt>
<wgt id='1474'> +1.2696307e-12 </wgt>
<wgt id='1475'> +1.2700052e-12 </wgt>
<wgt id='1476'> +1.2757513e-12 </wgt>
<wgt id='1477'> +1.2779893e-12 </wgt>
<wgt id='1478'> +1.1948198e-12 </wgt>
<wgt id='1479'> +1.1920780e-12 </wgt>
<wgt id='1480'> +1.1967851e-12 </wgt>
<wgt id='1481'> +1.1982508e-12 </wgt>
<wgt id='1482'> +1.1890721e-12 </wgt>
<wgt id='1483'> +1.1670276e-12 </wgt>
<wgt id='1484'> +1.1918484e-12 </wgt>
<wgt id='1485'> +1.1859178e-12 </wgt>
<wgt id='1486'> +1.1958627e-12 </wgt>
<wgt id='1487'> +1.2017549e-12 </wgt>
<wgt id='1488'> +1.1938497e-12 </wgt>
<wgt id='1489'> +1.2036042e-12 </wgt>
<wgt id='1490'> +1.1885764e-12 </wgt>
<wgt id='1491'> +1.1926651e-12 </wgt>
<wgt id='1492'> +1.2000863e-12 </wgt>
<wgt id='1493'> +1.1856219e-12 </wgt>
<wgt id='1494'> +1.2144831e-12 </wgt>
<wgt id='1495'> +1.1724862e-12 </wgt>
<wgt id='1496'> +1.1916130e-12 </wgt>
<wgt id='1497'> +1.1915505e-12 </wgt>
<wgt id='1498'> +1.1946804e-12 </wgt>
<wgt id='1499'> +1.1938907e-12 </wgt>
<wgt id='1500'> +1.1964024e-12 </wgt>
<wgt id='1501'> +1.1937517e-12 </wgt>
<wgt id='1502'> +1.1951311e-12 </wgt>
<wgt id='1503'> +1.1939772e-12 </wgt>
<wgt id='1504'> +1.1874908e-12 </wgt>
<wgt id='1505'> +1.1940769e-12 </wgt>
<wgt id='1506'> +1.1922993e-12 </wgt>
<wgt id='1507'> +1.1945930e-12 </wgt>
<wgt id='1508'> +1.1977901e-12 </wgt>
<wgt id='1509'> +1.3562533e-12 </wgt>
<wgt id='1510'> +1.3564713e-12 </wgt>
<wgt id='1511'> +1.3589151e-12 </wgt>
<wgt id='1512'> +1.3568059e-12 </wgt>
<wgt id='1513'> +1.3642762e-12 </wgt>
<wgt id='1514'> +1.3569142e-12 </wgt>
<wgt id='1515'> +1.3528869e-12 </wgt>
<wgt id='1516'> +1.3547549e-12 </wgt>
<wgt id='1517'> +1.3532882e-12 </wgt>
<wgt id='1518'> +1.3662611e-12 </wgt>
<wgt id='1519'> +1.3487192e-12 </wgt>
<wgt id='1520'> +1.3526438e-12 </wgt>
<wgt id='1521'> +1.3625506e-12 </wgt>
<wgt id='1522'> +1.3537475e-12 </wgt>
<wgt id='1523'> +1.3710999e-12 </wgt>
<wgt id='1524'> +1.3594480e-12 </wgt>
<wgt id='1525'> +1.3670959e-12 </wgt>
<wgt id='1526'> +1.3518630e-12 </wgt>
<wgt id='1527'> +1.3508481e-12 </wgt>
<wgt id='1528'> +1.3616169e-12 </wgt>
<wgt id='1529'> +1.3572127e-12 </wgt>
<wgt id='1530'> +1.3685995e-12 </wgt>
<wgt id='1531'> +1.3594303e-12 </wgt>
<wgt id='1532'> +1.3473069e-12 </wgt>
<wgt id='1533'> +1.3527876e-12 </wgt>
<wgt id='1534'> +1.3636855e-12 </wgt>
<wgt id='1535'> +1.3396655e-12 </wgt>
<wgt id='1536'> +1.3513982e-12 </wgt>
<wgt id='1537'> +1.3550692e-12 </wgt>
<wgt id='1538'> +1.3531405e-12 </wgt>
<wgt id='1539'> +1.3614389e-12 </wgt>
<wgt id='1540'> +1.3596353e-12 </wgt>
<wgt id='1541'> +1.3564574e-12 </wgt>
<wgt id='1542'> +1.3562709e-12 </wgt>
<wgt id='1543'> +1.3554781e-12 </wgt>
<wgt id='1544'> +1.3519967e-12 </wgt>
<wgt id='1545'> +1.3560919e-12 </wgt>
<wgt id='1546'> +1.3533075e-12 </wgt>
<wgt id='1547'> +1.3570158e-12 </wgt>
<wgt id='1548'> +1.3537869e-12 </wgt>
<wgt id='1549'> +1.3528669e-12 </wgt>
<wgt id='1550'> +1.3602722e-12 </wgt>
<wgt id='1551'> +1.3557365e-12 </wgt>
<wgt id='1552'> +1.3569072e-12 </wgt>
<wgt id='1553'> +1.3564622e-12 </wgt>
<wgt id='1554'> +1.3610187e-12 </wgt>
<wgt id='1555'> +1.3609256e-12 </wgt>
<wgt id='1556'> +1.3557793e-12 </wgt>
<wgt id='1557'> +1.3599195e-12 </wgt>
<wgt id='1558'> +1.3513469e-12 </wgt>
<wgt id='1559'> +1.3533931e-12 </wgt>
<wgt id='1560'> +1.3586943e-12 </wgt>
<wgt id='1561'> +1.3533171e-12 </wgt>
<wgt id='1562'> +1.3564701e-12 </wgt>
<wgt id='1563'> +1.3574985e-12 </wgt>
<wgt id='1564'> +1.3570443e-12 </wgt>
<wgt id='1565'> +1.3562503e-12 </wgt>
<wgt id='1566'> +1.3569834e-12 </wgt>
<wgt id='1567'> +1.3581775e-12 </wgt>
<wgt id='1568'> +1.3528498e-12 </wgt>
<wgt id='1569'> +1.3552514e-12 </wgt>
<wgt id='1570'> +1.3555927e-12 </wgt>
<wgt id='1571'> +1.3562604e-12 </wgt>
<wgt id='1572'> +1.3557727e-12 </wgt>
<wgt id='1573'> +1.3570335e-12 </wgt>
<wgt id='1574'> +1.3551750e-12 </wgt>
<wgt id='1575'> +1.3564257e-12 </wgt>
<wgt id='1576'> +1.3568038e-12 </wgt>
<wgt id='1577'> +1.3579287e-12 </wgt>
<wgt id='1578'> +1.3562266e-12 </wgt>
<wgt id='1579'> +1.3561404e-12 </wgt>
<wgt id='1580'> +1.3559815e-12 </wgt>
<wgt id='1581'> +1.3573738e-12 </wgt>
<wgt id='1582'> +1.3552563e-12 </wgt>
<wgt id='1583'> +1.3572885e-12 </wgt>
<wgt id='1584'> +1.3563871e-12 </wgt>
<wgt id='1585'> +1.3556865e-12 </wgt>
<wgt id='1586'> +1.3568105e-12 </wgt>
<wgt id='1587'> +1.3563291e-12 </wgt>
<wgt id='1588'> +1.3565202e-12 </wgt>
<wgt id='1589'> +1.3571559e-12 </wgt>
<wgt id='1590'> +1.3561305e-12 </wgt>
<wgt id='1591'> +1.3565021e-12 </wgt>
<wgt id='1592'> +1.3551848e-12 </wgt>
<wgt id='1593'> +1.3551310e-12 </wgt>
<wgt id='1594'> +1.3563192e-12 </wgt>
<wgt id='1595'> +1.3565215e-12 </wgt>
<wgt id='1596'> +1.3565853e-12 </wgt>
<wgt id='1597'> +1.3558120e-12 </wgt>
<wgt id='1598'> +1.3563538e-12 </wgt>
<wgt id='1599'> +1.3568184e-12 </wgt>
<wgt id='1600'> +1.3570109e-12 </wgt>
<wgt id='1601'> +1.3551847e-12 </wgt>
<wgt id='1602'> +1.3551742e-12 </wgt>
<wgt id='1603'> +1.3560479e-12 </wgt>
<wgt id='1604'> +1.3571080e-12 </wgt>
<wgt id='1605'> +1.3566604e-12 </wgt>
<wgt id='1606'> +1.3567498e-12 </wgt>
<wgt id='1607'> +1.3562702e-12 </wgt>
<wgt id='1608'> +1.3565747e-12 </wgt>
<wgt id='1609'> +1.3562836e-12 </wgt>
<wgt id='1610'> +1.3211671e-12 </wgt>
<wgt id='1611'> +1.3927718e-12 </wgt>
<wgt id='1612'> +1.4924907e-12 </wgt>
<wgt id='1613'> +1.4461509e-12 </wgt>
<wgt id='1614'> +1.4865817e-12 </wgt>
<wgt id='1615'> +1.4752295e-12 </wgt>
<wgt id='1616'> +1.5244889e-12 </wgt>
<wgt id='1617'> +1.5558250e-12 </wgt>
<wgt id='1618'> +1.5610728e-12 </wgt>
<wgt id='1619'> +1.5288563e-12 </wgt>
<wgt id='1620'> +1.4180301e-12 </wgt>
<wgt id='1621'> +1.5030717e-12 </wgt>
<wgt id='1622'> +1.5049902e-12 </wgt>
<wgt id='1623'> +1.4975981e-12 </wgt>
<wgt id='1624'> +1.4750275e-12 </wgt>
<wgt id='1625'> +1.4609707e-12 </wgt>
<wgt id='1626'> +1.4513095e-12 </wgt>
<wgt id='1627'> +1.4563592e-12 </wgt>
<wgt id='1628'> +1.4645358e-12 </wgt>
<wgt id='1629'> +1.5593209e-12 </wgt>
<wgt id='1630'> +1.4812322e-12 </wgt>
<wgt id='1631'> +1.4662872e-12 </wgt>
<wgt id='1632'> +1.3838420e-12 </wgt>
<wgt id='1633'> +1.4305630e-12 </wgt>
<wgt id='1634'> +1.5465225e-12 </wgt>
<wgt id='1635'> +1.5317869e-12 </wgt>
<wgt id='1636'> +1.5549982e-12 </wgt>
<wgt id='1637'> +1.4797930e-12 </wgt>
<wgt id='1638'> +1.4935217e-12 </wgt>
<wgt id='1639'> +1.4805345e-12 </wgt>
<wgt id='1640'> +1.4761926e-12 </wgt>
<wgt id='1641'> +1.4818924e-12 </wgt>
<wgt id='1642'> +1.4665856e-12 </wgt>
<wgt id='1643'> +1.4917686e-12 </wgt>
<wgt id='1644'> +1.4366007e-12 </wgt>
<wgt id='1645'> +1.4897157e-12 </wgt>
<wgt id='1646'> +1.4454619e-12 </wgt>
<wgt id='1647'> +1.4573648e-12 </wgt>
<wgt id='1648'> +1.5260715e-12 </wgt>
<wgt id='1649'> +1.5719050e-12 </wgt>
<wgt id='1650'> +1.4671110e-12 </wgt>
<wgt id='1651'> +1.4537057e-12 </wgt>
<wgt id='1652'> +1.4233619e-12 </wgt>
<wgt id='1653'> +1.5576166e-12 </wgt>
<wgt id='1654'> +1.5056563e-12 </wgt>
<wgt id='1655'> +1.4616138e-12 </wgt>
<wgt id='1656'> +1.4245736e-12 </wgt>
<wgt id='1657'> +1.4520352e-12 </wgt>
<wgt id='1658'> +1.4189390e-12 </wgt>
<wgt id='1659'> +1.4750275e-12 </wgt>
<wgt id='1660'> +1.5938024e-12 </wgt>
<wgt id='1661'> +1.4943752e-12 </wgt>
<wgt id='1662'> +1.5139972e-12 </wgt>
<wgt id='1663'> +1.5222649e-12 </wgt>
<wgt id='1664'> +1.4432933e-12 </wgt>
<wgt id='1665'> +1.3882808e-12 </wgt>
<wgt id='1666'> +1.5137998e-12 </wgt>
<wgt id='1667'> +1.4722583e-12 </wgt>
<wgt id='1668'> +1.5548344e-12 </wgt>
<wgt id='1669'> +1.4398520e-12 </wgt>
<wgt id='1670'> +1.5349882e-12 </wgt>
<wgt id='1671'> +1.4839121e-12 </wgt>
<wgt id='1672'> +1.4975938e-12 </wgt>
<wgt id='1673'> +1.5411644e-12 </wgt>
<wgt id='1674'> +1.4294659e-12 </wgt>
<wgt id='1675'> +1.5158722e-12 </wgt>
<wgt id='1676'> +1.5483190e-12 </wgt>
<wgt id='1677'> +1.6025870e-12 </wgt>
<wgt id='1678'> +1.4820013e-12 </wgt>
<wgt id='1679'> +1.5107021e-12 </wgt>
<wgt id='1680'> +1.5243328e-12 </wgt>
<wgt id='1681'> +1.5109908e-12 </wgt>
<wgt id='1682'> +1.5352666e-12 </wgt>
<wgt id='1683'> +1.4526877e-12 </wgt>
<wgt id='1684'> +1.4682078e-12 </wgt>
<wgt id='1685'> +1.4524857e-12 </wgt>
<wgt id='1686'> +1.4875555e-12 </wgt>
<wgt id='1687'> +1.5466475e-12 </wgt>
<wgt id='1688'> +1.4744277e-12 </wgt>
<wgt id='1689'> +1.4957565e-12 </wgt>
<wgt id='1690'> +1.5248869e-12 </wgt>
<wgt id='1691'> +1.5142694e-12 </wgt>
<wgt id='1692'> +1.5768124e-12 </wgt>
<wgt id='1693'> +1.5422865e-12 </wgt>
<wgt id='1694'> +1.4730260e-12 </wgt>
<wgt id='1695'> +1.5262049e-12 </wgt>
<wgt id='1696'> +1.5244778e-12 </wgt>
<wgt id='1697'> +1.5430877e-12 </wgt>
<wgt id='1698'> +1.4737282e-12 </wgt>
<wgt id='1699'> +1.5365832e-12 </wgt>
<wgt id='1700'> +1.4658572e-12 </wgt>
<wgt id='1701'> +1.5203179e-12 </wgt>
<wgt id='1702'> +1.5094022e-12 </wgt>
<wgt id='1703'> +1.5286182e-12 </wgt>
<wgt id='1704'> +1.4369825e-12 </wgt>
<wgt id='1705'> +1.4056204e-12 </wgt>
<wgt id='1706'> +1.5176495e-12 </wgt>
<wgt id='1707'> +1.4994049e-12 </wgt>
<wgt id='1708'> +1.4642118e-12 </wgt>
<wgt id='1709'> +1.4718354e-12 </wgt>
<wgt id='1710'> +1.4770362e-12 </wgt>
<wgt id='1711'> +1.5259695e-12 </wgt>
<wgt id='1712'> +1.4801208e-12 </wgt>
<wgt id='1713'> +1.1666639e-12 </wgt>
<wgt id='1714'> +1.1533455e-12 </wgt>
<wgt id='1715'> +1.1823934e-12 </wgt>
<wgt id='1716'> +1.2227176e-12 </wgt>
<wgt id='1717'> +1.1948560e-12 </wgt>
<wgt id='1718'> +1.1959304e-12 </wgt>
<wgt id='1719'> +1.1686038e-12 </wgt>
<wgt id='1720'> +1.1687489e-12 </wgt>
<wgt id='1721'> +1.1185474e-12 </wgt>
<wgt id='1722'> +1.1483752e-12 </wgt>
<wgt id='1723'> +1.1014227e-12 </wgt>
<wgt id='1724'> +1.1499769e-12 </wgt>
<wgt id='1725'> +1.1658476e-12 </wgt>
<wgt id='1726'> +1.2011940e-12 </wgt>
<wgt id='1727'> +1.1669170e-12 </wgt>
<wgt id='1728'> +1.1604994e-12 </wgt>
<wgt id='1729'> +1.1408382e-12 </wgt>
<wgt id='1730'> +1.1569107e-12 </wgt>
<wgt id='1731'> +1.1161802e-12 </wgt>
<wgt id='1732'> +1.1761946e-12 </wgt>
<wgt id='1733'> +1.1716692e-12 </wgt>
<wgt id='1734'> +1.2060332e-12 </wgt>
<wgt id='1735'> +1.1274659e-12 </wgt>
<wgt id='1736'> +1.2066937e-12 </wgt>
<wgt id='1737'> +1.2263937e-12 </wgt>
<wgt id='1738'> +1.1822293e-12 </wgt>
<wgt id='1739'> +1.1609759e-12 </wgt>
<wgt id='1740'> +1.1633055e-12 </wgt>
<wgt id='1741'> +1.1935346e-12 </wgt>
<wgt id='1742'> +1.1764667e-12 </wgt>
<wgt id='1743'> +1.1801450e-12 </wgt>
<wgt id='1744'> +1.2075494e-12 </wgt>
<wgt id='1745'> +1.1024767e-12 </wgt>
<wgt id='1746'> +1.1720804e-12 </wgt>
<wgt id='1747'> +1.1667684e-12 </wgt>
<wgt id='1748'> +1.1712263e-12 </wgt>
<wgt id='1749'> +1.1789547e-12 </wgt>
<wgt id='1750'> +1.1541131e-12 </wgt>
<wgt id='1751'> +1.0757543e-12 </wgt>
<wgt id='1752'> +1.1864988e-12 </wgt>
<wgt id='1753'> +1.1774219e-12 </wgt>
<wgt id='1754'> +1.1970347e-12 </wgt>
<wgt id='1755'> +1.1949474e-12 </wgt>
<wgt id='1756'> +1.1755770e-12 </wgt>
<wgt id='1757'> +1.1353474e-12 </wgt>
<wgt id='1758'> +1.1742471e-12 </wgt>
<wgt id='1759'> +1.1808184e-12 </wgt>
<wgt id='1760'> +1.1306665e-12 </wgt>
<wgt id='1761'> +1.1603429e-12 </wgt>
<wgt id='1762'> +1.1622735e-12 </wgt>
<wgt id='1763'> +1.2023707e-12 </wgt>
<wgt id='1764'> +1.1707499e-12 </wgt>
<wgt id='1765'> +1.1623106e-12 </wgt>
<wgt id='1766'> +1.1591451e-12 </wgt>
<wgt id='1767'> +1.1837757e-12 </wgt>
<wgt id='1768'> +1.1779912e-12 </wgt>
<wgt id='1769'> +1.1416070e-12 </wgt>
<wgt id='1770'> +1.1994419e-12 </wgt>
<wgt id='1771'> +1.1926014e-12 </wgt>
<wgt id='1772'> +1.1930044e-12 </wgt>
<wgt id='1773'> +1.1617873e-12 </wgt>
<wgt id='1774'> +1.1637150e-12 </wgt>
<wgt id='1775'> +1.1773946e-12 </wgt>
<wgt id='1776'> +1.2052963e-12 </wgt>
<wgt id='1777'> +1.0714540e-12 </wgt>
<wgt id='1778'> +1.1723097e-12 </wgt>
<wgt id='1779'> +1.1845369e-12 </wgt>
<wgt id='1780'> +1.1307955e-12 </wgt>
<wgt id='1781'> +1.1703424e-12 </wgt>
<wgt id='1782'> +1.1456216e-12 </wgt>
<wgt id='1783'> +1.1494008e-12 </wgt>
<wgt id='1784'> +1.1691913e-12 </wgt>
<wgt id='1785'> +1.1337088e-12 </wgt>
<wgt id='1786'> +1.0832959e-12 </wgt>
<wgt id='1787'> +1.2245762e-12 </wgt>
<wgt id='1788'> +1.1867908e-12 </wgt>
<wgt id='1789'> +1.1437932e-12 </wgt>
<wgt id='1790'> +1.1564478e-12 </wgt>
<wgt id='1791'> +1.1547956e-12 </wgt>
<wgt id='1792'> +1.1389068e-12 </wgt>
<wgt id='1793'> +1.1761816e-12 </wgt>
<wgt id='1794'> +1.1818159e-12 </wgt>
<wgt id='1795'> +1.1984360e-12 </wgt>
<wgt id='1796'> +1.1485806e-12 </wgt>
<wgt id='1797'> +1.1746744e-12 </wgt>
<wgt id='1798'> +1.1844816e-12 </wgt>
<wgt id='1799'> +1.1625680e-12 </wgt>
<wgt id='1800'> +1.1815699e-12 </wgt>
<wgt id='1801'> +1.1798237e-12 </wgt>
<wgt id='1802'> +1.1446499e-12 </wgt>
<wgt id='1803'> +1.1976334e-12 </wgt>
<wgt id='1804'> +1.1618566e-12 </wgt>
<wgt id='1805'> +1.1345773e-12 </wgt>
<wgt id='1806'> +1.1573805e-12 </wgt>
<wgt id='1807'> +1.1747884e-12 </wgt>
<wgt id='1808'> +1.1588015e-12 </wgt>
<wgt id='1809'> +1.1461098e-12 </wgt>
<wgt id='1810'> +1.1662898e-12 </wgt>
<wgt id='1811'> +1.2055025e-12 </wgt>
<wgt id='1812'> +1.1820709e-12 </wgt>
<wgt id='1813'> +1.1590321e-12 </wgt>
<wgt id='1814'> +1.1220624e-12 </wgt>
<wgt id='1815'> +1.3324799e-12 </wgt>
<wgt id='1816'> +1.1666639e-12 </wgt>
<wgt id='1817'> +1.1533455e-12 </wgt>
<wgt id='1818'> +1.1823934e-12 </wgt>
<wgt id='1819'> +1.2227176e-12 </wgt>
<wgt id='1820'> +1.1948560e-12 </wgt>
<wgt id='1821'> +1.1959304e-12 </wgt>
<wgt id='1822'> +1.1686038e-12 </wgt>
<wgt id='1823'> +1.1687489e-12 </wgt>
<wgt id='1824'> +1.1185474e-12 </wgt>
<wgt id='1825'> +1.1483752e-12 </wgt>
<wgt id='1826'> +1.1014227e-12 </wgt>
<wgt id='1827'> +1.1499769e-12 </wgt>
<wgt id='1828'> +1.1658476e-12 </wgt>
<wgt id='1829'> +1.2011940e-12 </wgt>
<wgt id='1830'> +1.1669170e-12 </wgt>
<wgt id='1831'> +1.1604994e-12 </wgt>
<wgt id='1832'> +1.1408382e-12 </wgt>
<wgt id='1833'> +1.1569107e-12 </wgt>
<wgt id='1834'> +1.1161802e-12 </wgt>
<wgt id='1835'> +1.1761946e-12 </wgt>
<wgt id='1836'> +1.1716692e-12 </wgt>
<wgt id='1837'> +1.2060332e-12 </wgt>
<wgt id='1838'> +1.1274659e-12 </wgt>
<wgt id='1839'> +1.2066937e-12 </wgt>
<wgt id='1840'> +1.2263937e-12 </wgt>
<wgt id='1841'> +1.1822293e-12 </wgt>
<wgt id='1842'> +1.1609759e-12 </wgt>
<wgt id='1843'> +1.1633055e-12 </wgt>
<wgt id='1844'> +1.1935346e-12 </wgt>
<wgt id='1845'> +1.1764667e-12 </wgt>
<wgt id='1846'> +1.1801450e-12 </wgt>
<wgt id='1847'> +1.2075494e-12 </wgt>
<wgt id='1848'> +1.1024767e-12 </wgt>
<wgt id='1849'> +1.1720804e-12 </wgt>
<wgt id='1850'> +1.1667684e-12 </wgt>
<wgt id='1851'> +1.1712263e-12 </wgt>
<wgt id='1852'> +1.1789547e-12 </wgt>
<wgt id='1853'> +1.1541131e-12 </wgt>
<wgt id='1854'> +1.0757543e-12 </wgt>
<wgt id='1855'> +1.1864988e-12 </wgt>
<wgt id='1856'> +1.1774219e-12 </wgt>
<wgt id='1857'> +1.1970347e-12 </wgt>
<wgt id='1858'> +1.1949474e-12 </wgt>
<wgt id='1859'> +1.1755770e-12 </wgt>
<wgt id='1860'> +1.1353474e-12 </wgt>
<wgt id='1861'> +1.1742471e-12 </wgt>
<wgt id='1862'> +1.1808184e-12 </wgt>
<wgt id='1863'> +1.1306665e-12 </wgt>
<wgt id='1864'> +1.1603429e-12 </wgt>
<wgt id='1865'> +1.1622735e-12 </wgt>
<wgt id='1866'> +1.2023707e-12 </wgt>
<wgt id='1867'> +1.1707499e-12 </wgt>
<wgt id='1868'> +1.1623106e-12 </wgt>
<wgt id='1869'> +1.1591451e-12 </wgt>
<wgt id='1870'> +1.1837757e-12 </wgt>
<wgt id='1871'> +1.1779912e-12 </wgt>
<wgt id='1872'> +1.1416070e-12 </wgt>
<wgt id='1873'> +1.1994419e-12 </wgt>
<wgt id='1874'> +1.1926014e-12 </wgt>
<wgt id='1875'> +1.1930044e-12 </wgt>
<wgt id='1876'> +1.1617873e-12 </wgt>
<wgt id='1877'> +1.1637150e-12 </wgt>
<wgt id='1878'> +1.1773946e-12 </wgt>
<wgt id='1879'> +1.2052963e-12 </wgt>
<wgt id='1880'> +1.0714540e-12 </wgt>
<wgt id='1881'> +1.1723097e-12 </wgt>
<wgt id='1882'> +1.1845369e-12 </wgt>
<wgt id='1883'> +1.1307955e-12 </wgt>
<wgt id='1884'> +1.1703424e-12 </wgt>
<wgt id='1885'> +1.1456216e-12 </wgt>
<wgt id='1886'> +1.1494008e-12 </wgt>
<wgt id='1887'> +1.1691913e-12 </wgt>
<wgt id='1888'> +1.1337088e-12 </wgt>
<wgt id='1889'> +1.0832959e-12 </wgt>
<wgt id='1890'> +1.2245762e-12 </wgt>
<wgt id='1891'> +1.1867908e-12 </wgt>
<wgt id='1892'> +1.1437932e-12 </wgt>
<wgt id='1893'> +1.1564478e-12 </wgt>
<wgt id='1894'> +1.1547956e-12 </wgt>
<wgt id='1895'> +1.1389068e-12 </wgt>
<wgt id='1896'> +1.1761816e-12 </wgt>
<wgt id='1897'> +1.1818159e-12 </wgt>
<wgt id='1898'> +1.1984360e-12 </wgt>
<wgt id='1899'> +1.1485806e-12 </wgt>
<wgt id='1900'> +1.1746744e-12 </wgt>
<wgt id='1901'> +1.1844816e-12 </wgt>
<wgt id='1902'> +1.1625680e-12 </wgt>
<wgt id='1903'> +1.1815699e-12 </wgt>
<wgt id='1904'> +1.1798237e-12 </wgt>
<wgt id='1905'> +1.1446499e-12 </wgt>
<wgt id='1906'> +1.1976334e-12 </wgt>
<wgt id='1907'> +1.1618566e-12 </wgt>
<wgt id='1908'> +1.1345773e-12 </wgt>
<wgt id='1909'> +1.1573805e-12 </wgt>
<wgt id='1910'> +1.1747884e-12 </wgt>
<wgt id='1911'> +1.1588015e-12 </wgt>
<wgt id='1912'> +1.1461098e-12 </wgt>
<wgt id='1913'> +1.1662898e-12 </wgt>
<wgt id='1914'> +1.2055025e-12 </wgt>
<wgt id='1915'> +1.1820709e-12 </wgt>
<wgt id='1916'> +1.1590321e-12 </wgt>
<wgt id='1917'> +1.1525013e-12 </wgt>
<wgt id='1918'> +1.1795780e-12 </wgt>
<wgt id='1919'> +1.2350228e-12 </wgt>
</rwgt>
</event>
<event>
 9      1 +1.5538000e-12 4.67851500e+01 7.81860800e-03 1.32787600e-01
       21 -1    0    0  501  502 +0.0000000000e+00 +0.0000000000e+00 +1.0897198013e+01 1.0897198013e+01 0.0000000000e+00 0.0000e+00 1.0000e+00
       -2 -1    0    0    0  501 -0.0000000000e+00 -0.0000000000e+00 -1.9345425475e+02 1.9345425475e+02 0.0000000000e+00 0.0000e+00 -1.0000e+00
     1023  2    1    2    0    0 -3.1090335356e+01 +3.1579224238e+01 -1.0654742709e+02 1.1636668047e+02 1.4999791622e+01 0.0000e+00 0.0000e+00
  1000023  2    3    3    0    0 -2.1453261011e+01 +1.8853140951e+01 -7.8432216737e+01 8.3651371351e+01 5.5005431404e+00 0.0000e+00 0.0000e+00
       -2  1    1    2    0  502 +3.1090335356e+01 -3.1579224238e+01 -7.6009629652e+01 8.7984772295e+01 0.0000000000e+00 0.0000e+00 -1.0000e+00
  1000022  1    4    4    0    0 -2.0575253395e+01 +1.8281330848e+01 -7.5993909558e+01 8.0979147932e+01 5.0000000000e+00 0.0000e+00 1.0000e+00
      -11  1    4    4    0    0 +2.2060753765e-02 +2.5776301174e-02 -1.4358805168e-01 1.4754282180e-01 5.1100000000e-04 0.0000e+00 -1.0000e+00
       11  1    4    4    0    0 -9.0006836974e-01 +5.4603380230e-01 -2.2947191274e+00 2.5246805973e+00 5.1100000000e-04 0.0000e+00 1.0000e+00
  1000022  1    3    3    0    0 -9.6370743447e+00 +1.2726083287e+01 -2.8115210353e+01 3.2715309122e+01 5.0000000000e+00 0.0000e+00 1.0000e+00
<mgrwt>
<rscale>  1 0.46785148E+02</rscale>
<asrwt>0</asrwt>
<pdfrwt beam="1">  1       21 0.16764922E-02 0.46785148E+02</pdfrwt>
<pdfrwt beam="2">  1       -2 0.29762190E-01 0.46785148E+02</pdfrwt>
<totfact> 0.13465865E+06</totfact>
</mgrwt>
<rwgt>
<wgt id='1001'> +1.5538000e-12 </wgt>
<wgt id='1002'> +1.5542166e-12 </wgt>
<wgt id='1003'> +1.5540087e-12 </wgt>
<wgt id='1004'> +1.5528731e-12 </wgt>
<wgt id='1005'> +1.5536311e-12 </wgt>
<wgt id='1006'> +1.3748972e-12 </wgt>
<wgt id='1007'> +1.3935335e-12 </wgt>
<wgt id='1008'> +1.3936237e-12 </wgt>
<wgt id='1009'> +1.3728757e-12 </wgt>
<wgt id='1010'> +1.3937643e-12 </wgt>
<wgt id='1011'> +1.7886144e-12 </wgt>
<wgt id='1012'> +1.7584338e-12 </wgt>
<wgt id='1013'> +1.7577546e-12 </wgt>
<wgt id='1014'> +1.7896312e-12 </wgt>
<wgt id='1015'> +1.7565550e-12 </wgt>
<wgt id='1016'> +1.7553479e-12 </wgt>
<wgt id='1017'> +1.7076003e-12 </wgt>
<wgt id='1018'> +1.7067003e-12 </wgt>
<wgt id='1019'> +1.7577546e-12 </wgt>
<wgt id='1020'> +1.7051250e-12 </wgt>
<wgt id='1021'> +1.5532391e-12 </wgt>
<wgt id='1022'> +1.5310596e-12 </wgt>
<wgt id='1023'> +1.5305563e-12 </wgt>
<wgt id='1024'> +1.5540087e-12 </wgt>
<wgt id='1025'> +1.5296696e-12 </wgt>
<wgt id='1026'> +2.0206208e-12 </wgt>
<wgt id='1027'> +1.9319714e-12 </wgt>
<wgt id='1028'> +1.9304655e-12 </wgt>
<wgt id='1029'> +2.0257498e-12 </wgt>
<wgt id='1030'> +1.9278359e-12 </wgt>
<wgt id='1031'> +1.3153598e-12 </wgt>
<wgt id='1032'> +1.3722740e-12 </wgt>
<wgt id='1033'> +1.3728757e-12 </wgt>
<wgt id='1034'> +1.3106296e-12 </wgt>
<wgt id='1035'> +1.3739040e-12 </wgt>
<wgt id='1036'> +1.1639107e-12 </wgt>
<wgt id='1037'> +1.2304011e-12 </wgt>
<wgt id='1038'> +1.2311848e-12 </wgt>
<wgt id='1039'> +1.1587112e-12 </wgt>
<wgt id='1040'> +1.2325309e-12 </wgt>
<wgt id='1041'> +1.5141405e-12 </wgt>
<wgt id='1042'> +1.5525847e-12 </wgt>
<wgt id='1043'> +1.5528731e-12 </wgt>
<wgt id='1044'> +1.5104541e-12 </wgt>
<wgt id='1045'> +1.5533532e-12 </wgt>
<wgt id='1046'> +1.5538000e-12 </wgt>
<wgt id='1047'> +1.7464237e-12 </wgt>
<wgt id='1048'> +1.5638354e-12 </wgt>
<wgt id='1049'> +1.5930414e-12 </wgt>
<wgt id='1050'> +1.5817163e-12 </wgt>
<wgt id='1051'> +1.4906054e-12 </wgt>
<wgt id='1052'> +1.5516956e-12 </wgt>
<wgt id='1053'> +1.5385502e-12 </wgt>
<wgt id='1054'> +1.5185825e-12 </wgt>
<wgt id='1055'> +1.5134388e-12 </wgt>
<wgt id='1056'> +1.5269419e-12 </wgt>
<wgt id='1057'> +1.5602621e-12 </wgt>
<wgt id='1058'> +1.5087158e-12 </wgt>
<wgt id='1059'> +1.5268975e-12 </wgt>
<wgt id='1060'> +1.5587489e-12 </wgt>
<wgt id='1061'> +1.5642472e-12 </wgt>
<wgt id='1062'> +1.5322920e-12 </wgt>
<wgt id='1063'> +1.5976066e-12 </wgt>
<wgt id='1064'> +1.5373404e-12 </wgt>
<wgt id='1065'> +1.5349818e-12 </wgt>
<wgt id='1066'> +1.4689259e-12 </wgt>
<wgt id='1067'> +1.5618195e-12 </wgt>
<wgt id='1068'> +1.6324418e-12 </wgt>
<wgt id='1069'> +1.5780209e-12 </wgt>
<wgt id='1070'> +1.5605463e-12 </wgt>
<wgt id='1071'> +1.5151480e-12 </wgt>
<wgt id='1072'> +1.5761956e-12 </wgt>
<wgt id='1073'> +1.6583240e-12 </wgt>
<wgt id='1074'> +1.5369726e-12 </wgt>
<wgt id='1075'> +1.5351920e-12 </wgt>
<wgt id='1076'> +1.5627988e-12 </wgt>
<wgt id='1077'> +1.6172713e-12 </wgt>
<wgt id='1078'> +1.5412435e-12 </wgt>
<wgt id='1079'> +1.5805725e-12 </wgt>
<wgt id='1080'> +1.5328377e-12 </wgt>
<wgt id='1081'> +1.5820656e-12 </wgt>
<wgt id='1082'> +1.5883366e-12 </wgt>
<wgt id='1083'> +1.5797031e-12 </wgt>
<wgt id='1084'> +1.4991654e-12 </wgt>
<wgt id='1085'> +1.5406131e-12 </wgt>
<wgt id='1086'> +1.5515075e-12 </wgt>
<wgt id='1087'> +1.5612748e-12 </wgt>
<wgt id='1088'> +1.5531094e-12 </wgt>
<wgt id='1089'> +1.6024427e-12 </wgt>
<wgt id='1090'> +1.5656251e-12 </wgt>
<wgt id='1091'> +1.5397389e-12 </wgt>
<wgt id='1092'> +1.5833744e-12 </wgt>
<wgt id='1093'> +1.5626478e-12 </wgt>
<wgt id='1094'> +1.5109215e-12 </wgt>
<wgt id='1095'> +1.5489162e-12 </wgt>
<wgt id='1096'> +1.5588735e-12 </wgt>
<wgt id='1097'> +1.5098609e-12 </wgt>
<wgt id='1098'> +1.5367291e-12 </wgt>
<wgt id='1099'> +1.5259540e-12 </wgt>
<wgt id='1100'> +1.6010048e-12 </wgt>
<wgt id='1101'> +1.6206003e-12 </wgt>
<wgt id='1102'> +1.5870115e-12 </wgt>
<wgt id='1103'> +1.6341912e-12 </wgt>
<wgt id='1104'> +1.5461037e-12 </wgt>
<wgt id='1105'> +1.5190970e-12 </wgt>
<wgt id='1106'> +1.6068937e-12 </wgt>
<wgt id='1107'> +1.6094304e-12 </wgt>
<wgt id='1108'> +1.5274550e-12 </wgt>
<wgt id='1109'> +1.5472648e-12 </wgt>
<wgt id='1110'> +1.5126140e-12 </wgt>
<wgt id='1111'> +1.5514452e-12 </wgt>
<wgt id='1112'> +1.5085165e-12 </wgt>
<wgt id='1113'> +1.5676238e-12 </wgt>
<wgt id='1114'> +1.5615505e-12 </wgt>
<wgt id='1115'> +1.5478585e-12 </wgt>
<wgt id='1116'> +1.5457213e-12 </wgt>
<wgt id='1117'> +1.5299752e-12 </wgt>
<wgt id='1118'> +1.4808160e-12 </wgt>
<wgt id='1119'> +1.4530872e-12 </wgt>
<wgt id='1120'> +1.4931147e-12 </wgt>
<wgt id='1121'> +1.4677850e-12 </wgt>
<wgt id='1122'> +1.6012261e-12 </wgt>
<wgt id='1123'> +1.5700245e-12 </wgt>
<wgt id='1124'> +1.5424971e-12 </wgt>
<wgt id='1125'> +1.5064395e-12 </wgt>
<wgt id='1126'> +1.5500422e-12 </wgt>
<wgt id='1127'> +1.6044320e-12 </wgt>
<wgt id='1128'> +1.5322920e-12 </wgt>
<wgt id='1129'> +1.5222782e-12 </wgt>
<wgt id='1130'> +1.5413481e-12 </wgt>
<wgt id='1131'> +1.5758927e-12 </wgt>
<wgt id='1132'> +1.6190181e-12 </wgt>
<wgt id='1133'> +1.5339904e-12 </wgt>
<wgt id='1134'> +1.6119015e-12 </wgt>
<wgt id='1135'> +1.4335183e-12 </wgt>
<wgt id='1136'> +1.5209442e-12 </wgt>
<wgt id='1137'> +1.5518843e-12 </wgt>
<wgt id='1138'> +1.4465243e-12 </wgt>
<wgt id='1139'> +1.5154233e-12 </wgt>
<wgt id='1140'> +1.5315128e-12 </wgt>
<wgt id='1141'> +1.6099298e-12 </wgt>
<wgt id='1142'> +1.5483112e-12 </wgt>
<wgt id='1143'> +1.6081889e-12 </wgt>
<wgt id='1144'> +1.5775319e-12 </wgt>
<wgt id='1145'> +1.6014760e-12 </wgt>
<wgt id='1146'> +1.5943037e-12 </wgt>
<wgt id='1147'> +1.2555307e-12 </wgt>
<wgt id='1148'> +1.2780557e-12 </wgt>
<wgt id='1149'> +1.2893362e-12 </wgt>
<wgt id='1150'> +1.3146638e-12 </wgt>
<wgt id='1151'> +1.4159368e-12 </wgt>
<wgt id='1152'> +1.7692396e-12 </wgt>
<wgt id='1153'> +1.7591243e-12 </wgt>
<wgt id='1154'> +1.7751071e-12 </wgt>
<wgt id='1155'> +1.7632989e-12 </wgt>
<wgt id='1156'> +1.7722475e-12 </wgt>
<wgt id='1157'> +1.7754877e-12 </wgt>
<wgt id='1158'> +1.7606954e-12 </wgt>
<wgt id='1159'> +1.7749140e-12 </wgt>
<wgt id='1160'> +1.7656146e-12 </wgt>
<wgt id='1161'> +1.7692943e-12 </wgt>
<wgt id='1162'> +1.7692069e-12 </wgt>
<wgt id='1163'> +1.7724890e-12 </wgt>
<wgt id='1164'> +1.7659170e-12 </wgt>
<wgt id='1165'> +1.7620194e-12 </wgt>
<wgt id='1166'> +1.7761204e-12 </wgt>
<wgt id='1167'> +1.7677637e-12 </wgt>
<wgt id='1168'> +1.7685858e-12 </wgt>
<wgt id='1169'> +1.7710963e-12 </wgt>
<wgt id='1170'> +1.7677657e-12 </wgt>
<wgt id='1171'> +1.7584390e-12 </wgt>
<wgt id='1172'> +1.7824859e-12 </wgt>
<wgt id='1173'> +1.7547493e-12 </wgt>
<wgt id='1174'> +1.7825312e-12 </wgt>
<wgt id='1175'> +1.7764005e-12 </wgt>
<wgt id='1176'> +1.7623459e-12 </wgt>
<wgt id='1177'> +1.7732885e-12 </wgt>
<wgt id='1178'> +1.7568739e-12 </wgt>
<wgt id='1179'> +1.7715225e-12 </wgt>
<wgt id='1180'> +1.7578188e-12 </wgt>
<wgt id='1181'> +1.7628310e-12 </wgt>
<wgt id='1182'> +1.7753772e-12 </wgt>
<wgt id='1183'> +1.7700880e-12 </wgt>
<wgt id='1184'> +1.7689414e-12 </wgt>
<wgt id='1185'> +1.7662519e-12 </wgt>
<wgt id='1186'> +1.7724386e-12 </wgt>
<wgt id='1187'> +1.7695774e-12 </wgt>
<wgt id='1188'> +1.7691179e-12 </wgt>
<wgt id='1189'> +1.7701610e-12 </wgt>
<wgt id='1190'> +1.7528142e-12 </wgt>
<wgt id='1191'> +1.7569096e-12 </wgt>
<wgt id='1192'> +1.7749390e-12 </wgt>
<wgt id='1193'> +1.3464520e-12 </wgt>
<wgt id='1194'> +1.3449165e-12 </wgt>
<wgt id='1195'> +1.3476881e-12 </wgt>
<wgt id='1196'> +1.3568175e-12 </wgt>
<wgt id='1197'> +1.3349494e-12 </wgt>
<wgt id='1198'> +1.3440084e-12 </wgt>
<wgt id='1199'> +1.3501286e-12 </wgt>
<wgt id='1200'> +1.3446441e-12 </wgt>
<wgt id='1201'> +1.3477466e-12 </wgt>
<wgt id='1202'> +1.3461010e-12 </wgt>
<wgt id='1203'> +1.3469243e-12 </wgt>
<wgt id='1204'> +1.3444479e-12 </wgt>
<wgt id='1205'> +1.3476182e-12 </wgt>
<wgt id='1206'> +1.3490148e-12 </wgt>
<wgt id='1207'> +1.3430251e-12 </wgt>
<wgt id='1208'> +1.3380004e-12 </wgt>
<wgt id='1209'> +1.3495434e-12 </wgt>
<wgt id='1210'> +1.3471748e-12 </wgt>
<wgt id='1211'> +1.3385065e-12 </wgt>
<wgt id='1212'> +1.3476140e-12 </wgt>
<wgt id='1213'> +1.3453756e-12 </wgt>
<wgt id='1214'> +1.3298619e-12 </wgt>
<wgt id='1215'> +1.3741283e-12 </wgt>
<wgt id='1216'> +1.3456396e-12 </wgt>
<wgt id='1217'> +1.3464811e-12 </wgt>
<wgt id='1218'> +1.3541325e-12 </wgt>
<wgt id='1219'> +1.3425865e-12 </wgt>
<wgt id='1220'> +1.3544271e-12 </wgt>
<wgt id='1221'> +1.3419149e-12 </wgt>
<wgt id='1222'> +1.3534296e-12 </wgt>
<wgt id='1223'> +1.3309366e-12 </wgt>
<wgt id='1224'> +1.3479288e-12 </wgt>
<wgt id='1225'> +1.3459019e-12 </wgt>
<wgt id='1226'> +1.3415667e-12 </wgt>
<wgt id='1227'> +1.3500121e-12 </wgt>
<wgt id='1228'> +1.3534080e-12 </wgt>
<wgt id='1229'> +1.3414794e-12 </wgt>
<wgt id='1230'> +1.3505613e-12 </wgt>
<wgt id='1231'> +1.3346295e-12 </wgt>
<wgt id='1232'> +1.3513219e-12 </wgt>
<wgt id='1233'> +1.3450625e-12 </wgt>
<wgt id='1234'> +1.3464520e-12 </wgt>
<wgt id='1235'> +1.3395075e-12 </wgt>
<wgt id='1236'> +1.3421486e-12 </wgt>
<wgt id='1237'> +1.3444732e-12 </wgt>
<wgt id='1238'> +1.3485698e-12 </wgt>
<wgt id='1239'> +1.3502210e-12 </wgt>
<wgt id='1240'> +1.3516380e-12 </wgt>
<wgt id='1241'> +1.3090493e-12 </wgt>
<wgt id='1242'> +1.3042042e-12 </wgt>
<wgt id='1243'> +1.3139207e-12 </wgt>
<wgt id='1244'> +1.3007986e-12 </wgt>
<wgt id='1245'> +1.3151815e-12 </wgt>
<wgt id='1246'> +1.3052689e-12 </wgt>
<wgt id='1247'> +1.3122848e-12 </wgt>
<wgt id='1248'> +1.3089901e-12 </wgt>
<wgt id='1249'> +1.3091553e-12 </wgt>
<wgt id='1250'> +1.3149458e-12 </wgt>
<wgt id='1251'> +1.3049353e-12 </wgt>
<wgt id='1252'> +1.3069249e-12 </wgt>
<wgt id='1253'> +1.3107374e-12 </wgt>
<wgt id='1254'> +1.3068976e-12 </wgt>
<wgt id='1255'> +1.3102853e-12 </wgt>
<wgt id='1256'> +1.3125563e-12 </wgt>
<wgt id='1257'> +1.3002744e-12 </wgt>
<wgt id='1258'> +1.3280333e-12 </wgt>
<wgt id='1259'> +1.2920915e-12 </wgt>
<wgt id='1260'> +1.3124061e-12 </wgt>
<wgt id='1261'> +1.3053507e-12 </wgt>
<wgt id='1262'> +1.3026195e-12 </wgt>
<wgt id='1263'> +1.3115625e-12 </wgt>
<wgt id='1264'> +1.3165338e-12 </wgt>
<wgt id='1265'> +1.3052549e-12 </wgt>
<wgt id='1266'> +1.2950126e-12 </wgt>
<wgt id='1267'> +1.3200615e-12 </wgt>
<wgt id='1268'> +1.3122147e-12 </wgt>
<wgt id='1269'> +1.3077864e-12 </wgt>
<wgt id='1270'> +1.3034875e-12 </wgt>
<wgt id='1271'> +1.3057041e-12 </wgt>
<wgt id='1272'> +1.3070770e-12 </wgt>
<wgt id='1273'> +1.3091828e-12 </wgt>
<wgt id='1274'> +1.3117824e-12 </wgt>
<wgt id='1275'> +1.3045777e-12 </wgt>
<wgt id='1276'> +1.3003145e-12 </wgt>
<wgt id='1277'> +1.3160672e-12 </wgt>
<wgt id='1278'> +1.3029567e-12 </wgt>
<wgt id='1279'> +1.3108073e-12 </wgt>
<wgt id='1280'> +1.3069562e-12 </wgt>
<wgt id='1281'> +1.3195452e-12 </wgt>
<wgt id='1282'> +1.3090493e-12 </wgt>
<wgt id='1283'> +1.3021055e-12 </wgt>
<wgt id='1284'> +1.3047713e-12 </wgt>
<wgt id='1285'> +1.3071620e-12 </wgt>
<wgt id='1286'> +1.3110503e-12 </wgt>
<wgt id='1287'> +1.3125857e-12 </wgt>
<wgt id='1288'> +1.3138526e-12 </wgt>
<wgt id='1289'> +1.3764253e-12 </wgt>
<wgt id='1290'> +1.3703457e-12 </wgt>
<wgt id='1291'> +1.3829103e-12 </wgt>
<wgt id='1292'> +1.3725983e-12 </wgt>
<wgt id='1293'> +1.3791152e-12 </wgt>
<wgt id='1294'> +1.3660891e-12 </wgt>
<wgt id='1295'> +1.3864515e-12 </wgt>
<wgt id='1296'> +1.3746693e-12 </wgt>
<wgt id='1297'> +1.3784522e-12 </wgt>
<wgt id='1298'> +1.3737267e-12 </wgt>
<wgt id='1299'> +1.3797531e-12 </wgt>
<wgt id='1300'> +1.3766640e-12 </wgt>
<wgt id='1301'> +1.3758884e-12 </wgt>
<wgt id='1302'> +1.3729001e-12 </wgt>
<wgt id='1303'> +1.3812970e-12 </wgt>
<wgt id='1304'> +1.3747827e-12 </wgt>
<wgt id='1305'> +1.3774789e-12 </wgt>
<wgt id='1306'> +1.3710066e-12 </wgt>
<wgt id='1307'> +1.3826225e-12 </wgt>
<wgt id='1308'> +1.3654507e-12 </wgt>
<wgt id='1309'> +1.3847855e-12 </wgt>
<wgt id='1310'> +1.3817904e-12 </wgt>
<wgt id='1311'> +1.3708749e-12 </wgt>
<wgt id='1312'> +1.3707065e-12 </wgt>
<wgt id='1313'> +1.3823372e-12 </wgt>
<wgt id='1314'> +1.3699147e-12 </wgt>
<wgt id='1315'> +1.3795864e-12 </wgt>
<wgt id='1316'> +1.3811159e-12 </wgt>
<wgt id='1317'> +1.3772381e-12 </wgt>
<wgt id='1318'> +1.3881471e-12 </wgt>
<wgt id='1319'> +1.3626202e-12 </wgt>
<wgt id='1320'> +1.4014105e-12 </wgt>
<wgt id='1321'> +1.3577185e-12 </wgt>
<wgt id='1322'> +1.3718049e-12 </wgt>
<wgt id='1323'> +1.3826994e-12 </wgt>
<wgt id='1324'> +1.3784968e-12 </wgt>
<wgt id='1325'> +1.3752211e-12 </wgt>
<wgt id='1326'> +1.3749601e-12 </wgt>
<wgt id='1327'> +1.3794648e-12 </wgt>
<wgt id='1328'> +1.3746807e-12 </wgt>
<wgt id='1329'> +1.3777552e-12 </wgt>
<wgt id='1330'> +1.3624350e-12 </wgt>
<wgt id='1331'> +1.3996676e-12 </wgt>
<wgt id='1332'> +1.3941151e-12 </wgt>
<wgt id='1333'> +1.3646070e-12 </wgt>
<wgt id='1334'> +1.3693871e-12 </wgt>
<wgt id='1335'> +1.3964675e-12 </wgt>
<wgt id='1336'> +1.3771462e-12 </wgt>
<wgt id='1337'> +1.3689746e-12 </wgt>
<wgt id='1338'> +1.3719218e-12 </wgt>
<wgt id='1339'> +1.3765834e-12 </wgt>
<wgt id='1340'> +1.3588394e-12 </wgt>
<wgt id='1341'> +1.3527819e-12 </wgt>
<wgt id='1342'> +1.3653731e-12 </wgt>
<wgt id='1343'> +1.3548739e-12 </wgt>
<wgt id='1344'> +1.3615170e-12 </wgt>
<wgt id='1345'> +1.3485971e-12 </wgt>
<wgt id='1346'> +1.3684928e-12 </wgt>
<wgt id='1347'> +1.3576267e-12 </wgt>
<wgt id='1348'> +1.3601112e-12 </wgt>
<wgt id='1349'> +1.3562212e-12 </wgt>
<wgt id='1350'> +1.3613763e-12 </wgt>
<wgt id='1351'> +1.3586574e-12 </wgt>
<wgt id='1352'> +1.3592482e-12 </wgt>
<wgt id='1353'> +1.3546313e-12 </wgt>
<wgt id='1354'> +1.3662824e-12 </wgt>
<wgt id='1355'> +1.3579245e-12 </wgt>
<wgt id='1356'> +1.3593309e-12 </wgt>
<wgt id='1357'> +1.3501850e-12 </wgt>
<wgt id='1358'> +1.3690636e-12 </wgt>
<wgt id='1359'> +1.3500387e-12 </wgt>
<wgt id='1360'> +1.3664250e-12 </wgt>
<wgt id='1361'> +1.3632655e-12 </wgt>
<wgt id='1362'> +1.3531250e-12 </wgt>
<wgt id='1363'> +1.3519944e-12 </wgt>
<wgt id='1364'> +1.3638952e-12 </wgt>
<wgt id='1365'> +1.3582364e-12 </wgt>
<wgt id='1366'> +1.3538560e-12 </wgt>
<wgt id='1367'> +1.3639638e-12 </wgt>
<wgt id='1368'> +1.3587255e-12 </wgt>
<wgt id='1369'> +1.3680846e-12 </wgt>
<wgt id='1370'> +1.3478755e-12 </wgt>
<wgt id='1371'> +1.3765301e-12 </wgt>
<wgt id='1372'> +1.3391499e-12 </wgt>
<wgt id='1373'> +1.3486298e-12 </wgt>
<wgt id='1374'> +1.3689557e-12 </wgt>
<wgt id='1375'> +1.3605285e-12 </wgt>
<wgt id='1376'> +1.3580702e-12 </wgt>
<wgt id='1377'> +1.3581175e-12 </wgt>
<wgt id='1378'> +1.3615471e-12 </wgt>
<wgt id='1379'> +1.3569766e-12 </wgt>
<wgt id='1380'> +1.3605592e-12 </wgt>
<wgt id='1381'> +1.3456821e-12 </wgt>
<wgt id='1382'> +1.3793040e-12 </wgt>
<wgt id='1383'> +1.3793301e-12 </wgt>
<wgt id='1384'> +1.3470325e-12 </wgt>
<wgt id='1385'> +1.3519914e-12 </wgt>
<wgt id='1386'> +1.3773043e-12 </wgt>
<wgt id='1387'> +1.3587497e-12 </wgt>
<wgt id='1388'> +1.3506035e-12 </wgt>
<wgt id='1389'> +1.3525303e-12 </wgt>
<wgt id='1390'> +1.3592223e-12 </wgt>
<wgt id='1391'> +1.3233747e-12 </wgt>
<wgt id='1392'> +1.2977484e-12 </wgt>
<wgt id='1393'> +1.3076131e-12 </wgt>
<wgt id='1394'> +1.3163237e-12 </wgt>
<wgt id='1395'> +1.3338519e-12 </wgt>
<wgt id='1396'> +1.3251245e-12 </wgt>
<wgt id='1397'> +1.2842689e-12 </wgt>
<wgt id='1398'> +1.2930647e-12 </wgt>
<wgt id='1399'> +1.3008690e-12 </wgt>
<wgt id='1400'> +1.3086779e-12 </wgt>
<wgt id='1401'> +1.3170076e-12 </wgt>
<wgt id='1402'> +1.3335321e-12 </wgt>
<wgt id='1403'> +1.3413963e-12 </wgt>
<wgt id='1404'> +1.3491092e-12 </wgt>
<wgt id='1405'> +1.3251245e-12 </wgt>
<wgt id='1406'> +1.3221447e-12 </wgt>
<wgt id='1407'> +1.3238863e-12 </wgt>
<wgt id='1408'> +1.3263663e-12 </wgt>
<wgt id='1409'> +1.3284345e-12 </wgt>
<wgt id='1410'> +1.2897862e-12 </wgt>
<wgt id='1411'> +1.2847808e-12 </wgt>
<wgt id='1412'> +1.2961305e-12 </wgt>
<wgt id='1413'> +1.2862680e-12 </wgt>
<wgt id='1414'> +1.2932418e-12 </wgt>
<wgt id='1415'> +1.2835796e-12 </wgt>
<wgt id='1416'> +1.2921899e-12 </wgt>
<wgt id='1417'> +1.2817330e-12 </wgt>
<wgt id='1418'> +1.2977752e-12 </wgt>
<wgt id='1419'> +1.2880151e-12 </wgt>
<wgt id='1420'> +1.2914597e-12 </wgt>
<wgt id='1421'> +1.2890155e-12 </wgt>
<wgt id='1422'> +1.2900485e-12 </wgt>
<wgt id='1423'> +1.2891432e-12 </wgt>
<wgt id='1424'> +1.2904733e-12 </wgt>
<wgt id='1425'> +1.2830411e-12 </wgt>
<wgt id='1426'> +1.2969871e-12 </wgt>
<wgt id='1427'> +1.2695025e-12 </wgt>
<wgt id='1428'> +1.3009224e-12 </wgt>
<wgt id='1429'> +1.2926739e-12 </wgt>
<wgt id='1430'> +1.2858674e-12 </wgt>
<wgt id='1431'> +1.2819330e-12 </wgt>
<wgt id='1432'> +1.2951191e-12 </wgt>
<wgt id='1433'> +1.2783893e-12 </wgt>
<wgt id='1434'> +1.2995509e-12 </wgt>
<wgt id='1435'> +1.2912819e-12 </wgt>
<wgt id='1436'> +1.2861874e-12 </wgt>
<wgt id='1437'> +1.2941616e-12 </wgt>
<wgt id='1438'> +1.2900338e-12 </wgt>
<wgt id='1439'> +1.2821848e-12 </wgt>
<wgt id='1440'> +1.3083871e-12 </wgt>
<wgt id='1441'> +1.2995699e-12 </wgt>
<wgt id='1442'> +1.2707556e-12 </wgt>
<wgt id='1443'> +1.2919808e-12 </wgt>
<wgt id='1444'> +1.2867894e-12 </wgt>
<wgt id='1445'> +1.2938294e-12 </wgt>
<wgt id='1446'> +1.2890629e-12 </wgt>
<wgt id='1447'> +1.2899002e-12 </wgt>
<wgt id='1448'> +1.2915036e-12 </wgt>
<wgt id='1449'> +1.2885124e-12 </wgt>
<wgt id='1450'> +1.2902526e-12 </wgt>
<wgt id='1451'> +1.3028111e-12 </wgt>
<wgt id='1452'> +1.2681092e-12 </wgt>
<wgt id='1453'> +1.2919268e-12 </wgt>
<wgt id='1454'> +1.2717013e-12 </wgt>
<wgt id='1455'> +1.2847500e-12 </wgt>
<wgt id='1456'> +1.2939253e-12 </wgt>
<wgt id='1457'> +1.3026573e-12 </wgt>
<wgt id='1458'> +1.2838388e-12 </wgt>
<wgt id='1459'> +1.2920844e-12 </wgt>
<wgt id='1460'> +1.2858939e-12 </wgt>
<wgt id='1461'> +1.2897862e-12 </wgt>
<wgt id='1462'> +1.2848192e-12 </wgt>
<wgt id='1463'> +1.2984461e-12 </wgt>
<wgt id='1464'> +1.2916934e-12 </wgt>
<wgt id='1465'> +1.2527572e-12 </wgt>
<wgt id='1466'> +1.2617067e-12 </wgt>
<wgt id='1467'> +1.2703421e-12 </wgt>
<wgt id='1468'> +1.2764130e-12 </wgt>
<wgt id='1469'> +1.2846149e-12 </wgt>
<wgt id='1470'> +1.2988938e-12 </wgt>
<wgt id='1471'> +1.3036534e-12 </wgt>
<wgt id='1472'> +1.3105147e-12 </wgt>
<wgt id='1473'> +1.2916934e-12 </wgt>
<wgt id='1474'> +1.2885894e-12 </wgt>
<wgt id='1475'> +1.2894005e-12 </wgt>
<wgt id='1476'> +1.2930683e-12 </wgt>
<wgt id='1477'> +1.2944053e-12 </wgt>
<wgt id='1478'> +1.3012276e-12 </wgt>
<wgt id='1479'> +1.2998330e-12 </wgt>
<wgt id='1480'> +1.3055464e-12 </wgt>
<wgt id='1481'> +1.3015142e-12 </wgt>
<wgt id='1482'> +1.3009751e-12 </wgt>
<wgt id='1483'> +1.2814182e-12 </wgt>
<wgt id='1484'> +1.3018382e-12 </wgt>
<wgt id='1485'> +1.3068595e-12 </wgt>
<wgt id='1486'> +1.3017273e-12 </wgt>
<wgt id='1487'> +1.2899030e-12 </wgt>
<wgt id='1488'> +1.2992335e-12 </wgt>
<wgt id='1489'> +1.3086477e-12 </wgt>
<wgt id='1490'> +1.2955759e-12 </wgt>
<wgt id='1491'> +1.3060500e-12 </wgt>
<wgt id='1492'> +1.3004602e-12 </wgt>
<wgt id='1493'> +1.2812037e-12 </wgt>
<wgt id='1494'> +1.3036184e-12 </wgt>
<wgt id='1495'> +1.2989924e-12 </wgt>
<wgt id='1496'> +1.3031894e-12 </wgt>
<wgt id='1497'> +1.2832721e-12 </wgt>
<wgt id='1498'> +1.3001562e-12 </wgt>
<wgt id='1499'> +1.3024451e-12 </wgt>
<wgt id='1500'> +1.3034020e-12 </wgt>
<wgt id='1501'> +1.3025770e-12 </wgt>
<wgt id='1502'> +1.3056394e-12 </wgt>
<wgt id='1503'> +1.3036169e-12 </wgt>
<wgt id='1504'> +1.2956578e-12 </wgt>
<wgt id='1505'> +1.3020414e-12 </wgt>
<wgt id='1506'> +1.3026168e-12 </wgt>
<wgt id='1507'> +1.2989769e-12 </wgt>
<wgt id='1508'> +1.3093985e-12 </wgt>
<wgt id='1509'> +1.3399257e-12 </wgt>
<wgt id='1510'> +1.3379249e-12 </wgt>
<wgt id='1511'> +1.3422009e-12 </wgt>
<wgt id='1512'> +1.3381922e-12 </wgt>
<wgt id='1513'> +1.3427153e-12 </wgt>
<wgt id='1514'> +1.3432588e-12 </wgt>
<wgt id='1515'> +1.3396252e-12 </wgt>
<wgt id='1516'> +1.3450656e-12 </wgt>
<wgt id='1517'> +1.3479089e-12 </wgt>
<wgt id='1518'> +1.3437680e-12 </wgt>
<wgt id='1519'> +1.3311195e-12 </wgt>
<wgt id='1520'> +1.3406683e-12 </wgt>
<wgt id='1521'> +1.3483318e-12 </wgt>
<wgt id='1522'> +1.3376988e-12 </wgt>
<wgt id='1523'> +1.3471994e-12 </wgt>
<wgt id='1524'> +1.3438886e-12 </wgt>
<wgt id='1525'> +1.3487766e-12 </wgt>
<wgt id='1526'> +1.3344545e-12 </wgt>
<wgt id='1527'> +1.3351222e-12 </wgt>
<wgt id='1528'> +1.3410046e-12 </wgt>
<wgt id='1529'> +1.3399309e-12 </wgt>
<wgt id='1530'> +1.3461611e-12 </wgt>
<wgt id='1531'> +1.3432520e-12 </wgt>
<wgt id='1532'> +1.3347988e-12 </wgt>
<wgt id='1533'> +1.3394320e-12 </wgt>
<wgt id='1534'> +1.3421192e-12 </wgt>
<wgt id='1535'> +1.3323151e-12 </wgt>
<wgt id='1536'> +1.3396945e-12 </wgt>
<wgt id='1537'> +1.3433959e-12 </wgt>
<wgt id='1538'> +1.3377737e-12 </wgt>
<wgt id='1539'> +1.3264513e-12 </wgt>
<wgt id='1540'> +1.3474915e-12 </wgt>
<wgt id='1541'> +1.3477062e-12 </wgt>
<wgt id='1542'> +1.3432481e-12 </wgt>
<wgt id='1543'> +1.3360058e-12 </wgt>
<wgt id='1544'> +1.3523712e-12 </wgt>
<wgt id='1545'> +1.3450508e-12 </wgt>
<wgt id='1546'> +1.3356103e-12 </wgt>
<wgt id='1547'> +1.3455544e-12 </wgt>
<wgt id='1548'> +1.3366195e-12 </wgt>
<wgt id='1549'> +1.3406633e-12 </wgt>
<wgt id='1550'> +1.3393431e-12 </wgt>
<wgt id='1551'> +1.3415156e-12 </wgt>
<wgt id='1552'> +1.3402626e-12 </wgt>
<wgt id='1553'> +1.3417758e-12 </wgt>
<wgt id='1554'> +1.3397183e-12 </wgt>
<wgt id='1555'> +1.3402878e-12 </wgt>
<wgt id='1556'> +1.3366083e-12 </wgt>
<wgt id='1557'> +1.3446802e-12 </wgt>
<wgt id='1558'> +1.3397320e-12 </wgt>
<wgt id='1559'> +1.3420399e-12 </wgt>
<wgt id='1560'> +1.3421785e-12 </wgt>
<wgt id='1561'> +1.3388096e-12 </wgt>
<wgt id='1562'> +1.3406961e-12 </wgt>
<wgt id='1563'> +1.3422526e-12 </wgt>
<wgt id='1564'> +1.3399298e-12 </wgt>
<wgt id='1565'> +1.3380826e-12 </wgt>
<wgt id='1566'> +1.3410673e-12 </wgt>
<wgt id='1567'> +1.3433628e-12 </wgt>
<wgt id='1568'> +1.3397578e-12 </wgt>
<wgt id='1569'> +1.3399949e-12 </wgt>
<wgt id='1570'> +1.3407096e-12 </wgt>
<wgt id='1571'> +1.3401266e-12 </wgt>
<wgt id='1572'> +1.3364666e-12 </wgt>
<wgt id='1573'> +1.3336076e-12 </wgt>
<wgt id='1574'> +1.3423019e-12 </wgt>
<wgt id='1575'> +1.3420298e-12 </wgt>
<wgt id='1576'> +1.3387278e-12 </wgt>
<wgt id='1577'> +1.3409155e-12 </wgt>
<wgt id='1578'> +1.3421059e-12 </wgt>
<wgt id='1579'> +1.3387808e-12 </wgt>
<wgt id='1580'> +1.3374500e-12 </wgt>
<wgt id='1581'> +1.3407124e-12 </wgt>
<wgt id='1582'> +1.3409128e-12 </wgt>
<wgt id='1583'> +1.3400549e-12 </wgt>
<wgt id='1584'> +1.3414163e-12 </wgt>
<wgt id='1585'> +1.3374542e-12 </wgt>
<wgt id='1586'> +1.3390945e-12 </wgt>
<wgt id='1587'> +1.3411473e-12 </wgt>
<wgt id='1588'> +1.3384119e-12 </wgt>
<wgt id='1589'> +1.3423577e-12 </wgt>
<wgt id='1590'> +1.3405135e-12 </wgt>
<wgt id='1591'> +1.3397606e-12 </wgt>
<wgt id='1592'> +1.3396851e-12 </wgt>
<wgt id='1593'> +1.3396697e-12 </wgt>
<wgt id='1594'> +1.3388157e-12 </wgt>
<wgt id='1595'> +1.3421866e-12 </wgt>
<wgt id='1596'> +1.3378378e-12 </wgt>
<wgt id='1597'> +1.3390571e-12 </wgt>
<wgt id='1598'> +1.3388175e-12 </wgt>
<wgt id='1599'> +1.3367975e-12 </wgt>
<wgt id='1600'> +1.3381634e-12 </wgt>
<wgt id='1601'> +1.3388757e-12 </wgt>
<wgt id='1602'> +1.3401246e-12 </wgt>
<wgt id='1603'> +1.3404952e-12 </wgt>
<wgt id='1604'> +1.3387172e-12 </wgt>
<wgt id='1605'> +1.3408392e-12 </wgt>
<wgt id='1606'> +1.3410019e-12 </wgt>
<wgt id='1607'> +1.3397197e-12 </wgt>
<wgt id='1608'> +1.3413188e-12 </wgt>
<wgt id='1609'> +1.3402391e-12 </wgt>
<wgt id='1610'> +1.3387752e-12 </wgt>
<wgt id='1611'> +1.3434937e-12 </wgt>
<wgt id='1612'> +1.5602549e-12 </wgt>
<wgt id='1613'> +1.5897585e-12 </wgt>
<wgt id='1614'> +1.5902545e-12 </wgt>
<wgt id='1615'> +1.5542247e-12 </wgt>
<wgt id='1616'> +1.5673176e-12 </wgt>
<wgt id='1617'> +1.5954197e-12 </wgt>
<wgt id='1618'> +1.6368910e-12 </wgt>
<wgt id='1619'> +1.5515408e-12 </wgt>
<wgt id='1620'> +1.5036404e-12 </wgt>
<wgt id='1621'> +1.5956710e-12 </wgt>
<wgt id='1622'> +1.5404209e-12 </wgt>
<wgt id='1623'> +1.5763969e-12 </wgt>
<wgt id='1624'> +1.5390586e-12 </wgt>
<wgt id='1625'> +1.5912678e-12 </wgt>
<wgt id='1626'> +1.5200994e-12 </wgt>
<wgt id='1627'> +1.5508789e-12 </wgt>
<wgt id='1628'> +1.6129655e-12 </wgt>
<wgt id='1629'> +1.6254285e-12 </wgt>
<wgt id='1630'> +1.5290860e-12 </wgt>
<wgt id='1631'> +1.5531922e-12 </wgt>
<wgt id='1632'> +1.5068384e-12 </wgt>
<wgt id='1633'> +1.4930203e-12 </wgt>
<wgt id='1634'> +1.5948022e-12 </wgt>
<wgt id='1635'> +1.5238661e-12 </wgt>
<wgt id='1636'> +1.6029063e-12 </wgt>
<wgt id='1637'> +1.5248172e-12 </wgt>
<wgt id='1638'> +1.5721454e-12 </wgt>
<wgt id='1639'> +1.5139230e-12 </wgt>
<wgt id='1640'> +1.4912200e-12 </wgt>
<wgt id='1641'> +1.5495690e-12 </wgt>
<wgt id='1642'> +1.5104335e-12 </wgt>
<wgt id='1643'> +1.6414993e-12 </wgt>
<wgt id='1644'> +1.5015755e-12 </wgt>
<wgt id='1645'> +1.5628058e-12 </wgt>
<wgt id='1646'> +1.5339430e-12 </wgt>
<wgt id='1647'> +1.5644729e-12 </wgt>
<wgt id='1648'> +1.5476685e-12 </wgt>
<wgt id='1649'> +1.6196753e-12 </wgt>
<wgt id='1650'> +1.5360682e-12 </wgt>
<wgt id='1651'> +1.5095259e-12 </wgt>
<wgt id='1652'> +1.5377352e-12 </wgt>
<wgt id='1653'> +1.6082129e-12 </wgt>
<wgt id='1654'> +1.6076713e-12 </wgt>
<wgt id='1655'> +1.5749432e-12 </wgt>
<wgt id='1656'> +1.5419468e-12 </wgt>
<wgt id='1657'> +1.5561290e-12 </wgt>
<wgt id='1658'> +1.4927508e-12 </wgt>
<wgt id='1659'> +1.5390586e-12 </wgt>
<wgt id='1660'> +1.5992472e-12 </wgt>
<wgt id='1661'> +1.5902415e-12 </wgt>
<wgt id='1662'> +1.5208472e-12 </wgt>
<wgt id='1663'> +1.5537715e-12 </wgt>
<wgt id='1664'> +1.5717662e-12 </wgt>
<wgt id='1665'> +1.5046315e-12 </wgt>
<wgt id='1666'> +1.5552646e-12 </wgt>
<wgt id='1667'> +1.5807953e-12 </wgt>
<wgt id='1668'> +1.5649584e-12 </wgt>
<wgt id='1669'> +1.5678498e-12 </wgt>
<wgt id='1670'> +1.5502804e-12 </wgt>
<wgt id='1671'> +1.5658131e-12 </wgt>
<wgt id='1672'> +1.5706135e-12 </wgt>
<wgt id='1673'> +1.5499660e-12 </wgt>
<wgt id='1674'> +1.5607820e-12 </wgt>
<wgt id='1675'> +1.6237595e-12 </wgt>
<wgt id='1676'> +1.6118195e-12 </wgt>
<wgt id='1677'> +1.5676790e-12 </wgt>
<wgt id='1678'> +1.5178292e-12 </wgt>
<wgt id='1679'> +1.5312006e-12 </wgt>
<wgt id='1680'> +1.6048288e-12 </wgt>
<wgt id='1681'> +1.5882096e-12 </wgt>
<wgt id='1682'> +1.5643582e-12 </wgt>
<wgt id='1683'> +1.5489373e-12 </wgt>
<wgt id='1684'> +1.5474509e-12 </wgt>
<wgt id='1685'> +1.5611316e-12 </wgt>
<wgt id='1686'> +1.5721212e-12 </wgt>
<wgt id='1687'> +1.5866017e-12 </wgt>
<wgt id='1688'> +1.4983555e-12 </wgt>
<wgt id='1689'> +1.5176269e-12 </wgt>
<wgt id='1690'> +1.5649299e-12 </wgt>
<wgt id='1691'> +1.5837724e-12 </wgt>
<wgt id='1692'> +1.5904918e-12 </wgt>
<wgt id='1693'> +1.5484922e-12 </wgt>
<wgt id='1694'> +1.5850795e-12 </wgt>
<wgt id='1695'> +1.5367090e-12 </wgt>
<wgt id='1696'> +1.5581403e-12 </wgt>
<wgt id='1697'> +1.5687784e-12 </wgt>
<wgt id='1698'> +1.5381975e-12 </wgt>
<wgt id='1699'> +1.5702328e-12 </wgt>
<wgt id='1700'> +1.5865937e-12 </wgt>
<wgt id='1701'> +1.5390444e-12 </wgt>
<wgt id='1702'> +1.6067574e-12 </wgt>
<wgt id='1703'> +1.5778724e-12 </wgt>
<wgt id='1704'> +1.5848469e-12 </wgt>
<wgt id='1705'> +1.4946406e-12 </wgt>
<wgt id='1706'> +1.5743889e-12 </wgt>
<wgt id='1707'> +1.5425497e-12 </wgt>
<wgt id='1708'> +1.5760695e-12 </wgt>
<wgt id='1709'> +1.5656721e-12 </wgt>
<wgt id='1710'> +1.5330927e-12 </wgt>
<wgt id='1711'> +1.5592962e-12 </wgt>
<wgt id='1712'> +1.6023942e-12 </wgt>
<wgt id='1713'> +1.2875781e-12 </wgt>
<wgt id='1714'> +1.2009780e-12 </wgt>
<wgt id='1715'> +1.2610160e-12 </wgt>
<wgt id='1716'> +1.2997700e-12 </wgt>
<wgt id='1717'> +1.2899398e-12 </wgt>
<wgt id='1718'> +1.3044507e-12 </wgt>
<wgt id='1719'> +1.2578458e-12 </wgt>
<wgt id='1720'> +1.3403434e-12 </wgt>
<wgt id='1721'> +1.2853711e-12 </wgt>
<wgt id='1722'> +1.2894931e-12 </wgt>
<wgt id='1723'> +1.3137942e-12 </wgt>
<wgt id='1724'> +1.2724728e-12 </wgt>
<wgt id='1725'> +1.2910562e-12 </wgt>
<wgt id='1726'> +1.3417567e-12 </wgt>
<wgt id='1727'> +1.2942063e-12 </wgt>
<wgt id='1728'> +1.2824188e-12 </wgt>
<wgt id='1729'> +1.2811546e-12 </wgt>
<wgt id='1730'> +1.2718844e-12 </wgt>
<wgt id='1731'> +1.2354684e-12 </wgt>
<wgt id='1732'> +1.2824704e-12 </wgt>
<wgt id='1733'> +1.3225326e-12 </wgt>
<wgt id='1734'> +1.3096120e-12 </wgt>
<wgt id='1735'> +1.3172012e-12 </wgt>
<wgt id='1736'> +1.3476447e-12 </wgt>
<wgt id='1737'> +1.3497617e-12 </wgt>
<wgt id='1738'> +1.3022661e-12 </wgt>
<wgt id='1739'> +1.2997339e-12 </wgt>
<wgt id='1740'> +1.2602037e-12 </wgt>
<wgt id='1741'> +1.2929365e-12 </wgt>
<wgt id='1742'> +1.2838486e-12 </wgt>
<wgt id='1743'> +1.3256249e-12 </wgt>
<wgt id='1744'> +1.3402961e-12 </wgt>
<wgt id='1745'> +1.2888843e-12 </wgt>
<wgt id='1746'> +1.3112464e-12 </wgt>
<wgt id='1747'> +1.2962281e-12 </wgt>
<wgt id='1748'> +1.3110570e-12 </wgt>
<wgt id='1749'> +1.2819728e-12 </wgt>
<wgt id='1750'> +1.3105703e-12 </wgt>
<wgt id='1751'> +1.2780533e-12 </wgt>
<wgt id='1752'> +1.2571579e-12 </wgt>
<wgt id='1753'> +1.3127914e-12 </wgt>
<wgt id='1754'> +1.2242661e-12 </wgt>
<wgt id='1755'> +1.2688374e-12 </wgt>
<wgt id='1756'> +1.3246555e-12 </wgt>
<wgt id='1757'> +1.2801184e-12 </wgt>
<wgt id='1758'> +1.3172325e-12 </wgt>
<wgt id='1759'> +1.2323898e-12 </wgt>
<wgt id='1760'> +1.2436592e-12 </wgt>
<wgt id='1761'> +1.2703949e-12 </wgt>
<wgt id='1762'> +1.3188778e-12 </wgt>
<wgt id='1763'> +1.2945444e-12 </wgt>
<wgt id='1764'> +1.2890653e-12 </wgt>
<wgt id='1765'> +1.2974048e-12 </wgt>
<wgt id='1766'> +1.3287465e-12 </wgt>
<wgt id='1767'> +1.2975997e-12 </wgt>
<wgt id='1768'> +1.2962801e-12 </wgt>
<wgt id='1769'> +1.2511299e-12 </wgt>
<wgt id='1770'> +1.2574443e-12 </wgt>
<wgt id='1771'> +1.2833451e-12 </wgt>
<wgt id='1772'> +1.3036450e-12 </wgt>
<wgt id='1773'> +1.3047401e-12 </wgt>
<wgt id='1774'> +1.2721415e-12 </wgt>
<wgt id='1775'> +1.2781563e-12 </wgt>
<wgt id='1776'> +1.2615727e-12 </wgt>
<wgt id='1777'> +1.2125783e-12 </wgt>
<wgt id='1778'> +1.2576847e-12 </wgt>
<wgt id='1779'> +1.3375588e-12 </wgt>
<wgt id='1780'> +1.3213622e-12 </wgt>
<wgt id='1781'> +1.2846119e-12 </wgt>
<wgt id='1782'> +1.3020225e-12 </wgt>
<wgt id='1783'> +1.3179847e-12 </wgt>
<wgt id='1784'> +1.2891585e-12 </wgt>
<wgt id='1785'> +1.2817761e-12 </wgt>
<wgt id='1786'> +1.2363709e-12 </wgt>
<wgt id='1787'> +1.3086072e-12 </wgt>
<wgt id='1788'> +1.2433833e-12 </wgt>
<wgt id='1789'> +1.3203888e-12 </wgt>
<wgt id='1790'> +1.3208303e-12 </wgt>
<wgt id='1791'> +1.2827344e-12 </wgt>
<wgt id='1792'> +1.2629367e-12 </wgt>
<wgt id='1793'> +1.3375717e-12 </wgt>
<wgt id='1794'> +1.2879237e-12 </wgt>
<wgt id='1795'> +1.3133654e-12 </wgt>
<wgt id='1796'> +1.2466550e-12 </wgt>
<wgt id='1797'> +1.2845448e-12 </wgt>
<wgt id='1798'> +1.2735763e-12 </wgt>
<wgt id='1799'> +1.2520981e-12 </wgt>
<wgt id='1800'> +1.2716529e-12 </wgt>
<wgt id='1801'> +1.2602474e-12 </wgt>
<wgt id='1802'> +1.2554065e-12 </wgt>
<wgt id='1803'> +1.3132325e-12 </wgt>
<wgt id='1804'> +1.2801759e-12 </wgt>
<wgt id='1805'> +1.3357653e-12 </wgt>
<wgt id='1806'> +1.2699360e-12 </wgt>
<wgt id='1807'> +1.2484841e-12 </wgt>
<wgt id='1808'> +1.2573773e-12 </wgt>
<wgt id='1809'> +1.2778809e-12 </wgt>
<wgt id='1810'> +1.2822824e-12 </wgt>
<wgt id='1811'> +1.3099372e-12 </wgt>
<wgt id='1812'> +1.2761098e-12 </wgt>
<wgt id='1813'> +1.2577190e-12 </wgt>
<wgt id='1814'> +1.5500381e-12 </wgt>
<wgt id='1815'> +1.7549279e-12 </wgt>
<wgt id='1816'> +1.2875781e-12 </wgt>
<wgt id='1817'> +1.2009780e-12 </wgt>
<wgt id='1818'> +1.2610160e-12 </wgt>
<wgt id='1819'> +1.2997700e-12 </wgt>
<wgt id='1820'> +1.2899398e-12 </wgt>
<wgt id='1821'> +1.3044507e-12 </wgt>
<wgt id='1822'> +1.2578458e-12 </wgt>
<wgt id='1823'> +1.3403434e-12 </wgt>
<wgt id='1824'> +1.2853711e-12 </wgt>
<wgt id='1825'> +1.2894931e-12 </wgt>
<wgt id='1826'> +1.3137942e-12 </wgt>
<wgt id='1827'> +1.2724728e-12 </wgt>
<wgt id='1828'> +1.2910562e-12 </wgt>
<wgt id='1829'> +1.3417567e-12 </wgt>
<wgt id='1830'> +1.2942063e-12 </wgt>
<wgt id='1831'> +1.2824188e-12 </wgt>
<wgt id='1832'> +1.2811546e-12 </wgt>
<wgt id='1833'> +1.2718844e-12 </wgt>
<wgt id='1834'> +1.2354684e-12 </wgt>
<wgt id='1835'> +1.2824704e-12 </wgt>
<wgt id='1836'> +1.3225326e-12 </wgt>
<wgt id='1837'> +1.3096120e-12 </wgt>
<wgt id='1838'> +1.3172012e-12 </wgt>
<wgt id='1839'> +1.3476447e-12 </wgt>
<wgt id='1840'> +1.3497617e-12 </wgt>
<wgt id='1841'> +1.3022661e-12 </wgt>
<wgt id='1842'> +1.2997339e-12 </wgt>
<wgt id='1843'> +1.2602037e-12 </wgt>
<wgt id='1844'> +1.2929365e-12 </wgt>
<wgt id='1845'> +1.2838486e-12 </wgt>
<wgt id='1846'> +1.3256249e-12 </wgt>
<wgt id='1847'> +1.3402961e-12 </wgt>
<wgt id='1848'> +1.2888843e-12 </wgt>
<wgt id='1849'> +1.3112464e-12 </wgt>
<wgt id='1850'> +1.2962281e-12 </wgt>
<wgt id='1851'> +1.3110570e-12 </wgt>
<wgt id='1852'> +1.2819728e-12 </wgt>
<wgt id='1853'> +1.3105703e-12 </wgt>
<wgt id='1854'> +1.2780533e-12 </wgt>
<wgt id='1855'> +1.2571579e-12 </wgt>
<wgt id='1856'> +1.3127914e-12 </wgt>
<wgt id='1857'> +1.2242661e-12 </wgt>
<wgt id='1858'> +1.2688374e-12 </wgt>
<wgt id='1859'> +1.3246555e-12 </wgt>
<wgt id='1860'> +1.2801184e-12 </wgt>
<wgt id='1861'> +1.3172325e-12 </wgt>
<wgt id='1862'> +1.2323898e-12 </wgt>
<wgt id='1863'> +1.2436592e-12 </wgt>
<wgt id='1864'> +1.2703949e-12 </wgt>
<wgt id='1865'> +1.3188778e-12 </wgt>
<wgt id='1866'> +1.2945444e-12 </wgt>
<wgt id='1867'> +1.2890653e-12 </wgt>
<wgt id='1868'> +1.2974048e-12 </wgt>
<wgt id='1869'> +1.3287465e-12 </wgt>
<wgt id='1870'> +1.2975997e-12 </wgt>
<wgt id='1871'> +1.2962801e-12 </wgt>
<wgt id='1872'> +1.2511299e-12 </wgt>
<wgt id='1873'> +1.2574443e-12 </wgt>
<wgt id='1874'> +1.2833451e-12 </wgt>
<wgt id='1875'> +1.3036450e-12 </wgt>
<wgt id='1876'> +1.3047401e-12 </wgt>
<wgt id='1877'> +1.2721415e-12 </wgt>
<wgt id='1878'> +1.2781563e-12 </wgt>
<wgt id='1879'> +1.2615727e-12 </wgt>
<wgt id='1880'> +1.2125783e-12 </wgt>
<wgt id='1881'> +1.2576847e-12 </wgt>
<wgt id='1882'> +1.3375588e-12 </wgt>
<wgt id='1883'> +1.3213622e-12 </wgt>
<wgt id='1884'> +1.2846119e-12 </wgt>
<wgt id='1885'> +1.3020225e-12 </wgt>
<wgt id='1886'> +1.3179847e-12 </wgt>
<wgt id='1887'> +1.2891585e-12 </wgt>
<wgt id='1888'> +1.2817761e-12 </wgt>
<wgt id='1889'> +1.2363709e-12 </wgt>
<wgt id='1890'> +1.3086072e-12 </wgt>
<wgt id='1891'> +1.2433833e-12 </wgt>
<wgt id='1892'> +1.3203888e-12 </wgt>
<wgt id='1893'> +1.3208303e-12 </wgt>
<wgt id='1894'> +1.2827344e-12 </wgt>
<wgt id='1895'> +1.2629367e-12 </wgt>
<wgt id='1896'> +1.3375717e-12 </wgt>
<wgt id='1897'> +1.2879237e-12 </wgt>
<wgt id='1898'> +1.3133654e-12 </wgt>
<wgt id='1899'> +1.2466550e-12 </wgt>
<wgt id='1900'> +1.2845448e-12 </wgt>
<wgt id='1901'> +1.2735763e-12 </wgt>
<wgt id='1902'> +1.2520981e-12 </wgt>
<wgt id='1903'> +1.2716529e-12 </wgt>
<wgt id='1904'> +1.2602474e-12 </wgt>
<wgt id='1905'> +1.2554065e-12 </wgt>
<wgt id='1906'> +1.3132325e-12 </wgt>
<wgt id='1907'> +1.2801759e-12 </wgt>
<wgt id='1908'> +1.3357653e-12 </wgt>
<wgt id='1909'> +1.2699360e-12 </wgt>
<wgt id='1910'> +1.2484841e-12 </wgt>
<wgt id='1911'> +1.2573773e-12 </wgt>
<wgt id='1912'> +1.2778809e-12 </wgt>
<wgt id='1913'> +1.2822824e-12 </wgt>
<wgt id='1914'> +1.3099372e-12 </wgt>
<wgt id='1915'> +1.2761098e-12 </wgt>
<wgt id='1916'> +1.2577190e-12 </wgt>
<wgt id='1917'> +1.2784815e-12 </wgt>
<wgt id='1918'> +1.2906865e-12 </wgt>
<wgt id='1919'> +1.2760751e-12 </wgt>
</rwgt>
</event>
<event>
 9      1 +1.5538000e-12 3.90336000e+01 7.81860800e-03 1.37487100e-01
       -2 -1    0    0    0  501 -0.0000000000e+00 +0.0000000000e+00 +1.7060425901e+00 1.7060425901e+00 0.0000000000e+00 0.0000e+00 1.0000e+00
        2 -1    0    0  502    0 +0.0000000000e+00 -0.0000000000e+00 -1.3334495653e+03 1.3334495653e+03 0.0000000000e+00 0.0000e+00 -1.0000e+00
     1023  2    1    2    0    0 +1.8439550876e+01 -3.0961673679e+01 -1.0940262672e+03 1.0947223826e+03 1.4999309636e+01 0.0000e+00 0.0000e+00
  1000023  2    3    3    0    0 +1.4961256536e+01 -2.0689748475e+01 -6.2753504005e+02 6.2807832551e+02 5.5001447047e+00 0.0000e+00 0.0000e+00
       21  1    1    2  502  501 -1.8439550876e+01 +3.0961673679e+01 -2.3771725551e+02 2.4043322533e+02 0.0000000000e+00 0.0000e+00 1.0000e+00
  1000022  1    4    4    0    0 +1.3167918388e+01 -1.8495937675e+01 -5.4997362485e+02 5.5046478709e+02 5.0000000000e+00 0.0000e+00 -1.0000e+00
      -11  1    4    4    0    0 +3.3820443189e-01 -3.3007738698e-01 -1.5059679169e+01 1.5067092295e+01 5.1100000000e-04 0.0000e+00 1.0000e+00
       11  1    4    4    0    0 +1.4551337168e+00 -1.8637334127e+00 -6.2501736029e+01 6.2546446128e+01 5.1100000000e-04 0.0000e+00 -1.0000e+00
  1000022  1    3    3    0    0 +3.4782943398e+00 -1.0271925205e+01 -4.6649122715e+02 4.6664405706e+02 5.0000000000e+00 0.0000e+00 -1.0000e+00
<mgrwt>
<rscale>  1 0.39033595E+02</rscale>
<asrwt>0</asrwt>
<pdfrwt beam="1">  1        2 0.20514534E+00 0.39033595E+02</pdfrwt>
<pdfrwt beam="2">  1       -2 0.26246905E-03 0.39033595E+02</pdfrwt>
<totfact> 0.21534700E+05</totfact>
</mgrwt>
<rwgt>
<wgt id='1001'> +1.5538000e-12 </wgt>
<wgt id='1002'> +1.5197482e-12 </wgt>
<wgt id='1003'> +1.5183759e-12 </wgt>
<wgt id='1004'> +1.5563102e-12 </wgt>
<wgt id='1005'> +1.5024027e-12 </wgt>
<wgt id='1006'> +1.3689759e-12 </wgt>
<wgt id='1007'> +1.3573006e-12 </wgt>
<wgt id='1008'> +1.3566662e-12 </wgt>
<wgt id='1009'> +1.3693782e-12 </wgt>
<wgt id='1010'> +1.3487232e-12 </wgt>
<wgt id='1011'> +1.7990139e-12 </wgt>
<wgt id='1012'> +1.7281838e-12 </wgt>
<wgt id='1013'> +1.7256474e-12 </wgt>
<wgt id='1014'> +1.8051198e-12 </wgt>
<wgt id='1015'> +1.6971424e-12 </wgt>
<wgt id='1016'> +1.7196870e-12 </wgt>
<wgt id='1017'> +1.6511095e-12 </wgt>
<wgt id='1018'> +1.6486640e-12 </wgt>
<wgt id='1019'> +1.7256474e-12 </wgt>
<wgt id='1020'> +1.6211915e-12 </wgt>
<wgt id='1021'> +1.5151307e-12 </wgt>
<wgt id='1022'> +1.4746206e-12 </wgt>
<wgt id='1023'> +1.4730784e-12 </wgt>
<wgt id='1024'> +1.5183759e-12 </wgt>
<wgt id='1025'> +1.4553612e-12 </wgt>
<wgt id='1026'> +1.9910804e-12 </wgt>
<wgt id='1027'> +1.8775616e-12 </wgt>
<wgt id='1028'> +1.8737209e-12 </wgt>
<wgt id='1029'> +2.0015292e-12 </wgt>
<wgt id='1030'> +1.8313285e-12 </wgt>
<wgt id='1031'> +1.3638552e-12 </wgt>
<wgt id='1032'> +1.3695180e-12 </wgt>
<wgt id='1033'> +1.3693782e-12 </wgt>
<wgt id='1034'> +1.3624042e-12 </wgt>
<wgt id='1035'> +1.3664963e-12 </wgt>
<wgt id='1036'> +1.2016250e-12 </wgt>
<wgt id='1037'> +1.2231287e-12 </wgt>
<wgt id='1038'> +1.2235370e-12 </wgt>
<wgt id='1039'> +1.1987627e-12 </wgt>
<wgt id='1040'> +1.2267186e-12 </wgt>
<wgt id='1041'> +1.5790928e-12 </wgt>
<wgt id='1042'> +1.5573494e-12 </wgt>
<wgt id='1043'> +1.5563102e-12 </wgt>
<wgt id='1044'> +1.5802138e-12 </wgt>
<wgt id='1045'> +1.5436200e-12 </wgt>
<wgt id='1046'> +1.5538000e-12 </wgt>
<wgt id='1047'> +1.5767496e-12 </wgt>
<wgt id='1048'> +1.5844218e-12 </wgt>
<wgt id='1049'> +1.5321730e-12 </wgt>
<wgt id='1050'> +1.5274857e-12 </wgt>
<wgt id='1051'> +1.5254766e-12 </wgt>
<wgt id='1052'> +1.5497173e-12 </wgt>
<wgt id='1053'> +1.5980231e-12 </wgt>
<wgt id='1054'> +1.5940357e-12 </wgt>
<wgt id='1055'> +1.5281002e-12 </wgt>
<wgt id='1056'> +1.4697716e-12 </wgt>
<wgt id='1057'> +1.5573034e-12 </wgt>
<wgt id='1058'> +1.5298655e-12 </wgt>
<wgt id='1059'> +1.5459955e-12 </wgt>
<wgt id='1060'> +1.5966678e-12 </wgt>
<wgt id='1061'> +1.5679294e-12 </wgt>
<wgt id='1062'> +1.5251008e-12 </wgt>
<wgt id='1063'> +1.5238228e-12 </wgt>
<wgt id='1064'> +1.5423527e-12 </wgt>
<wgt id='1065'> +1.5735472e-12 </wgt>
<wgt id='1066'> +1.5366937e-12 </wgt>
<wgt id='1067'> +1.5727506e-12 </wgt>
<wgt id='1068'> +1.5945523e-12 </wgt>
<wgt id='1069'> +1.5900746e-12 </wgt>
<wgt id='1070'> +1.5269795e-12 </wgt>
<wgt id='1071'> +1.5632185e-12 </wgt>
<wgt id='1072'> +1.6075422e-12 </wgt>
<wgt id='1073'> +1.5626432e-12 </wgt>
<wgt id='1074'> +1.5648901e-12 </wgt>
<wgt id='1075'> +1.5410410e-12 </wgt>
<wgt id='1076'> +1.5656384e-12 </wgt>
<wgt id='1077'> +1.5776925e-12 </wgt>
<wgt id='1078'> +1.5397841e-12 </wgt>
<wgt id='1079'> +1.5664526e-12 </wgt>
<wgt id='1080'> +1.5290528e-12 </wgt>
<wgt id='1081'> +1.5420192e-12 </wgt>
<wgt id='1082'> +1.5614895e-12 </wgt>
<wgt id='1083'> +1.5102410e-12 </wgt>
<wgt id='1084'> +1.5559506e-12 </wgt>
<wgt id='1085'> +1.5336739e-12 </wgt>
<wgt id='1086'> +1.6020595e-12 </wgt>
<wgt id='1087'> +1.5504675e-12 </wgt>
<wgt id='1088'> +1.5576591e-12 </wgt>
<wgt id='1089'> +1.5338984e-12 </wgt>
<wgt id='1090'> +1.5583903e-12 </wgt>
<wgt id='1091'> +1.5254025e-12 </wgt>
<wgt id='1092'> +1.5464316e-12 </wgt>
<wgt id='1093'> +1.5752208e-12 </wgt>
<wgt id='1094'> +1.6024190e-12 </wgt>
<wgt id='1095'> +1.5960171e-12 </wgt>
<wgt id='1096'> +1.5184134e-12 </wgt>
<wgt id='1097'> +1.5724341e-12 </wgt>
<wgt id='1098'> +1.5699947e-12 </wgt>
<wgt id='1099'> +1.5940508e-12 </wgt>
<wgt id='1100'> +1.5815577e-12 </wgt>
<wgt id='1101'> +1.5975399e-12 </wgt>
<wgt id='1102'> +1.5174356e-12 </wgt>
<wgt id='1103'> +1.5361827e-12 </wgt>
<wgt id='1104'> +1.5517951e-12 </wgt>
<wgt id='1105'> +1.5686879e-12 </wgt>
<wgt id='1106'> +1.5534246e-12 </wgt>
<wgt id='1107'> +1.5551240e-12 </wgt>
<wgt id='1108'> +1.5304344e-12 </wgt>
<wgt id='1109'> +1.5743999e-12 </wgt>
<wgt id='1110'> +1.5911674e-12 </wgt>
<wgt id='1111'> +1.5501803e-12 </wgt>
<wgt id='1112'> +1.5524257e-12 </wgt>
<wgt id='1113'> +1.5635824e-12 </wgt>
<wgt id='1114'> +1.5511562e-12 </wgt>
<wgt id='1115'> +1.5740712e-12 </wgt>
<wgt id='1116'> +1.5773095e-12 </wgt>
<wgt id='1117'> +1.5618639e-12 </wgt>
<wgt id='1118'> +1.5350157e-12 </wgt>
<wgt id='1119'> +1.5117053e-12 </wgt>
<wgt id='1120'> +1.5591565e-12 </wgt>
<wgt id='1121'> +1.5151256e-12 </wgt>
<wgt id='1122'> +1.5695636e-12 </wgt>
<wgt id='1123'> +1.5480617e-12 </wgt>
<wgt id='1124'> +1.5814483e-12 </wgt>
<wgt id='1125'> +1.5159171e-12 </wgt>
<wgt id='1126'> +1.5206776e-12 </wgt>
<wgt id='1127'> +1.5614559e-12 </wgt>
<wgt id='1128'> +1.5251008e-12 </wgt>
<wgt id='1129'> +1.5300698e-12 </wgt>
<wgt id='1130'> +1.5468024e-12 </wgt>
<wgt id='1131'> +1.5884044e-12 </wgt>
<wgt id='1132'> +1.5407937e-12 </wgt>
<wgt id='1133'> +1.5589686e-12 </wgt>
<wgt id='1134'> +1.5483317e-12 </wgt>
<wgt id='1135'> +1.4796495e-12 </wgt>
<wgt id='1136'> +1.5329781e-12 </wgt>
<wgt id='1137'> +1.5659167e-12 </wgt>
<wgt id='1138'> +1.5397713e-12 </wgt>
<wgt id='1139'> +1.5417780e-12 </wgt>
<wgt id='1140'> +1.5548550e-12 </wgt>
<wgt id='1141'> +1.5217168e-12 </wgt>
<wgt id='1142'> +1.6038204e-12 </wgt>
<wgt id='1143'> +1.5083737e-12 </wgt>
<wgt id='1144'> +1.5456895e-12 </wgt>
<wgt id='1145'> +1.5827363e-12 </wgt>
<wgt id='1146'> +1.5552968e-12 </wgt>
<wgt id='1147'> +1.2919177e-12 </wgt>
<wgt id='1148'> +1.3152116e-12 </wgt>
<wgt id='1149'> +1.3972293e-12 </wgt>
<wgt id='1150'> +1.3269474e-12 </wgt>
<wgt id='1151'> +1.2150355e-12 </wgt>
<wgt id='1152'> +1.6682773e-12 </wgt>
<wgt id='1153'> +1.6741464e-12 </wgt>
<wgt id='1154'> +1.6648436e-12 </wgt>
<wgt id='1155'> +1.6649336e-12 </wgt>
<wgt id='1156'> +1.6699684e-12 </wgt>
<wgt id='1157'> +1.6764132e-12 </wgt>
<wgt id='1158'> +1.6572960e-12 </wgt>
<wgt id='1159'> +1.6747852e-12 </wgt>
<wgt id='1160'> +1.6641232e-12 </wgt>
<wgt id='1161'> +1.6663932e-12 </wgt>
<wgt id='1162'> +1.6695615e-12 </wgt>
<wgt id='1163'> +1.6677909e-12 </wgt>
<wgt id='1164'> +1.6687047e-12 </wgt>
<wgt id='1165'> +1.6747515e-12 </wgt>
<wgt id='1166'> +1.6620199e-12 </wgt>
<wgt id='1167'> +1.6904006e-12 </wgt>
<wgt id='1168'> +1.6425758e-12 </wgt>
<wgt id='1169'> +1.6748080e-12 </wgt>
<wgt id='1170'> +1.6634351e-12 </wgt>
<wgt id='1171'> +1.6630566e-12 </wgt>
<wgt id='1172'> +1.6747788e-12 </wgt>
<wgt id='1173'> +1.6521132e-12 </wgt>
<wgt id='1174'> +1.6850688e-12 </wgt>
<wgt id='1175'> +1.6682183e-12 </wgt>
<wgt id='1176'> +1.6684419e-12 </wgt>
<wgt id='1177'> +1.6667810e-12 </wgt>
<wgt id='1178'> +1.6717550e-12 </wgt>
<wgt id='1179'> +1.6674005e-12 </wgt>
<wgt id='1180'> +1.6668334e-12 </wgt>
<wgt id='1181'> +1.6675972e-12 </wgt>
<wgt id='1182'> +1.6685157e-12 </wgt>
<wgt id='1183'> +1.6717728e-12 </wgt>
<wgt id='1184'> +1.6681691e-12 </wgt>
<wgt id='1185'> +1.6577559e-12 </wgt>
<wgt id='1186'> +1.6730969e-12 </wgt>
<wgt id='1187'> +1.6705425e-12 </wgt>
<wgt id='1188'> +1.6674535e-12 </wgt>
<wgt id='1189'> +1.6638693e-12 </wgt>
<wgt id='1190'> +1.6468877e-12 </wgt>
<wgt id='1191'> +1.6731032e-12 </wgt>
<wgt id='1192'> +1.6779527e-12 </wgt>
<wgt id='1193'> +1.3104867e-12 </wgt>
<wgt id='1194'> +1.2940094e-12 </wgt>
<wgt id='1195'> +1.3240047e-12 </wgt>
<wgt id='1196'> +1.3084442e-12 </wgt>
<wgt id='1197'> +1.3126923e-12 </wgt>
<wgt id='1198'> +1.3076326e-12 </wgt>
<wgt id='1199'> +1.3147529e-12 </wgt>
<wgt id='1200'> +1.3092968e-12 </wgt>
<wgt id='1201'> +1.3112928e-12 </wgt>
<wgt id='1202'> +1.3109789e-12 </wgt>
<wgt id='1203'> +1.3097333e-12 </wgt>
<wgt id='1204'> +1.3123728e-12 </wgt>
<wgt id='1205'> +1.3091339e-12 </wgt>
<wgt id='1206'> +1.3132148e-12 </wgt>
<wgt id='1207'> +1.3067582e-12 </wgt>
<wgt id='1208'> +1.3205058e-12 </wgt>
<wgt id='1209'> +1.3069374e-12 </wgt>
<wgt id='1210'> +1.3089904e-12 </wgt>
<wgt id='1211'> +1.3092389e-12 </wgt>
<wgt id='1212'> +1.3118709e-12 </wgt>
<wgt id='1213'> +1.3095552e-12 </wgt>
<wgt id='1214'> +1.2929507e-12 </wgt>
<wgt id='1215'> +1.3362707e-12 </wgt>
<wgt id='1216'> +1.3178399e-12 </wgt>
<wgt id='1217'> +1.3050707e-12 </wgt>
<wgt id='1218'> +1.3106148e-12 </wgt>
<wgt id='1219'> +1.3101336e-12 </wgt>
<wgt id='1220'> +1.3177957e-12 </wgt>
<wgt id='1221'> +1.3095019e-12 </wgt>
<wgt id='1222'> +1.3262490e-12 </wgt>
<wgt id='1223'> +1.2888111e-12 </wgt>
<wgt id='1224'> +1.3130458e-12 </wgt>
<wgt id='1225'> +1.3095257e-12 </wgt>
<wgt id='1226'> +1.3065881e-12 </wgt>
<wgt id='1227'> +1.3131470e-12 </wgt>
<wgt id='1228'> +1.3097959e-12 </wgt>
<wgt id='1229'> +1.3112946e-12 </wgt>
<wgt id='1230'> +1.3149887e-12 </wgt>
<wgt id='1231'> +1.3197666e-12 </wgt>
<wgt id='1232'> +1.3154943e-12 </wgt>
<wgt id='1233'> +1.3092535e-12 </wgt>
<wgt id='1234'> +1.3104867e-12 </wgt>
<wgt id='1235'> +1.3031956e-12 </wgt>
<wgt id='1236'> +1.3060209e-12 </wgt>
<wgt id='1237'> +1.3085204e-12 </wgt>
<wgt id='1238'> +1.3126358e-12 </wgt>
<wgt id='1239'> +1.3142686e-12 </wgt>
<wgt id='1240'> +1.3159317e-12 </wgt>
<wgt id='1241'> +1.3472171e-12 </wgt>
<wgt id='1242'> +1.3320815e-12 </wgt>
<wgt id='1243'> +1.3621336e-12 </wgt>
<wgt id='1244'> +1.3565476e-12 </wgt>
<wgt id='1245'> +1.3403253e-12 </wgt>
<wgt id='1246'> +1.3439019e-12 </wgt>
<wgt id='1247'> +1.3500637e-12 </wgt>
<wgt id='1248'> +1.3472999e-12 </wgt>
<wgt id='1249'> +1.3471053e-12 </wgt>
<wgt id='1250'> +1.3518090e-12 </wgt>
<wgt id='1251'> +1.3439908e-12 </wgt>
<wgt id='1252'> +1.3437057e-12 </wgt>
<wgt id='1253'> +1.3499155e-12 </wgt>
<wgt id='1254'> +1.3484306e-12 </wgt>
<wgt id='1255'> +1.3464040e-12 </wgt>
<wgt id='1256'> +1.3427173e-12 </wgt>
<wgt id='1257'> +1.3586126e-12 </wgt>
<wgt id='1258'> +1.3647650e-12 </wgt>
<wgt id='1259'> +1.3303360e-12 </wgt>
<wgt id='1260'> +1.3502808e-12 </wgt>
<wgt id='1261'> +1.3440035e-12 </wgt>
<wgt id='1262'> +1.3490622e-12 </wgt>
<wgt id='1263'> +1.3464460e-12 </wgt>
<wgt id='1264'> +1.3466417e-12 </wgt>
<wgt id='1265'> +1.3478988e-12 </wgt>
<wgt id='1266'> +1.3311606e-12 </wgt>
<wgt id='1267'> +1.3627673e-12 </wgt>
<wgt id='1268'> +1.3526501e-12 </wgt>
<wgt id='1269'> +1.3436916e-12 </wgt>
<wgt id='1270'> +1.3557319e-12 </wgt>
<wgt id='1271'> +1.3486158e-12 </wgt>
<wgt id='1272'> +1.3504557e-12 </wgt>
<wgt id='1273'> +1.3470684e-12 </wgt>
<wgt id='1274'> +1.3494640e-12 </wgt>
<wgt id='1275'> +1.3435485e-12 </wgt>
<wgt id='1276'> +1.3510929e-12 </wgt>
<wgt id='1277'> +1.3447969e-12 </wgt>
<wgt id='1278'> +1.3580165e-12 </wgt>
<wgt id='1279'> +1.3548092e-12 </wgt>
<wgt id='1280'> +1.3465301e-12 </wgt>
<wgt id='1281'> +1.3569414e-12 </wgt>
<wgt id='1282'> +1.3472171e-12 </wgt>
<wgt id='1283'> +1.3386759e-12 </wgt>
<wgt id='1284'> +1.3421994e-12 </wgt>
<wgt id='1285'> +1.3449504e-12 </wgt>
<wgt id='1286'> +1.3495435e-12 </wgt>
<wgt id='1287'> +1.3510836e-12 </wgt>
<wgt id='1288'> +1.3522974e-12 </wgt>
<wgt id='1289'> +1.3497197e-12 </wgt>
<wgt id='1290'> +1.3586831e-12 </wgt>
<wgt id='1291'> +1.3400695e-12 </wgt>
<wgt id='1292'> +1.3470782e-12 </wgt>
<wgt id='1293'> +1.3516107e-12 </wgt>
<wgt id='1294'> +1.3391426e-12 </wgt>
<wgt id='1295'> +1.3597247e-12 </wgt>
<wgt id='1296'> +1.3569653e-12 </wgt>
<wgt id='1297'> +1.3407185e-12 </wgt>
<wgt id='1298'> +1.3519286e-12 </wgt>
<wgt id='1299'> +1.3468061e-12 </wgt>
<wgt id='1300'> +1.3512713e-12 </wgt>
<wgt id='1301'> +1.3463761e-12 </wgt>
<wgt id='1302'> +1.3467911e-12 </wgt>
<wgt id='1303'> +1.3537091e-12 </wgt>
<wgt id='1304'> +1.3488185e-12 </wgt>
<wgt id='1305'> +1.3502217e-12 </wgt>
<wgt id='1306'> +1.3567670e-12 </wgt>
<wgt id='1307'> +1.3416563e-12 </wgt>
<wgt id='1308'> +1.3579089e-12 </wgt>
<wgt id='1309'> +1.3434114e-12 </wgt>
<wgt id='1310'> +1.3551322e-12 </wgt>
<wgt id='1311'> +1.3441655e-12 </wgt>
<wgt id='1312'> +1.3571791e-12 </wgt>
<wgt id='1313'> +1.3425216e-12 </wgt>
<wgt id='1314'> +1.3324603e-12 </wgt>
<wgt id='1315'> +1.3638099e-12 </wgt>
<wgt id='1316'> +1.3562774e-12 </wgt>
<wgt id='1317'> +1.3514239e-12 </wgt>
<wgt id='1318'> +1.3575891e-12 </wgt>
<wgt id='1319'> +1.3388979e-12 </wgt>
<wgt id='1320'> +1.3643740e-12 </wgt>
<wgt id='1321'> +1.3352800e-12 </wgt>
<wgt id='1322'> +1.3479906e-12 </wgt>
<wgt id='1323'> +1.3516150e-12 </wgt>
<wgt id='1324'> +1.3460968e-12 </wgt>
<wgt id='1325'> +1.3556114e-12 </wgt>
<wgt id='1326'> +1.3471161e-12 </wgt>
<wgt id='1327'> +1.3544060e-12 </wgt>
<wgt id='1328'> +1.3504584e-12 </wgt>
<wgt id='1329'> +1.3482148e-12 </wgt>
<wgt id='1330'> +1.3306388e-12 </wgt>
<wgt id='1331'> +1.3566661e-12 </wgt>
<wgt id='1332'> +1.3620666e-12 </wgt>
<wgt id='1333'> +1.3469914e-12 </wgt>
<wgt id='1334'> +1.3452836e-12 </wgt>
<wgt id='1335'> +1.3601443e-12 </wgt>
<wgt id='1336'> +1.3555817e-12 </wgt>
<wgt id='1337'> +1.3540993e-12 </wgt>
<wgt id='1338'> +1.3513470e-12 </wgt>
<wgt id='1339'> +1.3524293e-12 </wgt>
<wgt id='1340'> +1.3017070e-12 </wgt>
<wgt id='1341'> +1.3104004e-12 </wgt>
<wgt id='1342'> +1.2924226e-12 </wgt>
<wgt id='1343'> +1.2991030e-12 </wgt>
<wgt id='1344'> +1.3035016e-12 </wgt>
<wgt id='1345'> +1.2909543e-12 </wgt>
<wgt id='1346'> +1.3115986e-12 </wgt>
<wgt id='1347'> +1.3092884e-12 </wgt>
<wgt id='1348'> +1.2932863e-12 </wgt>
<wgt id='1349'> +1.3035196e-12 </wgt>
<wgt id='1350'> +1.2999169e-12 </wgt>
<wgt id='1351'> +1.3031114e-12 </wgt>
<wgt id='1352'> +1.2986473e-12 </wgt>
<wgt id='1353'> +1.2983995e-12 </wgt>
<wgt id='1354'> +1.3076728e-12 </wgt>
<wgt id='1355'> +1.3017885e-12 </wgt>
<wgt id='1356'> +1.3016832e-12 </wgt>
<wgt id='1357'> +1.3118595e-12 </wgt>
<wgt id='1358'> +1.2899439e-12 </wgt>
<wgt id='1359'> +1.3082987e-12 </wgt>
<wgt id='1360'> +1.2959688e-12 </wgt>
<wgt id='1361'> +1.3069922e-12 </wgt>
<wgt id='1362'> +1.2950177e-12 </wgt>
<wgt id='1363'> +1.3142767e-12 </wgt>
<wgt id='1364'> +1.2937999e-12 </wgt>
<wgt id='1365'> +1.3078378e-12 </wgt>
<wgt id='1366'> +1.2873595e-12 </wgt>
<wgt id='1367'> +1.3081569e-12 </wgt>
<wgt id='1368'> +1.3021275e-12 </wgt>
<wgt id='1369'> +1.3082462e-12 </wgt>
<wgt id='1370'> +1.2931851e-12 </wgt>
<wgt id='1371'> +1.3130081e-12 </wgt>
<wgt id='1372'> +1.2864294e-12 </wgt>
<wgt id='1373'> +1.2966487e-12 </wgt>
<wgt id='1374'> +1.3060025e-12 </wgt>
<wgt id='1375'> +1.2983367e-12 </wgt>
<wgt id='1376'> +1.3077520e-12 </wgt>
<wgt id='1377'> +1.2999171e-12 </wgt>
<wgt id='1378'> +1.3059272e-12 </wgt>
<wgt id='1379'> +1.3023554e-12 </wgt>
<wgt id='1380'> +1.3002423e-12 </wgt>
<wgt id='1381'> +1.2808532e-12 </wgt>
<wgt id='1382'> +1.3093546e-12 </wgt>
<wgt id='1383'> +1.3132583e-12 </wgt>
<wgt id='1384'> +1.2965857e-12 </wgt>
<wgt id='1385'> +1.2970534e-12 </wgt>
<wgt id='1386'> +1.3118150e-12 </wgt>
<wgt id='1387'> +1.3091489e-12 </wgt>
<wgt id='1388'> +1.3045944e-12 </wgt>
<wgt id='1389'> +1.3040291e-12 </wgt>
<wgt id='1390'> +1.3053056e-12 </wgt>
<wgt id='1391'> +1.2999900e-12 </wgt>
<wgt id='1392'> +1.2335496e-12 </wgt>
<wgt id='1393'> +1.2548339e-12 </wgt>
<wgt id='1394'> +1.2769516e-12 </wgt>
<wgt id='1395'> +1.3199771e-12 </wgt>
<wgt id='1396'> +1.2991922e-12 </wgt>
<wgt id='1397'> +1.2842972e-12 </wgt>
<wgt id='1398'> +1.2866929e-12 </wgt>
<wgt id='1399'> +1.2890979e-12 </wgt>
<wgt id='1400'> +1.2918134e-12 </wgt>
<wgt id='1401'> +1.2954173e-12 </wgt>
<wgt id='1402'> +1.3016078e-12 </wgt>
<wgt id='1403'> +1.3051986e-12 </wgt>
<wgt id='1404'> +1.3081593e-12 </wgt>
<wgt id='1405'> +1.2991922e-12 </wgt>
<wgt id='1406'> +1.2957654e-12 </wgt>
<wgt id='1407'> +1.2976684e-12 </wgt>
<wgt id='1408'> +1.3007272e-12 </wgt>
<wgt id='1409'> +1.3012985e-12 </wgt>
<wgt id='1410'> +1.3281726e-12 </wgt>
<wgt id='1411'> +1.3374414e-12 </wgt>
<wgt id='1412'> +1.3162156e-12 </wgt>
<wgt id='1413'> +1.3255994e-12 </wgt>
<wgt id='1414'> +1.3306387e-12 </wgt>
<wgt id='1415'> +1.3218773e-12 </wgt>
<wgt id='1416'> +1.3307130e-12 </wgt>
<wgt id='1417'> +1.3283581e-12 </wgt>
<wgt id='1418'> +1.3278953e-12 </wgt>
<wgt id='1419'> +1.3271977e-12 </wgt>
<wgt id='1420'> +1.3290716e-12 </wgt>
<wgt id='1421'> +1.3236379e-12 </wgt>
<wgt id='1422'> +1.3300312e-12 </wgt>
<wgt id='1423'> +1.3277693e-12 </wgt>
<wgt id='1424'> +1.3286459e-12 </wgt>
<wgt id='1425'> +1.3223313e-12 </wgt>
<wgt id='1426'> +1.3344566e-12 </wgt>
<wgt id='1427'> +1.3309996e-12 </wgt>
<wgt id='1428'> +1.3262371e-12 </wgt>
<wgt id='1429'> +1.3258025e-12 </wgt>
<wgt id='1430'> +1.3312248e-12 </wgt>
<wgt id='1431'> +1.3341812e-12 </wgt>
<wgt id='1432'> +1.3238734e-12 </wgt>
<wgt id='1433'> +1.3073905e-12 </wgt>
<wgt id='1434'> +1.3453082e-12 </wgt>
<wgt id='1435'> +1.3217164e-12 </wgt>
<wgt id='1436'> +1.3444972e-12 </wgt>
<wgt id='1437'> +1.3329141e-12 </wgt>
<wgt id='1438'> +1.3328081e-12 </wgt>
<wgt id='1439'> +1.3219845e-12 </wgt>
<wgt id='1440'> +1.3381649e-12 </wgt>
<wgt id='1441'> +1.3325927e-12 </wgt>
<wgt id='1442'> +1.3170763e-12 </wgt>
<wgt id='1443'> +1.3246290e-12 </wgt>
<wgt id='1444'> +1.3348537e-12 </wgt>
<wgt id='1445'> +1.3390895e-12 </wgt>
<wgt id='1446'> +1.3229002e-12 </wgt>
<wgt id='1447'> +1.3298168e-12 </wgt>
<wgt id='1448'> +1.3303553e-12 </wgt>
<wgt id='1449'> +1.3293674e-12 </wgt>
<wgt id='1450'> +1.3263051e-12 </wgt>
<wgt id='1451'> +1.3371489e-12 </wgt>
<wgt id='1452'> +1.3073711e-12 </wgt>
<wgt id='1453'> +1.3306068e-12 </wgt>
<wgt id='1454'> +1.3234073e-12 </wgt>
<wgt id='1455'> +1.3296833e-12 </wgt>
<wgt id='1456'> +1.3405744e-12 </wgt>
<wgt id='1457'> +1.3398620e-12 </wgt>
<wgt id='1458'> +1.3248305e-12 </wgt>
<wgt id='1459'> +1.3362876e-12 </wgt>
<wgt id='1460'> +1.3357900e-12 </wgt>
<wgt id='1461'> +1.3281726e-12 </wgt>
<wgt id='1462'> +1.3063750e-12 </wgt>
<wgt id='1463'> +1.3489988e-12 </wgt>
<wgt id='1464'> +1.3278705e-12 </wgt>
<wgt id='1465'> +1.3087733e-12 </wgt>
<wgt id='1466'> +1.3121836e-12 </wgt>
<wgt id='1467'> +1.3162776e-12 </wgt>
<wgt id='1468'> +1.3211132e-12 </wgt>
<wgt id='1469'> +1.3240601e-12 </wgt>
<wgt id='1470'> +1.3319085e-12 </wgt>
<wgt id='1471'> +1.3355986e-12 </wgt>
<wgt id='1472'> +1.3392583e-12 </wgt>
<wgt id='1473'> +1.3278705e-12 </wgt>
<wgt id='1474'> +1.3237952e-12 </wgt>
<wgt id='1475'> +1.3257801e-12 </wgt>
<wgt id='1476'> +1.3294638e-12 </wgt>
<wgt id='1477'> +1.3312129e-12 </wgt>
<wgt id='1478'> +1.2844540e-12 </wgt>
<wgt id='1479'> +1.2836690e-12 </wgt>
<wgt id='1480'> +1.2780902e-12 </wgt>
<wgt id='1481'> +1.2994013e-12 </wgt>
<wgt id='1482'> +1.2835917e-12 </wgt>
<wgt id='1483'> +1.2585082e-12 </wgt>
<wgt id='1484'> +1.2725492e-12 </wgt>
<wgt id='1485'> +1.2865134e-12 </wgt>
<wgt id='1486'> +1.2849165e-12 </wgt>
<wgt id='1487'> +1.2985681e-12 </wgt>
<wgt id='1488'> +1.2824821e-12 </wgt>
<wgt id='1489'> +1.2885306e-12 </wgt>
<wgt id='1490'> +1.2801302e-12 </wgt>
<wgt id='1491'> +1.2854700e-12 </wgt>
<wgt id='1492'> +1.2871962e-12 </wgt>
<wgt id='1493'> +1.2699103e-12 </wgt>
<wgt id='1494'> +1.3027482e-12 </wgt>
<wgt id='1495'> +1.2680338e-12 </wgt>
<wgt id='1496'> +1.2833916e-12 </wgt>
<wgt id='1497'> +1.2799625e-12 </wgt>
<wgt id='1498'> +1.2860246e-12 </wgt>
<wgt id='1499'> +1.2859752e-12 </wgt>
<wgt id='1500'> +1.2898247e-12 </wgt>
<wgt id='1501'> +1.2853777e-12 </wgt>
<wgt id='1502'> +1.2786683e-12 </wgt>
<wgt id='1503'> +1.2896720e-12 </wgt>
<wgt id='1504'> +1.2786658e-12 </wgt>
<wgt id='1505'> +1.2908594e-12 </wgt>
<wgt id='1506'> +1.2842181e-12 </wgt>
<wgt id='1507'> +1.2846910e-12 </wgt>
<wgt id='1508'> +1.2859271e-12 </wgt>
<wgt id='1509'> +1.3780985e-12 </wgt>
<wgt id='1510'> +1.3792648e-12 </wgt>
<wgt id='1511'> +1.3694837e-12 </wgt>
<wgt id='1512'> +1.3721271e-12 </wgt>
<wgt id='1513'> +1.3870600e-12 </wgt>
<wgt id='1514'> +1.3789897e-12 </wgt>
<wgt id='1515'> +1.3780032e-12 </wgt>
<wgt id='1516'> +1.3786479e-12 </wgt>
<wgt id='1517'> +1.3770515e-12 </wgt>
<wgt id='1518'> +1.3836962e-12 </wgt>
<wgt id='1519'> +1.3789547e-12 </wgt>
<wgt id='1520'> +1.3778204e-12 </wgt>
<wgt id='1521'> +1.3811704e-12 </wgt>
<wgt id='1522'> +1.3796182e-12 </wgt>
<wgt id='1523'> +1.3823117e-12 </wgt>
<wgt id='1524'> +1.3733596e-12 </wgt>
<wgt id='1525'> +1.3763977e-12 </wgt>
<wgt id='1526'> +1.3773477e-12 </wgt>
<wgt id='1527'> +1.3789751e-12 </wgt>
<wgt id='1528'> +1.3855508e-12 </wgt>
<wgt id='1529'> +1.3815837e-12 </wgt>
<wgt id='1530'> +1.3839969e-12 </wgt>
<wgt id='1531'> +1.3808722e-12 </wgt>
<wgt id='1532'> +1.3771921e-12 </wgt>
<wgt id='1533'> +1.3773314e-12 </wgt>
<wgt id='1534'> +1.3812425e-12 </wgt>
<wgt id='1535'> +1.3714078e-12 </wgt>
<wgt id='1536'> +1.3809410e-12 </wgt>
<wgt id='1537'> +1.3813032e-12 </wgt>
<wgt id='1538'> +1.3632753e-12 </wgt>
<wgt id='1539'> +1.3748503e-12 </wgt>
<wgt id='1540'> +1.3764671e-12 </wgt>
<wgt id='1541'> +1.3737639e-12 </wgt>
<wgt id='1542'> +1.3758427e-12 </wgt>
<wgt id='1543'> +1.3800211e-12 </wgt>
<wgt id='1544'> +1.3754640e-12 </wgt>
<wgt id='1545'> +1.3762488e-12 </wgt>
<wgt id='1546'> +1.3803761e-12 </wgt>
<wgt id='1547'> +1.3760596e-12 </wgt>
<wgt id='1548'> +1.3794510e-12 </wgt>
<wgt id='1549'> +1.3773016e-12 </wgt>
<wgt id='1550'> +1.3775422e-12 </wgt>
<wgt id='1551'> +1.3785999e-12 </wgt>
<wgt id='1552'> +1.3801271e-12 </wgt>
<wgt id='1553'> +1.3773914e-12 </wgt>
<wgt id='1554'> +1.3767674e-12 </wgt>
<wgt id='1555'> +1.3782212e-12 </wgt>
<wgt id='1556'> +1.3803989e-12 </wgt>
<wgt id='1557'> +1.3784765e-12 </wgt>
<wgt id='1558'> +1.3793520e-12 </wgt>
<wgt id='1559'> +1.3786552e-12 </wgt>
<wgt id='1560'> +1.3797663e-12 </wgt>
<wgt id='1561'> +1.3788870e-12 </wgt>
<wgt id='1562'> +1.3790460e-12 </wgt>
<wgt id='1563'> +1.3795439e-12 </wgt>
<wgt id='1564'> +1.3779656e-12 </wgt>
<wgt id='1565'> +1.3768543e-12 </wgt>
<wgt id='1566'> +1.3782620e-12 </wgt>
<wgt id='1567'> +1.3760840e-12 </wgt>
<wgt id='1568'> +1.3782858e-12 </wgt>
<wgt id='1569'> +1.3796006e-12 </wgt>
<wgt id='1570'> +1.3786035e-12 </wgt>
<wgt id='1571'> +1.3779859e-12 </wgt>
<wgt id='1572'> +1.3768091e-12 </wgt>
<wgt id='1573'> +1.3754391e-12 </wgt>
<wgt id='1574'> +1.3778719e-12 </wgt>
<wgt id='1575'> +1.3794762e-12 </wgt>
<wgt id='1576'> +1.3793023e-12 </wgt>
<wgt id='1577'> +1.3809844e-12 </wgt>
<wgt id='1578'> +1.3776244e-12 </wgt>
<wgt id='1579'> +1.3778571e-12 </wgt>
<wgt id='1580'> +1.3782505e-12 </wgt>
<wgt id='1581'> +1.3782772e-12 </wgt>
<wgt id='1582'> +1.3767665e-12 </wgt>
<wgt id='1583'> +1.3780666e-12 </wgt>
<wgt id='1584'> +1.3762004e-12 </wgt>
<wgt id='1585'> +1.3771504e-12 </wgt>
<wgt id='1586'> +1.3790454e-12 </wgt>
<wgt id='1587'> +1.3793022e-12 </wgt>
<wgt id='1588'> +1.3783848e-12 </wgt>
<wgt id='1589'> +1.3777955e-12 </wgt>
<wgt id='1590'> +1.3793617e-12 </wgt>
<wgt id='1591'> +1.3791264e-12 </wgt>
<wgt id='1592'> +1.3792627e-12 </wgt>
<wgt id='1593'> +1.3775852e-12 </wgt>
<wgt id='1594'> +1.3783307e-12 </wgt>
<wgt id='1595'> +1.3773716e-12 </wgt>
<wgt id='1596'> +1.3782712e-12 </wgt>
<wgt id='1597'> +1.3774941e-12 </wgt>
<wgt id='1598'> +1.3786989e-12 </wgt>
<wgt id='1599'> +1.3779243e-12 </wgt>
<wgt id='1600'> +1.3780332e-12 </wgt>
<wgt id='1601'> +1.3784615e-12 </wgt>
<wgt id='1602'> +1.3773088e-12 </wgt>
<wgt id='1603'> +1.3775208e-12 </wgt>
<wgt id='1604'> +1.3776294e-12 </wgt>
<wgt id='1605'> +1.3775474e-12 </wgt>
<wgt id='1606'> +1.3784661e-12 </wgt>
<wgt id='1607'> +1.3777830e-12 </wgt>
<wgt id='1608'> +1.3776299e-12 </wgt>
<wgt id='1609'> +1.3775399e-12 </wgt>
<wgt id='1610'> +1.3380038e-12 </wgt>
<wgt id='1611'> +1.4207760e-12 </wgt>
<wgt id='1612'> +1.4838626e-12 </wgt>
<wgt id='1613'> +1.4624241e-12 </wgt>
<wgt id='1614'> +1.4737458e-12 </wgt>
<wgt id='1615'> +1.4493322e-12 </wgt>
<wgt id='1616'> +1.4715991e-12 </wgt>
<wgt id='1617'> +1.5218049e-12 </wgt>
<wgt id='1618'> +1.4698406e-12 </wgt>
<wgt id='1619'> +1.4545420e-12 </wgt>
<wgt id='1620'> +1.4374651e-12 </wgt>
<wgt id='1621'> +1.5009661e-12 </wgt>
<wgt id='1622'> +1.4791123e-12 </wgt>
<wgt id='1623'> +1.5272196e-12 </wgt>
<wgt id='1624'> +1.5020045e-12 </wgt>
<wgt id='1625'> +1.4226837e-12 </wgt>
<wgt id='1626'> +1.4662173e-12 </wgt>
<wgt id='1627'> +1.4830268e-12 </wgt>
<wgt id='1628'> +1.3897820e-12 </wgt>
<wgt id='1629'> +1.5033359e-12 </wgt>
<wgt id='1630'> +1.4610693e-12 </wgt>
<wgt id='1631'> +1.4702742e-12 </wgt>
<wgt id='1632'> +1.4149772e-12 </wgt>
<wgt id='1633'> +1.4510273e-12 </wgt>
<wgt id='1634'> +1.5108372e-12 </wgt>
<wgt id='1635'> +1.5127101e-12 </wgt>
<wgt id='1636'> +1.4892351e-12 </wgt>
<wgt id='1637'> +1.5089992e-12 </wgt>
<wgt id='1638'> +1.4847597e-12 </wgt>
<wgt id='1639'> +1.4920838e-12 </wgt>
<wgt id='1640'> +1.4414094e-12 </wgt>
<wgt id='1641'> +1.5042032e-12 </wgt>
<wgt id='1642'> +1.4262406e-12 </wgt>
<wgt id='1643'> +1.5126675e-12 </wgt>
<wgt id='1644'> +1.4759453e-12 </wgt>
<wgt id='1645'> +1.4587820e-12 </wgt>
<wgt id='1646'> +1.5077233e-12 </wgt>
<wgt id='1647'> +1.5208834e-12 </wgt>
<wgt id='1648'> +1.4963352e-12 </wgt>
<wgt id='1649'> +1.5282203e-12 </wgt>
<wgt id='1650'> +1.4666735e-12 </wgt>
<wgt id='1651'> +1.5035357e-12 </wgt>
<wgt id='1652'> +1.4994481e-12 </wgt>
<wgt id='1653'> +1.4682965e-12 </wgt>
<wgt id='1654'> +1.4760372e-12 </wgt>
<wgt id='1655'> +1.4956153e-12 </wgt>
<wgt id='1656'> +1.4307686e-12 </wgt>
<wgt id='1657'> +1.4814317e-12 </wgt>
<wgt id='1658'> +1.4727595e-12 </wgt>
<wgt id='1659'> +1.5020045e-12 </wgt>
<wgt id='1660'> +1.4845320e-12 </wgt>
<wgt id='1661'> +1.5158772e-12 </wgt>
<wgt id='1662'> +1.5423018e-12 </wgt>
<wgt id='1663'> +1.5087195e-12 </wgt>
<wgt id='1664'> +1.4555213e-12 </wgt>
<wgt id='1665'> +1.4645391e-12 </wgt>
<wgt id='1666'> +1.5307535e-12 </wgt>
<wgt id='1667'> +1.4784481e-12 </wgt>
<wgt id='1668'> +1.4957707e-12 </wgt>
<wgt id='1669'> +1.4429556e-12 </wgt>
<wgt id='1670'> +1.4972248e-12 </wgt>
<wgt id='1671'> +1.4368603e-12 </wgt>
<wgt id='1672'> +1.4734353e-12 </wgt>
<wgt id='1673'> +1.4757167e-12 </wgt>
<wgt id='1674'> +1.4684653e-12 </wgt>
<wgt id='1675'> +1.4864927e-12 </wgt>
<wgt id='1676'> +1.4466608e-12 </wgt>
<wgt id='1677'> +1.5581394e-12 </wgt>
<wgt id='1678'> +1.4847165e-12 </wgt>
<wgt id='1679'> +1.5044546e-12 </wgt>
<wgt id='1680'> +1.5138400e-12 </wgt>
<wgt id='1681'> +1.5046512e-12 </wgt>
<wgt id='1682'> +1.4961034e-12 </wgt>
<wgt id='1683'> +1.4843089e-12 </wgt>
<wgt id='1684'> +1.5469780e-12 </wgt>
<wgt id='1685'> +1.4490849e-12 </wgt>
<wgt id='1686'> +1.5117262e-12 </wgt>
<wgt id='1687'> +1.5405212e-12 </wgt>
<wgt id='1688'> +1.4557133e-12 </wgt>
<wgt id='1689'> +1.5039050e-12 </wgt>
<wgt id='1690'> +1.4780018e-12 </wgt>
<wgt id='1691'> +1.4293783e-12 </wgt>
<wgt id='1692'> +1.4268791e-12 </wgt>
<wgt id='1693'> +1.5307569e-12 </wgt>
<wgt id='1694'> +1.4406226e-12 </wgt>
<wgt id='1695'> +1.5121555e-12 </wgt>
<wgt id='1696'> +1.4813065e-12 </wgt>
<wgt id='1697'> +1.4764791e-12 </wgt>
<wgt id='1698'> +1.4689730e-12 </wgt>
<wgt id='1699'> +1.4803743e-12 </wgt>
<wgt id='1700'> +1.4773105e-12 </wgt>
<wgt id='1701'> +1.5205583e-12 </wgt>
<wgt id='1702'> +1.4606174e-12 </wgt>
<wgt id='1703'> +1.4583403e-12 </wgt>
<wgt id='1704'> +1.4642113e-12 </wgt>
<wgt id='1705'> +1.4282028e-12 </wgt>
<wgt id='1706'> +1.5115041e-12 </wgt>
<wgt id='1707'> +1.5099822e-12 </wgt>
<wgt id='1708'> +1.5182380e-12 </wgt>
<wgt id='1709'> +1.5030457e-12 </wgt>
<wgt id='1710'> +1.4944721e-12 </wgt>
<wgt id='1711'> +1.5364322e-12 </wgt>
<wgt id='1712'> +1.5326891e-12 </wgt>
<wgt id='1713'> +1.2757820e-12 </wgt>
<wgt id='1714'> +1.2628256e-12 </wgt>
<wgt id='1715'> +1.2521541e-12 </wgt>
<wgt id='1716'> +1.3176207e-12 </wgt>
<wgt id='1717'> +1.3057134e-12 </wgt>
<wgt id='1718'> +1.3471905e-12 </wgt>
<wgt id='1719'> +1.3040228e-12 </wgt>
<wgt id='1720'> +1.2469310e-12 </wgt>
<wgt id='1721'> +1.2440962e-12 </wgt>
<wgt id='1722'> +1.2800000e-12 </wgt>
<wgt id='1723'> +1.3067684e-12 </wgt>
<wgt id='1724'> +1.1546541e-12 </wgt>
<wgt id='1725'> +1.3082897e-12 </wgt>
<wgt id='1726'> +1.3141143e-12 </wgt>
<wgt id='1727'> +1.2965109e-12 </wgt>
<wgt id='1728'> +1.2665721e-12 </wgt>
<wgt id='1729'> +1.2181811e-12 </wgt>
<wgt id='1730'> +1.2509000e-12 </wgt>
<wgt id='1731'> +1.2089922e-12 </wgt>
<wgt id='1732'> +1.2850175e-12 </wgt>
<wgt id='1733'> +1.2435904e-12 </wgt>
<wgt id='1734'> +1.3314189e-12 </wgt>
<wgt id='1735'> +1.2286670e-12 </wgt>
<wgt id='1736'> +1.3133863e-12 </wgt>
<wgt id='1737'> +1.3275840e-12 </wgt>
<wgt id='1738'> +1.2701862e-12 </wgt>
<wgt id='1739'> +1.3018057e-12 </wgt>
<wgt id='1740'> +1.2182774e-12 </wgt>
<wgt id='1741'> +1.3166024e-12 </wgt>
<wgt id='1742'> +1.2804747e-12 </wgt>
<wgt id='1743'> +1.2658376e-12 </wgt>
<wgt id='1744'> +1.3245509e-12 </wgt>
<wgt id='1745'> +1.2509424e-12 </wgt>
<wgt id='1746'> +1.3100452e-12 </wgt>
<wgt id='1747'> +1.3191320e-12 </wgt>
<wgt id='1748'> +1.2844745e-12 </wgt>
<wgt id='1749'> +1.2674774e-12 </wgt>
<wgt id='1750'> +1.2437846e-12 </wgt>
<wgt id='1751'> +1.2141647e-12 </wgt>
<wgt id='1752'> +1.2737709e-12 </wgt>
<wgt id='1753'> +1.2882241e-12 </wgt>
<wgt id='1754'> +1.3083968e-12 </wgt>
<wgt id='1755'> +1.2792337e-12 </wgt>
<wgt id='1756'> +1.2792929e-12 </wgt>
<wgt id='1757'> +1.2814098e-12 </wgt>
<wgt id='1758'> +1.3099674e-12 </wgt>
<wgt id='1759'> +1.2940940e-12 </wgt>
<wgt id='1760'> +1.2573501e-12 </wgt>
<wgt id='1761'> +1.2659686e-12 </wgt>
<wgt id='1762'> +1.3202421e-12 </wgt>
<wgt id='1763'> +1.3005261e-12 </wgt>
<wgt id='1764'> +1.3122157e-12 </wgt>
<wgt id='1765'> +1.2695144e-12 </wgt>
<wgt id='1766'> +1.3242755e-12 </wgt>
<wgt id='1767'> +1.2711786e-12 </wgt>
<wgt id='1768'> +1.2783416e-12 </wgt>
<wgt id='1769'> +1.2494492e-12 </wgt>
<wgt id='1770'> +1.2829354e-12 </wgt>
<wgt id='1771'> +1.3119832e-12 </wgt>
<wgt id='1772'> +1.2794579e-12 </wgt>
<wgt id='1773'> +1.2722191e-12 </wgt>
<wgt id='1774'> +1.2802335e-12 </wgt>
<wgt id='1775'> +1.2712542e-12 </wgt>
<wgt id='1776'> +1.3513751e-12 </wgt>
<wgt id='1777'> +1.1953483e-12 </wgt>
<wgt id='1778'> +1.2928276e-12 </wgt>
<wgt id='1779'> +1.2660329e-12 </wgt>
<wgt id='1780'> +1.2413076e-12 </wgt>
<wgt id='1781'> +1.3031337e-12 </wgt>
<wgt id='1782'> +1.2567697e-12 </wgt>
<wgt id='1783'> +1.2553920e-12 </wgt>
<wgt id='1784'> +1.2721784e-12 </wgt>
<wgt id='1785'> +1.2703799e-12 </wgt>
<wgt id='1786'> +1.2511410e-12 </wgt>
<wgt id='1787'> +1.3538200e-12 </wgt>
<wgt id='1788'> +1.2721910e-12 </wgt>
<wgt id='1789'> +1.2384493e-12 </wgt>
<wgt id='1790'> +1.2449693e-12 </wgt>
<wgt id='1791'> +1.2591918e-12 </wgt>
<wgt id='1792'> +1.2558509e-12 </wgt>
<wgt id='1793'> +1.2624959e-12 </wgt>
<wgt id='1794'> +1.2949855e-12 </wgt>
<wgt id='1795'> +1.3283937e-12 </wgt>
<wgt id='1796'> +1.2274422e-12 </wgt>
<wgt id='1797'> +1.2766863e-12 </wgt>
<wgt id='1798'> +1.2686941e-12 </wgt>
<wgt id='1799'> +1.2589799e-12 </wgt>
<wgt id='1800'> +1.2878657e-12 </wgt>
<wgt id='1801'> +1.2814761e-12 </wgt>
<wgt id='1802'> +1.2157947e-12 </wgt>
<wgt id='1803'> +1.2973469e-12 </wgt>
<wgt id='1804'> +1.2829652e-12 </wgt>
<wgt id='1805'> +1.2535753e-12 </wgt>
<wgt id='1806'> +1.2422601e-12 </wgt>
<wgt id='1807'> +1.2515293e-12 </wgt>
<wgt id='1808'> +1.2513096e-12 </wgt>
<wgt id='1809'> +1.2595116e-12 </wgt>
<wgt id='1810'> +1.2898124e-12 </wgt>
<wgt id='1811'> +1.3245125e-12 </wgt>
<wgt id='1812'> +1.2790787e-12 </wgt>
<wgt id='1813'> +1.2227771e-12 </wgt>
<wgt id='1814'> +1.1897161e-12 </wgt>
<wgt id='1815'> +1.5025296e-12 </wgt>
<wgt id='1816'> +1.2757820e-12 </wgt>
<wgt id='1817'> +1.2628256e-12 </wgt>
<wgt id='1818'> +1.2521541e-12 </wgt>
<wgt id='1819'> +1.3176207e-12 </wgt>
<wgt id='1820'> +1.3057134e-12 </wgt>
<wgt id='1821'> +1.3471905e-12 </wgt>
<wgt id='1822'> +1.3040228e-12 </wgt>
<wgt id='1823'> +1.2469310e-12 </wgt>
<wgt id='1824'> +1.2440962e-12 </wgt>
<wgt id='1825'> +1.2800000e-12 </wgt>
<wgt id='1826'> +1.3067684e-12 </wgt>
<wgt id='1827'> +1.1546541e-12 </wgt>
<wgt id='1828'> +1.3082897e-12 </wgt>
<wgt id='1829'> +1.3141143e-12 </wgt>
<wgt id='1830'> +1.2965109e-12 </wgt>
<wgt id='1831'> +1.2665721e-12 </wgt>
<wgt id='1832'> +1.2181811e-12 </wgt>
<wgt id='1833'> +1.2509000e-12 </wgt>
<wgt id='1834'> +1.2089922e-12 </wgt>
<wgt id='1835'> +1.2850175e-12 </wgt>
<wgt id='1836'> +1.2435904e-12 </wgt>
<wgt id='1837'> +1.3314189e-12 </wgt>
<wgt id='1838'> +1.2286670e-12 </wgt>
<wgt id='1839'> +1.3133863e-12 </wgt>
<wgt id='1840'> +1.3275840e-12 </wgt>
<wgt id='1841'> +1.2701862e-12 </wgt>
<wgt id='1842'> +1.3018057e-12 </wgt>
<wgt id='1843'> +1.2182774e-12 </wgt>
<wgt id='1844'> +1.3166024e-12 </wgt>
<wgt id='1845'> +1.2804747e-12 </wgt>
<wgt id='1846'> +1.2658376e-12 </wgt>
<wgt id='1847'> +1.3245509e-12 </wgt>
<wgt id='1848'> +1.2509424e-12 </wgt>
<wgt id='1849'> +1.3100452e-12 </wgt>
<wgt id='1850'> +1.3191320e-12 </wgt>
<wgt id='1851'> +1.2844745e-12 </wgt>
<wgt id='1852'> +1.2674774e-12 </wgt>
<wgt id='1853'> +1.2437846e-12 </wgt>
<wgt id='1854'> +1.2141647e-12 </wgt>
<wgt id='1855'> +1.2737709e-12 </wgt>
<wgt id='1856'> +1.2882241e-12 </wgt>
<wgt id='1857'> +1.3083968e-12 </wgt>
<wgt id='1858'> +1.2792337e-12 </wgt>
<wgt id='1859'> +1.2792929e-12 </wgt>
<wgt id='1860'> +1.2814098e-12 </wgt>
<wgt id='1861'> +1.3099674e-12 </wgt>
<wgt id='1862'> +1.2940940e-12 </wgt>
<wgt id='1863'> +1.2573501e-12 </wgt>
<wgt id='1864'> +1.2659686e-12 </wgt>
<wgt id='1865'> +1.3202421e-12 </wgt>
<wgt id='1866'> +1.3005261e-12 </wgt>
<wgt id='1867'> +1.3122157e-12 </wgt>
<wgt id='1868'> +1.2695144e-12 </wgt>
<wgt id='1869'> +1.3242755e-12 </wgt>
<wgt id='1870'> +1.2711786e-12 </wgt>
<wgt id='1871'> +1.2783416e-12 </wgt>
<wgt id='1872'> +1.2494492e-12 </wgt>
<wgt id='1873'> +1.2829354e-12 </wgt>
<wgt id='1874'> +1.3119832e-12 </wgt>
<wgt id='1875'> +1.2794579e-12 </wgt>
<wgt id='1876'> +1.2722191e-12 </wgt>
<wgt id='1877'> +1.2802335e-12 </wgt>
<wgt id='1878'> +1.2712542e-12 </wgt>
<wgt id='1879'> +1.3513751e-12 </wgt>
<wgt id='1880'> +1.1953483e-12 </wgt>
<wgt id='1881'> +1.2928276e-12 </wgt>
<wgt id='1882'> +1.2660329e-12 </wgt>
<wgt id='1883'> +1.2413076e-12 </wgt>
<wgt id='1884'> +1.3031337e-12 </wgt>
<wgt id='1885'> +1.2567697e-12 </wgt>
<wgt id='1886'> +1.2553920e-12 </wgt>
<wgt id='1887'> +1.2721784e-12 </wgt>
<wgt id='1888'> +1.2703799e-12 </wgt>
<wgt id='1889'> +1.2511410e-12 </wgt>
<wgt id='1890'> +1.3538200e-12 </wgt>
<wgt id='1891'> +1.2721910e-12 </wgt>
<wgt id='1892'> +1.2384493e-12 </wgt>
<wgt id='1893'> +1.2449693e-12 </wgt>
<wgt id='1894'> +1.2591918e-12 </wgt>
<wgt id='1895'> +1.2558509e-12 </wgt>
<wgt id='1896'> +1.2624959e-12 </wgt>
<wgt id='1897'> +1.2949855e-12 </wgt>
<wgt id='1898'> +1.3283937e-12 </wgt>
<wgt id='1899'> +1.2274422e-12 </wgt>
<wgt id='1900'> +1.2766863e-12 </wgt>
<wgt id='1901'> +1.2686941e-12 </wgt>
<wgt id='1902'> +1.2589799e-12 </wgt>
<wgt id='1903'> +1.2878657e-12 </wgt>
<wgt id='1904'> +1.2814761e-12 </wgt>
<wgt id='1905'> +1.2157947e-12 </wgt>
<wgt id='1906'> +1.2973469e-12 </wgt>
<wgt id='1907'> +1.2829652e-12 </wgt>
<wgt id='1908'> +1.2535753e-12 </wgt>
<wgt id='1909'> +1.2422601e-12 </wgt>
<wgt id='1910'> +1.2515293e-12 </wgt>
<wgt id='1911'> +1.2513096e-12 </wgt>
<wgt id='1912'> +1.2595116e-12 </wgt>
<wgt id='1913'> +1.2898124e-12 </wgt>
<wgt id='1914'> +1.3245125e-12 </wgt>
<wgt id='1915'> +1.2790787e-12 </wgt>
<wgt id='1916'> +1.2227771e-12 </wgt>
<wgt id='1917'> +1.2598647e-12 </wgt>
<wgt id='1918'> +1.2971658e-12 </wgt>
<wgt id='1919'> +1.3101721e-12 </wgt>
</rwgt>
</event>
<event>
 9      1 +1.5538000e-12 6.94281300e+01 7.81860800e-03 1.23613000e-01
        4 -1    0    0  502    0 -0.0000000000e+00 +0.0000000000e+00 +9.1455480876e+00 9.2551309997e+00 0.0000000000e+00 0.0000e+00 -1.0000e+00
       21 -1    0    0  501  502 +0.0000000000e+00 -0.0000000000e+00 -1.3092585932e+02 1.3092585932e+02 1.4200000000e+00 0.0000e+00 -1.0000e+00
     1023  2    1    2    0    0 -1.2256738217e+00 +3.0223829802e+01 -9.0731260830e+01 9.6810008141e+01 1.5001127295e+01 0.0000e+00 0.0000e+00
  1000023  2    3    3    0    0 -5.4541123935e+00 +1.4056467365e+01 -4.9631671998e+01 5.2162057424e+01 5.4996138682e+00 0.0000e+00 0.0000e+00
        4  1    1    2  501    0 +1.2256738217e+00 -3.0223829802e+01 -3.1049050399e+01 4.3370982176e+01 1.4200000000e+00 0.0000e+00 -1.0000e+00
  1000022  1    4    4    0    0 -4.8459862515e+00 +1.1773471482e+01 -4.1972669011e+01 4.4145250678e+01 5.0000000000e+00 0.0000e+00 -1.0000e+00
      -11  1    4    4    0    0 -4.8309059254e-02 +1.7445837445e-01 -4.5375783029e-01 4.8853446070e-01 5.1100000000e-04 0.0000e+00 -1.0000e+00
       11  1    4    4    0    0 -5.5981708277e-01 +2.1085375084e+00 -7.2052451558e+00 7.5282722856e+00 5.1100000000e-04 0.0000e+00 1.0000e+00
  1000022  1    3    3    0    0 +4.2284385718e+00 +1.6167362438e+01 -4.1099588833e+01 4.4647950716e+01 5.0000000000e+00 0.0000e+00 -1.0000e+00
<mgrwt>
<rscale>  1 0.69428134E+02</rscale>
<asrwt>0</asrwt>
<pdfrwt beam="1">  1       21 0.20142441E-01 0.69428134E+02</pdfrwt>
<pdfrwt beam="2">  1        4 0.14160291E-02 0.69428134E+02</pdfrwt>
<totfact> 0.19661499E+06</totfact>
</mgrwt>
<rwgt>
<wgt id='1001'> +1.5538000e-12 </wgt>
<wgt id='1002'> +1.5476333e-12 </wgt>
<wgt id='1003'> +1.5490735e-12 </wgt>
<wgt id='1004'> +1.4840261e-12 </wgt>
<wgt id='1005'> +1.5538000e-12 </wgt>
<wgt id='1006'> +1.3865545e-12 </wgt>
<wgt id='1007'> +1.3780050e-12 </wgt>
<wgt id='1008'> +1.3799663e-12 </wgt>
<wgt id='1009'> +1.3007058e-12 </wgt>
<wgt id='1010'> +1.3865545e-12 </wgt>
<wgt id='1011'> +1.7688127e-12 </wgt>
<wgt id='1012'> +1.7669040e-12 </wgt>
<wgt id='1013'> +1.7673985e-12 </wgt>
<wgt id='1014'> +1.7304402e-12 </wgt>
<wgt id='1015'> +1.7688127e-12 </wgt>
<wgt id='1016'> +1.7628583e-12 </wgt>
<wgt id='1017'> +1.7654919e-12 </wgt>
<wgt id='1018'> +1.7649646e-12 </wgt>
<wgt id='1019'> +1.7673985e-12 </wgt>
<wgt id='1020'> +1.7628583e-12 </wgt>
<wgt id='1021'> +1.5731105e-12 </wgt>
<wgt id='1022'> +1.5719852e-12 </wgt>
<wgt id='1023'> +1.5722893e-12 </wgt>
<wgt id='1024'> +1.5490735e-12 </wgt>
<wgt id='1025'> +1.5731105e-12 </wgt>
<wgt id='1026'> +2.0068002e-12 </wgt>
<wgt id='1027'> +2.0156292e-12 </wgt>
<wgt id='1028'> +2.0137171e-12 </wgt>
<wgt id='1029'> +2.0608649e-12 </wgt>
<wgt id='1030'> +2.0068002e-12 </wgt>
<wgt id='1031'> +1.3132358e-12 </wgt>
<wgt id='1032'> +1.2970059e-12 </wgt>
<wgt id='1033'> +1.3007058e-12 </wgt>
<wgt id='1034'> +1.1610748e-12 </wgt>
<wgt id='1035'> +1.3132358e-12 </wgt>
<wgt id='1036'> +1.1718838e-12 </wgt>
<wgt id='1037'> +1.1548476e-12 </wgt>
<wgt id='1038'> +1.1587121e-12 </wgt>
<wgt id='1039'> +1.0176484e-12 </wgt>
<wgt id='1040'> +1.1718838e-12 </wgt>
<wgt id='1041'> +1.4949595e-12 </wgt>
<wgt id='1042'> +1.4807674e-12 </wgt>
<wgt id='1043'> +1.4840261e-12 </wgt>
<wgt id='1044'> +1.3538647e-12 </wgt>
<wgt id='1045'> +1.4949595e-12 </wgt>
<wgt id='1046'> +1.5538000e-12 </wgt>
<wgt id='1047'> +1.5198122e-12 </wgt>
<wgt id='1048'> +1.5711730e-12 </wgt>
<wgt id='1049'> +1.5542107e-12 </wgt>
<wgt id='1050'> +1.5499791e-12 </wgt>
<wgt id='1051'> +1.5519460e-12 </wgt>
<wgt id='1052'> +1.5103082e-12 </wgt>
<wgt id='1053'> +1.5652775e-12 </wgt>
<wgt id='1054'> +1.5713685e-12 </wgt>
<wgt id='1055'> +1.5890586e-12 </wgt>
<wgt id='1056'> +1.5790813e-12 </wgt>
<wgt id='1057'> +1.5519037e-12 </wgt>
<wgt id='1058'> +1.5316288e-12 </wgt>
<wgt id='1059'> +1.5491862e-12 </wgt>
<wgt id='1060'> +1.5356737e-12 </wgt>
<wgt id='1061'> +1.5850644e-12 </wgt>
<wgt id='1062'> +1.5788812e-12 </wgt>
<wgt id='1063'> +1.5938435e-12 </wgt>
<wgt id='1064'> +1.5445602e-12 </wgt>
<wgt id='1065'> +1.5483033e-12 </wgt>
<wgt id='1066'> +1.5826088e-12 </wgt>
<wgt id='1067'> +1.5565920e-12 </wgt>
<wgt id='1068'> +1.5748330e-12 </wgt>
<wgt id='1069'> +1.5674983e-12 </wgt>
<wgt id='1070'> +1.5575257e-12 </wgt>
<wgt id='1071'> +1.5462381e-12 </wgt>
<wgt id='1072'> +1.5780575e-12 </wgt>
<wgt id='1073'> +1.5573512e-12 </wgt>
<wgt id='1074'> +1.5180881e-12 </wgt>
<wgt id='1075'> +1.5525608e-12 </wgt>
<wgt id='1076'> +1.5708646e-12 </wgt>
<wgt id='1077'> +1.5772440e-12 </wgt>
<wgt id='1078'> +1.5543145e-12 </wgt>
<wgt id='1079'> +1.5191542e-12 </wgt>
<wgt id='1080'> +1.5253532e-12 </wgt>
<wgt id='1081'> +1.5765011e-12 </wgt>
<wgt id='1082'> +1.5400014e-12 </wgt>
<wgt id='1083'> +1.5713663e-12 </wgt>
<wgt id='1084'> +1.5379375e-12 </wgt>
<wgt id='1085'> +1.5430847e-12 </wgt>
<wgt id='1086'> +1.5450820e-12 </wgt>
<wgt id='1087'> +1.5392411e-12 </wgt>
<wgt id='1088'> +1.4959901e-12 </wgt>
<wgt id='1089'> +1.5336498e-12 </wgt>
<wgt id='1090'> +1.5042730e-12 </wgt>
<wgt id='1091'> +1.5444424e-12 </wgt>
<wgt id='1092'> +1.5562532e-12 </wgt>
<wgt id='1093'> +1.4873216e-12 </wgt>
<wgt id='1094'> +1.5564465e-12 </wgt>
<wgt id='1095'> +1.5563943e-12 </wgt>
<wgt id='1096'> +1.5649526e-12 </wgt>
<wgt id='1097'> +1.5321841e-12 </wgt>
<wgt id='1098'> +1.5784635e-12 </wgt>
<wgt id='1099'> +1.5434210e-12 </wgt>
<wgt id='1100'> +1.5455750e-12 </wgt>
<wgt id='1101'> +1.5326388e-12 </wgt>
<wgt id='1102'> +1.5446646e-12 </wgt>
<wgt id='1103'> +1.5685560e-12 </wgt>
<wgt id='1104'> +1.5547994e-12 </wgt>
<wgt id='1105'> +1.5766410e-12 </wgt>
<wgt id='1106'> +1.5707740e-12 </wgt>
<wgt id='1107'> +1.5562497e-12 </wgt>
<wgt id='1108'> +1.5639051e-12 </wgt>
<wgt id='1109'> +1.5214219e-12 </wgt>
<wgt id='1110'> +1.5467662e-12 </wgt>
<wgt id='1111'> +1.5453503e-12 </wgt>
<wgt id='1112'> +1.5304682e-12 </wgt>
<wgt id='1113'> +1.5030023e-12 </wgt>
<wgt id='1114'> +1.5989435e-12 </wgt>
<wgt id='1115'> +1.5364289e-12 </wgt>
<wgt id='1116'> +1.5663598e-12 </wgt>
<wgt id='1117'> +1.5959183e-12 </wgt>
<wgt id='1118'> +1.5806651e-12 </wgt>
<wgt id='1119'> +1.5971051e-12 </wgt>
<wgt id='1120'> +1.5951539e-12 </wgt>
<wgt id='1121'> +1.5548955e-12 </wgt>
<wgt id='1122'> +1.5290658e-12 </wgt>
<wgt id='1123'> +1.5800513e-12 </wgt>
<wgt id='1124'> +1.5469014e-12 </wgt>
<wgt id='1125'> +1.5528845e-12 </wgt>
<wgt id='1126'> +1.5217739e-12 </wgt>
<wgt id='1127'> +1.5297055e-12 </wgt>
<wgt id='1128'> +1.5788812e-12 </wgt>
<wgt id='1129'> +1.5263146e-12 </wgt>
<wgt id='1130'> +1.5806448e-12 </wgt>
<wgt id='1131'> +1.5866456e-12 </wgt>
<wgt id='1132'> +1.4974447e-12 </wgt>
<wgt id='1133'> +1.5288985e-12 </wgt>
<wgt id='1134'> +1.5447909e-12 </wgt>
<wgt id='1135'> +1.6019492e-12 </wgt>
<wgt id='1136'> +1.5254721e-12 </wgt>
<wgt id='1137'> +1.5227651e-12 </wgt>
<wgt id='1138'> +1.5626805e-12 </wgt>
<wgt id='1139'> +1.5745972e-12 </wgt>
<wgt id='1140'> +1.5563007e-12 </wgt>
<wgt id='1141'> +1.5496436e-12 </wgt>
<wgt id='1142'> +1.5376487e-12 </wgt>
<wgt id='1143'> +1.5337492e-12 </wgt>
<wgt id='1144'> +1.5956429e-12 </wgt>
<wgt id='1145'> +1.5974795e-12 </wgt>
<wgt id='1146'> +1.6059658e-12 </wgt>
<wgt id='1147'> +1.2514140e-12 </wgt>
<wgt id='1148'> +1.2838715e-12 </wgt>
<wgt id='1149'> +1.2525163e-12 </wgt>
<wgt id='1150'> +1.2677827e-12 </wgt>
<wgt id='1151'> +9.9740067e-13 </wgt>
<wgt id='1152'> +1.4216047e-12 </wgt>
<wgt id='1153'> +1.4158362e-12 </wgt>
<wgt id='1154'> +1.4249597e-12 </wgt>
<wgt id='1155'> +1.4221866e-12 </wgt>
<wgt id='1156'> +1.4213015e-12 </wgt>
<wgt id='1157'> +1.4187463e-12 </wgt>
<wgt id='1158'> +1.4253471e-12 </wgt>
<wgt id='1159'> +1.4192169e-12 </wgt>
<wgt id='1160'> +1.4231295e-12 </wgt>
<wgt id='1161'> +1.4146487e-12 </wgt>
<wgt id='1162'> +1.4263682e-12 </wgt>
<wgt id='1163'> +1.4251711e-12 </wgt>
<wgt id='1164'> +1.4179992e-12 </wgt>
<wgt id='1165'> +1.4090682e-12 </wgt>
<wgt id='1166'> +1.4337014e-12 </wgt>
<wgt id='1167'> +1.4327388e-12 </wgt>
<wgt id='1168'> +1.4061126e-12 </wgt>
<wgt id='1169'> +1.4257741e-12 </wgt>
<wgt id='1170'> +1.4184222e-12 </wgt>
<wgt id='1171'> +1.4194817e-12 </wgt>
<wgt id='1172'> +1.4241854e-12 </wgt>
<wgt id='1173'> +1.4133587e-12 </wgt>
<wgt id='1174'> +1.4294798e-12 </wgt>
<wgt id='1175'> +1.4232138e-12 </wgt>
<wgt id='1176'> +1.4194104e-12 </wgt>
<wgt id='1177'> +1.4220723e-12 </wgt>
<wgt id='1178'> +1.4205197e-12 </wgt>
<wgt id='1179'> +1.4312431e-12 </wgt>
<wgt id='1180'> +1.4068813e-12 </wgt>
<wgt id='1181'> +1.4171120e-12 </wgt>
<wgt id='1182'> +1.4257942e-12 </wgt>
<wgt id='1183'> +1.4211266e-12 </wgt>
<wgt id='1184'> +1.4216734e-12 </wgt>
<wgt id='1185'> +1.4218760e-12 </wgt>
<wgt id='1186'> +1.4214885e-12 </wgt>
<wgt id='1187'> +1.4209847e-12 </wgt>
<wgt id='1188'> +1.4217552e-12 </wgt>
<wgt id='1189'> +1.4193276e-12 </wgt>
<wgt id='1190'> +1.4064616e-12 </wgt>
<wgt id='1191'> +1.4119798e-12 </wgt>
<wgt id='1192'> +1.4272326e-12 </wgt>
<wgt id='1193'> +1.2988103e-12 </wgt>
<wgt id='1194'> +1.2965492e-12 </wgt>
<wgt id='1195'> +1.3005575e-12 </wgt>
<wgt id='1196'> +1.3008026e-12 </wgt>
<wgt id='1197'> +1.2965696e-12 </wgt>
<wgt id='1198'> +1.3012950e-12 </wgt>
<wgt id='1199'> +1.2950864e-12 </wgt>
<wgt id='1200'> +1.3002944e-12 </wgt>
<wgt id='1201'> +1.2978845e-12 </wgt>
<wgt id='1202'> +1.2953707e-12 </wgt>
<wgt id='1203'> +1.3037228e-12 </wgt>
<wgt id='1204'> +1.2787646e-12 </wgt>
<wgt id='1205'> +1.3112294e-12 </wgt>
<wgt id='1206'> +1.3044456e-12 </wgt>
<wgt id='1207'> +1.2911168e-12 </wgt>
<wgt id='1208'> +1.2916042e-12 </wgt>
<wgt id='1209'> +1.3015111e-12 </wgt>
<wgt id='1210'> +1.2987227e-12 </wgt>
<wgt id='1211'> +1.2903657e-12 </wgt>
<wgt id='1212'> +1.2968699e-12 </wgt>
<wgt id='1213'> +1.3005728e-12 </wgt>
<wgt id='1214'> +1.2888360e-12 </wgt>
<wgt id='1215'> +1.3135672e-12 </wgt>
<wgt id='1216'> +1.3054953e-12 </wgt>
<wgt id='1217'> +1.2941265e-12 </wgt>
<wgt id='1218'> +1.3055106e-12 </wgt>
<wgt id='1219'> +1.2953792e-12 </wgt>
<wgt id='1220'> +1.3034519e-12 </wgt>
<wgt id='1221'> +1.2980502e-12 </wgt>
<wgt id='1222'> +1.2994925e-12 </wgt>
<wgt id='1223'> +1.3006624e-12 </wgt>
<wgt id='1224'> +1.3000592e-12 </wgt>
<wgt id='1225'> +1.2982724e-12 </wgt>
<wgt id='1226'> +1.2991899e-12 </wgt>
<wgt id='1227'> +1.2986150e-12 </wgt>
<wgt id='1228'> +1.2945378e-12 </wgt>
<wgt id='1229'> +1.3007128e-12 </wgt>
<wgt id='1230'> +1.3019573e-12 </wgt>
<wgt id='1231'> +1.2864480e-12 </wgt>
<wgt id='1232'> +1.2959722e-12 </wgt>
<wgt id='1233'> +1.2995892e-12 </wgt>
<wgt id='1234'> +1.2988103e-12 </wgt>
<wgt id='1235'> +1.2890179e-12 </wgt>
<wgt id='1236'> +1.2926579e-12 </wgt>
<wgt id='1237'> +1.2959509e-12 </wgt>
<wgt id='1238'> +1.3017339e-12 </wgt>
<wgt id='1239'> +1.3040814e-12 </wgt>
<wgt id='1240'> +1.3062958e-12 </wgt>
<wgt id='1241'> +1.2382901e-12 </wgt>
<wgt id='1242'> +1.2319887e-12 </wgt>
<wgt id='1243'> +1.2444877e-12 </wgt>
<wgt id='1244'> +1.2329738e-12 </wgt>
<wgt id='1245'> +1.2422321e-12 </wgt>
<wgt id='1246'> +1.2396573e-12 </wgt>
<wgt id='1247'> +1.2371561e-12 </wgt>
<wgt id='1248'> +1.2381480e-12 </wgt>
<wgt id='1249'> +1.2383875e-12 </wgt>
<wgt id='1250'> +1.2346597e-12 </wgt>
<wgt id='1251'> +1.2409100e-12 </wgt>
<wgt id='1252'> +1.2353474e-12 </wgt>
<wgt id='1253'> +1.2405520e-12 </wgt>
<wgt id='1254'> +1.2198954e-12 </wgt>
<wgt id='1255'> +1.2493622e-12 </wgt>
<wgt id='1256'> +1.2431417e-12 </wgt>
<wgt id='1257'> +1.2261180e-12 </wgt>
<wgt id='1258'> +1.2501534e-12 </wgt>
<wgt id='1259'> +1.2261001e-12 </wgt>
<wgt id='1260'> +1.2424691e-12 </wgt>
<wgt id='1261'> +1.2335794e-12 </wgt>
<wgt id='1262'> +1.2410433e-12 </wgt>
<wgt id='1263'> +1.2369867e-12 </wgt>
<wgt id='1264'> +1.2482395e-12 </wgt>
<wgt id='1265'> +1.2334815e-12 </wgt>
<wgt id='1266'> +1.2332844e-12 </wgt>
<wgt id='1267'> +1.2440571e-12 </wgt>
<wgt id='1268'> +1.2389780e-12 </wgt>
<wgt id='1269'> +1.2413412e-12 </wgt>
<wgt id='1270'> +1.2313895e-12 </wgt>
<wgt id='1271'> +1.2340975e-12 </wgt>
<wgt id='1272'> +1.2385816e-12 </wgt>
<wgt id='1273'> +1.2377759e-12 </wgt>
<wgt id='1274'> +1.2385961e-12 </wgt>
<wgt id='1275'> +1.2367799e-12 </wgt>
<wgt id='1276'> +1.2393785e-12 </wgt>
<wgt id='1277'> +1.2363260e-12 </wgt>
<wgt id='1278'> +1.2356355e-12 </wgt>
<wgt id='1279'> +1.2380779e-12 </wgt>
<wgt id='1280'> +1.2390269e-12 </wgt>
<wgt id='1281'> +1.2352065e-12 </wgt>
<wgt id='1282'> +1.2382901e-12 </wgt>
<wgt id='1283'> +1.2283893e-12 </wgt>
<wgt id='1284'> +1.2322620e-12 </wgt>
<wgt id='1285'> +1.2356349e-12 </wgt>
<wgt id='1286'> +1.2411881e-12 </wgt>
<wgt id='1287'> +1.2433843e-12 </wgt>
<wgt id='1288'> +1.2453185e-12 </wgt>
<wgt id='1289'> +1.3500542e-12 </wgt>
<wgt id='1290'> +1.3518772e-12 </wgt>
<wgt id='1291'> +1.3481548e-12 </wgt>
<wgt id='1292'> +1.3509621e-12 </wgt>
<wgt id='1293'> +1.3494402e-12 </wgt>
<wgt id='1294'> +1.3495469e-12 </wgt>
<wgt id='1295'> +1.3505927e-12 </wgt>
<wgt id='1296'> +1.3456101e-12 </wgt>
<wgt id='1297'> +1.3556527e-12 </wgt>
<wgt id='1298'> +1.3584762e-12 </wgt>
<wgt id='1299'> +1.3396472e-12 </wgt>
<wgt id='1300'> +1.3541639e-12 </wgt>
<wgt id='1301'> +1.3417544e-12 </wgt>
<wgt id='1302'> +1.3487336e-12 </wgt>
<wgt id='1303'> +1.3519267e-12 </wgt>
<wgt id='1304'> +1.3453571e-12 </wgt>
<wgt id='1305'> +1.3532484e-12 </wgt>
<wgt id='1306'> +1.3410332e-12 </wgt>
<wgt id='1307'> +1.3602694e-12 </wgt>
<wgt id='1308'> +1.3497178e-12 </wgt>
<wgt id='1309'> +1.3503108e-12 </wgt>
<wgt id='1310'> +1.3468411e-12 </wgt>
<wgt id='1311'> +1.3536100e-12 </wgt>
<wgt id='1312'> +1.3420636e-12 </wgt>
<wgt id='1313'> +1.3583451e-12 </wgt>
<wgt id='1314'> +1.3559177e-12 </wgt>
<wgt id='1315'> +1.3375750e-12 </wgt>
<wgt id='1316'> +1.3558952e-12 </wgt>
<wgt id='1317'> +1.3507163e-12 </wgt>
<wgt id='1318'> +1.3616191e-12 </wgt>
<wgt id='1319'> +1.3364111e-12 </wgt>
<wgt id='1320'> +1.3563626e-12 </wgt>
<wgt id='1321'> +1.3440016e-12 </wgt>
<wgt id='1322'> +1.3514946e-12 </wgt>
<wgt id='1323'> +1.3479400e-12 </wgt>
<wgt id='1324'> +1.3491296e-12 </wgt>
<wgt id='1325'> +1.3561186e-12 </wgt>
<wgt id='1326'> +1.3531661e-12 </wgt>
<wgt id='1327'> +1.3496267e-12 </wgt>
<wgt id='1328'> +1.3489145e-12 </wgt>
<wgt id='1329'> +1.3509781e-12 </wgt>
<wgt id='1330'> +1.3483842e-12 </wgt>
<wgt id='1331'> +1.3524955e-12 </wgt>
<wgt id='1332'> +1.3753258e-12 </wgt>
<wgt id='1333'> +1.3405187e-12 </wgt>
<wgt id='1334'> +1.3484113e-12 </wgt>
<wgt id='1335'> +1.3546706e-12 </wgt>
<wgt id='1336'> +1.3477092e-12 </wgt>
<wgt id='1337'> +1.3466591e-12 </wgt>
<wgt id='1338'> +1.3495006e-12 </wgt>
<wgt id='1339'> +1.3501691e-12 </wgt>
<wgt id='1340'> +1.3233712e-12 </wgt>
<wgt id='1341'> +1.3252234e-12 </wgt>
<wgt id='1342'> +1.3213897e-12 </wgt>
<wgt id='1343'> +1.3243704e-12 </wgt>
<wgt id='1344'> +1.3227663e-12 </wgt>
<wgt id='1345'> +1.3228180e-12 </wgt>
<wgt id='1346'> +1.3239461e-12 </wgt>
<wgt id='1347'> +1.3188483e-12 </wgt>
<wgt id='1348'> +1.3284362e-12 </wgt>
<wgt id='1349'> +1.3311822e-12 </wgt>
<wgt id='1350'> +1.3158091e-12 </wgt>
<wgt id='1351'> +1.3275460e-12 </wgt>
<wgt id='1352'> +1.3143519e-12 </wgt>
<wgt id='1353'> +1.3212854e-12 </wgt>
<wgt id='1354'> +1.3271528e-12 </wgt>
<wgt id='1355'> +1.3186349e-12 </wgt>
<wgt id='1356'> +1.3260629e-12 </wgt>
<wgt id='1357'> +1.3137625e-12 </wgt>
<wgt id='1358'> +1.3348010e-12 </wgt>
<wgt id='1359'> +1.3252153e-12 </wgt>
<wgt id='1360'> +1.3218809e-12 </wgt>
<wgt id='1361'> +1.3201639e-12 </wgt>
<wgt id='1362'> +1.3277999e-12 </wgt>
<wgt id='1363'> +1.3124671e-12 </wgt>
<wgt id='1364'> +1.3312584e-12 </wgt>
<wgt id='1365'> +1.3130976e-12 </wgt>
<wgt id='1366'> +1.3275487e-12 </wgt>
<wgt id='1367'> +1.3286231e-12 </wgt>
<wgt id='1368'> +1.3236688e-12 </wgt>
<wgt id='1369'> +1.3332851e-12 </wgt>
<wgt id='1370'> +1.3117930e-12 </wgt>
<wgt id='1371'> +1.3290101e-12 </wgt>
<wgt id='1372'> +1.3162038e-12 </wgt>
<wgt id='1373'> +1.3246564e-12 </wgt>
<wgt id='1374'> +1.3218221e-12 </wgt>
<wgt id='1375'> +1.3223997e-12 </wgt>
<wgt id='1376'> +1.3298692e-12 </wgt>
<wgt id='1377'> +1.3263974e-12 </wgt>
<wgt id='1378'> +1.3235664e-12 </wgt>
<wgt id='1379'> +1.3221770e-12 </wgt>
<wgt id='1380'> +1.3246285e-12 </wgt>
<wgt id='1381'> +1.3229144e-12 </wgt>
<wgt id='1382'> +1.3243878e-12 </wgt>
<wgt id='1383'> +1.3470656e-12 </wgt>
<wgt id='1384'> +1.3143942e-12 </wgt>
<wgt id='1385'> +1.3221449e-12 </wgt>
<wgt id='1386'> +1.3269406e-12 </wgt>
<wgt id='1387'> +1.3202123e-12 </wgt>
<wgt id='1388'> +1.3196243e-12 </wgt>
<wgt id='1389'> +1.3219619e-12 </wgt>
<wgt id='1390'> +1.3236265e-12 </wgt>
<wgt id='1391'> +1.2936013e-12 </wgt>
<wgt id='1392'> +1.2565714e-12 </wgt>
<wgt id='1393'> +1.2691607e-12 </wgt>
<wgt id='1394'> +1.2817589e-12 </wgt>
<wgt id='1395'> +1.3054395e-12 </wgt>
<wgt id='1396'> +1.2935376e-12 </wgt>
<wgt id='1397'> +1.3159338e-12 </wgt>
<wgt id='1398'> +1.3108803e-12 </wgt>
<wgt id='1399'> +1.3062326e-12 </wgt>
<wgt id='1400'> +1.3019548e-12 </wgt>
<wgt id='1401'> +1.2976683e-12 </wgt>
<wgt id='1402'> +1.2898521e-12 </wgt>
<wgt id='1403'> +1.2865046e-12 </wgt>
<wgt id='1404'> +1.2833020e-12 </wgt>
<wgt id='1405'> +1.2935376e-12 </wgt>
<wgt id='1406'> +1.2864255e-12 </wgt>
<wgt id='1407'> +1.2900823e-12 </wgt>
<wgt id='1408'> +1.2967222e-12 </wgt>
<wgt id='1409'> +1.2992920e-12 </wgt>
<wgt id='1410'> +1.2199748e-12 </wgt>
<wgt id='1411'> +1.2215691e-12 </wgt>
<wgt id='1412'> +1.2178252e-12 </wgt>
<wgt id='1413'> +1.2225153e-12 </wgt>
<wgt id='1414'> +1.2174084e-12 </wgt>
<wgt id='1415'> +1.2219628e-12 </wgt>
<wgt id='1416'> +1.2191498e-12 </wgt>
<wgt id='1417'> +1.2133442e-12 </wgt>
<wgt id='1418'> +1.2265510e-12 </wgt>
<wgt id='1419'> +1.2235700e-12 </wgt>
<wgt id='1420'> +1.2164940e-12 </wgt>
<wgt id='1421'> +1.2012252e-12 </wgt>
<wgt id='1422'> +1.2280861e-12 </wgt>
<wgt id='1423'> +1.2199653e-12 </wgt>
<wgt id='1424'> +1.2199451e-12 </wgt>
<wgt id='1425'> +1.2142717e-12 </wgt>
<wgt id='1426'> +1.2261078e-12 </wgt>
<wgt id='1427'> +1.2082063e-12 </wgt>
<wgt id='1428'> +1.2262104e-12 </wgt>
<wgt id='1429'> +1.2169613e-12 </wgt>
<wgt id='1430'> +1.2240490e-12 </wgt>
<wgt id='1431'> +1.2218726e-12 </wgt>
<wgt id='1432'> +1.2185540e-12 </wgt>
<wgt id='1433'> +1.2269744e-12 </wgt>
<wgt id='1434'> +1.2117323e-12 </wgt>
<wgt id='1435'> +1.2242763e-12 </wgt>
<wgt id='1436'> +1.2095407e-12 </wgt>
<wgt id='1437'> +1.2268578e-12 </wgt>
<wgt id='1438'> +1.2188004e-12 </wgt>
<wgt id='1439'> +1.2136534e-12 </wgt>
<wgt id='1440'> +1.2343486e-12 </wgt>
<wgt id='1441'> +1.2214066e-12 </wgt>
<wgt id='1442'> +1.2174509e-12 </wgt>
<wgt id='1443'> +1.2180944e-12 </wgt>
<wgt id='1444'> +1.2250593e-12 </wgt>
<wgt id='1445'> +1.2254358e-12 </wgt>
<wgt id='1446'> +1.2187549e-12 </wgt>
<wgt id='1447'> +1.2206677e-12 </wgt>
<wgt id='1448'> +1.2212550e-12 </wgt>
<wgt id='1449'> +1.2190113e-12 </wgt>
<wgt id='1450'> +1.2204303e-12 </wgt>
<wgt id='1451'> +1.2180968e-12 </wgt>
<wgt id='1452'> +1.2218876e-12 </wgt>
<wgt id='1453'> +1.2209252e-12 </wgt>
<wgt id='1454'> +1.2142284e-12 </wgt>
<wgt id='1455'> +1.2143459e-12 </wgt>
<wgt id='1456'> +1.2230429e-12 </wgt>
<wgt id='1457'> +1.2209460e-12 </wgt>
<wgt id='1458'> +1.2195777e-12 </wgt>
<wgt id='1459'> +1.2229606e-12 </wgt>
<wgt id='1460'> +1.2182949e-12 </wgt>
<wgt id='1461'> +1.2199748e-12 </wgt>
<wgt id='1462'> +1.2134919e-12 </wgt>
<wgt id='1463'> +1.2263377e-12 </wgt>
<wgt id='1464'> +1.2204691e-12 </wgt>
<wgt id='1465'> +1.2453663e-12 </wgt>
<wgt id='1466'> +1.2391877e-12 </wgt>
<wgt id='1467'> +1.2337888e-12 </wgt>
<wgt id='1468'> +1.2301138e-12 </wgt>
<wgt id='1469'> +1.2246711e-12 </wgt>
<wgt id='1470'> +1.2171450e-12 </wgt>
<wgt id='1471'> +1.2125266e-12 </wgt>
<wgt id='1472'> +1.2087841e-12 </wgt>
<wgt id='1473'> +1.2204691e-12 </wgt>
<wgt id='1474'> +1.2137832e-12 </wgt>
<wgt id='1475'> +1.2175891e-12 </wgt>
<wgt id='1476'> +1.2232355e-12 </wgt>
<wgt id='1477'> +1.2256029e-12 </wgt>
<wgt id='1478'> +1.2727284e-12 </wgt>
<wgt id='1479'> +1.2727455e-12 </wgt>
<wgt id='1480'> +1.2705646e-12 </wgt>
<wgt id='1481'> +1.2634468e-12 </wgt>
<wgt id='1482'> +1.2774163e-12 </wgt>
<wgt id='1483'> +1.2654146e-12 </wgt>
<wgt id='1484'> +1.2732073e-12 </wgt>
<wgt id='1485'> +1.2861768e-12 </wgt>
<wgt id='1486'> +1.2724656e-12 </wgt>
<wgt id='1487'> +1.2738533e-12 </wgt>
<wgt id='1488'> +1.2680668e-12 </wgt>
<wgt id='1489'> +1.2955994e-12 </wgt>
<wgt id='1490'> +1.2742310e-12 </wgt>
<wgt id='1491'> +1.2755591e-12 </wgt>
<wgt id='1492'> +1.2705567e-12 </wgt>
<wgt id='1493'> +1.2611110e-12 </wgt>
<wgt id='1494'> +1.2749385e-12 </wgt>
<wgt id='1495'> +1.2812958e-12 </wgt>
<wgt id='1496'> +1.2722602e-12 </wgt>
<wgt id='1497'> +1.2770530e-12 </wgt>
<wgt id='1498'> +1.2711131e-12 </wgt>
<wgt id='1499'> +1.2762762e-12 </wgt>
<wgt id='1500'> +1.2718656e-12 </wgt>
<wgt id='1501'> +1.2720403e-12 </wgt>
<wgt id='1502'> +1.2736978e-12 </wgt>
<wgt id='1503'> +1.2751783e-12 </wgt>
<wgt id='1504'> +1.2739211e-12 </wgt>
<wgt id='1505'> +1.2728037e-12 </wgt>
<wgt id='1506'> +1.2743682e-12 </wgt>
<wgt id='1507'> +1.2718598e-12 </wgt>
<wgt id='1508'> +1.2805295e-12 </wgt>
<wgt id='1509'> +1.2636769e-12 </wgt>
<wgt id='1510'> +1.2612019e-12 </wgt>
<wgt id='1511'> +1.2660747e-12 </wgt>
<wgt id='1512'> +1.2644958e-12 </wgt>
<wgt id='1513'> +1.2651358e-12 </wgt>
<wgt id='1514'> +1.2638243e-12 </wgt>
<wgt id='1515'> +1.2636704e-12 </wgt>
<wgt id='1516'> +1.2650923e-12 </wgt>
<wgt id='1517'> +1.2684791e-12 </wgt>
<wgt id='1518'> +1.2627375e-12 </wgt>
<wgt id='1519'> +1.2592409e-12 </wgt>
<wgt id='1520'> +1.2712052e-12 </wgt>
<wgt id='1521'> +1.2697545e-12 </wgt>
<wgt id='1522'> +1.2724877e-12 </wgt>
<wgt id='1523'> +1.2694272e-12 </wgt>
<wgt id='1524'> +1.2667726e-12 </wgt>
<wgt id='1525'> +1.2630056e-12 </wgt>
<wgt id='1526'> +1.2656415e-12 </wgt>
<wgt id='1527'> +1.2672625e-12 </wgt>
<wgt id='1528'> +1.2607617e-12 </wgt>
<wgt id='1529'> +1.2674984e-12 </wgt>
<wgt id='1530'> +1.2564474e-12 </wgt>
<wgt id='1531'> +1.2659071e-12 </wgt>
<wgt id='1532'> +1.2643165e-12 </wgt>
<wgt id='1533'> +1.2619180e-12 </wgt>
<wgt id='1534'> +1.2615664e-12 </wgt>
<wgt id='1535'> +1.2691597e-12 </wgt>
<wgt id='1536'> +1.2664378e-12 </wgt>
<wgt id='1537'> +1.2637575e-12 </wgt>
<wgt id='1538'> +1.2637390e-12 </wgt>
<wgt id='1539'> +1.2635325e-12 </wgt>
<wgt id='1540'> +1.2621820e-12 </wgt>
<wgt id='1541'> +1.2643391e-12 </wgt>
<wgt id='1542'> +1.2625406e-12 </wgt>
<wgt id='1543'> +1.2641915e-12 </wgt>
<wgt id='1544'> +1.2650844e-12 </wgt>
<wgt id='1545'> +1.2620103e-12 </wgt>
<wgt id='1546'> +1.2630820e-12 </wgt>
<wgt id='1547'> +1.2629001e-12 </wgt>
<wgt id='1548'> +1.2647664e-12 </wgt>
<wgt id='1549'> +1.2640357e-12 </wgt>
<wgt id='1550'> +1.2622010e-12 </wgt>
<wgt id='1551'> +1.2644820e-12 </wgt>
<wgt id='1552'> +1.2633343e-12 </wgt>
<wgt id='1553'> +1.2628871e-12 </wgt>
<wgt id='1554'> +1.2621284e-12 </wgt>
<wgt id='1555'> +1.2639499e-12 </wgt>
<wgt id='1556'> +1.2641245e-12 </wgt>
<wgt id='1557'> +1.2639806e-12 </wgt>
<wgt id='1558'> +1.2637761e-12 </wgt>
<wgt id='1559'> +1.2631566e-12 </wgt>
<wgt id='1560'> +1.2638778e-12 </wgt>
<wgt id='1561'> +1.2634973e-12 </wgt>
<wgt id='1562'> +1.2637119e-12 </wgt>
<wgt id='1563'> +1.2643712e-12 </wgt>
<wgt id='1564'> +1.2637431e-12 </wgt>
<wgt id='1565'> +1.2636904e-12 </wgt>
<wgt id='1566'> +1.2639023e-12 </wgt>
<wgt id='1567'> +1.2636535e-12 </wgt>
<wgt id='1568'> +1.2629951e-12 </wgt>
<wgt id='1569'> +1.2636675e-12 </wgt>
<wgt id='1570'> +1.2636410e-12 </wgt>
<wgt id='1571'> +1.2637095e-12 </wgt>
<wgt id='1572'> +1.2635153e-12 </wgt>
<wgt id='1573'> +1.2637772e-12 </wgt>
<wgt id='1574'> +1.2636887e-12 </wgt>
<wgt id='1575'> +1.2636226e-12 </wgt>
<wgt id='1576'> +1.2637024e-12 </wgt>
<wgt id='1577'> +1.2642719e-12 </wgt>
<wgt id='1578'> +1.2634219e-12 </wgt>
<wgt id='1579'> +1.2636427e-12 </wgt>
<wgt id='1580'> +1.2639533e-12 </wgt>
<wgt id='1581'> +1.2641955e-12 </wgt>
<wgt id='1582'> +1.2640142e-12 </wgt>
<wgt id='1583'> +1.2640449e-12 </wgt>
<wgt id='1584'> +1.2638228e-12 </wgt>
<wgt id='1585'> +1.2636539e-12 </wgt>
<wgt id='1586'> +1.2643426e-12 </wgt>
<wgt id='1587'> +1.2641079e-12 </wgt>
<wgt id='1588'> +1.2633421e-12 </wgt>
<wgt id='1589'> +1.2636267e-12 </wgt>
<wgt id='1590'> +1.2635006e-12 </wgt>
<wgt id='1591'> +1.2633919e-12 </wgt>
<wgt id='1592'> +1.2636569e-12 </wgt>
<wgt id='1593'> +1.2644938e-12 </wgt>
<wgt id='1594'> +1.2635223e-12 </wgt>
<wgt id='1595'> +1.2639928e-12 </wgt>
<wgt id='1596'> +1.2634617e-12 </wgt>
<wgt id='1597'> +1.2635527e-12 </wgt>
<wgt id='1598'> +1.2641617e-12 </wgt>
<wgt id='1599'> +1.2634998e-12 </wgt>
<wgt id='1600'> +1.2634779e-12 </wgt>
<wgt id='1601'> +1.2639696e-12 </wgt>
<wgt id='1602'> +1.2639497e-12 </wgt>
<wgt id='1603'> +1.2637681e-12 </wgt>
<wgt id='1604'> +1.2638088e-12 </wgt>
<wgt id='1605'> +1.2641075e-12 </wgt>
<wgt id='1606'> +1.2627831e-12 </wgt>
<wgt id='1607'> +1.2640121e-12 </wgt>
<wgt id='1608'> +1.2636931e-12 </wgt>
<wgt id='1609'> +1.2637015e-12 </wgt>
<wgt id='1610'> +1.2365818e-12 </wgt>
<wgt id='1611'> +1.2904304e-12 </wgt>
<wgt id='1612'> +1.4808629e-12 </wgt>
<wgt id='1613'> +1.5029126e-12 </wgt>
<wgt id='1614'> +1.4942628e-12 </wgt>
<wgt id='1615'> +1.4766371e-12 </wgt>
<wgt id='1616'> +1.4913143e-12 </wgt>
<wgt id='1617'> +1.4415297e-12 </wgt>
<wgt id='1618'> +1.4077998e-12 </wgt>
<wgt id='1619'> +1.4803511e-12 </wgt>
<wgt id='1620'> +1.4969983e-12 </wgt>
<wgt id='1621'> +1.4771277e-12 </wgt>
<wgt id='1622'> +1.4888036e-12 </wgt>
<wgt id='1623'> +1.4849259e-12 </wgt>
<wgt id='1624'> +1.4666249e-12 </wgt>
<wgt id='1625'> +1.4953054e-12 </wgt>
<wgt id='1626'> +1.4946749e-12 </wgt>
<wgt id='1627'> +1.4760101e-12 </wgt>
<wgt id='1628'> +1.5133786e-12 </wgt>
<wgt id='1629'> +1.5278218e-12 </wgt>
<wgt id='1630'> +1.4921451e-12 </wgt>
<wgt id='1631'> +1.4796384e-12 </wgt>
<wgt id='1632'> +1.5175266e-12 </wgt>
<wgt id='1633'> +1.4661238e-12 </wgt>
<wgt id='1634'> +1.4959232e-12 </wgt>
<wgt id='1635'> +1.4651342e-12 </wgt>
<wgt id='1636'> +1.4575437e-12 </wgt>
<wgt id='1637'> +1.4296946e-12 </wgt>
<wgt id='1638'> +1.4929679e-12 </wgt>
<wgt id='1639'> +1.5034776e-12 </wgt>
<wgt id='1640'> +1.5053008e-12 </wgt>
<wgt id='1641'> +1.4638588e-12 </wgt>
<wgt id='1642'> +1.4946261e-12 </wgt>
<wgt id='1643'> +1.5118364e-12 </wgt>
<wgt id='1644'> +1.4453746e-12 </wgt>
<wgt id='1645'> +1.5013619e-12 </wgt>
<wgt id='1646'> +1.5220789e-12 </wgt>
<wgt id='1647'> +1.5038959e-12 </wgt>
<wgt id='1648'> +1.4981270e-12 </wgt>
<wgt id='1649'> +1.4224973e-12 </wgt>
<wgt id='1650'> +1.4856041e-12 </wgt>
<wgt id='1651'> +1.4466045e-12 </wgt>
<wgt id='1652'> +1.5088847e-12 </wgt>
<wgt id='1653'> +1.4461043e-12 </wgt>
<wgt id='1654'> +1.4418702e-12 </wgt>
<wgt id='1655'> +1.4526264e-12 </wgt>
<wgt id='1656'> +1.4824512e-12 </wgt>
<wgt id='1657'> +1.4503013e-12 </wgt>
<wgt id='1658'> +1.4902561e-12 </wgt>
<wgt id='1659'> +1.4666249e-12 </wgt>
<wgt id='1660'> +1.4554116e-12 </wgt>
<wgt id='1661'> +1.4563904e-12 </wgt>
<wgt id='1662'> +1.4817377e-12 </wgt>
<wgt id='1663'> +1.4766200e-12 </wgt>
<wgt id='1664'> +1.5331949e-12 </wgt>
<wgt id='1665'> +1.4880133e-12 </wgt>
<wgt id='1666'> +1.4559366e-12 </wgt>
<wgt id='1667'> +1.4781801e-12 </wgt>
<wgt id='1668'> +1.4701589e-12 </wgt>
<wgt id='1669'> +1.4741007e-12 </wgt>
<wgt id='1670'> +1.4895422e-12 </wgt>
<wgt id='1671'> +1.5060510e-12 </wgt>
<wgt id='1672'> +1.5055129e-12 </wgt>
<wgt id='1673'> +1.4483645e-12 </wgt>
<wgt id='1674'> +1.4866642e-12 </wgt>
<wgt id='1675'> +1.5219989e-12 </wgt>
<wgt id='1676'> +1.4699942e-12 </wgt>
<wgt id='1677'> +1.4889780e-12 </wgt>
<wgt id='1678'> +1.4759445e-12 </wgt>
<wgt id='1679'> +1.5012681e-12 </wgt>
<wgt id='1680'> +1.4954204e-12 </wgt>
<wgt id='1681'> +1.5003708e-12 </wgt>
<wgt id='1682'> +1.4765312e-12 </wgt>
<wgt id='1683'> +1.4653899e-12 </wgt>
<wgt id='1684'> +1.4682684e-12 </wgt>
<wgt id='1685'> +1.4806949e-12 </wgt>
<wgt id='1686'> +1.4893802e-12 </wgt>
<wgt id='1687'> +1.5061556e-12 </wgt>
<wgt id='1688'> +1.4779541e-12 </wgt>
<wgt id='1689'> +1.4748340e-12 </wgt>
<wgt id='1690'> +1.4763368e-12 </wgt>
<wgt id='1691'> +1.5095774e-12 </wgt>
<wgt id='1692'> +1.5022743e-12 </wgt>
<wgt id='1693'> +1.4930115e-12 </wgt>
<wgt id='1694'> +1.4360063e-12 </wgt>
<wgt id='1695'> +1.5175210e-12 </wgt>
<wgt id='1696'> +1.5175049e-12 </wgt>
<wgt id='1697'> +1.4638571e-12 </wgt>
<wgt id='1698'> +1.4598733e-12 </wgt>
<wgt id='1699'> +1.4588098e-12 </wgt>
<wgt id='1700'> +1.4729378e-12 </wgt>
<wgt id='1701'> +1.4846807e-12 </wgt>
<wgt id='1702'> +1.4505272e-12 </wgt>
<wgt id='1703'> +1.5108982e-12 </wgt>
<wgt id='1704'> +1.4742249e-12 </wgt>
<wgt id='1705'> +1.5013165e-12 </wgt>
<wgt id='1706'> +1.4723104e-12 </wgt>
<wgt id='1707'> +1.4577076e-12 </wgt>
<wgt id='1708'> +1.4657322e-12 </wgt>
<wgt id='1709'> +1.4799927e-12 </wgt>
<wgt id='1710'> +1.4561679e-12 </wgt>
<wgt id='1711'> +1.4758804e-12 </wgt>
<wgt id='1712'> +1.4934654e-12 </wgt>
<wgt id='1713'> +1.2896172e-12 </wgt>
<wgt id='1714'> +1.2517752e-12 </wgt>
<wgt id='1715'> +1.2829375e-12 </wgt>
<wgt id='1716'> +1.2860486e-12 </wgt>
<wgt id='1717'> +1.2703983e-12 </wgt>
<wgt id='1718'> +1.2686832e-12 </wgt>
<wgt id='1719'> +1.3042530e-12 </wgt>
<wgt id='1720'> +1.3043971e-12 </wgt>
<wgt id='1721'> +1.2873046e-12 </wgt>
<wgt id='1722'> +1.2832797e-12 </wgt>
<wgt id='1723'> +1.2529063e-12 </wgt>
<wgt id='1724'> +1.2818420e-12 </wgt>
<wgt id='1725'> +1.3113649e-12 </wgt>
<wgt id='1726'> +1.3145571e-12 </wgt>
<wgt id='1727'> +1.2604834e-12 </wgt>
<wgt id='1728'> +1.2987317e-12 </wgt>
<wgt id='1729'> +1.2967198e-12 </wgt>
<wgt id='1730'> +1.2674686e-12 </wgt>
<wgt id='1731'> +1.2650835e-12 </wgt>
<wgt id='1732'> +1.3043023e-12 </wgt>
<wgt id='1733'> +1.2983582e-12 </wgt>
<wgt id='1734'> +1.3021222e-12 </wgt>
<wgt id='1735'> +1.2886430e-12 </wgt>
<wgt id='1736'> +1.3868270e-12 </wgt>
<wgt id='1737'> +1.2931388e-12 </wgt>
<wgt id='1738'> +1.3071117e-12 </wgt>
<wgt id='1739'> +1.2648348e-12 </wgt>
<wgt id='1740'> +1.2501826e-12 </wgt>
<wgt id='1741'> +1.2875616e-12 </wgt>
<wgt id='1742'> +1.2773280e-12 </wgt>
<wgt id='1743'> +1.3154361e-12 </wgt>
<wgt id='1744'> +1.2995177e-12 </wgt>
<wgt id='1745'> +1.2444295e-12 </wgt>
<wgt id='1746'> +1.3022030e-12 </wgt>
<wgt id='1747'> +1.3076877e-12 </wgt>
<wgt id='1748'> +1.2833274e-12 </wgt>
<wgt id='1749'> +1.3119051e-12 </wgt>
<wgt id='1750'> +1.3116899e-12 </wgt>
<wgt id='1751'> +1.2818211e-12 </wgt>
<wgt id='1752'> +1.2475651e-12 </wgt>
<wgt id='1753'> +1.3146809e-12 </wgt>
<wgt id='1754'> +1.2825255e-12 </wgt>
<wgt id='1755'> +1.2986313e-12 </wgt>
<wgt id='1756'> +1.3109016e-12 </wgt>
<wgt id='1757'> +1.2873231e-12 </wgt>
<wgt id='1758'> +1.3094894e-12 </wgt>
<wgt id='1759'> +1.2982651e-12 </wgt>
<wgt id='1760'> +1.2668598e-12 </wgt>
<wgt id='1761'> +1.2670035e-12 </wgt>
<wgt id='1762'> +1.2858820e-12 </wgt>
<wgt id='1763'> +1.2949463e-12 </wgt>
<wgt id='1764'> +1.2958040e-12 </wgt>
<wgt id='1765'> +1.2840169e-12 </wgt>
<wgt id='1766'> +1.3136033e-12 </wgt>
<wgt id='1767'> +1.2932075e-12 </wgt>
<wgt id='1768'> +1.2864592e-12 </wgt>
<wgt id='1769'> +1.2625173e-12 </wgt>
<wgt id='1770'> +1.3200016e-12 </wgt>
<wgt id='1771'> +1.2889146e-12 </wgt>
<wgt id='1772'> +1.3046853e-12 </wgt>
<wgt id='1773'> +1.2831550e-12 </wgt>
<wgt id='1774'> +1.2934730e-12 </wgt>
<wgt id='1775'> +1.2933081e-12 </wgt>
<wgt id='1776'> +1.3112173e-12 </wgt>
<wgt id='1777'> +1.2622542e-12 </wgt>
<wgt id='1778'> +1.2660320e-12 </wgt>
<wgt id='1779'> +1.3124049e-12 </wgt>
<wgt id='1780'> +1.3302834e-12 </wgt>
<wgt id='1781'> +1.2700509e-12 </wgt>
<wgt id='1782'> +1.2472889e-12 </wgt>
<wgt id='1783'> +1.3002747e-12 </wgt>
<wgt id='1784'> +1.3096211e-12 </wgt>
<wgt id='1785'> +1.2837525e-12 </wgt>
<wgt id='1786'> +1.2104206e-12 </wgt>
<wgt id='1787'> +1.3077383e-12 </wgt>
<wgt id='1788'> +1.2746797e-12 </wgt>
<wgt id='1789'> +1.2803539e-12 </wgt>
<wgt id='1790'> +1.3163122e-12 </wgt>
<wgt id='1791'> +1.3302703e-12 </wgt>
<wgt id='1792'> +1.2718203e-12 </wgt>
<wgt id='1793'> +1.3000481e-12 </wgt>
<wgt id='1794'> +1.2909152e-12 </wgt>
<wgt id='1795'> +1.2785192e-12 </wgt>
<wgt id='1796'> +1.2899705e-12 </wgt>
<wgt id='1797'> +1.2929710e-12 </wgt>
<wgt id='1798'> +1.2593659e-12 </wgt>
<wgt id='1799'> +1.2879242e-12 </wgt>
<wgt id='1800'> +1.2841981e-12 </wgt>
<wgt id='1801'> +1.2805746e-12 </wgt>
<wgt id='1802'> +1.3079189e-12 </wgt>
<wgt id='1803'> +1.2893850e-12 </wgt>
<wgt id='1804'> +1.2631079e-12 </wgt>
<wgt id='1805'> +1.3035255e-12 </wgt>
<wgt id='1806'> +1.2735799e-12 </wgt>
<wgt id='1807'> +1.3195252e-12 </wgt>
<wgt id='1808'> +1.2812857e-12 </wgt>
<wgt id='1809'> +1.2866421e-12 </wgt>
<wgt id='1810'> +1.2820946e-12 </wgt>
<wgt id='1811'> +1.3251093e-12 </wgt>
<wgt id='1812'> +1.3122704e-12 </wgt>
<wgt id='1813'> +1.2817864e-12 </wgt>
<wgt id='1814'> +1.1368235e-12 </wgt>
<wgt id='1815'> +1.2836916e-12 </wgt>
<wgt id='1816'> +1.2896172e-12 </wgt>
<wgt id='1817'> +1.2517752e-12 </wgt>
<wgt id='1818'> +1.2829375e-12 </wgt>
<wgt id='1819'> +1.2860486e-12 </wgt>
<wgt id='1820'> +1.2703983e-12 </wgt>
<wgt id='1821'> +1.2686832e-12 </wgt>
<wgt id='1822'> +1.3042530e-12 </wgt>
<wgt id='1823'> +1.3043971e-12 </wgt>
<wgt id='1824'> +1.2873046e-12 </wgt>
<wgt id='1825'> +1.2832797e-12 </wgt>
<wgt id='1826'> +1.2529063e-12 </wgt>
<wgt id='1827'> +1.2818420e-12 </wgt>
<wgt id='1828'> +1.3113649e-12 </wgt>
<wgt id='1829'> +1.3145571e-12 </wgt>
<wgt id='1830'> +1.2604834e-12 </wgt>
<wgt id='1831'> +1.2987317e-12 </wgt>
<wgt id='1832'> +1.2967198e-12 </wgt>
<wgt id='1833'> +1.2674686e-12 </wgt>
<wgt id='1834'> +1.2650835e-12 </wgt>
<wgt id='1835'> +1.3043023e-12 </wgt>
<wgt id='1836'> +1.2983582e-12 </wgt>
<wgt id='1837'> +1.3021222e-12 </wgt>
<wgt id='1838'> +1.2886430e-12 </wgt>
<wgt id='1839'> +1.3868270e-12 </wgt>
<wgt id='1840'> +1.2931388e-12 </wgt>
<wgt id='1841'> +1.3071117e-12 </wgt>
<wgt id='1842'> +1.2648348e-12 </wgt>
<wgt id='1843'> +1.2501826e-12 </wgt>
<wgt id='1844'> +1.2875616e-12 </wgt>
<wgt id='1845'> +1.2773280e-12 </wgt>
<wgt id='1846'> +1.3154361e-12 </wgt>
<wgt id='1847'> +1.2995177e-12 </wgt>
<wgt id='1848'> +1.2444295e-12 </wgt>
<wgt id='1849'> +1.3022030e-12 </wgt>
<wgt id='1850'> +1.3076877e-12 </wgt>
<wgt id='1851'> +1.2833274e-12 </wgt>
<wgt id='1852'> +1.3119051e-12 </wgt>
<wgt id='1853'> +1.3116899e-12 </wgt>
<wgt id='1854'> +1.2818211e-12 </wgt>
<wgt id='1855'> +1.2475651e-12 </wgt>
<wgt id='1856'> +1.3146809e-12 </wgt>
<wgt id='1857'> +1.2825255e-12 </wgt>
<wgt id='1858'> +1.2986313e-12 </wgt>
<wgt id='1859'> +1.3109016e-12 </wgt>
<wgt id='1860'> +1.2873231e-12 </wgt>
<wgt id='1861'> +1.3094894e-12 </wgt>
<wgt id='1862'> +1.2982651e-12 </wgt>
<wgt id='1863'> +1.2668598e-12 </wgt>
<wgt id='1864'> +1.2670035e-12 </wgt>
<wgt id='1865'> +1.2858820e-12 </wgt>
<wgt id='1866'> +1.2949463e-12 </wgt>
<wgt id='1867'> +1.2958040e-12 </wgt>
<wgt id='1868'> +1.2840169e-12 </wgt>
<wgt id='1869'> +1.3136033e-12 </wgt>
<wgt id='1870'> +1.2932075e-12 </wgt>
<wgt id='1871'> +1.2864592e-12 </wgt>
<wgt id='1872'> +1.2625173e-12 </wgt>
<wgt id='1873'> +1.3200016e-12 </wgt>
<wgt id='1874'> +1.2889146e-12 </wgt>
<wgt id='1875'> +1.3046853e-12 </wgt>
<wgt id='1876'> +1.2831550e-12 </wgt>
<wgt id='1877'> +1.2934730e-12 </wgt>
<wgt id='1878'> +1.2933081e-12 </wgt>
<wgt id='1879'> +1.3112173e-12 </wgt>
<wgt id='1880'> +1.2622542e-12 </wgt>
<wgt id='1881'> +1.2660320e-12 </wgt>
<wgt id='1882'> +1.3124049e-12 </wgt>
<wgt id='1883'> +1.3302834e-12 </wgt>
<wgt id='1884'> +1.2700509e-12 </wgt>
<wgt id='1885'> +1.2472889e-12 </wgt>
<wgt id='1886'> +1.3002747e-12 </wgt>
<wgt id='1887'> +1.3096211e-12 </wgt>
<wgt id='1888'> +1.2837525e-12 </wgt>
<wgt id='1889'> +1.2104206e-12 </wgt>
<wgt id='1890'> +1.3077383e-12 </wgt>
<wgt id='1891'> +1.2746797e-12 </wgt>
<wgt id='1892'> +1.2803539e-12 </wgt>
<wgt id='1893'> +1.3163122e-12 </wgt>
<wgt id='1894'> +1.3302703e-12 </wgt>
<wgt id='1895'> +1.2718203e-12 </wgt>
<wgt id='1896'> +1.3000481e-12 </wgt>
<wgt id='1897'> +1.2909152e-12 </wgt>
<wgt id='1898'> +1.2785192e-12 </wgt>
<wgt id='1899'> +1.2899705e-12 </wgt>
<wgt id='1900'> +1.2929710e-12 </wgt>
<wgt id='1901'> +1.2593659e-12 </wgt>
<wgt id='1902'> +1.2879242e-12 </wgt>
<wgt id='1903'> +1.2841981e-12 </wgt>
<wgt id='1904'> +1.2805746e-12 </wgt>
<wgt id='1905'> +1.3079189e-12 </wgt>
<wgt id='1906'> +1.2893850e-12 </wgt>
<wgt id='1907'> +1.2631079e-12 </wgt>
<wgt id='1908'> +1.3035255e-12 </wgt>
<wgt id='1909'> +1.2735799e-12 </wgt>
<wgt id='1910'> +1.3195252e-12 </wgt>
<wgt id='1911'> +1.2812857e-12 </wgt>
<wgt id='1912'> +1.2866421e-12 </wgt>
<wgt id='1913'> +1.2820946e-12 </wgt>
<wgt id='1914'> +1.3251093e-12 </wgt>
<wgt id='1915'> +1.3122704e-12 </wgt>
<wgt id='1916'> +1.2817864e-12 </wgt>
<wgt id='1917'> +1.2745157e-12 </wgt>
<wgt id='1918'> +1.3008252e-12 </wgt>
<wgt id='1919'> +1.2583995e-12 </wgt>
</rwgt>
</event>
<event>
 9      1 +1.5538000e-12 2.82014500e+01 7.81860800e-03 1.46846600e-01
        1 -1    0    0  502    0 -0.0000000000e+00 +0.0000000000e+00 +7.1535838021e+02 7.1535838021e+02 0.0000000000e+00 0.0000e+00 -1.0000e+00
       21 -1    0    0  501  502 +0.0000000000e+00 -0.0000000000e+00 -1.1184067662e+00 1.1184067662e+00 0.0000000000e+00 0.0000e+00 -1.0000e+00
     1023  2    1    2    0    0 +1.7240028211e+01 -1.6523300733e+01 +5.2169185765e+02 5.2245355400e+02 1.5002789956e+01 0.0000e+00 0.0000e+00
  1000023  2    3    3    0    0 +1.5370359329e+01 -1.5728032562e+01 +3.9959808805e+02 4.0024055678e+02 5.5002150834e+00 0.0000e+00 0.0000e+00
        1  1    1    2  501    0 -1.7240028211e+01 +1.6523300733e+01 +1.9254811579e+02 1.9402323298e+02 0.0000000000e+00 0.0000e+00 -1.0000e+00
  1000022  1    4    4    0    0 +1.4608086938e+01 -1.5176794196e+01 +3.7914061616e+02 3.7975826272e+02 5.0000000000e+00 0.0000e+00 -1.0000e+00
      -13  1    4    4    0    0 +3.9408445664e-01 -4.3600703725e-01 +1.3681350159e+01 1.3694375464e+01 1.0570000000e-01 0.0000e+00 1.0000e+00
       13  1    4    4    0    0 +3.6818793450e-01 -1.1523132814e-01 +6.7761217286e+00 6.7879185900e+00 1.0570000000e-01 0.0000e+00 1.0000e+00
  1000022  1    3    3    0    0 +1.8696688811e+00 -7.9526817125e-01 +1.2209376960e+02 1.2221299722e+02 5.0000000000e+00 0.0000e+00 1.0000e+00
<mgrwt>
<rscale>  1 0.28201449E+02</rscale>
<asrwt>0</asrwt>
<pdfrwt beam="1">  1       21 0.17206315E-03 0.28201449E+02</pdfrwt>
<pdfrwt beam="2">  1        1 0.11005477E+00 0.28201449E+02</pdfrwt>
<totfact> 0.98312882E+06</totfact>
</mgrwt>
<rwgt>
<wgt id='1001'> +1.5538000e-12 </wgt>
<wgt id='1002'> +1.6272606e-12 </wgt>
<wgt id='1003'> +1.6353763e-12 </wgt>
<wgt id='1004'> +1.5387230e-12 </wgt>
<wgt id='1005'> +1.6433890e-12 </wgt>
<wgt id='1006'> +1.3572702e-12 </wgt>
<wgt id='1007'> +1.4407171e-12 </wgt>
<wgt id='1008'> +1.4504939e-12 </wgt>
<wgt id='1009'> +1.3408936e-12 </wgt>
<wgt id='1010'> +1.4603169e-12 </wgt>
<wgt id='1011'> +1.8202421e-12 </wgt>
<wgt id='1012'> +1.8717760e-12 </wgt>
<wgt id='1013'> +1.8766524e-12 </wgt>
<wgt id='1014'> +1.8085441e-12 </wgt>
<wgt id='1015'> +1.8811911e-12 </wgt>
<wgt id='1016'> +1.8810460e-12 </wgt>
<wgt id='1017'> +1.8948791e-12 </wgt>
<wgt id='1018'> +1.8951558e-12 </wgt>
<wgt id='1019'> +1.8766524e-12 </wgt>
<wgt id='1020'> +1.8950586e-12 </wgt>
<wgt id='1021'> +1.6431250e-12 </wgt>
<wgt id='1022'> +1.6776567e-12 </wgt>
<wgt id='1023'> +1.6809048e-12 </wgt>
<wgt id='1024'> +1.6353763e-12 </wgt>
<wgt id='1025'> +1.6839508e-12 </wgt>
<wgt id='1026'> +2.2036035e-12 </wgt>
<wgt id='1027'> +2.1796074e-12 </wgt>
<wgt id='1028'> +2.1747586e-12 </wgt>
<wgt id='1029'> +2.2057307e-12 </wgt>
<wgt id='1030'> +2.1692778e-12 </wgt>
<wgt id='1031'> +1.1882762e-12 </wgt>
<wgt id='1032'> +1.3245147e-12 </wgt>
<wgt id='1033'> +1.3408936e-12 </wgt>
<wgt id='1034'> +1.1623536e-12 </wgt>
<wgt id='1035'> +1.3578446e-12 </wgt>
<wgt id='1036'> +1.0379790e-12 </wgt>
<wgt id='1037'> +1.1726770e-12 </wgt>
<wgt id='1038'> +1.1893030e-12 </wgt>
<wgt id='1039'> +1.0129129e-12 </wgt>
<wgt id='1040'> +1.2065819e-12 </wgt>
<wgt id='1041'> +1.3920391e-12 </wgt>
<wgt id='1042'> +1.5235389e-12 </wgt>
<wgt id='1043'> +1.5387230e-12 </wgt>
<wgt id='1044'> +1.3661768e-12 </wgt>
<wgt id='1045'> +1.5543277e-12 </wgt>
<wgt id='1046'> +1.5538000e-12 </wgt>
<wgt id='1047'> +1.5542290e-12 </wgt>
<wgt id='1048'> +1.6333553e-12 </wgt>
<wgt id='1049'> +1.5029628e-12 </wgt>
<wgt id='1050'> +1.5483528e-12 </wgt>
<wgt id='1051'> +1.5446073e-12 </wgt>
<wgt id='1052'> +1.5300534e-12 </wgt>
<wgt id='1053'> +1.6282146e-12 </wgt>
<wgt id='1054'> +1.5790134e-12 </wgt>
<wgt id='1055'> +1.5623075e-12 </wgt>
<wgt id='1056'> +1.4332105e-12 </wgt>
<wgt id='1057'> +1.5091425e-12 </wgt>
<wgt id='1058'> +1.5178307e-12 </wgt>
<wgt id='1059'> +1.5335663e-12 </wgt>
<wgt id='1060'> +1.5291306e-12 </wgt>
<wgt id='1061'> +1.6034200e-12 </wgt>
<wgt id='1062'> +1.5199809e-12 </wgt>
<wgt id='1063'> +1.4850546e-12 </wgt>
<wgt id='1064'> +1.5685741e-12 </wgt>
<wgt id='1065'> +1.5963105e-12 </wgt>
<wgt id='1066'> +1.5656698e-12 </wgt>
<wgt id='1067'> +1.6229331e-12 </wgt>
<wgt id='1068'> +1.6453345e-12 </wgt>
<wgt id='1069'> +1.6302314e-12 </wgt>
<wgt id='1070'> +1.5398375e-12 </wgt>
<wgt id='1071'> +1.5653554e-12 </wgt>
<wgt id='1072'> +1.5190563e-12 </wgt>
<wgt id='1073'> +1.5242480e-12 </wgt>
<wgt id='1074'> +1.5809676e-12 </wgt>
<wgt id='1075'> +1.4999468e-12 </wgt>
<wgt id='1076'> +1.5769113e-12 </wgt>
<wgt id='1077'> +1.5982055e-12 </wgt>
<wgt id='1078'> +1.5672732e-12 </wgt>
<wgt id='1079'> +1.6039343e-12 </wgt>
<wgt id='1080'> +1.5469556e-12 </wgt>
<wgt id='1081'> +1.5096208e-12 </wgt>
<wgt id='1082'> +1.5473889e-12 </wgt>
<wgt id='1083'> +1.5216650e-12 </wgt>
<wgt id='1084'> +1.5313745e-12 </wgt>
<wgt id='1085'> +1.5854701e-12 </wgt>
<wgt id='1086'> +1.5837258e-12 </wgt>
<wgt id='1087'> +1.5446860e-12 </wgt>
<wgt id='1088'> +1.5665027e-12 </wgt>
<wgt id='1089'> +1.5505507e-12 </wgt>
<wgt id='1090'> +1.5658208e-12 </wgt>
<wgt id='1091'> +1.5418497e-12 </wgt>
<wgt id='1092'> +1.5209951e-12 </wgt>
<wgt id='1093'> +1.6055679e-12 </wgt>
<wgt id='1094'> +1.5634649e-12 </wgt>
<wgt id='1095'> +1.6164759e-12 </wgt>
<wgt id='1096'> +1.5142892e-12 </wgt>
<wgt id='1097'> +1.5719737e-12 </wgt>
<wgt id='1098'> +1.6130791e-12 </wgt>
<wgt id='1099'> +1.5471647e-12 </wgt>
<wgt id='1100'> +1.6036257e-12 </wgt>
<wgt id='1101'> +1.4979780e-12 </wgt>
<wgt id='1102'> +1.5205904e-12 </wgt>
<wgt id='1103'> +1.5262018e-12 </wgt>
<wgt id='1104'> +1.5921614e-12 </wgt>
<wgt id='1105'> +1.4763643e-12 </wgt>
<wgt id='1106'> +1.5437176e-12 </wgt>
<wgt id='1107'> +1.6309318e-12 </wgt>
<wgt id='1108'> +1.5587458e-12 </wgt>
<wgt id='1109'> +1.5294273e-12 </wgt>
<wgt id='1110'> +1.5221256e-12 </wgt>
<wgt id='1111'> +1.5533426e-12 </wgt>
<wgt id='1112'> +1.5092634e-12 </wgt>
<wgt id='1113'> +1.6178518e-12 </wgt>
<wgt id='1114'> +1.5965818e-12 </wgt>
<wgt id='1115'> +1.5774409e-12 </wgt>
<wgt id='1116'> +1.6601279e-12 </wgt>
<wgt id='1117'> +1.6000703e-12 </wgt>
<wgt id='1118'> +1.5492471e-12 </wgt>
<wgt id='1119'> +1.5066389e-12 </wgt>
<wgt id='1120'> +1.5275882e-12 </wgt>
<wgt id='1121'> +1.5045920e-12 </wgt>
<wgt id='1122'> +1.5095924e-12 </wgt>
<wgt id='1123'> +1.6046648e-12 </wgt>
<wgt id='1124'> +1.6313929e-12 </wgt>
<wgt id='1125'> +1.5014923e-12 </wgt>
<wgt id='1126'> +1.4933473e-12 </wgt>
<wgt id='1127'> +1.5888250e-12 </wgt>
<wgt id='1128'> +1.5199809e-12 </wgt>
<wgt id='1129'> +1.4566760e-12 </wgt>
<wgt id='1130'> +1.5417290e-12 </wgt>
<wgt id='1131'> +1.6063846e-12 </wgt>
<wgt id='1132'> +1.6092375e-12 </wgt>
<wgt id='1133'> +1.5477075e-12 </wgt>
<wgt id='1134'> +1.5507451e-12 </wgt>
<wgt id='1135'> +1.3952373e-12 </wgt>
<wgt id='1136'> +1.5295793e-12 </wgt>
<wgt id='1137'> +1.5696050e-12 </wgt>
<wgt id='1138'> +1.5269430e-12 </wgt>
<wgt id='1139'> +1.5440769e-12 </wgt>
<wgt id='1140'> +1.5821667e-12 </wgt>
<wgt id='1141'> +1.5728845e-12 </wgt>
<wgt id='1142'> +1.6366060e-12 </wgt>
<wgt id='1143'> +1.4640683e-12 </wgt>
<wgt id='1144'> +1.5234027e-12 </wgt>
<wgt id='1145'> +1.5241075e-12 </wgt>
<wgt id='1146'> +1.5796201e-12 </wgt>
<wgt id='1147'> +1.4152426e-12 </wgt>
<wgt id='1148'> +1.4420367e-12 </wgt>
<wgt id='1149'> +1.3508109e-12 </wgt>
<wgt id='1150'> +1.4309568e-12 </wgt>
<wgt id='1151'> +1.7394897e-12 </wgt>
<wgt id='1152'> +2.4104225e-12 </wgt>
<wgt id='1153'> +2.4022955e-12 </wgt>
<wgt id='1154'> +2.4150556e-12 </wgt>
<wgt id='1155'> +2.4203592e-12 </wgt>
<wgt id='1156'> +2.4054166e-12 </wgt>
<wgt id='1157'> +2.4128537e-12 </wgt>
<wgt id='1158'> +2.4070789e-12 </wgt>
<wgt id='1159'> +2.4128849e-12 </wgt>
<wgt id='1160'> +2.4088025e-12 </wgt>
<wgt id='1161'> +2.4249407e-12 </wgt>
<wgt id='1162'> +2.4002102e-12 </wgt>
<wgt id='1163'> +2.4080989e-12 </wgt>
<wgt id='1164'> +2.4126895e-12 </wgt>
<wgt id='1165'> +2.4051163e-12 </wgt>
<wgt id='1166'> +2.4157828e-12 </wgt>
<wgt id='1167'> +2.4397596e-12 </wgt>
<wgt id='1168'> +2.3753490e-12 </wgt>
<wgt id='1169'> +2.4432012e-12 </wgt>
<wgt id='1170'> +2.3834607e-12 </wgt>
<wgt id='1171'> +2.3968555e-12 </wgt>
<wgt id='1172'> +2.4260298e-12 </wgt>
<wgt id='1173'> +2.3850296e-12 </wgt>
<wgt id='1174'> +2.4346814e-12 </wgt>
<wgt id='1175'> +2.4020842e-12 </wgt>
<wgt id='1176'> +2.4160038e-12 </wgt>
<wgt id='1177'> +2.4120024e-12 </wgt>
<wgt id='1178'> +2.3985162e-12 </wgt>
<wgt id='1179'> +2.3960896e-12 </wgt>
<wgt id='1180'> +2.4134131e-12 </wgt>
<wgt id='1181'> +2.3991041e-12 </wgt>
<wgt id='1182'> +2.4082473e-12 </wgt>
<wgt id='1183'> +2.4080718e-12 </wgt>
<wgt id='1184'> +2.4102431e-12 </wgt>
<wgt id='1185'> +2.4025168e-12 </wgt>
<wgt id='1186'> +2.4134584e-12 </wgt>
<wgt id='1187'> +2.4174230e-12 </wgt>
<wgt id='1188'> +2.4079041e-12 </wgt>
<wgt id='1189'> +2.4021539e-12 </wgt>
<wgt id='1190'> +2.3834452e-12 </wgt>
<wgt id='1191'> +2.4131837e-12 </wgt>
<wgt id='1192'> +2.4228894e-12 </wgt>
<wgt id='1193'> +1.4225078e-12 </wgt>
<wgt id='1194'> +1.4011502e-12 </wgt>
<wgt id='1195'> +1.4400487e-12 </wgt>
<wgt id='1196'> +1.4244655e-12 </wgt>
<wgt id='1197'> +1.4203468e-12 </wgt>
<wgt id='1198'> +1.4231761e-12 </wgt>
<wgt id='1199'> +1.4215742e-12 </wgt>
<wgt id='1200'> +1.4297674e-12 </wgt>
<wgt id='1201'> +1.4177062e-12 </wgt>
<wgt id='1202'> +1.4213312e-12 </wgt>
<wgt id='1203'> +1.4241884e-12 </wgt>
<wgt id='1204'> +1.4151721e-12 </wgt>
<wgt id='1205'> +1.4268806e-12 </wgt>
<wgt id='1206'> +1.4179214e-12 </wgt>
<wgt id='1207'> +1.4285389e-12 </wgt>
<wgt id='1208'> +1.4242493e-12 </wgt>
<wgt id='1209'> +1.4220769e-12 </wgt>
<wgt id='1210'> +1.4273733e-12 </wgt>
<wgt id='1211'> +1.4182851e-12 </wgt>
<wgt id='1212'> +1.4085042e-12 </wgt>
<wgt id='1213'> +1.4349959e-12 </wgt>
<wgt id='1214'> +1.4056671e-12 </wgt>
<wgt id='1215'> +1.4444062e-12 </wgt>
<wgt id='1216'> +1.4265260e-12 </wgt>
<wgt id='1217'> +1.4177808e-12 </wgt>
<wgt id='1218'> +1.4207995e-12 </wgt>
<wgt id='1219'> +1.4225714e-12 </wgt>
<wgt id='1220'> +1.4191445e-12 </wgt>
<wgt id='1221'> +1.4110245e-12 </wgt>
<wgt id='1222'> +1.4476712e-12 </wgt>
<wgt id='1223'> +1.3839343e-12 </wgt>
<wgt id='1224'> +1.4198526e-12 </wgt>
<wgt id='1225'> +1.4235006e-12 </wgt>
<wgt id='1226'> +1.4160129e-12 </wgt>
<wgt id='1227'> +1.4268317e-12 </wgt>
<wgt id='1228'> +1.4240394e-12 </wgt>
<wgt id='1229'> +1.4187886e-12 </wgt>
<wgt id='1230'> +1.4269218e-12 </wgt>
<wgt id='1231'> +1.4339514e-12 </wgt>
<wgt id='1232'> +1.4315575e-12 </wgt>
<wgt id='1233'> +1.4193270e-12 </wgt>
<wgt id='1234'> +1.4225078e-12 </wgt>
<wgt id='1235'> +1.4160787e-12 </wgt>
<wgt id='1236'> +1.4186057e-12 </wgt>
<wgt id='1237'> +1.4208172e-12 </wgt>
<wgt id='1238'> +1.4244234e-12 </wgt>
<wgt id='1239'> +1.4258758e-12 </wgt>
<wgt id='1240'> +1.4272945e-12 </wgt>
<wgt id='1241'> +1.3586916e-12 </wgt>
<wgt id='1242'> +1.3377132e-12 </wgt>
<wgt id='1243'> +1.3794490e-12 </wgt>
<wgt id='1244'> +1.3597275e-12 </wgt>
<wgt id='1245'> +1.3578868e-12 </wgt>
<wgt id='1246'> +1.3633643e-12 </wgt>
<wgt id='1247'> +1.3547293e-12 </wgt>
<wgt id='1248'> +1.3586028e-12 </wgt>
<wgt id='1249'> +1.3588328e-12 </wgt>
<wgt id='1250'> +1.3600955e-12 </wgt>
<wgt id='1251'> +1.3576572e-12 </wgt>
<wgt id='1252'> +1.3657015e-12 </wgt>
<wgt id='1253'> +1.3530887e-12 </wgt>
<wgt id='1254'> +1.3589614e-12 </wgt>
<wgt id='1255'> +1.3583796e-12 </wgt>
<wgt id='1256'> +1.3576732e-12 </wgt>
<wgt id='1257'> +1.3616317e-12 </wgt>
<wgt id='1258'> +1.3618309e-12 </wgt>
<wgt id='1259'> +1.3523867e-12 </wgt>
<wgt id='1260'> +1.3700520e-12 </wgt>
<wgt id='1261'> +1.3429936e-12 </wgt>
<wgt id='1262'> +1.3542638e-12 </wgt>
<wgt id='1263'> +1.3597860e-12 </wgt>
<wgt id='1264'> +1.3594680e-12 </wgt>
<wgt id='1265'> +1.3581659e-12 </wgt>
<wgt id='1266'> +1.3313046e-12 </wgt>
<wgt id='1267'> +1.3829639e-12 </wgt>
<wgt id='1268'> +1.3624635e-12 </wgt>
<wgt id='1269'> +1.3415606e-12 </wgt>
<wgt id='1270'> +1.3740916e-12 </wgt>
<wgt id='1271'> +1.3620482e-12 </wgt>
<wgt id='1272'> +1.3547484e-12 </wgt>
<wgt id='1273'> +1.3604132e-12 </wgt>
<wgt id='1274'> +1.3609052e-12 </wgt>
<wgt id='1275'> +1.3560221e-12 </wgt>
<wgt id='1276'> +1.3530162e-12 </wgt>
<wgt id='1277'> +1.3599917e-12 </wgt>
<wgt id='1278'> +1.3741432e-12 </wgt>
<wgt id='1279'> +1.3653548e-12 </wgt>
<wgt id='1280'> +1.3567238e-12 </wgt>
<wgt id='1281'> +1.3686180e-12 </wgt>
<wgt id='1282'> +1.3586916e-12 </wgt>
<wgt id='1283'> +1.3528262e-12 </wgt>
<wgt id='1284'> +1.3552662e-12 </wgt>
<wgt id='1285'> +1.3572539e-12 </wgt>
<wgt id='1286'> +1.3603012e-12 </wgt>
<wgt id='1287'> +1.3612747e-12 </wgt>
<wgt id='1288'> +1.3620479e-12 </wgt>
<wgt id='1289'> +1.4538795e-12 </wgt>
<wgt id='1290'> +1.4580426e-12 </wgt>
<wgt id='1291'> +1.4494242e-12 </wgt>
<wgt id='1292'> +1.4557770e-12 </wgt>
<wgt id='1293'> +1.4525053e-12 </wgt>
<wgt id='1294'> +1.4329065e-12 </wgt>
<wgt id='1295'> +1.4740747e-12 </wgt>
<wgt id='1296'> +1.4588028e-12 </wgt>
<wgt id='1297'> +1.4476109e-12 </wgt>
<wgt id='1298'> +1.4662634e-12 </wgt>
<wgt id='1299'> +1.4384595e-12 </wgt>
<wgt id='1300'> +1.4553072e-12 </wgt>
<wgt id='1301'> +1.4509312e-12 </wgt>
<wgt id='1302'> +1.4568766e-12 </wgt>
<wgt id='1303'> +1.4496689e-12 </wgt>
<wgt id='1304'> +1.4515167e-12 </wgt>
<wgt id='1305'> +1.4554329e-12 </wgt>
<wgt id='1306'> +1.4515100e-12 </wgt>
<wgt id='1307'> +1.4565664e-12 </wgt>
<wgt id='1308'> +1.4428717e-12 </wgt>
<wgt id='1309'> +1.4622828e-12 </wgt>
<wgt id='1310'> +1.4682382e-12 </wgt>
<wgt id='1311'> +1.4388137e-12 </wgt>
<wgt id='1312'> +1.4624135e-12 </wgt>
<wgt id='1313'> +1.4464575e-12 </wgt>
<wgt id='1314'> +1.4345324e-12 </wgt>
<wgt id='1315'> +1.4724844e-12 </wgt>
<wgt id='1316'> +1.4530789e-12 </wgt>
<wgt id='1317'> +1.4571854e-12 </wgt>
<wgt id='1318'> +1.4626517e-12 </wgt>
<wgt id='1319'> +1.4413620e-12 </wgt>
<wgt id='1320'> +1.4844891e-12 </wgt>
<wgt id='1321'> +1.4280561e-12 </wgt>
<wgt id='1322'> +1.4533070e-12 </wgt>
<wgt id='1323'> +1.4532036e-12 </wgt>
<wgt id='1324'> +1.4556148e-12 </wgt>
<wgt id='1325'> +1.4550766e-12 </wgt>
<wgt id='1326'> +1.4520355e-12 </wgt>
<wgt id='1327'> +1.4548613e-12 </wgt>
<wgt id='1328'> +1.4494555e-12 </wgt>
<wgt id='1329'> +1.4574081e-12 </wgt>
<wgt id='1330'> +1.4436453e-12 </wgt>
<wgt id='1331'> +1.4675360e-12 </wgt>
<wgt id='1332'> +1.4631138e-12 </wgt>
<wgt id='1333'> +1.4582134e-12 </wgt>
<wgt id='1334'> +1.4495213e-12 </wgt>
<wgt id='1335'> +1.4667172e-12 </wgt>
<wgt id='1336'> +1.4572328e-12 </wgt>
<wgt id='1337'> +1.4635019e-12 </wgt>
<wgt id='1338'> +1.4533008e-12 </wgt>
<wgt id='1339'> +1.4523077e-12 </wgt>
<wgt id='1340'> +1.4308842e-12 </wgt>
<wgt id='1341'> +1.4348188e-12 </wgt>
<wgt id='1342'> +1.4266858e-12 </wgt>
<wgt id='1343'> +1.4329589e-12 </wgt>
<wgt id='1344'> +1.4295039e-12 </wgt>
<wgt id='1345'> +1.4089495e-12 </wgt>
<wgt id='1346'> +1.4512002e-12 </wgt>
<wgt id='1347'> +1.4366793e-12 </wgt>
<wgt id='1348'> +1.4242990e-12 </wgt>
<wgt id='1349'> +1.4432790e-12 </wgt>
<wgt id='1350'> +1.4188126e-12 </wgt>
<wgt id='1351'> +1.4329193e-12 </wgt>
<wgt id='1352'> +1.4264278e-12 </wgt>
<wgt id='1353'> +1.4341790e-12 </wgt>
<wgt id='1354'> +1.4249349e-12 </wgt>
<wgt id='1355'> +1.4279715e-12 </wgt>
<wgt id='1356'> +1.4324888e-12 </wgt>
<wgt id='1357'> +1.4261693e-12 </wgt>
<wgt id='1358'> +1.4364148e-12 </wgt>
<wgt id='1359'> +1.4214237e-12 </wgt>
<wgt id='1360'> +1.4391344e-12 </wgt>
<wgt id='1361'> +1.4434249e-12 </wgt>
<wgt id='1362'> +1.4145108e-12 </wgt>
<wgt id='1363'> +1.4450017e-12 </wgt>
<wgt id='1364'> +1.4228085e-12 </wgt>
<wgt id='1365'> +1.4387974e-12 </wgt>
<wgt id='1366'> +1.4162596e-12 </wgt>
<wgt id='1367'> +1.4306699e-12 </wgt>
<wgt id='1368'> +1.4325190e-12 </wgt>
<wgt id='1369'> +1.4369011e-12 </wgt>
<wgt id='1370'> +1.4223013e-12 </wgt>
<wgt id='1371'> +1.4549228e-12 </wgt>
<wgt id='1372'> +1.4015911e-12 </wgt>
<wgt id='1373'> +1.4247655e-12 </wgt>
<wgt id='1374'> +1.4349611e-12 </wgt>
<wgt id='1375'> +1.4323157e-12 </wgt>
<wgt id='1376'> +1.4323630e-12 </wgt>
<wgt id='1377'> +1.4312145e-12 </wgt>
<wgt id='1378'> +1.4325972e-12 </wgt>
<wgt id='1379'> +1.4267409e-12 </wgt>
<wgt id='1380'> +1.4346930e-12 </wgt>
<wgt id='1381'> +1.4207458e-12 </wgt>
<wgt id='1382'> +1.4436693e-12 </wgt>
<wgt id='1383'> +1.4420307e-12 </wgt>
<wgt id='1384'> +1.4350313e-12 </wgt>
<wgt id='1385'> +1.4261562e-12 </wgt>
<wgt id='1386'> +1.4435642e-12 </wgt>
<wgt id='1387'> +1.4330427e-12 </wgt>
<wgt id='1388'> +1.4404864e-12 </wgt>
<wgt id='1389'> +1.4291663e-12 </wgt>
<wgt id='1390'> +1.4297856e-12 </wgt>
<wgt id='1391'> +1.4052163e-12 </wgt>
<wgt id='1392'> +1.3713939e-12 </wgt>
<wgt id='1393'> +1.3841518e-12 </wgt>
<wgt id='1394'> +1.3952207e-12 </wgt>
<wgt id='1395'> +1.4181438e-12 </wgt>
<wgt id='1396'> +1.4064325e-12 </wgt>
<wgt id='1397'> +1.3698414e-12 </wgt>
<wgt id='1398'> +1.3760311e-12 </wgt>
<wgt id='1399'> +1.3826878e-12 </wgt>
<wgt id='1400'> +1.3899742e-12 </wgt>
<wgt id='1401'> +1.3981749e-12 </wgt>
<wgt id='1402'> +1.4148502e-12 </wgt>
<wgt id='1403'> +1.4235865e-12 </wgt>
<wgt id='1404'> +1.4324357e-12 </wgt>
<wgt id='1405'> +1.4064325e-12 </wgt>
<wgt id='1406'> +1.4030250e-12 </wgt>
<wgt id='1407'> +1.4048059e-12 </wgt>
<wgt id='1408'> +1.4078578e-12 </wgt>
<wgt id='1409'> +1.4091412e-12 </wgt>
<wgt id='1410'> +1.3218280e-12 </wgt>
<wgt id='1411'> +1.3301604e-12 </wgt>
<wgt id='1412'> +1.3110956e-12 </wgt>
<wgt id='1413'> +1.3094035e-12 </wgt>
<wgt id='1414'> +1.3342026e-12 </wgt>
<wgt id='1415'> +1.3185815e-12 </wgt>
<wgt id='1416'> +1.3231249e-12 </wgt>
<wgt id='1417'> +1.3161714e-12 </wgt>
<wgt id='1418'> +1.3274544e-12 </wgt>
<wgt id='1419'> +1.3269446e-12 </wgt>
<wgt id='1420'> +1.3168644e-12 </wgt>
<wgt id='1421'> +1.3053755e-12 </wgt>
<wgt id='1422'> +1.3288007e-12 </wgt>
<wgt id='1423'> +1.3248149e-12 </wgt>
<wgt id='1424'> +1.3181785e-12 </wgt>
<wgt id='1425'> +1.3193949e-12 </wgt>
<wgt id='1426'> +1.3242842e-12 </wgt>
<wgt id='1427'> +1.3022719e-12 </wgt>
<wgt id='1428'> +1.3323899e-12 </wgt>
<wgt id='1429'> +1.3205669e-12 </wgt>
<wgt id='1430'> +1.3238105e-12 </wgt>
<wgt id='1431'> +1.3112280e-12 </wgt>
<wgt id='1432'> +1.3290164e-12 </wgt>
<wgt id='1433'> +1.2973324e-12 </wgt>
<wgt id='1434'> +1.3424900e-12 </wgt>
<wgt id='1435'> +1.3162354e-12 </wgt>
<wgt id='1436'> +1.3370394e-12 </wgt>
<wgt id='1437'> +1.3246525e-12 </wgt>
<wgt id='1438'> +1.3259636e-12 </wgt>
<wgt id='1439'> +1.3144550e-12 </wgt>
<wgt id='1440'> +1.3334830e-12 </wgt>
<wgt id='1441'> +1.3324000e-12 </wgt>
<wgt id='1442'> +1.3000716e-12 </wgt>
<wgt id='1443'> +1.3195330e-12 </wgt>
<wgt id='1444'> +1.3276310e-12 </wgt>
<wgt id='1445'> +1.3286572e-12 </wgt>
<wgt id='1446'> +1.3205359e-12 </wgt>
<wgt id='1447'> +1.3223677e-12 </wgt>
<wgt id='1448'> +1.3170374e-12 </wgt>
<wgt id='1449'> +1.3180449e-12 </wgt>
<wgt id='1450'> +1.3235144e-12 </wgt>
<wgt id='1451'> +1.3324231e-12 </wgt>
<wgt id='1452'> +1.3104028e-12 </wgt>
<wgt id='1453'> +1.3214950e-12 </wgt>
<wgt id='1454'> +1.3197343e-12 </wgt>
<wgt id='1455'> +1.3310970e-12 </wgt>
<wgt id='1456'> +1.3362052e-12 </wgt>
<wgt id='1457'> +1.3343111e-12 </wgt>
<wgt id='1458'> +1.3189033e-12 </wgt>
<wgt id='1459'> +1.3294179e-12 </wgt>
<wgt id='1460'> +1.3356925e-12 </wgt>
<wgt id='1461'> +1.3218280e-12 </wgt>
<wgt id='1462'> +1.3163165e-12 </wgt>
<wgt id='1463'> +1.3259156e-12 </wgt>
<wgt id='1464'> +1.3202028e-12 </wgt>
<wgt id='1465'> +1.2827743e-12 </wgt>
<wgt id='1466'> +1.2895071e-12 </wgt>
<wgt id='1467'> +1.2964257e-12 </wgt>
<wgt id='1468'> +1.3061706e-12 </wgt>
<wgt id='1469'> +1.3126561e-12 </wgt>
<wgt id='1470'> +1.3280705e-12 </wgt>
<wgt id='1471'> +1.3350226e-12 </wgt>
<wgt id='1472'> +1.3426418e-12 </wgt>
<wgt id='1473'> +1.3202028e-12 </wgt>
<wgt id='1474'> +1.3177624e-12 </wgt>
<wgt id='1475'> +1.3197723e-12 </wgt>
<wgt id='1476'> +1.3209612e-12 </wgt>
<wgt id='1477'> +1.3216137e-12 </wgt>
<wgt id='1478'> +1.3859542e-12 </wgt>
<wgt id='1479'> +1.3858576e-12 </wgt>
<wgt id='1480'> +1.3842660e-12 </wgt>
<wgt id='1481'> +1.4141343e-12 </wgt>
<wgt id='1482'> +1.3888606e-12 </wgt>
<wgt id='1483'> +1.3634387e-12 </wgt>
<wgt id='1484'> +1.3757846e-12 </wgt>
<wgt id='1485'> +1.3955170e-12 </wgt>
<wgt id='1486'> +1.3852006e-12 </wgt>
<wgt id='1487'> +1.3924451e-12 </wgt>
<wgt id='1488'> +1.3833855e-12 </wgt>
<wgt id='1489'> +1.3883733e-12 </wgt>
<wgt id='1490'> +1.3794233e-12 </wgt>
<wgt id='1491'> +1.3960371e-12 </wgt>
<wgt id='1492'> +1.3859450e-12 </wgt>
<wgt id='1493'> +1.3608073e-12 </wgt>
<wgt id='1494'> +1.3746870e-12 </wgt>
<wgt id='1495'> +1.3828385e-12 </wgt>
<wgt id='1496'> +1.3965790e-12 </wgt>
<wgt id='1497'> +1.3843772e-12 </wgt>
<wgt id='1498'> +1.3891777e-12 </wgt>
<wgt id='1499'> +1.3876563e-12 </wgt>
<wgt id='1500'> +1.3867350e-12 </wgt>
<wgt id='1501'> +1.3890449e-12 </wgt>
<wgt id='1502'> +1.3837424e-12 </wgt>
<wgt id='1503'> +1.3895075e-12 </wgt>
<wgt id='1504'> +1.3811372e-12 </wgt>
<wgt id='1505'> +1.4064597e-12 </wgt>
<wgt id='1506'> +1.3861196e-12 </wgt>
<wgt id='1507'> +1.3855106e-12 </wgt>
<wgt id='1508'> +1.3885985e-12 </wgt>
<wgt id='1509'> +1.3233351e-12 </wgt>
<wgt id='1510'> +1.3292366e-12 </wgt>
<wgt id='1511'> +1.2996996e-12 </wgt>
<wgt id='1512'> +1.3095376e-12 </wgt>
<wgt id='1513'> +1.3213104e-12 </wgt>
<wgt id='1514'> +1.3277972e-12 </wgt>
<wgt id='1515'> +1.3263159e-12 </wgt>
<wgt id='1516'> +1.3249831e-12 </wgt>
<wgt id='1517'> +1.3217092e-12 </wgt>
<wgt id='1518'> +1.3220830e-12 </wgt>
<wgt id='1519'> +1.3242793e-12 </wgt>
<wgt id='1520'> +1.3205446e-12 </wgt>
<wgt id='1521'> +1.3213044e-12 </wgt>
<wgt id='1522'> +1.3235287e-12 </wgt>
<wgt id='1523'> +1.3227469e-12 </wgt>
<wgt id='1524'> +1.3253484e-12 </wgt>
<wgt id='1525'> +1.3243164e-12 </wgt>
<wgt id='1526'> +1.3229879e-12 </wgt>
<wgt id='1527'> +1.3227319e-12 </wgt>
<wgt id='1528'> +1.3203839e-12 </wgt>
<wgt id='1529'> +1.3216055e-12 </wgt>
<wgt id='1530'> +1.3234421e-12 </wgt>
<wgt id='1531'> +1.3253285e-12 </wgt>
<wgt id='1532'> +1.3187006e-12 </wgt>
<wgt id='1533'> +1.3312806e-12 </wgt>
<wgt id='1534'> +1.3231959e-12 </wgt>
<wgt id='1535'> +1.3207343e-12 </wgt>
<wgt id='1536'> +1.3297655e-12 </wgt>
<wgt id='1537'> +1.3278166e-12 </wgt>
<wgt id='1538'> +1.3053981e-12 </wgt>
<wgt id='1539'> +1.3193167e-12 </wgt>
<wgt id='1540'> +1.3213422e-12 </wgt>
<wgt id='1541'> +1.3201061e-12 </wgt>
<wgt id='1542'> +1.3203368e-12 </wgt>
<wgt id='1543'> +1.3226610e-12 </wgt>
<wgt id='1544'> +1.3251152e-12 </wgt>
<wgt id='1545'> +1.3230501e-12 </wgt>
<wgt id='1546'> +1.3263054e-12 </wgt>
<wgt id='1547'> +1.3224005e-12 </wgt>
<wgt id='1548'> +1.3246452e-12 </wgt>
<wgt id='1549'> +1.3232556e-12 </wgt>
<wgt id='1550'> +1.3224950e-12 </wgt>
<wgt id='1551'> +1.3229699e-12 </wgt>
<wgt id='1552'> +1.3227857e-12 </wgt>
<wgt id='1553'> +1.3267855e-12 </wgt>
<wgt id='1554'> +1.3197319e-12 </wgt>
<wgt id='1555'> +1.3249653e-12 </wgt>
<wgt id='1556'> +1.3277726e-12 </wgt>
<wgt id='1557'> +1.3209768e-12 </wgt>
<wgt id='1558'> +1.3284001e-12 </wgt>
<wgt id='1559'> +1.3259725e-12 </wgt>
<wgt id='1560'> +1.3261335e-12 </wgt>
<wgt id='1561'> +1.3216707e-12 </wgt>
<wgt id='1562'> +1.3215489e-12 </wgt>
<wgt id='1563'> +1.3238822e-12 </wgt>
<wgt id='1564'> +1.3198764e-12 </wgt>
<wgt id='1565'> +1.3249072e-12 </wgt>
<wgt id='1566'> +1.3211258e-12 </wgt>
<wgt id='1567'> +1.3234599e-12 </wgt>
<wgt id='1568'> +1.3234325e-12 </wgt>
<wgt id='1569'> +1.3229891e-12 </wgt>
<wgt id='1570'> +1.3228521e-12 </wgt>
<wgt id='1571'> +1.3239369e-12 </wgt>
<wgt id='1572'> +1.3247712e-12 </wgt>
<wgt id='1573'> +1.3222352e-12 </wgt>
<wgt id='1574'> +1.3230851e-12 </wgt>
<wgt id='1575'> +1.3244839e-12 </wgt>
<wgt id='1576'> +1.3238687e-12 </wgt>
<wgt id='1577'> +1.3247429e-12 </wgt>
<wgt id='1578'> +1.3223643e-12 </wgt>
<wgt id='1579'> +1.3221872e-12 </wgt>
<wgt id='1580'> +1.3210738e-12 </wgt>
<wgt id='1581'> +1.3256748e-12 </wgt>
<wgt id='1582'> +1.3216385e-12 </wgt>
<wgt id='1583'> +1.3248049e-12 </wgt>
<wgt id='1584'> +1.3230124e-12 </wgt>
<wgt id='1585'> +1.3228787e-12 </wgt>
<wgt id='1586'> +1.3245979e-12 </wgt>
<wgt id='1587'> +1.3235067e-12 </wgt>
<wgt id='1588'> +1.3257931e-12 </wgt>
<wgt id='1589'> +1.3236648e-12 </wgt>
<wgt id='1590'> +1.3224108e-12 </wgt>
<wgt id='1591'> +1.3227265e-12 </wgt>
<wgt id='1592'> +1.3232405e-12 </wgt>
<wgt id='1593'> +1.3220323e-12 </wgt>
<wgt id='1594'> +1.3237080e-12 </wgt>
<wgt id='1595'> +1.3238923e-12 </wgt>
<wgt id='1596'> +1.3220335e-12 </wgt>
<wgt id='1597'> +1.3233184e-12 </wgt>
<wgt id='1598'> +1.3235026e-12 </wgt>
<wgt id='1599'> +1.3227882e-12 </wgt>
<wgt id='1600'> +1.3255869e-12 </wgt>
<wgt id='1601'> +1.3231474e-12 </wgt>
<wgt id='1602'> +1.3227320e-12 </wgt>
<wgt id='1603'> +1.3227571e-12 </wgt>
<wgt id='1604'> +1.3222843e-12 </wgt>
<wgt id='1605'> +1.3221824e-12 </wgt>
<wgt id='1606'> +1.3247408e-12 </wgt>
<wgt id='1607'> +1.3230409e-12 </wgt>
<wgt id='1608'> +1.3226808e-12 </wgt>
<wgt id='1609'> +1.3254639e-12 </wgt>
<wgt id='1610'> +1.3125333e-12 </wgt>
<wgt id='1611'> +1.3330697e-12 </wgt>
<wgt id='1612'> +1.5579267e-12 </wgt>
<wgt id='1613'> +1.5307845e-12 </wgt>
<wgt id='1614'> +1.5070525e-12 </wgt>
<wgt id='1615'> +1.5094670e-12 </wgt>
<wgt id='1616'> +1.4889725e-12 </wgt>
<wgt id='1617'> +1.5180706e-12 </wgt>
<wgt id='1618'> +1.5703085e-12 </wgt>
<wgt id='1619'> +1.5029180e-12 </wgt>
<wgt id='1620'> +1.5430492e-12 </wgt>
<wgt id='1621'> +1.5703697e-12 </wgt>
<wgt id='1622'> +1.5530639e-12 </wgt>
<wgt id='1623'> +1.5679586e-12 </wgt>
<wgt id='1624'> +1.6234942e-12 </wgt>
<wgt id='1625'> +1.4876485e-12 </wgt>
<wgt id='1626'> +1.5254283e-12 </wgt>
<wgt id='1627'> +1.5827643e-12 </wgt>
<wgt id='1628'> +1.4755711e-12 </wgt>
<wgt id='1629'> +1.5740450e-12 </wgt>
<wgt id='1630'> +1.5079042e-12 </wgt>
<wgt id='1631'> +1.5523112e-12 </wgt>
<wgt id='1632'> +1.4499487e-12 </wgt>
<wgt id='1633'> +1.5207554e-12 </wgt>
<wgt id='1634'> +1.5186688e-12 </wgt>
<wgt id='1635'> +1.5847410e-12 </wgt>
<wgt id='1636'> +1.5524389e-12 </wgt>
<wgt id='1637'> +1.5881147e-12 </wgt>
<wgt id='1638'> +1.5724854e-12 </wgt>
<wgt id='1639'> +1.5567511e-12 </wgt>
<wgt id='1640'> +1.5091895e-12 </wgt>
<wgt id='1641'> +1.5772380e-12 </wgt>
<wgt id='1642'> +1.4681441e-12 </wgt>
<wgt id='1643'> +1.5258387e-12 </wgt>
<wgt id='1644'> +1.6100327e-12 </wgt>
<wgt id='1645'> +1.5142349e-12 </wgt>
<wgt id='1646'> +1.5717281e-12 </wgt>
<wgt id='1647'> +1.6051267e-12 </wgt>
<wgt id='1648'> +1.5682922e-12 </wgt>
<wgt id='1649'> +1.6705529e-12 </wgt>
<wgt id='1650'> +1.5303163e-12 </wgt>
<wgt id='1651'> +1.6107312e-12 </wgt>
<wgt id='1652'> +1.5350328e-12 </wgt>
<wgt id='1653'> +1.5805236e-12 </wgt>
<wgt id='1654'> +1.6241738e-12 </wgt>
<wgt id='1655'> +1.6140456e-12 </wgt>
<wgt id='1656'> +1.5201241e-12 </wgt>
<wgt id='1657'> +1.5956288e-12 </wgt>
<wgt id='1658'> +1.5340835e-12 </wgt>
<wgt id='1659'> +1.6234942e-12 </wgt>
<wgt id='1660'> +1.5547863e-12 </wgt>
<wgt id='1661'> +1.5938260e-12 </wgt>
<wgt id='1662'> +1.6074550e-12 </wgt>
<wgt id='1663'> +1.5561138e-12 </wgt>
<wgt id='1664'> +1.5541048e-12 </wgt>
<wgt id='1665'> +1.4986932e-12 </wgt>
<wgt id='1666'> +1.5733044e-12 </wgt>
<wgt id='1667'> +1.6161934e-12 </wgt>
<wgt id='1668'> +1.5984453e-12 </wgt>
<wgt id='1669'> +1.6073041e-12 </wgt>
<wgt id='1670'> +1.5185458e-12 </wgt>
<wgt id='1671'> +1.5014301e-12 </wgt>
<wgt id='1672'> +1.5645257e-12 </wgt>
<wgt id='1673'> +1.6075565e-12 </wgt>
<wgt id='1674'> +1.5727473e-12 </wgt>
<wgt id='1675'> +1.5441658e-12 </wgt>
<wgt id='1676'> +1.5496985e-12 </wgt>
<wgt id='1677'> +1.4959190e-12 </wgt>
<wgt id='1678'> +1.5497341e-12 </wgt>
<wgt id='1679'> +1.6098367e-12 </wgt>
<wgt id='1680'> +1.6233961e-12 </wgt>
<wgt id='1681'> +1.5744419e-12 </wgt>
<wgt id='1682'> +1.5320921e-12 </wgt>
<wgt id='1683'> +1.6096403e-12 </wgt>
<wgt id='1684'> +1.5976153e-12 </wgt>
<wgt id='1685'> +1.5828591e-12 </wgt>
<wgt id='1686'> +1.5293302e-12 </wgt>
<wgt id='1687'> +1.5481149e-12 </wgt>
<wgt id='1688'> +1.4880723e-12 </wgt>
<wgt id='1689'> +1.6125284e-12 </wgt>
<wgt id='1690'> +1.5575003e-12 </wgt>
<wgt id='1691'> +1.4730268e-12 </wgt>
<wgt id='1692'> +1.4590404e-12 </wgt>
<wgt id='1693'> +1.5344358e-12 </wgt>
<wgt id='1694'> +1.5208452e-12 </wgt>
<wgt id='1695'> +1.5198608e-12 </wgt>
<wgt id='1696'> +1.5632785e-12 </wgt>
<wgt id='1697'> +1.5969218e-12 </wgt>
<wgt id='1698'> +1.5618237e-12 </wgt>
<wgt id='1699'> +1.6148945e-12 </wgt>
<wgt id='1700'> +1.5264487e-12 </wgt>
<wgt id='1701'> +1.6364948e-12 </wgt>
<wgt id='1702'> +1.5460905e-12 </wgt>
<wgt id='1703'> +1.4897635e-12 </wgt>
<wgt id='1704'> +1.5178980e-12 </wgt>
<wgt id='1705'> +1.4697822e-12 </wgt>
<wgt id='1706'> +1.6392337e-12 </wgt>
<wgt id='1707'> +1.5764520e-12 </wgt>
<wgt id='1708'> +1.6818932e-12 </wgt>
<wgt id='1709'> +1.6277417e-12 </wgt>
<wgt id='1710'> +1.5686691e-12 </wgt>
<wgt id='1711'> +1.5564348e-12 </wgt>
<wgt id='1712'> +1.6550254e-12 </wgt>
<wgt id='1713'> +1.3534194e-12 </wgt>
<wgt id='1714'> +1.3523808e-12 </wgt>
<wgt id='1715'> +1.3132452e-12 </wgt>
<wgt id='1716'> +1.3550451e-12 </wgt>
<wgt id='1717'> +1.3966875e-12 </wgt>
<wgt id='1718'> +1.3345855e-12 </wgt>
<wgt id='1719'> +1.3678289e-12 </wgt>
<wgt id='1720'> +1.3200419e-12 </wgt>
<wgt id='1721'> +1.3745328e-12 </wgt>
<wgt id='1722'> +1.3460883e-12 </wgt>
<wgt id='1723'> +1.4305835e-12 </wgt>
<wgt id='1724'> +1.3589249e-12 </wgt>
<wgt id='1725'> +1.3315596e-12 </wgt>
<wgt id='1726'> +1.3160442e-12 </wgt>
<wgt id='1727'> +1.3945627e-12 </wgt>
<wgt id='1728'> +1.3378875e-12 </wgt>
<wgt id='1729'> +1.2927166e-12 </wgt>
<wgt id='1730'> +1.2975797e-12 </wgt>
<wgt id='1731'> +1.2237683e-12 </wgt>
<wgt id='1732'> +1.3690830e-12 </wgt>
<wgt id='1733'> +1.3576806e-12 </wgt>
<wgt id='1734'> +1.4486780e-12 </wgt>
<wgt id='1735'> +1.3696241e-12 </wgt>
<wgt id='1736'> +1.3511404e-12 </wgt>
<wgt id='1737'> +1.3925391e-12 </wgt>
<wgt id='1738'> +1.3221063e-12 </wgt>
<wgt id='1739'> +1.3494219e-12 </wgt>
<wgt id='1740'> +1.2499751e-12 </wgt>
<wgt id='1741'> +1.3910274e-12 </wgt>
<wgt id='1742'> +1.3559957e-12 </wgt>
<wgt id='1743'> +1.3175305e-12 </wgt>
<wgt id='1744'> +1.3958885e-12 </wgt>
<wgt id='1745'> +1.4114268e-12 </wgt>
<wgt id='1746'> +1.3800561e-12 </wgt>
<wgt id='1747'> +1.3955027e-12 </wgt>
<wgt id='1748'> +1.3619933e-12 </wgt>
<wgt id='1749'> +1.3296098e-12 </wgt>
<wgt id='1750'> +1.3053601e-12 </wgt>
<wgt id='1751'> +1.3567998e-12 </wgt>
<wgt id='1752'> +1.3356707e-12 </wgt>
<wgt id='1753'> +1.3738685e-12 </wgt>
<wgt id='1754'> +1.3902260e-12 </wgt>
<wgt id='1755'> +1.3606916e-12 </wgt>
<wgt id='1756'> +1.3801966e-12 </wgt>
<wgt id='1757'> +1.3908571e-12 </wgt>
<wgt id='1758'> +1.4322481e-12 </wgt>
<wgt id='1759'> +1.3572228e-12 </wgt>
<wgt id='1760'> +1.3737065e-12 </wgt>
<wgt id='1761'> +1.3497780e-12 </wgt>
<wgt id='1762'> +1.3365895e-12 </wgt>
<wgt id='1763'> +1.3821042e-12 </wgt>
<wgt id='1764'> +1.4164931e-12 </wgt>
<wgt id='1765'> +1.3476825e-12 </wgt>
<wgt id='1766'> +1.3534642e-12 </wgt>
<wgt id='1767'> +1.3475571e-12 </wgt>
<wgt id='1768'> +1.3746965e-12 </wgt>
<wgt id='1769'> +1.3192023e-12 </wgt>
<wgt id='1770'> +1.2986050e-12 </wgt>
<wgt id='1771'> +1.4087755e-12 </wgt>
<wgt id='1772'> +1.3283826e-12 </wgt>
<wgt id='1773'> +1.3875419e-12 </wgt>
<wgt id='1774'> +1.3133661e-12 </wgt>
<wgt id='1775'> +1.3496179e-12 </wgt>
<wgt id='1776'> +1.3359760e-12 </wgt>
<wgt id='1777'> +1.2555729e-12 </wgt>
<wgt id='1778'> +1.3849080e-12 </wgt>
<wgt id='1779'> +1.3254911e-12 </wgt>
<wgt id='1780'> +1.4579520e-12 </wgt>
<wgt id='1781'> +1.3663812e-12 </wgt>
<wgt id='1782'> +1.3452532e-12 </wgt>
<wgt id='1783'> +1.4013315e-12 </wgt>
<wgt id='1784'> +1.3410205e-12 </wgt>
<wgt id='1785'> +1.3473495e-12 </wgt>
<wgt id='1786'> +1.3715587e-12 </wgt>
<wgt id='1787'> +1.4268520e-12 </wgt>
<wgt id='1788'> +1.3268377e-12 </wgt>
<wgt id='1789'> +1.4727936e-12 </wgt>
<wgt id='1790'> +1.3343862e-12 </wgt>
<wgt id='1791'> +1.3357598e-12 </wgt>
<wgt id='1792'> +1.3425398e-12 </wgt>
<wgt id='1793'> +1.3453868e-12 </wgt>
<wgt id='1794'> +1.3985589e-12 </wgt>
<wgt id='1795'> +1.3660201e-12 </wgt>
<wgt id='1796'> +1.3648664e-12 </wgt>
<wgt id='1797'> +1.3555945e-12 </wgt>
<wgt id='1798'> +1.3593368e-12 </wgt>
<wgt id='1799'> +1.3326196e-12 </wgt>
<wgt id='1800'> +1.3938471e-12 </wgt>
<wgt id='1801'> +1.3320738e-12 </wgt>
<wgt id='1802'> +1.2893553e-12 </wgt>
<wgt id='1803'> +1.3594137e-12 </wgt>
<wgt id='1804'> +1.3969785e-12 </wgt>
<wgt id='1805'> +1.3473222e-12 </wgt>
<wgt id='1806'> +1.3216115e-12 </wgt>
<wgt id='1807'> +1.3383359e-12 </wgt>
<wgt id='1808'> +1.2915323e-12 </wgt>
<wgt id='1809'> +1.3347965e-12 </wgt>
<wgt id='1810'> +1.2918080e-12 </wgt>
<wgt id='1811'> +1.3379025e-12 </wgt>
<wgt id='1812'> +1.3179148e-12 </wgt>
<wgt id='1813'> +1.2360841e-12 </wgt>
<wgt id='1814'> +1.7701470e-12 </wgt>
<wgt id='1815'> +2.1983000e-12 </wgt>
<wgt id='1816'> +1.3534194e-12 </wgt>
<wgt id='1817'> +1.3523808e-12 </wgt>
<wgt id='1818'> +1.3132452e-12 </wgt>
<wgt id='1819'> +1.3550451e-12 </wgt>
<wgt id='1820'> +1.3966875e-12 </wgt>
<wgt id='1821'> +1.3345855e-12 </wgt>
<wgt id='1822'> +1.3678289e-12 </wgt>
<wgt id='1823'> +1.3200419e-12 </wgt>
<wgt id='1824'> +1.3745328e-12 </wgt>
<wgt id='1825'> +1.3460883e-12 </wgt>
<wgt id='1826'> +1.4305835e-12 </wgt>
<wgt id='1827'> +1.3589249e-12 </wgt>
<wgt id='1828'> +1.3315596e-12 </wgt>
<wgt id='1829'> +1.3160442e-12 </wgt>
<wgt id='1830'> +1.3945627e-12 </wgt>
<wgt id='1831'> +1.3378875e-12 </wgt>
<wgt id='1832'> +1.2927166e-12 </wgt>
<wgt id='1833'> +1.2975797e-12 </wgt>
<wgt id='1834'> +1.2237683e-12 </wgt>
<wgt id='1835'> +1.3690830e-12 </wgt>
<wgt id='1836'> +1.3576806e-12 </wgt>
<wgt id='1837'> +1.4486780e-12 </wgt>
<wgt id='1838'> +1.3696241e-12 </wgt>
<wgt id='1839'> +1.3511404e-12 </wgt>
<wgt id='1840'> +1.3925391e-12 </wgt>
<wgt id='1841'> +1.3221063e-12 </wgt>
<wgt id='1842'> +1.3494219e-12 </wgt>
<wgt id='1843'> +1.2499751e-12 </wgt>
<wgt id='1844'> +1.3910274e-12 </wgt>
<wgt id='1845'> +1.3559957e-12 </wgt>
<wgt id='1846'> +1.3175305e-12 </wgt>
<wgt id='1847'> +1.3958885e-12 </wgt>
<wgt id='1848'> +1.4114268e-12 </wgt>
<wgt id='1849'> +1.3800561e-12 </wgt>
<wgt id='1850'> +1.3955027e-12 </wgt>
<wgt id='1851'> +1.3619933e-12 </wgt>
<wgt id='1852'> +1.3296098e-12 </wgt>
<wgt id='1853'> +1.3053601e-12 </wgt>
<wgt id='1854'> +1.3567998e-12 </wgt>
<wgt id='1855'> +1.3356707e-12 </wgt>
<wgt id='1856'> +1.3738685e-12 </wgt>
<wgt id='1857'> +1.3902260e-12 </wgt>
<wgt id='1858'> +1.3606916e-12 </wgt>
<wgt id='1859'> +1.3801966e-12 </wgt>
<wgt id='1860'> +1.3908571e-12 </wgt>
<wgt id='1861'> +1.4322481e-12 </wgt>
<wgt id='1862'> +1.3572228e-12 </wgt>
<wgt id='1863'> +1.3737065e-12 </wgt>
<wgt id='1864'> +1.3497780e-12 </wgt>
<wgt id='1865'> +1.3365895e-12 </wgt>
<wgt id='1866'> +1.3821042e-12 </wgt>
<wgt id='1867'> +1.4164931e-12 </wgt>
<wgt id='1868'> +1.3476825e-12 </wgt>
<wgt id='1869'> +1.3534642e-12 </wgt>
<wgt id='1870'> +1.3475571e-12 </wgt>
<wgt id='1871'> +1.3746965e-12 </wgt>
<wgt id='1872'> +1.3192023e-12 </wgt>
<wgt id='1873'> +1.2986050e-12 </wgt>
<wgt id='1874'> +1.4087755e-12 </wgt>
<wgt id='1875'> +1.3283826e-12 </wgt>
<wgt id='1876'> +1.3875419e-12 </wgt>
<wgt id='1877'> +1.3133661e-12 </wgt>
<wgt id='1878'> +1.3496179e-12 </wgt>
<wgt id='1879'> +1.3359760e-12 </wgt>
<wgt id='1880'> +1.2555729e-12 </wgt>
<wgt id='1881'> +1.3849080e-12 </wgt>
<wgt id='1882'> +1.3254911e-12 </wgt>
<wgt id='1883'> +1.4579520e-12 </wgt>
<wgt id='1884'> +1.3663812e-12 </wgt>
<wgt id='1885'> +1.3452532e-12 </wgt>
<wgt id='1886'> +1.4013315e-12 </wgt>
<wgt id='1887'> +1.3410205e-12 </wgt>
<wgt id='1888'> +1.3473495e-12 </wgt>
<wgt id='1889'> +1.3715587e-12 </wgt>
<wgt id='1890'> +1.4268520e-12 </wgt>
<wgt id='1891'> +1.3268377e-12 </wgt>
<wgt id='1892'> +1.4727936e-12 </wgt>
<wgt id='1893'> +1.3343862e-12 </wgt>
<wgt id='1894'> +1.3357598e-12 </wgt>
<wgt id='1895'> +1.3425398e-12 </wgt>
<wgt id='1896'> +1.3453868e-12 </wgt>
<wgt id='1897'> +1.3985589e-12 </wgt>
<wgt id='1898'> +1.3660201e-12 </wgt>
<wgt id='1899'> +1.3648664e-12 </wgt>
<wgt id='1900'> +1.3555945e-12 </wgt>
<wgt id='1901'> +1.3593368e-12 </wgt>
<wgt id='1902'> +1.3326196e-12 </wgt>
<wgt id='1903'> +1.3938471e-12 </wgt>
<wgt id='1904'> +1.3320738e-12 </wgt>
<wgt id='1905'> +1.2893553e-12 </wgt>
<wgt id='1906'> +1.3594137e-12 </wgt>
<wgt id='1907'> +1.3969785e-12 </wgt>
<wgt id='1908'> +1.3473222e-12 </wgt>
<wgt id='1909'> +1.3216115e-12 </wgt>
<wgt id='1910'> +1.3383359e-12 </wgt>
<wgt id='1911'> +1.2915323e-12 </wgt>
<wgt id='1912'> +1.3347965e-12 </wgt>
<wgt id='1913'> +1.2918080e-12 </wgt>
<wgt id='1914'> +1.3379025e-12 </wgt>
<wgt id='1915'> +1.3179148e-12 </wgt>
<wgt id='1916'> +1.2360841e-12 </wgt>
<wgt id='1917'> +1.3515442e-12 </wgt>
<wgt id='1918'> +1.3695795e-12 </wgt>
<wgt id='1919'> +1.3059897e-12 </wgt>
</rwgt>
</event>
<event>
 9      1 +1.5538000e-12 5.86858600e+01 7.81860800e-03 1.27354600e-01
       -3 -1    0    0    0  501 -0.0000000000e+00 +0.0000000000e+00 +3.4046935676e+01 3.4046935676e+01 0.0000000000e+00 0.0000e+00 -1.0000e+00
       21 -1    0    0  501  502 +0.0000000000e+00 -0.0000000000e+00 -2.5288842351e+01 2.5288842351e+01 0.0000000000e+00 0.0000e+00 -1.0000e+00
     1023  2    1    2    0    0 +2.1396901385e+00 +2.1257492800e+01 +2.2050654698e+01 3.4173276922e+01 1.5004073079e+01 0.0000e+00 0.0000e+00
  1000023  2    3    3    0    0 +5.9758992800e+00 +8.9191688835e+00 +8.2257563308e+00 1.4600884311e+01 5.5008917169e+00 0.0000e+00 0.0000e+00
       -3  1    1    2    0  502 -2.1396901385e+00 -2.1257492800e+01 -1.3292561373e+01 2.5162501106e+01 0.0000000000e+00 0.0000e+00 -1.0000e+00
  1000022  1    4    4    0    0 +5.6746015686e+00 +8.6824146361e+00 +7.8248679386e+00 1.3921709131e+01 5.0000000000e+00 0.0000e+00 -1.0000e+00
      -11  1    4    4    0    0 +3.3614454732e-01 +3.9032872469e-02 +1.9039627543e-01 3.8828819792e-01 5.1100000000e-04 0.0000e+00 1.0000e+00
       11  1    4    4    0    0 -3.4846835950e-02 +1.9772137499e-01 +2.1049211677e-01 2.9088698226e-01 5.1100000000e-04 0.0000e+00 -1.0000e+00
  1000022  1    3    3    0    0 -3.8362091415e+00 +1.2338323917e+01 +1.3824898367e+01 1.9572392611e+01 5.0000000000e+00 0.0000e+00 -1.0000e+00
<mgrwt>
<rscale>  1 0.58685862E+02</rscale>
<asrwt>0</asrwt>
<pdfrwt beam="1">  1       21 0.38905911E-02 0.58685862E+02</pdfrwt>
<pdfrwt beam="2">  1       -3 0.52379901E-02 0.58685862E+02</pdfrwt>
<totfact> 0.53115393E+06</totfact>
</mgrwt>
<rwgt>
<wgt id='1001'> +1.5538000e-12 </wgt>
<wgt id='1002'> +1.5324812e-12 </wgt>
<wgt id='1003'> +1.5343791e-12 </wgt>
<wgt id='1004'> +1.4404654e-12 </wgt>
<wgt id='1005'> +1.5538000e-12 </wgt>
<wgt id='1006'> +1.3817872e-12 </wgt>
<wgt id='1007'> +1.3557617e-12 </wgt>
<wgt id='1008'> +1.3580378e-12 </wgt>
<wgt id='1009'> +1.2517520e-12 </wgt>
<wgt id='1010'> +1.3817872e-12 </wgt>
<wgt id='1011'> +1.7768230e-12 </wgt>
<wgt id='1012'> +1.7645401e-12 </wgt>
<wgt id='1013'> +1.7657013e-12 </wgt>
<wgt id='1014'> +1.6996982e-12 </wgt>
<wgt id='1015'> +1.7768230e-12 </wgt>
<wgt id='1016'> +1.7903861e-12 </wgt>
<wgt id='1017'> +1.7890060e-12 </wgt>
<wgt id='1018'> +1.7892210e-12 </wgt>
<wgt id='1019'> +1.7657013e-12 </wgt>
<wgt id='1020'> +1.7903861e-12 </wgt>
<wgt id='1021'> +1.5921822e-12 </wgt>
<wgt id='1022'> +1.5827051e-12 </wgt>
<wgt id='1023'> +1.5835915e-12 </wgt>
<wgt id='1024'> +1.5343791e-12 </wgt>
<wgt id='1025'> +1.5921822e-12 </wgt>
<wgt id='1026'> +2.0473672e-12 </wgt>
<wgt id='1027'> +2.0599097e-12 </wgt>
<wgt id='1028'> +2.0589631e-12 </wgt>
<wgt id='1029'> +2.0834649e-12 </wgt>
<wgt id='1030'> +2.0473672e-12 </wgt>
<wgt id='1031'> +1.2904515e-12 </wgt>
<wgt id='1032'> +1.2481295e-12 </wgt>
<wgt id='1033'> +1.2517520e-12 </wgt>
<wgt id='1034'> +1.0861831e-12 </wgt>
<wgt id='1035'> +1.2904515e-12 </wgt>
<wgt id='1036'> +1.1475926e-12 </wgt>
<wgt id='1037'> +1.1042003e-12 </wgt>
<wgt id='1038'> +1.1078921e-12 </wgt>
<wgt id='1039'> +9.4388366e-13 </wgt>
<wgt id='1040'> +1.1475926e-12 </wgt>
<wgt id='1041'> +1.4756750e-12 </wgt>
<wgt id='1042'> +1.4371299e-12 </wgt>
<wgt id='1043'> +1.4404654e-12 </wgt>
<wgt id='1044'> +1.2816575e-12 </wgt>
<wgt id='1045'> +1.4756750e-12 </wgt>
<wgt id='1046'> +1.5538000e-12 </wgt>
<wgt id='1047'> +1.3368762e-12 </wgt>
<wgt id='1048'> +1.5721700e-12 </wgt>
<wgt id='1049'> +1.5965121e-12 </wgt>
<wgt id='1050'> +1.5596416e-12 </wgt>
<wgt id='1051'> +1.5450682e-12 </wgt>
<wgt id='1052'> +1.3597172e-12 </wgt>
<wgt id='1053'> +1.5151260e-12 </wgt>
<wgt id='1054'> +1.6694855e-12 </wgt>
<wgt id='1055'> +1.5556736e-12 </wgt>
<wgt id='1056'> +1.5025581e-12 </wgt>
<wgt id='1057'> +1.5412471e-12 </wgt>
<wgt id='1058'> +1.6258070e-12 </wgt>
<wgt id='1059'> +1.6288894e-12 </wgt>
<wgt id='1060'> +1.5474298e-12 </wgt>
<wgt id='1061'> +1.5410914e-12 </wgt>
<wgt id='1062'> +1.5582324e-12 </wgt>
<wgt id='1063'> +1.4162659e-12 </wgt>
<wgt id='1064'> +1.6433320e-12 </wgt>
<wgt id='1065'> +1.5967026e-12 </wgt>
<wgt id='1066'> +1.6875401e-12 </wgt>
<wgt id='1067'> +1.5514801e-12 </wgt>
<wgt id='1068'> +1.5933039e-12 </wgt>
<wgt id='1069'> +1.5042996e-12 </wgt>
<wgt id='1070'> +1.6824801e-12 </wgt>
<wgt id='1071'> +1.6391051e-12 </wgt>
<wgt id='1072'> +1.5358304e-12 </wgt>
<wgt id='1073'> +1.4683626e-12 </wgt>
<wgt id='1074'> +1.5943752e-12 </wgt>
<wgt id='1075'> +1.5433798e-12 </wgt>
<wgt id='1076'> +1.4070914e-12 </wgt>
<wgt id='1077'> +1.4402153e-12 </wgt>
<wgt id='1078'> +1.5805979e-12 </wgt>
<wgt id='1079'> +1.5115450e-12 </wgt>
<wgt id='1080'> +1.6617213e-12 </wgt>
<wgt id='1081'> +1.5388595e-12 </wgt>
<wgt id='1082'> +1.5701869e-12 </wgt>
<wgt id='1083'> +1.6571586e-12 </wgt>
<wgt id='1084'> +1.5695200e-12 </wgt>
<wgt id='1085'> +1.4737322e-12 </wgt>
<wgt id='1086'> +1.5476403e-12 </wgt>
<wgt id='1087'> +1.5599841e-12 </wgt>
<wgt id='1088'> +1.5315745e-12 </wgt>
<wgt id='1089'> +1.5033294e-12 </wgt>
<wgt id='1090'> +1.4286273e-12 </wgt>
<wgt id='1091'> +1.6064870e-12 </wgt>
<wgt id='1092'> +1.5418878e-12 </wgt>
<wgt id='1093'> +1.5898278e-12 </wgt>
<wgt id='1094'> +1.6184336e-12 </wgt>
<wgt id='1095'> +1.4798668e-12 </wgt>
<wgt id='1096'> +1.5058006e-12 </wgt>
<wgt id='1097'> +1.5605834e-12 </wgt>
<wgt id='1098'> +1.5565879e-12 </wgt>
<wgt id='1099'> +1.5311218e-12 </wgt>
<wgt id='1100'> +1.4938350e-12 </wgt>
<wgt id='1101'> +1.6379120e-12 </wgt>
<wgt id='1102'> +1.6057158e-12 </wgt>
<wgt id='1103'> +1.5856828e-12 </wgt>
<wgt id='1104'> +1.6315891e-12 </wgt>
<wgt id='1105'> +1.4974902e-12 </wgt>
<wgt id='1106'> +1.4890107e-12 </wgt>
<wgt id='1107'> +1.4159380e-12 </wgt>
<wgt id='1108'> +1.5738203e-12 </wgt>
<wgt id='1109'> +1.6029118e-12 </wgt>
<wgt id='1110'> +1.6532476e-12 </wgt>
<wgt id='1111'> +1.5397931e-12 </wgt>
<wgt id='1112'> +1.5555230e-12 </wgt>
<wgt id='1113'> +1.5094797e-12 </wgt>
<wgt id='1114'> +1.4426090e-12 </wgt>
<wgt id='1115'> +1.5658554e-12 </wgt>
<wgt id='1116'> +1.5270571e-12 </wgt>
<wgt id='1117'> +1.4840594e-12 </wgt>
<wgt id='1118'> +1.5378601e-12 </wgt>
<wgt id='1119'> +1.6296261e-12 </wgt>
<wgt id='1120'> +1.6262277e-12 </wgt>
<wgt id='1121'> +1.5901746e-12 </wgt>
<wgt id='1122'> +1.4677623e-12 </wgt>
<wgt id='1123'> +1.5704724e-12 </wgt>
<wgt id='1124'> +1.5228541e-12 </wgt>
<wgt id='1125'> +1.5954024e-12 </wgt>
<wgt id='1126'> +1.4711050e-12 </wgt>
<wgt id='1127'> +1.6005753e-12 </wgt>
<wgt id='1128'> +1.5582324e-12 </wgt>
<wgt id='1129'> +1.5314021e-12 </wgt>
<wgt id='1130'> +1.6437091e-12 </wgt>
<wgt id='1131'> +1.5890123e-12 </wgt>
<wgt id='1132'> +1.5185425e-12 </wgt>
<wgt id='1133'> +1.7195024e-12 </wgt>
<wgt id='1134'> +1.4152469e-12 </wgt>
<wgt id='1135'> +1.6011839e-12 </wgt>
<wgt id='1136'> +1.5819824e-12 </wgt>
<wgt id='1137'> +1.6514976e-12 </wgt>
<wgt id='1138'> +1.6748408e-12 </wgt>
<wgt id='1139'> +1.5441166e-12 </wgt>
<wgt id='1140'> +1.4437195e-12 </wgt>
<wgt id='1141'> +1.6594396e-12 </wgt>
<wgt id='1142'> +1.5885628e-12 </wgt>
<wgt id='1143'> +1.4379722e-12 </wgt>
<wgt id='1144'> +1.5209926e-12 </wgt>
<wgt id='1145'> +1.6105514e-12 </wgt>
<wgt id='1146'> +1.5911382e-12 </wgt>
<wgt id='1147'> +1.2689532e-12 </wgt>
<wgt id='1148'> +1.2995651e-12 </wgt>
<wgt id='1149'> +1.2061104e-12 </wgt>
<wgt id='1150'> +1.1954688e-12 </wgt>
<wgt id='1151'> +1.0714744e-12 </wgt>
<wgt id='1152'> +1.3779592e-12 </wgt>
<wgt id='1153'> +1.3733248e-12 </wgt>
<wgt id='1154'> +1.3806538e-12 </wgt>
<wgt id='1155'> +1.3793702e-12 </wgt>
<wgt id='1156'> +1.3773140e-12 </wgt>
<wgt id='1157'> +1.3688970e-12 </wgt>
<wgt id='1158'> +1.3902124e-12 </wgt>
<wgt id='1159'> +1.3700375e-12 </wgt>
<wgt id='1160'> +1.3830585e-12 </wgt>
<wgt id='1161'> +1.3657624e-12 </wgt>
<wgt id='1162'> +1.3863820e-12 </wgt>
<wgt id='1163'> +1.3671637e-12 </wgt>
<wgt id='1164'> +1.3886845e-12 </wgt>
<wgt id='1165'> +1.3651826e-12 </wgt>
<wgt id='1166'> +1.3904582e-12 </wgt>
<wgt id='1167'> +1.3963719e-12 </wgt>
<wgt id='1168'> +1.3540090e-12 </wgt>
<wgt id='1169'> +1.3817672e-12 </wgt>
<wgt id='1170'> +1.3751408e-12 </wgt>
<wgt id='1171'> +1.3721193e-12 </wgt>
<wgt id='1172'> +1.3852515e-12 </wgt>
<wgt id='1173'> +1.3669757e-12 </wgt>
<wgt id='1174'> +1.3885953e-12 </wgt>
<wgt id='1175'> +1.3759213e-12 </wgt>
<wgt id='1176'> +1.3787674e-12 </wgt>
<wgt id='1177'> +1.3790670e-12 </wgt>
<wgt id='1178'> +1.3748488e-12 </wgt>
<wgt id='1179'> +1.3873046e-12 </wgt>
<wgt id='1180'> +1.3630181e-12 </wgt>
<wgt id='1181'> +1.3757905e-12 </wgt>
<wgt id='1182'> +1.3799595e-12 </wgt>
<wgt id='1183'> +1.3782009e-12 </wgt>
<wgt id='1184'> +1.3780200e-12 </wgt>
<wgt id='1185'> +1.4138431e-12 </wgt>
<wgt id='1186'> +1.3590668e-12 </wgt>
<wgt id='1187'> +1.3768856e-12 </wgt>
<wgt id='1188'> +1.3769336e-12 </wgt>
<wgt id='1189'> +1.3693382e-12 </wgt>
<wgt id='1190'> +1.3710384e-12 </wgt>
<wgt id='1191'> +1.3774059e-12 </wgt>
<wgt id='1192'> +1.3747535e-12 </wgt>
<wgt id='1193'> +1.1865410e-12 </wgt>
<wgt id='1194'> +1.1861653e-12 </wgt>
<wgt id='1195'> +1.1867544e-12 </wgt>
<wgt id='1196'> +1.1843165e-12 </wgt>
<wgt id='1197'> +1.1890378e-12 </wgt>
<wgt id='1198'> +1.1937268e-12 </wgt>
<wgt id='1199'> +1.1757960e-12 </wgt>
<wgt id='1200'> +1.1842470e-12 </wgt>
<wgt id='1201'> +1.1880016e-12 </wgt>
<wgt id='1202'> +1.1847546e-12 </wgt>
<wgt id='1203'> +1.1889732e-12 </wgt>
<wgt id='1204'> +1.1773527e-12 </wgt>
<wgt id='1205'> +1.1921729e-12 </wgt>
<wgt id='1206'> +1.1916798e-12 </wgt>
<wgt id='1207'> +1.1794994e-12 </wgt>
<wgt id='1208'> +1.1792379e-12 </wgt>
<wgt id='1209'> +1.1891756e-12 </wgt>
<wgt id='1210'> +1.1919140e-12 </wgt>
<wgt id='1211'> +1.1720104e-12 </wgt>
<wgt id='1212'> +1.1840706e-12 </wgt>
<wgt id='1213'> +1.1887657e-12 </wgt>
<wgt id='1214'> +1.1698018e-12 </wgt>
<wgt id='1215'> +1.2143478e-12 </wgt>
<wgt id='1216'> +1.1980104e-12 </wgt>
<wgt id='1217'> +1.1789798e-12 </wgt>
<wgt id='1218'> +1.1945326e-12 </wgt>
<wgt id='1219'> +1.1824714e-12 </wgt>
<wgt id='1220'> +1.1920568e-12 </wgt>
<wgt id='1221'> +1.1845642e-12 </wgt>
<wgt id='1222'> +1.1873093e-12 </wgt>
<wgt id='1223'> +1.1872490e-12 </wgt>
<wgt id='1224'> +1.1817080e-12 </wgt>
<wgt id='1225'> +1.1884406e-12 </wgt>
<wgt id='1226'> +1.1983936e-12 </wgt>
<wgt id='1227'> +1.1788062e-12 </wgt>
<wgt id='1228'> +1.1813420e-12 </wgt>
<wgt id='1229'> +1.1890344e-12 </wgt>
<wgt id='1230'> +1.1764516e-12 </wgt>
<wgt id='1231'> +1.1845133e-12 </wgt>
<wgt id='1232'> +1.1752149e-12 </wgt>
<wgt id='1233'> +1.1883893e-12 </wgt>
<wgt id='1234'> +1.1865410e-12 </wgt>
<wgt id='1235'> +1.1766953e-12 </wgt>
<wgt id='1236'> +1.1803059e-12 </wgt>
<wgt id='1237'> +1.1836341e-12 </wgt>
<wgt id='1238'> +1.1892012e-12 </wgt>
<wgt id='1239'> +1.1915337e-12 </wgt>
<wgt id='1240'> +1.1937602e-12 </wgt>
<wgt id='1241'> +1.1843168e-12 </wgt>
<wgt id='1242'> +1.1799864e-12 </wgt>
<wgt id='1243'> +1.1886751e-12 </wgt>
<wgt id='1244'> +1.1796034e-12 </wgt>
<wgt id='1245'> +1.1878637e-12 </wgt>
<wgt id='1246'> +1.1865961e-12 </wgt>
<wgt id='1247'> +1.1824106e-12 </wgt>
<wgt id='1248'> +1.1844249e-12 </wgt>
<wgt id='1249'> +1.1842687e-12 </wgt>
<wgt id='1250'> +1.1720623e-12 </wgt>
<wgt id='1251'> +1.1930772e-12 </wgt>
<wgt id='1252'> +1.1782316e-12 </wgt>
<wgt id='1253'> +1.1890463e-12 </wgt>
<wgt id='1254'> +1.1769889e-12 </wgt>
<wgt id='1255'> +1.1887187e-12 </wgt>
<wgt id='1256'> +1.1886105e-12 </wgt>
<wgt id='1257'> +1.1736091e-12 </wgt>
<wgt id='1258'> +1.2079109e-12 </wgt>
<wgt id='1259'> +1.1626731e-12 </wgt>
<wgt id='1260'> +1.1906140e-12 </wgt>
<wgt id='1261'> +1.1770212e-12 </wgt>
<wgt id='1262'> +1.1885820e-12 </wgt>
<wgt id='1263'> +1.1824062e-12 </wgt>
<wgt id='1264'> +1.1946014e-12 </wgt>
<wgt id='1265'> +1.1793758e-12 </wgt>
<wgt id='1266'> +1.1784728e-12 </wgt>
<wgt id='1267'> +1.1904196e-12 </wgt>
<wgt id='1268'> +1.1844701e-12 </wgt>
<wgt id='1269'> +1.1879895e-12 </wgt>
<wgt id='1270'> +1.1781406e-12 </wgt>
<wgt id='1271'> +1.1754051e-12 </wgt>
<wgt id='1272'> +1.1860572e-12 </wgt>
<wgt id='1273'> +1.1830632e-12 </wgt>
<wgt id='1274'> +1.1760815e-12 </wgt>
<wgt id='1275'> +1.1962207e-12 </wgt>
<wgt id='1276'> +1.1873368e-12 </wgt>
<wgt id='1277'> +1.1805393e-12 </wgt>
<wgt id='1278'> +1.1867151e-12 </wgt>
<wgt id='1279'> +1.1778743e-12 </wgt>
<wgt id='1280'> +1.1872837e-12 </wgt>
<wgt id='1281'> +1.1632659e-12 </wgt>
<wgt id='1282'> +1.1843168e-12 </wgt>
<wgt id='1283'> +1.1736280e-12 </wgt>
<wgt id='1284'> +1.1777716e-12 </wgt>
<wgt id='1285'> +1.1813304e-12 </wgt>
<wgt id='1286'> +1.1874419e-12 </wgt>
<wgt id='1287'> +1.1899693e-12 </wgt>
<wgt id='1288'> +1.1920943e-12 </wgt>
<wgt id='1289'> +1.2957103e-12 </wgt>
<wgt id='1290'> +1.2963500e-12 </wgt>
<wgt id='1291'> +1.2951452e-12 </wgt>
<wgt id='1292'> +1.2952740e-12 </wgt>
<wgt id='1293'> +1.2960753e-12 </wgt>
<wgt id='1294'> +1.2952307e-12 </wgt>
<wgt id='1295'> +1.2962810e-12 </wgt>
<wgt id='1296'> +1.2896723e-12 </wgt>
<wgt id='1297'> +1.3032520e-12 </wgt>
<wgt id='1298'> +1.3000941e-12 </wgt>
<wgt id='1299'> +1.2904345e-12 </wgt>
<wgt id='1300'> +1.2970678e-12 </wgt>
<wgt id='1301'> +1.2931972e-12 </wgt>
<wgt id='1302'> +1.2930716e-12 </wgt>
<wgt id='1303'> +1.2995075e-12 </wgt>
<wgt id='1304'> +1.2886322e-12 </wgt>
<wgt id='1305'> +1.3006748e-12 </wgt>
<wgt id='1306'> +1.2832743e-12 </wgt>
<wgt id='1307'> +1.3098434e-12 </wgt>
<wgt id='1308'> +1.2603607e-12 </wgt>
<wgt id='1309'> +1.3228098e-12 </wgt>
<wgt id='1310'> +1.2942795e-12 </wgt>
<wgt id='1311'> +1.2974688e-12 </wgt>
<wgt id='1312'> +1.2908539e-12 </wgt>
<wgt id='1313'> +1.3008737e-12 </wgt>
<wgt id='1314'> +1.3026074e-12 </wgt>
<wgt id='1315'> +1.2830430e-12 </wgt>
<wgt id='1316'> +1.2988129e-12 </wgt>
<wgt id='1317'> +1.2983065e-12 </wgt>
<wgt id='1318'> +1.3124161e-12 </wgt>
<wgt id='1319'> +1.2765044e-12 </wgt>
<wgt id='1320'> +1.3113354e-12 </wgt>
<wgt id='1321'> +1.2831831e-12 </wgt>
<wgt id='1322'> +1.3000731e-12 </wgt>
<wgt id='1323'> +1.2899154e-12 </wgt>
<wgt id='1324'> +1.2963085e-12 </wgt>
<wgt id='1325'> +1.2984403e-12 </wgt>
<wgt id='1326'> +1.3056776e-12 </wgt>
<wgt id='1327'> +1.2897982e-12 </wgt>
<wgt id='1328'> +1.2928717e-12 </wgt>
<wgt id='1329'> +1.2984681e-12 </wgt>
<wgt id='1330'> +1.3859695e-12 </wgt>
<wgt id='1331'> +1.2121570e-12 </wgt>
<wgt id='1332'> +1.2584155e-12 </wgt>
<wgt id='1333'> +1.3338477e-12 </wgt>
<wgt id='1334'> +1.3140915e-12 </wgt>
<wgt id='1335'> +1.2492094e-12 </wgt>
<wgt id='1336'> +1.2787931e-12 </wgt>
<wgt id='1337'> +1.3121917e-12 </wgt>
<wgt id='1338'> +1.2882409e-12 </wgt>
<wgt id='1339'> +1.2994126e-12 </wgt>
<wgt id='1340'> +1.2609145e-12 </wgt>
<wgt id='1341'> +1.2615682e-12 </wgt>
<wgt id='1342'> +1.2603424e-12 </wgt>
<wgt id='1343'> +1.2604082e-12 </wgt>
<wgt id='1344'> +1.2613050e-12 </wgt>
<wgt id='1345'> +1.2601984e-12 </wgt>
<wgt id='1346'> +1.2616603e-12 </wgt>
<wgt id='1347'> +1.2551959e-12 </wgt>
<wgt id='1348'> +1.2673737e-12 </wgt>
<wgt id='1349'> +1.2656262e-12 </wgt>
<wgt id='1350'> +1.2563246e-12 </wgt>
<wgt id='1351'> +1.2619756e-12 </wgt>
<wgt id='1352'> +1.2587524e-12 </wgt>
<wgt id='1353'> +1.2568119e-12 </wgt>
<wgt id='1354'> +1.2683122e-12 </wgt>
<wgt id='1355'> +1.2537133e-12 </wgt>
<wgt id='1356'> +1.2650245e-12 </wgt>
<wgt id='1357'> +1.2374303e-12 </wgt>
<wgt id='1358'> +1.2885536e-12 </wgt>
<wgt id='1359'> +1.2277968e-12 </wgt>
<wgt id='1360'> +1.2896817e-12 </wgt>
<wgt id='1361'> +1.2592816e-12 </wgt>
<wgt id='1362'> +1.2633167e-12 </wgt>
<wgt id='1363'> +1.2545190e-12 </wgt>
<wgt id='1364'> +1.2657270e-12 </wgt>
<wgt id='1365'> +1.2487106e-12 </wgt>
<wgt id='1366'> +1.2682904e-12 </wgt>
<wgt id='1367'> +1.2640118e-12 </wgt>
<wgt id='1368'> +1.2625530e-12 </wgt>
<wgt id='1369'> +1.2734366e-12 </wgt>
<wgt id='1370'> +1.2463480e-12 </wgt>
<wgt id='1371'> +1.2746226e-12 </wgt>
<wgt id='1372'> +1.2452109e-12 </wgt>
<wgt id='1373'> +1.2643314e-12 </wgt>
<wgt id='1374'> +1.2573053e-12 </wgt>
<wgt id='1375'> +1.2609104e-12 </wgt>
<wgt id='1376'> +1.2648501e-12 </wgt>
<wgt id='1377'> +1.2689180e-12 </wgt>
<wgt id='1378'> +1.2571008e-12 </wgt>
<wgt id='1379'> +1.2594255e-12 </wgt>
<wgt id='1380'> +1.2625460e-12 </wgt>
<wgt id='1381'> +1.3548456e-12 </wgt>
<wgt id='1382'> +1.1801106e-12 </wgt>
<wgt id='1383'> +1.2149066e-12 </wgt>
<wgt id='1384'> +1.3094472e-12 </wgt>
<wgt id='1385'> +1.2805324e-12 </wgt>
<wgt id='1386'> +1.2137364e-12 </wgt>
<wgt id='1387'> +1.2402721e-12 </wgt>
<wgt id='1388'> +1.2801662e-12 </wgt>
<wgt id='1389'> +1.2504215e-12 </wgt>
<wgt id='1390'> +1.2657169e-12 </wgt>
<wgt id='1391'> +1.2432518e-12 </wgt>
<wgt id='1392'> +1.1940130e-12 </wgt>
<wgt id='1393'> +1.2109359e-12 </wgt>
<wgt id='1394'> +1.2255797e-12 </wgt>
<wgt id='1395'> +1.2570452e-12 </wgt>
<wgt id='1396'> +1.2418517e-12 </wgt>
<wgt id='1397'> +1.2085306e-12 </wgt>
<wgt id='1398'> +1.2132620e-12 </wgt>
<wgt id='1399'> +1.2192499e-12 </wgt>
<wgt id='1400'> +1.2264848e-12 </wgt>
<wgt id='1401'> +1.2333924e-12 </wgt>
<wgt id='1402'> +1.2505006e-12 </wgt>
<wgt id='1403'> +1.2597755e-12 </wgt>
<wgt id='1404'> +1.2702716e-12 </wgt>
<wgt id='1405'> +1.2418517e-12 </wgt>
<wgt id='1406'> +1.2297315e-12 </wgt>
<wgt id='1407'> +1.2357199e-12 </wgt>
<wgt id='1408'> +1.2468969e-12 </wgt>
<wgt id='1409'> +1.2515295e-12 </wgt>
<wgt id='1410'> +1.2396766e-12 </wgt>
<wgt id='1411'> +1.2395794e-12 </wgt>
<wgt id='1412'> +1.2397793e-12 </wgt>
<wgt id='1413'> +1.2430244e-12 </wgt>
<wgt id='1414'> +1.2363507e-12 </wgt>
<wgt id='1415'> +1.2396910e-12 </wgt>
<wgt id='1416'> +1.2396622e-12 </wgt>
<wgt id='1417'> +1.2309602e-12 </wgt>
<wgt id='1418'> +1.2484399e-12 </wgt>
<wgt id='1419'> +1.2422192e-12 </wgt>
<wgt id='1420'> +1.2372502e-12 </wgt>
<wgt id='1421'> +1.2318936e-12 </wgt>
<wgt id='1422'> +1.2431682e-12 </wgt>
<wgt id='1423'> +1.2402693e-12 </wgt>
<wgt id='1424'> +1.2388632e-12 </wgt>
<wgt id='1425'> +1.2314535e-12 </wgt>
<wgt id='1426'> +1.2484980e-12 </wgt>
<wgt id='1427'> +1.2023831e-12 </wgt>
<wgt id='1428'> +1.2603562e-12 </wgt>
<wgt id='1429'> +1.2573456e-12 </wgt>
<wgt id='1430'> +1.2161230e-12 </wgt>
<wgt id='1431'> +1.2152499e-12 </wgt>
<wgt id='1432'> +1.2567739e-12 </wgt>
<wgt id='1433'> +1.2507465e-12 </wgt>
<wgt id='1434'> +1.2282364e-12 </wgt>
<wgt id='1435'> +1.2435082e-12 </wgt>
<wgt id='1436'> +1.2304714e-12 </wgt>
<wgt id='1437'> +1.2450086e-12 </wgt>
<wgt id='1438'> +1.2392462e-12 </wgt>
<wgt id='1439'> +1.2306904e-12 </wgt>
<wgt id='1440'> +1.2622229e-12 </wgt>
<wgt id='1441'> +1.2441341e-12 </wgt>
<wgt id='1442'> +1.2310200e-12 </wgt>
<wgt id='1443'> +1.2359634e-12 </wgt>
<wgt id='1444'> +1.2481289e-12 </wgt>
<wgt id='1445'> +1.2416335e-12 </wgt>
<wgt id='1446'> +1.2399287e-12 </wgt>
<wgt id='1447'> +1.2411101e-12 </wgt>
<wgt id='1448'> +1.2396655e-12 </wgt>
<wgt id='1449'> +1.2379048e-12 </wgt>
<wgt id='1450'> +1.2408386e-12 </wgt>
<wgt id='1451'> +1.1812900e-12 </wgt>
<wgt id='1452'> +1.3463925e-12 </wgt>
<wgt id='1453'> +1.2340393e-12 </wgt>
<wgt id='1454'> +1.2735916e-12 </wgt>
<wgt id='1455'> +1.2826610e-12 </wgt>
<wgt id='1456'> +1.2015206e-12 </wgt>
<wgt id='1457'> +1.2025441e-12 </wgt>
<wgt id='1458'> +1.2546914e-12 </wgt>
<wgt id='1459'> +1.2218687e-12 </wgt>
<wgt id='1460'> +1.2506496e-12 </wgt>
<wgt id='1461'> +1.2396766e-12 </wgt>
<wgt id='1462'> +1.2200848e-12 </wgt>
<wgt id='1463'> +1.2437721e-12 </wgt>
<wgt id='1464'> +1.2322467e-12 </wgt>
<wgt id='1465'> +1.1862815e-12 </wgt>
<wgt id='1466'> +1.1932215e-12 </wgt>
<wgt id='1467'> +1.2019371e-12 </wgt>
<wgt id='1468'> +1.2126392e-12 </wgt>
<wgt id='1469'> +1.2220303e-12 </wgt>
<wgt id='1470'> +1.2432919e-12 </wgt>
<wgt id='1471'> +1.2589799e-12 </wgt>
<wgt id='1472'> +1.2706865e-12 </wgt>
<wgt id='1473'> +1.2322467e-12 </wgt>
<wgt id='1474'> +1.2210950e-12 </wgt>
<wgt id='1475'> +1.2277849e-12 </wgt>
<wgt id='1476'> +1.2373652e-12 </wgt>
<wgt id='1477'> +1.2411837e-12 </wgt>
<wgt id='1478'> +1.1819125e-12 </wgt>
<wgt id='1479'> +1.1809210e-12 </wgt>
<wgt id='1480'> +1.1326050e-12 </wgt>
<wgt id='1481'> +1.1667044e-12 </wgt>
<wgt id='1482'> +1.1846656e-12 </wgt>
<wgt id='1483'> +1.2288439e-12 </wgt>
<wgt id='1484'> +1.1738529e-12 </wgt>
<wgt id='1485'> +1.1842799e-12 </wgt>
<wgt id='1486'> +1.1811505e-12 </wgt>
<wgt id='1487'> +1.1877633e-12 </wgt>
<wgt id='1488'> +1.1814748e-12 </wgt>
<wgt id='1489'> +1.1890476e-12 </wgt>
<wgt id='1490'> +1.1774492e-12 </wgt>
<wgt id='1491'> +1.1960372e-12 </wgt>
<wgt id='1492'> +1.1810328e-12 </wgt>
<wgt id='1493'> +1.1741715e-12 </wgt>
<wgt id='1494'> +1.1282119e-12 </wgt>
<wgt id='1495'> +1.1771116e-12 </wgt>
<wgt id='1496'> +1.1888876e-12 </wgt>
<wgt id='1497'> +1.1869417e-12 </wgt>
<wgt id='1498'> +1.1882773e-12 </wgt>
<wgt id='1499'> +1.1835304e-12 </wgt>
<wgt id='1500'> +1.1795290e-12 </wgt>
<wgt id='1501'> +1.1881468e-12 </wgt>
<wgt id='1502'> +1.1875299e-12 </wgt>
<wgt id='1503'> +1.1756927e-12 </wgt>
<wgt id='1504'> +1.1851481e-12 </wgt>
<wgt id='1505'> +1.1906021e-12 </wgt>
<wgt id='1506'> +1.1827350e-12 </wgt>
<wgt id='1507'> +1.1805015e-12 </wgt>
<wgt id='1508'> +1.1797968e-12 </wgt>
<wgt id='1509'> +1.2841938e-12 </wgt>
<wgt id='1510'> +1.2837031e-12 </wgt>
<wgt id='1511'> +1.2875428e-12 </wgt>
<wgt id='1512'> +1.2864133e-12 </wgt>
<wgt id='1513'> +1.2604750e-12 </wgt>
<wgt id='1514'> +1.2864384e-12 </wgt>
<wgt id='1515'> +1.2987413e-12 </wgt>
<wgt id='1516'> +1.2902546e-12 </wgt>
<wgt id='1517'> +1.3027572e-12 </wgt>
<wgt id='1518'> +1.2620352e-12 </wgt>
<wgt id='1519'> +1.3027954e-12 </wgt>
<wgt id='1520'> +1.3034533e-12 </wgt>
<wgt id='1521'> +1.2720407e-12 </wgt>
<wgt id='1522'> +1.2905434e-12 </wgt>
<wgt id='1523'> +1.2526432e-12 </wgt>
<wgt id='1524'> +1.2675877e-12 </wgt>
<wgt id='1525'> +1.2596079e-12 </wgt>
<wgt id='1526'> +1.2935479e-12 </wgt>
<wgt id='1527'> +1.2890477e-12 </wgt>
<wgt id='1528'> +1.2916322e-12 </wgt>
<wgt id='1529'> +1.2827728e-12 </wgt>
<wgt id='1530'> +1.2789242e-12 </wgt>
<wgt id='1531'> +1.2778770e-12 </wgt>
<wgt id='1532'> +1.3015024e-12 </wgt>
<wgt id='1533'> +1.2860299e-12 </wgt>
<wgt id='1534'> +1.2841950e-12 </wgt>
<wgt id='1535'> +1.2835380e-12 </wgt>
<wgt id='1536'> +1.2792038e-12 </wgt>
<wgt id='1537'> +1.2865193e-12 </wgt>
<wgt id='1538'> +1.2795823e-12 </wgt>
<wgt id='1539'> +1.2817796e-12 </wgt>
<wgt id='1540'> +1.2880038e-12 </wgt>
<wgt id='1541'> +1.2864356e-12 </wgt>
<wgt id='1542'> +1.2812088e-12 </wgt>
<wgt id='1543'> +1.2815260e-12 </wgt>
<wgt id='1544'> +1.2908471e-12 </wgt>
<wgt id='1545'> +1.2878767e-12 </wgt>
<wgt id='1546'> +1.2854526e-12 </wgt>
<wgt id='1547'> +1.2861827e-12 </wgt>
<wgt id='1548'> +1.2829208e-12 </wgt>
<wgt id='1549'> +1.2826105e-12 </wgt>
<wgt id='1550'> +1.2824454e-12 </wgt>
<wgt id='1551'> +1.2844683e-12 </wgt>
<wgt id='1552'> +1.2869200e-12 </wgt>
<wgt id='1553'> +1.2849520e-12 </wgt>
<wgt id='1554'> +1.2861537e-12 </wgt>
<wgt id='1555'> +1.2863617e-12 </wgt>
<wgt id='1556'> +1.2858053e-12 </wgt>
<wgt id='1557'> +1.2845847e-12 </wgt>
<wgt id='1558'> +1.2815687e-12 </wgt>
<wgt id='1559'> +1.2856603e-12 </wgt>
<wgt id='1560'> +1.2845136e-12 </wgt>
<wgt id='1561'> +1.2847217e-12 </wgt>
<wgt id='1562'> +1.2846201e-12 </wgt>
<wgt id='1563'> +1.2829411e-12 </wgt>
<wgt id='1564'> +1.2840200e-12 </wgt>
<wgt id='1565'> +1.2832532e-12 </wgt>
<wgt id='1566'> +1.2858391e-12 </wgt>
<wgt id='1567'> +1.2835283e-12 </wgt>
<wgt id='1568'> +1.2837116e-12 </wgt>
<wgt id='1569'> +1.2857901e-12 </wgt>
<wgt id='1570'> +1.2833044e-12 </wgt>
<wgt id='1571'> +1.2849466e-12 </wgt>
<wgt id='1572'> +1.2847917e-12 </wgt>
<wgt id='1573'> +1.2843854e-12 </wgt>
<wgt id='1574'> +1.2842056e-12 </wgt>
<wgt id='1575'> +1.2842619e-12 </wgt>
<wgt id='1576'> +1.2837017e-12 </wgt>
<wgt id='1577'> +1.2832474e-12 </wgt>
<wgt id='1578'> +1.2835332e-12 </wgt>
<wgt id='1579'> +1.2842379e-12 </wgt>
<wgt id='1580'> +1.2828785e-12 </wgt>
<wgt id='1581'> +1.2853549e-12 </wgt>
<wgt id='1582'> +1.2831796e-12 </wgt>
<wgt id='1583'> +1.2844444e-12 </wgt>
<wgt id='1584'> +1.2840402e-12 </wgt>
<wgt id='1585'> +1.2853637e-12 </wgt>
<wgt id='1586'> +1.2844252e-12 </wgt>
<wgt id='1587'> +1.2839024e-12 </wgt>
<wgt id='1588'> +1.2838038e-12 </wgt>
<wgt id='1589'> +1.2843203e-12 </wgt>
<wgt id='1590'> +1.2837015e-12 </wgt>
<wgt id='1591'> +1.2848696e-12 </wgt>
<wgt id='1592'> +1.2842187e-12 </wgt>
<wgt id='1593'> +1.2842706e-12 </wgt>
<wgt id='1594'> +1.2846127e-12 </wgt>
<wgt id='1595'> +1.2839033e-12 </wgt>
<wgt id='1596'> +1.2856247e-12 </wgt>
<wgt id='1597'> +1.2843307e-12 </wgt>
<wgt id='1598'> +1.2844003e-12 </wgt>
<wgt id='1599'> +1.2840936e-12 </wgt>
<wgt id='1600'> +1.2836312e-12 </wgt>
<wgt id='1601'> +1.2854597e-12 </wgt>
<wgt id='1602'> +1.2845035e-12 </wgt>
<wgt id='1603'> +1.2835397e-12 </wgt>
<wgt id='1604'> +1.2847012e-12 </wgt>
<wgt id='1605'> +1.2840576e-12 </wgt>
<wgt id='1606'> +1.2836118e-12 </wgt>
<wgt id='1607'> +1.2835264e-12 </wgt>
<wgt id='1608'> +1.2839472e-12 </wgt>
<wgt id='1609'> +1.2843115e-12 </wgt>
<wgt id='1610'> +1.2515362e-12 </wgt>
<wgt id='1611'> +1.2941120e-12 </wgt>
<wgt id='1612'> +1.4668689e-12 </wgt>
<wgt id='1613'> +1.3626428e-12 </wgt>
<wgt id='1614'> +1.4509001e-12 </wgt>
<wgt id='1615'> +1.5039149e-12 </wgt>
<wgt id='1616'> +1.3103278e-12 </wgt>
<wgt id='1617'> +1.3688456e-12 </wgt>
<wgt id='1618'> +1.3620657e-12 </wgt>
<wgt id='1619'> +1.3636406e-12 </wgt>
<wgt id='1620'> +1.4780374e-12 </wgt>
<wgt id='1621'> +1.4446648e-12 </wgt>
<wgt id='1622'> +1.5093219e-12 </wgt>
<wgt id='1623'> +1.5050980e-12 </wgt>
<wgt id='1624'> +1.4543170e-12 </wgt>
<wgt id='1625'> +1.4363322e-12 </wgt>
<wgt id='1626'> +1.5410479e-12 </wgt>
<wgt id='1627'> +1.5599694e-12 </wgt>
<wgt id='1628'> +1.3737646e-12 </wgt>
<wgt id='1629'> +1.3039988e-12 </wgt>
<wgt id='1630'> +1.4802680e-12 </wgt>
<wgt id='1631'> +1.4558871e-12 </wgt>
<wgt id='1632'> +1.6086850e-12 </wgt>
<wgt id='1633'> +1.5077216e-12 </wgt>
<wgt id='1634'> +1.5265342e-12 </wgt>
<wgt id='1635'> +1.3944437e-12 </wgt>
<wgt id='1636'> +1.2836752e-12 </wgt>
<wgt id='1637'> +1.4960802e-12 </wgt>
<wgt id='1638'> +1.5508228e-12 </wgt>
<wgt id='1639'> +1.4013272e-12 </wgt>
<wgt id='1640'> +1.5307749e-12 </wgt>
<wgt id='1641'> +1.4830158e-12 </wgt>
<wgt id='1642'> +1.5237698e-12 </wgt>
<wgt id='1643'> +1.3881083e-12 </wgt>
<wgt id='1644'> +1.6541788e-12 </wgt>
<wgt id='1645'> +1.5017121e-12 </wgt>
<wgt id='1646'> +1.5419185e-12 </wgt>
<wgt id='1647'> +1.4785380e-12 </wgt>
<wgt id='1648'> +1.3839882e-12 </wgt>
<wgt id='1649'> +1.3436483e-12 </wgt>
<wgt id='1650'> +1.4552786e-12 </wgt>
<wgt id='1651'> +1.4696659e-12 </wgt>
<wgt id='1652'> +1.5590328e-12 </wgt>
<wgt id='1653'> +1.4040029e-12 </wgt>
<wgt id='1654'> +1.4635115e-12 </wgt>
<wgt id='1655'> +1.5023051e-12 </wgt>
<wgt id='1656'> +1.6780872e-12 </wgt>
<wgt id='1657'> +1.4880626e-12 </wgt>
<wgt id='1658'> +1.5126843e-12 </wgt>
<wgt id='1659'> +1.4543170e-12 </wgt>
<wgt id='1660'> +1.3909064e-12 </wgt>
<wgt id='1661'> +1.6185357e-12 </wgt>
<wgt id='1662'> +1.4805356e-12 </wgt>
<wgt id='1663'> +1.4778545e-12 </wgt>
<wgt id='1664'> +1.5216416e-12 </wgt>
<wgt id='1665'> +1.6366697e-12 </wgt>
<wgt id='1666'> +1.4800555e-12 </wgt>
<wgt id='1667'> +1.4914866e-12 </wgt>
<wgt id='1668'> +1.3460866e-12 </wgt>
<wgt id='1669'> +1.5981700e-12 </wgt>
<wgt id='1670'> +1.4570462e-12 </wgt>
<wgt id='1671'> +1.5864725e-12 </wgt>
<wgt id='1672'> +1.5477155e-12 </wgt>
<wgt id='1673'> +1.3927213e-12 </wgt>
<wgt id='1674'> +1.4490560e-12 </wgt>
<wgt id='1675'> +1.4811766e-12 </wgt>
<wgt id='1676'> +1.4002606e-12 </wgt>
<wgt id='1677'> +1.3591611e-12 </wgt>
<wgt id='1678'> +1.4843786e-12 </wgt>
<wgt id='1679'> +1.4085943e-12 </wgt>
<wgt id='1680'> +1.4280877e-12 </wgt>
<wgt id='1681'> +1.4955823e-12 </wgt>
<wgt id='1682'> +1.4880804e-12 </wgt>
<wgt id='1683'> +1.5118942e-12 </wgt>
<wgt id='1684'> +1.5802210e-12 </wgt>
<wgt id='1685'> +1.5089989e-12 </wgt>
<wgt id='1686'> +1.4862307e-12 </wgt>
<wgt id='1687'> +1.3310886e-12 </wgt>
<wgt id='1688'> +1.4580407e-12 </wgt>
<wgt id='1689'> +1.5123328e-12 </wgt>
<wgt id='1690'> +1.4704872e-12 </wgt>
<wgt id='1691'> +1.4157915e-12 </wgt>
<wgt id='1692'> +1.4285958e-12 </wgt>
<wgt id='1693'> +1.4173903e-12 </wgt>
<wgt id='1694'> +1.5628580e-12 </wgt>
<wgt id='1695'> +1.4336724e-12 </wgt>
<wgt id='1696'> +1.4591774e-12 </wgt>
<wgt id='1697'> +1.3528062e-12 </wgt>
<wgt id='1698'> +1.5029483e-12 </wgt>
<wgt id='1699'> +1.3252577e-12 </wgt>
<wgt id='1700'> +1.5278018e-12 </wgt>
<wgt id='1701'> +1.3987752e-12 </wgt>
<wgt id='1702'> +1.4113530e-12 </wgt>
<wgt id='1703'> +1.3618503e-12 </wgt>
<wgt id='1704'> +1.5588315e-12 </wgt>
<wgt id='1705'> +1.5575459e-12 </wgt>
<wgt id='1706'> +1.3777952e-12 </wgt>
<wgt id='1707'> +1.4609053e-12 </wgt>
<wgt id='1708'> +1.4714379e-12 </wgt>
<wgt id='1709'> +1.5098701e-12 </wgt>
<wgt id='1710'> +1.4526832e-12 </wgt>
<wgt id='1711'> +1.4781003e-12 </wgt>
<wgt id='1712'> +1.4854388e-12 </wgt>
<wgt id='1713'> +1.1609114e-12 </wgt>
<wgt id='1714'> +1.1046459e-12 </wgt>
<wgt id='1715'> +1.0580456e-12 </wgt>
<wgt id='1716'> +9.5025909e-13 </wgt>
<wgt id='1717'> +1.0836346e-12 </wgt>
<wgt id='1718'> +1.1318786e-12 </wgt>
<wgt id='1719'> +1.1920785e-12 </wgt>
<wgt id='1720'> +1.1551039e-12 </wgt>
<wgt id='1721'> +1.1395950e-12 </wgt>
<wgt id='1722'> +1.1722288e-12 </wgt>
<wgt id='1723'> +1.4141631e-12 </wgt>
<wgt id='1724'> +1.3929457e-12 </wgt>
<wgt id='1725'> +1.1337021e-12 </wgt>
<wgt id='1726'> +1.0405236e-12 </wgt>
<wgt id='1727'> +1.2162420e-12 </wgt>
<wgt id='1728'> +1.2030819e-12 </wgt>
<wgt id='1729'> +1.1875672e-12 </wgt>
<wgt id='1730'> +1.2202544e-12 </wgt>
<wgt id='1731'> +1.1706310e-12 </wgt>
<wgt id='1732'> +1.1340333e-12 </wgt>
<wgt id='1733'> +1.0336139e-12 </wgt>
<wgt id='1734'> +1.0635716e-12 </wgt>
<wgt id='1735'> +1.2407477e-12 </wgt>
<wgt id='1736'> +1.2057883e-12 </wgt>
<wgt id='1737'> +1.0518849e-12 </wgt>
<wgt id='1738'> +1.0991693e-12 </wgt>
<wgt id='1739'> +1.2505828e-12 </wgt>
<wgt id='1740'> +1.0713617e-12 </wgt>
<wgt id='1741'> +1.1674072e-12 </wgt>
<wgt id='1742'> +1.0523324e-12 </wgt>
<wgt id='1743'> +1.0856394e-12 </wgt>
<wgt id='1744'> +1.0183106e-12 </wgt>
<wgt id='1745'> +1.4439176e-12 </wgt>
<wgt id='1746'> +1.1785994e-12 </wgt>
<wgt id='1747'> +1.2146825e-12 </wgt>
<wgt id='1748'> +1.0613396e-12 </wgt>
<wgt id='1749'> +1.0687527e-12 </wgt>
<wgt id='1750'> +1.1279885e-12 </wgt>
<wgt id='1751'> +1.3364623e-12 </wgt>
<wgt id='1752'> +1.1192768e-12 </wgt>
<wgt id='1753'> +1.1206536e-12 </wgt>
<wgt id='1754'> +1.0948510e-12 </wgt>
<wgt id='1755'> +1.1396451e-12 </wgt>
<wgt id='1756'> +1.1841529e-12 </wgt>
<wgt id='1757'> +1.2129733e-12 </wgt>
<wgt id='1758'> +1.1942501e-12 </wgt>
<wgt id='1759'> +1.1067991e-12 </wgt>
<wgt id='1760'> +1.2117850e-12 </wgt>
<wgt id='1761'> +1.1535054e-12 </wgt>
<wgt id='1762'> +1.0778430e-12 </wgt>
<wgt id='1763'> +1.0625038e-12 </wgt>
<wgt id='1764'> +1.1665915e-12 </wgt>
<wgt id='1765'> +1.1414816e-12 </wgt>
<wgt id='1766'> +1.4137666e-12 </wgt>
<wgt id='1767'> +1.1693713e-12 </wgt>
<wgt id='1768'> +1.1640989e-12 </wgt>
<wgt id='1769'> +1.1448178e-12 </wgt>
<wgt id='1770'> +9.9286398e-13 </wgt>
<wgt id='1771'> +1.0996420e-12 </wgt>
<wgt id='1772'> +1.0841641e-12 </wgt>
<wgt id='1773'> +1.1356825e-12 </wgt>
<wgt id='1774'> +1.1292647e-12 </wgt>
<wgt id='1775'> +1.0976283e-12 </wgt>
<wgt id='1776'> +1.1512429e-12 </wgt>
<wgt id='1777'> +1.2655631e-12 </wgt>
<wgt id='1778'> +1.0927419e-12 </wgt>
<wgt id='1779'> +1.1369449e-12 </wgt>
<wgt id='1780'> +1.4808406e-12 </wgt>
<wgt id='1781'> +1.1100052e-12 </wgt>
<wgt id='1782'> +1.2391207e-12 </wgt>
<wgt id='1783'> +1.1568229e-12 </wgt>
<wgt id='1784'> +1.2472868e-12 </wgt>
<wgt id='1785'> +1.3966266e-12 </wgt>
<wgt id='1786'> +1.5030600e-12 </wgt>
<wgt id='1787'> +1.1645156e-12 </wgt>
<wgt id='1788'> +1.0815914e-12 </wgt>
<wgt id='1789'> +1.4114686e-12 </wgt>
<wgt id='1790'> +1.2683808e-12 </wgt>
<wgt id='1791'> +1.1899398e-12 </wgt>
<wgt id='1792'> +1.2468538e-12 </wgt>
<wgt id='1793'> +1.1313636e-12 </wgt>
<wgt id='1794'> +1.1621676e-12 </wgt>
<wgt id='1795'> +1.0810145e-12 </wgt>
<wgt id='1796'> +1.1539360e-12 </wgt>
<wgt id='1797'> +1.0949695e-12 </wgt>
<wgt id='1798'> +1.1112025e-12 </wgt>
<wgt id='1799'> +1.1848423e-12 </wgt>
<wgt id='1800'> +1.1804855e-12 </wgt>
<wgt id='1801'> +1.0917963e-12 </wgt>
<wgt id='1802'> +1.2027291e-12 </wgt>
<wgt id='1803'> +1.1199583e-12 </wgt>
<wgt id='1804'> +1.0591556e-12 </wgt>
<wgt id='1805'> +1.1708496e-12 </wgt>
<wgt id='1806'> +1.1331176e-12 </wgt>
<wgt id='1807'> +1.1658546e-12 </wgt>
<wgt id='1808'> +1.0610607e-12 </wgt>
<wgt id='1809'> +1.2502273e-12 </wgt>
<wgt id='1810'> +1.1383083e-12 </wgt>
<wgt id='1811'> +1.0980811e-12 </wgt>
<wgt id='1812'> +1.0558361e-12 </wgt>
<wgt id='1813'> +1.0055170e-12 </wgt>
<wgt id='1814'> +1.1401593e-12 </wgt>
<wgt id='1815'> +1.3504138e-12 </wgt>
<wgt id='1816'> +1.1609114e-12 </wgt>
<wgt id='1817'> +1.1046459e-12 </wgt>
<wgt id='1818'> +1.0580456e-12 </wgt>
<wgt id='1819'> +9.5025909e-13 </wgt>
<wgt id='1820'> +1.0836346e-12 </wgt>
<wgt id='1821'> +1.1318786e-12 </wgt>
<wgt id='1822'> +1.1920785e-12 </wgt>
<wgt id='1823'> +1.1551039e-12 </wgt>
<wgt id='1824'> +1.1395950e-12 </wgt>
<wgt id='1825'> +1.1722288e-12 </wgt>
<wgt id='1826'> +1.4141631e-12 </wgt>
<wgt id='1827'> +1.3929457e-12 </wgt>
<wgt id='1828'> +1.1337021e-12 </wgt>
<wgt id='1829'> +1.0405236e-12 </wgt>
<wgt id='1830'> +1.2162420e-12 </wgt>
<wgt id='1831'> +1.2030819e-12 </wgt>
<wgt id='1832'> +1.1875672e-12 </wgt>
<wgt id='1833'> +1.2202544e-12 </wgt>
<wgt id='1834'> +1.1706310e-12 </wgt>
<wgt id='1835'> +1.1340333e-12 </wgt>
<wgt id='1836'> +1.0336139e-12 </wgt>
<wgt id='1837'> +1.0635716e-12 </wgt>
<wgt id='1838'> +1.2407477e-12 </wgt>
<wgt id='1839'> +1.2057883e-12 </wgt>
<wgt id='1840'> +1.0518849e-12 </wgt>
<wgt id='1841'> +1.0991693e-12 </wgt>
<wgt id='1842'> +1.2505828e-12 </wgt>
<wgt id='1843'> +1.0713617e-12 </wgt>
<wgt id='1844'> +1.1674072e-12 </wgt>
<wgt id='1845'> +1.0523324e-12 </wgt>
<wgt id='1846'> +1.0856394e-12 </wgt>
<wgt id='1847'> +1.0183106e-12 </wgt>
<wgt id='1848'> +1.4439176e-12 </wgt>
<wgt id='1849'> +1.1785994e-12 </wgt>
<wgt id='1850'> +1.2146825e-12 </wgt>
<wgt id='1851'> +1.0613396e-12 </wgt>
<wgt id='1852'> +1.0687527e-12 </wgt>
<wgt id='1853'> +1.1279885e-12 </wgt>
<wgt id='1854'> +1.3364623e-12 </wgt>
<wgt id='1855'> +1.1192768e-12 </wgt>
<wgt id='1856'> +1.1206536e-12 </wgt>
<wgt id='1857'> +1.0948510e-12 </wgt>
<wgt id='1858'> +1.1396451e-12 </wgt>
<wgt id='1859'> +1.1841529e-12 </wgt>
<wgt id='1860'> +1.2129733e-12 </wgt>
<wgt id='1861'> +1.1942501e-12 </wgt>
<wgt id='1862'> +1.1067991e-12 </wgt>
<wgt id='1863'> +1.2117850e-12 </wgt>
<wgt id='1864'> +1.1535054e-12 </wgt>
<wgt id='1865'> +1.0778430e-12 </wgt>
<wgt id='1866'> +1.0625038e-12 </wgt>
<wgt id='1867'> +1.1665915e-12 </wgt>
<wgt id='1868'> +1.1414816e-12 </wgt>
<wgt id='1869'> +1.4137666e-12 </wgt>
<wgt id='1870'> +1.1693713e-12 </wgt>
<wgt id='1871'> +1.1640989e-12 </wgt>
<wgt id='1872'> +1.1448178e-12 </wgt>
<wgt id='1873'> +9.9286398e-13 </wgt>
<wgt id='1874'> +1.0996420e-12 </wgt>
<wgt id='1875'> +1.0841641e-12 </wgt>
<wgt id='1876'> +1.1356825e-12 </wgt>
<wgt id='1877'> +1.1292647e-12 </wgt>
<wgt id='1878'> +1.0976283e-12 </wgt>
<wgt id='1879'> +1.1512429e-12 </wgt>
<wgt id='1880'> +1.2655631e-12 </wgt>
<wgt id='1881'> +1.0927419e-12 </wgt>
<wgt id='1882'> +1.1369449e-12 </wgt>
<wgt id='1883'> +1.4808406e-12 </wgt>
<wgt id='1884'> +1.1100052e-12 </wgt>
<wgt id='1885'> +1.2391207e-12 </wgt>
<wgt id='1886'> +1.1568229e-12 </wgt>
<wgt id='1887'> +1.2472868e-12 </wgt>
<wgt id='1888'> +1.3966266e-12 </wgt>
<wgt id='1889'> +1.5030600e-12 </wgt>
<wgt id='1890'> +1.1645156e-12 </wgt>
<wgt id='1891'> +1.0815914e-12 </wgt>
<wgt id='1892'> +1.4114686e-12 </wgt>
<wgt id='1893'> +1.2683808e-12 </wgt>
<wgt id='1894'> +1.1899398e-12 </wgt>
<wgt id='1895'> +1.2468538e-12 </wgt>
<wgt id='1896'> +1.1313636e-12 </wgt>
<wgt id='1897'> +1.1621676e-12 </wgt>
<wgt id='1898'> +1.0810145e-12 </wgt>
<wgt id='1899'> +1.1539360e-12 </wgt>
<wgt id='1900'> +1.0949695e-12 </wgt>
<wgt id='1901'> +1.1112025e-12 </wgt>
<wgt id='1902'> +1.1848423e-12 </wgt>
<wgt id='1903'> +1.1804855e-12 </wgt>
<wgt id='1904'> +1.0917963e-12 </wgt>
<wgt id='1905'> +1.2027291e-12 </wgt>
<wgt id='1906'> +1.1199583e-12 </wgt>
<wgt id='1907'> +1.0591556e-12 </wgt>
<wgt id='1908'> +1.1708496e-12 </wgt>
<wgt id='1909'> +1.1331176e-12 </wgt>
<wgt id='1910'> +1.1658546e-12 </wgt>
<wgt id='1911'> +1.0610607e-12 </wgt>
<wgt id='1912'> +1.2502273e-12 </wgt>
<wgt id='1913'> +1.1383083e-12 </wgt>
<wgt id='1914'> +1.0980811e-12 </wgt>
<wgt id='1915'> +1.0558361e-12 </wgt>
<wgt id='1916'> +1.0055170e-12 </wgt>
<wgt id='1917'> +1.1281075e-12 </wgt>
<wgt id='1918'> +1.1588059e-12 </wgt>
<wgt id='1919'> +1.1843785e-12 </wgt>
</rwgt>
</event>
<event>
 9      1 +1.5538000e-12 3.36383500e+01 7.81860800e-03 1.41612300e-01
        4 -1    0    0  502    0 -0.0000000000e+00 +0.0000000000e+00 +3.8743741876e+02 3.8744002097e+02 0.0000000000e+00 0.0000e+00 -1.0000e+00
       21 -1    0    0  501  502 +0.0000000000e+00 -0.0000000000e+00 -2.6364752712e+00 2.6364752712e+00 1.4200000000e+00 0.0000e+00 -1.0000e+00
     1023  2    1    2    0    0 +2.4628244834e+01 +1.7319152027e+01 +2.1652432711e+02 2.1912170840e+02 1.5001179579e+01 0.0000e+00 0.0000e+00
  1000023  2    3    3    0    0 +1.2254611198e+01 +4.4715325971e+00 +6.8884302786e+01 7.0324044042e+01 5.5003545999e+00 0.0000e+00 0.0000e+00
        4  1    1    2  501    0 -2.4628244834e+01 -1.7319152027e+01 +1.6827661637e+02 1.7095478785e+02 1.4200000000e+00 0.0000e+00 -1.0000e+00
  1000022  1    4    4    0    0 +1.1279649765e+01 +3.8861579059e+00 +6.1194442404e+01 6.2546722562e+01 5.0000000000e+00 0.0000e+00 -1.0000e+00
      -13  1    4    4    0    0 +5.3979727821e-01 +2.7434137761e-01 +3.7867361713e+00 3.8362986868e+00 1.0570000000e-01 0.0000e+00 1.0000e+00
       13  1    4    4    0    0 +4.3516415465e-01 +3.1103331363e-01 +3.9031242104e+00 3.9410227930e+00 1.0570000000e-01 0.0000e+00 -1.0000e+00
  1000022  1    3    3    0    0 +1.2373633636e+01 +1.2847619430e+01 +1.4764002433e+02 1.4879766435e+02 5.0000000000e+00 0.0000e+00 -1.0000e+00
<mgrwt>
<rscale>  1 0.33638354E+02</rscale>
<asrwt>0</asrwt>
<pdfrwt beam="1">  1       21 0.40561199E-03 0.33638354E+02</pdfrwt>
<pdfrwt beam="2">  1        4 0.59635313E-01 0.33638354E+02</pdfrwt>
<totfact> 0.10202775E+06</totfact>
</mgrwt>
<rwgt>
<wgt id='1001'> +1.5538000e-12 </wgt>
<wgt id='1002'> +1.7057061e-12 </wgt>
<wgt id='1003'> +1.7114380e-12 </wgt>
<wgt id='1004'> +1.5323586e-12 </wgt>
<wgt id='1005'> +1.7152610e-12 </wgt>
<wgt id='1006'> +1.3638062e-12 </wgt>
<wgt id='1007'> +1.5181430e-12 </wgt>
<wgt id='1008'> +1.5241091e-12 </wgt>
<wgt id='1009'> +1.3424891e-12 </wgt>
<wgt id='1010'> +1.5280952e-12 </wgt>
<wgt id='1011'> +1.8082870e-12 </wgt>
<wgt id='1012'> +1.9484020e-12 </wgt>
<wgt id='1013'> +1.9534882e-12 </wgt>
<wgt id='1014'> +1.7878438e-12 </wgt>
<wgt id='1015'> +1.9568670e-12 </wgt>
<wgt id='1016'> +1.9659121e-12 </wgt>
<wgt id='1017'> +2.0480896e-12 </wgt>
<wgt id='1018'> +2.0509510e-12 </wgt>
<wgt id='1019'> +1.9534882e-12 </wgt>
<wgt id='1020'> +2.0528475e-12 </wgt>
<wgt id='1021'> +1.7255265e-12 </wgt>
<wgt id='1022'> +1.8228773e-12 </wgt>
<wgt id='1023'> +1.8264600e-12 </wgt>
<wgt id='1024'> +1.7114380e-12 </wgt>
<wgt id='1025'> +1.8288450e-12 </wgt>
<wgt id='1026'> +2.2878963e-12 </wgt>
<wgt id='1027'> +2.3395014e-12 </wgt>
<wgt id='1028'> +2.3410188e-12 </wgt>
<wgt id='1029'> +2.2791870e-12 </wgt>
<wgt id='1030'> +2.3420048e-12 </wgt>
<wgt id='1031'> +1.1165322e-12 </wgt>
<wgt id='1032'> +1.3338499e-12 </wgt>
<wgt id='1033'> +1.3424891e-12 </wgt>
<wgt id='1034'> +1.0872716e-12 </wgt>
<wgt id='1035'> +1.3482597e-12 </wgt>
<wgt id='1036'> +9.8000617e-13 </wgt>
<wgt id='1037'> +1.1871769e-12 </wgt>
<wgt id='1038'> +1.1955443e-12 </wgt>
<wgt id='1039'> +9.5255139e-13 </wgt>
<wgt id='1040'> +1.2011404e-12 </wgt>
<wgt id='1041'> +1.2994019e-12 </wgt>
<wgt id='1042'> +1.5236363e-12 </wgt>
<wgt id='1043'> +1.5323586e-12 </wgt>
<wgt id='1044'> +1.2685489e-12 </wgt>
<wgt id='1045'> +1.5381711e-12 </wgt>
<wgt id='1046'> +1.5538000e-12 </wgt>
<wgt id='1047'> +1.1975195e-12 </wgt>
<wgt id='1048'> +1.6519981e-12 </wgt>
<wgt id='1049'> +1.5505193e-12 </wgt>
<wgt id='1050'> +1.6035524e-12 </wgt>
<wgt id='1051'> +1.5370327e-12 </wgt>
<wgt id='1052'> +1.5560598e-12 </wgt>
<wgt id='1053'> +1.5561965e-12 </wgt>
<wgt id='1054'> +1.6625761e-12 </wgt>
<wgt id='1055'> +1.4996655e-12 </wgt>
<wgt id='1056'> +1.5977341e-12 </wgt>
<wgt id='1057'> +1.6343742e-12 </wgt>
<wgt id='1058'> +1.5761608e-12 </wgt>
<wgt id='1059'> +1.6516257e-12 </wgt>
<wgt id='1060'> +1.6049500e-12 </wgt>
<wgt id='1061'> +1.5046615e-12 </wgt>
<wgt id='1062'> +1.5788062e-12 </wgt>
<wgt id='1063'> +1.4506987e-12 </wgt>
<wgt id='1064'> +1.6217239e-12 </wgt>
<wgt id='1065'> +1.4484796e-12 </wgt>
<wgt id='1066'> +1.6036604e-12 </wgt>
<wgt id='1067'> +1.4644041e-12 </wgt>
<wgt id='1068'> +1.3862627e-12 </wgt>
<wgt id='1069'> +1.4575080e-12 </wgt>
<wgt id='1070'> +1.5531297e-12 </wgt>
<wgt id='1071'> +1.5772646e-12 </wgt>
<wgt id='1072'> +1.4474501e-12 </wgt>
<wgt id='1073'> +1.3569376e-12 </wgt>
<wgt id='1074'> +1.5073826e-12 </wgt>
<wgt id='1075'> +1.5462188e-12 </wgt>
<wgt id='1076'> +1.6387861e-12 </wgt>
<wgt id='1077'> +1.4634483e-12 </wgt>
<wgt id='1078'> +1.8898721e-12 </wgt>
<wgt id='1079'> +1.5113501e-12 </wgt>
<wgt id='1080'> +1.6130834e-12 </wgt>
<wgt id='1081'> +1.5729059e-12 </wgt>
<wgt id='1082'> +1.4944058e-12 </wgt>
<wgt id='1083'> +1.4466630e-12 </wgt>
<wgt id='1084'> +1.6088108e-12 </wgt>
<wgt id='1085'> +1.4543013e-12 </wgt>
<wgt id='1086'> +1.6274546e-12 </wgt>
<wgt id='1087'> +1.4448732e-12 </wgt>
<wgt id='1088'> +1.6131299e-12 </wgt>
<wgt id='1089'> +1.4015225e-12 </wgt>
<wgt id='1090'> +1.3726274e-12 </wgt>
<wgt id='1091'> +1.5643707e-12 </wgt>
<wgt id='1092'> +1.5099966e-12 </wgt>
<wgt id='1093'> +1.6379976e-12 </wgt>
<wgt id='1094'> +1.6683047e-12 </wgt>
<wgt id='1095'> +1.5232961e-12 </wgt>
<wgt id='1096'> +1.5330259e-12 </wgt>
<wgt id='1097'> +1.5047968e-12 </wgt>
<wgt id='1098'> +1.6165278e-12 </wgt>
<wgt id='1099'> +1.7593374e-12 </wgt>
<wgt id='1100'> +1.4452623e-12 </wgt>
<wgt id='1101'> +1.3965225e-12 </wgt>
<wgt id='1102'> +1.4664045e-12 </wgt>
<wgt id='1103'> +1.3055112e-12 </wgt>
<wgt id='1104'> +1.4766132e-12 </wgt>
<wgt id='1105'> +1.5428495e-12 </wgt>
<wgt id='1106'> +1.2885769e-12 </wgt>
<wgt id='1107'> +1.5428657e-12 </wgt>
<wgt id='1108'> +1.5618388e-12 </wgt>
<wgt id='1109'> +1.4736865e-12 </wgt>
<wgt id='1110'> +1.7772150e-12 </wgt>
<wgt id='1111'> +1.5004508e-12 </wgt>
<wgt id='1112'> +1.5878636e-12 </wgt>
<wgt id='1113'> +1.4440453e-12 </wgt>
<wgt id='1114'> +1.5308665e-12 </wgt>
<wgt id='1115'> +1.6184464e-12 </wgt>
<wgt id='1116'> +1.7446068e-12 </wgt>
<wgt id='1117'> +1.4728683e-12 </wgt>
<wgt id='1118'> +1.4792752e-12 </wgt>
<wgt id='1119'> +1.9105264e-12 </wgt>
<wgt id='1120'> +1.8192130e-12 </wgt>
<wgt id='1121'> +1.5973729e-12 </wgt>
<wgt id='1122'> +1.2619083e-12 </wgt>
<wgt id='1123'> +1.7494058e-12 </wgt>
<wgt id='1124'> +1.5121630e-12 </wgt>
<wgt id='1125'> +1.5922139e-12 </wgt>
<wgt id='1126'> +1.5924355e-12 </wgt>
<wgt id='1127'> +1.6027876e-12 </wgt>
<wgt id='1128'> +1.5788062e-12 </wgt>
<wgt id='1129'> +1.6890273e-12 </wgt>
<wgt id='1130'> +1.6191692e-12 </wgt>
<wgt id='1131'> +1.5818184e-12 </wgt>
<wgt id='1132'> +1.4598874e-12 </wgt>
<wgt id='1133'> +1.5790550e-12 </wgt>
<wgt id='1134'> +1.6173602e-12 </wgt>
<wgt id='1135'> +1.9307221e-12 </wgt>
<wgt id='1136'> +1.5775040e-12 </wgt>
<wgt id='1137'> +1.4182471e-12 </wgt>
<wgt id='1138'> +1.7229765e-12 </wgt>
<wgt id='1139'> +1.5888462e-12 </wgt>
<wgt id='1140'> +1.6914703e-12 </wgt>
<wgt id='1141'> +1.5905970e-12 </wgt>
<wgt id='1142'> +1.5154518e-12 </wgt>
<wgt id='1143'> +1.4097474e-12 </wgt>
<wgt id='1144'> +1.5755099e-12 </wgt>
<wgt id='1145'> +1.6638216e-12 </wgt>
<wgt id='1146'> +1.4254495e-12 </wgt>
<wgt id='1147'> +1.4020931e-12 </wgt>
<wgt id='1148'> +1.4428958e-12 </wgt>
<wgt id='1149'> +1.5409429e-12 </wgt>
<wgt id='1150'> +1.4477797e-12 </wgt>
<wgt id='1151'> +1.4641729e-12 </wgt>
<wgt id='1152'> +2.4228336e-12 </wgt>
<wgt id='1153'> +2.4104062e-12 </wgt>
<wgt id='1154'> +2.4300227e-12 </wgt>
<wgt id='1155'> +2.4243069e-12 </wgt>
<wgt id='1156'> +2.4221161e-12 </wgt>
<wgt id='1157'> +2.4150980e-12 </wgt>
<wgt id='1158'> +2.4331888e-12 </wgt>
<wgt id='1159'> +2.4163452e-12 </wgt>
<wgt id='1160'> +2.4269820e-12 </wgt>
<wgt id='1161'> +2.4073473e-12 </wgt>
<wgt id='1162'> +2.4334687e-12 </wgt>
<wgt id='1163'> +2.4328216e-12 </wgt>
<wgt id='1164'> +2.4128558e-12 </wgt>
<wgt id='1165'> +2.3998501e-12 </wgt>
<wgt id='1166'> +2.4450452e-12 </wgt>
<wgt id='1167'> +2.4277319e-12 </wgt>
<wgt id='1168'> +2.4123060e-12 </wgt>
<wgt id='1169'> +2.4242663e-12 </wgt>
<wgt id='1170'> +2.4218044e-12 </wgt>
<wgt id='1171'> +2.4243810e-12 </wgt>
<wgt id='1172'> +2.4207950e-12 </wgt>
<wgt id='1173'> +2.4251271e-12 </wgt>
<wgt id='1174'> +2.4185534e-12 </wgt>
<wgt id='1175'> +2.4166504e-12 </wgt>
<wgt id='1176'> +2.4261055e-12 </wgt>
<wgt id='1177'> +2.4238510e-12 </wgt>
<wgt id='1178'> +2.4214131e-12 </wgt>
<wgt id='1179'> +2.4531497e-12 </wgt>
<wgt id='1180'> +2.3860857e-12 </wgt>
<wgt id='1181'> +2.4101961e-12 </wgt>
<wgt id='1182'> +2.4360863e-12 </wgt>
<wgt id='1183'> +2.4229582e-12 </wgt>
<wgt id='1184'> +2.4229231e-12 </wgt>
<wgt id='1185'> +2.4336811e-12 </wgt>
<wgt id='1186'> +2.4176912e-12 </wgt>
<wgt id='1187'> +2.4220165e-12 </wgt>
<wgt id='1188'> +2.4231045e-12 </wgt>
<wgt id='1189'> +2.4342130e-12 </wgt>
<wgt id='1190'> +2.3790413e-12 </wgt>
<wgt id='1191'> +2.3875630e-12 </wgt>
<wgt id='1192'> +2.4488628e-12 </wgt>
<wgt id='1193'> +1.4894371e-12 </wgt>
<wgt id='1194'> +1.4800244e-12 </wgt>
<wgt id='1195'> +1.4970747e-12 </wgt>
<wgt id='1196'> +1.4904414e-12 </wgt>
<wgt id='1197'> +1.4883622e-12 </wgt>
<wgt id='1198'> +1.4926307e-12 </wgt>
<wgt id='1199'> +1.4847260e-12 </wgt>
<wgt id='1200'> +1.4911112e-12 </wgt>
<wgt id='1201'> +1.4883637e-12 </wgt>
<wgt id='1202'> +1.4845886e-12 </wgt>
<wgt id='1203'> +1.4963770e-12 </wgt>
<wgt id='1204'> +1.4612088e-12 </wgt>
<wgt id='1205'> +1.5069245e-12 </wgt>
<wgt id='1206'> +1.4963015e-12 </wgt>
<wgt id='1207'> +1.4800981e-12 </wgt>
<wgt id='1208'> +1.4813975e-12 </wgt>
<wgt id='1209'> +1.4924441e-12 </wgt>
<wgt id='1210'> +1.4773761e-12 </wgt>
<wgt id='1211'> +1.4974787e-12 </wgt>
<wgt id='1212'> +1.4886593e-12 </wgt>
<wgt id='1213'> +1.4904407e-12 </wgt>
<wgt id='1214'> +1.4953671e-12 </wgt>
<wgt id='1215'> +1.4732475e-12 </wgt>
<wgt id='1216'> +1.4833130e-12 </wgt>
<wgt id='1217'> +1.4923815e-12 </wgt>
<wgt id='1218'> +1.4908267e-12 </wgt>
<wgt id='1219'> +1.4883388e-12 </wgt>
<wgt id='1220'> +1.4940075e-12 </wgt>
<wgt id='1221'> +1.4917755e-12 </wgt>
<wgt id='1222'> +1.4937524e-12 </wgt>
<wgt id='1223'> +1.4880402e-12 </wgt>
<wgt id='1224'> +1.4880810e-12 </wgt>
<wgt id='1225'> +1.4899949e-12 </wgt>
<wgt id='1226'> +1.4903300e-12 </wgt>
<wgt id='1227'> +1.4891213e-12 </wgt>
<wgt id='1228'> +1.4901163e-12 </wgt>
<wgt id='1229'> +1.4884160e-12 </wgt>
<wgt id='1230'> +1.5182283e-12 </wgt>
<wgt id='1231'> +1.4680995e-12 </wgt>
<wgt id='1232'> +1.4901660e-12 </wgt>
<wgt id='1233'> +1.4892795e-12 </wgt>
<wgt id='1234'> +1.4894371e-12 </wgt>
<wgt id='1235'> +1.4776809e-12 </wgt>
<wgt id='1236'> +1.4821575e-12 </wgt>
<wgt id='1237'> +1.4859520e-12 </wgt>
<wgt id='1238'> +1.4929525e-12 </wgt>
<wgt id='1239'> +1.4955243e-12 </wgt>
<wgt id='1240'> +1.4980456e-12 </wgt>
<wgt id='1241'> +1.4523560e-12 </wgt>
<wgt id='1242'> +1.4409922e-12 </wgt>
<wgt id='1243'> +1.4635591e-12 </wgt>
<wgt id='1244'> +1.4468774e-12 </wgt>
<wgt id='1245'> +1.4564710e-12 </wgt>
<wgt id='1246'> +1.4539344e-12 </wgt>
<wgt id='1247'> +1.4511003e-12 </wgt>
<wgt id='1248'> +1.4522077e-12 </wgt>
<wgt id='1249'> +1.4525471e-12 </wgt>
<wgt id='1250'> +1.4473455e-12 </wgt>
<wgt id='1251'> +1.4559481e-12 </wgt>
<wgt id='1252'> +1.4492853e-12 </wgt>
<wgt id='1253'> +1.4547886e-12 </wgt>
<wgt id='1254'> +1.4277780e-12 </wgt>
<wgt id='1255'> +1.4672302e-12 </wgt>
<wgt id='1256'> +1.4582037e-12 </wgt>
<wgt id='1257'> +1.4377321e-12 </wgt>
<wgt id='1258'> +1.4385077e-12 </wgt>
<wgt id='1259'> +1.4612905e-12 </wgt>
<wgt id='1260'> +1.4523381e-12 </wgt>
<wgt id='1261'> +1.4530835e-12 </wgt>
<wgt id='1262'> +1.4500617e-12 </wgt>
<wgt id='1263'> +1.4532478e-12 </wgt>
<wgt id='1264'> +1.4596481e-12 </wgt>
<wgt id='1265'> +1.4491141e-12 </wgt>
<wgt id='1266'> +1.4542271e-12 </wgt>
<wgt id='1267'> +1.4530352e-12 </wgt>
<wgt id='1268'> +1.4538510e-12 </wgt>
<wgt id='1269'> +1.4564891e-12 </wgt>
<wgt id='1270'> +1.4611987e-12 </wgt>
<wgt id='1271'> +1.4516257e-12 </wgt>
<wgt id='1272'> +1.4555591e-12 </wgt>
<wgt id='1273'> +1.4520689e-12 </wgt>
<wgt id='1274'> +1.4525928e-12 </wgt>
<wgt id='1275'> +1.4520656e-12 </wgt>
<wgt id='1276'> +1.4488490e-12 </wgt>
<wgt id='1277'> +1.4549398e-12 </wgt>
<wgt id='1278'> +1.4429241e-12 </wgt>
<wgt id='1279'> +1.4667529e-12 </wgt>
<wgt id='1280'> +1.4516528e-12 </wgt>
<wgt id='1281'> +1.4597106e-12 </wgt>
<wgt id='1282'> +1.4523560e-12 </wgt>
<wgt id='1283'> +1.4404743e-12 </wgt>
<wgt id='1284'> +1.4453125e-12 </wgt>
<wgt id='1285'> +1.4491547e-12 </wgt>
<wgt id='1286'> +1.4557388e-12 </wgt>
<wgt id='1287'> +1.4580562e-12 </wgt>
<wgt id='1288'> +1.4600615e-12 </wgt>
<wgt id='1289'> +1.5232380e-12 </wgt>
<wgt id='1290'> +1.5282551e-12 </wgt>
<wgt id='1291'> +1.5178457e-12 </wgt>
<wgt id='1292'> +1.5244185e-12 </wgt>
<wgt id='1293'> +1.5224062e-12 </wgt>
<wgt id='1294'> +1.5178953e-12 </wgt>
<wgt id='1295'> +1.5282398e-12 </wgt>
<wgt id='1296'> +1.5206617e-12 </wgt>
<wgt id='1297'> +1.5263330e-12 </wgt>
<wgt id='1298'> +1.5373371e-12 </wgt>
<wgt id='1299'> +1.5057312e-12 </wgt>
<wgt id='1300'> +1.5288758e-12 </wgt>
<wgt id='1301'> +1.5119669e-12 </wgt>
<wgt id='1302'> +1.5210539e-12 </wgt>
<wgt id='1303'> +1.5262907e-12 </wgt>
<wgt id='1304'> +1.5184028e-12 </wgt>
<wgt id='1305'> +1.5265580e-12 </wgt>
<wgt id='1306'> +1.5109229e-12 </wgt>
<wgt id='1307'> +1.5371752e-12 </wgt>
<wgt id='1308'> +1.5183002e-12 </wgt>
<wgt id='1309'> +1.5270176e-12 </wgt>
<wgt id='1310'> +1.5191147e-12 </wgt>
<wgt id='1311'> +1.5278423e-12 </wgt>
<wgt id='1312'> +1.5117749e-12 </wgt>
<wgt id='1313'> +1.5353036e-12 </wgt>
<wgt id='1314'> +1.5133465e-12 </wgt>
<wgt id='1315'> +1.5276965e-12 </wgt>
<wgt id='1316'> +1.5303303e-12 </wgt>
<wgt id='1317'> +1.5253458e-12 </wgt>
<wgt id='1318'> +1.5218672e-12 </wgt>
<wgt id='1319'> +1.5236162e-12 </wgt>
<wgt id='1320'> +1.5105705e-12 </wgt>
<wgt id='1321'> +1.5303917e-12 </wgt>
<wgt id='1322'> +1.5262711e-12 </wgt>
<wgt id='1323'> +1.5189900e-12 </wgt>
<wgt id='1324'> +1.5260080e-12 </wgt>
<wgt id='1325'> +1.5231229e-12 </wgt>
<wgt id='1326'> +1.5264264e-12 </wgt>
<wgt id='1327'> +1.5238540e-12 </wgt>
<wgt id='1328'> +1.5182483e-12 </wgt>
<wgt id='1329'> +1.5279064e-12 </wgt>
<wgt id='1330'> +1.5183273e-12 </wgt>
<wgt id='1331'> +1.5300202e-12 </wgt>
<wgt id='1332'> +1.5539614e-12 </wgt>
<wgt id='1333'> +1.5183496e-12 </wgt>
<wgt id='1334'> +1.5219539e-12 </wgt>
<wgt id='1335'> +1.5274629e-12 </wgt>
<wgt id='1336'> +1.5413986e-12 </wgt>
<wgt id='1337'> +1.5050944e-12 </wgt>
<wgt id='1338'> +1.5283825e-12 </wgt>
<wgt id='1339'> +1.5209079e-12 </wgt>
<wgt id='1340'> +1.4621835e-12 </wgt>
<wgt id='1341'> +1.4670617e-12 </wgt>
<wgt id='1342'> +1.4569642e-12 </wgt>
<wgt id='1343'> +1.4635097e-12 </wgt>
<wgt id='1344'> +1.4612939e-12 </wgt>
<wgt id='1345'> +1.4564027e-12 </wgt>
<wgt id='1346'> +1.4674490e-12 </wgt>
<wgt id='1347'> +1.4598671e-12 </wgt>
<wgt id='1348'> +1.4647531e-12 </wgt>
<wgt id='1349'> +1.4752028e-12 </wgt>
<wgt id='1350'> +1.4495167e-12 </wgt>
<wgt id='1351'> +1.4678578e-12 </wgt>
<wgt id='1352'> +1.4499059e-12 </wgt>
<wgt id='1353'> +1.4589988e-12 </wgt>
<wgt id='1354'> +1.4678339e-12 </wgt>
<wgt id='1355'> +1.4575322e-12 </wgt>
<wgt id='1356'> +1.4647980e-12 </wgt>
<wgt id='1357'> +1.4484999e-12 </wgt>
<wgt id='1358'> +1.4783506e-12 </wgt>
<wgt id='1359'> +1.4605140e-12 </wgt>
<wgt id='1360'> +1.4636457e-12 </wgt>
<wgt id='1361'> +1.4584541e-12 </wgt>
<wgt id='1362'> +1.4673294e-12 </wgt>
<wgt id='1363'> +1.4490418e-12 </wgt>
<wgt id='1364'> +1.4718702e-12 </wgt>
<wgt id='1365'> +1.4724207e-12 </wgt>
<wgt id='1366'> +1.4431774e-12 </wgt>
<wgt id='1367'> +1.4690819e-12 </wgt>
<wgt id='1368'> +1.4630236e-12 </wgt>
<wgt id='1369'> +1.4616847e-12 </wgt>
<wgt id='1370'> +1.4623354e-12 </wgt>
<wgt id='1371'> +1.4553778e-12 </wgt>
<wgt id='1372'> +1.4681833e-12 </wgt>
<wgt id='1373'> +1.4674664e-12 </wgt>
<wgt id='1374'> +1.4565042e-12 </wgt>
<wgt id='1375'> +1.4645249e-12 </wgt>
<wgt id='1376'> +1.4620932e-12 </wgt>
<wgt id='1377'> +1.4656956e-12 </wgt>
<wgt id='1378'> +1.4629149e-12 </wgt>
<wgt id='1379'> +1.4576856e-12 </wgt>
<wgt id='1380'> +1.4671516e-12 </wgt>
<wgt id='1381'> +1.4587022e-12 </wgt>
<wgt id='1382'> +1.4669799e-12 </wgt>
<wgt id='1383'> +1.4905276e-12 </wgt>
<wgt id='1384'> +1.4574582e-12 </wgt>
<wgt id='1385'> +1.4607895e-12 </wgt>
<wgt id='1386'> +1.4662344e-12 </wgt>
<wgt id='1387'> +1.4813269e-12 </wgt>
<wgt id='1388'> +1.4453055e-12 </wgt>
<wgt id='1389'> +1.4700147e-12 </wgt>
<wgt id='1390'> +1.4588487e-12 </wgt>
<wgt id='1391'> +1.4693797e-12 </wgt>
<wgt id='1392'> +1.3832017e-12 </wgt>
<wgt id='1393'> +1.4116921e-12 </wgt>
<wgt id='1394'> +1.4406597e-12 </wgt>
<wgt id='1395'> +1.4999477e-12 </wgt>
<wgt id='1396'> +1.4696188e-12 </wgt>
<wgt id='1397'> +1.5983870e-12 </wgt>
<wgt id='1398'> +1.5684940e-12 </wgt>
<wgt id='1399'> +1.5410835e-12 </wgt>
<wgt id='1400'> +1.5159975e-12 </wgt>
<wgt id='1401'> +1.4921610e-12 </wgt>
<wgt id='1402'> +1.4488356e-12 </wgt>
<wgt id='1403'> +1.4290345e-12 </wgt>
<wgt id='1404'> +1.4101995e-12 </wgt>
<wgt id='1405'> +1.4696188e-12 </wgt>
<wgt id='1406'> +1.4607310e-12 </wgt>
<wgt id='1407'> +1.4652066e-12 </wgt>
<wgt id='1408'> +1.4738336e-12 </wgt>
<wgt id='1409'> +1.4776189e-12 </wgt>
<wgt id='1410'> +1.4158351e-12 </wgt>
<wgt id='1411'> +1.4217490e-12 </wgt>
<wgt id='1412'> +1.4082136e-12 </wgt>
<wgt id='1413'> +1.4157663e-12 </wgt>
<wgt id='1414'> +1.4158628e-12 </wgt>
<wgt id='1415'> +1.4164690e-12 </wgt>
<wgt id='1416'> +1.4155625e-12 </wgt>
<wgt id='1417'> +1.4085856e-12 </wgt>
<wgt id='1418'> +1.4230514e-12 </wgt>
<wgt id='1419'> +1.4216540e-12 </wgt>
<wgt id='1420'> +1.4102656e-12 </wgt>
<wgt id='1421'> +1.3897890e-12 </wgt>
<wgt id='1422'> +1.4270739e-12 </wgt>
<wgt id='1423'> +1.4153412e-12 </wgt>
<wgt id='1424'> +1.4164256e-12 </wgt>
<wgt id='1425'> +1.4079685e-12 </wgt>
<wgt id='1426'> +1.4242954e-12 </wgt>
<wgt id='1427'> +1.3935073e-12 </wgt>
<wgt id='1428'> +1.4279858e-12 </wgt>
<wgt id='1429'> +1.4136829e-12 </wgt>
<wgt id='1430'> +1.4189161e-12 </wgt>
<wgt id='1431'> +1.4163386e-12 </wgt>
<wgt id='1432'> +1.4153912e-12 </wgt>
<wgt id='1433'> +1.4191506e-12 </wgt>
<wgt id='1434'> +1.4098583e-12 </wgt>
<wgt id='1435'> +1.4196508e-12 </wgt>
<wgt id='1436'> +1.4070229e-12 </wgt>
<wgt id='1437'> +1.4238126e-12 </wgt>
<wgt id='1438'> +1.4172379e-12 </wgt>
<wgt id='1439'> +1.4154330e-12 </wgt>
<wgt id='1440'> +1.4115719e-12 </wgt>
<wgt id='1441'> +1.4133393e-12 </wgt>
<wgt id='1442'> +1.4216850e-12 </wgt>
<wgt id='1443'> +1.4163846e-12 </wgt>
<wgt id='1444'> +1.4176976e-12 </wgt>
<wgt id='1445'> +1.4150019e-12 </wgt>
<wgt id='1446'> +1.4186135e-12 </wgt>
<wgt id='1447'> +1.4165365e-12 </wgt>
<wgt id='1448'> +1.4194298e-12 </wgt>
<wgt id='1449'> +1.4101983e-12 </wgt>
<wgt id='1450'> +1.4197456e-12 </wgt>
<wgt id='1451'> +1.4135354e-12 </wgt>
<wgt id='1452'> +1.4225842e-12 </wgt>
<wgt id='1453'> +1.4170893e-12 </wgt>
<wgt id='1454'> +1.4086683e-12 </wgt>
<wgt id='1455'> +1.4028974e-12 </wgt>
<wgt id='1456'> +1.4356133e-12 </wgt>
<wgt id='1457'> +1.4263137e-12 </wgt>
<wgt id='1458'> +1.4127177e-12 </wgt>
<wgt id='1459'> +1.4129156e-12 </wgt>
<wgt id='1460'> +1.4292071e-12 </wgt>
<wgt id='1461'> +1.4158351e-12 </wgt>
<wgt id='1462'> +1.3911422e-12 </wgt>
<wgt id='1463'> +1.4350885e-12 </wgt>
<wgt id='1464'> +1.4128855e-12 </wgt>
<wgt id='1465'> +1.5392641e-12 </wgt>
<wgt id='1466'> +1.5095734e-12 </wgt>
<wgt id='1467'> +1.4823281e-12 </wgt>
<wgt id='1468'> +1.4598339e-12 </wgt>
<wgt id='1469'> +1.4350575e-12 </wgt>
<wgt id='1470'> +1.3919968e-12 </wgt>
<wgt id='1471'> +1.3710494e-12 </wgt>
<wgt id='1472'> +1.3522666e-12 </wgt>
<wgt id='1473'> +1.4128855e-12 </wgt>
<wgt id='1474'> +1.4038354e-12 </wgt>
<wgt id='1475'> +1.4090870e-12 </wgt>
<wgt id='1476'> +1.4167217e-12 </wgt>
<wgt id='1477'> +1.4202737e-12 </wgt>
<wgt id='1478'> +1.4418533e-12 </wgt>
<wgt id='1479'> +1.4463570e-12 </wgt>
<wgt id='1480'> +1.4506555e-12 </wgt>
<wgt id='1481'> +1.4470728e-12 </wgt>
<wgt id='1482'> +1.4557971e-12 </wgt>
<wgt id='1483'> +1.4193047e-12 </wgt>
<wgt id='1484'> +1.4447405e-12 </wgt>
<wgt id='1485'> +1.4814432e-12 </wgt>
<wgt id='1486'> +1.4404742e-12 </wgt>
<wgt id='1487'> +1.4603898e-12 </wgt>
<wgt id='1488'> +1.4343158e-12 </wgt>
<wgt id='1489'> +1.4302327e-12 </wgt>
<wgt id='1490'> +1.4476754e-12 </wgt>
<wgt id='1491'> +1.4434673e-12 </wgt>
<wgt id='1492'> +1.4334652e-12 </wgt>
<wgt id='1493'> +1.4357605e-12 </wgt>
<wgt id='1494'> +1.4439844e-12 </wgt>
<wgt id='1495'> +1.4653026e-12 </wgt>
<wgt id='1496'> +1.4375349e-12 </wgt>
<wgt id='1497'> +1.4517852e-12 </wgt>
<wgt id='1498'> +1.4359652e-12 </wgt>
<wgt id='1499'> +1.4489978e-12 </wgt>
<wgt id='1500'> +1.4404723e-12 </wgt>
<wgt id='1501'> +1.4374238e-12 </wgt>
<wgt id='1502'> +1.4431887e-12 </wgt>
<wgt id='1503'> +1.4485799e-12 </wgt>
<wgt id='1504'> +1.4442238e-12 </wgt>
<wgt id='1505'> +1.4397096e-12 </wgt>
<wgt id='1506'> +1.4463042e-12 </wgt>
<wgt id='1507'> +1.4416027e-12 </wgt>
<wgt id='1508'> +1.4622076e-12 </wgt>
<wgt id='1509'> +1.2338349e-12 </wgt>
<wgt id='1510'> +1.2332061e-12 </wgt>
<wgt id='1511'> +1.2159510e-12 </wgt>
<wgt id='1512'> +1.2211534e-12 </wgt>
<wgt id='1513'> +1.2351312e-12 </wgt>
<wgt id='1514'> +1.2363514e-12 </wgt>
<wgt id='1515'> +1.2337372e-12 </wgt>
<wgt id='1516'> +1.2466210e-12 </wgt>
<wgt id='1517'> +1.2357004e-12 </wgt>
<wgt id='1518'> +1.2200367e-12 </wgt>
<wgt id='1519'> +1.2413624e-12 </wgt>
<wgt id='1520'> +1.2412496e-12 </wgt>
<wgt id='1521'> +1.2300344e-12 </wgt>
<wgt id='1522'> +1.2385659e-12 </wgt>
<wgt id='1523'> +1.2167110e-12 </wgt>
<wgt id='1524'> +1.2275182e-12 </wgt>
<wgt id='1525'> +1.2146861e-12 </wgt>
<wgt id='1526'> +1.2435526e-12 </wgt>
<wgt id='1527'> +1.2441455e-12 </wgt>
<wgt id='1528'> +1.2374783e-12 </wgt>
<wgt id='1529'> +1.2438408e-12 </wgt>
<wgt id='1530'> +1.2193423e-12 </wgt>
<wgt id='1531'> +1.2282810e-12 </wgt>
<wgt id='1532'> +1.2624432e-12 </wgt>
<wgt id='1533'> +1.2235683e-12 </wgt>
<wgt id='1534'> +1.2365005e-12 </wgt>
<wgt id='1535'> +1.2640852e-12 </wgt>
<wgt id='1536'> +1.2227005e-12 </wgt>
<wgt id='1537'> +1.2239477e-12 </wgt>
<wgt id='1538'> +1.2600802e-12 </wgt>
<wgt id='1539'> +1.2248718e-12 </wgt>
<wgt id='1540'> +1.2262500e-12 </wgt>
<wgt id='1541'> +1.2286043e-12 </wgt>
<wgt id='1542'> +1.2341643e-12 </wgt>
<wgt id='1543'> +1.2464146e-12 </wgt>
<wgt id='1544'> +1.2073669e-12 </wgt>
<wgt id='1545'> +1.2370848e-12 </wgt>
<wgt id='1546'> +1.2515598e-12 </wgt>
<wgt id='1547'> +1.2264563e-12 </wgt>
<wgt id='1548'> +1.2379970e-12 </wgt>
<wgt id='1549'> +1.2327177e-12 </wgt>
<wgt id='1550'> +1.2369692e-12 </wgt>
<wgt id='1551'> +1.2263300e-12 </wgt>
<wgt id='1552'> +1.2310662e-12 </wgt>
<wgt id='1553'> +1.2315613e-12 </wgt>
<wgt id='1554'> +1.2342275e-12 </wgt>
<wgt id='1555'> +1.2315695e-12 </wgt>
<wgt id='1556'> +1.2351747e-12 </wgt>
<wgt id='1557'> +1.2257587e-12 </wgt>
<wgt id='1558'> +1.2386228e-12 </wgt>
<wgt id='1559'> +1.2326511e-12 </wgt>
<wgt id='1560'> +1.2311020e-12 </wgt>
<wgt id='1561'> +1.2470862e-12 </wgt>
<wgt id='1562'> +1.2332338e-12 </wgt>
<wgt id='1563'> +1.2336027e-12 </wgt>
<wgt id='1564'> +1.2373438e-12 </wgt>
<wgt id='1565'> +1.2331785e-12 </wgt>
<wgt id='1566'> +1.2272498e-12 </wgt>
<wgt id='1567'> +1.2094913e-12 </wgt>
<wgt id='1568'> +1.2342474e-12 </wgt>
<wgt id='1569'> +1.2267191e-12 </wgt>
<wgt id='1570'> +1.2351306e-12 </wgt>
<wgt id='1571'> +1.2335707e-12 </wgt>
<wgt id='1572'> +1.2389872e-12 </wgt>
<wgt id='1573'> +1.2469599e-12 </wgt>
<wgt id='1574'> +1.2193058e-12 </wgt>
<wgt id='1575'> +1.2385576e-12 </wgt>
<wgt id='1576'> +1.2377645e-12 </wgt>
<wgt id='1577'> +1.2284915e-12 </wgt>
<wgt id='1578'> +1.2227305e-12 </wgt>
<wgt id='1579'> +1.2449401e-12 </wgt>
<wgt id='1580'> +1.2554362e-12 </wgt>
<wgt id='1581'> +1.2318750e-12 </wgt>
<wgt id='1582'> +1.2192017e-12 </wgt>
<wgt id='1583'> +1.2389742e-12 </wgt>
<wgt id='1584'> +1.2309736e-12 </wgt>
<wgt id='1585'> +1.2278015e-12 </wgt>
<wgt id='1586'> +1.2477866e-12 </wgt>
<wgt id='1587'> +1.2343166e-12 </wgt>
<wgt id='1588'> +1.2323987e-12 </wgt>
<wgt id='1589'> +1.2309524e-12 </wgt>
<wgt id='1590'> +1.2280979e-12 </wgt>
<wgt id='1591'> +1.2286476e-12 </wgt>
<wgt id='1592'> +1.2342322e-12 </wgt>
<wgt id='1593'> +1.2354679e-12 </wgt>
<wgt id='1594'> +1.2327551e-12 </wgt>
<wgt id='1595'> +1.2319228e-12 </wgt>
<wgt id='1596'> +1.2437647e-12 </wgt>
<wgt id='1597'> +1.2272760e-12 </wgt>
<wgt id='1598'> +1.2398190e-12 </wgt>
<wgt id='1599'> +1.2399934e-12 </wgt>
<wgt id='1600'> +1.2401783e-12 </wgt>
<wgt id='1601'> +1.2347679e-12 </wgt>
<wgt id='1602'> +1.2342132e-12 </wgt>
<wgt id='1603'> +1.2349427e-12 </wgt>
<wgt id='1604'> +1.2354629e-12 </wgt>
<wgt id='1605'> +1.2333222e-12 </wgt>
<wgt id='1606'> +1.2203325e-12 </wgt>
<wgt id='1607'> +1.2465798e-12 </wgt>
<wgt id='1608'> +1.2329198e-12 </wgt>
<wgt id='1609'> +1.2279551e-12 </wgt>
<wgt id='1610'> +1.1528949e-12 </wgt>
<wgt id='1611'> +1.3165602e-12 </wgt>
<wgt id='1612'> +1.4065749e-12 </wgt>
<wgt id='1613'> +1.3684868e-12 </wgt>
<wgt id='1614'> +1.3874198e-12 </wgt>
<wgt id='1615'> +1.4964578e-12 </wgt>
<wgt id='1616'> +1.4431676e-12 </wgt>
<wgt id='1617'> +1.4001238e-12 </wgt>
<wgt id='1618'> +1.2955694e-12 </wgt>
<wgt id='1619'> +1.3349245e-12 </wgt>
<wgt id='1620'> +1.3910957e-12 </wgt>
<wgt id='1621'> +1.3763687e-12 </wgt>
<wgt id='1622'> +1.4189489e-12 </wgt>
<wgt id='1623'> +1.4387329e-12 </wgt>
<wgt id='1624'> +1.3902757e-12 </wgt>
<wgt id='1625'> +1.3259546e-12 </wgt>
<wgt id='1626'> +1.5627207e-12 </wgt>
<wgt id='1627'> +1.4204689e-12 </wgt>
<wgt id='1628'> +1.5946145e-12 </wgt>
<wgt id='1629'> +1.2935612e-12 </wgt>
<wgt id='1630'> +1.4073467e-12 </wgt>
<wgt id='1631'> +1.4366403e-12 </wgt>
<wgt id='1632'> +1.5660114e-12 </wgt>
<wgt id='1633'> +1.6695103e-12 </wgt>
<wgt id='1634'> +1.3668609e-12 </wgt>
<wgt id='1635'> +1.1952637e-12 </wgt>
<wgt id='1636'> +1.3969913e-12 </wgt>
<wgt id='1637'> +1.4186145e-12 </wgt>
<wgt id='1638'> +1.3713950e-12 </wgt>
<wgt id='1639'> +1.5015845e-12 </wgt>
<wgt id='1640'> +1.4873118e-12 </wgt>
<wgt id='1641'> +1.4693024e-12 </wgt>
<wgt id='1642'> +1.4827917e-12 </wgt>
<wgt id='1643'> +1.5333848e-12 </wgt>
<wgt id='1644'> +1.5350808e-12 </wgt>
<wgt id='1645'> +1.4095762e-12 </wgt>
<wgt id='1646'> +1.3871517e-12 </wgt>
<wgt id='1647'> +1.3658203e-12 </wgt>
<wgt id='1648'> +1.3377640e-12 </wgt>
<wgt id='1649'> +1.4171501e-12 </wgt>
<wgt id='1650'> +1.6487793e-12 </wgt>
<wgt id='1651'> +1.7093466e-12 </wgt>
<wgt id='1652'> +1.5826780e-12 </wgt>
<wgt id='1653'> +1.1383018e-12 </wgt>
<wgt id='1654'> +1.3408156e-12 </wgt>
<wgt id='1655'> +1.4417949e-12 </wgt>
<wgt id='1656'> +1.4060667e-12 </wgt>
<wgt id='1657'> +1.4262473e-12 </wgt>
<wgt id='1658'> +1.5458602e-12 </wgt>
<wgt id='1659'> +1.3902757e-12 </wgt>
<wgt id='1660'> +1.3260129e-12 </wgt>
<wgt id='1661'> +1.2844565e-12 </wgt>
<wgt id='1662'> +1.2818665e-12 </wgt>
<wgt id='1663'> +1.4845395e-12 </wgt>
<wgt id='1664'> +1.4194373e-12 </wgt>
<wgt id='1665'> +1.7640082e-12 </wgt>
<wgt id='1666'> +1.4017339e-12 </wgt>
<wgt id='1667'> +1.2274614e-12 </wgt>
<wgt id='1668'> +1.3446897e-12 </wgt>
<wgt id='1669'> +1.4001764e-12 </wgt>
<wgt id='1670'> +1.4481728e-12 </wgt>
<wgt id='1671'> +1.4042903e-12 </wgt>
<wgt id='1672'> +1.2915473e-12 </wgt>
<wgt id='1673'> +1.5088399e-12 </wgt>
<wgt id='1674'> +1.2435052e-12 </wgt>
<wgt id='1675'> +1.3475153e-12 </wgt>
<wgt id='1676'> +1.3658666e-12 </wgt>
<wgt id='1677'> +1.4164095e-12 </wgt>
<wgt id='1678'> +1.4477778e-12 </wgt>
<wgt id='1679'> +1.4107298e-12 </wgt>
<wgt id='1680'> +1.1680567e-12 </wgt>
<wgt id='1681'> +1.2330958e-12 </wgt>
<wgt id='1682'> +1.3653266e-12 </wgt>
<wgt id='1683'> +1.4653914e-12 </wgt>
<wgt id='1684'> +1.4338626e-12 </wgt>
<wgt id='1685'> +1.3530395e-12 </wgt>
<wgt id='1686'> +1.2697529e-12 </wgt>
<wgt id='1687'> +1.3816511e-12 </wgt>
<wgt id='1688'> +1.5755329e-12 </wgt>
<wgt id='1689'> +1.3016890e-12 </wgt>
<wgt id='1690'> +1.0826095e-12 </wgt>
<wgt id='1691'> +1.1679840e-12 </wgt>
<wgt id='1692'> +1.3468074e-12 </wgt>
<wgt id='1693'> +1.5140268e-12 </wgt>
<wgt id='1694'> +1.3643299e-12 </wgt>
<wgt id='1695'> +1.3116090e-12 </wgt>
<wgt id='1696'> +1.4996758e-12 </wgt>
<wgt id='1697'> +1.3853996e-12 </wgt>
<wgt id='1698'> +1.3947473e-12 </wgt>
<wgt id='1699'> +1.4246250e-12 </wgt>
<wgt id='1700'> +1.4446280e-12 </wgt>
<wgt id='1701'> +1.3143101e-12 </wgt>
<wgt id='1702'> +1.1927065e-12 </wgt>
<wgt id='1703'> +1.3543628e-12 </wgt>
<wgt id='1704'> +1.5314063e-12 </wgt>
<wgt id='1705'> +1.7406394e-12 </wgt>
<wgt id='1706'> +1.2254641e-12 </wgt>
<wgt id='1707'> +1.4834657e-12 </wgt>
<wgt id='1708'> +1.5430151e-12 </wgt>
<wgt id='1709'> +1.4233979e-12 </wgt>
<wgt id='1710'> +1.3821692e-12 </wgt>
<wgt id='1711'> +1.4296262e-12 </wgt>
<wgt id='1712'> +1.4038414e-12 </wgt>
<wgt id='1713'> +1.4811642e-12 </wgt>
<wgt id='1714'> +1.4915062e-12 </wgt>
<wgt id='1715'> +1.4614189e-12 </wgt>
<wgt id='1716'> +1.5203973e-12 </wgt>
<wgt id='1717'> +1.4384331e-12 </wgt>
<wgt id='1718'> +1.5148523e-12 </wgt>
<wgt id='1719'> +1.5349045e-12 </wgt>
<wgt id='1720'> +1.4517884e-12 </wgt>
<wgt id='1721'> +1.4828547e-12 </wgt>
<wgt id='1722'> +1.5014738e-12 </wgt>
<wgt id='1723'> +1.4860723e-12 </wgt>
<wgt id='1724'> +1.3937714e-12 </wgt>
<wgt id='1725'> +1.5047869e-12 </wgt>
<wgt id='1726'> +1.4690766e-12 </wgt>
<wgt id='1727'> +1.4980322e-12 </wgt>
<wgt id='1728'> +1.5104424e-12 </wgt>
<wgt id='1729'> +1.4738192e-12 </wgt>
<wgt id='1730'> +1.4870865e-12 </wgt>
<wgt id='1731'> +1.4770387e-12 </wgt>
<wgt id='1732'> +1.5077913e-12 </wgt>
<wgt id='1733'> +1.5294020e-12 </wgt>
<wgt id='1734'> +1.5251547e-12 </wgt>
<wgt id='1735'> +1.4628553e-12 </wgt>
<wgt id='1736'> +1.5425181e-12 </wgt>
<wgt id='1737'> +1.5200048e-12 </wgt>
<wgt id='1738'> +1.4641433e-12 </wgt>
<wgt id='1739'> +1.4893220e-12 </wgt>
<wgt id='1740'> +1.4342266e-12 </wgt>
<wgt id='1741'> +1.5036986e-12 </wgt>
<wgt id='1742'> +1.5263387e-12 </wgt>
<wgt id='1743'> +1.5197680e-12 </wgt>
<wgt id='1744'> +1.4901900e-12 </wgt>
<wgt id='1745'> +1.4316018e-12 </wgt>
<wgt id='1746'> +1.4322782e-12 </wgt>
<wgt id='1747'> +1.5125352e-12 </wgt>
<wgt id='1748'> +1.4635593e-12 </wgt>
<wgt id='1749'> +1.4599469e-12 </wgt>
<wgt id='1750'> +1.5148159e-12 </wgt>
<wgt id='1751'> +1.4611042e-12 </wgt>
<wgt id='1752'> +1.4672740e-12 </wgt>
<wgt id='1753'> +1.4675092e-12 </wgt>
<wgt id='1754'> +1.4857321e-12 </wgt>
<wgt id='1755'> +1.4633826e-12 </wgt>
<wgt id='1756'> +1.4763513e-12 </wgt>
<wgt id='1757'> +1.5143740e-12 </wgt>
<wgt id='1758'> +1.5135736e-12 </wgt>
<wgt id='1759'> +1.5175473e-12 </wgt>
<wgt id='1760'> +1.4730223e-12 </wgt>
<wgt id='1761'> +1.4870478e-12 </wgt>
<wgt id='1762'> +1.4641149e-12 </wgt>
<wgt id='1763'> +1.4743952e-12 </wgt>
<wgt id='1764'> +1.4972895e-12 </wgt>
<wgt id='1765'> +1.4567927e-12 </wgt>
<wgt id='1766'> +1.5206645e-12 </wgt>
<wgt id='1767'> +1.4534120e-12 </wgt>
<wgt id='1768'> +1.4537586e-12 </wgt>
<wgt id='1769'> +1.5026725e-12 </wgt>
<wgt id='1770'> +1.4675003e-12 </wgt>
<wgt id='1771'> +1.4890156e-12 </wgt>
<wgt id='1772'> +1.5366041e-12 </wgt>
<wgt id='1773'> +1.4773850e-12 </wgt>
<wgt id='1774'> +1.4677884e-12 </wgt>
<wgt id='1775'> +1.5178818e-12 </wgt>
<wgt id='1776'> +1.4536855e-12 </wgt>
<wgt id='1777'> +1.4720354e-12 </wgt>
<wgt id='1778'> +1.4180303e-12 </wgt>
<wgt id='1779'> +1.4817272e-12 </wgt>
<wgt id='1780'> +1.5596806e-12 </wgt>
<wgt id='1781'> +1.4735999e-12 </wgt>
<wgt id='1782'> +1.4060628e-12 </wgt>
<wgt id='1783'> +1.4611281e-12 </wgt>
<wgt id='1784'> +1.4400561e-12 </wgt>
<wgt id='1785'> +1.5025204e-12 </wgt>
<wgt id='1786'> +1.4125344e-12 </wgt>
<wgt id='1787'> +1.5406256e-12 </wgt>
<wgt id='1788'> +1.4611143e-12 </wgt>
<wgt id='1789'> +1.4932097e-12 </wgt>
<wgt id='1790'> +1.4702718e-12 </wgt>
<wgt id='1791'> +1.4644552e-12 </wgt>
<wgt id='1792'> +1.4505845e-12 </wgt>
<wgt id='1793'> +1.4603232e-12 </wgt>
<wgt id='1794'> +1.4771791e-12 </wgt>
<wgt id='1795'> +1.4355483e-12 </wgt>
<wgt id='1796'> +1.5421450e-12 </wgt>
<wgt id='1797'> +1.4743017e-12 </wgt>
<wgt id='1798'> +1.4832820e-12 </wgt>
<wgt id='1799'> +1.4665208e-12 </wgt>
<wgt id='1800'> +1.4897960e-12 </wgt>
<wgt id='1801'> +1.4541703e-12 </wgt>
<wgt id='1802'> +1.5258013e-12 </wgt>
<wgt id='1803'> +1.4744545e-12 </wgt>
<wgt id='1804'> +1.4838950e-12 </wgt>
<wgt id='1805'> +1.4413022e-12 </wgt>
<wgt id='1806'> +1.4857307e-12 </wgt>
<wgt id='1807'> +1.4949014e-12 </wgt>
<wgt id='1808'> +1.4897349e-12 </wgt>
<wgt id='1809'> +1.4515066e-12 </wgt>
<wgt id='1810'> +1.4600347e-12 </wgt>
<wgt id='1811'> +1.4597057e-12 </wgt>
<wgt id='1812'> +1.4683731e-12 </wgt>
<wgt id='1813'> +1.4941546e-12 </wgt>
<wgt id='1814'> +1.7075205e-12 </wgt>
<wgt id='1815'> +2.0721800e-12 </wgt>
<wgt id='1816'> +1.4811642e-12 </wgt>
<wgt id='1817'> +1.4915062e-12 </wgt>
<wgt id='1818'> +1.4614189e-12 </wgt>
<wgt id='1819'> +1.5203973e-12 </wgt>
<wgt id='1820'> +1.4384331e-12 </wgt>
<wgt id='1821'> +1.5148523e-12 </wgt>
<wgt id='1822'> +1.5349045e-12 </wgt>
<wgt id='1823'> +1.4517884e-12 </wgt>
<wgt id='1824'> +1.4828547e-12 </wgt>
<wgt id='1825'> +1.5014738e-12 </wgt>
<wgt id='1826'> +1.4860723e-12 </wgt>
<wgt id='1827'> +1.3937714e-12 </wgt>
<wgt id='1828'> +1.5047869e-12 </wgt>
<wgt id='1829'> +1.4690766e-12 </wgt>
<wgt id='1830'> +1.4980322e-12 </wgt>
<wgt id='1831'> +1.5104424e-12 </wgt>
<wgt id='1832'> +1.4738192e-12 </wgt>
<wgt id='1833'> +1.4870865e-12 </wgt>
<wgt id='1834'> +1.4770387e-12 </wgt>
<wgt id='1835'> +1.5077913e-12 </wgt>
<wgt id='1836'> +1.5294020e-12 </wgt>
<wgt id='1837'> +1.5251547e-12 </wgt>
<wgt id='1838'> +1.4628553e-12 </wgt>
<wgt id='1839'> +1.5425181e-12 </wgt>
<wgt id='1840'> +1.5200048e-12 </wgt>
<wgt id='1841'> +1.4641433e-12 </wgt>
<wgt id='1842'> +1.4893220e-12 </wgt>
<wgt id='1843'> +1.4342266e-12 </wgt>
<wgt id='1844'> +1.5036986e-12 </wgt>
<wgt id='1845'> +1.5263387e-12 </wgt>
<wgt id='1846'> +1.5197680e-12 </wgt>
<wgt id='1847'> +1.4901900e-12 </wgt>
<wgt id='1848'> +1.4316018e-12 </wgt>
<wgt id='1849'> +1.4322782e-12 </wgt>
<wgt id='1850'> +1.5125352e-12 </wgt>
<wgt id='1851'> +1.4635593e-12 </wgt>
<wgt id='1852'> +1.4599469e-12 </wgt>
<wgt id='1853'> +1.5148159e-12 </wgt>
<wgt id='1854'> +1.4611042e-12 </wgt>
<wgt id='1855'> +1.4672740e-12 </wgt>
<wgt id='1856'> +1.4675092e-12 </wgt>
<wgt id='1857'> +1.4857321e-12 </wgt>
<wgt id='1858'> +1.4633826e-12 </wgt>
<wgt id='1859'> +1.4763513e-12 </wgt>
<wgt id='1860'> +1.5143740e-12 </wgt>
<wgt id='1861'> +1.5135736e-12 </wgt>
<wgt id='1862'> +1.5175473e-12 </wgt>
<wgt id='1863'> +1.4730223e-12 </wgt>
<wgt id='1864'> +1.4870478e-12 </wgt>
<wgt id='1865'> +1.4641149e-12 </wgt>
<wgt id='1866'> +1.4743952e-12 </wgt>
<wgt id='1867'> +1.4972895e-12 </wgt>
<wgt id='1868'> +1.4567927e-12 </wgt>
<wgt id='1869'> +1.5206645e-12 </wgt>
<wgt id='1870'> +1.4534120e-12 </wgt>
<wgt id='1871'> +1.4537586e-12 </wgt>
<wgt id='1872'> +1.5026725e-12 </wgt>
<wgt id='1873'> +1.4675003e-12 </wgt>
<wgt id='1874'> +1.4890156e-12 </wgt>
<wgt id='1875'> +1.5366041e-12 </wgt>
<wgt id='1876'> +1.4773850e-12 </wgt>
<wgt id='1877'> +1.4677884e-12 </wgt>
<wgt id='1878'> +1.5178818e-12 </wgt>
<wgt id='1879'> +1.4536855e-12 </wgt>
<wgt id='1880'> +1.4720354e-12 </wgt>
<wgt id='1881'> +1.4180303e-12 </wgt>
<wgt id='1882'> +1.4817272e-12 </wgt>
<wgt id='1883'> +1.5596806e-12 </wgt>
<wgt id='1884'> +1.4735999e-12 </wgt>
<wgt id='1885'> +1.4060628e-12 </wgt>
<wgt id='1886'> +1.4611281e-12 </wgt>
<wgt id='1887'> +1.4400561e-12 </wgt>
<wgt id='1888'> +1.5025204e-12 </wgt>
<wgt id='1889'> +1.4125344e-12 </wgt>
<wgt id='1890'> +1.5406256e-12 </wgt>
<wgt id='1891'> +1.4611143e-12 </wgt>
<wgt id='1892'> +1.4932097e-12 </wgt>
<wgt id='1893'> +1.4702718e-12 </wgt>
<wgt id='1894'> +1.4644552e-12 </wgt>
<wgt id='1895'> +1.4505845e-12 </wgt>
<wgt id='1896'> +1.4603232e-12 </wgt>
<wgt id='1897'> +1.4771791e-12 </wgt>
<wgt id='1898'> +1.4355483e-12 </wgt>
<wgt id='1899'> +1.5421450e-12 </wgt>
<wgt id='1900'> +1.4743017e-12 </wgt>
<wgt id='1901'> +1.4832820e-12 </wgt>
<wgt id='1902'> +1.4665208e-12 </wgt>
<wgt id='1903'> +1.4897960e-12 </wgt>
<wgt id='1904'> +1.4541703e-12 </wgt>
<wgt id='1905'> +1.5258013e-12 </wgt>
<wgt id='1906'> +1.4744545e-12 </wgt>
<wgt id='1907'> +1.4838950e-12 </wgt>
<wgt id='1908'> +1.4413022e-12 </wgt>
<wgt id='1909'> +1.4857307e-12 </wgt>
<wgt id='1910'> +1.4949014e-12 </wgt>
<wgt id='1911'> +1.4897349e-12 </wgt>
<wgt id='1912'> +1.4515066e-12 </wgt>
<wgt id='1913'> +1.4600347e-12 </wgt>
<wgt id='1914'> +1.4597057e-12 </wgt>
<wgt id='1915'> +1.4683731e-12 </wgt>
<wgt id='1916'> +1.4941546e-12 </wgt>
<wgt id='1917'> +1.4527131e-12 </wgt>
<wgt id='1918'> +1.5110613e-12 </wgt>
<wgt id='1919'> +1.5232511e-12 </wgt>
</rwgt>
</event>
<event>
 9      1 +1.5538000e-12 2.61475200e+01 7.81860800e-03 1.49217200e-01
       21 -1    0    0  501  502 +0.0000000000e+00 +0.0000000000e+00 +8.2277398236e-01 8.2277398236e-01 0.0000000000e+00 0.0000e+00 -1.0000e+00
        1 -1    0    0  502    0 -0.0000000000e+00 -0.0000000000e+00 -6.8990230470e+02 6.8990230470e+02 0.0000000000e+00 0.0000e+00 -1.0000e+00
     1023  2    1    2    0    0 -4.6065236736e+00 -2.0916111362e+01 -3.9922628988e+02 4.0008164594e+02 1.4999636935e+01 0.0000e+00 0.0000e+00
  1000023  2    3    3    0    0 -4.2028229300e+00 -3.0220080474e+00 -1.2042834667e+02 1.2066501249e+02 5.5011184660e+00 0.0000e+00 0.0000e+00
        1  1    1    2  501    0 +4.6065236736e+00 +2.0916111362e+01 -2.8985324084e+02 2.9064343275e+02 0.0000000000e+00 0.0000e+00 -1.0000e+00
  1000022  1    4    4    0    0 -3.6336806368e+00 -3.0612322759e+00 -1.1411586132e+02 1.1432412074e+02 5.0000000000e+00 0.0000e+00 -1.0000e+00
      -11  1    4    4    0    0 -1.9473189658e-01 -7.3612907439e-02 -2.0978178842e+00 2.1081222707e+00 5.1100000000e-04 0.0000e+00 1.0000e+00
       11  1    4    4    0    0 -3.7441039664e-01 +1.1283713594e-01 -4.2146674686e+00 4.2327694830e+00 5.1100000000e-04 0.0000e+00 -1.0000e+00
  1000022  1    3    3    0    0 -4.0370074361e-01 -1.7894103314e+01 -2.7879794321e+02 2.7941663344e+02 5.0000000000e+00 0.0000e+00 -1.0000e+00
<mgrwt>
<rscale>  1 0.26147522E+02</rscale>
<asrwt>0</asrwt>
<pdfrwt beam="1">  1       21 0.12658046E-03 0.26147522E+02</pdfrwt>
<pdfrwt beam="2">  1        1 0.10613894E+00 0.26147522E+02</pdfrwt>
<totfact> 0.15258657E+07</totfact>
</mgrwt>
<rwgt>
<wgt id='1001'> +1.5538000e-12 </wgt>
<wgt id='1002'> +1.6513155e-12 </wgt>
<wgt id='1003'> +1.6599936e-12 </wgt>
<wgt id='1004'> +1.5320174e-12 </wgt>
<wgt id='1005'> +1.6604354e-12 </wgt>
<wgt id='1006'> +1.3543165e-12 </wgt>
<wgt id='1007'> +1.4596212e-12 </wgt>
<wgt id='1008'> +1.4693761e-12 </wgt>
<wgt id='1009'> +1.3315012e-12 </wgt>
<wgt id='1010'> +1.4698752e-12 </wgt>
<wgt id='1011'> +1.8257376e-12 </wgt>
<wgt id='1012'> +1.9035856e-12 </wgt>
<wgt id='1013'> +1.9099788e-12 </wgt>
<wgt id='1014'> +1.8073591e-12 </wgt>
<wgt id='1015'> +1.9103022e-12 </wgt>
<wgt id='1016'> +1.9192354e-12 </wgt>
<wgt id='1017'> +1.9535395e-12 </wgt>
<wgt id='1018'> +1.9558544e-12 </wgt>
<wgt id='1019'> +1.9099788e-12 </wgt>
<wgt id='1020'> +1.9559669e-12 </wgt>
<wgt id='1021'> +1.6728358e-12 </wgt>
<wgt id='1022'> +1.7267612e-12 </wgt>
<wgt id='1023'> +1.7312632e-12 </wgt>
<wgt id='1024'> +1.6599936e-12 </wgt>
<wgt id='1025'> +1.7314898e-12 </wgt>
<wgt id='1026'> +2.2551295e-12 </wgt>
<wgt id='1027'> +2.2519800e-12 </wgt>
<wgt id='1028'> +2.2503945e-12 </wgt>
<wgt id='1029'> +2.2532497e-12 </wgt>
<wgt id='1030'> +2.2503059e-12 </wgt>
<wgt id='1031'> +1.1551448e-12 </wgt>
<wgt id='1032'> +1.3162993e-12 </wgt>
<wgt id='1033'> +1.3315012e-12 </wgt>
<wgt id='1034'> +1.1204760e-12 </wgt>
<wgt id='1035'> +1.3322780e-12 </wgt>
<wgt id='1036'> +1.0068424e-12 </wgt>
<wgt id='1037'> +1.1634957e-12 </wgt>
<wgt id='1038'> +1.1786046e-12 </wgt>
<wgt id='1039'> +9.7382387e-13 </wgt>
<wgt id='1040'> +1.1793788e-12 </wgt>
<wgt id='1041'> +1.3573119e-12 </wgt>
<wgt id='1042'> +1.5173893e-12 </wgt>
<wgt id='1043'> +1.5320174e-12 </wgt>
<wgt id='1044'> +1.3218535e-12 </wgt>
<wgt id='1045'> +1.5327628e-12 </wgt>
<wgt id='1046'> +1.5538000e-12 </wgt>
<wgt id='1047'> +1.5568041e-12 </wgt>
<wgt id='1048'> +1.6399428e-12 </wgt>
<wgt id='1049'> +1.4951356e-12 </wgt>
<wgt id='1050'> +1.5523162e-12 </wgt>
<wgt id='1051'> +1.5576003e-12 </wgt>
<wgt id='1052'> +1.5303369e-12 </wgt>
<wgt id='1053'> +1.6365339e-12 </wgt>
<wgt id='1054'> +1.5777352e-12 </wgt>
<wgt id='1055'> +1.5654792e-12 </wgt>
<wgt id='1056'> +1.4323308e-12 </wgt>
<wgt id='1057'> +1.5061965e-12 </wgt>
<wgt id='1058'> +1.5159396e-12 </wgt>
<wgt id='1059'> +1.5367757e-12 </wgt>
<wgt id='1060'> +1.5234058e-12 </wgt>
<wgt id='1061'> +1.6051326e-12 </wgt>
<wgt id='1062'> +1.5161128e-12 </wgt>
<wgt id='1063'> +1.4752464e-12 </wgt>
<wgt id='1064'> +1.5634927e-12 </wgt>
<wgt id='1065'> +1.5989366e-12 </wgt>
<wgt id='1066'> +1.5672248e-12 </wgt>
<wgt id='1067'> +1.6239973e-12 </wgt>
<wgt id='1068'> +1.6449726e-12 </wgt>
<wgt id='1069'> +1.6385302e-12 </wgt>
<wgt id='1070'> +1.5468893e-12 </wgt>
<wgt id='1071'> +1.5599141e-12 </wgt>
<wgt id='1072'> +1.5113014e-12 </wgt>
<wgt id='1073'> +1.5310991e-12 </wgt>
<wgt id='1074'> +1.5817206e-12 </wgt>
<wgt id='1075'> +1.5001623e-12 </wgt>
<wgt id='1076'> +1.5815920e-12 </wgt>
<wgt id='1077'> +1.6008253e-12 </wgt>
<wgt id='1078'> +1.5656441e-12 </wgt>
<wgt id='1079'> +1.6053648e-12 </wgt>
<wgt id='1080'> +1.5472272e-12 </wgt>
<wgt id='1081'> +1.5059784e-12 </wgt>
<wgt id='1082'> +1.5425006e-12 </wgt>
<wgt id='1083'> +1.5307982e-12 </wgt>
<wgt id='1084'> +1.5353949e-12 </wgt>
<wgt id='1085'> +1.5930483e-12 </wgt>
<wgt id='1086'> +1.5884792e-12 </wgt>
<wgt id='1087'> +1.5416560e-12 </wgt>
<wgt id='1088'> +1.5597149e-12 </wgt>
<wgt id='1089'> +1.5504839e-12 </wgt>
<wgt id='1090'> +1.5751617e-12 </wgt>
<wgt id='1091'> +1.5465050e-12 </wgt>
<wgt id='1092'> +1.5140429e-12 </wgt>
<wgt id='1093'> +1.6089279e-12 </wgt>
<wgt id='1094'> +1.5595134e-12 </wgt>
<wgt id='1095'> +1.6220089e-12 </wgt>
<wgt id='1096'> +1.5042482e-12 </wgt>
<wgt id='1097'> +1.5771805e-12 </wgt>
<wgt id='1098'> +1.6128896e-12 </wgt>
<wgt id='1099'> +1.5478229e-12 </wgt>
<wgt id='1100'> +1.6069601e-12 </wgt>
<wgt id='1101'> +1.5003655e-12 </wgt>
<wgt id='1102'> +1.5051567e-12 </wgt>
<wgt id='1103'> +1.5101551e-12 </wgt>
<wgt id='1104'> +1.5837994e-12 </wgt>
<wgt id='1105'> +1.4681831e-12 </wgt>
<wgt id='1106'> +1.5335967e-12 </wgt>
<wgt id='1107'> +1.6410975e-12 </wgt>
<wgt id='1108'> +1.5549887e-12 </wgt>
<wgt id='1109'> +1.5358236e-12 </wgt>
<wgt id='1110'> +1.5105558e-12 </wgt>
<wgt id='1111'> +1.5603889e-12 </wgt>
<wgt id='1112'> +1.5245284e-12 </wgt>
<wgt id='1113'> +1.6316705e-12 </wgt>
<wgt id='1114'> +1.6001262e-12 </wgt>
<wgt id='1115'> +1.5819507e-12 </wgt>
<wgt id='1116'> +1.6762227e-12 </wgt>
<wgt id='1117'> +1.6001708e-12 </wgt>
<wgt id='1118'> +1.5566923e-12 </wgt>
<wgt id='1119'> +1.4991127e-12 </wgt>
<wgt id='1120'> +1.5283976e-12 </wgt>
<wgt id='1121'> +1.4993306e-12 </wgt>
<wgt id='1122'> +1.5070586e-12 </wgt>
<wgt id='1123'> +1.6090370e-12 </wgt>
<wgt id='1124'> +1.6381525e-12 </wgt>
<wgt id='1125'> +1.4849439e-12 </wgt>
<wgt id='1126'> +1.4940391e-12 </wgt>
<wgt id='1127'> +1.5841514e-12 </wgt>
<wgt id='1128'> +1.5161128e-12 </wgt>
<wgt id='1129'> +1.4637759e-12 </wgt>
<wgt id='1130'> +1.5395363e-12 </wgt>
<wgt id='1131'> +1.6066981e-12 </wgt>
<wgt id='1132'> +1.6105159e-12 </wgt>
<wgt id='1133'> +1.5431297e-12 </wgt>
<wgt id='1134'> +1.5538753e-12 </wgt>
<wgt id='1135'> +1.3968747e-12 </wgt>
<wgt id='1136'> +1.5237469e-12 </wgt>
<wgt id='1137'> +1.5687312e-12 </wgt>
<wgt id='1138'> +1.5269789e-12 </wgt>
<wgt id='1139'> +1.5442805e-12 </wgt>
<wgt id='1140'> +1.5880519e-12 </wgt>
<wgt id='1141'> +1.5683017e-12 </wgt>
<wgt id='1142'> +1.6425250e-12 </wgt>
<wgt id='1143'> +1.4472914e-12 </wgt>
<wgt id='1144'> +1.5257370e-12 </wgt>
<wgt id='1145'> +1.5062196e-12 </wgt>
<wgt id='1146'> +1.5753160e-12 </wgt>
<wgt id='1147'> +1.4224013e-12 </wgt>
<wgt id='1148'> +1.4512311e-12 </wgt>
<wgt id='1149'> +1.3518828e-12 </wgt>
<wgt id='1150'> +1.4401029e-12 </wgt>
<wgt id='1151'> +1.7815948e-12 </wgt>
<wgt id='1152'> +2.5234917e-12 </wgt>
<wgt id='1153'> +2.5147324e-12 </wgt>
<wgt id='1154'> +2.5284789e-12 </wgt>
<wgt id='1155'> +2.5338801e-12 </wgt>
<wgt id='1156'> +2.5182925e-12 </wgt>
<wgt id='1157'> +2.5265162e-12 </wgt>
<wgt id='1158'> +2.5194273e-12 </wgt>
<wgt id='1159'> +2.5263871e-12 </wgt>
<wgt id='1160'> +2.5216517e-12 </wgt>
<wgt id='1161'> +2.5375517e-12 </wgt>
<wgt id='1162'> +2.5135411e-12 </wgt>
<wgt id='1163'> +2.5210262e-12 </wgt>
<wgt id='1164'> +2.5259343e-12 </wgt>
<wgt id='1165'> +2.5172260e-12 </wgt>
<wgt id='1166'> +2.5299295e-12 </wgt>
<wgt id='1167'> +2.5565151e-12 </wgt>
<wgt id='1168'> +2.4846188e-12 </wgt>
<wgt id='1169'> +2.5588190e-12 </wgt>
<wgt id='1170'> +2.4945532e-12 </wgt>
<wgt id='1171'> +2.5094999e-12 </wgt>
<wgt id='1172'> +2.5395468e-12 </wgt>
<wgt id='1173'> +2.4959850e-12 </wgt>
<wgt id='1174'> +2.5498434e-12 </wgt>
<wgt id='1175'> +2.5158648e-12 </wgt>
<wgt id='1176'> +2.5284857e-12 </wgt>
<wgt id='1177'> +2.5252249e-12 </wgt>
<wgt id='1178'> +2.5109801e-12 </wgt>
<wgt id='1179'> +2.5050652e-12 </wgt>
<wgt id='1180'> +2.5302394e-12 </wgt>
<wgt id='1181'> +2.5120699e-12 </wgt>
<wgt id='1182'> +2.5209582e-12 </wgt>
<wgt id='1183'> +2.5221078e-12 </wgt>
<wgt id='1184'> +2.5232609e-12 </wgt>
<wgt id='1185'> +2.5147910e-12 </wgt>
<wgt id='1186'> +2.5270480e-12 </wgt>
<wgt id='1187'> +2.5308966e-12 </wgt>
<wgt id='1188'> +2.5208571e-12 </wgt>
<wgt id='1189'> +2.5135620e-12 </wgt>
<wgt id='1190'> +2.4936169e-12 </wgt>
<wgt id='1191'> +2.5257255e-12 </wgt>
<wgt id='1192'> +2.5410195e-12 </wgt>
<wgt id='1193'> +1.4307079e-12 </wgt>
<wgt id='1194'> +1.4047680e-12 </wgt>
<wgt id='1195'> +1.4520082e-12 </wgt>
<wgt id='1196'> +1.4320852e-12 </wgt>
<wgt id='1197'> +1.4292056e-12 </wgt>
<wgt id='1198'> +1.4313899e-12 </wgt>
<wgt id='1199'> +1.4298084e-12 </wgt>
<wgt id='1200'> +1.4378324e-12 </wgt>
<wgt id='1201'> +1.4260203e-12 </wgt>
<wgt id='1202'> +1.4295921e-12 </wgt>
<wgt id='1203'> +1.4323337e-12 </wgt>
<wgt id='1204'> +1.4235809e-12 </wgt>
<wgt id='1205'> +1.4349588e-12 </wgt>
<wgt id='1206'> +1.4262221e-12 </wgt>
<wgt id='1207'> +1.4365924e-12 </wgt>
<wgt id='1208'> +1.4329539e-12 </wgt>
<wgt id='1209'> +1.4301260e-12 </wgt>
<wgt id='1210'> +1.4426606e-12 </wgt>
<wgt id='1211'> +1.4231566e-12 </wgt>
<wgt id='1212'> +1.4154250e-12 </wgt>
<wgt id='1213'> +1.4447719e-12 </wgt>
<wgt id='1214'> +1.4173500e-12 </wgt>
<wgt id='1215'> +1.4448760e-12 </wgt>
<wgt id='1216'> +1.4343079e-12 </wgt>
<wgt id='1217'> +1.4260587e-12 </wgt>
<wgt id='1218'> +1.4296446e-12 </wgt>
<wgt id='1219'> +1.4304289e-12 </wgt>
<wgt id='1220'> +1.4287232e-12 </wgt>
<wgt id='1221'> +1.4192431e-12 </wgt>
<wgt id='1222'> +1.4580696e-12 </wgt>
<wgt id='1223'> +1.3896336e-12 </wgt>
<wgt id='1224'> +1.4281862e-12 </wgt>
<wgt id='1225'> +1.4316825e-12 </wgt>
<wgt id='1226'> +1.4237622e-12 </wgt>
<wgt id='1227'> +1.4353882e-12 </wgt>
<wgt id='1228'> +1.4329515e-12 </wgt>
<wgt id='1229'> +1.4265324e-12 </wgt>
<wgt id='1230'> +1.4347533e-12 </wgt>
<wgt id='1231'> +1.4458942e-12 </wgt>
<wgt id='1232'> +1.4399646e-12 </wgt>
<wgt id='1233'> +1.4275124e-12 </wgt>
<wgt id='1234'> +1.4307079e-12 </wgt>
<wgt id='1235'> +1.4240000e-12 </wgt>
<wgt id='1236'> +1.4265956e-12 </wgt>
<wgt id='1237'> +1.4289311e-12 </wgt>
<wgt id='1238'> +1.4326670e-12 </wgt>
<wgt id='1239'> +1.4342657e-12 </wgt>
<wgt id='1240'> +1.4357442e-12 </wgt>
<wgt id='1241'> +1.3482552e-12 </wgt>
<wgt id='1242'> +1.3243615e-12 </wgt>
<wgt id='1243'> +1.3719229e-12 </wgt>
<wgt id='1244'> +1.3502825e-12 </wgt>
<wgt id='1245'> +1.3467516e-12 </wgt>
<wgt id='1246'> +1.3527092e-12 </wgt>
<wgt id='1247'> +1.3445055e-12 </wgt>
<wgt id='1248'> +1.3482132e-12 </wgt>
<wgt id='1249'> +1.3483926e-12 </wgt>
<wgt id='1250'> +1.3496758e-12 </wgt>
<wgt id='1251'> +1.3472374e-12 </wgt>
<wgt id='1252'> +1.3549186e-12 </wgt>
<wgt id='1253'> +1.3429613e-12 </wgt>
<wgt id='1254'> +1.3489004e-12 </wgt>
<wgt id='1255'> +1.3477472e-12 </wgt>
<wgt id='1256'> +1.3469015e-12 </wgt>
<wgt id='1257'> +1.3520958e-12 </wgt>
<wgt id='1258'> +1.3454765e-12 </wgt>
<wgt id='1259'> +1.3461225e-12 </wgt>
<wgt id='1260'> +1.3584053e-12 </wgt>
<wgt id='1261'> +1.3341940e-12 </wgt>
<wgt id='1262'> +1.3431088e-12 </wgt>
<wgt id='1263'> +1.3496547e-12 </wgt>
<wgt id='1264'> +1.3493935e-12 </wgt>
<wgt id='1265'> +1.3476696e-12 </wgt>
<wgt id='1266'> +1.3190671e-12 </wgt>
<wgt id='1267'> +1.3744150e-12 </wgt>
<wgt id='1268'> +1.3530715e-12 </wgt>
<wgt id='1269'> +1.3308668e-12 </wgt>
<wgt id='1270'> +1.3705132e-12 </wgt>
<wgt id='1271'> +1.3525823e-12 </wgt>
<wgt id='1272'> +1.3465824e-12 </wgt>
<wgt id='1273'> +1.3497492e-12 </wgt>
<wgt id='1274'> +1.3512163e-12 </wgt>
<wgt id='1275'> +1.3448040e-12 </wgt>
<wgt id='1276'> +1.3417639e-12 </wgt>
<wgt id='1277'> +1.3504177e-12 </wgt>
<wgt id='1278'> +1.3694410e-12 </wgt>
<wgt id='1279'> +1.3530819e-12 </wgt>
<wgt id='1280'> +1.3466619e-12 </wgt>
<wgt id='1281'> +1.3575981e-12 </wgt>
<wgt id='1282'> +1.3482552e-12 </wgt>
<wgt id='1283'> +1.3426410e-12 </wgt>
<wgt id='1284'> +1.3449725e-12 </wgt>
<wgt id='1285'> +1.3469182e-12 </wgt>
<wgt id='1286'> +1.3497938e-12 </wgt>
<wgt id='1287'> +1.3507598e-12 </wgt>
<wgt id='1288'> +1.3514205e-12 </wgt>
<wgt id='1289'> +1.4645429e-12 </wgt>
<wgt id='1290'> +1.4694715e-12 </wgt>
<wgt id='1291'> +1.4592047e-12 </wgt>
<wgt id='1292'> +1.4667148e-12 </wgt>
<wgt id='1293'> +1.4629327e-12 </wgt>
<wgt id='1294'> +1.4390969e-12 </wgt>
<wgt id='1295'> +1.4890372e-12 </wgt>
<wgt id='1296'> +1.4716374e-12 </wgt>
<wgt id='1297'> +1.4555253e-12 </wgt>
<wgt id='1298'> +1.4784856e-12 </wgt>
<wgt id='1299'> +1.4471503e-12 </wgt>
<wgt id='1300'> +1.4662956e-12 </wgt>
<wgt id='1301'> +1.4608481e-12 </wgt>
<wgt id='1302'> +1.4673004e-12 </wgt>
<wgt id='1303'> +1.4606100e-12 </wgt>
<wgt id='1304'> +1.4619350e-12 </wgt>
<wgt id='1305'> +1.4662489e-12 </wgt>
<wgt id='1306'> +1.4624710e-12 </wgt>
<wgt id='1307'> +1.4668624e-12 </wgt>
<wgt id='1308'> +1.4528887e-12 </wgt>
<wgt id='1309'> +1.4733963e-12 </wgt>
<wgt id='1310'> +1.4798148e-12 </wgt>
<wgt id='1311'> +1.4485119e-12 </wgt>
<wgt id='1312'> +1.4744853e-12 </wgt>
<wgt id='1313'> +1.4559646e-12 </wgt>
<wgt id='1314'> +1.4478333e-12 </wgt>
<wgt id='1315'> +1.4820045e-12 </wgt>
<wgt id='1316'> +1.4640525e-12 </wgt>
<wgt id='1317'> +1.4689992e-12 </wgt>
<wgt id='1318'> +1.4719432e-12 </wgt>
<wgt id='1319'> +1.4530913e-12 </wgt>
<wgt id='1320'> +1.4949543e-12 </wgt>
<wgt id='1321'> +1.4384040e-12 </wgt>
<wgt id='1322'> +1.4640595e-12 </wgt>
<wgt id='1323'> +1.4635827e-12 </wgt>
<wgt id='1324'> +1.4664967e-12 </wgt>
<wgt id='1325'> +1.4659378e-12 </wgt>
<wgt id='1326'> +1.4622643e-12 </wgt>
<wgt id='1327'> +1.4660635e-12 </wgt>
<wgt id='1328'> +1.4602029e-12 </wgt>
<wgt id='1329'> +1.4679400e-12 </wgt>
<wgt id='1330'> +1.4542079e-12 </wgt>
<wgt id='1331'> +1.4786653e-12 </wgt>
<wgt id='1332'> +1.4732753e-12 </wgt>
<wgt id='1333'> +1.4717452e-12 </wgt>
<wgt id='1334'> +1.4603275e-12 </wgt>
<wgt id='1335'> +1.4770656e-12 </wgt>
<wgt id='1336'> +1.4691264e-12 </wgt>
<wgt id='1337'> +1.4759830e-12 </wgt>
<wgt id='1338'> +1.4640511e-12 </wgt>
<wgt id='1339'> +1.4632960e-12 </wgt>
<wgt id='1340'> +1.4395883e-12 </wgt>
<wgt id='1341'> +1.4442537e-12 </wgt>
<wgt id='1342'> +1.4346106e-12 </wgt>
<wgt id='1343'> +1.4419529e-12 </wgt>
<wgt id='1344'> +1.4379951e-12 </wgt>
<wgt id='1345'> +1.4130404e-12 </wgt>
<wgt id='1346'> +1.4641904e-12 </wgt>
<wgt id='1347'> +1.4477185e-12 </wgt>
<wgt id='1348'> +1.4303914e-12 </wgt>
<wgt id='1349'> +1.4535571e-12 </wgt>
<wgt id='1350'> +1.4259976e-12 </wgt>
<wgt id='1351'> +1.4420237e-12 </wgt>
<wgt id='1352'> +1.4342583e-12 </wgt>
<wgt id='1353'> +1.4425812e-12 </wgt>
<wgt id='1354'> +1.4341600e-12 </wgt>
<wgt id='1355'> +1.4364972e-12 </wgt>
<wgt id='1356'> +1.4412961e-12 </wgt>
<wgt id='1357'> +1.4350627e-12 </wgt>
<wgt id='1358'> +1.4448961e-12 </wgt>
<wgt id='1359'> +1.4295652e-12 </wgt>
<wgt id='1360'> +1.4483514e-12 </wgt>
<wgt id='1361'> +1.4529231e-12 </wgt>
<wgt id='1362'> +1.4222050e-12 </wgt>
<wgt id='1363'> +1.4552963e-12 </wgt>
<wgt id='1364'> +1.4306657e-12 </wgt>
<wgt id='1365'> +1.4460670e-12 </wgt>
<wgt id='1366'> +1.4286119e-12 </wgt>
<wgt id='1367'> +1.4396054e-12 </wgt>
<wgt id='1368'> +1.4421073e-12 </wgt>
<wgt id='1369'> +1.4443181e-12 </wgt>
<wgt id='1370'> +1.4322811e-12 </wgt>
<wgt id='1371'> +1.4633904e-12 </wgt>
<wgt id='1372'> +1.4102463e-12 </wgt>
<wgt id='1373'> +1.4336524e-12 </wgt>
<wgt id='1374'> +1.4433394e-12 </wgt>
<wgt id='1375'> +1.4412536e-12 </wgt>
<wgt id='1376'> +1.4411505e-12 </wgt>
<wgt id='1377'> +1.4395884e-12 </wgt>
<wgt id='1378'> +1.4418242e-12 </wgt>
<wgt id='1379'> +1.4355406e-12 </wgt>
<wgt id='1380'> +1.4432717e-12 </wgt>
<wgt id='1381'> +1.4292300e-12 </wgt>
<wgt id='1382'> +1.4529547e-12 </wgt>
<wgt id='1383'> +1.4502011e-12 </wgt>
<wgt id='1384'> +1.4464783e-12 </wgt>
<wgt id='1385'> +1.4350158e-12 </wgt>
<wgt id='1386'> +1.4520303e-12 </wgt>
<wgt id='1387'> +1.4434197e-12 </wgt>
<wgt id='1388'> +1.4508118e-12 </wgt>
<wgt id='1389'> +1.4382124e-12 </wgt>
<wgt id='1390'> +1.4389380e-12 </wgt>
<wgt id='1391'> +1.4167858e-12 </wgt>
<wgt id='1392'> +1.3800450e-12 </wgt>
<wgt id='1393'> +1.3938017e-12 </wgt>
<wgt id='1394'> +1.4057859e-12 </wgt>
<wgt id='1395'> +1.4305763e-12 </wgt>
<wgt id='1396'> +1.4179070e-12 </wgt>
<wgt id='1397'> +1.3779326e-12 </wgt>
<wgt id='1398'> +1.3846754e-12 </wgt>
<wgt id='1399'> +1.3919680e-12 </wgt>
<wgt id='1400'> +1.3999057e-12 </wgt>
<wgt id='1401'> +1.4088693e-12 </wgt>
<wgt id='1402'> +1.4268409e-12 </wgt>
<wgt id='1403'> +1.4360878e-12 </wgt>
<wgt id='1404'> +1.4454087e-12 </wgt>
<wgt id='1405'> +1.4179070e-12 </wgt>
<wgt id='1406'> +1.4143843e-12 </wgt>
<wgt id='1407'> +1.4162184e-12 </wgt>
<wgt id='1408'> +1.4193383e-12 </wgt>
<wgt id='1409'> +1.4206814e-12 </wgt>
<wgt id='1410'> +1.3147576e-12 </wgt>
<wgt id='1411'> +1.3250399e-12 </wgt>
<wgt id='1412'> +1.3014680e-12 </wgt>
<wgt id='1413'> +1.2982564e-12 </wgt>
<wgt id='1414'> +1.3311651e-12 </wgt>
<wgt id='1415'> +1.3100168e-12 </wgt>
<wgt id='1416'> +1.3166269e-12 </wgt>
<wgt id='1417'> +1.3099137e-12 </wgt>
<wgt id='1418'> +1.3195226e-12 </wgt>
<wgt id='1419'> +1.3200951e-12 </wgt>
<wgt id='1420'> +1.3095453e-12 </wgt>
<wgt id='1421'> +1.2971732e-12 </wgt>
<wgt id='1422'> +1.3221879e-12 </wgt>
<wgt id='1423'> +1.3177521e-12 </wgt>
<wgt id='1424'> +1.3110933e-12 </wgt>
<wgt id='1425'> +1.3117239e-12 </wgt>
<wgt id='1426'> +1.3178341e-12 </wgt>
<wgt id='1427'> +1.2951144e-12 </wgt>
<wgt id='1428'> +1.3254498e-12 </wgt>
<wgt id='1429'> +1.3137160e-12 </wgt>
<wgt id='1430'> +1.3164732e-12 </wgt>
<wgt id='1431'> +1.3038335e-12 </wgt>
<wgt id='1432'> +1.3222127e-12 </wgt>
<wgt id='1433'> +1.2901913e-12 </wgt>
<wgt id='1434'> +1.3356714e-12 </wgt>
<wgt id='1435'> +1.3091224e-12 </wgt>
<wgt id='1436'> +1.3303257e-12 </wgt>
<wgt id='1437'> +1.3181218e-12 </wgt>
<wgt id='1438'> +1.3206029e-12 </wgt>
<wgt id='1439'> +1.3075103e-12 </wgt>
<wgt id='1440'> +1.3247694e-12 </wgt>
<wgt id='1441'> +1.3255271e-12 </wgt>
<wgt id='1442'> +1.2927458e-12 </wgt>
<wgt id='1443'> +1.3123163e-12 </wgt>
<wgt id='1444'> +1.3213448e-12 </wgt>
<wgt id='1445'> +1.3223255e-12 </wgt>
<wgt id='1446'> +1.3136285e-12 </wgt>
<wgt id='1447'> +1.3157881e-12 </wgt>
<wgt id='1448'> +1.3104943e-12 </wgt>
<wgt id='1449'> +1.3110455e-12 </wgt>
<wgt id='1450'> +1.3163214e-12 </wgt>
<wgt id='1451'> +1.3255626e-12 </wgt>
<wgt id='1452'> +1.3049000e-12 </wgt>
<wgt id='1453'> +1.3144995e-12 </wgt>
<wgt id='1454'> +1.3131093e-12 </wgt>
<wgt id='1455'> +1.3259188e-12 </wgt>
<wgt id='1456'> +1.3325096e-12 </wgt>
<wgt id='1457'> +1.3286133e-12 </wgt>
<wgt id='1458'> +1.3117875e-12 </wgt>
<wgt id='1459'> +1.3235891e-12 </wgt>
<wgt id='1460'> +1.3320676e-12 </wgt>
<wgt id='1461'> +1.3147576e-12 </wgt>
<wgt id='1462'> +1.3088550e-12 </wgt>
<wgt id='1463'> +1.3184868e-12 </wgt>
<wgt id='1464'> +1.3127170e-12 </wgt>
<wgt id='1465'> +1.2721326e-12 </wgt>
<wgt id='1466'> +1.2794009e-12 </wgt>
<wgt id='1467'> +1.2869069e-12 </wgt>
<wgt id='1468'> +1.2977545e-12 </wgt>
<wgt id='1469'> +1.3045742e-12 </wgt>
<wgt id='1470'> +1.3210888e-12 </wgt>
<wgt id='1471'> +1.3285890e-12 </wgt>
<wgt id='1472'> +1.3367071e-12 </wgt>
<wgt id='1473'> +1.3127170e-12 </wgt>
<wgt id='1474'> +1.3104455e-12 </wgt>
<wgt id='1475'> +1.3125358e-12 </wgt>
<wgt id='1476'> +1.3132793e-12 </wgt>
<wgt id='1477'> +1.3139160e-12 </wgt>
<wgt id='1478'> +1.3926138e-12 </wgt>
<wgt id='1479'> +1.3926226e-12 </wgt>
<wgt id='1480'> +1.3904230e-12 </wgt>
<wgt id='1481'> +1.4288602e-12 </wgt>
<wgt id='1482'> +1.3955124e-12 </wgt>
<wgt id='1483'> +1.3695247e-12 </wgt>
<wgt id='1484'> +1.3823791e-12 </wgt>
<wgt id='1485'> +1.4022909e-12 </wgt>
<wgt id='1486'> +1.3918152e-12 </wgt>
<wgt id='1487'> +1.3997458e-12 </wgt>
<wgt id='1488'> +1.3902450e-12 </wgt>
<wgt id='1489'> +1.3948026e-12 </wgt>
<wgt id='1490'> +1.3859054e-12 </wgt>
<wgt id='1491'> +1.4030070e-12 </wgt>
<wgt id='1492'> +1.3926343e-12 </wgt>
<wgt id='1493'> +1.3671524e-12 </wgt>
<wgt id='1494'> +1.3805304e-12 </wgt>
<wgt id='1495'> +1.3889510e-12 </wgt>
<wgt id='1496'> +1.4023936e-12 </wgt>
<wgt id='1497'> +1.3910082e-12 </wgt>
<wgt id='1498'> +1.3960581e-12 </wgt>
<wgt id='1499'> +1.3942809e-12 </wgt>
<wgt id='1500'> +1.3935526e-12 </wgt>
<wgt id='1501'> +1.3956946e-12 </wgt>
<wgt id='1502'> +1.3903497e-12 </wgt>
<wgt id='1503'> +1.3958770e-12 </wgt>
<wgt id='1504'> +1.3876456e-12 </wgt>
<wgt id='1505'> +1.4135601e-12 </wgt>
<wgt id='1506'> +1.3927862e-12 </wgt>
<wgt id='1507'> +1.3922989e-12 </wgt>
<wgt id='1508'> +1.3950957e-12 </wgt>
<wgt id='1509'> +1.3136965e-12 </wgt>
<wgt id='1510'> +1.3215943e-12 </wgt>
<wgt id='1511'> +1.2849535e-12 </wgt>
<wgt id='1512'> +1.2998256e-12 </wgt>
<wgt id='1513'> +1.3115238e-12 </wgt>
<wgt id='1514'> +1.3172071e-12 </wgt>
<wgt id='1515'> +1.3159221e-12 </wgt>
<wgt id='1516'> +1.3135228e-12 </wgt>
<wgt id='1517'> +1.3118532e-12 </wgt>
<wgt id='1518'> +1.3126706e-12 </wgt>
<wgt id='1519'> +1.3146901e-12 </wgt>
<wgt id='1520'> +1.3114355e-12 </wgt>
<wgt id='1521'> +1.3117421e-12 </wgt>
<wgt id='1522'> +1.3132387e-12 </wgt>
<wgt id='1523'> +1.3132612e-12 </wgt>
<wgt id='1524'> +1.3157634e-12 </wgt>
<wgt id='1525'> +1.3150013e-12 </wgt>
<wgt id='1526'> +1.3133029e-12 </wgt>
<wgt id='1527'> +1.3132038e-12 </wgt>
<wgt id='1528'> +1.3107520e-12 </wgt>
<wgt id='1529'> +1.3120126e-12 </wgt>
<wgt id='1530'> +1.3140195e-12 </wgt>
<wgt id='1531'> +1.3153628e-12 </wgt>
<wgt id='1532'> +1.3088737e-12 </wgt>
<wgt id='1533'> +1.3215844e-12 </wgt>
<wgt id='1534'> +1.3137042e-12 </wgt>
<wgt id='1535'> +1.3109440e-12 </wgt>
<wgt id='1536'> +1.3200523e-12 </wgt>
<wgt id='1537'> +1.3183250e-12 </wgt>
<wgt id='1538'> +1.2962150e-12 </wgt>
<wgt id='1539'> +1.3103617e-12 </wgt>
<wgt id='1540'> +1.3117407e-12 </wgt>
<wgt id='1541'> +1.3108145e-12 </wgt>
<wgt id='1542'> +1.3105222e-12 </wgt>
<wgt id='1543'> +1.3132392e-12 </wgt>
<wgt id='1544'> +1.3156202e-12 </wgt>
<wgt id='1545'> +1.3134504e-12 </wgt>
<wgt id='1546'> +1.3166479e-12 </wgt>
<wgt id='1547'> +1.3126094e-12 </wgt>
<wgt id='1548'> +1.3151176e-12 </wgt>
<wgt id='1549'> +1.3134261e-12 </wgt>
<wgt id='1550'> +1.3127410e-12 </wgt>
<wgt id='1551'> +1.3133158e-12 </wgt>
<wgt id='1552'> +1.3129792e-12 </wgt>
<wgt id='1553'> +1.3171272e-12 </wgt>
<wgt id='1554'> +1.3101060e-12 </wgt>
<wgt id='1555'> +1.3154483e-12 </wgt>
<wgt id='1556'> +1.3182674e-12 </wgt>
<wgt id='1557'> +1.3115571e-12 </wgt>
<wgt id='1558'> +1.3186336e-12 </wgt>
<wgt id='1559'> +1.3159516e-12 </wgt>
<wgt id='1560'> +1.3159766e-12 </wgt>
<wgt id='1561'> +1.3121497e-12 </wgt>
<wgt id='1562'> +1.3117178e-12 </wgt>
<wgt id='1563'> +1.3140825e-12 </wgt>
<wgt id='1564'> +1.3100849e-12 </wgt>
<wgt id='1565'> +1.3155251e-12 </wgt>
<wgt id='1566'> +1.3115406e-12 </wgt>
<wgt id='1567'> +1.3137799e-12 </wgt>
<wgt id='1568'> +1.3139833e-12 </wgt>
<wgt id='1569'> +1.3136000e-12 </wgt>
<wgt id='1570'> +1.3130929e-12 </wgt>
<wgt id='1571'> +1.3147019e-12 </wgt>
<wgt id='1572'> +1.3150290e-12 </wgt>
<wgt id='1573'> +1.3123376e-12 </wgt>
<wgt id='1574'> +1.3136695e-12 </wgt>
<wgt id='1575'> +1.3145688e-12 </wgt>
<wgt id='1576'> +1.3143154e-12 </wgt>
<wgt id='1577'> +1.3151761e-12 </wgt>
<wgt id='1578'> +1.3126649e-12 </wgt>
<wgt id='1579'> +1.3126021e-12 </wgt>
<wgt id='1580'> +1.3114720e-12 </wgt>
<wgt id='1581'> +1.3161631e-12 </wgt>
<wgt id='1582'> +1.3117641e-12 </wgt>
<wgt id='1583'> +1.3151766e-12 </wgt>
<wgt id='1584'> +1.3132792e-12 </wgt>
<wgt id='1585'> +1.3130921e-12 </wgt>
<wgt id='1586'> +1.3149906e-12 </wgt>
<wgt id='1587'> +1.3137582e-12 </wgt>
<wgt id='1588'> +1.3158217e-12 </wgt>
<wgt id='1589'> +1.3143059e-12 </wgt>
<wgt id='1590'> +1.3128161e-12 </wgt>
<wgt id='1591'> +1.3132021e-12 </wgt>
<wgt id='1592'> +1.3134643e-12 </wgt>
<wgt id='1593'> +1.3124489e-12 </wgt>
<wgt id='1594'> +1.3140135e-12 </wgt>
<wgt id='1595'> +1.3142292e-12 </wgt>
<wgt id='1596'> +1.3124279e-12 </wgt>
<wgt id='1597'> +1.3135917e-12 </wgt>
<wgt id='1598'> +1.3139028e-12 </wgt>
<wgt id='1599'> +1.3132966e-12 </wgt>
<wgt id='1600'> +1.3158052e-12 </wgt>
<wgt id='1601'> +1.3132441e-12 </wgt>
<wgt id='1602'> +1.3130240e-12 </wgt>
<wgt id='1603'> +1.3130657e-12 </wgt>
<wgt id='1604'> +1.3127083e-12 </wgt>
<wgt id='1605'> +1.3125355e-12 </wgt>
<wgt id='1606'> +1.3151699e-12 </wgt>
<wgt id='1607'> +1.3134653e-12 </wgt>
<wgt id='1608'> +1.3130282e-12 </wgt>
<wgt id='1609'> +1.3157471e-12 </wgt>
<wgt id='1610'> +1.3025716e-12 </wgt>
<wgt id='1611'> +1.3225347e-12 </wgt>
<wgt id='1612'> +1.5599980e-12 </wgt>
<wgt id='1613'> +1.5299388e-12 </wgt>
<wgt id='1614'> +1.4961915e-12 </wgt>
<wgt id='1615'> +1.5047028e-12 </wgt>
<wgt id='1616'> +1.4939164e-12 </wgt>
<wgt id='1617'> +1.4878370e-12 </wgt>
<wgt id='1618'> +1.5881883e-12 </wgt>
<wgt id='1619'> +1.5052799e-12 </wgt>
<wgt id='1620'> +1.5464067e-12 </wgt>
<wgt id='1621'> +1.5607045e-12 </wgt>
<wgt id='1622'> +1.5491958e-12 </wgt>
<wgt id='1623'> +1.5769885e-12 </wgt>
<wgt id='1624'> +1.6402136e-12 </wgt>
<wgt id='1625'> +1.4602247e-12 </wgt>
<wgt id='1626'> +1.5202833e-12 </wgt>
<wgt id='1627'> +1.5975698e-12 </wgt>
<wgt id='1628'> +1.4839045e-12 </wgt>
<wgt id='1629'> +1.5741502e-12 </wgt>
<wgt id='1630'> +1.5001644e-12 </wgt>
<wgt id='1631'> +1.5371850e-12 </wgt>
<wgt id='1632'> +1.4486427e-12 </wgt>
<wgt id='1633'> +1.4890196e-12 </wgt>
<wgt id='1634'> +1.5239049e-12 </wgt>
<wgt id='1635'> +1.5840658e-12 </wgt>
<wgt id='1636'> +1.5463819e-12 </wgt>
<wgt id='1637'> +1.5968100e-12 </wgt>
<wgt id='1638'> +1.5814194e-12 </wgt>
<wgt id='1639'> +1.5423064e-12 </wgt>
<wgt id='1640'> +1.5124428e-12 </wgt>
<wgt id='1641'> +1.5750021e-12 </wgt>
<wgt id='1642'> +1.4646477e-12 </wgt>
<wgt id='1643'> +1.5232867e-12 </wgt>
<wgt id='1644'> +1.6102451e-12 </wgt>
<wgt id='1645'> +1.5040681e-12 </wgt>
<wgt id='1646'> +1.5662065e-12 </wgt>
<wgt id='1647'> +1.6192230e-12 </wgt>
<wgt id='1648'> +1.5706537e-12 </wgt>
<wgt id='1649'> +1.7016399e-12 </wgt>
<wgt id='1650'> +1.5115728e-12 </wgt>
<wgt id='1651'> +1.6239426e-12 </wgt>
<wgt id='1652'> +1.5295924e-12 </wgt>
<wgt id='1653'> +1.5874650e-12 </wgt>
<wgt id='1654'> +1.6336220e-12 </wgt>
<wgt id='1655'> +1.6336990e-12 </wgt>
<wgt id='1656'> +1.4962678e-12 </wgt>
<wgt id='1657'> +1.6116611e-12 </wgt>
<wgt id='1658'> +1.5235407e-12 </wgt>
<wgt id='1659'> +1.6402136e-12 </wgt>
<wgt id='1660'> +1.5611598e-12 </wgt>
<wgt id='1661'> +1.5968350e-12 </wgt>
<wgt id='1662'> +1.6199289e-12 </wgt>
<wgt id='1663'> +1.5494599e-12 </wgt>
<wgt id='1664'> +1.5411037e-12 </wgt>
<wgt id='1665'> +1.5072888e-12 </wgt>
<wgt id='1666'> +1.5796887e-12 </wgt>
<wgt id='1667'> +1.6190451e-12 </wgt>
<wgt id='1668'> +1.6109809e-12 </wgt>
<wgt id='1669'> +1.6124230e-12 </wgt>
<wgt id='1670'> +1.5071414e-12 </wgt>
<wgt id='1671'> +1.5053804e-12 </wgt>
<wgt id='1672'> +1.5675134e-12 </wgt>
<wgt id='1673'> +1.6156351e-12 </wgt>
<wgt id='1674'> +1.5796570e-12 </wgt>
<wgt id='1675'> +1.5441135e-12 </wgt>
<wgt id='1676'> +1.5482047e-12 </wgt>
<wgt id='1677'> +1.4843395e-12 </wgt>
<wgt id='1678'> +1.5491791e-12 </wgt>
<wgt id='1679'> +1.6122671e-12 </wgt>
<wgt id='1680'> +1.6410750e-12 </wgt>
<wgt id='1681'> +1.5828524e-12 </wgt>
<wgt id='1682'> +1.5292735e-12 </wgt>
<wgt id='1683'> +1.6185406e-12 </wgt>
<wgt id='1684'> +1.6112573e-12 </wgt>
<wgt id='1685'> +1.5874866e-12 </wgt>
<wgt id='1686'> +1.5230680e-12 </wgt>
<wgt id='1687'> +1.5532996e-12 </wgt>
<wgt id='1688'> +1.4985415e-12 </wgt>
<wgt id='1689'> +1.6311572e-12 </wgt>
<wgt id='1690'> +1.5628342e-12 </wgt>
<wgt id='1691'> +1.4555319e-12 </wgt>
<wgt id='1692'> +1.4607661e-12 </wgt>
<wgt id='1693'> +1.5454919e-12 </wgt>
<wgt id='1694'> +1.5159214e-12 </wgt>
<wgt id='1695'> +1.5186790e-12 </wgt>
<wgt id='1696'> +1.5648578e-12 </wgt>
<wgt id='1697'> +1.6084567e-12 </wgt>
<wgt id='1698'> +1.5752858e-12 </wgt>
<wgt id='1699'> +1.6324344e-12 </wgt>
<wgt id='1700'> +1.5156007e-12 </wgt>
<wgt id='1701'> +1.6509993e-12 </wgt>
<wgt id='1702'> +1.5468694e-12 </wgt>
<wgt id='1703'> +1.4909978e-12 </wgt>
<wgt id='1704'> +1.4987515e-12 </wgt>
<wgt id='1705'> +1.4627653e-12 </wgt>
<wgt id='1706'> +1.6556091e-12 </wgt>
<wgt id='1707'> +1.5953241e-12 </wgt>
<wgt id='1708'> +1.7027184e-12 </wgt>
<wgt id='1709'> +1.6431628e-12 </wgt>
<wgt id='1710'> +1.5697911e-12 </wgt>
<wgt id='1711'> +1.5650714e-12 </wgt>
<wgt id='1712'> +1.6675742e-12 </wgt>
<wgt id='1713'> +1.3551403e-12 </wgt>
<wgt id='1714'> +1.3596667e-12 </wgt>
<wgt id='1715'> +1.3077299e-12 </wgt>
<wgt id='1716'> +1.3563460e-12 </wgt>
<wgt id='1717'> +1.4016624e-12 </wgt>
<wgt id='1718'> +1.3310029e-12 </wgt>
<wgt id='1719'> +1.3726462e-12 </wgt>
<wgt id='1720'> +1.3105275e-12 </wgt>
<wgt id='1721'> +1.3726272e-12 </wgt>
<wgt id='1722'> +1.3461505e-12 </wgt>
<wgt id='1723'> +1.4372340e-12 </wgt>
<wgt id='1724'> +1.3496144e-12 </wgt>
<wgt id='1725'> +1.3337798e-12 </wgt>
<wgt id='1726'> +1.3205917e-12 </wgt>
<wgt id='1727'> +1.4107747e-12 </wgt>
<wgt id='1728'> +1.3392465e-12 </wgt>
<wgt id='1729'> +1.2823485e-12 </wgt>
<wgt id='1730'> +1.2982512e-12 </wgt>
<wgt id='1731'> +1.2247036e-12 </wgt>
<wgt id='1732'> +1.3741008e-12 </wgt>
<wgt id='1733'> +1.3517139e-12 </wgt>
<wgt id='1734'> +1.4612033e-12 </wgt>
<wgt id='1735'> +1.3593186e-12 </wgt>
<wgt id='1736'> +1.3461289e-12 </wgt>
<wgt id='1737'> +1.4059251e-12 </wgt>
<wgt id='1738'> +1.3182509e-12 </wgt>
<wgt id='1739'> +1.3569727e-12 </wgt>
<wgt id='1740'> +1.2480977e-12 </wgt>
<wgt id='1741'> +1.4043097e-12 </wgt>
<wgt id='1742'> +1.3609068e-12 </wgt>
<wgt id='1743'> +1.3097494e-12 </wgt>
<wgt id='1744'> +1.3967437e-12 </wgt>
<wgt id='1745'> +1.4157263e-12 </wgt>
<wgt id='1746'> +1.3773986e-12 </wgt>
<wgt id='1747'> +1.4020334e-12 </wgt>
<wgt id='1748'> +1.3651315e-12 </wgt>
<wgt id='1749'> +1.3288089e-12 </wgt>
<wgt id='1750'> +1.3056808e-12 </wgt>
<wgt id='1751'> +1.3637787e-12 </wgt>
<wgt id='1752'> +1.3407829e-12 </wgt>
<wgt id='1753'> +1.3756224e-12 </wgt>
<wgt id='1754'> +1.3954014e-12 </wgt>
<wgt id='1755'> +1.3606231e-12 </wgt>
<wgt id='1756'> +1.3816875e-12 </wgt>
<wgt id='1757'> +1.3969326e-12 </wgt>
<wgt id='1758'> +1.4432617e-12 </wgt>
<wgt id='1759'> +1.3649020e-12 </wgt>
<wgt id='1760'> +1.3770457e-12 </wgt>
<wgt id='1761'> +1.3550833e-12 </wgt>
<wgt id='1762'> +1.3336946e-12 </wgt>
<wgt id='1763'> +1.3885665e-12 </wgt>
<wgt id='1764'> +1.4288742e-12 </wgt>
<wgt id='1765'> +1.3482587e-12 </wgt>
<wgt id='1766'> +1.3523627e-12 </wgt>
<wgt id='1767'> +1.3451908e-12 </wgt>
<wgt id='1768'> +1.3819562e-12 </wgt>
<wgt id='1769'> +1.3270189e-12 </wgt>
<wgt id='1770'> +1.3021261e-12 </wgt>
<wgt id='1771'> +1.4207878e-12 </wgt>
<wgt id='1772'> +1.3311004e-12 </wgt>
<wgt id='1773'> +1.3920838e-12 </wgt>
<wgt id='1774'> +1.3191509e-12 </wgt>
<wgt id='1775'> +1.3526473e-12 </wgt>
<wgt id='1776'> +1.3381841e-12 </wgt>
<wgt id='1777'> +1.2585746e-12 </wgt>
<wgt id='1778'> +1.3897826e-12 </wgt>
<wgt id='1779'> +1.3225059e-12 </wgt>
<wgt id='1780'> +1.4547395e-12 </wgt>
<wgt id='1781'> +1.3765763e-12 </wgt>
<wgt id='1782'> +1.3492371e-12 </wgt>
<wgt id='1783'> +1.4065143e-12 </wgt>
<wgt id='1784'> +1.3346918e-12 </wgt>
<wgt id='1785'> +1.3449291e-12 </wgt>
<wgt id='1786'> +1.3701326e-12 </wgt>
<wgt id='1787'> +1.4372148e-12 </wgt>
<wgt id='1788'> +1.3267637e-12 </wgt>
<wgt id='1789'> +1.4727711e-12 </wgt>
<wgt id='1790'> +1.3335918e-12 </wgt>
<wgt id='1791'> +1.3270052e-12 </wgt>
<wgt id='1792'> +1.3429982e-12 </wgt>
<wgt id='1793'> +1.3417857e-12 </wgt>
<wgt id='1794'> +1.4012225e-12 </wgt>
<wgt id='1795'> +1.3666691e-12 </wgt>
<wgt id='1796'> +1.3649592e-12 </wgt>
<wgt id='1797'> +1.3571388e-12 </wgt>
<wgt id='1798'> +1.3643640e-12 </wgt>
<wgt id='1799'> +1.3301031e-12 </wgt>
<wgt id='1800'> +1.3988549e-12 </wgt>
<wgt id='1801'> +1.3353412e-12 </wgt>
<wgt id='1802'> +1.2886096e-12 </wgt>
<wgt id='1803'> +1.3636154e-12 </wgt>
<wgt id='1804'> +1.4031804e-12 </wgt>
<wgt id='1805'> +1.3412720e-12 </wgt>
<wgt id='1806'> +1.3256656e-12 </wgt>
<wgt id='1807'> +1.3271844e-12 </wgt>
<wgt id='1808'> +1.2924717e-12 </wgt>
<wgt id='1809'> +1.3305090e-12 </wgt>
<wgt id='1810'> +1.2929050e-12 </wgt>
<wgt id='1811'> +1.3372881e-12 </wgt>
<wgt id='1812'> +1.3168333e-12 </wgt>
<wgt id='1813'> +1.2311013e-12 </wgt>
<wgt id='1814'> +1.8055781e-12 </wgt>
<wgt id='1815'> +2.2633253e-12 </wgt>
<wgt id='1816'> +1.3551403e-12 </wgt>
<wgt id='1817'> +1.3596667e-12 </wgt>
<wgt id='1818'> +1.3077299e-12 </wgt>
<wgt id='1819'> +1.3563460e-12 </wgt>
<wgt id='1820'> +1.4016624e-12 </wgt>
<wgt id='1821'> +1.3310029e-12 </wgt>
<wgt id='1822'> +1.3726462e-12 </wgt>
<wgt id='1823'> +1.3105275e-12 </wgt>
<wgt id='1824'> +1.3726272e-12 </wgt>
<wgt id='1825'> +1.3461505e-12 </wgt>
<wgt id='1826'> +1.4372340e-12 </wgt>
<wgt id='1827'> +1.3496144e-12 </wgt>
<wgt id='1828'> +1.3337798e-12 </wgt>
<wgt id='1829'> +1.3205917e-12 </wgt>
<wgt id='1830'> +1.4107747e-12 </wgt>
<wgt id='1831'> +1.3392465e-12 </wgt>
<wgt id='1832'> +1.2823485e-12 </wgt>
<wgt id='1833'> +1.2982512e-12 </wgt>
<wgt id='1834'> +1.2247036e-12 </wgt>
<wgt id='1835'> +1.3741008e-12 </wgt>
<wgt id='1836'> +1.3517139e-12 </wgt>
<wgt id='1837'> +1.4612033e-12 </wgt>
<wgt id='1838'> +1.3593186e-12 </wgt>
<wgt id='1839'> +1.3461289e-12 </wgt>
<wgt id='1840'> +1.4059251e-12 </wgt>
<wgt id='1841'> +1.3182509e-12 </wgt>
<wgt id='1842'> +1.3569727e-12 </wgt>
<wgt id='1843'> +1.2480977e-12 </wgt>
<wgt id='1844'> +1.4043097e-12 </wgt>
<wgt id='1845'> +1.3609068e-12 </wgt>
<wgt id='1846'> +1.3097494e-12 </wgt>
<wgt id='1847'> +1.3967437e-12 </wgt>
<wgt id='1848'> +1.4157263e-12 </wgt>
<wgt id='1849'> +1.3773986e-12 </wgt>
<wgt id='1850'> +1.4020334e-12 </wgt>
<wgt id='1851'> +1.3651315e-12 </wgt>
<wgt id='1852'> +1.3288089e-12 </wgt>
<wgt id='1853'> +1.3056808e-12 </wgt>
<wgt id='1854'> +1.3637787e-12 </wgt>
<wgt id='1855'> +1.3407829e-12 </wgt>
<wgt id='1856'> +1.3756224e-12 </wgt>
<wgt id='1857'> +1.3954014e-12 </wgt>
<wgt id='1858'> +1.3606231e-12 </wgt>
<wgt id='1859'> +1.3816875e-12 </wgt>
<wgt id='1860'> +1.3969326e-12 </wgt>
<wgt id='1861'> +1.4432617e-12 </wgt>
<wgt id='1862'> +1.3649020e-12 </wgt>
<wgt id='1863'> +1.3770457e-12 </wgt>
<wgt id='1864'> +1.3550833e-12 </wgt>
<wgt id='1865'> +1.3336946e-12 </wgt>
<wgt id='1866'> +1.3885665e-12 </wgt>
<wgt id='1867'> +1.4288742e-12 </wgt>
<wgt id='1868'> +1.3482587e-12 </wgt>
<wgt id='1869'> +1.3523627e-12 </wgt>
<wgt id='1870'> +1.3451908e-12 </wgt>
<wgt id='1871'> +1.3819562e-12 </wgt>
<wgt id='1872'> +1.3270189e-12 </wgt>
<wgt id='1873'> +1.3021261e-12 </wgt>
<wgt id='1874'> +1.4207878e-12 </wgt>
<wgt id='1875'> +1.3311004e-12 </wgt>
<wgt id='1876'> +1.3920838e-12 </wgt>
<wgt id='1877'> +1.3191509e-12 </wgt>
<wgt id='1878'> +1.3526473e-12 </wgt>
<wgt id='1879'> +1.3381841e-12 </wgt>
<wgt id='1880'> +1.2585746e-12 </wgt>
<wgt id='1881'> +1.3897826e-12 </wgt>
<wgt id='1882'> +1.3225059e-12 </wgt>
<wgt id='1883'> +1.4547395e-12 </wgt>
<wgt id='1884'> +1.3765763e-12 </wgt>
<wgt id='1885'> +1.3492371e-12 </wgt>
<wgt id='1886'> +1.4065143e-12 </wgt>
<wgt id='1887'> +1.3346918e-12 </wgt>
<wgt id='1888'> +1.3449291e-12 </wgt>
<wgt id='1889'> +1.3701326e-12 </wgt>
<wgt id='1890'> +1.4372148e-12 </wgt>
<wgt id='1891'> +1.3267637e-12 </wgt>
<wgt id='1892'> +1.4727711e-12 </wgt>
<wgt id='1893'> +1.3335918e-12 </wgt>
<wgt id='1894'> +1.3270052e-12 </wgt>
<wgt id='1895'> +1.3429982e-12 </wgt>
<wgt id='1896'> +1.3417857e-12 </wgt>
<wgt id='1897'> +1.4012225e-12 </wgt>
<wgt id='1898'> +1.3666691e-12 </wgt>
<wgt id='1899'> +1.3649592e-12 </wgt>
<wgt id='1900'> +1.3571388e-12 </wgt>
<wgt id='1901'> +1.3643640e-12 </wgt>
<wgt id='1902'> +1.3301031e-12 </wgt>
<wgt id='1903'> +1.3988549e-12 </wgt>
<wgt id='1904'> +1.3353412e-12 </wgt>
<wgt id='1905'> +1.2886096e-12 </wgt>
<wgt id='1906'> +1.3636154e-12 </wgt>
<wgt id='1907'> +1.4031804e-12 </wgt>
<wgt id='1908'> +1.3412720e-12 </wgt>
<wgt id='1909'> +1.3256656e-12 </wgt>
<wgt id='1910'> +1.3271844e-12 </wgt>
<wgt id='1911'> +1.2924717e-12 </wgt>
<wgt id='1912'> +1.3305090e-12 </wgt>
<wgt id='1913'> +1.2929050e-12 </wgt>
<wgt id='1914'> +1.3372881e-12 </wgt>
<wgt id='1915'> +1.3168333e-12 </wgt>
<wgt id='1916'> +1.2311013e-12 </wgt>
<wgt id='1917'> +1.3545411e-12 </wgt>
<wgt id='1918'> +1.3740807e-12 </wgt>
<wgt id='1919'> +1.2942659e-12 </wgt>
</rwgt>
</event>
<event>
 9      1 +1.5538000e-12 4.58811100e+01 7.81860800e-03 1.33278100e-01
        2 -1    0    0  502    0 -0.0000000000e+00 +0.0000000000e+00 +3.7982220426e+01 3.7982220426e+01 0.0000000000e+00 0.0000e+00 1.0000e+00
       21 -1    0    0  501  502 +0.0000000000e+00 -0.0000000000e+00 -1.3855669938e+01 1.3855669938e+01 0.0000000000e+00 0.0000e+00 1.0000e+00
     1023  2    1    2    0    0 -1.8713301773e+01 +8.3379660288e+00 +1.3677730091e+01 2.8840342920e+01 1.4999191263e+01 0.0000e+00 0.0000e+00
  1000023  2    3    3    0    0 -1.5822676722e+01 +9.7625514099e+00 +1.1244760921e+01 2.2413485549e+01 5.5004706685e+00 0.0000e+00 0.0000e+00
        2  1    1    2  501    0 +1.8713301773e+01 -8.3379660288e+00 +1.0448820396e+01 2.2997547444e+01 0.0000000000e+00 0.0000e+00 1.0000e+00
  1000022  1    4    4    0    0 -1.3895313158e+01 +8.3559393186e+00 +9.4632622162e+00 1.9428195527e+01 5.0000000000e+00 0.0000e+00 1.0000e+00
      -11  1    4    4    0    0 -1.5505607040e+00 +1.2060093447e+00 +1.3934880391e+00 2.4084240102e+00 5.1100000000e-04 0.0000e+00 -1.0000e+00
       11  1    4    4    0    0 -3.7680285998e-01 +2.0060274663e-01 +3.8801066591e-01 5.7686601150e-01 5.1100000000e-04 0.0000e+00 1.0000e+00
  1000022  1    3    3    0    0 -2.8906250513e+00 -1.4245853811e+00 +2.4329691703e+00 6.4268573719e+00 5.0000000000e+00 0.0000e+00 1.0000e+00
<mgrwt>
<rscale>  1 0.45881112E+02</rscale>
<asrwt>0</asrwt>
<pdfrwt beam="1">  1       21 0.21316415E-02 0.45881112E+02</pdfrwt>
<pdfrwt beam="2">  1        2 0.58434185E-02 0.45881112E+02</pdfrwt>
<totfact> 0.14645876E+07</totfact>
</mgrwt>
<rwgt>
<wgt id='1001'> +1.5538000e-12 </wgt>
<wgt id='1002'> +1.5508375e-12 </wgt>
<wgt id='1003'> +1.5535694e-12 </wgt>
<wgt id='1004'> +1.4434592e-12 </wgt>
<wgt id='1005'> +1.5538000e-12 </wgt>
<wgt id='1006'> +1.3742762e-12 </wgt>
<wgt id='1007'> +1.3708877e-12 </wgt>
<wgt id='1008'> +1.3740119e-12 </wgt>
<wgt id='1009'> +1.2531341e-12 </wgt>
<wgt id='1010'> +1.3742762e-12 </wgt>
<wgt id='1011'> +1.7896852e-12 </wgt>
<wgt id='1012'> +1.7876161e-12 </wgt>
<wgt id='1013'> +1.7895243e-12 </wgt>
<wgt id='1014'> +1.7055786e-12 </wgt>
<wgt id='1015'> +1.7896852e-12 </wgt>
<wgt id='1016'> +1.8297321e-12 </wgt>
<wgt id='1017'> +1.8288998e-12 </wgt>
<wgt id='1018'> +1.8296683e-12 </wgt>
<wgt id='1019'> +1.7895243e-12 </wgt>
<wgt id='1020'> +1.8297321e-12 </wgt>
<wgt id='1021'> +1.6183275e-12 </wgt>
<wgt id='1022'> +1.6166853e-12 </wgt>
<wgt id='1023'> +1.6182000e-12 </wgt>
<wgt id='1024'> +1.5535694e-12 </wgt>
<wgt id='1025'> +1.6183275e-12 </wgt>
<wgt id='1026'> +2.1075070e-12 </wgt>
<wgt id='1027'> +2.1081323e-12 </wgt>
<wgt id='1028'> +2.1075569e-12 </wgt>
<wgt id='1029'> +2.1144861e-12 </wgt>
<wgt id='1030'> +2.1075070e-12 </wgt>
<wgt id='1031'> +1.2535325e-12 </wgt>
<wgt id='1032'> +1.2484189e-12 </wgt>
<wgt id='1033'> +1.2531341e-12 </wgt>
<wgt id='1034'> +1.0734754e-12 </wgt>
<wgt id='1035'> +1.2535325e-12 </wgt>
<wgt id='1036'> +1.1087012e-12 </wgt>
<wgt id='1037'> +1.1035599e-12 </wgt>
<wgt id='1038'> +1.1083002e-12 </wgt>
<wgt id='1039'> +9.3193398e-13 </wgt>
<wgt id='1040'> +1.1087012e-12 </wgt>
<wgt id='1041'> +1.4438335e-12 </wgt>
<wgt id='1042'> +1.4390248e-12 </wgt>
<wgt id='1043'> +1.4434592e-12 </wgt>
<wgt id='1044'> +1.2684090e-12 </wgt>
<wgt id='1045'> +1.4438335e-12 </wgt>
<wgt id='1046'> +1.5538000e-12 </wgt>
<wgt id='1047'> +1.5866671e-12 </wgt>
<wgt id='1048'> +1.5357935e-12 </wgt>
<wgt id='1049'> +1.5278814e-12 </wgt>
<wgt id='1050'> +1.5300412e-12 </wgt>
<wgt id='1051'> +1.5631341e-12 </wgt>
<wgt id='1052'> +1.5387937e-12 </wgt>
<wgt id='1053'> +1.5449879e-12 </wgt>
<wgt id='1054'> +1.5340305e-12 </wgt>
<wgt id='1055'> +1.5189137e-12 </wgt>
<wgt id='1056'> +1.5553030e-12 </wgt>
<wgt id='1057'> +1.5816092e-12 </wgt>
<wgt id='1058'> +1.5120969e-12 </wgt>
<wgt id='1059'> +1.5615342e-12 </wgt>
<wgt id='1060'> +1.5645938e-12 </wgt>
<wgt id='1061'> +1.5483220e-12 </wgt>
<wgt id='1062'> +1.5619408e-12 </wgt>
<wgt id='1063'> +1.5719916e-12 </wgt>
<wgt id='1064'> +1.5508290e-12 </wgt>
<wgt id='1065'> +1.5469734e-12 </wgt>
<wgt id='1066'> +1.5387316e-12 </wgt>
<wgt id='1067'> +1.5090291e-12 </wgt>
<wgt id='1068'> +1.5731497e-12 </wgt>
<wgt id='1069'> +1.5634952e-12 </wgt>
<wgt id='1070'> +1.5482338e-12 </wgt>
<wgt id='1071'> +1.5071687e-12 </wgt>
<wgt id='1072'> +1.5815629e-12 </wgt>
<wgt id='1073'> +1.5730730e-12 </wgt>
<wgt id='1074'> +1.5343940e-12 </wgt>
<wgt id='1075'> +1.5517085e-12 </wgt>
<wgt id='1076'> +1.5554006e-12 </wgt>
<wgt id='1077'> +1.5670000e-12 </wgt>
<wgt id='1078'> +1.5297948e-12 </wgt>
<wgt id='1079'> +1.5319657e-12 </wgt>
<wgt id='1080'> +1.5229837e-12 </wgt>
<wgt id='1081'> +1.5960230e-12 </wgt>
<wgt id='1082'> +1.5338838e-12 </wgt>
<wgt id='1083'> +1.5809857e-12 </wgt>
<wgt id='1084'> +1.5329345e-12 </wgt>
<wgt id='1085'> +1.5487619e-12 </wgt>
<wgt id='1086'> +1.5556502e-12 </wgt>
<wgt id='1087'> +1.5537664e-12 </wgt>
<wgt id='1088'> +1.5464911e-12 </wgt>
<wgt id='1089'> +1.5759624e-12 </wgt>
<wgt id='1090'> +1.5432130e-12 </wgt>
<wgt id='1091'> +1.5608819e-12 </wgt>
<wgt id='1092'> +1.5760287e-12 </wgt>
<wgt id='1093'> +1.5425667e-12 </wgt>
<wgt id='1094'> +1.5804253e-12 </wgt>
<wgt id='1095'> +1.5685258e-12 </wgt>
<wgt id='1096'> +1.5866428e-12 </wgt>
<wgt id='1097'> +1.5408863e-12 </wgt>
<wgt id='1098'> +1.5325017e-12 </wgt>
<wgt id='1099'> +1.5510825e-12 </wgt>
<wgt id='1100'> +1.5527605e-12 </wgt>
<wgt id='1101'> +1.5738294e-12 </wgt>
<wgt id='1102'> +1.5597960e-12 </wgt>
<wgt id='1103'> +1.5931344e-12 </wgt>
<wgt id='1104'> +1.5335084e-12 </wgt>
<wgt id='1105'> +1.5554280e-12 </wgt>
<wgt id='1106'> +1.5755265e-12 </wgt>
<wgt id='1107'> +1.5535831e-12 </wgt>
<wgt id='1108'> +1.5528933e-12 </wgt>
<wgt id='1109'> +1.5893366e-12 </wgt>
<wgt id='1110'> +1.5513372e-12 </wgt>
<wgt id='1111'> +1.5536772e-12 </wgt>
<wgt id='1112'> +1.5833560e-12 </wgt>
<wgt id='1113'> +1.5725385e-12 </wgt>
<wgt id='1114'> +1.5624380e-12 </wgt>
<wgt id='1115'> +1.5248903e-12 </wgt>
<wgt id='1116'> +1.5337839e-12 </wgt>
<wgt id='1117'> +1.5427365e-12 </wgt>
<wgt id='1118'> +1.6361010e-12 </wgt>
<wgt id='1119'> +1.5148614e-12 </wgt>
<wgt id='1120'> +1.5415427e-12 </wgt>
<wgt id='1121'> +1.5505890e-12 </wgt>
<wgt id='1122'> +1.5871205e-12 </wgt>
<wgt id='1123'> +1.5231126e-12 </wgt>
<wgt id='1124'> +1.5232204e-12 </wgt>
<wgt id='1125'> +1.5335544e-12 </wgt>
<wgt id='1126'> +1.5848808e-12 </wgt>
<wgt id='1127'> +1.5455798e-12 </wgt>
<wgt id='1128'> +1.5619408e-12 </wgt>
<wgt id='1129'> +1.5574658e-12 </wgt>
<wgt id='1130'> +1.5590964e-12 </wgt>
<wgt id='1131'> +1.5575105e-12 </wgt>
<wgt id='1132'> +1.5682705e-12 </wgt>
<wgt id='1133'> +1.5471396e-12 </wgt>
<wgt id='1134'> +1.5856661e-12 </wgt>
<wgt id='1135'> +1.5091410e-12 </wgt>
<wgt id='1136'> +1.5388155e-12 </wgt>
<wgt id='1137'> +1.5203924e-12 </wgt>
<wgt id='1138'> +1.5517523e-12 </wgt>
<wgt id='1139'> +1.5577762e-12 </wgt>
<wgt id='1140'> +1.5770606e-12 </wgt>
<wgt id='1141'> +1.5462088e-12 </wgt>
<wgt id='1142'> +1.5329393e-12 </wgt>
<wgt id='1143'> +1.5815305e-12 </wgt>
<wgt id='1144'> +1.5682211e-12 </wgt>
<wgt id='1145'> +1.5572702e-12 </wgt>
<wgt id='1146'> +1.5632490e-12 </wgt>
<wgt id='1147'> +1.2373051e-12 </wgt>
<wgt id='1148'> +1.2679862e-12 </wgt>
<wgt id='1149'> +1.2826463e-12 </wgt>
<wgt id='1150'> +1.2656790e-12 </wgt>
<wgt id='1151'> +1.3310864e-12 </wgt>
<wgt id='1152'> +1.6999900e-12 </wgt>
<wgt id='1153'> +1.6906070e-12 </wgt>
<wgt id='1154'> +1.7054320e-12 </wgt>
<wgt id='1155'> +1.6995046e-12 </wgt>
<wgt id='1156'> +1.7002374e-12 </wgt>
<wgt id='1157'> +1.7025621e-12 </wgt>
<wgt id='1158'> +1.6964918e-12 </wgt>
<wgt id='1159'> +1.7022159e-12 </wgt>
<wgt id='1160'> +1.6985905e-12 </wgt>
<wgt id='1161'> +1.6959074e-12 </wgt>
<wgt id='1162'> +1.7028179e-12 </wgt>
<wgt id='1163'> +1.7038726e-12 </wgt>
<wgt id='1164'> +1.6961283e-12 </wgt>
<wgt id='1165'> +1.6883006e-12 </wgt>
<wgt id='1166'> +1.7113256e-12 </wgt>
<wgt id='1167'> +1.7097541e-12 </wgt>
<wgt id='1168'> +1.6866831e-12 </wgt>
<wgt id='1169'> +1.7022602e-12 </wgt>
<wgt id='1170'> +1.6982849e-12 </wgt>
<wgt id='1171'> +1.6958247e-12 </wgt>
<wgt id='1172'> +1.7049315e-12 </wgt>
<wgt id='1173'> +1.6891816e-12 </wgt>
<wgt id='1174'> +1.7099893e-12 </wgt>
<wgt id='1175'> +1.7015341e-12 </wgt>
<wgt id='1176'> +1.6978122e-12 </wgt>
<wgt id='1177'> +1.7022331e-12 </wgt>
<wgt id='1178'> +1.6938636e-12 </wgt>
<wgt id='1179'> +1.7064182e-12 </wgt>
<wgt id='1180'> +1.6871421e-12 </wgt>
<wgt id='1181'> +1.6930236e-12 </wgt>
<wgt id='1182'> +1.7069489e-12 </wgt>
<wgt id='1183'> +1.7013467e-12 </wgt>
<wgt id='1184'> +1.6998895e-12 </wgt>
<wgt id='1185'> +1.6933909e-12 </wgt>
<wgt id='1186'> +1.7036499e-12 </wgt>
<wgt id='1187'> +1.6990090e-12 </wgt>
<wgt id='1188'> +1.7003232e-12 </wgt>
<wgt id='1189'> +1.6945345e-12 </wgt>
<wgt id='1190'> +1.6886513e-12 </wgt>
<wgt id='1191'> +1.6951865e-12 </wgt>
<wgt id='1192'> +1.7019512e-12 </wgt>
<wgt id='1193'> +1.2637789e-12 </wgt>
<wgt id='1194'> +1.2614937e-12 </wgt>
<wgt id='1195'> +1.2657022e-12 </wgt>
<wgt id='1196'> +1.2697429e-12 </wgt>
<wgt id='1197'> +1.2572084e-12 </wgt>
<wgt id='1198'> +1.2644918e-12 </wgt>
<wgt id='1199'> +1.2627718e-12 </wgt>
<wgt id='1200'> +1.2654857e-12 </wgt>
<wgt id='1201'> +1.2627224e-12 </wgt>
<wgt id='1202'> +1.2617980e-12 </wgt>
<wgt id='1203'> +1.2666028e-12 </wgt>
<wgt id='1204'> +1.2520590e-12 </wgt>
<wgt id='1205'> +1.2710350e-12 </wgt>
<wgt id='1206'> +1.2682047e-12 </wgt>
<wgt id='1207'> +1.2578163e-12 </wgt>
<wgt id='1208'> +1.2558791e-12 </wgt>
<wgt id='1209'> +1.2666721e-12 </wgt>
<wgt id='1210'> +1.2645952e-12 </wgt>
<wgt id='1211'> +1.2545020e-12 </wgt>
<wgt id='1212'> +1.2644331e-12 </wgt>
<wgt id='1213'> +1.2631693e-12 </wgt>
<wgt id='1214'> +1.2485454e-12 </wgt>
<wgt id='1215'> +1.2884569e-12 </wgt>
<wgt id='1216'> +1.2703112e-12 </wgt>
<wgt id='1217'> +1.2590963e-12 </wgt>
<wgt id='1218'> +1.2689404e-12 </wgt>
<wgt id='1219'> +1.2610785e-12 </wgt>
<wgt id='1220'> +1.2687734e-12 </wgt>
<wgt id='1221'> +1.2626171e-12 </wgt>
<wgt id='1222'> +1.2659400e-12 </wgt>
<wgt id='1223'> +1.2602766e-12 </wgt>
<wgt id='1224'> +1.2652292e-12 </wgt>
<wgt id='1225'> +1.2632243e-12 </wgt>
<wgt id='1226'> +1.2611459e-12 </wgt>
<wgt id='1227'> +1.2656244e-12 </wgt>
<wgt id='1228'> +1.2589986e-12 </wgt>
<wgt id='1229'> +1.2655783e-12 </wgt>
<wgt id='1230'> +1.2572789e-12 </wgt>
<wgt id='1231'> +1.2614505e-12 </wgt>
<wgt id='1232'> +1.2622434e-12 </wgt>
<wgt id='1233'> +1.2642212e-12 </wgt>
<wgt id='1234'> +1.2637789e-12 </wgt>
<wgt id='1235'> +1.2545979e-12 </wgt>
<wgt id='1236'> +1.2579306e-12 </wgt>
<wgt id='1237'> +1.2609767e-12 </wgt>
<wgt id='1238'> +1.2661072e-12 </wgt>
<wgt id='1239'> +1.2682117e-12 </wgt>
<wgt id='1240'> +1.2701784e-12 </wgt>
<wgt id='1241'> +1.2558359e-12 </wgt>
<wgt id='1242'> +1.2492559e-12 </wgt>
<wgt id='1243'> +1.2624157e-12 </wgt>
<wgt id='1244'> +1.2486918e-12 </wgt>
<wgt id='1245'> +1.2611099e-12 </wgt>
<wgt id='1246'> +1.2564079e-12 </wgt>
<wgt id='1247'> +1.2553784e-12 </wgt>
<wgt id='1248'> +1.2557793e-12 </wgt>
<wgt id='1249'> +1.2559330e-12 </wgt>
<wgt id='1250'> +1.2566565e-12 </wgt>
<wgt id='1251'> +1.2552699e-12 </wgt>
<wgt id='1252'> +1.2530576e-12 </wgt>
<wgt id='1253'> +1.2580184e-12 </wgt>
<wgt id='1254'> +1.2451670e-12 </wgt>
<wgt id='1255'> +1.2622428e-12 </wgt>
<wgt id='1256'> +1.2601594e-12 </wgt>
<wgt id='1257'> +1.2448737e-12 </wgt>
<wgt id='1258'> +1.2750940e-12 </wgt>
<wgt id='1259'> +1.2373680e-12 </wgt>
<wgt id='1260'> +1.2594291e-12 </wgt>
<wgt id='1261'> +1.2518038e-12 </wgt>
<wgt id='1262'> +1.2567309e-12 </wgt>
<wgt id='1263'> +1.2552235e-12 </wgt>
<wgt id='1264'> +1.2616294e-12 </wgt>
<wgt id='1265'> +1.2529613e-12 </wgt>
<wgt id='1266'> +1.2497231e-12 </wgt>
<wgt id='1267'> +1.2615648e-12 </wgt>
<wgt id='1268'> +1.2570756e-12 </wgt>
<wgt id='1269'> +1.2578996e-12 </wgt>
<wgt id='1270'> +1.2483769e-12 </wgt>
<wgt id='1271'> +1.2490840e-12 </wgt>
<wgt id='1272'> +1.2549759e-12 </wgt>
<wgt id='1273'> +1.2554283e-12 </wgt>
<wgt id='1274'> +1.2577192e-12 </wgt>
<wgt id='1275'> +1.2516648e-12 </wgt>
<wgt id='1276'> +1.2583327e-12 </wgt>
<wgt id='1277'> +1.2514898e-12 </wgt>
<wgt id='1278'> +1.2556093e-12 </wgt>
<wgt id='1279'> +1.2544840e-12 </wgt>
<wgt id='1280'> +1.2563432e-12 </wgt>
<wgt id='1281'> +1.2536566e-12 </wgt>
<wgt id='1282'> +1.2558359e-12 </wgt>
<wgt id='1283'> +1.2465741e-12 </wgt>
<wgt id='1284'> +1.2501024e-12 </wgt>
<wgt id='1285'> +1.2532891e-12 </wgt>
<wgt id='1286'> +1.2584305e-12 </wgt>
<wgt id='1287'> +1.2605289e-12 </wgt>
<wgt id='1288'> +1.2622768e-12 </wgt>
<wgt id='1289'> +1.3176373e-12 </wgt>
<wgt id='1290'> +1.3186574e-12 </wgt>
<wgt id='1291'> +1.3164967e-12 </wgt>
<wgt id='1292'> +1.3125107e-12 </wgt>
<wgt id='1293'> +1.3212871e-12 </wgt>
<wgt id='1294'> +1.3143466e-12 </wgt>
<wgt id='1295'> +1.3207938e-12 </wgt>
<wgt id='1296'> +1.3133461e-12 </wgt>
<wgt id='1297'> +1.3228479e-12 </wgt>
<wgt id='1298'> +1.3237560e-12 </wgt>
<wgt id='1299'> +1.3099229e-12 </wgt>
<wgt id='1300'> +1.3206368e-12 </wgt>
<wgt id='1301'> +1.3115754e-12 </wgt>
<wgt id='1302'> +1.3163616e-12 </wgt>
<wgt id='1303'> +1.3193647e-12 </wgt>
<wgt id='1304'> +1.3152857e-12 </wgt>
<wgt id='1305'> +1.3191533e-12 </wgt>
<wgt id='1306'> +1.3117124e-12 </wgt>
<wgt id='1307'> +1.3244249e-12 </wgt>
<wgt id='1308'> +1.3214402e-12 </wgt>
<wgt id='1309'> +1.3146687e-12 </wgt>
<wgt id='1310'> +1.3176464e-12 </wgt>
<wgt id='1311'> +1.3177322e-12 </wgt>
<wgt id='1312'> +1.3130420e-12 </wgt>
<wgt id='1313'> +1.3223187e-12 </wgt>
<wgt id='1314'> +1.3184305e-12 </wgt>
<wgt id='1315'> +1.3113397e-12 </wgt>
<wgt id='1316'> +1.3234916e-12 </wgt>
<wgt id='1317'> +1.3179644e-12 </wgt>
<wgt id='1318'> +1.3255954e-12 </wgt>
<wgt id='1319'> +1.3078377e-12 </wgt>
<wgt id='1320'> +1.3280886e-12 </wgt>
<wgt id='1321'> +1.3088026e-12 </wgt>
<wgt id='1322'> +1.3170479e-12 </wgt>
<wgt id='1323'> +1.3180774e-12 </wgt>
<wgt id='1324'> +1.3152026e-12 </wgt>
<wgt id='1325'> +1.3277607e-12 </wgt>
<wgt id='1326'> +1.3178529e-12 </wgt>
<wgt id='1327'> +1.3193505e-12 </wgt>
<wgt id='1328'> +1.3180842e-12 </wgt>
<wgt id='1329'> +1.3170248e-12 </wgt>
<wgt id='1330'> +1.3042268e-12 </wgt>
<wgt id='1331'> +1.3264966e-12 </wgt>
<wgt id='1332'> +1.3392691e-12 </wgt>
<wgt id='1333'> +1.3045243e-12 </wgt>
<wgt id='1334'> +1.3139394e-12 </wgt>
<wgt id='1335'> +1.3271560e-12 </wgt>
<wgt id='1336'> +1.3127851e-12 </wgt>
<wgt id='1337'> +1.3176497e-12 </wgt>
<wgt id='1338'> +1.3160931e-12 </wgt>
<wgt id='1339'> +1.3177892e-12 </wgt>
<wgt id='1340'> +1.2971216e-12 </wgt>
<wgt id='1341'> +1.2983222e-12 </wgt>
<wgt id='1342'> +1.2957965e-12 </wgt>
<wgt id='1343'> +1.2918780e-12 </wgt>
<wgt id='1344'> +1.3006310e-12 </wgt>
<wgt id='1345'> +1.2937725e-12 </wgt>
<wgt id='1346'> +1.3002425e-12 </wgt>
<wgt id='1347'> +1.2929859e-12 </wgt>
<wgt id='1348'> +1.3016661e-12 </wgt>
<wgt id='1349'> +1.3027552e-12 </wgt>
<wgt id='1350'> +1.2915512e-12 </wgt>
<wgt id='1351'> +1.3001445e-12 </wgt>
<wgt id='1352'> +1.2904949e-12 </wgt>
<wgt id='1353'> +1.2953659e-12 </wgt>
<wgt id='1354'> +1.3002850e-12 </wgt>
<wgt id='1355'> +1.2949953e-12 </wgt>
<wgt id='1356'> +1.2982704e-12 </wgt>
<wgt id='1357'> +1.2921039e-12 </wgt>
<wgt id='1358'> +1.3031004e-12 </wgt>
<wgt id='1359'> +1.3026023e-12 </wgt>
<wgt id='1360'> +1.2923623e-12 </wgt>
<wgt id='1361'> +1.2968083e-12 </wgt>
<wgt id='1362'> +1.2976310e-12 </wgt>
<wgt id='1363'> +1.2913501e-12 </wgt>
<wgt id='1364'> +1.3013651e-12 </wgt>
<wgt id='1365'> +1.2903538e-12 </wgt>
<wgt id='1366'> +1.2977755e-12 </wgt>
<wgt id='1367'> +1.3026802e-12 </wgt>
<wgt id='1368'> +1.2969858e-12 </wgt>
<wgt id='1369'> +1.3039579e-12 </wgt>
<wgt id='1370'> +1.2887837e-12 </wgt>
<wgt id='1371'> +1.3048083e-12 </wgt>
<wgt id='1372'> +1.2877701e-12 </wgt>
<wgt id='1373'> +1.2947668e-12 </wgt>
<wgt id='1374'> +1.2988385e-12 </wgt>
<wgt id='1375'> +1.2945499e-12 </wgt>
<wgt id='1376'> +1.3079811e-12 </wgt>
<wgt id='1377'> +1.2974630e-12 </wgt>
<wgt id='1378'> +1.2990591e-12 </wgt>
<wgt id='1379'> +1.2972940e-12 </wgt>
<wgt id='1380'> +1.2967581e-12 </wgt>
<wgt id='1381'> +1.2836021e-12 </wgt>
<wgt id='1382'> +1.3045974e-12 </wgt>
<wgt id='1383'> +1.3181569e-12 </wgt>
<wgt id='1384'> +1.2835742e-12 </wgt>
<wgt id='1385'> +1.2936020e-12 </wgt>
<wgt id='1386'> +1.3055271e-12 </wgt>
<wgt id='1387'> +1.2905394e-12 </wgt>
<wgt id='1388'> +1.2973215e-12 </wgt>
<wgt id='1389'> +1.2936438e-12 </wgt>
<wgt id='1390'> +1.2977657e-12 </wgt>
<wgt id='1391'> +1.2670839e-12 </wgt>
<wgt id='1392'> +1.2393096e-12 </wgt>
<wgt id='1393'> +1.2484488e-12 </wgt>
<wgt id='1394'> +1.2581394e-12 </wgt>
<wgt id='1395'> +1.2764484e-12 </wgt>
<wgt id='1396'> +1.2677198e-12 </wgt>
<wgt id='1397'> +1.2293288e-12 </wgt>
<wgt id='1398'> +1.2372322e-12 </wgt>
<wgt id='1399'> +1.2444154e-12 </wgt>
<wgt id='1400'> +1.2518269e-12 </wgt>
<wgt id='1401'> +1.2597844e-12 </wgt>
<wgt id='1402'> +1.2751933e-12 </wgt>
<wgt id='1403'> +1.2828417e-12 </wgt>
<wgt id='1404'> +1.2900763e-12 </wgt>
<wgt id='1405'> +1.2677198e-12 </wgt>
<wgt id='1406'> +1.2629184e-12 </wgt>
<wgt id='1407'> +1.2656154e-12 </wgt>
<wgt id='1408'> +1.2697648e-12 </wgt>
<wgt id='1409'> +1.2717875e-12 </wgt>
<wgt id='1410'> +1.2489838e-12 </wgt>
<wgt id='1411'> +1.2496528e-12 </wgt>
<wgt id='1412'> +1.2480873e-12 </wgt>
<wgt id='1413'> +1.2526798e-12 </wgt>
<wgt id='1414'> +1.2452584e-12 </wgt>
<wgt id='1415'> +1.2423645e-12 </wgt>
<wgt id='1416'> +1.2516105e-12 </wgt>
<wgt id='1417'> +1.2408918e-12 </wgt>
<wgt id='1418'> +1.2570393e-12 </wgt>
<wgt id='1419'> +1.2512855e-12 </wgt>
<wgt id='1420'> +1.2467599e-12 </wgt>
<wgt id='1421'> +1.2353758e-12 </wgt>
<wgt id='1422'> +1.2548500e-12 </wgt>
<wgt id='1423'> +1.2486324e-12 </wgt>
<wgt id='1424'> +1.2493224e-12 </wgt>
<wgt id='1425'> +1.2446096e-12 </wgt>
<wgt id='1426'> +1.2536823e-12 </wgt>
<wgt id='1427'> +1.2434421e-12 </wgt>
<wgt id='1428'> +1.2518881e-12 </wgt>
<wgt id='1429'> +1.2434631e-12 </wgt>
<wgt id='1430'> +1.2564964e-12 </wgt>
<wgt id='1431'> +1.2520106e-12 </wgt>
<wgt id='1432'> +1.2467766e-12 </wgt>
<wgt id='1433'> +1.2502797e-12 </wgt>
<wgt id='1434'> +1.2464829e-12 </wgt>
<wgt id='1435'> +1.2514087e-12 </wgt>
<wgt id='1436'> +1.2430662e-12 </wgt>
<wgt id='1437'> +1.2549054e-12 </wgt>
<wgt id='1438'> +1.2484439e-12 </wgt>
<wgt id='1439'> +1.2436381e-12 </wgt>
<wgt id='1440'> +1.2608717e-12 </wgt>
<wgt id='1441'> +1.2520422e-12 </wgt>
<wgt id='1442'> +1.2434601e-12 </wgt>
<wgt id='1443'> +1.2465416e-12 </wgt>
<wgt id='1444'> +1.2550495e-12 </wgt>
<wgt id='1445'> +1.2596713e-12 </wgt>
<wgt id='1446'> +1.2455233e-12 </wgt>
<wgt id='1447'> +1.2491005e-12 </wgt>
<wgt id='1448'> +1.2510755e-12 </wgt>
<wgt id='1449'> +1.2498551e-12 </wgt>
<wgt id='1450'> +1.2480938e-12 </wgt>
<wgt id='1451'> +1.2547085e-12 </wgt>
<wgt id='1452'> +1.2324204e-12 </wgt>
<wgt id='1453'> +1.2502944e-12 </wgt>
<wgt id='1454'> +1.2397192e-12 </wgt>
<wgt id='1455'> +1.2403620e-12 </wgt>
<wgt id='1456'> +1.2527808e-12 </wgt>
<wgt id='1457'> +1.2528562e-12 </wgt>
<wgt id='1458'> +1.2471170e-12 </wgt>
<wgt id='1459'> +1.2533650e-12 </wgt>
<wgt id='1460'> +1.2441555e-12 </wgt>
<wgt id='1461'> +1.2489838e-12 </wgt>
<wgt id='1462'> +1.2419233e-12 </wgt>
<wgt id='1463'> +1.2580363e-12 </wgt>
<wgt id='1464'> +1.2504302e-12 </wgt>
<wgt id='1465'> +1.2190877e-12 </wgt>
<wgt id='1466'> +1.2254566e-12 </wgt>
<wgt id='1467'> +1.2323403e-12 </wgt>
<wgt id='1468'> +1.2379796e-12 </wgt>
<wgt id='1469'> +1.2442614e-12 </wgt>
<wgt id='1470'> +1.2570852e-12 </wgt>
<wgt id='1471'> +1.2623780e-12 </wgt>
<wgt id='1472'> +1.2687604e-12 </wgt>
<wgt id='1473'> +1.2504302e-12 </wgt>
<wgt id='1474'> +1.2453847e-12 </wgt>
<wgt id='1475'> +1.2473481e-12 </wgt>
<wgt id='1476'> +1.2525743e-12 </wgt>
<wgt id='1477'> +1.2546094e-12 </wgt>
<wgt id='1478'> +1.2381935e-12 </wgt>
<wgt id='1479'> +1.2357725e-12 </wgt>
<wgt id='1480'> +1.2346643e-12 </wgt>
<wgt id='1481'> +1.2367750e-12 </wgt>
<wgt id='1482'> +1.2356464e-12 </wgt>
<wgt id='1483'> +1.2240338e-12 </wgt>
<wgt id='1484'> +1.2406468e-12 </wgt>
<wgt id='1485'> +1.2344232e-12 </wgt>
<wgt id='1486'> +1.2389835e-12 </wgt>
<wgt id='1487'> +1.2393535e-12 </wgt>
<wgt id='1488'> +1.2360993e-12 </wgt>
<wgt id='1489'> +1.2539180e-12 </wgt>
<wgt id='1490'> +1.2342349e-12 </wgt>
<wgt id='1491'> +1.2382119e-12 </wgt>
<wgt id='1492'> +1.2407699e-12 </wgt>
<wgt id='1493'> +1.2216403e-12 </wgt>
<wgt id='1494'> +1.2476257e-12 </wgt>
<wgt id='1495'> +1.2313114e-12 </wgt>
<wgt id='1496'> +1.2370000e-12 </wgt>
<wgt id='1497'> +1.2370089e-12 </wgt>
<wgt id='1498'> +1.2382186e-12 </wgt>
<wgt id='1499'> +1.2387647e-12 </wgt>
<wgt id='1500'> +1.2379202e-12 </wgt>
<wgt id='1501'> +1.2384566e-12 </wgt>
<wgt id='1502'> +1.2396754e-12 </wgt>
<wgt id='1503'> +1.2380336e-12 </wgt>
<wgt id='1504'> +1.2350270e-12 </wgt>
<wgt id='1505'> +1.2380863e-12 </wgt>
<wgt id='1506'> +1.2360532e-12 </wgt>
<wgt id='1507'> +1.2374110e-12 </wgt>
<wgt id='1508'> +1.2418047e-12 </wgt>
<wgt id='1509'> +1.2826576e-12 </wgt>
<wgt id='1510'> +1.2813033e-12 </wgt>
<wgt id='1511'> +1.2854548e-12 </wgt>
<wgt id='1512'> +1.2831723e-12 </wgt>
<wgt id='1513'> +1.2856638e-12 </wgt>
<wgt id='1514'> +1.2835167e-12 </wgt>
<wgt id='1515'> +1.2815640e-12 </wgt>
<wgt id='1516'> +1.2842400e-12 </wgt>
<wgt id='1517'> +1.2865351e-12 </wgt>
<wgt id='1518'> +1.2841474e-12 </wgt>
<wgt id='1519'> +1.2764497e-12 </wgt>
<wgt id='1520'> +1.2862047e-12 </wgt>
<wgt id='1521'> +1.2884491e-12 </wgt>
<wgt id='1522'> +1.2843096e-12 </wgt>
<wgt id='1523'> +1.2879711e-12 </wgt>
<wgt id='1524'> +1.2842478e-12 </wgt>
<wgt id='1525'> +1.2865662e-12 </wgt>
<wgt id='1526'> +1.2793265e-12 </wgt>
<wgt id='1527'> +1.2801002e-12 </wgt>
<wgt id='1528'> +1.2842447e-12 </wgt>
<wgt id='1529'> +1.2827718e-12 </wgt>
<wgt id='1530'> +1.2878666e-12 </wgt>
<wgt id='1531'> +1.2841998e-12 </wgt>
<wgt id='1532'> +1.2797212e-12 </wgt>
<wgt id='1533'> +1.2821424e-12 </wgt>
<wgt id='1534'> +1.2862036e-12 </wgt>
<wgt id='1535'> +1.2751400e-12 </wgt>
<wgt id='1536'> +1.2796128e-12 </wgt>
<wgt id='1537'> +1.2807489e-12 </wgt>
<wgt id='1538'> +1.2840393e-12 </wgt>
<wgt id='1539'> +1.2890731e-12 </wgt>
<wgt id='1540'> +1.2839983e-12 </wgt>
<wgt id='1541'> +1.2833851e-12 </wgt>
<wgt id='1542'> +1.2814239e-12 </wgt>
<wgt id='1543'> +1.2814813e-12 </wgt>
<wgt id='1544'> +1.2818164e-12 </wgt>
<wgt id='1545'> +1.2835040e-12 </wgt>
<wgt id='1546'> +1.2814501e-12 </wgt>
<wgt id='1547'> +1.2830998e-12 </wgt>
<wgt id='1548'> +1.2819846e-12 </wgt>
<wgt id='1549'> +1.2815365e-12 </wgt>
<wgt id='1550'> +1.2848980e-12 </wgt>
<wgt id='1551'> +1.2840628e-12 </wgt>
<wgt id='1552'> +1.2827293e-12 </wgt>
<wgt id='1553'> +1.2840916e-12 </wgt>
<wgt id='1554'> +1.2850972e-12 </wgt>
<wgt id='1555'> +1.2844414e-12 </wgt>
<wgt id='1556'> +1.2822984e-12 </wgt>
<wgt id='1557'> +1.2834112e-12 </wgt>
<wgt id='1558'> +1.2829234e-12 </wgt>
<wgt id='1559'> +1.2829404e-12 </wgt>
<wgt id='1560'> +1.2844789e-12 </wgt>
<wgt id='1561'> +1.2818390e-12 </wgt>
<wgt id='1562'> +1.2821369e-12 </wgt>
<wgt id='1563'> +1.2831617e-12 </wgt>
<wgt id='1564'> +1.2802126e-12 </wgt>
<wgt id='1565'> +1.2832307e-12 </wgt>
<wgt id='1566'> +1.2823619e-12 </wgt>
<wgt id='1567'> +1.2824023e-12 </wgt>
<wgt id='1568'> +1.2834325e-12 </wgt>
<wgt id='1569'> +1.2828017e-12 </wgt>
<wgt id='1570'> +1.2815043e-12 </wgt>
<wgt id='1571'> +1.2827637e-12 </wgt>
<wgt id='1572'> +1.2809405e-12 </wgt>
<wgt id='1573'> +1.2809860e-12 </wgt>
<wgt id='1574'> +1.2828508e-12 </wgt>
<wgt id='1575'> +1.2834562e-12 </wgt>
<wgt id='1576'> +1.2819789e-12 </wgt>
<wgt id='1577'> +1.2816998e-12 </wgt>
<wgt id='1578'> +1.2825622e-12 </wgt>
<wgt id='1579'> +1.2824337e-12 </wgt>
<wgt id='1580'> +1.2837466e-12 </wgt>
<wgt id='1581'> +1.2824584e-12 </wgt>
<wgt id='1582'> +1.2820953e-12 </wgt>
<wgt id='1583'> +1.2826220e-12 </wgt>
<wgt id='1584'> +1.2830292e-12 </wgt>
<wgt id='1585'> +1.2820875e-12 </wgt>
<wgt id='1586'> +1.2823357e-12 </wgt>
<wgt id='1587'> +1.2830552e-12 </wgt>
<wgt id='1588'> +1.2834453e-12 </wgt>
<wgt id='1589'> +1.2828782e-12 </wgt>
<wgt id='1590'> +1.2824472e-12 </wgt>
<wgt id='1591'> +1.2828386e-12 </wgt>
<wgt id='1592'> +1.2819812e-12 </wgt>
<wgt id='1593'> +1.2832605e-12 </wgt>
<wgt id='1594'> +1.2829462e-12 </wgt>
<wgt id='1595'> +1.2826797e-12 </wgt>
<wgt id='1596'> +1.2827959e-12 </wgt>
<wgt id='1597'> +1.2821783e-12 </wgt>
<wgt id='1598'> +1.2826062e-12 </wgt>
<wgt id='1599'> +1.2834372e-12 </wgt>
<wgt id='1600'> +1.2821599e-12 </wgt>
<wgt id='1601'> +1.2827954e-12 </wgt>
<wgt id='1602'> +1.2828205e-12 </wgt>
<wgt id='1603'> +1.2830671e-12 </wgt>
<wgt id='1604'> +1.2825803e-12 </wgt>
<wgt id='1605'> +1.2827850e-12 </wgt>
<wgt id='1606'> +1.2820457e-12 </wgt>
<wgt id='1607'> +1.2828706e-12 </wgt>
<wgt id='1608'> +1.2822222e-12 </wgt>
<wgt id='1609'> +1.2826504e-12 </wgt>
<wgt id='1610'> +1.2718150e-12 </wgt>
<wgt id='1611'> +1.2937470e-12 </wgt>
<wgt id='1612'> +1.5071684e-12 </wgt>
<wgt id='1613'> +1.4864839e-12 </wgt>
<wgt id='1614'> +1.5196036e-12 </wgt>
<wgt id='1615'> +1.5069217e-12 </wgt>
<wgt id='1616'> +1.5296672e-12 </wgt>
<wgt id='1617'> +1.5289921e-12 </wgt>
<wgt id='1618'> +1.5280186e-12 </wgt>
<wgt id='1619'> +1.4957287e-12 </wgt>
<wgt id='1620'> +1.4578235e-12 </wgt>
<wgt id='1621'> +1.5250351e-12 </wgt>
<wgt id='1622'> +1.5168200e-12 </wgt>
<wgt id='1623'> +1.4998407e-12 </wgt>
<wgt id='1624'> +1.4831462e-12 </wgt>
<wgt id='1625'> +1.4960726e-12 </wgt>
<wgt id='1626'> +1.4903507e-12 </wgt>
<wgt id='1627'> +1.5031452e-12 </wgt>
<wgt id='1628'> +1.5291657e-12 </wgt>
<wgt id='1629'> +1.5552089e-12 </wgt>
<wgt id='1630'> +1.5007878e-12 </wgt>
<wgt id='1631'> +1.4993166e-12 </wgt>
<wgt id='1632'> +1.4465494e-12 </wgt>
<wgt id='1633'> +1.4765138e-12 </wgt>
<wgt id='1634'> +1.5703674e-12 </wgt>
<wgt id='1635'> +1.5104432e-12 </wgt>
<wgt id='1636'> +1.5438950e-12 </wgt>
<wgt id='1637'> +1.4852969e-12 </wgt>
<wgt id='1638'> +1.5365095e-12 </wgt>
<wgt id='1639'> +1.4891956e-12 </wgt>
<wgt id='1640'> +1.5296195e-12 </wgt>
<wgt id='1641'> +1.4854005e-12 </wgt>
<wgt id='1642'> +1.5171959e-12 </wgt>
<wgt id='1643'> +1.5394277e-12 </wgt>
<wgt id='1644'> +1.4769200e-12 </wgt>
<wgt id='1645'> +1.5242300e-12 </wgt>
<wgt id='1646'> +1.4890155e-12 </wgt>
<wgt id='1647'> +1.4869510e-12 </wgt>
<wgt id='1648'> +1.5327177e-12 </wgt>
<wgt id='1649'> +1.5323683e-12 </wgt>
<wgt id='1650'> +1.4957485e-12 </wgt>
<wgt id='1651'> +1.4682272e-12 </wgt>
<wgt id='1652'> +1.4847714e-12 </wgt>
<wgt id='1653'> +1.5390008e-12 </wgt>
<wgt id='1654'> +1.5168244e-12 </wgt>
<wgt id='1655'> +1.4810793e-12 </wgt>
<wgt id='1656'> +1.4714711e-12 </wgt>
<wgt id='1657'> +1.4867545e-12 </wgt>
<wgt id='1658'> +1.4859984e-12 </wgt>
<wgt id='1659'> +1.4831462e-12 </wgt>
<wgt id='1660'> +1.5156610e-12 </wgt>
<wgt id='1661'> +1.5134371e-12 </wgt>
<wgt id='1662'> +1.5040899e-12 </wgt>
<wgt id='1663'> +1.4964183e-12 </wgt>
<wgt id='1664'> +1.5080006e-12 </wgt>
<wgt id='1665'> +1.4955358e-12 </wgt>
<wgt id='1666'> +1.5129111e-12 </wgt>
<wgt id='1667'> +1.4761688e-12 </wgt>
<wgt id='1668'> +1.5283910e-12 </wgt>
<wgt id='1669'> +1.4971084e-12 </wgt>
<wgt id='1670'> +1.5209701e-12 </wgt>
<wgt id='1671'> +1.4885205e-12 </wgt>
<wgt id='1672'> +1.5351433e-12 </wgt>
<wgt id='1673'> +1.4752778e-12 </wgt>
<wgt id='1674'> +1.4765615e-12 </wgt>
<wgt id='1675'> +1.5376935e-12 </wgt>
<wgt id='1676'> +1.5421773e-12 </wgt>
<wgt id='1677'> +1.5738024e-12 </wgt>
<wgt id='1678'> +1.5012058e-12 </wgt>
<wgt id='1679'> +1.5141356e-12 </wgt>
<wgt id='1680'> +1.5242500e-12 </wgt>
<wgt id='1681'> +1.5196455e-12 </wgt>
<wgt id='1682'> +1.5072877e-12 </wgt>
<wgt id='1683'> +1.4671988e-12 </wgt>
<wgt id='1684'> +1.4956404e-12 </wgt>
<wgt id='1685'> +1.4977868e-12 </wgt>
<wgt id='1686'> +1.5126622e-12 </wgt>
<wgt id='1687'> +1.5377819e-12 </wgt>
<wgt id='1688'> +1.5203220e-12 </wgt>
<wgt id='1689'> +1.4857442e-12 </wgt>
<wgt id='1690'> +1.5426656e-12 </wgt>
<wgt id='1691'> +1.5477144e-12 </wgt>
<wgt id='1692'> +1.5226791e-12 </wgt>
<wgt id='1693'> +1.5316113e-12 </wgt>
<wgt id='1694'> +1.4888954e-12 </wgt>
<wgt id='1695'> +1.5441925e-12 </wgt>
<wgt id='1696'> +1.5446235e-12 </wgt>
<wgt id='1697'> +1.4948209e-12 </wgt>
<wgt id='1698'> +1.4953565e-12 </wgt>
<wgt id='1699'> +1.5140946e-12 </wgt>
<wgt id='1700'> +1.5014507e-12 </wgt>
<wgt id='1701'> +1.4792931e-12 </wgt>
<wgt id='1702'> +1.4960152e-12 </wgt>
<wgt id='1703'> +1.5428776e-12 </wgt>
<wgt id='1704'> +1.4915965e-12 </wgt>
<wgt id='1705'> +1.4689409e-12 </wgt>
<wgt id='1706'> +1.5156384e-12 </wgt>
<wgt id='1707'> +1.4794202e-12 </wgt>
<wgt id='1708'> +1.4752963e-12 </wgt>
<wgt id='1709'> +1.5003592e-12 </wgt>
<wgt id='1710'> +1.4687847e-12 </wgt>
<wgt id='1711'> +1.5388720e-12 </wgt>
<wgt id='1712'> +1.5129653e-12 </wgt>
<wgt id='1713'> +1.2060899e-12 </wgt>
<wgt id='1714'> +1.1710826e-12 </wgt>
<wgt id='1715'> +1.2188985e-12 </wgt>
<wgt id='1716'> +1.2342206e-12 </wgt>
<wgt id='1717'> +1.1977511e-12 </wgt>
<wgt id='1718'> +1.2170460e-12 </wgt>
<wgt id='1719'> +1.2123515e-12 </wgt>
<wgt id='1720'> +1.2242509e-12 </wgt>
<wgt id='1721'> +1.1773063e-12 </wgt>
<wgt id='1722'> +1.1929733e-12 </wgt>
<wgt id='1723'> +1.1744693e-12 </wgt>
<wgt id='1724'> +1.2151246e-12 </wgt>
<wgt id='1725'> +1.2100757e-12 </wgt>
<wgt id='1726'> +1.2564227e-12 </wgt>
<wgt id='1727'> +1.1982055e-12 </wgt>
<wgt id='1728'> +1.2086792e-12 </wgt>
<wgt id='1729'> +1.1989289e-12 </wgt>
<wgt id='1730'> +1.1881143e-12 </wgt>
<wgt id='1731'> +1.1630922e-12 </wgt>
<wgt id='1732'> +1.2190573e-12 </wgt>
<wgt id='1733'> +1.2194986e-12 </wgt>
<wgt id='1734'> +1.2254649e-12 </wgt>
<wgt id='1735'> +1.1955617e-12 </wgt>
<wgt id='1736'> +1.2633526e-12 </wgt>
<wgt id='1737'> +1.2376415e-12 </wgt>
<wgt id='1738'> +1.2289776e-12 </wgt>
<wgt id='1739'> +1.1649156e-12 </wgt>
<wgt id='1740'> +1.1942976e-12 </wgt>
<wgt id='1741'> +1.2208774e-12 </wgt>
<wgt id='1742'> +1.2109695e-12 </wgt>
<wgt id='1743'> +1.2251656e-12 </wgt>
<wgt id='1744'> +1.2416111e-12 </wgt>
<wgt id='1745'> +1.1479369e-12 </wgt>
<wgt id='1746'> +1.2159404e-12 </wgt>
<wgt id='1747'> +1.2132149e-12 </wgt>
<wgt id='1748'> +1.2117547e-12 </wgt>
<wgt id='1749'> +1.2132947e-12 </wgt>
<wgt id='1750'> +1.2246575e-12 </wgt>
<wgt id='1751'> +1.1712644e-12 </wgt>
<wgt id='1752'> +1.1902780e-12 </wgt>
<wgt id='1753'> +1.2225397e-12 </wgt>
<wgt id='1754'> +1.2099986e-12 </wgt>
<wgt id='1755'> +1.2354027e-12 </wgt>
<wgt id='1756'> +1.2247373e-12 </wgt>
<wgt id='1757'> +1.1931361e-12 </wgt>
<wgt id='1758'> +1.2219213e-12 </wgt>
<wgt id='1759'> +1.2201896e-12 </wgt>
<wgt id='1760'> +1.1708142e-12 </wgt>
<wgt id='1761'> +1.1847136e-12 </wgt>
<wgt id='1762'> +1.2001113e-12 </wgt>
<wgt id='1763'> +1.2257676e-12 </wgt>
<wgt id='1764'> +1.1975066e-12 </wgt>
<wgt id='1765'> +1.2063136e-12 </wgt>
<wgt id='1766'> +1.1997489e-12 </wgt>
<wgt id='1767'> +1.2106674e-12 </wgt>
<wgt id='1768'> +1.2067255e-12 </wgt>
<wgt id='1769'> +1.1829444e-12 </wgt>
<wgt id='1770'> +1.2124110e-12 </wgt>
<wgt id='1771'> +1.2141993e-12 </wgt>
<wgt id='1772'> +1.2400865e-12 </wgt>
<wgt id='1773'> +1.1968926e-12 </wgt>
<wgt id='1774'> +1.1993479e-12 </wgt>
<wgt id='1775'> +1.2188862e-12 </wgt>
<wgt id='1776'> +1.2284131e-12 </wgt>
<wgt id='1777'> +1.1509399e-12 </wgt>
<wgt id='1778'> +1.1894812e-12 </wgt>
<wgt id='1779'> +1.2340618e-12 </wgt>
<wgt id='1780'> +1.1938668e-12 </wgt>
<wgt id='1781'> +1.2045284e-12 </wgt>
<wgt id='1782'> +1.1820315e-12 </wgt>
<wgt id='1783'> +1.2055908e-12 </wgt>
<wgt id='1784'> +1.2091183e-12 </wgt>
<wgt id='1785'> +1.1925560e-12 </wgt>
<wgt id='1786'> +1.1314049e-12 </wgt>
<wgt id='1787'> +1.2432366e-12 </wgt>
<wgt id='1788'> +1.2168323e-12 </wgt>
<wgt id='1789'> +1.1814120e-12 </wgt>
<wgt id='1790'> +1.2268391e-12 </wgt>
<wgt id='1791'> +1.2187364e-12 </wgt>
<wgt id='1792'> +1.1794282e-12 </wgt>
<wgt id='1793'> +1.2095010e-12 </wgt>
<wgt id='1794'> +1.2141262e-12 </wgt>
<wgt id='1795'> +1.2123512e-12 </wgt>
<wgt id='1796'> +1.1950612e-12 </wgt>
<wgt id='1797'> +1.2097839e-12 </wgt>
<wgt id='1798'> +1.2054495e-12 </wgt>
<wgt id='1799'> +1.2124269e-12 </wgt>
<wgt id='1800'> +1.2016261e-12 </wgt>
<wgt id='1801'> +1.1990438e-12 </wgt>
<wgt id='1802'> +1.1969625e-12 </wgt>
<wgt id='1803'> +1.2240474e-12 </wgt>
<wgt id='1804'> +1.1910831e-12 </wgt>
<wgt id='1805'> +1.2004259e-12 </wgt>
<wgt id='1806'> +1.1949981e-12 </wgt>
<wgt id='1807'> +1.2232604e-12 </wgt>
<wgt id='1808'> +1.2040119e-12 </wgt>
<wgt id='1809'> +1.1865110e-12 </wgt>
<wgt id='1810'> +1.1959592e-12 </wgt>
<wgt id='1811'> +1.2339983e-12 </wgt>
<wgt id='1812'> +1.2135867e-12 </wgt>
<wgt id='1813'> +1.2099682e-12 </wgt>
<wgt id='1814'> +1.3910096e-12 </wgt>
<wgt id='1815'> +1.5855992e-12 </wgt>
<wgt id='1816'> +1.2060899e-12 </wgt>
<wgt id='1817'> +1.1710826e-12 </wgt>
<wgt id='1818'> +1.2188985e-12 </wgt>
<wgt id='1819'> +1.2342206e-12 </wgt>
<wgt id='1820'> +1.1977511e-12 </wgt>
<wgt id='1821'> +1.2170460e-12 </wgt>
<wgt id='1822'> +1.2123515e-12 </wgt>
<wgt id='1823'> +1.2242509e-12 </wgt>
<wgt id='1824'> +1.1773063e-12 </wgt>
<wgt id='1825'> +1.1929733e-12 </wgt>
<wgt id='1826'> +1.1744693e-12 </wgt>
<wgt id='1827'> +1.2151246e-12 </wgt>
<wgt id='1828'> +1.2100757e-12 </wgt>
<wgt id='1829'> +1.2564227e-12 </wgt>
<wgt id='1830'> +1.1982055e-12 </wgt>
<wgt id='1831'> +1.2086792e-12 </wgt>
<wgt id='1832'> +1.1989289e-12 </wgt>
<wgt id='1833'> +1.1881143e-12 </wgt>
<wgt id='1834'> +1.1630922e-12 </wgt>
<wgt id='1835'> +1.2190573e-12 </wgt>
<wgt id='1836'> +1.2194986e-12 </wgt>
<wgt id='1837'> +1.2254649e-12 </wgt>
<wgt id='1838'> +1.1955617e-12 </wgt>
<wgt id='1839'> +1.2633526e-12 </wgt>
<wgt id='1840'> +1.2376415e-12 </wgt>
<wgt id='1841'> +1.2289776e-12 </wgt>
<wgt id='1842'> +1.1649156e-12 </wgt>
<wgt id='1843'> +1.1942976e-12 </wgt>
<wgt id='1844'> +1.2208774e-12 </wgt>
<wgt id='1845'> +1.2109695e-12 </wgt>
<wgt id='1846'> +1.2251656e-12 </wgt>
<wgt id='1847'> +1.2416111e-12 </wgt>
<wgt id='1848'> +1.1479369e-12 </wgt>
<wgt id='1849'> +1.2159404e-12 </wgt>
<wgt id='1850'> +1.2132149e-12 </wgt>
<wgt id='1851'> +1.2117547e-12 </wgt>
<wgt id='1852'> +1.2132947e-12 </wgt>
<wgt id='1853'> +1.2246575e-12 </wgt>
<wgt id='1854'> +1.1712644e-12 </wgt>
<wgt id='1855'> +1.1902780e-12 </wgt>
<wgt id='1856'> +1.2225397e-12 </wgt>
<wgt id='1857'> +1.2099986e-12 </wgt>
<wgt id='1858'> +1.2354027e-12 </wgt>
<wgt id='1859'> +1.2247373e-12 </wgt>
<wgt id='1860'> +1.1931361e-12 </wgt>
<wgt id='1861'> +1.2219213e-12 </wgt>
<wgt id='1862'> +1.2201896e-12 </wgt>
<wgt id='1863'> +1.1708142e-12 </wgt>
<wgt id='1864'> +1.1847136e-12 </wgt>
<wgt id='1865'> +1.2001113e-12 </wgt>
<wgt id='1866'> +1.2257676e-12 </wgt>
<wgt id='1867'> +1.1975066e-12 </wgt>
<wgt id='1868'> +1.2063136e-12 </wgt>
<wgt id='1869'> +1.1997489e-12 </wgt>
<wgt id='1870'> +1.2106674e-12 </wgt>
<wgt id='1871'> +1.2067255e-12 </wgt>
<wgt id='1872'> +1.1829444e-12 </wgt>
<wgt id='1873'> +1.2124110e-12 </wgt>
<wgt id='1874'> +1.2141993e-12 </wgt>
<wgt id='1875'> +1.2400865e-12 </wgt>
<wgt id='1876'> +1.1968926e-12 </wgt>
<wgt id='1877'> +1.1993479e-12 </wgt>
<wgt id='1878'> +1.2188862e-12 </wgt>
<wgt id='1879'> +1.2284131e-12 </wgt>
<wgt id='1880'> +1.1509399e-12 </wgt>
<wgt id='1881'> +1.1894812e-12 </wgt>
<wgt id='1882'> +1.2340618e-12 </wgt>
<wgt id='1883'> +1.1938668e-12 </wgt>
<wgt id='1884'> +1.2045284e-12 </wgt>
<wgt id='1885'> +1.1820315e-12 </wgt>
<wgt id='1886'> +1.2055908e-12 </wgt>
<wgt id='1887'> +1.2091183e-12 </wgt>
<wgt id='1888'> +1.1925560e-12 </wgt>
<wgt id='1889'> +1.1314049e-12 </wgt>
<wgt id='1890'> +1.2432366e-12 </wgt>
<wgt id='1891'> +1.2168323e-12 </wgt>
<wgt id='1892'> +1.1814120e-12 </wgt>
<wgt id='1893'> +1.2268391e-12 </wgt>
<wgt id='1894'> +1.2187364e-12 </wgt>
<wgt id='1895'> +1.1794282e-12 </wgt>
<wgt id='1896'> +1.2095010e-12 </wgt>
<wgt id='1897'> +1.2141262e-12 </wgt>
<wgt id='1898'> +1.2123512e-12 </wgt>
<wgt id='1899'> +1.1950612e-12 </wgt>
<wgt id='1900'> +1.2097839e-12 </wgt>
<wgt id='1901'> +1.2054495e-12 </wgt>
<wgt id='1902'> +1.2124269e-12 </wgt>
<wgt id='1903'> +1.2016261e-12 </wgt>
<wgt id='1904'> +1.1990438e-12 </wgt>
<wgt id='1905'> +1.1969625e-12 </wgt>
<wgt id='1906'> +1.2240474e-12 </wgt>
<wgt id='1907'> +1.1910831e-12 </wgt>
<wgt id='1908'> +1.2004259e-12 </wgt>
<wgt id='1909'> +1.1949981e-12 </wgt>
<wgt id='1910'> +1.2232604e-12 </wgt>
<wgt id='1911'> +1.2040119e-12 </wgt>
<wgt id='1912'> +1.1865110e-12 </wgt>
<wgt id='1913'> +1.1959592e-12 </wgt>
<wgt id='1914'> +1.2339983e-12 </wgt>
<wgt id='1915'> +1.2135867e-12 </wgt>
<wgt id='1916'> +1.2099682e-12 </wgt>
<wgt id='1917'> +1.1971142e-12 </wgt>
<wgt id='1918'> +1.2114991e-12 </wgt>
<wgt id='1919'> +1.2347011e-12 </wgt>
</rwgt>
</event>
<event>
 9      1 +1.5538000e-12 6.32530500e+01 7.81860800e-03 1.25657700e-01
       21 -1    0    0  501  502 +0.0000000000e+00 +0.0000000000e+00 +2.8532084478e+00 2.8532084478e+00 0.0000000000e+00 0.0000e+00 -1.0000e+00
        2 -1    0    0  502    0 -0.0000000000e+00 -0.0000000000e+00 -3.5056575076e+02 3.5056575076e+02 0.0000000000e+00 0.0000e+00 -1.0000e+00
     1023  2    1    2    0    0 +2.0406890875e+01 +2.1209604685e+01 -1.5590127648e+02 1.5936265237e+02 1.4998614401e+01 0.0000e+00 0.0000e+00
  1000023  2    3    3    0    0 +1.1275777436e+01 +1.7343696526e+01 -1.1529680343e+02 1.1726697907e+02 5.4995029269e+00 0.0000e+00 0.0000e+00
        2  1    1    2  501    0 -2.0406890875e+01 -2.1209604685e+01 -1.9181126583e+02 1.9405630684e+02 0.0000000000e+00 0.0000e+00 -1.0000e+00
  1000022  1    4    4    0    0 +1.0567874533e+01 +1.6088867010e+01 -1.0849772625e+02 1.1030543149e+02 5.0000000000e+00 0.0000e+00 -1.0000e+00
      -13  1    4    4    0    0 +6.6577843540e-02 +1.4461878549e-01 -1.3013196449e+00 1.3152765909e+00 1.0570000000e-01 0.0000e+00 1.0000e+00
       13  1    4    4    0    0 +6.4132505934e-01 +1.1102107299e+00 -5.4977575370e+00 5.6462709926e+00 1.0570000000e-01 0.0000e+00 1.0000e+00
  1000022  1    3    3    0    0 +9.1311134391e+00 +3.8659081594e+00 -4.0604473050e+01 4.2095673295e+01 5.0000000000e+00 0.0000e+00 -1.0000e+00
<mgrwt>
<rscale>  1 0.63253052E+02</rscale>
<asrwt>0</asrwt>
<pdfrwt beam="1">  1       21 0.43895503E-03 0.63253052E+02</pdfrwt>
<pdfrwt beam="2">  1        2 0.53933207E-01 0.63253052E+02</pdfrwt>
<totfact> 0.12084477E+07</totfact>
</mgrwt>
<rwgt>
<wgt id='1001'> +1.5538000e-12 </wgt>
<wgt id='1002'> +1.5496849e-12 </wgt>
<wgt id='1003'> +1.5520729e-12 </wgt>
<wgt id='1004'> +1.4729857e-12 </wgt>
<wgt id='1005'> +1.5538000e-12 </wgt>
<wgt id='1006'> +1.3839475e-12 </wgt>
<wgt id='1007'> +1.3788334e-12 </wgt>
<wgt id='1008'> +1.3817943e-12 </wgt>
<wgt id='1009'> +1.2899885e-12 </wgt>
<wgt id='1010'> +1.3839475e-12 </wgt>
<wgt id='1011'> +1.7731794e-12 </wgt>
<wgt id='1012'> +1.7709308e-12 </wgt>
<wgt id='1013'> +1.7722493e-12 </wgt>
<wgt id='1014'> +1.7194536e-12 </wgt>
<wgt id='1015'> +1.7731794e-12 </wgt>
<wgt id='1016'> +1.7869112e-12 </wgt>
<wgt id='1017'> +1.7867729e-12 </wgt>
<wgt id='1018'> +1.7868652e-12 </wgt>
<wgt id='1019'> +1.7722493e-12 </wgt>
<wgt id='1020'> +1.7869112e-12 </wgt>
<wgt id='1021'> +1.5915764e-12 </wgt>
<wgt id='1022'> +1.5897827e-12 </wgt>
<wgt id='1023'> +1.5908275e-12 </wgt>
<wgt id='1024'> +1.5520729e-12 </wgt>
<wgt id='1025'> +1.5915764e-12 </wgt>
<wgt id='1026'> +2.0392033e-12 </wgt>
<wgt id='1027'> +2.0418675e-12 </wgt>
<wgt id='1028'> +2.0403492e-12 </wgt>
<wgt id='1029'> +2.0687915e-12 </wgt>
<wgt id='1030'> +2.0392033e-12 </wgt>
<wgt id='1031'> +1.2936180e-12 </wgt>
<wgt id='1032'> +1.2849881e-12 </wgt>
<wgt id='1033'> +1.2899885e-12 </wgt>
<wgt id='1034'> +1.1422170e-12 </wgt>
<wgt id='1035'> +1.2936180e-12 </wgt>
<wgt id='1036'> +1.1522071e-12 </wgt>
<wgt id='1037'> +1.1433192e-12 </wgt>
<wgt id='1038'> +1.1484634e-12 </wgt>
<wgt id='1039'> +1.0003130e-12 </wgt>
<wgt id='1040'> +1.1522071e-12 </wgt>
<wgt id='1041'> +1.4762625e-12 </wgt>
<wgt id='1042'> +1.4684437e-12 </wgt>
<wgt id='1043'> +1.4729857e-12 </wgt>
<wgt id='1044'> +1.3333389e-12 </wgt>
<wgt id='1045'> +1.4762625e-12 </wgt>
<wgt id='1046'> +1.5538000e-12 </wgt>
<wgt id='1047'> +1.5686410e-12 </wgt>
<wgt id='1048'> +1.5765992e-12 </wgt>
<wgt id='1049'> +1.5063637e-12 </wgt>
<wgt id='1050'> +1.5258711e-12 </wgt>
<wgt id='1051'> +1.5305692e-12 </wgt>
<wgt id='1052'> +1.5283171e-12 </wgt>
<wgt id='1053'> +1.6043166e-12 </wgt>
<wgt id='1054'> +1.5735632e-12 </wgt>
<wgt id='1055'> +1.5359642e-12 </wgt>
<wgt id='1056'> +1.5204576e-12 </wgt>
<wgt id='1057'> +1.5463322e-12 </wgt>
<wgt id='1058'> +1.5170887e-12 </wgt>
<wgt id='1059'> +1.5607079e-12 </wgt>
<wgt id='1060'> +1.5756588e-12 </wgt>
<wgt id='1061'> +1.5711140e-12 </wgt>
<wgt id='1062'> +1.5640192e-12 </wgt>
<wgt id='1063'> +1.5321999e-12 </wgt>
<wgt id='1064'> +1.5489142e-12 </wgt>
<wgt id='1065'> +1.5960541e-12 </wgt>
<wgt id='1066'> +1.5487024e-12 </wgt>
<wgt id='1067'> +1.5674474e-12 </wgt>
<wgt id='1068'> +1.5880525e-12 </wgt>
<wgt id='1069'> +1.5910730e-12 </wgt>
<wgt id='1070'> +1.5521614e-12 </wgt>
<wgt id='1071'> +1.5522539e-12 </wgt>
<wgt id='1072'> +1.5846874e-12 </wgt>
<wgt id='1073'> +1.5436235e-12 </wgt>
<wgt id='1074'> +1.5513443e-12 </wgt>
<wgt id='1075'> +1.5585386e-12 </wgt>
<wgt id='1076'> +1.5479187e-12 </wgt>
<wgt id='1077'> +1.5624630e-12 </wgt>
<wgt id='1078'> +1.5119148e-12 </wgt>
<wgt id='1079'> +1.5439097e-12 </wgt>
<wgt id='1080'> +1.5382050e-12 </wgt>
<wgt id='1081'> +1.5298622e-12 </wgt>
<wgt id='1082'> +1.5456296e-12 </wgt>
<wgt id='1083'> +1.5473494e-12 </wgt>
<wgt id='1084'> +1.5289455e-12 </wgt>
<wgt id='1085'> +1.5703209e-12 </wgt>
<wgt id='1086'> +1.5866390e-12 </wgt>
<wgt id='1087'> +1.5388752e-12 </wgt>
<wgt id='1088'> +1.5649860e-12 </wgt>
<wgt id='1089'> +1.5351759e-12 </wgt>
<wgt id='1090'> +1.5472055e-12 </wgt>
<wgt id='1091'> +1.5620502e-12 </wgt>
<wgt id='1092'> +1.5722316e-12 </wgt>
<wgt id='1093'> +1.5611515e-12 </wgt>
<wgt id='1094'> +1.6088838e-12 </wgt>
<wgt id='1095'> +1.5805791e-12 </wgt>
<wgt id='1096'> +1.5478652e-12 </wgt>
<wgt id='1097'> +1.5521680e-12 </wgt>
<wgt id='1098'> +1.5707243e-12 </wgt>
<wgt id='1099'> +1.5378774e-12 </wgt>
<wgt id='1100'> +1.5759007e-12 </wgt>
<wgt id='1101'> +1.5777681e-12 </wgt>
<wgt id='1102'> +1.5471843e-12 </wgt>
<wgt id='1103'> +1.5724146e-12 </wgt>
<wgt id='1104'> +1.5648543e-12 </wgt>
<wgt id='1105'> +1.5156532e-12 </wgt>
<wgt id='1106'> +1.5715970e-12 </wgt>
<wgt id='1107'> +1.5840589e-12 </wgt>
<wgt id='1108'> +1.5558876e-12 </wgt>
<wgt id='1109'> +1.5485324e-12 </wgt>
<wgt id='1110'> +1.5488005e-12 </wgt>
<wgt id='1111'> +1.5567670e-12 </wgt>
<wgt id='1112'> +1.5374641e-12 </wgt>
<wgt id='1113'> +1.5992728e-12 </wgt>
<wgt id='1114'> +1.5754931e-12 </wgt>
<wgt id='1115'> +1.5800577e-12 </wgt>
<wgt id='1116'> +1.5933375e-12 </wgt>
<wgt id='1117'> +1.5384338e-12 </wgt>
<wgt id='1118'> +1.6146175e-12 </wgt>
<wgt id='1119'> +1.4969559e-12 </wgt>
<wgt id='1120'> +1.5275449e-12 </wgt>
<wgt id='1121'> +1.5288726e-12 </wgt>
<wgt id='1122'> +1.5472362e-12 </wgt>
<wgt id='1123'> +1.5664837e-12 </wgt>
<wgt id='1124'> +1.5588943e-12 </wgt>
<wgt id='1125'> +1.5232171e-12 </wgt>
<wgt id='1126'> +1.5475029e-12 </wgt>
<wgt id='1127'> +1.5581341e-12 </wgt>
<wgt id='1128'> +1.5640192e-12 </wgt>
<wgt id='1129'> +1.5307324e-12 </wgt>
<wgt id='1130'> +1.5416961e-12 </wgt>
<wgt id='1131'> +1.5553555e-12 </wgt>
<wgt id='1132'> +1.5831719e-12 </wgt>
<wgt id='1133'> +1.5200609e-12 </wgt>
<wgt id='1134'> +1.5298936e-12 </wgt>
<wgt id='1135'> +1.4939144e-12 </wgt>
<wgt id='1136'> +1.5209411e-12 </wgt>
<wgt id='1137'> +1.5595097e-12 </wgt>
<wgt id='1138'> +1.5318899e-12 </wgt>
<wgt id='1139'> +1.5453797e-12 </wgt>
<wgt id='1140'> +1.5635176e-12 </wgt>
<wgt id='1141'> +1.5541370e-12 </wgt>
<wgt id='1142'> +1.5604259e-12 </wgt>
<wgt id='1143'> +1.5325146e-12 </wgt>
<wgt id='1144'> +1.5358618e-12 </wgt>
<wgt id='1145'> +1.5674906e-12 </wgt>
<wgt id='1146'> +1.5637060e-12 </wgt>
<wgt id='1147'> +1.3689505e-12 </wgt>
<wgt id='1148'> +1.3948675e-12 </wgt>
<wgt id='1149'> +1.3323651e-12 </wgt>
<wgt id='1150'> +1.3706749e-12 </wgt>
<wgt id='1151'> +1.5428170e-12 </wgt>
<wgt id='1152'> +1.9919014e-12 </wgt>
<wgt id='1153'> +1.9895143e-12 </wgt>
<wgt id='1154'> +1.9932058e-12 </wgt>
<wgt id='1155'> +1.9872234e-12 </wgt>
<wgt id='1156'> +1.9942389e-12 </wgt>
<wgt id='1157'> +1.9948940e-12 </wgt>
<wgt id='1158'> +1.9877737e-12 </wgt>
<wgt id='1159'> +1.9945423e-12 </wgt>
<wgt id='1160'> +1.9901940e-12 </wgt>
<wgt id='1161'> +1.9887569e-12 </wgt>
<wgt id='1162'> +1.9940322e-12 </wgt>
<wgt id='1163'> +1.9928504e-12 </wgt>
<wgt id='1164'> +1.9909057e-12 </wgt>
<wgt id='1165'> +1.9919076e-12 </wgt>
<wgt id='1166'> +1.9916045e-12 </wgt>
<wgt id='1167'> +2.0081421e-12 </wgt>
<wgt id='1168'> +1.9712077e-12 </wgt>
<wgt id='1169'> +1.9966748e-12 </wgt>
<wgt id='1170'> +1.9883230e-12 </wgt>
<wgt id='1171'> +1.9838878e-12 </wgt>
<wgt id='1172'> +2.0021236e-12 </wgt>
<wgt id='1173'> +1.9735789e-12 </wgt>
<wgt id='1174'> +2.0104752e-12 </wgt>
<wgt id='1175'> +1.9948467e-12 </wgt>
<wgt id='1176'> +1.9888763e-12 </wgt>
<wgt id='1177'> +1.9869812e-12 </wgt>
<wgt id='1178'> +2.0050291e-12 </wgt>
<wgt id='1179'> +1.9928602e-12 </wgt>
<wgt id='1180'> +1.9849101e-12 </wgt>
<wgt id='1181'> +1.9965593e-12 </wgt>
<wgt id='1182'> +1.9857587e-12 </wgt>
<wgt id='1183'> +1.9826123e-12 </wgt>
<wgt id='1184'> +1.9925455e-12 </wgt>
<wgt id='1185'> +1.9890258e-12 </wgt>
<wgt id='1186'> +1.9938025e-12 </wgt>
<wgt id='1187'> +1.9941521e-12 </wgt>
<wgt id='1188'> +1.9911213e-12 </wgt>
<wgt id='1189'> +1.9877286e-12 </wgt>
<wgt id='1190'> +1.9755962e-12 </wgt>
<wgt id='1191'> +1.9929504e-12 </wgt>
<wgt id='1192'> +1.9934190e-12 </wgt>
<wgt id='1193'> +1.3657390e-12 </wgt>
<wgt id='1194'> +1.3573558e-12 </wgt>
<wgt id='1195'> +1.3726172e-12 </wgt>
<wgt id='1196'> +1.3681331e-12 </wgt>
<wgt id='1197'> +1.3630765e-12 </wgt>
<wgt id='1198'> +1.3649950e-12 </wgt>
<wgt id='1199'> +1.3668744e-12 </wgt>
<wgt id='1200'> +1.3633689e-12 </wgt>
<wgt id='1201'> +1.3673740e-12 </wgt>
<wgt id='1202'> +1.3647249e-12 </wgt>
<wgt id='1203'> +1.3672062e-12 </wgt>
<wgt id='1204'> +1.3596364e-12 </wgt>
<wgt id='1205'> +1.3693722e-12 </wgt>
<wgt id='1206'> +1.3687687e-12 </wgt>
<wgt id='1207'> +1.3616357e-12 </wgt>
<wgt id='1208'> +1.3683978e-12 </wgt>
<wgt id='1209'> +1.3648178e-12 </wgt>
<wgt id='1210'> +1.3626396e-12 </wgt>
<wgt id='1211'> +1.3633746e-12 </wgt>
<wgt id='1212'> +1.3670221e-12 </wgt>
<wgt id='1213'> +1.3646705e-12 </wgt>
<wgt id='1214'> +1.3511845e-12 </wgt>
<wgt id='1215'> +1.3878186e-12 </wgt>
<wgt id='1216'> +1.3689693e-12 </wgt>
<wgt id='1217'> +1.3635918e-12 </wgt>
<wgt id='1218'> +1.3700402e-12 </wgt>
<wgt id='1219'> +1.3634154e-12 </wgt>
<wgt id='1220'> +1.3720733e-12 </wgt>
<wgt id='1221'> +1.3640770e-12 </wgt>
<wgt id='1222'> +1.3798844e-12 </wgt>
<wgt id='1223'> +1.3442016e-12 </wgt>
<wgt id='1224'> +1.3695176e-12 </wgt>
<wgt id='1225'> +1.3642382e-12 </wgt>
<wgt id='1226'> +1.3645748e-12 </wgt>
<wgt id='1227'> +1.3667877e-12 </wgt>
<wgt id='1228'> +1.3537262e-12 </wgt>
<wgt id='1229'> +1.3709251e-12 </wgt>
<wgt id='1230'> +1.3652851e-12 </wgt>
<wgt id='1231'> +1.3697982e-12 </wgt>
<wgt id='1232'> +1.3640041e-12 </wgt>
<wgt id='1233'> +1.3661598e-12 </wgt>
<wgt id='1234'> +1.3657390e-12 </wgt>
<wgt id='1235'> +1.3583371e-12 </wgt>
<wgt id='1236'> +1.3611751e-12 </wgt>
<wgt id='1237'> +1.3637247e-12 </wgt>
<wgt id='1238'> +1.3678693e-12 </wgt>
<wgt id='1239'> +1.3695369e-12 </wgt>
<wgt id='1240'> +1.3712062e-12 </wgt>
<wgt id='1241'> +1.3144681e-12 </wgt>
<wgt id='1242'> +1.3041848e-12 </wgt>
<wgt id='1243'> +1.3246312e-12 </wgt>
<wgt id='1244'> +1.3142196e-12 </wgt>
<wgt id='1245'> +1.3146073e-12 </wgt>
<wgt id='1246'> +1.3112535e-12 </wgt>
<wgt id='1247'> +1.3171989e-12 </wgt>
<wgt id='1248'> +1.3144410e-12 </wgt>
<wgt id='1249'> +1.3145050e-12 </wgt>
<wgt id='1250'> +1.3157678e-12 </wgt>
<wgt id='1251'> +1.3135369e-12 </wgt>
<wgt id='1252'> +1.3121604e-12 </wgt>
<wgt id='1253'> +1.3162497e-12 </wgt>
<wgt id='1254'> +1.3091836e-12 </wgt>
<wgt id='1255'> +1.3175782e-12 </wgt>
<wgt id='1256'> +1.3138827e-12 </wgt>
<wgt id='1257'> +1.3158233e-12 </wgt>
<wgt id='1258'> +1.3285737e-12 </wgt>
<wgt id='1259'> +1.3007150e-12 </wgt>
<wgt id='1260'> +1.3169257e-12 </wgt>
<wgt id='1261'> +1.3118878e-12 </wgt>
<wgt id='1262'> +1.3128866e-12 </wgt>
<wgt id='1263'> +1.3153412e-12 </wgt>
<wgt id='1264'> +1.3204794e-12 </wgt>
<wgt id='1265'> +1.3116436e-12 </wgt>
<wgt id='1266'> +1.2987813e-12 </wgt>
<wgt id='1267'> +1.3287049e-12 </wgt>
<wgt id='1268'> +1.3197778e-12 </wgt>
<wgt id='1269'> +1.3105469e-12 </wgt>
<wgt id='1270'> +1.3134424e-12 </wgt>
<wgt id='1271'> +1.3144752e-12 </wgt>
<wgt id='1272'> +1.3158679e-12 </wgt>
<wgt id='1273'> +1.3141909e-12 </wgt>
<wgt id='1274'> +1.3155471e-12 </wgt>
<wgt id='1275'> +1.3126825e-12 </wgt>
<wgt id='1276'> +1.3229230e-12 </wgt>
<wgt id='1277'> +1.3031886e-12 </wgt>
<wgt id='1278'> +1.3197715e-12 </wgt>
<wgt id='1279'> +1.3183403e-12 </wgt>
<wgt id='1280'> +1.3152192e-12 </wgt>
<wgt id='1281'> +1.3130673e-12 </wgt>
<wgt id='1282'> +1.3144681e-12 </wgt>
<wgt id='1283'> +1.3072708e-12 </wgt>
<wgt id='1284'> +1.3102144e-12 </wgt>
<wgt id='1285'> +1.3125503e-12 </wgt>
<wgt id='1286'> +1.3164694e-12 </wgt>
<wgt id='1287'> +1.3179059e-12 </wgt>
<wgt id='1288'> +1.3190453e-12 </wgt>
<wgt id='1289'> +1.4210919e-12 </wgt>
<wgt id='1290'> +1.4215837e-12 </wgt>
<wgt id='1291'> +1.4205651e-12 </wgt>
<wgt id='1292'> +1.4211687e-12 </wgt>
<wgt id='1293'> +1.4210461e-12 </wgt>
<wgt id='1294'> +1.4107854e-12 </wgt>
<wgt id='1295'> +1.4310822e-12 </wgt>
<wgt id='1296'> +1.4214207e-12 </wgt>
<wgt id='1297'> +1.4206077e-12 </wgt>
<wgt id='1298'> +1.4251194e-12 </wgt>
<wgt id='1299'> +1.4160225e-12 </wgt>
<wgt id='1300'> +1.4236012e-12 </wgt>
<wgt id='1301'> +1.4160782e-12 </wgt>
<wgt id='1302'> +1.4176251e-12 </wgt>
<wgt id='1303'> +1.4259222e-12 </wgt>
<wgt id='1304'> +1.4192844e-12 </wgt>
<wgt id='1305'> +1.4223259e-12 </wgt>
<wgt id='1306'> +1.4203307e-12 </wgt>
<wgt id='1307'> +1.4217937e-12 </wgt>
<wgt id='1308'> +1.4138329e-12 </wgt>
<wgt id='1309'> +1.4266441e-12 </wgt>
<wgt id='1310'> +1.4184682e-12 </wgt>
<wgt id='1311'> +1.4240144e-12 </wgt>
<wgt id='1312'> +1.4272822e-12 </wgt>
<wgt id='1313'> +1.4150295e-12 </wgt>
<wgt id='1314'> +1.4053917e-12 </wgt>
<wgt id='1315'> +1.4338808e-12 </wgt>
<wgt id='1316'> +1.4293798e-12 </wgt>
<wgt id='1317'> +1.4199640e-12 </wgt>
<wgt id='1318'> +1.4326077e-12 </wgt>
<wgt id='1319'> +1.4070266e-12 </wgt>
<wgt id='1320'> +1.4325504e-12 </wgt>
<wgt id='1321'> +1.4112855e-12 </wgt>
<wgt id='1322'> +1.4206279e-12 </wgt>
<wgt id='1323'> +1.4221677e-12 </wgt>
<wgt id='1324'> +1.4165213e-12 </wgt>
<wgt id='1325'> +1.4346555e-12 </wgt>
<wgt id='1326'> +1.4203021e-12 </wgt>
<wgt id='1327'> +1.4239282e-12 </wgt>
<wgt id='1328'> +1.4208463e-12 </wgt>
<wgt id='1329'> +1.4210029e-12 </wgt>
<wgt id='1330'> +1.4275930e-12 </wgt>
<wgt id='1331'> +1.4175857e-12 </wgt>
<wgt id='1332'> +1.4326511e-12 </wgt>
<wgt id='1333'> +1.4208460e-12 </wgt>
<wgt id='1334'> +1.4190626e-12 </wgt>
<wgt id='1335'> +1.4274406e-12 </wgt>
<wgt id='1336'> +1.4210800e-12 </wgt>
<wgt id='1337'> +1.4257361e-12 </wgt>
<wgt id='1338'> +1.4189621e-12 </wgt>
<wgt id='1339'> +1.4219131e-12 </wgt>
<wgt id='1340'> +1.3898295e-12 </wgt>
<wgt id='1341'> +1.3902191e-12 </wgt>
<wgt id='1342'> +1.3894009e-12 </wgt>
<wgt id='1343'> +1.3899381e-12 </wgt>
<wgt id='1344'> +1.3897513e-12 </wgt>
<wgt id='1345'> +1.3791437e-12 </wgt>
<wgt id='1346'> +1.3997515e-12 </wgt>
<wgt id='1347'> +1.3907704e-12 </wgt>
<wgt id='1348'> +1.3886623e-12 </wgt>
<wgt id='1349'> +1.3934740e-12 </wgt>
<wgt id='1350'> +1.3862440e-12 </wgt>
<wgt id='1351'> +1.3920715e-12 </wgt>
<wgt id='1352'> +1.3849410e-12 </wgt>
<wgt id='1353'> +1.3854932e-12 </wgt>
<wgt id='1354'> +1.3975801e-12 </wgt>
<wgt id='1355'> +1.3887186e-12 </wgt>
<wgt id='1356'> +1.3904560e-12 </wgt>
<wgt id='1357'> +1.3876482e-12 </wgt>
<wgt id='1358'> +1.3921861e-12 </wgt>
<wgt id='1359'> +1.3829618e-12 </wgt>
<wgt id='1360'> +1.3957832e-12 </wgt>
<wgt id='1361'> +1.3881207e-12 </wgt>
<wgt id='1362'> +1.3922283e-12 </wgt>
<wgt id='1363'> +1.4012171e-12 </wgt>
<wgt id='1364'> +1.3826108e-12 </wgt>
<wgt id='1365'> +1.3961496e-12 </wgt>
<wgt id='1366'> +1.3759416e-12 </wgt>
<wgt id='1367'> +1.3980059e-12 </wgt>
<wgt id='1368'> +1.3881337e-12 </wgt>
<wgt id='1369'> +1.3995787e-12 </wgt>
<wgt id='1370'> +1.3780156e-12 </wgt>
<wgt id='1371'> +1.3993642e-12 </wgt>
<wgt id='1372'> +1.3784660e-12 </wgt>
<wgt id='1373'> +1.3869703e-12 </wgt>
<wgt id='1374'> +1.3929897e-12 </wgt>
<wgt id='1375'> +1.3854746e-12 </wgt>
<wgt id='1376'> +1.4036354e-12 </wgt>
<wgt id='1377'> +1.3886620e-12 </wgt>
<wgt id='1378'> +1.3931463e-12 </wgt>
<wgt id='1379'> +1.3896617e-12 </wgt>
<wgt id='1380'> +1.3896495e-12 </wgt>
<wgt id='1381'> +1.3966574e-12 </wgt>
<wgt id='1382'> +1.3860041e-12 </wgt>
<wgt id='1383'> +1.4000724e-12 </wgt>
<wgt id='1384'> +1.3910276e-12 </wgt>
<wgt id='1385'> +1.3880751e-12 </wgt>
<wgt id='1386'> +1.3949511e-12 </wgt>
<wgt id='1387'> +1.3890566e-12 </wgt>
<wgt id='1388'> +1.3945612e-12 </wgt>
<wgt id='1389'> +1.3870445e-12 </wgt>
<wgt id='1390'> +1.3910488e-12 </wgt>
<wgt id='1391'> +1.3626990e-12 </wgt>
<wgt id='1392'> +1.3190828e-12 </wgt>
<wgt id='1393'> +1.3339033e-12 </wgt>
<wgt id='1394'> +1.3487858e-12 </wgt>
<wgt id='1395'> +1.3778335e-12 </wgt>
<wgt id='1396'> +1.3634069e-12 </wgt>
<wgt id='1397'> +1.3433670e-12 </wgt>
<wgt id='1398'> +1.3467272e-12 </wgt>
<wgt id='1399'> +1.3500521e-12 </wgt>
<wgt id='1400'> +1.3540875e-12 </wgt>
<wgt id='1401'> +1.3587331e-12 </wgt>
<wgt id='1402'> +1.3680628e-12 </wgt>
<wgt id='1403'> +1.3731068e-12 </wgt>
<wgt id='1404'> +1.3782752e-12 </wgt>
<wgt id='1405'> +1.3634069e-12 </wgt>
<wgt id='1406'> +1.3589700e-12 </wgt>
<wgt id='1407'> +1.3613121e-12 </wgt>
<wgt id='1408'> +1.3653409e-12 </wgt>
<wgt id='1409'> +1.3670226e-12 </wgt>
<wgt id='1410'> +1.3056340e-12 </wgt>
<wgt id='1411'> +1.3075867e-12 </wgt>
<wgt id='1412'> +1.3030848e-12 </wgt>
<wgt id='1413'> +1.3017066e-12 </wgt>
<wgt id='1414'> +1.3095259e-12 </wgt>
<wgt id='1415'> +1.3039720e-12 </wgt>
<wgt id='1416'> +1.3062952e-12 </wgt>
<wgt id='1417'> +1.2993867e-12 </wgt>
<wgt id='1418'> +1.3118107e-12 </wgt>
<wgt id='1419'> +1.3065911e-12 </wgt>
<wgt id='1420'> +1.3046758e-12 </wgt>
<wgt id='1421'> +1.2954051e-12 </wgt>
<wgt id='1422'> +1.3099883e-12 </wgt>
<wgt id='1423'> +1.3045397e-12 </wgt>
<wgt id='1424'> +1.3069250e-12 </wgt>
<wgt id='1425'> +1.2989020e-12 </wgt>
<wgt id='1426'> +1.3128544e-12 </wgt>
<wgt id='1427'> +1.2897216e-12 </wgt>
<wgt id='1428'> +1.3141339e-12 </wgt>
<wgt id='1429'> +1.3094629e-12 </wgt>
<wgt id='1430'> +1.3004412e-12 </wgt>
<wgt id='1431'> +1.3056910e-12 </wgt>
<wgt id='1432'> +1.3054985e-12 </wgt>
<wgt id='1433'> +1.2976922e-12 </wgt>
<wgt id='1434'> +1.3111283e-12 </wgt>
<wgt id='1435'> +1.2995300e-12 </wgt>
<wgt id='1436'> +1.3207274e-12 </wgt>
<wgt id='1437'> +1.3130195e-12 </wgt>
<wgt id='1438'> +1.3053845e-12 </wgt>
<wgt id='1439'> +1.2997865e-12 </wgt>
<wgt id='1440'> +1.3172696e-12 </wgt>
<wgt id='1441'> +1.3077934e-12 </wgt>
<wgt id='1442'> +1.3017899e-12 </wgt>
<wgt id='1443'> +1.3022608e-12 </wgt>
<wgt id='1444'> +1.3145087e-12 </wgt>
<wgt id='1445'> +1.3223378e-12 </wgt>
<wgt id='1446'> +1.2997085e-12 </wgt>
<wgt id='1447'> +1.3058645e-12 </wgt>
<wgt id='1448'> +1.3085889e-12 </wgt>
<wgt id='1449'> +1.3059854e-12 </wgt>
<wgt id='1450'> +1.3048770e-12 </wgt>
<wgt id='1451'> +1.3037893e-12 </wgt>
<wgt id='1452'> +1.3111594e-12 </wgt>
<wgt id='1453'> +1.3062277e-12 </wgt>
<wgt id='1454'> +1.3003000e-12 </wgt>
<wgt id='1455'> +1.3114317e-12 </wgt>
<wgt id='1456'> +1.3084505e-12 </wgt>
<wgt id='1457'> +1.3099802e-12 </wgt>
<wgt id='1458'> +1.3045009e-12 </wgt>
<wgt id='1459'> +1.3091595e-12 </wgt>
<wgt id='1460'> +1.3096602e-12 </wgt>
<wgt id='1461'> +1.3056340e-12 </wgt>
<wgt id='1462'> +1.2938193e-12 </wgt>
<wgt id='1463'> +1.3137346e-12 </wgt>
<wgt id='1464'> +1.3036453e-12 </wgt>
<wgt id='1465'> +1.2814704e-12 </wgt>
<wgt id='1466'> +1.2854014e-12 </wgt>
<wgt id='1467'> +1.2897784e-12 </wgt>
<wgt id='1468'> +1.2950037e-12 </wgt>
<wgt id='1469'> +1.2990284e-12 </wgt>
<wgt id='1470'> +1.3086012e-12 </wgt>
<wgt id='1471'> +1.3128590e-12 </wgt>
<wgt id='1472'> +1.3175899e-12 </wgt>
<wgt id='1473'> +1.3036453e-12 </wgt>
<wgt id='1474'> +1.2996029e-12 </wgt>
<wgt id='1475'> +1.3018341e-12 </wgt>
<wgt id='1476'> +1.3052725e-12 </wgt>
<wgt id='1477'> +1.3066653e-12 </wgt>
<wgt id='1478'> +1.3320266e-12 </wgt>
<wgt id='1479'> +1.3313023e-12 </wgt>
<wgt id='1480'> +1.3185990e-12 </wgt>
<wgt id='1481'> +1.3415676e-12 </wgt>
<wgt id='1482'> +1.3324380e-12 </wgt>
<wgt id='1483'> +1.3179768e-12 </wgt>
<wgt id='1484'> +1.3256713e-12 </wgt>
<wgt id='1485'> +1.3349662e-12 </wgt>
<wgt id='1486'> +1.3320121e-12 </wgt>
<wgt id='1487'> +1.3388444e-12 </wgt>
<wgt id='1488'> +1.3293837e-12 </wgt>
<wgt id='1489'> +1.3366956e-12 </wgt>
<wgt id='1490'> +1.3282476e-12 </wgt>
<wgt id='1491'> +1.3361835e-12 </wgt>
<wgt id='1492'> +1.3342085e-12 </wgt>
<wgt id='1493'> +1.3150941e-12 </wgt>
<wgt id='1494'> +1.3307537e-12 </wgt>
<wgt id='1495'> +1.3159236e-12 </wgt>
<wgt id='1496'> +1.3323227e-12 </wgt>
<wgt id='1497'> +1.3337742e-12 </wgt>
<wgt id='1498'> +1.3317402e-12 </wgt>
<wgt id='1499'> +1.3343261e-12 </wgt>
<wgt id='1500'> +1.3316247e-12 </wgt>
<wgt id='1501'> +1.3324928e-12 </wgt>
<wgt id='1502'> +1.3330437e-12 </wgt>
<wgt id='1503'> +1.3357342e-12 </wgt>
<wgt id='1504'> +1.3300951e-12 </wgt>
<wgt id='1505'> +1.3335218e-12 </wgt>
<wgt id='1506'> +1.3327888e-12 </wgt>
<wgt id='1507'> +1.3317126e-12 </wgt>
<wgt id='1508'> +1.3365867e-12 </wgt>
<wgt id='1509'> +1.3342304e-12 </wgt>
<wgt id='1510'> +1.3357032e-12 </wgt>
<wgt id='1511'> +1.3273849e-12 </wgt>
<wgt id='1512'> +1.3271856e-12 </wgt>
<wgt id='1513'> +1.3336958e-12 </wgt>
<wgt id='1514'> +1.3394248e-12 </wgt>
<wgt id='1515'> +1.3378602e-12 </wgt>
<wgt id='1516'> +1.3396255e-12 </wgt>
<wgt id='1517'> +1.3376295e-12 </wgt>
<wgt id='1518'> +1.3339371e-12 </wgt>
<wgt id='1519'> +1.3322642e-12 </wgt>
<wgt id='1520'> +1.3345399e-12 </wgt>
<wgt id='1521'> +1.3356018e-12 </wgt>
<wgt id='1522'> +1.3354974e-12 </wgt>
<wgt id='1523'> +1.3379037e-12 </wgt>
<wgt id='1524'> +1.3342213e-12 </wgt>
<wgt id='1525'> +1.3356745e-12 </wgt>
<wgt id='1526'> +1.3340214e-12 </wgt>
<wgt id='1527'> +1.3339033e-12 </wgt>
<wgt id='1528'> +1.3350753e-12 </wgt>
<wgt id='1529'> +1.3338581e-12 </wgt>
<wgt id='1530'> +1.3370412e-12 </wgt>
<wgt id='1531'> +1.3354804e-12 </wgt>
<wgt id='1532'> +1.3294891e-12 </wgt>
<wgt id='1533'> +1.3344368e-12 </wgt>
<wgt id='1534'> +1.3351879e-12 </wgt>
<wgt id='1535'> +1.3279722e-12 </wgt>
<wgt id='1536'> +1.3354241e-12 </wgt>
<wgt id='1537'> +1.3348821e-12 </wgt>
<wgt id='1538'> +1.3264660e-12 </wgt>
<wgt id='1539'> +1.3383468e-12 </wgt>
<wgt id='1540'> +1.3344622e-12 </wgt>
<wgt id='1541'> +1.3321017e-12 </wgt>
<wgt id='1542'> +1.3324447e-12 </wgt>
<wgt id='1543'> +1.3348708e-12 </wgt>
<wgt id='1544'> +1.3343258e-12 </wgt>
<wgt id='1545'> +1.3324480e-12 </wgt>
<wgt id='1546'> +1.3317545e-12 </wgt>
<wgt id='1547'> +1.3336355e-12 </wgt>
<wgt id='1548'> +1.3345440e-12 </wgt>
<wgt id='1549'> +1.3328110e-12 </wgt>
<wgt id='1550'> +1.3345479e-12 </wgt>
<wgt id='1551'> +1.3355591e-12 </wgt>
<wgt id='1552'> +1.3357414e-12 </wgt>
<wgt id='1553'> +1.3337854e-12 </wgt>
<wgt id='1554'> +1.3331575e-12 </wgt>
<wgt id='1555'> +1.3358590e-12 </wgt>
<wgt id='1556'> +1.3368627e-12 </wgt>
<wgt id='1557'> +1.3336568e-12 </wgt>
<wgt id='1558'> +1.3324630e-12 </wgt>
<wgt id='1559'> +1.3310859e-12 </wgt>
<wgt id='1560'> +1.3342824e-12 </wgt>
<wgt id='1561'> +1.3331864e-12 </wgt>
<wgt id='1562'> +1.3344747e-12 </wgt>
<wgt id='1563'> +1.3339386e-12 </wgt>
<wgt id='1564'> +1.3341609e-12 </wgt>
<wgt id='1565'> +1.3346978e-12 </wgt>
<wgt id='1566'> +1.3348938e-12 </wgt>
<wgt id='1567'> +1.3359012e-12 </wgt>
<wgt id='1568'> +1.3329168e-12 </wgt>
<wgt id='1569'> +1.3358451e-12 </wgt>
<wgt id='1570'> +1.3348606e-12 </wgt>
<wgt id='1571'> +1.3341067e-12 </wgt>
<wgt id='1572'> +1.3345149e-12 </wgt>
<wgt id='1573'> +1.3349771e-12 </wgt>
<wgt id='1574'> +1.3349798e-12 </wgt>
<wgt id='1575'> +1.3329116e-12 </wgt>
<wgt id='1576'> +1.3343496e-12 </wgt>
<wgt id='1577'> +1.3345045e-12 </wgt>
<wgt id='1578'> +1.3357021e-12 </wgt>
<wgt id='1579'> +1.3330651e-12 </wgt>
<wgt id='1580'> +1.3335480e-12 </wgt>
<wgt id='1581'> +1.3342408e-12 </wgt>
<wgt id='1582'> +1.3365696e-12 </wgt>
<wgt id='1583'> +1.3337670e-12 </wgt>
<wgt id='1584'> +1.3355499e-12 </wgt>
<wgt id='1585'> +1.3349230e-12 </wgt>
<wgt id='1586'> +1.3337244e-12 </wgt>
<wgt id='1587'> +1.3340555e-12 </wgt>
<wgt id='1588'> +1.3340771e-12 </wgt>
<wgt id='1589'> +1.3343684e-12 </wgt>
<wgt id='1590'> +1.3347549e-12 </wgt>
<wgt id='1591'> +1.3346851e-12 </wgt>
<wgt id='1592'> +1.3341860e-12 </wgt>
<wgt id='1593'> +1.3349291e-12 </wgt>
<wgt id='1594'> +1.3342454e-12 </wgt>
<wgt id='1595'> +1.3347186e-12 </wgt>
<wgt id='1596'> +1.3336270e-12 </wgt>
<wgt id='1597'> +1.3353103e-12 </wgt>
<wgt id='1598'> +1.3334306e-12 </wgt>
<wgt id='1599'> +1.3327887e-12 </wgt>
<wgt id='1600'> +1.3332717e-12 </wgt>
<wgt id='1601'> +1.3343842e-12 </wgt>
<wgt id='1602'> +1.3349854e-12 </wgt>
<wgt id='1603'> +1.3340150e-12 </wgt>
<wgt id='1604'> +1.3343396e-12 </wgt>
<wgt id='1605'> +1.3341702e-12 </wgt>
<wgt id='1606'> +1.3342216e-12 </wgt>
<wgt id='1607'> +1.3335478e-12 </wgt>
<wgt id='1608'> +1.3343666e-12 </wgt>
<wgt id='1609'> +1.3347040e-12 </wgt>
<wgt id='1610'> +1.3186190e-12 </wgt>
<wgt id='1611'> +1.3499468e-12 </wgt>
<wgt id='1612'> +1.5319314e-12 </wgt>
<wgt id='1613'> +1.5031420e-12 </wgt>
<wgt id='1614'> +1.5055335e-12 </wgt>
<wgt id='1615'> +1.5298724e-12 </wgt>
<wgt id='1616'> +1.4908258e-12 </wgt>
<wgt id='1617'> +1.5377651e-12 </wgt>
<wgt id='1618'> +1.5336192e-12 </wgt>
<wgt id='1619'> +1.5258102e-12 </wgt>
<wgt id='1620'> +1.5035676e-12 </wgt>
<wgt id='1621'> +1.5503220e-12 </wgt>
<wgt id='1622'> +1.5391897e-12 </wgt>
<wgt id='1623'> +1.5102279e-12 </wgt>
<wgt id='1624'> +1.5376749e-12 </wgt>
<wgt id='1625'> +1.5196616e-12 </wgt>
<wgt id='1626'> +1.5140560e-12 </wgt>
<wgt id='1627'> +1.5362337e-12 </wgt>
<wgt id='1628'> +1.4808527e-12 </wgt>
<wgt id='1629'> +1.5669938e-12 </wgt>
<wgt id='1630'> +1.5111473e-12 </wgt>
<wgt id='1631'> +1.5334241e-12 </wgt>
<wgt id='1632'> +1.4731293e-12 </wgt>
<wgt id='1633'> +1.4990396e-12 </wgt>
<wgt id='1634'> +1.5396588e-12 </wgt>
<wgt id='1635'> +1.5628190e-12 </wgt>
<wgt id='1636'> +1.5579835e-12 </wgt>
<wgt id='1637'> +1.5500157e-12 </wgt>
<wgt id='1638'> +1.5445105e-12 </wgt>
<wgt id='1639'> +1.5055993e-12 </wgt>
<wgt id='1640'> +1.5383114e-12 </wgt>
<wgt id='1641'> +1.5257514e-12 </wgt>
<wgt id='1642'> +1.5067201e-12 </wgt>
<wgt id='1643'> +1.5103683e-12 </wgt>
<wgt id='1644'> +1.5582610e-12 </wgt>
<wgt id='1645'> +1.5286218e-12 </wgt>
<wgt id='1646'> +1.5349825e-12 </wgt>
<wgt id='1647'> +1.5310751e-12 </wgt>
<wgt id='1648'> +1.5568743e-12 </wgt>
<wgt id='1649'> +1.5696393e-12 </wgt>
<wgt id='1650'> +1.5248259e-12 </wgt>
<wgt id='1651'> +1.5197373e-12 </wgt>
<wgt id='1652'> +1.5064235e-12 </wgt>
<wgt id='1653'> +1.5512131e-12 </wgt>
<wgt id='1654'> +1.5249505e-12 </wgt>
<wgt id='1655'> +1.5416707e-12 </wgt>
<wgt id='1656'> +1.5393773e-12 </wgt>
<wgt id='1657'> +1.5185372e-12 </wgt>
<wgt id='1658'> +1.5063099e-12 </wgt>
<wgt id='1659'> +1.5376749e-12 </wgt>
<wgt id='1660'> +1.5516328e-12 </wgt>
<wgt id='1661'> +1.5509814e-12 </wgt>
<wgt id='1662'> +1.5799077e-12 </wgt>
<wgt id='1663'> +1.5296105e-12 </wgt>
<wgt id='1664'> +1.5263198e-12 </wgt>
<wgt id='1665'> +1.4700258e-12 </wgt>
<wgt id='1666'> +1.5455421e-12 </wgt>
<wgt id='1667'> +1.5188781e-12 </wgt>
<wgt id='1668'> +1.5503210e-12 </wgt>
<wgt id='1669'> +1.5499508e-12 </wgt>
<wgt id='1670'> +1.5414103e-12 </wgt>
<wgt id='1671'> +1.5329892e-12 </wgt>
<wgt id='1672'> +1.5655816e-12 </wgt>
<wgt id='1673'> +1.5158493e-12 </wgt>
<wgt id='1674'> +1.4853727e-12 </wgt>
<wgt id='1675'> +1.5378308e-12 </wgt>
<wgt id='1676'> +1.5339989e-12 </wgt>
<wgt id='1677'> +1.5678350e-12 </wgt>
<wgt id='1678'> +1.5143635e-12 </wgt>
<wgt id='1679'> +1.5276506e-12 </wgt>
<wgt id='1680'> +1.5610774e-12 </wgt>
<wgt id='1681'> +1.5594971e-12 </wgt>
<wgt id='1682'> +1.5291329e-12 </wgt>
<wgt id='1683'> +1.5033660e-12 </wgt>
<wgt id='1684'> +1.5540231e-12 </wgt>
<wgt id='1685'> +1.5200246e-12 </wgt>
<wgt id='1686'> +1.5336407e-12 </wgt>
<wgt id='1687'> +1.5496614e-12 </wgt>
<wgt id='1688'> +1.5215503e-12 </wgt>
<wgt id='1689'> +1.5719102e-12 </wgt>
<wgt id='1690'> +1.5300211e-12 </wgt>
<wgt id='1691'> +1.5265773e-12 </wgt>
<wgt id='1692'> +1.5795110e-12 </wgt>
<wgt id='1693'> +1.5341762e-12 </wgt>
<wgt id='1694'> +1.5472428e-12 </wgt>
<wgt id='1695'> +1.5659171e-12 </wgt>
<wgt id='1696'> +1.5339162e-12 </wgt>
<wgt id='1697'> +1.5128228e-12 </wgt>
<wgt id='1698'> +1.5337215e-12 </wgt>
<wgt id='1699'> +1.5237831e-12 </wgt>
<wgt id='1700'> +1.5188944e-12 </wgt>
<wgt id='1701'> +1.5726589e-12 </wgt>
<wgt id='1702'> +1.5024853e-12 </wgt>
<wgt id='1703'> +1.5265303e-12 </wgt>
<wgt id='1704'> +1.5282734e-12 </wgt>
<wgt id='1705'> +1.4730074e-12 </wgt>
<wgt id='1706'> +1.5570925e-12 </wgt>
<wgt id='1707'> +1.5202564e-12 </wgt>
<wgt id='1708'> +1.5558704e-12 </wgt>
<wgt id='1709'> +1.5591245e-12 </wgt>
<wgt id='1710'> +1.5170552e-12 </wgt>
<wgt id='1711'> +1.5270613e-12 </wgt>
<wgt id='1712'> +1.5518745e-12 </wgt>
<wgt id='1713'> +1.2962914e-12 </wgt>
<wgt id='1714'> +1.2842526e-12 </wgt>
<wgt id='1715'> +1.2770302e-12 </wgt>
<wgt id='1716'> +1.3247424e-12 </wgt>
<wgt id='1717'> +1.3021067e-12 </wgt>
<wgt id='1718'> +1.3147456e-12 </wgt>
<wgt id='1719'> +1.3047802e-12 </wgt>
<wgt id='1720'> +1.2801829e-12 </wgt>
<wgt id='1721'> +1.2722055e-12 </wgt>
<wgt id='1722'> +1.2876903e-12 </wgt>
<wgt id='1723'> +1.3226069e-12 </wgt>
<wgt id='1724'> +1.3305922e-12 </wgt>
<wgt id='1725'> +1.2968925e-12 </wgt>
<wgt id='1726'> +1.2978434e-12 </wgt>
<wgt id='1727'> +1.3294831e-12 </wgt>
<wgt id='1728'> +1.2908151e-12 </wgt>
<wgt id='1729'> +1.2564764e-12 </wgt>
<wgt id='1730'> +1.2875252e-12 </wgt>
<wgt id='1731'> +1.2357154e-12 </wgt>
<wgt id='1732'> +1.3029815e-12 </wgt>
<wgt id='1733'> +1.2393124e-12 </wgt>
<wgt id='1734'> +1.3465880e-12 </wgt>
<wgt id='1735'> +1.2882708e-12 </wgt>
<wgt id='1736'> +1.3341599e-12 </wgt>
<wgt id='1737'> +1.3263724e-12 </wgt>
<wgt id='1738'> +1.2940015e-12 </wgt>
<wgt id='1739'> +1.2913906e-12 </wgt>
<wgt id='1740'> +1.2290940e-12 </wgt>
<wgt id='1741'> +1.3300083e-12 </wgt>
<wgt id='1742'> +1.2749159e-12 </wgt>
<wgt id='1743'> +1.2748358e-12 </wgt>
<wgt id='1744'> +1.3084441e-12 </wgt>
<wgt id='1745'> +1.3127723e-12 </wgt>
<wgt id='1746'> +1.2843245e-12 </wgt>
<wgt id='1747'> +1.3349447e-12 </wgt>
<wgt id='1748'> +1.2744469e-12 </wgt>
<wgt id='1749'> +1.2797671e-12 </wgt>
<wgt id='1750'> +1.2757196e-12 </wgt>
<wgt id='1751'> +1.2694859e-12 </wgt>
<wgt id='1752'> +1.2834147e-12 </wgt>
<wgt id='1753'> +1.3090669e-12 </wgt>
<wgt id='1754'> +1.3202574e-12 </wgt>
<wgt id='1755'> +1.3070153e-12 </wgt>
<wgt id='1756'> +1.3150265e-12 </wgt>
<wgt id='1757'> +1.3034381e-12 </wgt>
<wgt id='1758'> +1.3396251e-12 </wgt>
<wgt id='1759'> +1.3081375e-12 </wgt>
<wgt id='1760'> +1.2836430e-12 </wgt>
<wgt id='1761'> +1.2947773e-12 </wgt>
<wgt id='1762'> +1.2672609e-12 </wgt>
<wgt id='1763'> +1.3125097e-12 </wgt>
<wgt id='1764'> +1.3167980e-12 </wgt>
<wgt id='1765'> +1.2787368e-12 </wgt>
<wgt id='1766'> +1.3299136e-12 </wgt>
<wgt id='1767'> +1.3121017e-12 </wgt>
<wgt id='1768'> +1.3088674e-12 </wgt>
<wgt id='1769'> +1.3042182e-12 </wgt>
<wgt id='1770'> +1.2809592e-12 </wgt>
<wgt id='1771'> +1.3318902e-12 </wgt>
<wgt id='1772'> +1.2928231e-12 </wgt>
<wgt id='1773'> +1.2911483e-12 </wgt>
<wgt id='1774'> +1.2744869e-12 </wgt>
<wgt id='1775'> +1.2935491e-12 </wgt>
<wgt id='1776'> +1.3425994e-12 </wgt>
<wgt id='1777'> +1.2455620e-12 </wgt>
<wgt id='1778'> +1.2915325e-12 </wgt>
<wgt id='1779'> +1.2939547e-12 </wgt>
<wgt id='1780'> +1.3057398e-12 </wgt>
<wgt id='1781'> +1.3088847e-12 </wgt>
<wgt id='1782'> +1.2802729e-12 </wgt>
<wgt id='1783'> +1.2975836e-12 </wgt>
<wgt id='1784'> +1.3028786e-12 </wgt>
<wgt id='1785'> +1.3042146e-12 </wgt>
<wgt id='1786'> +1.3002928e-12 </wgt>
<wgt id='1787'> +1.3522631e-12 </wgt>
<wgt id='1788'> +1.2970910e-12 </wgt>
<wgt id='1789'> +1.3522687e-12 </wgt>
<wgt id='1790'> +1.3131309e-12 </wgt>
<wgt id='1791'> +1.2966678e-12 </wgt>
<wgt id='1792'> +1.2735921e-12 </wgt>
<wgt id='1793'> +1.2873146e-12 </wgt>
<wgt id='1794'> +1.3304155e-12 </wgt>
<wgt id='1795'> +1.3053680e-12 </wgt>
<wgt id='1796'> +1.2681202e-12 </wgt>
<wgt id='1797'> +1.3031007e-12 </wgt>
<wgt id='1798'> +1.2857133e-12 </wgt>
<wgt id='1799'> +1.2971247e-12 </wgt>
<wgt id='1800'> +1.3110443e-12 </wgt>
<wgt id='1801'> +1.2978567e-12 </wgt>
<wgt id='1802'> +1.2801375e-12 </wgt>
<wgt id='1803'> +1.3159038e-12 </wgt>
<wgt id='1804'> +1.2858716e-12 </wgt>
<wgt id='1805'> +1.2662437e-12 </wgt>
<wgt id='1806'> +1.2686650e-12 </wgt>
<wgt id='1807'> +1.3052165e-12 </wgt>
<wgt id='1808'> +1.2668603e-12 </wgt>
<wgt id='1809'> +1.2905023e-12 </wgt>
<wgt id='1810'> +1.2784549e-12 </wgt>
<wgt id='1811'> +1.3016032e-12 </wgt>
<wgt id='1812'> +1.2768646e-12 </wgt>
<wgt id='1813'> +1.2282708e-12 </wgt>
<wgt id='1814'> +1.5656976e-12 </wgt>
<wgt id='1815'> +1.8548581e-12 </wgt>
<wgt id='1816'> +1.2962914e-12 </wgt>
<wgt id='1817'> +1.2842526e-12 </wgt>
<wgt id='1818'> +1.2770302e-12 </wgt>
<wgt id='1819'> +1.3247424e-12 </wgt>
<wgt id='1820'> +1.3021067e-12 </wgt>
<wgt id='1821'> +1.3147456e-12 </wgt>
<wgt id='1822'> +1.3047802e-12 </wgt>
<wgt id='1823'> +1.2801829e-12 </wgt>
<wgt id='1824'> +1.2722055e-12 </wgt>
<wgt id='1825'> +1.2876903e-12 </wgt>
<wgt id='1826'> +1.3226069e-12 </wgt>
<wgt id='1827'> +1.3305922e-12 </wgt>
<wgt id='1828'> +1.2968925e-12 </wgt>
<wgt id='1829'> +1.2978434e-12 </wgt>
<wgt id='1830'> +1.3294831e-12 </wgt>
<wgt id='1831'> +1.2908151e-12 </wgt>
<wgt id='1832'> +1.2564764e-12 </wgt>
<wgt id='1833'> +1.2875252e-12 </wgt>
<wgt id='1834'> +1.2357154e-12 </wgt>
<wgt id='1835'> +1.3029815e-12 </wgt>
<wgt id='1836'> +1.2393124e-12 </wgt>
<wgt id='1837'> +1.3465880e-12 </wgt>
<wgt id='1838'> +1.2882708e-12 </wgt>
<wgt id='1839'> +1.3341599e-12 </wgt>
<wgt id='1840'> +1.3263724e-12 </wgt>
<wgt id='1841'> +1.2940015e-12 </wgt>
<wgt id='1842'> +1.2913906e-12 </wgt>
<wgt id='1843'> +1.2290940e-12 </wgt>
<wgt id='1844'> +1.3300083e-12 </wgt>
<wgt id='1845'> +1.2749159e-12 </wgt>
<wgt id='1846'> +1.2748358e-12 </wgt>
<wgt id='1847'> +1.3084441e-12 </wgt>
<wgt id='1848'> +1.3127723e-12 </wgt>
<wgt id='1849'> +1.2843245e-12 </wgt>
<wgt id='1850'> +1.3349447e-12 </wgt>
<wgt id='1851'> +1.2744469e-12 </wgt>
<wgt id='1852'> +1.2797671e-12 </wgt>
<wgt id='1853'> +1.2757196e-12 </wgt>
<wgt id='1854'> +1.2694859e-12 </wgt>
<wgt id='1855'> +1.2834147e-12 </wgt>
<wgt id='1856'> +1.3090669e-12 </wgt>
<wgt id='1857'> +1.3202574e-12 </wgt>
<wgt id='1858'> +1.3070153e-12 </wgt>
<wgt id='1859'> +1.3150265e-12 </wgt>
<wgt id='1860'> +1.3034381e-12 </wgt>
<wgt id='1861'> +1.3396251e-12 </wgt>
<wgt id='1862'> +1.3081375e-12 </wgt>
<wgt id='1863'> +1.2836430e-12 </wgt>
<wgt id='1864'> +1.2947773e-12 </wgt>
<wgt id='1865'> +1.2672609e-12 </wgt>
<wgt id='1866'> +1.3125097e-12 </wgt>
<wgt id='1867'> +1.3167980e-12 </wgt>
<wgt id='1868'> +1.2787368e-12 </wgt>
<wgt id='1869'> +1.3299136e-12 </wgt>
<wgt id='1870'> +1.3121017e-12 </wgt>
<wgt id='1871'> +1.3088674e-12 </wgt>
<wgt id='1872'> +1.3042182e-12 </wgt>
<wgt id='1873'> +1.2809592e-12 </wgt>
<wgt id='1874'> +1.3318902e-12 </wgt>
<wgt id='1875'> +1.2928231e-12 </wgt>
<wgt id='1876'> +1.2911483e-12 </wgt>
<wgt id='1877'> +1.2744869e-12 </wgt>
<wgt id='1878'> +1.2935491e-12 </wgt>
<wgt id='1879'> +1.3425994e-12 </wgt>
<wgt id='1880'> +1.2455620e-12 </wgt>
<wgt id='1881'> +1.2915325e-12 </wgt>
<wgt id='1882'> +1.2939547e-12 </wgt>
<wgt id='1883'> +1.3057398e-12 </wgt>
<wgt id='1884'> +1.3088847e-12 </wgt>
<wgt id='1885'> +1.2802729e-12 </wgt>
<wgt id='1886'> +1.2975836e-12 </wgt>
<wgt id='1887'> +1.3028786e-12 </wgt>
<wgt id='1888'> +1.3042146e-12 </wgt>
<wgt id='1889'> +1.3002928e-12 </wgt>
<wgt id='1890'> +1.3522631e-12 </wgt>
<wgt id='1891'> +1.2970910e-12 </wgt>
<wgt id='1892'> +1.3522687e-12 </wgt>
<wgt id='1893'> +1.3131309e-12 </wgt>
<wgt id='1894'> +1.2966678e-12 </wgt>
<wgt id='1895'> +1.2735921e-12 </wgt>
<wgt id='1896'> +1.2873146e-12 </wgt>
<wgt id='1897'> +1.3304155e-12 </wgt>
<wgt id='1898'> +1.3053680e-12 </wgt>
<wgt id='1899'> +1.2681202e-12 </wgt>
<wgt id='1900'> +1.3031007e-12 </wgt>
<wgt id='1901'> +1.2857133e-12 </wgt>
<wgt id='1902'> +1.2971247e-12 </wgt>
<wgt id='1903'> +1.3110443e-12 </wgt>
<wgt id='1904'> +1.2978567e-12 </wgt>
<wgt id='1905'> +1.2801375e-12 </wgt>
<wgt id='1906'> +1.3159038e-12 </wgt>
<wgt id='1907'> +1.2858716e-12 </wgt>
<wgt id='1908'> +1.2662437e-12 </wgt>
<wgt id='1909'> +1.2686650e-12 </wgt>
<wgt id='1910'> +1.3052165e-12 </wgt>
<wgt id='1911'> +1.2668603e-12 </wgt>
<wgt id='1912'> +1.2905023e-12 </wgt>
<wgt id='1913'> +1.2784549e-12 </wgt>
<wgt id='1914'> +1.3016032e-12 </wgt>
<wgt id='1915'> +1.2768646e-12 </wgt>
<wgt id='1916'> +1.2282708e-12 </wgt>
<wgt id='1917'> +1.2852381e-12 </wgt>
<wgt id='1918'> +1.3077012e-12 </wgt>
<wgt id='1919'> +1.2807655e-12 </wgt>
</rwgt>
</event>
<event>
 9      1 +1.5538000e-12 2.87080000e+01 7.81860800e-03 1.46300100e-01
       -4 -1    0    0    0  501 -0.0000000000e+00 +0.0000000000e+00 +1.5016639690e+02 1.5017311064e+02 0.0000000000e+00 0.0000e+00 1.0000e+00
       21 -1    0    0  501  502 +0.0000000000e+00 -0.0000000000e+00 -4.8137662894e+00 4.8137662894e+00 1.4200000000e+00 0.0000e+00 1.0000e+00
     1023  2    1    2    0    0 -2.4471323796e+01 -5.3811981042e-01 +6.7106291096e+01 7.2989064096e+01 1.5000463717e+01 0.0000e+00 0.0000e+00
  1000023  2    3    3    0    0 -8.5801600667e+00 +2.3303440860e+00 +1.5595902733e+01 1.8775806685e+01 5.4999167539e+00 0.0000e+00 0.0000e+00
       -4  1    1    2    0  502 +2.4471323796e+01 +5.3811981042e-01 +7.8246339517e+01 8.1997812831e+01 1.4200000000e+00 0.0000e+00 1.0000e+00
  1000022  1    4    4    0    0 -8.4250249488e+00 +2.4555529271e+00 +1.5585818446e+01 1.8572251403e+01 5.0000000000e+00 0.0000e+00 1.0000e+00
      -11  1    4    4    0    0 -3.7040285954e-03 +2.8116887988e-03 +2.0217720694e-03 5.0964796711e-03 5.1100000000e-04 0.0000e+00 1.0000e+00
       11  1    4    4    0    0 -1.5143108933e-01 -1.2802052989e-01 +8.0625149460e-03 1.9845880217e-01 5.1100000000e-04 0.0000e+00 -1.0000e+00
  1000022  1    3    3    0    0 -1.5891163729e+01 -2.8684638964e+00 +5.1510388363e+01 5.4213257411e+01 5.0000000000e+00 0.0000e+00 1.0000e+00
<mgrwt>
<rscale>  1 0.28707998E+02</rscale>
<asrwt>0</asrwt>
<pdfrwt beam="1">  1       21 0.74057991E-03 0.28707998E+02</pdfrwt>
<pdfrwt beam="2">  1       -4 0.23119135E-01 0.28707998E+02</pdfrwt>
<totfact> 0.28750556E+06</totfact>
</mgrwt>
<rwgt>
<wgt id='1001'> +1.5538000e-12 </wgt>
<wgt id='1002'> +1.7282524e-12 </wgt>
<wgt id='1003'> +1.7372948e-12 </wgt>
<wgt id='1004'> +1.5149388e-12 </wgt>
<wgt id='1005'> +1.7476075e-12 </wgt>
<wgt id='1006'> +1.3579468e-12 </wgt>
<wgt id='1007'> +1.5315905e-12 </wgt>
<wgt id='1008'> +1.5407600e-12 </wgt>
<wgt id='1009'> +1.3200181e-12 </wgt>
<wgt id='1010'> +1.5512390e-12 </wgt>
<wgt id='1011'> +1.8189829e-12 </wgt>
<wgt id='1012'> +1.9854375e-12 </wgt>
<wgt id='1013'> +1.9938328e-12 </wgt>
<wgt id='1014'> +1.7808664e-12 </wgt>
<wgt id='1015'> +2.0033673e-12 </wgt>
<wgt id='1016'> +2.0187279e-12 </wgt>
<wgt id='1017'> +2.1251950e-12 </wgt>
<wgt id='1018'> +2.1304066e-12 </wgt>
<wgt id='1019'> +1.9938328e-12 </wgt>
<wgt id='1020'> +2.1363165e-12 </wgt>
<wgt id='1021'> +1.7642715e-12 </wgt>
<wgt id='1022'> +1.8833640e-12 </wgt>
<wgt id='1023'> +1.8894002e-12 </wgt>
<wgt id='1024'> +1.7372948e-12 </wgt>
<wgt id='1025'> +1.8962711e-12 </wgt>
<wgt id='1026'> +2.3632588e-12 </wgt>
<wgt id='1027'> +2.4414501e-12 </wgt>
<wgt id='1028'> +2.4449935e-12 </wgt>
<wgt id='1029'> +2.3438240e-12 </wgt>
<wgt id='1030'> +2.4489634e-12 </wgt>
<wgt id='1031'> +1.0749030e-12 </wgt>
<wgt id='1032'> +1.3075358e-12 </wgt>
<wgt id='1033'> +1.3200181e-12 </wgt>
<wgt id='1034'> +1.0253282e-12 </wgt>
<wgt id='1035'> +1.3343949e-12 </wgt>
<wgt id='1036'> +9.3941374e-13 </wgt>
<wgt id='1037'> +1.1587482e-12 </wgt>
<wgt id='1038'> +1.1706885e-12 </wgt>
<wgt id='1039'> +8.9340356e-13 </wgt>
<wgt id='1040'> +1.1844567e-12 </wgt>
<wgt id='1041'> +1.2583538e-12 </wgt>
<wgt id='1042'> +1.5021132e-12 </wgt>
<wgt id='1043'> +1.5149388e-12 </wgt>
<wgt id='1044'> +1.2053111e-12 </wgt>
<wgt id='1045'> +1.5296816e-12 </wgt>
<wgt id='1046'> +1.5538000e-12 </wgt>
<wgt id='1047'> +1.2918245e-12 </wgt>
<wgt id='1048'> +1.5944421e-12 </wgt>
<wgt id='1049'> +1.5676724e-12 </wgt>
<wgt id='1050'> +1.5774029e-12 </wgt>
<wgt id='1051'> +1.5349790e-12 </wgt>
<wgt id='1052'> +1.4226918e-12 </wgt>
<wgt id='1053'> +1.5835422e-12 </wgt>
<wgt id='1054'> +1.6363729e-12 </wgt>
<wgt id='1055'> +1.6716257e-12 </wgt>
<wgt id='1056'> +1.5872425e-12 </wgt>
<wgt id='1057'> +1.5720022e-12 </wgt>
<wgt id='1058'> +1.5650729e-12 </wgt>
<wgt id='1059'> +1.5943025e-12 </wgt>
<wgt id='1060'> +1.5733483e-12 </wgt>
<wgt id='1061'> +1.6006045e-12 </wgt>
<wgt id='1062'> +1.5668314e-12 </wgt>
<wgt id='1063'> +1.5439756e-12 </wgt>
<wgt id='1064'> +1.5805889e-12 </wgt>
<wgt id='1065'> +1.5257167e-12 </wgt>
<wgt id='1066'> +1.6502280e-12 </wgt>
<wgt id='1067'> +1.5655300e-12 </wgt>
<wgt id='1068'> +1.4909572e-12 </wgt>
<wgt id='1069'> +1.5221138e-12 </wgt>
<wgt id='1070'> +1.5337690e-12 </wgt>
<wgt id='1071'> +1.5969516e-12 </wgt>
<wgt id='1072'> +1.4956807e-12 </wgt>
<wgt id='1073'> +1.5383153e-12 </wgt>
<wgt id='1074'> +1.5463100e-12 </wgt>
<wgt id='1075'> +1.5167622e-12 </wgt>
<wgt id='1076'> +1.6319962e-12 </wgt>
<wgt id='1077'> +1.4832581e-12 </wgt>
<wgt id='1078'> +1.6654698e-12 </wgt>
<wgt id='1079'> +1.5048773e-12 </wgt>
<wgt id='1080'> +1.5696934e-12 </wgt>
<wgt id='1081'> +1.4946771e-12 </wgt>
<wgt id='1082'> +1.5074546e-12 </wgt>
<wgt id='1083'> +1.5385328e-12 </wgt>
<wgt id='1084'> +1.5620684e-12 </wgt>
<wgt id='1085'> +1.5555668e-12 </wgt>
<wgt id='1086'> +1.5396002e-12 </wgt>
<wgt id='1087'> +1.5413409e-12 </wgt>
<wgt id='1088'> +1.5458950e-12 </wgt>
<wgt id='1089'> +1.4828093e-12 </wgt>
<wgt id='1090'> +1.4416604e-12 </wgt>
<wgt id='1091'> +1.5007226e-12 </wgt>
<wgt id='1092'> +1.4357993e-12 </wgt>
<wgt id='1093'> +1.5528914e-12 </wgt>
<wgt id='1094'> +1.6119065e-12 </wgt>
<wgt id='1095'> +1.5630512e-12 </wgt>
<wgt id='1096'> +1.4988009e-12 </wgt>
<wgt id='1097'> +1.5175170e-12 </wgt>
<wgt id='1098'> +1.6298331e-12 </wgt>
<wgt id='1099'> +1.5961304e-12 </wgt>
<wgt id='1100'> +1.4411982e-12 </wgt>
<wgt id='1101'> +1.4606941e-12 </wgt>
<wgt id='1102'> +1.5195924e-12 </wgt>
<wgt id='1103'> +1.4674715e-12 </wgt>
<wgt id='1104'> +1.5719561e-12 </wgt>
<wgt id='1105'> +1.6303363e-12 </wgt>
<wgt id='1106'> +1.4714934e-12 </wgt>
<wgt id='1107'> +1.5717513e-12 </wgt>
<wgt id='1108'> +1.6006974e-12 </wgt>
<wgt id='1109'> +1.4487229e-12 </wgt>
<wgt id='1110'> +1.6173118e-12 </wgt>
<wgt id='1111'> +1.5358776e-12 </wgt>
<wgt id='1112'> +1.5341529e-12 </wgt>
<wgt id='1113'> +1.4448974e-12 </wgt>
<wgt id='1114'> +1.5947406e-12 </wgt>
<wgt id='1115'> +1.5720495e-12 </wgt>
<wgt id='1116'> +1.5920446e-12 </wgt>
<wgt id='1117'> +1.6282078e-12 </wgt>
<wgt id='1118'> +1.4669030e-12 </wgt>
<wgt id='1119'> +1.7388614e-12 </wgt>
<wgt id='1120'> +1.7176289e-12 </wgt>
<wgt id='1121'> +1.5986985e-12 </wgt>
<wgt id='1122'> +1.3964288e-12 </wgt>
<wgt id='1123'> +1.7088401e-12 </wgt>
<wgt id='1124'> +1.5927074e-12 </wgt>
<wgt id='1125'> +1.5664938e-12 </wgt>
<wgt id='1126'> +1.5639040e-12 </wgt>
<wgt id='1127'> +1.5508509e-12 </wgt>
<wgt id='1128'> +1.5668314e-12 </wgt>
<wgt id='1129'> +1.5162575e-12 </wgt>
<wgt id='1130'> +1.5959540e-12 </wgt>
<wgt id='1131'> +1.6398546e-12 </wgt>
<wgt id='1132'> +1.4459055e-12 </wgt>
<wgt id='1133'> +1.5819076e-12 </wgt>
<wgt id='1134'> +1.5489269e-12 </wgt>
<wgt id='1135'> +1.7192659e-12 </wgt>
<wgt id='1136'> +1.5320707e-12 </wgt>
<wgt id='1137'> +1.4847635e-12 </wgt>
<wgt id='1138'> +1.6491622e-12 </wgt>
<wgt id='1139'> +1.5936249e-12 </wgt>
<wgt id='1140'> +1.5463250e-12 </wgt>
<wgt id='1141'> +1.5396527e-12 </wgt>
<wgt id='1142'> +1.5521394e-12 </wgt>
<wgt id='1143'> +1.4320321e-12 </wgt>
<wgt id='1144'> +1.6097555e-12 </wgt>
<wgt id='1145'> +1.6325538e-12 </wgt>
<wgt id='1146'> +1.5690173e-12 </wgt>
<wgt id='1147'> +1.3295028e-12 </wgt>
<wgt id='1148'> +1.3730593e-12 </wgt>
<wgt id='1149'> +1.3778047e-12 </wgt>
<wgt id='1150'> +1.3533852e-12 </wgt>
<wgt id='1151'> +1.1969828e-12 </wgt>
<wgt id='1152'> +1.9143340e-12 </wgt>
<wgt id='1153'> +1.9046427e-12 </wgt>
<wgt id='1154'> +1.9199834e-12 </wgt>
<wgt id='1155'> +1.9154378e-12 </wgt>
<wgt id='1156'> +1.9137925e-12 </wgt>
<wgt id='1157'> +1.9093292e-12 </wgt>
<wgt id='1158'> +1.9210402e-12 </wgt>
<wgt id='1159'> +1.9101577e-12 </wgt>
<wgt id='1160'> +1.9170264e-12 </wgt>
<wgt id='1161'> +1.9023882e-12 </wgt>
<wgt id='1162'> +1.9225187e-12 </wgt>
<wgt id='1163'> +1.9208036e-12 </wgt>
<wgt id='1164'> +1.9078401e-12 </wgt>
<wgt id='1165'> +1.8927514e-12 </wgt>
<wgt id='1166'> +1.9352799e-12 </wgt>
<wgt id='1167'> +1.9320018e-12 </wgt>
<wgt id='1168'> +1.8899470e-12 </wgt>
<wgt id='1169'> +1.9205341e-12 </wgt>
<wgt id='1170'> +1.9096390e-12 </wgt>
<wgt id='1171'> +1.9110247e-12 </wgt>
<wgt id='1172'> +1.9182765e-12 </wgt>
<wgt id='1173'> +1.9014482e-12 </wgt>
<wgt id='1174'> +1.9265081e-12 </wgt>
<wgt id='1175'> +1.9155882e-12 </wgt>
<wgt id='1176'> +1.9118675e-12 </wgt>
<wgt id='1177'> +1.9150390e-12 </wgt>
<wgt id='1178'> +1.9131023e-12 </wgt>
<wgt id='1179'> +1.9362739e-12 </wgt>
<wgt id='1180'> +1.8859271e-12 </wgt>
<wgt id='1181'> +1.9049758e-12 </wgt>
<wgt id='1182'> +1.9235432e-12 </wgt>
<wgt id='1183'> +1.9135663e-12 </wgt>
<wgt id='1184'> +1.9144988e-12 </wgt>
<wgt id='1185'> +1.9167331e-12 </wgt>
<wgt id='1186'> +1.9132042e-12 </wgt>
<wgt id='1187'> +1.9135148e-12 </wgt>
<wgt id='1188'> +1.9145953e-12 </wgt>
<wgt id='1189'> +1.9110097e-12 </wgt>
<wgt id='1190'> +1.8916005e-12 </wgt>
<wgt id='1191'> +1.8935169e-12 </wgt>
<wgt id='1192'> +1.9283168e-12 </wgt>
<wgt id='1193'> +1.3855156e-12 </wgt>
<wgt id='1194'> +1.3794423e-12 </wgt>
<wgt id='1195'> +1.3904894e-12 </wgt>
<wgt id='1196'> +1.3873530e-12 </wgt>
<wgt id='1197'> +1.3835043e-12 </wgt>
<wgt id='1198'> +1.3886521e-12 </wgt>
<wgt id='1199'> +1.3808908e-12 </wgt>
<wgt id='1200'> +1.3872154e-12 </wgt>
<wgt id='1201'> +1.3844458e-12 </wgt>
<wgt id='1202'> +1.3810846e-12 </wgt>
<wgt id='1203'> +1.3918430e-12 </wgt>
<wgt id='1204'> +1.3597998e-12 </wgt>
<wgt id='1205'> +1.4014600e-12 </wgt>
<wgt id='1206'> +1.3924323e-12 </wgt>
<wgt id='1207'> +1.3761509e-12 </wgt>
<wgt id='1208'> +1.3767001e-12 </wgt>
<wgt id='1209'> +1.3888030e-12 </wgt>
<wgt id='1210'> +1.3855326e-12 </wgt>
<wgt id='1211'> +1.3766241e-12 </wgt>
<wgt id='1212'> +1.3830574e-12 </wgt>
<wgt id='1213'> +1.3879569e-12 </wgt>
<wgt id='1214'> +1.3769794e-12 </wgt>
<wgt id='1215'> +1.3960350e-12 </wgt>
<wgt id='1216'> +1.3913683e-12 </wgt>
<wgt id='1217'> +1.3811754e-12 </wgt>
<wgt id='1218'> +1.3930308e-12 </wgt>
<wgt id='1219'> +1.3815956e-12 </wgt>
<wgt id='1220'> +1.3913525e-12 </wgt>
<wgt id='1221'> +1.3854282e-12 </wgt>
<wgt id='1222'> +1.3879659e-12 </wgt>
<wgt id='1223'> +1.3859558e-12 </wgt>
<wgt id='1224'> +1.3865715e-12 </wgt>
<wgt id='1225'> +1.3851228e-12 </wgt>
<wgt id='1226'> +1.3860199e-12 </wgt>
<wgt id='1227'> +1.3853985e-12 </wgt>
<wgt id='1228'> +1.3815418e-12 </wgt>
<wgt id='1229'> +1.3872021e-12 </wgt>
<wgt id='1230'> +1.3971794e-12 </wgt>
<wgt id='1231'> +1.3665610e-12 </wgt>
<wgt id='1232'> +1.3830942e-12 </wgt>
<wgt id='1233'> +1.3862283e-12 </wgt>
<wgt id='1234'> +1.3855156e-12 </wgt>
<wgt id='1235'> +1.3729361e-12 </wgt>
<wgt id='1236'> +1.3777700e-12 </wgt>
<wgt id='1237'> +1.3819929e-12 </wgt>
<wgt id='1238'> +1.3895997e-12 </wgt>
<wgt id='1239'> +1.3925814e-12 </wgt>
<wgt id='1240'> +1.3954634e-12 </wgt>
<wgt id='1241'> +1.3281407e-12 </wgt>
<wgt id='1242'> +1.3184226e-12 </wgt>
<wgt id='1243'> +1.3377587e-12 </wgt>
<wgt id='1244'> +1.3221286e-12 </wgt>
<wgt id='1245'> +1.3325926e-12 </wgt>
<wgt id='1246'> +1.3297642e-12 </wgt>
<wgt id='1247'> +1.3268412e-12 </wgt>
<wgt id='1248'> +1.3280323e-12 </wgt>
<wgt id='1249'> +1.3283451e-12 </wgt>
<wgt id='1250'> +1.3234583e-12 </wgt>
<wgt id='1251'> +1.3314840e-12 </wgt>
<wgt id='1252'> +1.3246811e-12 </wgt>
<wgt id='1253'> +1.3308546e-12 </wgt>
<wgt id='1254'> +1.3046232e-12 </wgt>
<wgt id='1255'> +1.3423977e-12 </wgt>
<wgt id='1256'> +1.3342878e-12 </wgt>
<wgt id='1257'> +1.3127546e-12 </wgt>
<wgt id='1258'> +1.3399750e-12 </wgt>
<wgt id='1259'> +1.3157665e-12 </wgt>
<wgt id='1260'> +1.3327960e-12 </wgt>
<wgt id='1261'> +1.3230808e-12 </wgt>
<wgt id='1262'> +1.3308966e-12 </wgt>
<wgt id='1263'> +1.3268342e-12 </wgt>
<wgt id='1264'> +1.3403199e-12 </wgt>
<wgt id='1265'> +1.3224409e-12 </wgt>
<wgt id='1266'> +1.3227564e-12 </wgt>
<wgt id='1267'> +1.3348916e-12 </wgt>
<wgt id='1268'> +1.3294447e-12 </wgt>
<wgt id='1269'> +1.3318973e-12 </wgt>
<wgt id='1270'> +1.3236641e-12 </wgt>
<wgt id='1271'> +1.3258536e-12 </wgt>
<wgt id='1272'> +1.3290535e-12 </wgt>
<wgt id='1273'> +1.3277781e-12 </wgt>
<wgt id='1274'> +1.3284379e-12 </wgt>
<wgt id='1275'> +1.3269423e-12 </wgt>
<wgt id='1276'> +1.3286567e-12 </wgt>
<wgt id='1277'> +1.3267072e-12 </wgt>
<wgt id='1278'> +1.3265095e-12 </wgt>
<wgt id='1279'> +1.3277523e-12 </wgt>
<wgt id='1280'> +1.3291118e-12 </wgt>
<wgt id='1281'> +1.3248531e-12 </wgt>
<wgt id='1282'> +1.3281407e-12 </wgt>
<wgt id='1283'> +1.3150370e-12 </wgt>
<wgt id='1284'> +1.3201481e-12 </wgt>
<wgt id='1285'> +1.3245270e-12 </wgt>
<wgt id='1286'> +1.3319512e-12 </wgt>
<wgt id='1287'> +1.3348327e-12 </wgt>
<wgt id='1288'> +1.3373791e-12 </wgt>
<wgt id='1289'> +1.4237714e-12 </wgt>
<wgt id='1290'> +1.4274301e-12 </wgt>
<wgt id='1291'> +1.4199532e-12 </wgt>
<wgt id='1292'> +1.4248380e-12 </wgt>
<wgt id='1293'> +1.4231201e-12 </wgt>
<wgt id='1294'> +1.4206604e-12 </wgt>
<wgt id='1295'> +1.4268079e-12 </wgt>
<wgt id='1296'> +1.4197823e-12 </wgt>
<wgt id='1297'> +1.4287196e-12 </wgt>
<wgt id='1298'> +1.4358117e-12 </wgt>
<wgt id='1299'> +1.4089164e-12 </wgt>
<wgt id='1300'> +1.4290952e-12 </wgt>
<wgt id='1301'> +1.4132868e-12 </wgt>
<wgt id='1302'> +1.4219380e-12 </wgt>
<wgt id='1303'> +1.4264593e-12 </wgt>
<wgt id='1304'> +1.4185039e-12 </wgt>
<wgt id='1305'> +1.4274067e-12 </wgt>
<wgt id='1306'> +1.4124045e-12 </wgt>
<wgt id='1307'> +1.4367155e-12 </wgt>
<wgt id='1308'> +1.4207544e-12 </wgt>
<wgt id='1309'> +1.4261439e-12 </wgt>
<wgt id='1310'> +1.4199777e-12 </wgt>
<wgt id='1311'> +1.4280102e-12 </wgt>
<wgt id='1312'> +1.4143849e-12 </wgt>
<wgt id='1313'> +1.4337013e-12 </wgt>
<wgt id='1314'> +1.4274816e-12 </wgt>
<wgt id='1315'> +1.4122547e-12 </wgt>
<wgt id='1316'> +1.4311561e-12 </wgt>
<wgt id='1317'> +1.4251357e-12 </wgt>
<wgt id='1318'> +1.4346893e-12 </wgt>
<wgt id='1319'> +1.4104748e-12 </wgt>
<wgt id='1320'> +1.4282403e-12 </wgt>
<wgt id='1321'> +1.4184704e-12 </wgt>
<wgt id='1322'> +1.4256789e-12 </wgt>
<wgt id='1323'> +1.4211415e-12 </wgt>
<wgt id='1324'> +1.4234844e-12 </wgt>
<wgt id='1325'> +1.4300850e-12 </wgt>
<wgt id='1326'> +1.4273414e-12 </wgt>
<wgt id='1327'> +1.4238122e-12 </wgt>
<wgt id='1328'> +1.4216907e-12 </wgt>
<wgt id='1329'> +1.4256332e-12 </wgt>
<wgt id='1330'> +1.4229861e-12 </wgt>
<wgt id='1331'> +1.4255296e-12 </wgt>
<wgt id='1332'> +1.4538201e-12 </wgt>
<wgt id='1333'> +1.4158225e-12 </wgt>
<wgt id='1334'> +1.4223219e-12 </wgt>
<wgt id='1335'> +1.4283077e-12 </wgt>
<wgt id='1336'> +1.4276620e-12 </wgt>
<wgt id='1337'> +1.4133788e-12 </wgt>
<wgt id='1338'> +1.4251907e-12 </wgt>
<wgt id='1339'> +1.4230289e-12 </wgt>
<wgt id='1340'> +1.3784543e-12 </wgt>
<wgt id='1341'> +1.3819908e-12 </wgt>
<wgt id='1342'> +1.3745403e-12 </wgt>
<wgt id='1343'> +1.3794619e-12 </wgt>
<wgt id='1344'> +1.3777061e-12 </wgt>
<wgt id='1345'> +1.3748644e-12 </wgt>
<wgt id='1346'> +1.3816184e-12 </wgt>
<wgt id='1347'> +1.3745640e-12 </wgt>
<wgt id='1348'> +1.3826206e-12 </wgt>
<wgt id='1349'> +1.3895121e-12 </wgt>
<wgt id='1350'> +1.3675863e-12 </wgt>
<wgt id='1351'> +1.3836666e-12 </wgt>
<wgt id='1352'> +1.3669679e-12 </wgt>
<wgt id='1353'> +1.3754834e-12 </wgt>
<wgt id='1354'> +1.3835601e-12 </wgt>
<wgt id='1355'> +1.3732256e-12 </wgt>
<wgt id='1356'> +1.3813355e-12 </wgt>
<wgt id='1357'> +1.3658498e-12 </wgt>
<wgt id='1358'> +1.3932472e-12 </wgt>
<wgt id='1359'> +1.3782888e-12 </wgt>
<wgt id='1360'> +1.3785117e-12 </wgt>
<wgt id='1361'> +1.3747344e-12 </wgt>
<wgt id='1362'> +1.3834289e-12 </wgt>
<wgt id='1363'> +1.3660952e-12 </wgt>
<wgt id='1364'> +1.3873942e-12 </wgt>
<wgt id='1365'> +1.3706685e-12 </wgt>
<wgt id='1366'> +1.3778914e-12 </wgt>
<wgt id='1367'> +1.3850837e-12 </wgt>
<wgt id='1368'> +1.3789464e-12 </wgt>
<wgt id='1369'> +1.3874886e-12 </wgt>
<wgt id='1370'> +1.3674265e-12 </wgt>
<wgt id='1371'> +1.3829806e-12 </wgt>
<wgt id='1372'> +1.3718089e-12 </wgt>
<wgt id='1373'> +1.3801860e-12 </wgt>
<wgt id='1374'> +1.3761503e-12 </wgt>
<wgt id='1375'> +1.3779160e-12 </wgt>
<wgt id='1376'> +1.3849099e-12 </wgt>
<wgt id='1377'> +1.3818358e-12 </wgt>
<wgt id='1378'> +1.3789634e-12 </wgt>
<wgt id='1379'> +1.3763558e-12 </wgt>
<wgt id='1380'> +1.3805638e-12 </wgt>
<wgt id='1381'> +1.3789650e-12 </wgt>
<wgt id='1382'> +1.3784209e-12 </wgt>
<wgt id='1383'> +1.4059732e-12 </wgt>
<wgt id='1384'> +1.3710954e-12 </wgt>
<wgt id='1385'> +1.3772088e-12 </wgt>
<wgt id='1386'> +1.3817248e-12 </wgt>
<wgt id='1387'> +1.3826592e-12 </wgt>
<wgt id='1388'> +1.3670047e-12 </wgt>
<wgt id='1389'> +1.3803847e-12 </wgt>
<wgt id='1390'> +1.3769937e-12 </wgt>
<wgt id='1391'> +1.3758340e-12 </wgt>
<wgt id='1392'> +1.3117487e-12 </wgt>
<wgt id='1393'> +1.3331637e-12 </wgt>
<wgt id='1394'> +1.3550965e-12 </wgt>
<wgt id='1395'> +1.3972102e-12 </wgt>
<wgt id='1396'> +1.3759050e-12 </wgt>
<wgt id='1397'> +1.4731730e-12 </wgt>
<wgt id='1398'> +1.4505145e-12 </wgt>
<wgt id='1399'> +1.4297956e-12 </wgt>
<wgt id='1400'> +1.4108657e-12 </wgt>
<wgt id='1401'> +1.3929047e-12 </wgt>
<wgt id='1402'> +1.3604380e-12 </wgt>
<wgt id='1403'> +1.3457205e-12 </wgt>
<wgt id='1404'> +1.3318721e-12 </wgt>
<wgt id='1405'> +1.3759050e-12 </wgt>
<wgt id='1406'> +1.3666622e-12 </wgt>
<wgt id='1407'> +1.3714034e-12 </wgt>
<wgt id='1408'> +1.3801884e-12 </wgt>
<wgt id='1409'> +1.3838805e-12 </wgt>
<wgt id='1410'> +1.3074112e-12 </wgt>
<wgt id='1411'> +1.3112736e-12 </wgt>
<wgt id='1412'> +1.3024809e-12 </wgt>
<wgt id='1413'> +1.3093375e-12 </wgt>
<wgt id='1414'> +1.3054826e-12 </wgt>
<wgt id='1415'> +1.3088823e-12 </wgt>
<wgt id='1416'> +1.3068567e-12 </wgt>
<wgt id='1417'> +1.2995223e-12 </wgt>
<wgt id='1418'> +1.3152952e-12 </wgt>
<wgt id='1419'> +1.3124962e-12 </wgt>
<wgt id='1420'> +1.3025342e-12 </wgt>
<wgt id='1421'> +1.2830758e-12 </wgt>
<wgt id='1422'> +1.3180044e-12 </wgt>
<wgt id='1423'> +1.3071492e-12 </wgt>
<wgt id='1424'> +1.3077495e-12 </wgt>
<wgt id='1425'> +1.2999603e-12 </wgt>
<wgt id='1426'> +1.3154675e-12 </wgt>
<wgt id='1427'> +1.2897381e-12 </wgt>
<wgt id='1428'> +1.3169481e-12 </wgt>
<wgt id='1429'> +1.3049245e-12 </wgt>
<wgt id='1430'> +1.3109481e-12 </wgt>
<wgt id='1431'> +1.3079252e-12 </wgt>
<wgt id='1432'> +1.3069630e-12 </wgt>
<wgt id='1433'> +1.3158271e-12 </wgt>
<wgt id='1434'> +1.2971407e-12 </wgt>
<wgt id='1435'> +1.3125866e-12 </wgt>
<wgt id='1436'> +1.2950750e-12 </wgt>
<wgt id='1437'> +1.3164744e-12 </wgt>
<wgt id='1438'> +1.3067640e-12 </wgt>
<wgt id='1439'> +1.3002529e-12 </wgt>
<wgt id='1440'> +1.3225588e-12 </wgt>
<wgt id='1441'> +1.3090135e-12 </wgt>
<wgt id='1442'> +1.3048275e-12 </wgt>
<wgt id='1443'> +1.3054251e-12 </wgt>
<wgt id='1444'> +1.3135668e-12 </wgt>
<wgt id='1445'> +1.3140465e-12 </wgt>
<wgt id='1446'> +1.3064045e-12 </wgt>
<wgt id='1447'> +1.3083489e-12 </wgt>
<wgt id='1448'> +1.3098129e-12 </wgt>
<wgt id='1449'> +1.3055073e-12 </wgt>
<wgt id='1450'> +1.3085349e-12 </wgt>
<wgt id='1451'> +1.3036504e-12 </wgt>
<wgt id='1452'> +1.3135047e-12 </wgt>
<wgt id='1453'> +1.3084612e-12 </wgt>
<wgt id='1454'> +1.3012354e-12 </wgt>
<wgt id='1455'> +1.3001027e-12 </wgt>
<wgt id='1456'> +1.3150034e-12 </wgt>
<wgt id='1457'> +1.3108682e-12 </wgt>
<wgt id='1458'> +1.3063987e-12 </wgt>
<wgt id='1459'> +1.3093222e-12 </wgt>
<wgt id='1460'> +1.3101395e-12 </wgt>
<wgt id='1461'> +1.3074112e-12 </wgt>
<wgt id='1462'> +1.2941496e-12 </wgt>
<wgt id='1463'> +1.3185489e-12 </wgt>
<wgt id='1464'> +1.3068149e-12 </wgt>
<wgt id='1465'> +1.3962550e-12 </wgt>
<wgt id='1466'> +1.3752410e-12 </wgt>
<wgt id='1467'> +1.3559967e-12 </wgt>
<wgt id='1468'> +1.3402648e-12 </wgt>
<wgt id='1469'> +1.3224003e-12 </wgt>
<wgt id='1470'> +1.2928222e-12 </wgt>
<wgt id='1471'> +1.2778406e-12 </wgt>
<wgt id='1472'> +1.2645895e-12 </wgt>
<wgt id='1473'> +1.3068149e-12 </wgt>
<wgt id='1474'> +1.2979618e-12 </wgt>
<wgt id='1475'> +1.3030601e-12 </wgt>
<wgt id='1476'> +1.3105078e-12 </wgt>
<wgt id='1477'> +1.3137269e-12 </wgt>
<wgt id='1478'> +1.3470108e-12 </wgt>
<wgt id='1479'> +1.3492720e-12 </wgt>
<wgt id='1480'> +1.3492415e-12 </wgt>
<wgt id='1481'> +1.3431407e-12 </wgt>
<wgt id='1482'> +1.3567533e-12 </wgt>
<wgt id='1483'> +1.3331124e-12 </wgt>
<wgt id='1484'> +1.3458753e-12 </wgt>
<wgt id='1485'> +1.3752527e-12 </wgt>
<wgt id='1486'> +1.3463764e-12 </wgt>
<wgt id='1487'> +1.3562233e-12 </wgt>
<wgt id='1488'> +1.3406726e-12 </wgt>
<wgt id='1489'> +1.3678912e-12 </wgt>
<wgt id='1490'> +1.3499818e-12 </wgt>
<wgt id='1491'> +1.3538590e-12 </wgt>
<wgt id='1492'> +1.3413138e-12 </wgt>
<wgt id='1493'> +1.3379534e-12 </wgt>
<wgt id='1494'> +1.3476744e-12 </wgt>
<wgt id='1495'> +1.3616491e-12 </wgt>
<wgt id='1496'> +1.3448338e-12 </wgt>
<wgt id='1497'> +1.3536203e-12 </wgt>
<wgt id='1498'> +1.3445406e-12 </wgt>
<wgt id='1499'> +1.3517322e-12 </wgt>
<wgt id='1500'> +1.3463181e-12 </wgt>
<wgt id='1501'> +1.3450669e-12 </wgt>
<wgt id='1502'> +1.3474261e-12 </wgt>
<wgt id='1503'> +1.3519449e-12 </wgt>
<wgt id='1504'> +1.3480922e-12 </wgt>
<wgt id='1505'> +1.3476307e-12 </wgt>
<wgt id='1506'> +1.3507141e-12 </wgt>
<wgt id='1507'> +1.3467364e-12 </wgt>
<wgt id='1508'> +1.3588392e-12 </wgt>
<wgt id='1509'> +1.2018948e-12 </wgt>
<wgt id='1510'> +1.1988364e-12 </wgt>
<wgt id='1511'> +1.1957136e-12 </wgt>
<wgt id='1512'> +1.1971936e-12 </wgt>
<wgt id='1513'> +1.2004151e-12 </wgt>
<wgt id='1514'> +1.2015300e-12 </wgt>
<wgt id='1515'> +1.2038489e-12 </wgt>
<wgt id='1516'> +1.2085723e-12 </wgt>
<wgt id='1517'> +1.2055434e-12 </wgt>
<wgt id='1518'> +1.1922209e-12 </wgt>
<wgt id='1519'> +1.2065675e-12 </wgt>
<wgt id='1520'> +1.2104412e-12 </wgt>
<wgt id='1521'> +1.2045211e-12 </wgt>
<wgt id='1522'> +1.2142672e-12 </wgt>
<wgt id='1523'> +1.1959883e-12 </wgt>
<wgt id='1524'> +1.1980253e-12 </wgt>
<wgt id='1525'> +1.1867914e-12 </wgt>
<wgt id='1526'> +1.2086310e-12 </wgt>
<wgt id='1527'> +1.2154503e-12 </wgt>
<wgt id='1528'> +1.2014993e-12 </wgt>
<wgt id='1529'> +1.2118137e-12 </wgt>
<wgt id='1530'> +1.1857189e-12 </wgt>
<wgt id='1531'> +1.2008290e-12 </wgt>
<wgt id='1532'> +1.2171924e-12 </wgt>
<wgt id='1533'> +1.1987407e-12 </wgt>
<wgt id='1534'> +1.1963517e-12 </wgt>
<wgt id='1535'> +1.2187872e-12 </wgt>
<wgt id='1536'> +1.2013870e-12 </wgt>
<wgt id='1537'> +1.2030978e-12 </wgt>
<wgt id='1538'> +1.2044499e-12 </wgt>
<wgt id='1539'> +1.1956830e-12 </wgt>
<wgt id='1540'> +1.1936595e-12 </wgt>
<wgt id='1541'> +1.1987939e-12 </wgt>
<wgt id='1542'> +1.1995750e-12 </wgt>
<wgt id='1543'> +1.2027313e-12 </wgt>
<wgt id='1544'> +1.1966373e-12 </wgt>
<wgt id='1545'> +1.2007068e-12 </wgt>
<wgt id='1546'> +1.2079259e-12 </wgt>
<wgt id='1547'> +1.1974526e-12 </wgt>
<wgt id='1548'> +1.2072746e-12 </wgt>
<wgt id='1549'> +1.2013366e-12 </wgt>
<wgt id='1550'> +1.2007495e-12 </wgt>
<wgt id='1551'> +1.2020135e-12 </wgt>
<wgt id='1552'> +1.2007493e-12 </wgt>
<wgt id='1553'> +1.1987608e-12 </wgt>
<wgt id='1554'> +1.1946767e-12 </wgt>
<wgt id='1555'> +1.1986960e-12 </wgt>
<wgt id='1556'> +1.2077057e-12 </wgt>
<wgt id='1557'> +1.1939515e-12 </wgt>
<wgt id='1558'> +1.2074696e-12 </wgt>
<wgt id='1559'> +1.1971915e-12 </wgt>
<wgt id='1560'> +1.1954393e-12 </wgt>
<wgt id='1561'> +1.2064730e-12 </wgt>
<wgt id='1562'> +1.2006609e-12 </wgt>
<wgt id='1563'> +1.2006051e-12 </wgt>
<wgt id='1564'> +1.2012662e-12 </wgt>
<wgt id='1565'> +1.2051736e-12 </wgt>
<wgt id='1566'> +1.1961531e-12 </wgt>
<wgt id='1567'> +1.1926562e-12 </wgt>
<wgt id='1568'> +1.2040879e-12 </wgt>
<wgt id='1569'> +1.2002162e-12 </wgt>
<wgt id='1570'> +1.2071213e-12 </wgt>
<wgt id='1571'> +1.2006337e-12 </wgt>
<wgt id='1572'> +1.2067482e-12 </wgt>
<wgt id='1573'> +1.2065692e-12 </wgt>
<wgt id='1574'> +1.1977358e-12 </wgt>
<wgt id='1575'> +1.2025784e-12 </wgt>
<wgt id='1576'> +1.2052564e-12 </wgt>
<wgt id='1577'> +1.1986678e-12 </wgt>
<wgt id='1578'> +1.1980422e-12 </wgt>
<wgt id='1579'> +1.2050040e-12 </wgt>
<wgt id='1580'> +1.2110316e-12 </wgt>
<wgt id='1581'> +1.1977344e-12 </wgt>
<wgt id='1582'> +1.1969950e-12 </wgt>
<wgt id='1583'> +1.2042397e-12 </wgt>
<wgt id='1584'> +1.2018831e-12 </wgt>
<wgt id='1585'> +1.2016653e-12 </wgt>
<wgt id='1586'> +1.2079805e-12 </wgt>
<wgt id='1587'> +1.1994083e-12 </wgt>
<wgt id='1588'> +1.1999784e-12 </wgt>
<wgt id='1589'> +1.2020137e-12 </wgt>
<wgt id='1590'> +1.1999677e-12 </wgt>
<wgt id='1591'> +1.2011401e-12 </wgt>
<wgt id='1592'> +1.2014999e-12 </wgt>
<wgt id='1593'> +1.2053181e-12 </wgt>
<wgt id='1594'> +1.2034761e-12 </wgt>
<wgt id='1595'> +1.1994045e-12 </wgt>
<wgt id='1596'> +1.2019034e-12 </wgt>
<wgt id='1597'> +1.2013518e-12 </wgt>
<wgt id='1598'> +1.2045884e-12 </wgt>
<wgt id='1599'> +1.2045808e-12 </wgt>
<wgt id='1600'> +1.1986594e-12 </wgt>
<wgt id='1601'> +1.2033830e-12 </wgt>
<wgt id='1602'> +1.2004372e-12 </wgt>
<wgt id='1603'> +1.2040522e-12 </wgt>
<wgt id='1604'> +1.2030592e-12 </wgt>
<wgt id='1605'> +1.2025316e-12 </wgt>
<wgt id='1606'> +1.1988597e-12 </wgt>
<wgt id='1607'> +1.2017179e-12 </wgt>
<wgt id='1608'> +1.2019641e-12 </wgt>
<wgt id='1609'> +1.2029587e-12 </wgt>
<wgt id='1610'> +1.1574047e-12 </wgt>
<wgt id='1611'> +1.2454775e-12 </wgt>
<wgt id='1612'> +1.4298867e-12 </wgt>
<wgt id='1613'> +1.4705159e-12 </wgt>
<wgt id='1614'> +1.4151516e-12 </wgt>
<wgt id='1615'> +1.4540170e-12 </wgt>
<wgt id='1616'> +1.4166514e-12 </wgt>
<wgt id='1617'> +1.2930869e-12 </wgt>
<wgt id='1618'> +1.2085867e-12 </wgt>
<wgt id='1619'> +1.4129188e-12 </wgt>
<wgt id='1620'> +1.4727287e-12 </wgt>
<wgt id='1621'> +1.4324178e-12 </wgt>
<wgt id='1622'> +1.4574556e-12 </wgt>
<wgt id='1623'> +1.4867034e-12 </wgt>
<wgt id='1624'> +1.4309752e-12 </wgt>
<wgt id='1625'> +1.4388554e-12 </wgt>
<wgt id='1626'> +1.5609029e-12 </wgt>
<wgt id='1627'> +1.4728554e-12 </wgt>
<wgt id='1628'> +1.5043767e-12 </wgt>
<wgt id='1629'> +1.4835348e-12 </wgt>
<wgt id='1630'> +1.4450463e-12 </wgt>
<wgt id='1631'> +1.4630079e-12 </wgt>
<wgt id='1632'> +1.4658024e-12 </wgt>
<wgt id='1633'> +1.4687556e-12 </wgt>
<wgt id='1634'> +1.4389608e-12 </wgt>
<wgt id='1635'> +1.4048700e-12 </wgt>
<wgt id='1636'> +1.3879075e-12 </wgt>
<wgt id='1637'> +1.3923210e-12 </wgt>
<wgt id='1638'> +1.4507994e-12 </wgt>
<wgt id='1639'> +1.4940686e-12 </wgt>
<wgt id='1640'> +1.5322443e-12 </wgt>
<wgt id='1641'> +1.4533454e-12 </wgt>
<wgt id='1642'> +1.4686374e-12 </wgt>
<wgt id='1643'> +1.5137798e-12 </wgt>
<wgt id='1644'> +1.4540556e-12 </wgt>
<wgt id='1645'> +1.4402116e-12 </wgt>
<wgt id='1646'> +1.5060103e-12 </wgt>
<wgt id='1647'> +1.5056762e-12 </wgt>
<wgt id='1648'> +1.3995060e-12 </wgt>
<wgt id='1649'> +1.2695785e-12 </wgt>
<wgt id='1650'> +1.5472892e-12 </wgt>
<wgt id='1651'> +1.5420574e-12 </wgt>
<wgt id='1652'> +1.5536483e-12 </wgt>
<wgt id='1653'> +1.2702156e-12 </wgt>
<wgt id='1654'> +1.3238980e-12 </wgt>
<wgt id='1655'> +1.3844579e-12 </wgt>
<wgt id='1656'> +1.5019819e-12 </wgt>
<wgt id='1657'> +1.4456086e-12 </wgt>
<wgt id='1658'> +1.4889670e-12 </wgt>
<wgt id='1659'> +1.4309752e-12 </wgt>
<wgt id='1660'> +1.3163076e-12 </wgt>
<wgt id='1661'> +1.4116264e-12 </wgt>
<wgt id='1662'> +1.4485261e-12 </wgt>
<wgt id='1663'> +1.4314563e-12 </wgt>
<wgt id='1664'> +1.5009374e-12 </wgt>
<wgt id='1665'> +1.5910075e-12 </wgt>
<wgt id='1666'> +1.4403385e-12 </wgt>
<wgt id='1667'> +1.3808795e-12 </wgt>
<wgt id='1668'> +1.3758400e-12 </wgt>
<wgt id='1669'> +1.4353815e-12 </wgt>
<wgt id='1670'> +1.4492809e-12 </wgt>
<wgt id='1671'> +1.4559442e-12 </wgt>
<wgt id='1672'> +1.3821056e-12 </wgt>
<wgt id='1673'> +1.3694309e-12 </wgt>
<wgt id='1674'> +1.4284172e-12 </wgt>
<wgt id='1675'> +1.4010047e-12 </wgt>
<wgt id='1676'> +1.3814554e-12 </wgt>
<wgt id='1677'> +1.3925831e-12 </wgt>
<wgt id='1678'> +1.4611412e-12 </wgt>
<wgt id='1679'> +1.4663771e-12 </wgt>
<wgt id='1680'> +1.3769492e-12 </wgt>
<wgt id='1681'> +1.4237639e-12 </wgt>
<wgt id='1682'> +1.3907736e-12 </wgt>
<wgt id='1683'> +1.3709820e-12 </wgt>
<wgt id='1684'> +1.4229969e-12 </wgt>
<wgt id='1685'> +1.4126628e-12 </wgt>
<wgt id='1686'> +1.4471494e-12 </wgt>
<wgt id='1687'> +1.4326534e-12 </wgt>
<wgt id='1688'> +1.4799074e-12 </wgt>
<wgt id='1689'> +1.3826497e-12 </wgt>
<wgt id='1690'> +1.3099382e-12 </wgt>
<wgt id='1691'> +1.3579327e-12 </wgt>
<wgt id='1692'> +1.3700891e-12 </wgt>
<wgt id='1693'> +1.5439089e-12 </wgt>
<wgt id='1694'> +1.3859225e-12 </wgt>
<wgt id='1695'> +1.4553635e-12 </wgt>
<wgt id='1696'> +1.4300559e-12 </wgt>
<wgt id='1697'> +1.3457223e-12 </wgt>
<wgt id='1698'> +1.4157180e-12 </wgt>
<wgt id='1699'> +1.3438546e-12 </wgt>
<wgt id='1700'> +1.4424488e-12 </wgt>
<wgt id='1701'> +1.4203825e-12 </wgt>
<wgt id='1702'> +1.3035238e-12 </wgt>
<wgt id='1703'> +1.4176697e-12 </wgt>
<wgt id='1704'> +1.4140152e-12 </wgt>
<wgt id='1705'> +1.5575654e-12 </wgt>
<wgt id='1706'> +1.3520963e-12 </wgt>
<wgt id='1707'> +1.4259521e-12 </wgt>
<wgt id='1708'> +1.3594707e-12 </wgt>
<wgt id='1709'> +1.4628136e-12 </wgt>
<wgt id='1710'> +1.4364586e-12 </wgt>
<wgt id='1711'> +1.4910467e-12 </wgt>
<wgt id='1712'> +1.4246114e-12 </wgt>
<wgt id='1713'> +1.3671391e-12 </wgt>
<wgt id='1714'> +1.3390976e-12 </wgt>
<wgt id='1715'> +1.3339903e-12 </wgt>
<wgt id='1716'> +1.3630982e-12 </wgt>
<wgt id='1717'> +1.3506607e-12 </wgt>
<wgt id='1718'> +1.3451710e-12 </wgt>
<wgt id='1719'> +1.4043092e-12 </wgt>
<wgt id='1720'> +1.3612798e-12 </wgt>
<wgt id='1721'> +1.3783028e-12 </wgt>
<wgt id='1722'> +1.3670483e-12 </wgt>
<wgt id='1723'> +1.3236821e-12 </wgt>
<wgt id='1724'> +1.3137419e-12 </wgt>
<wgt id='1725'> +1.3952138e-12 </wgt>
<wgt id='1726'> +1.3901169e-12 </wgt>
<wgt id='1727'> +1.3366983e-12 </wgt>
<wgt id='1728'> +1.3690976e-12 </wgt>
<wgt id='1729'> +1.3618030e-12 </wgt>
<wgt id='1730'> +1.3443138e-12 </wgt>
<wgt id='1731'> +1.3419748e-12 </wgt>
<wgt id='1732'> +1.4012121e-12 </wgt>
<wgt id='1733'> +1.3816449e-12 </wgt>
<wgt id='1734'> +1.3970913e-12 </wgt>
<wgt id='1735'> +1.3530260e-12 </wgt>
<wgt id='1736'> +1.4623454e-12 </wgt>
<wgt id='1737'> +1.3849997e-12 </wgt>
<wgt id='1738'> +1.3785550e-12 </wgt>
<wgt id='1739'> +1.3580149e-12 </wgt>
<wgt id='1740'> +1.3106434e-12 </wgt>
<wgt id='1741'> +1.3778276e-12 </wgt>
<wgt id='1742'> +1.3573399e-12 </wgt>
<wgt id='1743'> +1.3921454e-12 </wgt>
<wgt id='1744'> +1.3790518e-12 </wgt>
<wgt id='1745'> +1.3185844e-12 </wgt>
<wgt id='1746'> +1.3635048e-12 </wgt>
<wgt id='1747'> +1.3957419e-12 </wgt>
<wgt id='1748'> +1.3527718e-12 </wgt>
<wgt id='1749'> +1.3954218e-12 </wgt>
<wgt id='1750'> +1.3913213e-12 </wgt>
<wgt id='1751'> +1.3722679e-12 </wgt>
<wgt id='1752'> +1.3312046e-12 </wgt>
<wgt id='1753'> +1.3912791e-12 </wgt>
<wgt id='1754'> +1.3745860e-12 </wgt>
<wgt id='1755'> +1.3639514e-12 </wgt>
<wgt id='1756'> +1.3897079e-12 </wgt>
<wgt id='1757'> +1.3705104e-12 </wgt>
<wgt id='1758'> +1.3858468e-12 </wgt>
<wgt id='1759'> +1.3936237e-12 </wgt>
<wgt id='1760'> +1.3516490e-12 </wgt>
<wgt id='1761'> +1.3561136e-12 </wgt>
<wgt id='1762'> +1.3506545e-12 </wgt>
<wgt id='1763'> +1.3702979e-12 </wgt>
<wgt id='1764'> +1.3844909e-12 </wgt>
<wgt id='1765'> +1.3446171e-12 </wgt>
<wgt id='1766'> +1.3987106e-12 </wgt>
<wgt id='1767'> +1.3696043e-12 </wgt>
<wgt id='1768'> +1.3656448e-12 </wgt>
<wgt id='1769'> +1.3466682e-12 </wgt>
<wgt id='1770'> +1.3996771e-12 </wgt>
<wgt id='1771'> +1.3711819e-12 </wgt>
<wgt id='1772'> +1.3774904e-12 </wgt>
<wgt id='1773'> +1.3672830e-12 </wgt>
<wgt id='1774'> +1.3729014e-12 </wgt>
<wgt id='1775'> +1.3702052e-12 </wgt>
<wgt id='1776'> +1.3967111e-12 </wgt>
<wgt id='1777'> +1.3265651e-12 </wgt>
<wgt id='1778'> +1.3514701e-12 </wgt>
<wgt id='1779'> +1.3781483e-12 </wgt>
<wgt id='1780'> +1.4227781e-12 </wgt>
<wgt id='1781'> +1.3546197e-12 </wgt>
<wgt id='1782'> +1.3114825e-12 </wgt>
<wgt id='1783'> +1.3783908e-12 </wgt>
<wgt id='1784'> +1.3781568e-12 </wgt>
<wgt id='1785'> +1.3738055e-12 </wgt>
<wgt id='1786'> +1.2674211e-12 </wgt>
<wgt id='1787'> +1.4006305e-12 </wgt>
<wgt id='1788'> +1.3497622e-12 </wgt>
<wgt id='1789'> +1.3679381e-12 </wgt>
<wgt id='1790'> +1.3806438e-12 </wgt>
<wgt id='1791'> +1.3969134e-12 </wgt>
<wgt id='1792'> +1.3468289e-12 </wgt>
<wgt id='1793'> +1.3674335e-12 </wgt>
<wgt id='1794'> +1.3704887e-12 </wgt>
<wgt id='1795'> +1.3454531e-12 </wgt>
<wgt id='1796'> +1.3915301e-12 </wgt>
<wgt id='1797'> +1.3721103e-12 </wgt>
<wgt id='1798'> +1.3331427e-12 </wgt>
<wgt id='1799'> +1.3592390e-12 </wgt>
<wgt id='1800'> +1.3551411e-12 </wgt>
<wgt id='1801'> +1.3520640e-12 </wgt>
<wgt id='1802'> +1.4033412e-12 </wgt>
<wgt id='1803'> +1.3597734e-12 </wgt>
<wgt id='1804'> +1.3647548e-12 </wgt>
<wgt id='1805'> +1.3720252e-12 </wgt>
<wgt id='1806'> +1.3545468e-12 </wgt>
<wgt id='1807'> +1.3787591e-12 </wgt>
<wgt id='1808'> +1.3492743e-12 </wgt>
<wgt id='1809'> +1.3679734e-12 </wgt>
<wgt id='1810'> +1.3536973e-12 </wgt>
<wgt id='1811'> +1.4017635e-12 </wgt>
<wgt id='1812'> +1.3905682e-12 </wgt>
<wgt id='1813'> +1.3434829e-12 </wgt>
<wgt id='1814'> +1.4093404e-12 </wgt>
<wgt id='1815'> +1.7058875e-12 </wgt>
<wgt id='1816'> +1.3671391e-12 </wgt>
<wgt id='1817'> +1.3390976e-12 </wgt>
<wgt id='1818'> +1.3339903e-12 </wgt>
<wgt id='1819'> +1.3630982e-12 </wgt>
<wgt id='1820'> +1.3506607e-12 </wgt>
<wgt id='1821'> +1.3451710e-12 </wgt>
<wgt id='1822'> +1.4043092e-12 </wgt>
<wgt id='1823'> +1.3612798e-12 </wgt>
<wgt id='1824'> +1.3783028e-12 </wgt>
<wgt id='1825'> +1.3670483e-12 </wgt>
<wgt id='1826'> +1.3236821e-12 </wgt>
<wgt id='1827'> +1.3137419e-12 </wgt>
<wgt id='1828'> +1.3952138e-12 </wgt>
<wgt id='1829'> +1.3901169e-12 </wgt>
<wgt id='1830'> +1.3366983e-12 </wgt>
<wgt id='1831'> +1.3690976e-12 </wgt>
<wgt id='1832'> +1.3618030e-12 </wgt>
<wgt id='1833'> +1.3443138e-12 </wgt>
<wgt id='1834'> +1.3419748e-12 </wgt>
<wgt id='1835'> +1.4012121e-12 </wgt>
<wgt id='1836'> +1.3816449e-12 </wgt>
<wgt id='1837'> +1.3970913e-12 </wgt>
<wgt id='1838'> +1.3530260e-12 </wgt>
<wgt id='1839'> +1.4623454e-12 </wgt>
<wgt id='1840'> +1.3849997e-12 </wgt>
<wgt id='1841'> +1.3785550e-12 </wgt>
<wgt id='1842'> +1.3580149e-12 </wgt>
<wgt id='1843'> +1.3106434e-12 </wgt>
<wgt id='1844'> +1.3778276e-12 </wgt>
<wgt id='1845'> +1.3573399e-12 </wgt>
<wgt id='1846'> +1.3921454e-12 </wgt>
<wgt id='1847'> +1.3790518e-12 </wgt>
<wgt id='1848'> +1.3185844e-12 </wgt>
<wgt id='1849'> +1.3635048e-12 </wgt>
<wgt id='1850'> +1.3957419e-12 </wgt>
<wgt id='1851'> +1.3527718e-12 </wgt>
<wgt id='1852'> +1.3954218e-12 </wgt>
<wgt id='1853'> +1.3913213e-12 </wgt>
<wgt id='1854'> +1.3722679e-12 </wgt>
<wgt id='1855'> +1.3312046e-12 </wgt>
<wgt id='1856'> +1.3912791e-12 </wgt>
<wgt id='1857'> +1.3745860e-12 </wgt>
<wgt id='1858'> +1.3639514e-12 </wgt>
<wgt id='1859'> +1.3897079e-12 </wgt>
<wgt id='1860'> +1.3705104e-12 </wgt>
<wgt id='1861'> +1.3858468e-12 </wgt>
<wgt id='1862'> +1.3936237e-12 </wgt>
<wgt id='1863'> +1.3516490e-12 </wgt>
<wgt id='1864'> +1.3561136e-12 </wgt>
<wgt id='1865'> +1.3506545e-12 </wgt>
<wgt id='1866'> +1.3702979e-12 </wgt>
<wgt id='1867'> +1.3844909e-12 </wgt>
<wgt id='1868'> +1.3446171e-12 </wgt>
<wgt id='1869'> +1.3987106e-12 </wgt>
<wgt id='1870'> +1.3696043e-12 </wgt>
<wgt id='1871'> +1.3656448e-12 </wgt>
<wgt id='1872'> +1.3466682e-12 </wgt>
<wgt id='1873'> +1.3996771e-12 </wgt>
<wgt id='1874'> +1.3711819e-12 </wgt>
<wgt id='1875'> +1.3774904e-12 </wgt>
<wgt id='1876'> +1.3672830e-12 </wgt>
<wgt id='1877'> +1.3729014e-12 </wgt>
<wgt id='1878'> +1.3702052e-12 </wgt>
<wgt id='1879'> +1.3967111e-12 </wgt>
<wgt id='1880'> +1.3265651e-12 </wgt>
<wgt id='1881'> +1.3514701e-12 </wgt>
<wgt id='1882'> +1.3781483e-12 </wgt>
<wgt id='1883'> +1.4227781e-12 </wgt>
<wgt id='1884'> +1.3546197e-12 </wgt>
<wgt id='1885'> +1.3114825e-12 </wgt>
<wgt id='1886'> +1.3783908e-12 </wgt>
<wgt id='1887'> +1.3781568e-12 </wgt>
<wgt id='1888'> +1.3738055e-12 </wgt>
<wgt id='1889'> +1.2674211e-12 </wgt>
<wgt id='1890'> +1.4006305e-12 </wgt>
<wgt id='1891'> +1.3497622e-12 </wgt>
<wgt id='1892'> +1.3679381e-12 </wgt>
<wgt id='1893'> +1.3806438e-12 </wgt>
<wgt id='1894'> +1.3969134e-12 </wgt>
<wgt id='1895'> +1.3468289e-12 </wgt>
<wgt id='1896'> +1.3674335e-12 </wgt>
<wgt id='1897'> +1.3704887e-12 </wgt>
<wgt id='1898'> +1.3454531e-12 </wgt>
<wgt id='1899'> +1.3915301e-12 </wgt>
<wgt id='1900'> +1.3721103e-12 </wgt>
<wgt id='1901'> +1.3331427e-12 </wgt>
<wgt id='1902'> +1.3592390e-12 </wgt>
<wgt id='1903'> +1.3551411e-12 </wgt>
<wgt id='1904'> +1.3520640e-12 </wgt>
<wgt id='1905'> +1.4033412e-12 </wgt>
<wgt id='1906'> +1.3597734e-12 </wgt>
<wgt id='1907'> +1.3647548e-12 </wgt>
<wgt id='1908'> +1.3720252e-12 </wgt>
<wgt id='1909'> +1.3545468e-12 </wgt>
<wgt id='1910'> +1.3787591e-12 </wgt>
<wgt id='1911'> +1.3492743e-12 </wgt>
<wgt id='1912'> +1.3679734e-12 </wgt>
<wgt id='1913'> +1.3536973e-12 </wgt>
<wgt id='1914'> +1.4017635e-12 </wgt>
<wgt id='1915'> +1.3905682e-12 </wgt>
<wgt id='1916'> +1.3434829e-12 </wgt>
<wgt id='1917'> +1.3462701e-12 </wgt>
<wgt id='1918'> +1.3900643e-12 </wgt>
<wgt id='1919'> +1.3830148e-12 </wgt>
</rwgt>
</event>
<event>
 9      1 +1.5538000e-12 3.13403200e+01 7.81860800e-03 1.43666700e-01
       21 -1    0    0  501  502 +0.0000000000e+00 +0.0000000000e+00 +2.9277751020e+02 2.9277751020e+02 0.0000000000e+00 0.0000e+00 -1.0000e+00
        2 -1    0    0  502    0 -0.0000000000e+00 -0.0000000000e+00 -4.0519308717e+00 4.0519308717e+00 0.0000000000e+00 0.0000e+00 -1.0000e+00
     1023  2    1    2    0    0 -8.4557926888e+00 -2.6186494662e+01 +2.2819960385e+02 2.3034164790e+02 1.4999420967e+01 0.0000e+00 0.0000e+00
  1000023  2    3    3    0    0 -5.3196258045e+00 -1.8797034882e+01 +1.8552407148e+02 1.8663077144e+02 5.4988007106e+00 0.0000e+00 0.0000e+00
        2  1    1    2  501    0 +8.4557926888e+00 +2.6186494662e+01 +6.0525975480e+01 6.6487793169e+01 0.0000000000e+00 0.0000e+00 -1.0000e+00
  1000022  1    4    4    0    0 -4.5527087799e+00 -1.6976499065e+01 +1.6532263052e+02 1.6632949480e+02 5.0000000000e+00 0.0000e+00 -1.0000e+00
      -11  1    4    4    0    0 -1.9525681690e-01 -5.4014062418e-01 +4.3117457220e+00 4.3498308646e+00 5.1100000000e-04 0.0000e+00 -1.0000e+00
       11  1    4    4    0    0 -5.7166020770e-01 -1.2803951923e+00 +1.5889695234e+01 1.5951445770e+01 5.1100000000e-04 0.0000e+00 1.0000e+00
  1000022  1    3    3    0    0 -3.1361668843e+00 -7.3894597802e+00 +4.2675532369e+01 4.3710876468e+01 5.0000000000e+00 0.0000e+00 -1.0000e+00
<mgrwt>
<rscale>  1 0.31340318E+02</rscale>
<asrwt>0</asrwt>
<pdfrwt beam="1">  1       21 0.45042677E-01 0.31340318E+02</pdfrwt>
<pdfrwt beam="2">  1        2 0.62337421E-03 0.31340318E+02</pdfrwt>
<totfact> 0.15787471E+06</totfact>
</mgrwt>
<rwgt>
<wgt id='1001'> +1.5538000e-12 </wgt>
<wgt id='1002'> +1.5210810e-12 </wgt>
<wgt id='1003'> +1.5185649e-12 </wgt>
<wgt id='1004'> +1.5576892e-12 </wgt>
<wgt id='1005'> +1.5053117e-12 </wgt>
<wgt id='1006'> +1.3612257e-12 </wgt>
<wgt id='1007'> +1.3509008e-12 </wgt>
<wgt id='1008'> +1.3497294e-12 </wgt>
<wgt id='1009'> +1.3612196e-12 </wgt>
<wgt id='1010'> +1.3430756e-12 </wgt>
<wgt id='1011'> +1.8129474e-12 </wgt>
<wgt id='1012'> +1.7424308e-12 </wgt>
<wgt id='1013'> +1.7377447e-12 </wgt>
<wgt id='1014'> +1.8237707e-12 </wgt>
<wgt id='1015'> +1.7139622e-12 </wgt>
<wgt id='1016'> +1.7260923e-12 </wgt>
<wgt id='1017'> +1.6534193e-12 </wgt>
<wgt id='1018'> +1.6487122e-12 </wgt>
<wgt id='1019'> +1.7377447e-12 </wgt>
<wgt id='1020'> +1.6251290e-12 </wgt>
<wgt id='1021'> +1.5121645e-12 </wgt>
<wgt id='1022'> +1.4684331e-12 </wgt>
<wgt id='1023'> +1.4654068e-12 </wgt>
<wgt id='1024'> +1.5185649e-12 </wgt>
<wgt id='1025'> +1.4499794e-12 </wgt>
<wgt id='1026'> +2.0139751e-12 </wgt>
<wgt id='1027'> +1.8940272e-12 </wgt>
<wgt id='1028'> +1.8866767e-12 </wgt>
<wgt id='1029'> +2.0345829e-12 </wgt>
<wgt id='1030'> +1.8503872e-12 </wgt>
<wgt id='1031'> +1.3455489e-12 </wgt>
<wgt id='1032'> +1.3610615e-12 </wgt>
<wgt id='1033'> +1.3612196e-12 </wgt>
<wgt id='1034'> +1.3401913e-12 </wgt>
<wgt id='1035'> +1.3606644e-12 </wgt>
<wgt id='1036'> +1.1787847e-12 </wgt>
<wgt id='1037'> +1.2087845e-12 </wgt>
<wgt id='1038'> +1.2098779e-12 </wgt>
<wgt id='1039'> +1.1711544e-12 </wgt>
<wgt id='1040'> +1.2140178e-12 </wgt>
<wgt id='1041'> +1.5699635e-12 </wgt>
<wgt id='1042'> +1.5591250e-12 </wgt>
<wgt id='1043'> +1.5576892e-12 </wgt>
<wgt id='1044'> +1.5691202e-12 </wgt>
<wgt id='1045'> +1.5492654e-12 </wgt>
<wgt id='1046'> +1.5538000e-12 </wgt>
<wgt id='1047'> +1.5717002e-12 </wgt>
<wgt id='1048'> +1.5448268e-12 </wgt>
<wgt id='1049'> +1.5986246e-12 </wgt>
<wgt id='1050'> +1.5530629e-12 </wgt>
<wgt id='1051'> +1.5262051e-12 </wgt>
<wgt id='1052'> +1.6013017e-12 </wgt>
<wgt id='1053'> +1.5468887e-12 </wgt>
<wgt id='1054'> +1.5406346e-12 </wgt>
<wgt id='1055'> +1.5475835e-12 </wgt>
<wgt id='1056'> +1.5793083e-12 </wgt>
<wgt id='1057'> +1.5996138e-12 </wgt>
<wgt id='1058'> +1.5378573e-12 </wgt>
<wgt id='1059'> +1.5492389e-12 </wgt>
<wgt id='1060'> +1.5573566e-12 </wgt>
<wgt id='1061'> +1.5440939e-12 </wgt>
<wgt id='1062'> +1.5550715e-12 </wgt>
<wgt id='1063'> +1.5821154e-12 </wgt>
<wgt id='1064'> +1.5349309e-12 </wgt>
<wgt id='1065'> +1.5275875e-12 </wgt>
<wgt id='1066'> +1.5246667e-12 </wgt>
<wgt id='1067'> +1.5127852e-12 </wgt>
<wgt id='1068'> +1.5303109e-12 </wgt>
<wgt id='1069'> +1.5249401e-12 </wgt>
<wgt id='1070'> +1.5096343e-12 </wgt>
<wgt id='1071'> +1.5157356e-12 </wgt>
<wgt id='1072'> +1.5620131e-12 </wgt>
<wgt id='1073'> +1.6028255e-12 </wgt>
<wgt id='1074'> +1.5589491e-12 </wgt>
<wgt id='1075'> +1.5701817e-12 </wgt>
<wgt id='1076'> +1.6137977e-12 </wgt>
<wgt id='1077'> +1.5859279e-12 </wgt>
<wgt id='1078'> +1.5763800e-12 </wgt>
<wgt id='1079'> +1.5342055e-12 </wgt>
<wgt id='1080'> +1.5449730e-12 </wgt>
<wgt id='1081'> +1.5618488e-12 </wgt>
<wgt id='1082'> +1.5470616e-12 </wgt>
<wgt id='1083'> +1.5339986e-12 </wgt>
<wgt id='1084'> +1.5470391e-12 </wgt>
<wgt id='1085'> +1.5478772e-12 </wgt>
<wgt id='1086'> +1.5627868e-12 </wgt>
<wgt id='1087'> +1.5540212e-12 </wgt>
<wgt id='1088'> +1.5635694e-12 </wgt>
<wgt id='1089'> +1.5621291e-12 </wgt>
<wgt id='1090'> +1.5491578e-12 </wgt>
<wgt id='1091'> +1.5116806e-12 </wgt>
<wgt id='1092'> +1.5683391e-12 </wgt>
<wgt id='1093'> +1.5657820e-12 </wgt>
<wgt id='1094'> +1.5636782e-12 </wgt>
<wgt id='1095'> +1.5951292e-12 </wgt>
<wgt id='1096'> +1.5796223e-12 </wgt>
<wgt id='1097'> +1.5478751e-12 </wgt>
<wgt id='1098'> +1.5207923e-12 </wgt>
<wgt id='1099'> +1.5735297e-12 </wgt>
<wgt id='1100'> +1.5648200e-12 </wgt>
<wgt id='1101'> +1.5435535e-12 </wgt>
<wgt id='1102'> +1.5378126e-12 </wgt>
<wgt id='1103'> +1.5476842e-12 </wgt>
<wgt id='1104'> +1.5076004e-12 </wgt>
<wgt id='1105'> +1.5827769e-12 </wgt>
<wgt id='1106'> +1.5583193e-12 </wgt>
<wgt id='1107'> +1.5759049e-12 </wgt>
<wgt id='1108'> +1.5378750e-12 </wgt>
<wgt id='1109'> +1.5420320e-12 </wgt>
<wgt id='1110'> +1.5551281e-12 </wgt>
<wgt id='1111'> +1.5338915e-12 </wgt>
<wgt id='1112'> +1.5449505e-12 </wgt>
<wgt id='1113'> +1.5306550e-12 </wgt>
<wgt id='1114'> +1.5732050e-12 </wgt>
<wgt id='1115'> +1.5492664e-12 </wgt>
<wgt id='1116'> +1.5373578e-12 </wgt>
<wgt id='1117'> +1.5612507e-12 </wgt>
<wgt id='1118'> +1.5406427e-12 </wgt>
<wgt id='1119'> +1.5312313e-12 </wgt>
<wgt id='1120'> +1.5710757e-12 </wgt>
<wgt id='1121'> +1.5590615e-12 </wgt>
<wgt id='1122'> +1.5848809e-12 </wgt>
<wgt id='1123'> +1.5407766e-12 </wgt>
<wgt id='1124'> +1.5700842e-12 </wgt>
<wgt id='1125'> +1.5401494e-12 </wgt>
<wgt id='1126'> +1.5585562e-12 </wgt>
<wgt id='1127'> +1.5359186e-12 </wgt>
<wgt id='1128'> +1.5550715e-12 </wgt>
<wgt id='1129'> +1.5618657e-12 </wgt>
<wgt id='1130'> +1.5444943e-12 </wgt>
<wgt id='1131'> +1.6012131e-12 </wgt>
<wgt id='1132'> +1.5532843e-12 </wgt>
<wgt id='1133'> +1.5580317e-12 </wgt>
<wgt id='1134'> +1.6102997e-12 </wgt>
<wgt id='1135'> +1.5642594e-12 </wgt>
<wgt id='1136'> +1.5286695e-12 </wgt>
<wgt id='1137'> +1.5272543e-12 </wgt>
<wgt id='1138'> +1.5512904e-12 </wgt>
<wgt id='1139'> +1.5509132e-12 </wgt>
<wgt id='1140'> +1.5504847e-12 </wgt>
<wgt id='1141'> +1.5421072e-12 </wgt>
<wgt id='1142'> +1.5436684e-12 </wgt>
<wgt id='1143'> +1.5431389e-12 </wgt>
<wgt id='1144'> +1.5673389e-12 </wgt>
<wgt id='1145'> +1.5611701e-12 </wgt>
<wgt id='1146'> +1.5273337e-12 </wgt>
<wgt id='1147'> +1.2015559e-12 </wgt>
<wgt id='1148'> +1.2252919e-12 </wgt>
<wgt id='1149'> +1.3312502e-12 </wgt>
<wgt id='1150'> +1.2452806e-12 </wgt>
<wgt id='1151'> +1.1005078e-12 </wgt>
<wgt id='1152'> +1.4848270e-12 </wgt>
<wgt id='1153'> +1.4774721e-12 </wgt>
<wgt id='1154'> +1.4890609e-12 </wgt>
<wgt id='1155'> +1.4848822e-12 </wgt>
<wgt id='1156'> +1.4848257e-12 </wgt>
<wgt id='1157'> +1.4859024e-12 </wgt>
<wgt id='1158'> +1.4832131e-12 </wgt>
<wgt id='1159'> +1.4858520e-12 </wgt>
<wgt id='1160'> +1.4841693e-12 </wgt>
<wgt id='1161'> +1.4808543e-12 </wgt>
<wgt id='1162'> +1.4875839e-12 </wgt>
<wgt id='1163'> +1.4893193e-12 </wgt>
<wgt id='1164'> +1.4803125e-12 </wgt>
<wgt id='1165'> +1.4751055e-12 </wgt>
<wgt id='1166'> +1.4942100e-12 </wgt>
<wgt id='1167'> +1.4887343e-12 </wgt>
<wgt id='1168'> +1.4784956e-12 </wgt>
<wgt id='1169'> +1.4856266e-12 </wgt>
<wgt id='1170'> +1.4842186e-12 </wgt>
<wgt id='1171'> +1.4855209e-12 </wgt>
<wgt id='1172'> +1.4837979e-12 </wgt>
<wgt id='1173'> +1.4852060e-12 </wgt>
<wgt id='1174'> +1.4835208e-12 </wgt>
<wgt id='1175'> +1.4824584e-12 </wgt>
<wgt id='1176'> +1.4860085e-12 </wgt>
<wgt id='1177'> +1.4856072e-12 </wgt>
<wgt id='1178'> +1.4830678e-12 </wgt>
<wgt id='1179'> +1.4991598e-12 </wgt>
<wgt id='1180'> +1.4672665e-12 </wgt>
<wgt id='1181'> +1.4777184e-12 </wgt>
<wgt id='1182'> +1.4919551e-12 </wgt>
<wgt id='1183'> +1.4850374e-12 </wgt>
<wgt id='1184'> +1.4848159e-12 </wgt>
<wgt id='1185'> +1.4817945e-12 </wgt>
<wgt id='1186'> +1.4863993e-12 </wgt>
<wgt id='1187'> +1.4833975e-12 </wgt>
<wgt id='1188'> +1.4853086e-12 </wgt>
<wgt id='1189'> +1.4871086e-12 </wgt>
<wgt id='1190'> +1.4624504e-12 </wgt>
<wgt id='1191'> +1.4752665e-12 </wgt>
<wgt id='1192'> +1.4946640e-12 </wgt>
<wgt id='1193'> +1.2779528e-12 </wgt>
<wgt id='1194'> +1.2709214e-12 </wgt>
<wgt id='1195'> +1.2837349e-12 </wgt>
<wgt id='1196'> +1.2821614e-12 </wgt>
<wgt id='1197'> +1.2733379e-12 </wgt>
<wgt id='1198'> +1.2787763e-12 </wgt>
<wgt id='1199'> +1.2768289e-12 </wgt>
<wgt id='1200'> +1.2798224e-12 </wgt>
<wgt id='1201'> +1.2767975e-12 </wgt>
<wgt id='1202'> +1.2756119e-12 </wgt>
<wgt id='1203'> +1.2813670e-12 </wgt>
<wgt id='1204'> +1.2640473e-12 </wgt>
<wgt id='1205'> +1.2865326e-12 </wgt>
<wgt id='1206'> +1.2821313e-12 </wgt>
<wgt id='1207'> +1.2723132e-12 </wgt>
<wgt id='1208'> +1.2714302e-12 </wgt>
<wgt id='1209'> +1.2804279e-12 </wgt>
<wgt id='1210'> +1.2715867e-12 </wgt>
<wgt id='1211'> +1.2783631e-12 </wgt>
<wgt id='1212'> +1.2787259e-12 </wgt>
<wgt id='1213'> +1.2772810e-12 </wgt>
<wgt id='1214'> +1.2711265e-12 </wgt>
<wgt id='1215'> +1.2861066e-12 </wgt>
<wgt id='1216'> +1.2793274e-12 </wgt>
<wgt id='1217'> +1.2764313e-12 </wgt>
<wgt id='1218'> +1.2796343e-12 </wgt>
<wgt id='1219'> +1.2768782e-12 </wgt>
<wgt id='1220'> +1.2813401e-12 </wgt>
<wgt id='1221'> +1.2790570e-12 </wgt>
<wgt id='1222'> +1.2766337e-12 </wgt>
<wgt id='1223'> +1.2821877e-12 </wgt>
<wgt id='1224'> +1.2784721e-12 </wgt>
<wgt id='1225'> +1.2778469e-12 </wgt>
<wgt id='1226'> +1.2762716e-12 </wgt>
<wgt id='1227'> +1.2791760e-12 </wgt>
<wgt id='1228'> +1.2774209e-12 </wgt>
<wgt id='1229'> +1.2777806e-12 </wgt>
<wgt id='1230'> +1.2948604e-12 </wgt>
<wgt id='1231'> +1.2620245e-12 </wgt>
<wgt id='1232'> +1.2781294e-12 </wgt>
<wgt id='1233'> +1.2779882e-12 </wgt>
<wgt id='1234'> +1.2779528e-12 </wgt>
<wgt id='1235'> +1.2715721e-12 </wgt>
<wgt id='1236'> +1.2740832e-12 </wgt>
<wgt id='1237'> +1.2762248e-12 </wgt>
<wgt id='1238'> +1.2800759e-12 </wgt>
<wgt id='1239'> +1.2814958e-12 </wgt>
<wgt id='1240'> +1.2829634e-12 </wgt>
<wgt id='1241'> +1.3170687e-12 </wgt>
<wgt id='1242'> +1.3085603e-12 </wgt>
<wgt id='1243'> +1.3255470e-12 </wgt>
<wgt id='1244'> +1.3116480e-12 </wgt>
<wgt id='1245'> +1.3211814e-12 </wgt>
<wgt id='1246'> +1.3178643e-12 </wgt>
<wgt id='1247'> +1.3165026e-12 </wgt>
<wgt id='1248'> +1.3170095e-12 </wgt>
<wgt id='1249'> +1.3172284e-12 </wgt>
<wgt id='1250'> +1.3171984e-12 </wgt>
<wgt id='1251'> +1.3171597e-12 </wgt>
<wgt id='1252'> +1.3148961e-12 </wgt>
<wgt id='1253'> +1.3188065e-12 </wgt>
<wgt id='1254'> +1.3047921e-12 </wgt>
<wgt id='1255'> +1.3245437e-12 </wgt>
<wgt id='1256'> +1.3211851e-12 </wgt>
<wgt id='1257'> +1.3070190e-12 </wgt>
<wgt id='1258'> +1.3230278e-12 </wgt>
<wgt id='1259'> +1.3104171e-12 </wgt>
<wgt id='1260'> +1.3189855e-12 </wgt>
<wgt id='1261'> +1.3152573e-12 </wgt>
<wgt id='1262'> +1.3173150e-12 </wgt>
<wgt id='1263'> +1.3169848e-12 </wgt>
<wgt id='1264'> +1.3199231e-12 </wgt>
<wgt id='1265'> +1.3159149e-12 </wgt>
<wgt id='1266'> +1.3200967e-12 </wgt>
<wgt id='1267'> +1.3157351e-12 </wgt>
<wgt id='1268'> +1.3164181e-12 </wgt>
<wgt id='1269'> +1.3220520e-12 </wgt>
<wgt id='1270'> +1.3196171e-12 </wgt>
<wgt id='1271'> +1.3147860e-12 </wgt>
<wgt id='1272'> +1.3193034e-12 </wgt>
<wgt id='1273'> +1.3166061e-12 </wgt>
<wgt id='1274'> +1.3186798e-12 </wgt>
<wgt id='1275'> +1.3142335e-12 </wgt>
<wgt id='1276'> +1.3161987e-12 </wgt>
<wgt id='1277'> +1.3173342e-12 </wgt>
<wgt id='1278'> +1.3117795e-12 </wgt>
<wgt id='1279'> +1.3235108e-12 </wgt>
<wgt id='1280'> +1.3168533e-12 </wgt>
<wgt id='1281'> +1.3203574e-12 </wgt>
<wgt id='1282'> +1.3170687e-12 </wgt>
<wgt id='1283'> +1.3095781e-12 </wgt>
<wgt id='1284'> +1.3126797e-12 </wgt>
<wgt id='1285'> +1.3151655e-12 </wgt>
<wgt id='1286'> +1.3193930e-12 </wgt>
<wgt id='1287'> +1.3208643e-12 </wgt>
<wgt id='1288'> +1.3222387e-12 </wgt>
<wgt id='1289'> +1.3055564e-12 </wgt>
<wgt id='1290'> +1.3130597e-12 </wgt>
<wgt id='1291'> +1.2974607e-12 </wgt>
<wgt id='1292'> +1.3021769e-12 </wgt>
<wgt id='1293'> +1.3080053e-12 </wgt>
<wgt id='1294'> +1.3045575e-12 </wgt>
<wgt id='1295'> +1.3064888e-12 </wgt>
<wgt id='1296'> +1.3006227e-12 </wgt>
<wgt id='1297'> +1.3117218e-12 </wgt>
<wgt id='1298'> +1.3119534e-12 </wgt>
<wgt id='1299'> +1.2975892e-12 </wgt>
<wgt id='1300'> +1.3089335e-12 </wgt>
<wgt id='1301'> +1.2987531e-12 </wgt>
<wgt id='1302'> +1.3047239e-12 </wgt>
<wgt id='1303'> +1.3068238e-12 </wgt>
<wgt id='1304'> +1.3036467e-12 </wgt>
<wgt id='1305'> +1.3069272e-12 </wgt>
<wgt id='1306'> +1.3004076e-12 </wgt>
<wgt id='1307'> +1.3114766e-12 </wgt>
<wgt id='1308'> +1.3163386e-12 </wgt>
<wgt id='1309'> +1.2974066e-12 </wgt>
<wgt id='1310'> +1.3039895e-12 </wgt>
<wgt id='1311'> +1.3073891e-12 </wgt>
<wgt id='1312'> +1.3000736e-12 </wgt>
<wgt id='1313'> +1.3114292e-12 </wgt>
<wgt id='1314'> +1.3040904e-12 </wgt>
<wgt id='1315'> +1.3005925e-12 </wgt>
<wgt id='1316'> +1.3114530e-12 </wgt>
<wgt id='1317'> +1.3065577e-12 </wgt>
<wgt id='1318'> +1.3076511e-12 </wgt>
<wgt id='1319'> +1.3019911e-12 </wgt>
<wgt id='1320'> +1.3042038e-12 </wgt>
<wgt id='1321'> +1.3045975e-12 </wgt>
<wgt id='1322'> +1.3052285e-12 </wgt>
<wgt id='1323'> +1.3058034e-12 </wgt>
<wgt id='1324'> +1.3059249e-12 </wgt>
<wgt id='1325'> +1.3094086e-12 </wgt>
<wgt id='1326'> +1.3055317e-12 </wgt>
<wgt id='1327'> +1.3078178e-12 </wgt>
<wgt id='1328'> +1.3048176e-12 </wgt>
<wgt id='1329'> +1.3061466e-12 </wgt>
<wgt id='1330'> +1.2786027e-12 </wgt>
<wgt id='1331'> +1.3225303e-12 </wgt>
<wgt id='1332'> +1.3277415e-12 </wgt>
<wgt id='1333'> +1.2931744e-12 </wgt>
<wgt id='1334'> +1.3012810e-12 </wgt>
<wgt id='1335'> +1.3158557e-12 </wgt>
<wgt id='1336'> +1.3176572e-12 </wgt>
<wgt id='1337'> +1.2890383e-12 </wgt>
<wgt id='1338'> +1.3092220e-12 </wgt>
<wgt id='1339'> +1.3036989e-12 </wgt>
<wgt id='1340'> +1.2774252e-12 </wgt>
<wgt id='1341'> +1.2849059e-12 </wgt>
<wgt id='1342'> +1.2693452e-12 </wgt>
<wgt id='1343'> +1.2740374e-12 </wgt>
<wgt id='1344'> +1.2797320e-12 </wgt>
<wgt id='1345'> +1.2760657e-12 </wgt>
<wgt id='1346'> +1.2786047e-12 </wgt>
<wgt id='1347'> +1.2725483e-12 </wgt>
<wgt id='1348'> +1.2829007e-12 </wgt>
<wgt id='1349'> +1.2831275e-12 </wgt>
<wgt id='1350'> +1.2718410e-12 </wgt>
<wgt id='1351'> +1.2808032e-12 </wgt>
<wgt id='1352'> +1.2699633e-12 </wgt>
<wgt id='1353'> +1.2761864e-12 </wgt>
<wgt id='1354'> +1.2796610e-12 </wgt>
<wgt id='1355'> +1.2756228e-12 </wgt>
<wgt id='1356'> +1.2784423e-12 </wgt>
<wgt id='1357'> +1.2751756e-12 </wgt>
<wgt id='1358'> +1.2801898e-12 </wgt>
<wgt id='1359'> +1.2894846e-12 </wgt>
<wgt id='1360'> +1.2669676e-12 </wgt>
<wgt id='1361'> +1.2758445e-12 </wgt>
<wgt id='1362'> +1.2796464e-12 </wgt>
<wgt id='1363'> +1.2705148e-12 </wgt>
<wgt id='1364'> +1.2827361e-12 </wgt>
<wgt id='1365'> +1.2752433e-12 </wgt>
<wgt id='1366'> +1.2717979e-12 </wgt>
<wgt id='1367'> +1.2827637e-12 </wgt>
<wgt id='1368'> +1.2778674e-12 </wgt>
<wgt id='1369'> +1.2796492e-12 </wgt>
<wgt id='1370'> +1.2742851e-12 </wgt>
<wgt id='1371'> +1.2768721e-12 </wgt>
<wgt id='1372'> +1.2764613e-12 </wgt>
<wgt id='1373'> +1.2770550e-12 </wgt>
<wgt id='1374'> +1.2772804e-12 </wgt>
<wgt id='1375'> +1.2777889e-12 </wgt>
<wgt id='1376'> +1.2808294e-12 </wgt>
<wgt id='1377'> +1.2778571e-12 </wgt>
<wgt id='1378'> +1.2796047e-12 </wgt>
<wgt id='1379'> +1.2764483e-12 </wgt>
<wgt id='1380'> +1.2784099e-12 </wgt>
<wgt id='1381'> +1.2491515e-12 </wgt>
<wgt id='1382'> +1.2933793e-12 </wgt>
<wgt id='1383'> +1.3006421e-12 </wgt>
<wgt id='1384'> +1.2616713e-12 </wgt>
<wgt id='1385'> +1.2726869e-12 </wgt>
<wgt id='1386'> +1.2880826e-12 </wgt>
<wgt id='1387'> +1.2916212e-12 </wgt>
<wgt id='1388'> +1.2580500e-12 </wgt>
<wgt id='1389'> +1.2834546e-12 </wgt>
<wgt id='1390'> +1.2742474e-12 </wgt>
<wgt id='1391'> +1.2603593e-12 </wgt>
<wgt id='1392'> +1.2225113e-12 </wgt>
<wgt id='1393'> +1.2342504e-12 </wgt>
<wgt id='1394'> +1.2470577e-12 </wgt>
<wgt id='1395'> +1.2703415e-12 </wgt>
<wgt id='1396'> +1.2592860e-12 </wgt>
<wgt id='1397'> +1.2306748e-12 </wgt>
<wgt id='1398'> +1.2367404e-12 </wgt>
<wgt id='1399'> +1.2424178e-12 </wgt>
<wgt id='1400'> +1.2479138e-12 </wgt>
<wgt id='1401'> +1.2535986e-12 </wgt>
<wgt id='1402'> +1.2640238e-12 </wgt>
<wgt id='1403'> +1.2690913e-12 </wgt>
<wgt id='1404'> +1.2732441e-12 </wgt>
<wgt id='1405'> +1.2592860e-12 </wgt>
<wgt id='1406'> +1.2561073e-12 </wgt>
<wgt id='1407'> +1.2579231e-12 </wgt>
<wgt id='1408'> +1.2608219e-12 </wgt>
<wgt id='1409'> +1.2616762e-12 </wgt>
<wgt id='1410'> +1.2827424e-12 </wgt>
<wgt id='1411'> +1.2886033e-12 </wgt>
<wgt id='1412'> +1.2751603e-12 </wgt>
<wgt id='1413'> +1.2875765e-12 </wgt>
<wgt id='1414'> +1.2779204e-12 </wgt>
<wgt id='1415'> +1.2787697e-12 </wgt>
<wgt id='1416'> +1.2843481e-12 </wgt>
<wgt id='1417'> +1.2745157e-12 </wgt>
<wgt id='1418'> +1.2909818e-12 </wgt>
<wgt id='1419'> +1.2846781e-12 </wgt>
<wgt id='1420'> +1.2809329e-12 </wgt>
<wgt id='1421'> +1.2703019e-12 </wgt>
<wgt id='1422'> +1.2880967e-12 </wgt>
<wgt id='1423'> +1.2824198e-12 </wgt>
<wgt id='1424'> +1.2830607e-12 </wgt>
<wgt id='1425'> +1.2795282e-12 </wgt>
<wgt id='1426'> +1.2862527e-12 </wgt>
<wgt id='1427'> +1.2832973e-12 </wgt>
<wgt id='1428'> +1.2822227e-12 </wgt>
<wgt id='1429'> +1.2750436e-12 </wgt>
<wgt id='1430'> +1.2930992e-12 </wgt>
<wgt id='1431'> +1.2891507e-12 </wgt>
<wgt id='1432'> +1.2781389e-12 </wgt>
<wgt id='1433'> +1.2864438e-12 </wgt>
<wgt id='1434'> +1.2771048e-12 </wgt>
<wgt id='1435'> +1.2857854e-12 </wgt>
<wgt id='1436'> +1.2755214e-12 </wgt>
<wgt id='1437'> +1.2887078e-12 </wgt>
<wgt id='1438'> +1.2832453e-12 </wgt>
<wgt id='1439'> +1.2800504e-12 </wgt>
<wgt id='1440'> +1.2859951e-12 </wgt>
<wgt id='1441'> +1.2828494e-12 </wgt>
<wgt id='1442'> +1.2830995e-12 </wgt>
<wgt id='1443'> +1.2828636e-12 </wgt>
<wgt id='1444'> +1.2845466e-12 </wgt>
<wgt id='1445'> +1.2871746e-12 </wgt>
<wgt id='1446'> +1.2823245e-12 </wgt>
<wgt id='1447'> +1.2837268e-12 </wgt>
<wgt id='1448'> +1.2841850e-12 </wgt>
<wgt id='1449'> +1.2817211e-12 </wgt>
<wgt id='1450'> +1.2832607e-12 </wgt>
<wgt id='1451'> +1.2918269e-12 </wgt>
<wgt id='1452'> +1.2598763e-12 </wgt>
<wgt id='1453'> +1.2849465e-12 </wgt>
<wgt id='1454'> +1.2687265e-12 </wgt>
<wgt id='1455'> +1.2650420e-12 </wgt>
<wgt id='1456'> +1.2996345e-12 </wgt>
<wgt id='1457'> +1.2948762e-12 </wgt>
<wgt id='1458'> +1.2782257e-12 </wgt>
<wgt id='1459'> +1.2834135e-12 </wgt>
<wgt id='1460'> +1.2867177e-12 </wgt>
<wgt id='1461'> +1.2827424e-12 </wgt>
<wgt id='1462'> +1.2726359e-12 </wgt>
<wgt id='1463'> +1.2926608e-12 </wgt>
<wgt id='1464'> +1.2825792e-12 </wgt>
<wgt id='1465'> +1.2588616e-12 </wgt>
<wgt id='1466'> +1.2639436e-12 </wgt>
<wgt id='1467'> +1.2690727e-12 </wgt>
<wgt id='1468'> +1.2738828e-12 </wgt>
<wgt id='1469'> +1.2783490e-12 </wgt>
<wgt id='1470'> +1.2869264e-12 </wgt>
<wgt id='1471'> +1.2902360e-12 </wgt>
<wgt id='1472'> +1.2943025e-12 </wgt>
<wgt id='1473'> +1.2825792e-12 </wgt>
<wgt id='1474'> +1.2785916e-12 </wgt>
<wgt id='1475'> +1.2802652e-12 </wgt>
<wgt id='1476'> +1.2842159e-12 </wgt>
<wgt id='1477'> +1.2858578e-12 </wgt>
<wgt id='1478'> +1.2443167e-12 </wgt>
<wgt id='1479'> +1.2439339e-12 </wgt>
<wgt id='1480'> +1.2551370e-12 </wgt>
<wgt id='1481'> +1.2428805e-12 </wgt>
<wgt id='1482'> +1.2462146e-12 </wgt>
<wgt id='1483'> +1.2249370e-12 </wgt>
<wgt id='1484'> +1.2468747e-12 </wgt>
<wgt id='1485'> +1.2510660e-12 </wgt>
<wgt id='1486'> +1.2450297e-12 </wgt>
<wgt id='1487'> +1.2481735e-12 </wgt>
<wgt id='1488'> +1.2400663e-12 </wgt>
<wgt id='1489'> +1.2548616e-12 </wgt>
<wgt id='1490'> +1.2447073e-12 </wgt>
<wgt id='1491'> +1.2427043e-12 </wgt>
<wgt id='1492'> +1.2435831e-12 </wgt>
<wgt id='1493'> +1.2445743e-12 </wgt>
<wgt id='1494'> +1.2661454e-12 </wgt>
<wgt id='1495'> +1.2478635e-12 </wgt>
<wgt id='1496'> +1.2431232e-12 </wgt>
<wgt id='1497'> +1.2465514e-12 </wgt>
<wgt id='1498'> +1.2428369e-12 </wgt>
<wgt id='1499'> +1.2463942e-12 </wgt>
<wgt id='1500'> +1.2451922e-12 </wgt>
<wgt id='1501'> +1.2437575e-12 </wgt>
<wgt id='1502'> +1.2439773e-12 </wgt>
<wgt id='1503'> +1.2489154e-12 </wgt>
<wgt id='1504'> +1.2454198e-12 </wgt>
<wgt id='1505'> +1.2439172e-12 </wgt>
<wgt id='1506'> +1.2432481e-12 </wgt>
<wgt id='1507'> +1.2421430e-12 </wgt>
<wgt id='1508'> +1.2539662e-12 </wgt>
<wgt id='1509'> +1.3126017e-12 </wgt>
<wgt id='1510'> +1.3106400e-12 </wgt>
<wgt id='1511'> +1.3119191e-12 </wgt>
<wgt id='1512'> +1.3102087e-12 </wgt>
<wgt id='1513'> +1.3241408e-12 </wgt>
<wgt id='1514'> +1.3120308e-12 </wgt>
<wgt id='1515'> +1.3068223e-12 </wgt>
<wgt id='1516'> +1.3113382e-12 </wgt>
<wgt id='1517'> +1.3074533e-12 </wgt>
<wgt id='1518'> +1.3195488e-12 </wgt>
<wgt id='1519'> +1.3092947e-12 </wgt>
<wgt id='1520'> +1.3090566e-12 </wgt>
<wgt id='1521'> +1.3179470e-12 </wgt>
<wgt id='1522'> +1.3126500e-12 </wgt>
<wgt id='1523'> +1.3185488e-12 </wgt>
<wgt id='1524'> +1.3134973e-12 </wgt>
<wgt id='1525'> +1.3139603e-12 </wgt>
<wgt id='1526'> +1.3101381e-12 </wgt>
<wgt id='1527'> +1.3154696e-12 </wgt>
<wgt id='1528'> +1.3175815e-12 </wgt>
<wgt id='1529'> +1.3194301e-12 </wgt>
<wgt id='1530'> +1.3149536e-12 </wgt>
<wgt id='1531'> +1.3170182e-12 </wgt>
<wgt id='1532'> +1.3182879e-12 </wgt>
<wgt id='1533'> +1.3112586e-12 </wgt>
<wgt id='1534'> +1.3212250e-12 </wgt>
<wgt id='1535'> +1.3124666e-12 </wgt>
<wgt id='1536'> +1.3072989e-12 </wgt>
<wgt id='1537'> +1.3095797e-12 </wgt>
<wgt id='1538'> +1.3138816e-12 </wgt>
<wgt id='1539'> +1.3117212e-12 </wgt>
<wgt id='1540'> +1.3153426e-12 </wgt>
<wgt id='1541'> +1.3109876e-12 </wgt>
<wgt id='1542'> +1.3135091e-12 </wgt>
<wgt id='1543'> +1.3134804e-12 </wgt>
<wgt id='1544'> +1.3124077e-12 </wgt>
<wgt id='1545'> +1.3144651e-12 </wgt>
<wgt id='1546'> +1.3144373e-12 </wgt>
<wgt id='1547'> +1.3132989e-12 </wgt>
<wgt id='1548'> +1.3120203e-12 </wgt>
<wgt id='1549'> +1.3129295e-12 </wgt>
<wgt id='1550'> +1.3133005e-12 </wgt>
<wgt id='1551'> +1.3112356e-12 </wgt>
<wgt id='1552'> +1.3134348e-12 </wgt>
<wgt id='1553'> +1.3122847e-12 </wgt>
<wgt id='1554'> +1.3123625e-12 </wgt>
<wgt id='1555'> +1.3115195e-12 </wgt>
<wgt id='1556'> +1.3134904e-12 </wgt>
<wgt id='1557'> +1.3121086e-12 </wgt>
<wgt id='1558'> +1.3139915e-12 </wgt>
<wgt id='1559'> +1.3136078e-12 </wgt>
<wgt id='1560'> +1.3127777e-12 </wgt>
<wgt id='1561'> +1.3131838e-12 </wgt>
<wgt id='1562'> +1.3122348e-12 </wgt>
<wgt id='1563'> +1.3120126e-12 </wgt>
<wgt id='1564'> +1.3128111e-12 </wgt>
<wgt id='1565'> +1.3129162e-12 </wgt>
<wgt id='1566'> +1.3123054e-12 </wgt>
<wgt id='1567'> +1.3127612e-12 </wgt>
<wgt id='1568'> +1.3131037e-12 </wgt>
<wgt id='1569'> +1.3130143e-12 </wgt>
<wgt id='1570'> +1.3124240e-12 </wgt>
<wgt id='1571'> +1.3121012e-12 </wgt>
<wgt id='1572'> +1.3131501e-12 </wgt>
<wgt id='1573'> +1.3124286e-12 </wgt>
<wgt id='1574'> +1.3126232e-12 </wgt>
<wgt id='1575'> +1.3115534e-12 </wgt>
<wgt id='1576'> +1.3126283e-12 </wgt>
<wgt id='1577'> +1.3132323e-12 </wgt>
<wgt id='1578'> +1.3130836e-12 </wgt>
<wgt id='1579'> +1.3128575e-12 </wgt>
<wgt id='1580'> +1.3123022e-12 </wgt>
<wgt id='1581'> +1.3127286e-12 </wgt>
<wgt id='1582'> +1.3132059e-12 </wgt>
<wgt id='1583'> +1.3125195e-12 </wgt>
<wgt id='1584'> +1.3126978e-12 </wgt>
<wgt id='1585'> +1.3130238e-12 </wgt>
<wgt id='1586'> +1.3125564e-12 </wgt>
<wgt id='1587'> +1.3127287e-12 </wgt>
<wgt id='1588'> +1.3130346e-12 </wgt>
<wgt id='1589'> +1.3130114e-12 </wgt>
<wgt id='1590'> +1.3128339e-12 </wgt>
<wgt id='1591'> +1.3131303e-12 </wgt>
<wgt id='1592'> +1.3120871e-12 </wgt>
<wgt id='1593'> +1.3123427e-12 </wgt>
<wgt id='1594'> +1.3123522e-12 </wgt>
<wgt id='1595'> +1.3126686e-12 </wgt>
<wgt id='1596'> +1.3126063e-12 </wgt>
<wgt id='1597'> +1.3125934e-12 </wgt>
<wgt id='1598'> +1.3128503e-12 </wgt>
<wgt id='1599'> +1.3127473e-12 </wgt>
<wgt id='1600'> +1.3127658e-12 </wgt>
<wgt id='1601'> +1.3123373e-12 </wgt>
<wgt id='1602'> +1.3122919e-12 </wgt>
<wgt id='1603'> +1.3120981e-12 </wgt>
<wgt id='1604'> +1.3126741e-12 </wgt>
<wgt id='1605'> +1.3127577e-12 </wgt>
<wgt id='1606'> +1.3127872e-12 </wgt>
<wgt id='1607'> +1.3123509e-12 </wgt>
<wgt id='1608'> +1.3129923e-12 </wgt>
<wgt id='1609'> +1.3125156e-12 </wgt>
<wgt id='1610'> +1.2862542e-12 </wgt>
<wgt id='1611'> +1.3400211e-12 </wgt>
<wgt id='1612'> +1.5017649e-12 </wgt>
<wgt id='1613'> +1.4965905e-12 </wgt>
<wgt id='1614'> +1.5349436e-12 </wgt>
<wgt id='1615'> +1.4855569e-12 </wgt>
<wgt id='1616'> +1.5416421e-12 </wgt>
<wgt id='1617'> +1.5314593e-12 </wgt>
<wgt id='1618'> +1.5117256e-12 </wgt>
<wgt id='1619'> +1.5180404e-12 </wgt>
<wgt id='1620'> +1.4926218e-12 </wgt>
<wgt id='1621'> +1.5249230e-12 </wgt>
<wgt id='1622'> +1.4931173e-12 </wgt>
<wgt id='1623'> +1.5306541e-12 </wgt>
<wgt id='1624'> +1.5077287e-12 </wgt>
<wgt id='1625'> +1.4717598e-12 </wgt>
<wgt id='1626'> +1.4810684e-12 </wgt>
<wgt id='1627'> +1.5170353e-12 </wgt>
<wgt id='1628'> +1.5384354e-12 </wgt>
<wgt id='1629'> +1.5283278e-12 </wgt>
<wgt id='1630'> +1.4914850e-12 </wgt>
<wgt id='1631'> +1.5013828e-12 </wgt>
<wgt id='1632'> +1.4754724e-12 </wgt>
<wgt id='1633'> +1.4868273e-12 </wgt>
<wgt id='1634'> +1.5025866e-12 </wgt>
<wgt id='1635'> +1.4804138e-12 </wgt>
<wgt id='1636'> +1.5614243e-12 </wgt>
<wgt id='1637'> +1.4659682e-12 </wgt>
<wgt id='1638'> +1.4955238e-12 </wgt>
<wgt id='1639'> +1.5209725e-12 </wgt>
<wgt id='1640'> +1.4880819e-12 </wgt>
<wgt id='1641'> +1.4965558e-12 </wgt>
<wgt id='1642'> +1.4863117e-12 </wgt>
<wgt id='1643'> +1.5529589e-12 </wgt>
<wgt id='1644'> +1.4301432e-12 </wgt>
<wgt id='1645'> +1.4861737e-12 </wgt>
<wgt id='1646'> +1.5027390e-12 </wgt>
<wgt id='1647'> +1.5029119e-12 </wgt>
<wgt id='1648'> +1.5094926e-12 </wgt>
<wgt id='1649'> +1.5514779e-12 </wgt>
<wgt id='1650'> +1.4983286e-12 </wgt>
<wgt id='1651'> +1.5209917e-12 </wgt>
<wgt id='1652'> +1.5080282e-12 </wgt>
<wgt id='1653'> +1.5034602e-12 </wgt>
<wgt id='1654'> +1.5114819e-12 </wgt>
<wgt id='1655'> +1.5087971e-12 </wgt>
<wgt id='1656'> +1.4344810e-12 </wgt>
<wgt id='1657'> +1.5035342e-12 </wgt>
<wgt id='1658'> +1.5236683e-12 </wgt>
<wgt id='1659'> +1.5077287e-12 </wgt>
<wgt id='1660'> +1.5097721e-12 </wgt>
<wgt id='1661'> +1.4944190e-12 </wgt>
<wgt id='1662'> +1.4819528e-12 </wgt>
<wgt id='1663'> +1.4871212e-12 </wgt>
<wgt id='1664'> +1.4694453e-12 </wgt>
<wgt id='1665'> +1.4908995e-12 </wgt>
<wgt id='1666'> +1.5195682e-12 </wgt>
<wgt id='1667'> +1.5140507e-12 </wgt>
<wgt id='1668'> +1.5448442e-12 </wgt>
<wgt id='1669'> +1.4389745e-12 </wgt>
<wgt id='1670'> +1.4977730e-12 </wgt>
<wgt id='1671'> +1.4564949e-12 </wgt>
<wgt id='1672'> +1.4714380e-12 </wgt>
<wgt id='1673'> +1.4731031e-12 </wgt>
<wgt id='1674'> +1.4924673e-12 </wgt>
<wgt id='1675'> +1.4706732e-12 </wgt>
<wgt id='1676'> +1.5083567e-12 </wgt>
<wgt id='1677'> +1.5436703e-12 </wgt>
<wgt id='1678'> +1.4853071e-12 </wgt>
<wgt id='1679'> +1.5274255e-12 </wgt>
<wgt id='1680'> +1.4856020e-12 </wgt>
<wgt id='1681'> +1.4880783e-12 </wgt>
<wgt id='1682'> +1.5022283e-12 </wgt>
<wgt id='1683'> +1.4952770e-12 </wgt>
<wgt id='1684'> +1.5026297e-12 </wgt>
<wgt id='1685'> +1.4798959e-12 </wgt>
<wgt id='1686'> +1.5021941e-12 </wgt>
<wgt id='1687'> +1.5287544e-12 </wgt>
<wgt id='1688'> +1.5098599e-12 </wgt>
<wgt id='1689'> +1.4769622e-12 </wgt>
<wgt id='1690'> +1.4563541e-12 </wgt>
<wgt id='1691'> +1.5033741e-12 </wgt>
<wgt id='1692'> +1.5218747e-12 </wgt>
<wgt id='1693'> +1.5238758e-12 </wgt>
<wgt id='1694'> +1.4690168e-12 </wgt>
<wgt id='1695'> +1.5369903e-12 </wgt>
<wgt id='1696'> +1.4922632e-12 </wgt>
<wgt id='1697'> +1.5244975e-12 </wgt>
<wgt id='1698'> +1.4848239e-12 </wgt>
<wgt id='1699'> +1.5162736e-12 </wgt>
<wgt id='1700'> +1.5120954e-12 </wgt>
<wgt id='1701'> +1.5106450e-12 </wgt>
<wgt id='1702'> +1.4938132e-12 </wgt>
<wgt id='1703'> +1.4996596e-12 </wgt>
<wgt id='1704'> +1.5029740e-12 </wgt>
<wgt id='1705'> +1.4880583e-12 </wgt>
<wgt id='1706'> +1.5058134e-12 </wgt>
<wgt id='1707'> +1.5258060e-12 </wgt>
<wgt id='1708'> +1.5016254e-12 </wgt>
<wgt id='1709'> +1.4872827e-12 </wgt>
<wgt id='1710'> +1.4971480e-12 </wgt>
<wgt id='1711'> +1.5627742e-12 </wgt>
<wgt id='1712'> +1.4963410e-12 </wgt>
<wgt id='1713'> +1.2618637e-12 </wgt>
<wgt id='1714'> +1.2557856e-12 </wgt>
<wgt id='1715'> +1.2565592e-12 </wgt>
<wgt id='1716'> +1.2761895e-12 </wgt>
<wgt id='1717'> +1.2627391e-12 </wgt>
<wgt id='1718'> +1.2832573e-12 </wgt>
<wgt id='1719'> +1.3116581e-12 </wgt>
<wgt id='1720'> +1.2541926e-12 </wgt>
<wgt id='1721'> +1.2661224e-12 </wgt>
<wgt id='1722'> +1.2590462e-12 </wgt>
<wgt id='1723'> +1.2181621e-12 </wgt>
<wgt id='1724'> +1.0608977e-12 </wgt>
<wgt id='1725'> +1.3114042e-12 </wgt>
<wgt id='1726'> +1.3227115e-12 </wgt>
<wgt id='1727'> +1.2225959e-12 </wgt>
<wgt id='1728'> +1.2729523e-12 </wgt>
<wgt id='1729'> +1.2526907e-12 </wgt>
<wgt id='1730'> +1.2468471e-12 </wgt>
<wgt id='1731'> +1.2426026e-12 </wgt>
<wgt id='1732'> +1.2987917e-12 </wgt>
<wgt id='1733'> +1.3059822e-12 </wgt>
<wgt id='1734'> +1.2942040e-12 </wgt>
<wgt id='1735'> +1.2000786e-12 </wgt>
<wgt id='1736'> +1.3422785e-12 </wgt>
<wgt id='1737'> +1.3026389e-12 </wgt>
<wgt id='1738'> +1.2628424e-12 </wgt>
<wgt id='1739'> +1.2707416e-12 </wgt>
<wgt id='1740'> +1.2370334e-12 </wgt>
<wgt id='1741'> +1.2593388e-12 </wgt>
<wgt id='1742'> +1.2781253e-12 </wgt>
<wgt id='1743'> +1.2998995e-12 </wgt>
<wgt id='1744'> +1.3002907e-12 </wgt>
<wgt id='1745'> +1.1668025e-12 </wgt>
<wgt id='1746'> +1.2714005e-12 </wgt>
<wgt id='1747'> +1.2928075e-12 </wgt>
<wgt id='1748'> +1.2606497e-12 </wgt>
<wgt id='1749'> +1.2786906e-12 </wgt>
<wgt id='1750'> +1.2825761e-12 </wgt>
<wgt id='1751'> +1.2136451e-12 </wgt>
<wgt id='1752'> +1.2572327e-12 </wgt>
<wgt id='1753'> +1.2683087e-12 </wgt>
<wgt id='1754'> +1.2849354e-12 </wgt>
<wgt id='1755'> +1.2552808e-12 </wgt>
<wgt id='1756'> +1.2559604e-12 </wgt>
<wgt id='1757'> +1.2567044e-12 </wgt>
<wgt id='1758'> +1.2651581e-12 </wgt>
<wgt id='1759'> +1.2998190e-12 </wgt>
<wgt id='1760'> +1.2442704e-12 </wgt>
<wgt id='1761'> +1.2662931e-12 </wgt>
<wgt id='1762'> +1.2881338e-12 </wgt>
<wgt id='1763'> +1.2702529e-12 </wgt>
<wgt id='1764'> +1.2651434e-12 </wgt>
<wgt id='1765'> +1.2430665e-12 </wgt>
<wgt id='1766'> +1.2918981e-12 </wgt>
<wgt id='1767'> +1.2681938e-12 </wgt>
<wgt id='1768'> +1.2465181e-12 </wgt>
<wgt id='1769'> +1.2452636e-12 </wgt>
<wgt id='1770'> +1.3063449e-12 </wgt>
<wgt id='1771'> +1.2500440e-12 </wgt>
<wgt id='1772'> +1.3066834e-12 </wgt>
<wgt id='1773'> +1.2626527e-12 </wgt>
<wgt id='1774'> +1.2731883e-12 </wgt>
<wgt id='1775'> +1.2662362e-12 </wgt>
<wgt id='1776'> +1.2818513e-12 </wgt>
<wgt id='1777'> +1.2010637e-12 </wgt>
<wgt id='1778'> +1.2400244e-12 </wgt>
<wgt id='1779'> +1.2735239e-12 </wgt>
<wgt id='1780'> +1.2818087e-12 </wgt>
<wgt id='1781'> +1.2662250e-12 </wgt>
<wgt id='1782'> +1.2088851e-12 </wgt>
<wgt id='1783'> +1.2457720e-12 </wgt>
<wgt id='1784'> +1.2476324e-12 </wgt>
<wgt id='1785'> +1.2458311e-12 </wgt>
<wgt id='1786'> +1.1663953e-12 </wgt>
<wgt id='1787'> +1.2977027e-12 </wgt>
<wgt id='1788'> +1.2571452e-12 </wgt>
<wgt id='1789'> +1.1672745e-12 </wgt>
<wgt id='1790'> +1.2418619e-12 </wgt>
<wgt id='1791'> +1.2723976e-12 </wgt>
<wgt id='1792'> +1.2242146e-12 </wgt>
<wgt id='1793'> +1.2533008e-12 </wgt>
<wgt id='1794'> +1.2560644e-12 </wgt>
<wgt id='1795'> +1.2752197e-12 </wgt>
<wgt id='1796'> +1.2904105e-12 </wgt>
<wgt id='1797'> +1.2621222e-12 </wgt>
<wgt id='1798'> +1.2493025e-12 </wgt>
<wgt id='1799'> +1.2473999e-12 </wgt>
<wgt id='1800'> +1.2522704e-12 </wgt>
<wgt id='1801'> +1.2537240e-12 </wgt>
<wgt id='1802'> +1.2826474e-12 </wgt>
<wgt id='1803'> +1.2710002e-12 </wgt>
<wgt id='1804'> +1.2757246e-12 </wgt>
<wgt id='1805'> +1.2503191e-12 </wgt>
<wgt id='1806'> +1.2614886e-12 </wgt>
<wgt id='1807'> +1.2594694e-12 </wgt>
<wgt id='1808'> +1.2553017e-12 </wgt>
<wgt id='1809'> +1.2619141e-12 </wgt>
<wgt id='1810'> +1.2838328e-12 </wgt>
<wgt id='1811'> +1.3041390e-12 </wgt>
<wgt id='1812'> +1.2993963e-12 </wgt>
<wgt id='1813'> +1.2997895e-12 </wgt>
<wgt id='1814'> +1.2572847e-12 </wgt>
<wgt id='1815'> +1.3844153e-12 </wgt>
<wgt id='1816'> +1.2618637e-12 </wgt>
<wgt id='1817'> +1.2557856e-12 </wgt>
<wgt id='1818'> +1.2565592e-12 </wgt>
<wgt id='1819'> +1.2761895e-12 </wgt>
<wgt id='1820'> +1.2627391e-12 </wgt>
<wgt id='1821'> +1.2832573e-12 </wgt>
<wgt id='1822'> +1.3116581e-12 </wgt>
<wgt id='1823'> +1.2541926e-12 </wgt>
<wgt id='1824'> +1.2661224e-12 </wgt>
<wgt id='1825'> +1.2590462e-12 </wgt>
<wgt id='1826'> +1.2181621e-12 </wgt>
<wgt id='1827'> +1.0608977e-12 </wgt>
<wgt id='1828'> +1.3114042e-12 </wgt>
<wgt id='1829'> +1.3227115e-12 </wgt>
<wgt id='1830'> +1.2225959e-12 </wgt>
<wgt id='1831'> +1.2729523e-12 </wgt>
<wgt id='1832'> +1.2526907e-12 </wgt>
<wgt id='1833'> +1.2468471e-12 </wgt>
<wgt id='1834'> +1.2426026e-12 </wgt>
<wgt id='1835'> +1.2987917e-12 </wgt>
<wgt id='1836'> +1.3059822e-12 </wgt>
<wgt id='1837'> +1.2942040e-12 </wgt>
<wgt id='1838'> +1.2000786e-12 </wgt>
<wgt id='1839'> +1.3422785e-12 </wgt>
<wgt id='1840'> +1.3026389e-12 </wgt>
<wgt id='1841'> +1.2628424e-12 </wgt>
<wgt id='1842'> +1.2707416e-12 </wgt>
<wgt id='1843'> +1.2370334e-12 </wgt>
<wgt id='1844'> +1.2593388e-12 </wgt>
<wgt id='1845'> +1.2781253e-12 </wgt>
<wgt id='1846'> +1.2998995e-12 </wgt>
<wgt id='1847'> +1.3002907e-12 </wgt>
<wgt id='1848'> +1.1668025e-12 </wgt>
<wgt id='1849'> +1.2714005e-12 </wgt>
<wgt id='1850'> +1.2928075e-12 </wgt>
<wgt id='1851'> +1.2606497e-12 </wgt>
<wgt id='1852'> +1.2786906e-12 </wgt>
<wgt id='1853'> +1.2825761e-12 </wgt>
<wgt id='1854'> +1.2136451e-12 </wgt>
<wgt id='1855'> +1.2572327e-12 </wgt>
<wgt id='1856'> +1.2683087e-12 </wgt>
<wgt id='1857'> +1.2849354e-12 </wgt>
<wgt id='1858'> +1.2552808e-12 </wgt>
<wgt id='1859'> +1.2559604e-12 </wgt>
<wgt id='1860'> +1.2567044e-12 </wgt>
<wgt id='1861'> +1.2651581e-12 </wgt>
<wgt id='1862'> +1.2998190e-12 </wgt>
<wgt id='1863'> +1.2442704e-12 </wgt>
<wgt id='1864'> +1.2662931e-12 </wgt>
<wgt id='1865'> +1.2881338e-12 </wgt>
<wgt id='1866'> +1.2702529e-12 </wgt>
<wgt id='1867'> +1.2651434e-12 </wgt>
<wgt id='1868'> +1.2430665e-12 </wgt>
<wgt id='1869'> +1.2918981e-12 </wgt>
<wgt id='1870'> +1.2681938e-12 </wgt>
<wgt id='1871'> +1.2465181e-12 </wgt>
<wgt id='1872'> +1.2452636e-12 </wgt>
<wgt id='1873'> +1.3063449e-12 </wgt>
<wgt id='1874'> +1.2500440e-12 </wgt>
<wgt id='1875'> +1.3066834e-12 </wgt>
<wgt id='1876'> +1.2626527e-12 </wgt>
<wgt id='1877'> +1.2731883e-12 </wgt>
<wgt id='1878'> +1.2662362e-12 </wgt>
<wgt id='1879'> +1.2818513e-12 </wgt>
<wgt id='1880'> +1.2010637e-12 </wgt>
<wgt id='1881'> +1.2400244e-12 </wgt>
<wgt id='1882'> +1.2735239e-12 </wgt>
<wgt id='1883'> +1.2818087e-12 </wgt>
<wgt id='1884'> +1.2662250e-12 </wgt>
<wgt id='1885'> +1.2088851e-12 </wgt>
<wgt id='1886'> +1.2457720e-12 </wgt>
<wgt id='1887'> +1.2476324e-12 </wgt>
<wgt id='1888'> +1.2458311e-12 </wgt>
<wgt id='1889'> +1.1663953e-12 </wgt>
<wgt id='1890'> +1.2977027e-12 </wgt>
<wgt id='1891'> +1.2571452e-12 </wgt>
<wgt id='1892'> +1.1672745e-12 </wgt>
<wgt id='1893'> +1.2418619e-12 </wgt>
<wgt id='1894'> +1.2723976e-12 </wgt>
<wgt id='1895'> +1.2242146e-12 </wgt>
<wgt id='1896'> +1.2533008e-12 </wgt>
<wgt id='1897'> +1.2560644e-12 </wgt>
<wgt id='1898'> +1.2752197e-12 </wgt>
<wgt id='1899'> +1.2904105e-12 </wgt>
<wgt id='1900'> +1.2621222e-12 </wgt>
<wgt id='1901'> +1.2493025e-12 </wgt>
<wgt id='1902'> +1.2473999e-12 </wgt>
<wgt id='1903'> +1.2522704e-12 </wgt>
<wgt id='1904'> +1.2537240e-12 </wgt>
<wgt id='1905'> +1.2826474e-12 </wgt>
<wgt id='1906'> +1.2710002e-12 </wgt>
<wgt id='1907'> +1.2757246e-12 </wgt>
<wgt id='1908'> +1.2503191e-12 </wgt>
<wgt id='1909'> +1.2614886e-12 </wgt>
<wgt id='1910'> +1.2594694e-12 </wgt>
<wgt id='1911'> +1.2553017e-12 </wgt>
<wgt id='1912'> +1.2619141e-12 </wgt>
<wgt id='1913'> +1.2838328e-12 </wgt>
<wgt id='1914'> +1.3041390e-12 </wgt>
<wgt id='1915'> +1.2993963e-12 </wgt>
<wgt id='1916'> +1.2997895e-12 </wgt>
<wgt id='1917'> +1.2531737e-12 </wgt>
<wgt id='1918'> +1.2750382e-12 </wgt>
<wgt id='1919'> +1.2965128e-12 </wgt>
</rwgt>
</event>
<event>
 9      1 +1.5538000e-12 1.01264900e+02 7.81860800e-03 1.15982700e-01
        2 -1    0    0  502    0 -0.0000000000e+00 +0.0000000000e+00 +8.9285828143e+01 8.9285828143e+01 0.0000000000e+00 0.0000e+00 1.0000e+00
       21 -1    0    0  501  502 +0.0000000000e+00 -0.0000000000e+00 -2.8712806641e+01 2.8712806641e+01 0.0000000000e+00 0.0000e+00 -1.0000e+00
     1023  2    1    2    0    0 -6.0387532633e+00 -4.8037427309e+01 +1.8824324019e+01 5.4068870942e+01 1.5000888867e+01 0.0000e+00 0.0000e+00
  1000023  2    3    3    0    0 +4.9501298570e-01 -2.8489873882e+01 +1.4430693787e+01 3.2410132914e+01 5.5003491403e+00 0.0000e+00 0.0000e+00
        2  1    1    2  501    0 +6.0387532633e+00 +4.8037427309e+01 +4.1748697483e+01 6.3929763842e+01 0.0000000000e+00 0.0000e+00 1.0000e+00
  1000022  1    4    4    0    0 +4.9228088994e-01 -2.5753873515e+01 +1.3388182172e+01 2.9457558679e+01 5.0000000000e+00 0.0000e+00 1.0000e+00
      -11  1    4    4    0    0 +3.6734972040e-02 -2.0472980376e+00 +9.4854210934e-01 2.2566592803e+00 5.1100000000e-04 0.0000e+00 1.0000e+00
       11  1    4    4    0    0 -3.4002876275e-02 -6.8870232979e-01 +9.3969505800e-02 6.9591495443e-01 5.1100000000e-04 0.0000e+00 -1.0000e+00
  1000022  1    3    3    0    0 -6.5337662490e+00 -1.9547553427e+01 +4.3936302315e+00 2.1658738028e+01 5.0000000000e+00 0.0000e+00 -1.0000e+00
<mgrwt>
<rscale>  1 0.10126493E+03</rscale>
<asrwt>0</asrwt>
<pdfrwt beam="1">  1       21 0.44173549E-02 0.10126493E+03</pdfrwt>
<pdfrwt beam="2">  1        2 0.13736281E-01 0.10126493E+03</pdfrwt>
<totfact> 0.18723065E+06</totfact>
</mgrwt>
<rwgt>
<wgt id='1001'> +1.5538000e-12 </wgt>
<wgt id='1002'> +1.5551111e-12 </wgt>
<wgt id='1003'> +1.5550512e-12 </wgt>
<wgt id='1004'> +1.5768046e-12 </wgt>
<wgt id='1005'> +1.5538000e-12 </wgt>
<wgt id='1006'> +1.3963255e-12 </wgt>
<wgt id='1007'> +1.3968219e-12 </wgt>
<wgt id='1008'> +1.3967997e-12 </wgt>
<wgt id='1009'> +1.3969246e-12 </wgt>
<wgt id='1010'> +1.3963255e-12 </wgt>
<wgt id='1011'> +1.7528304e-12 </wgt>
<wgt id='1012'> +1.7554117e-12 </wgt>
<wgt id='1013'> +1.7552929e-12 </wgt>
<wgt id='1014'> +1.8122291e-12 </wgt>
<wgt id='1015'> +1.7528304e-12 </wgt>
<wgt id='1016'> +1.6849725e-12 </wgt>
<wgt id='1017'> +1.6878164e-12 </wgt>
<wgt id='1018'> +1.6876852e-12 </wgt>
<wgt id='1019'> +1.7552929e-12 </wgt>
<wgt id='1020'> +1.6849725e-12 </wgt>
<wgt id='1021'> +1.5142040e-12 </wgt>
<wgt id='1022'> +1.5160196e-12 </wgt>
<wgt id='1023'> +1.5159361e-12 </wgt>
<wgt id='1024'> +1.5550512e-12 </wgt>
<wgt id='1025'> +1.5142040e-12 </wgt>
<wgt id='1026'> +1.9008052e-12 </wgt>
<wgt id='1027'> +1.9052096e-12 </wgt>
<wgt id='1028'> +1.9050060e-12 </wgt>
<wgt id='1029'> +2.0173665e-12 </wgt>
<wgt id='1030'> +1.9008052e-12 </wgt>
<wgt id='1031'> +1.3974342e-12 </wgt>
<wgt id='1032'> +1.3968988e-12 </wgt>
<wgt id='1033'> +1.3969246e-12 </wgt>
<wgt id='1034'> +1.3638203e-12 </wgt>
<wgt id='1035'> +1.3974342e-12 </wgt>
<wgt id='1036'> +1.2558071e-12 </wgt>
<wgt id='1037'> +1.2547134e-12 </wgt>
<wgt id='1038'> +1.2547650e-12 </wgt>
<wgt id='1039'> +1.2082373e-12 </wgt>
<wgt id='1040'> +1.2558071e-12 </wgt>
<wgt id='1041'> +1.5764354e-12 </wgt>
<wgt id='1042'> +1.5768214e-12 </wgt>
<wgt id='1043'> +1.5768046e-12 </wgt>
<wgt id='1044'> +1.5674452e-12 </wgt>
<wgt id='1045'> +1.5764354e-12 </wgt>
<wgt id='1046'> +1.5538000e-12 </wgt>
<wgt id='1047'> +1.5854360e-12 </wgt>
<wgt id='1048'> +1.5320529e-12 </wgt>
<wgt id='1049'> +1.5193472e-12 </wgt>
<wgt id='1050'> +1.5315091e-12 </wgt>
<wgt id='1051'> +1.5680398e-12 </wgt>
<wgt id='1052'> +1.5448812e-12 </wgt>
<wgt id='1053'> +1.5450265e-12 </wgt>
<wgt id='1054'> +1.5378897e-12 </wgt>
<wgt id='1055'> +1.5187483e-12 </wgt>
<wgt id='1056'> +1.5596709e-12 </wgt>
<wgt id='1057'> +1.5740233e-12 </wgt>
<wgt id='1058'> +1.5074744e-12 </wgt>
<wgt id='1059'> +1.5554975e-12 </wgt>
<wgt id='1060'> +1.5500152e-12 </wgt>
<wgt id='1061'> +1.5612908e-12 </wgt>
<wgt id='1062'> +1.5755069e-12 </wgt>
<wgt id='1063'> +1.5860697e-12 </wgt>
<wgt id='1064'> +1.5493372e-12 </wgt>
<wgt id='1065'> +1.5589649e-12 </wgt>
<wgt id='1066'> +1.5440114e-12 </wgt>
<wgt id='1067'> +1.5200636e-12 </wgt>
<wgt id='1068'> +1.5668153e-12 </wgt>
<wgt id='1069'> +1.5686599e-12 </wgt>
<wgt id='1070'> +1.5379317e-12 </wgt>
<wgt id='1071'> +1.5055299e-12 </wgt>
<wgt id='1072'> +1.5957197e-12 </wgt>
<wgt id='1073'> +1.5678944e-12 </wgt>
<wgt id='1074'> +1.5326303e-12 </wgt>
<wgt id='1075'> +1.5869046e-12 </wgt>
<wgt id='1076'> +1.5411512e-12 </wgt>
<wgt id='1077'> +1.5618311e-12 </wgt>
<wgt id='1078'> +1.5083837e-12 </wgt>
<wgt id='1079'> +1.5264879e-12 </wgt>
<wgt id='1080'> +1.5320794e-12 </wgt>
<wgt id='1081'> +1.6001395e-12 </wgt>
<wgt id='1082'> +1.5376928e-12 </wgt>
<wgt id='1083'> +1.5849219e-12 </wgt>
<wgt id='1084'> +1.5411968e-12 </wgt>
<wgt id='1085'> +1.5327430e-12 </wgt>
<wgt id='1086'> +1.5512139e-12 </wgt>
<wgt id='1087'> +1.5590430e-12 </wgt>
<wgt id='1088'> +1.5346185e-12 </wgt>
<wgt id='1089'> +1.5682917e-12 </wgt>
<wgt id='1090'> +1.5433640e-12 </wgt>
<wgt id='1091'> +1.5768934e-12 </wgt>
<wgt id='1092'> +1.5864726e-12 </wgt>
<wgt id='1093'> +1.5188062e-12 </wgt>
<wgt id='1094'> +1.5485013e-12 </wgt>
<wgt id='1095'> +1.5699663e-12 </wgt>
<wgt id='1096'> +1.6063033e-12 </wgt>
<wgt id='1097'> +1.5566275e-12 </wgt>
<wgt id='1098'> +1.5322406e-12 </wgt>
<wgt id='1099'> +1.5506121e-12 </wgt>
<wgt id='1100'> +1.5636914e-12 </wgt>
<wgt id='1101'> +1.5871715e-12 </wgt>
<wgt id='1102'> +1.5477450e-12 </wgt>
<wgt id='1103'> +1.5813942e-12 </wgt>
<wgt id='1104'> +1.5277154e-12 </wgt>
<wgt id='1105'> +1.5692668e-12 </wgt>
<wgt id='1106'> +1.5830389e-12 </wgt>
<wgt id='1107'> +1.5351118e-12 </wgt>
<wgt id='1108'> +1.5509066e-12 </wgt>
<wgt id='1109'> +1.6128762e-12 </wgt>
<wgt id='1110'> +1.5390049e-12 </wgt>
<wgt id='1111'> +1.5589751e-12 </wgt>
<wgt id='1112'> +1.5712416e-12 </wgt>
<wgt id='1113'> +1.5779502e-12 </wgt>
<wgt id='1114'> +1.5638106e-12 </wgt>
<wgt id='1115'> +1.5357892e-12 </wgt>
<wgt id='1116'> +1.5397342e-12 </wgt>
<wgt id='1117'> +1.5504268e-12 </wgt>
<wgt id='1118'> +1.6425178e-12 </wgt>
<wgt id='1119'> +1.5011241e-12 </wgt>
<wgt id='1120'> +1.5334383e-12 </wgt>
<wgt id='1121'> +1.5435966e-12 </wgt>
<wgt id='1122'> +1.5872461e-12 </wgt>
<wgt id='1123'> +1.5127869e-12 </wgt>
<wgt id='1124'> +1.5293763e-12 </wgt>
<wgt id='1125'> +1.5438386e-12 </wgt>
<wgt id='1126'> +1.5710357e-12 </wgt>
<wgt id='1127'> +1.5333217e-12 </wgt>
<wgt id='1128'> +1.5755069e-12 </wgt>
<wgt id='1129'> +1.5572152e-12 </wgt>
<wgt id='1130'> +1.5523389e-12 </wgt>
<wgt id='1131'> +1.5416468e-12 </wgt>
<wgt id='1132'> +1.5473813e-12 </wgt>
<wgt id='1133'> +1.5525546e-12 </wgt>
<wgt id='1134'> +1.5686593e-12 </wgt>
<wgt id='1135'> +1.5412011e-12 </wgt>
<wgt id='1136'> +1.5395641e-12 </wgt>
<wgt id='1137'> +1.5477827e-12 </wgt>
<wgt id='1138'> +1.5675927e-12 </wgt>
<wgt id='1139'> +1.5635031e-12 </wgt>
<wgt id='1140'> +1.5739992e-12 </wgt>
<wgt id='1141'> +1.5410059e-12 </wgt>
<wgt id='1142'> +1.5234883e-12 </wgt>
<wgt id='1143'> +1.5629674e-12 </wgt>
<wgt id='1144'> +1.5556255e-12 </wgt>
<wgt id='1145'> +1.5505010e-12 </wgt>
<wgt id='1146'> +1.5658895e-12 </wgt>
<wgt id='1147'> +1.3299172e-12 </wgt>
<wgt id='1148'> +1.3502392e-12 </wgt>
<wgt id='1149'> +1.3589351e-12 </wgt>
<wgt id='1150'> +1.3524495e-12 </wgt>
<wgt id='1151'> +1.3271100e-12 </wgt>
<wgt id='1152'> +1.5808773e-12 </wgt>
<wgt id='1153'> +1.5744192e-12 </wgt>
<wgt id='1154'> +1.5844494e-12 </wgt>
<wgt id='1155'> +1.5795510e-12 </wgt>
<wgt id='1156'> +1.5814379e-12 </wgt>
<wgt id='1157'> +1.5828200e-12 </wgt>
<wgt id='1158'> +1.5781404e-12 </wgt>
<wgt id='1159'> +1.5825744e-12 </wgt>
<wgt id='1160'> +1.5797355e-12 </wgt>
<wgt id='1161'> +1.5783095e-12 </wgt>
<wgt id='1162'> +1.5825784e-12 </wgt>
<wgt id='1163'> +1.5840589e-12 </wgt>
<wgt id='1164'> +1.5776355e-12 </wgt>
<wgt id='1165'> +1.5763902e-12 </wgt>
<wgt id='1166'> +1.5848993e-12 </wgt>
<wgt id='1167'> +1.5830022e-12 </wgt>
<wgt id='1168'> +1.5762205e-12 </wgt>
<wgt id='1169'> +1.5810780e-12 </wgt>
<wgt id='1170'> +1.5805391e-12 </wgt>
<wgt id='1171'> +1.5762141e-12 </wgt>
<wgt id='1172'> +1.5863174e-12 </wgt>
<wgt id='1173'> +1.5730088e-12 </wgt>
<wgt id='1174'> +1.5877483e-12 </wgt>
<wgt id='1175'> +1.5798439e-12 </wgt>
<wgt id='1176'> +1.5807083e-12 </wgt>
<wgt id='1177'> +1.5811430e-12 </wgt>
<wgt id='1178'> +1.5800976e-12 </wgt>
<wgt id='1179'> +1.5879274e-12 </wgt>
<wgt id='1180'> +1.5682946e-12 </wgt>
<wgt id='1181'> +1.5760072e-12 </wgt>
<wgt id='1182'> +1.5852307e-12 </wgt>
<wgt id='1183'> +1.5790401e-12 </wgt>
<wgt id='1184'> +1.5809834e-12 </wgt>
<wgt id='1185'> +1.5772938e-12 </wgt>
<wgt id='1186'> +1.5831183e-12 </wgt>
<wgt id='1187'> +1.5807457e-12 </wgt>
<wgt id='1188'> +1.5808332e-12 </wgt>
<wgt id='1189'> +1.5796889e-12 </wgt>
<wgt id='1190'> +1.5720015e-12 </wgt>
<wgt id='1191'> +1.5721724e-12 </wgt>
<wgt id='1192'> +1.5827970e-12 </wgt>
<wgt id='1193'> +1.3388270e-12 </wgt>
<wgt id='1194'> +1.3400451e-12 </wgt>
<wgt id='1195'> +1.3378122e-12 </wgt>
<wgt id='1196'> +1.3445953e-12 </wgt>
<wgt id='1197'> +1.3324830e-12 </wgt>
<wgt id='1198'> +1.3386482e-12 </wgt>
<wgt id='1199'> +1.3391563e-12 </wgt>
<wgt id='1200'> +1.3396199e-12 </wgt>
<wgt id='1201'> +1.3383197e-12 </wgt>
<wgt id='1202'> +1.3377072e-12 </wgt>
<wgt id='1203'> +1.3404283e-12 </wgt>
<wgt id='1204'> +1.3321370e-12 </wgt>
<wgt id='1205'> +1.3429218e-12 </wgt>
<wgt id='1206'> +1.3420101e-12 </wgt>
<wgt id='1207'> +1.3345416e-12 </wgt>
<wgt id='1208'> +1.3338534e-12 </wgt>
<wgt id='1209'> +1.3406534e-12 </wgt>
<wgt id='1210'> +1.3448962e-12 </wgt>
<wgt id='1211'> +1.3268476e-12 </wgt>
<wgt id='1212'> +1.3388540e-12 </wgt>
<wgt id='1213'> +1.3388125e-12 </wgt>
<wgt id='1214'> +1.3275902e-12 </wgt>
<wgt id='1215'> +1.3575363e-12 </wgt>
<wgt id='1216'> +1.3423533e-12 </wgt>
<wgt id='1217'> +1.3361778e-12 </wgt>
<wgt id='1218'> +1.3423263e-12 </wgt>
<wgt id='1219'> +1.3370620e-12 </wgt>
<wgt id='1220'> +1.3414303e-12 </wgt>
<wgt id='1221'> +1.3383055e-12 </wgt>
<wgt id='1222'> +1.3386897e-12 </wgt>
<wgt id='1223'> +1.3375304e-12 </wgt>
<wgt id='1224'> +1.3407257e-12 </wgt>
<wgt id='1225'> +1.3381394e-12 </wgt>
<wgt id='1226'> +1.3373248e-12 </wgt>
<wgt id='1227'> +1.3399681e-12 </wgt>
<wgt id='1228'> +1.3294523e-12 </wgt>
<wgt id='1229'> +1.3429152e-12 </wgt>
<wgt id='1230'> +1.3327331e-12 </wgt>
<wgt id='1231'> +1.3335551e-12 </wgt>
<wgt id='1232'> +1.3358409e-12 </wgt>
<wgt id='1233'> +1.3396370e-12 </wgt>
<wgt id='1234'> +1.3388270e-12 </wgt>
<wgt id='1235'> +1.3312980e-12 </wgt>
<wgt id='1236'> +1.3341202e-12 </wgt>
<wgt id='1237'> +1.3365412e-12 </wgt>
<wgt id='1238'> +1.3408116e-12 </wgt>
<wgt id='1239'> +1.3425528e-12 </wgt>
<wgt id='1240'> +1.3442028e-12 </wgt>
<wgt id='1241'> +1.3065778e-12 </wgt>
<wgt id='1242'> +1.3049749e-12 </wgt>
<wgt id='1243'> +1.3081595e-12 </wgt>
<wgt id='1244'> +1.2996788e-12 </wgt>
<wgt id='1245'> +1.3115859e-12 </wgt>
<wgt id='1246'> +1.3064913e-12 </wgt>
<wgt id='1247'> +1.3067019e-12 </wgt>
<wgt id='1248'> +1.3064430e-12 </wgt>
<wgt id='1249'> +1.3065926e-12 </wgt>
<wgt id='1250'> +1.3082691e-12 </wgt>
<wgt id='1251'> +1.3053335e-12 </wgt>
<wgt id='1252'> +1.3041956e-12 </wgt>
<wgt id='1253'> +1.3083689e-12 </wgt>
<wgt id='1254'> +1.2989663e-12 </wgt>
<wgt id='1255'> +1.3111169e-12 </wgt>
<wgt id='1256'> +1.3094028e-12 </wgt>
<wgt id='1257'> +1.2993453e-12 </wgt>
<wgt id='1258'> +1.3222735e-12 </wgt>
<wgt id='1259'> +1.2925053e-12 </wgt>
<wgt id='1260'> +1.3089674e-12 </wgt>
<wgt id='1261'> +1.3038562e-12 </wgt>
<wgt id='1262'> +1.3049659e-12 </wgt>
<wgt id='1263'> +1.3069295e-12 </wgt>
<wgt id='1264'> +1.3098230e-12 </wgt>
<wgt id='1265'> +1.3047947e-12 </wgt>
<wgt id='1266'> +1.3016443e-12 </wgt>
<wgt id='1267'> +1.3105605e-12 </wgt>
<wgt id='1268'> +1.3077011e-12 </wgt>
<wgt id='1269'> +1.3074107e-12 </wgt>
<wgt id='1270'> +1.3014969e-12 </wgt>
<wgt id='1271'> +1.3018186e-12 </wgt>
<wgt id='1272'> +1.3059524e-12 </wgt>
<wgt id='1273'> +1.3062745e-12 </wgt>
<wgt id='1274'> +1.3080876e-12 </wgt>
<wgt id='1275'> +1.3034589e-12 </wgt>
<wgt id='1276'> +1.3120455e-12 </wgt>
<wgt id='1277'> +1.2984546e-12 </wgt>
<wgt id='1278'> +1.3061701e-12 </wgt>
<wgt id='1279'> +1.3002777e-12 </wgt>
<wgt id='1280'> +1.3075489e-12 </wgt>
<wgt id='1281'> +1.2999614e-12 </wgt>
<wgt id='1282'> +1.3065778e-12 </wgt>
<wgt id='1283'> +1.2989859e-12 </wgt>
<wgt id='1284'> +1.3018705e-12 </wgt>
<wgt id='1285'> +1.3043830e-12 </wgt>
<wgt id='1286'> +1.3086182e-12 </wgt>
<wgt id='1287'> +1.3102684e-12 </wgt>
<wgt id='1288'> +1.3117558e-12 </wgt>
<wgt id='1289'> +1.4302742e-12 </wgt>
<wgt id='1290'> +1.4280603e-12 </wgt>
<wgt id='1291'> +1.4326888e-12 </wgt>
<wgt id='1292'> +1.4267149e-12 </wgt>
<wgt id='1293'> +1.4328589e-12 </wgt>
<wgt id='1294'> +1.4279975e-12 </wgt>
<wgt id='1295'> +1.4324953e-12 </wgt>
<wgt id='1296'> +1.4259124e-12 </wgt>
<wgt id='1297'> +1.4356993e-12 </wgt>
<wgt id='1298'> +1.4324125e-12 </wgt>
<wgt id='1299'> +1.4276725e-12 </wgt>
<wgt id='1300'> +1.4320132e-12 </wgt>
<wgt id='1301'> +1.4269001e-12 </wgt>
<wgt id='1302'> +1.4290126e-12 </wgt>
<wgt id='1303'> +1.4321111e-12 </wgt>
<wgt id='1304'> +1.4281583e-12 </wgt>
<wgt id='1305'> +1.4317962e-12 </wgt>
<wgt id='1306'> +1.4259875e-12 </wgt>
<wgt id='1307'> +1.4351633e-12 </wgt>
<wgt id='1308'> +1.4291960e-12 </wgt>
<wgt id='1309'> +1.4311304e-12 </wgt>
<wgt id='1310'> +1.4296330e-12 </wgt>
<wgt id='1311'> +1.4310748e-12 </wgt>
<wgt id='1312'> +1.4293771e-12 </wgt>
<wgt id='1313'> +1.4311472e-12 </wgt>
<wgt id='1314'> +1.4349962e-12 </wgt>
<wgt id='1315'> +1.4221029e-12 </wgt>
<wgt id='1316'> +1.4360822e-12 </wgt>
<wgt id='1317'> +1.4287898e-12 </wgt>
<wgt id='1318'> +1.4391411e-12 </wgt>
<wgt id='1319'> +1.4198975e-12 </wgt>
<wgt id='1320'> +1.4357655e-12 </wgt>
<wgt id='1321'> +1.4259080e-12 </wgt>
<wgt id='1322'> +1.4302140e-12 </wgt>
<wgt id='1323'> +1.4301279e-12 </wgt>
<wgt id='1324'> +1.4256772e-12 </wgt>
<wgt id='1325'> +1.4445122e-12 </wgt>
<wgt id='1326'> +1.4302436e-12 </wgt>
<wgt id='1327'> +1.4316163e-12 </wgt>
<wgt id='1328'> +1.4306657e-12 </wgt>
<wgt id='1329'> +1.4298073e-12 </wgt>
<wgt id='1330'> +1.4232872e-12 </wgt>
<wgt id='1331'> +1.4378026e-12 </wgt>
<wgt id='1332'> +1.4455541e-12 </wgt>
<wgt id='1333'> +1.4199952e-12 </wgt>
<wgt id='1334'> +1.4273846e-12 </wgt>
<wgt id='1335'> +1.4383088e-12 </wgt>
<wgt id='1336'> +1.4258448e-12 </wgt>
<wgt id='1337'> +1.4271486e-12 </wgt>
<wgt id='1338'> +1.4277974e-12 </wgt>
<wgt id='1339'> +1.4306313e-12 </wgt>
<wgt id='1340'> +1.4108469e-12 </wgt>
<wgt id='1341'> +1.4087703e-12 </wgt>
<wgt id='1342'> +1.4131038e-12 </wgt>
<wgt id='1343'> +1.4071253e-12 </wgt>
<wgt id='1344'> +1.4133511e-12 </wgt>
<wgt id='1345'> +1.4087285e-12 </wgt>
<wgt id='1346'> +1.4129157e-12 </wgt>
<wgt id='1347'> +1.4065824e-12 </wgt>
<wgt id='1348'> +1.4156389e-12 </wgt>
<wgt id='1349'> +1.4126881e-12 </wgt>
<wgt id='1350'> +1.4089736e-12 </wgt>
<wgt id='1351'> +1.4124517e-12 </wgt>
<wgt id='1352'> +1.4073413e-12 </wgt>
<wgt id='1353'> +1.4090606e-12 </wgt>
<wgt id='1354'> +1.4141092e-12 </wgt>
<wgt id='1355'> +1.4087660e-12 </wgt>
<wgt id='1356'> +1.4120076e-12 </wgt>
<wgt id='1357'> +1.4061101e-12 </wgt>
<wgt id='1358'> +1.4164670e-12 </wgt>
<wgt id='1359'> +1.4110637e-12 </wgt>
<wgt id='1360'> +1.4107366e-12 </wgt>
<wgt id='1361'> +1.4099393e-12 </wgt>
<wgt id='1362'> +1.4121455e-12 </wgt>
<wgt id='1363'> +1.4093991e-12 </wgt>
<wgt id='1364'> +1.4118607e-12 </wgt>
<wgt id='1365'> +1.4022364e-12 </wgt>
<wgt id='1366'> +1.4167305e-12 </wgt>
<wgt id='1367'> +1.4163300e-12 </wgt>
<wgt id='1368'> +1.4094877e-12 </wgt>
<wgt id='1369'> +1.4185452e-12 </wgt>
<wgt id='1370'> +1.4017770e-12 </wgt>
<wgt id='1371'> +1.4145994e-12 </wgt>
<wgt id='1372'> +1.4065648e-12 </wgt>
<wgt id='1373'> +1.4100629e-12 </wgt>
<wgt id='1374'> +1.4112165e-12 </wgt>
<wgt id='1375'> +1.4063370e-12 </wgt>
<wgt id='1376'> +1.4258308e-12 </wgt>
<wgt id='1377'> +1.4107026e-12 </wgt>
<wgt id='1378'> +1.4125493e-12 </wgt>
<wgt id='1379'> +1.4109019e-12 </wgt>
<wgt id='1380'> +1.4106843e-12 </wgt>
<wgt id='1381'> +1.4040713e-12 </wgt>
<wgt id='1382'> +1.4170783e-12 </wgt>
<wgt id='1383'> +1.4259111e-12 </wgt>
<wgt id='1384'> +1.4012046e-12 </wgt>
<wgt id='1385'> +1.4082253e-12 </wgt>
<wgt id='1386'> +1.4178177e-12 </wgt>
<wgt id='1387'> +1.4051899e-12 </wgt>
<wgt id='1388'> +1.4076450e-12 </wgt>
<wgt id='1389'> +1.4067573e-12 </wgt>
<wgt id='1390'> +1.4113484e-12 </wgt>
<wgt id='1391'> +1.3665913e-12 </wgt>
<wgt id='1392'> +1.3406935e-12 </wgt>
<wgt id='1393'> +1.3492282e-12 </wgt>
<wgt id='1394'> +1.3586147e-12 </wgt>
<wgt id='1395'> +1.3752687e-12 </wgt>
<wgt id='1396'> +1.3672739e-12 </wgt>
<wgt id='1397'> +1.3397958e-12 </wgt>
<wgt id='1398'> +1.3456969e-12 </wgt>
<wgt id='1399'> +1.3509469e-12 </wgt>
<wgt id='1400'> +1.3562196e-12 </wgt>
<wgt id='1401'> +1.3618393e-12 </wgt>
<wgt id='1402'> +1.3725007e-12 </wgt>
<wgt id='1403'> +1.3775689e-12 </wgt>
<wgt id='1404'> +1.3823344e-12 </wgt>
<wgt id='1405'> +1.3672739e-12 </wgt>
<wgt id='1406'> +1.3633494e-12 </wgt>
<wgt id='1407'> +1.3654611e-12 </wgt>
<wgt id='1408'> +1.3690034e-12 </wgt>
<wgt id='1409'> +1.3708437e-12 </wgt>
<wgt id='1410'> +1.3398213e-12 </wgt>
<wgt id='1411'> +1.3374457e-12 </wgt>
<wgt id='1412'> +1.3428995e-12 </wgt>
<wgt id='1413'> +1.3416448e-12 </wgt>
<wgt id='1414'> +1.3380955e-12 </wgt>
<wgt id='1415'> +1.3353159e-12 </wgt>
<wgt id='1416'> +1.3416220e-12 </wgt>
<wgt id='1417'> +1.3332045e-12 </wgt>
<wgt id='1418'> +1.3464186e-12 </wgt>
<wgt id='1419'> +1.3406717e-12 </wgt>
<wgt id='1420'> +1.3390264e-12 </wgt>
<wgt id='1421'> +1.3325490e-12 </wgt>
<wgt id='1422'> +1.3429887e-12 </wgt>
<wgt id='1423'> +1.3396641e-12 </wgt>
<wgt id='1424'> +1.3401126e-12 </wgt>
<wgt id='1425'> +1.3363965e-12 </wgt>
<wgt id='1426'> +1.3435443e-12 </wgt>
<wgt id='1427'> +1.3347864e-12 </wgt>
<wgt id='1428'> +1.3425229e-12 </wgt>
<wgt id='1429'> +1.3389412e-12 </wgt>
<wgt id='1430'> +1.3410011e-12 </wgt>
<wgt id='1431'> +1.3386774e-12 </wgt>
<wgt id='1432'> +1.3405861e-12 </wgt>
<wgt id='1433'> +1.3448269e-12 </wgt>
<wgt id='1434'> +1.3346140e-12 </wgt>
<wgt id='1435'> +1.3412657e-12 </wgt>
<wgt id='1436'> +1.3360268e-12 </wgt>
<wgt id='1437'> +1.3456213e-12 </wgt>
<wgt id='1438'> +1.3372647e-12 </wgt>
<wgt id='1439'> +1.3346753e-12 </wgt>
<wgt id='1440'> +1.3528155e-12 </wgt>
<wgt id='1441'> +1.3405571e-12 </wgt>
<wgt id='1442'> +1.3391482e-12 </wgt>
<wgt id='1443'> +1.3362509e-12 </wgt>
<wgt id='1444'> +1.3473698e-12 </wgt>
<wgt id='1445'> +1.3528870e-12 </wgt>
<wgt id='1446'> +1.3349215e-12 </wgt>
<wgt id='1447'> +1.3389143e-12 </wgt>
<wgt id='1448'> +1.3423713e-12 </wgt>
<wgt id='1449'> +1.3402819e-12 </wgt>
<wgt id='1450'> +1.3393552e-12 </wgt>
<wgt id='1451'> +1.3417231e-12 </wgt>
<wgt id='1452'> +1.3325242e-12 </wgt>
<wgt id='1453'> +1.3410165e-12 </wgt>
<wgt id='1454'> +1.3309048e-12 </wgt>
<wgt id='1455'> +1.3309960e-12 </wgt>
<wgt id='1456'> +1.3424354e-12 </wgt>
<wgt id='1457'> +1.3427598e-12 </wgt>
<wgt id='1458'> +1.3380450e-12 </wgt>
<wgt id='1459'> +1.3408758e-12 </wgt>
<wgt id='1460'> +1.3350904e-12 </wgt>
<wgt id='1461'> +1.3398213e-12 </wgt>
<wgt id='1462'> +1.3320380e-12 </wgt>
<wgt id='1463'> +1.3466954e-12 </wgt>
<wgt id='1464'> +1.3402068e-12 </wgt>
<wgt id='1465'> +1.3171518e-12 </wgt>
<wgt id='1466'> +1.3220888e-12 </wgt>
<wgt id='1467'> +1.3274454e-12 </wgt>
<wgt id='1468'> +1.3311626e-12 </wgt>
<wgt id='1469'> +1.3357453e-12 </wgt>
<wgt id='1470'> +1.3450250e-12 </wgt>
<wgt id='1471'> +1.3482488e-12 </wgt>
<wgt id='1472'> +1.3526057e-12 </wgt>
<wgt id='1473'> +1.3402068e-12 </wgt>
<wgt id='1474'> +1.3361922e-12 </wgt>
<wgt id='1475'> +1.3376975e-12 </wgt>
<wgt id='1476'> +1.3419432e-12 </wgt>
<wgt id='1477'> +1.3436588e-12 </wgt>
<wgt id='1478'> +1.3327311e-12 </wgt>
<wgt id='1479'> +1.3296981e-12 </wgt>
<wgt id='1480'> +1.3288036e-12 </wgt>
<wgt id='1481'> +1.3276462e-12 </wgt>
<wgt id='1482'> +1.3294114e-12 </wgt>
<wgt id='1483'> +1.3232991e-12 </wgt>
<wgt id='1484'> +1.3334007e-12 </wgt>
<wgt id='1485'> +1.3256132e-12 </wgt>
<wgt id='1486'> +1.3330149e-12 </wgt>
<wgt id='1487'> +1.3301195e-12 </wgt>
<wgt id='1488'> +1.3307327e-12 </wgt>
<wgt id='1489'> +1.3496955e-12 </wgt>
<wgt id='1490'> +1.3291557e-12 </wgt>
<wgt id='1491'> +1.3310934e-12 </wgt>
<wgt id='1492'> +1.3365974e-12 </wgt>
<wgt id='1493'> +1.3227395e-12 </wgt>
<wgt id='1494'> +1.3394101e-12 </wgt>
<wgt id='1495'> +1.3212866e-12 </wgt>
<wgt id='1496'> +1.3318640e-12 </wgt>
<wgt id='1497'> +1.3333923e-12 </wgt>
<wgt id='1498'> +1.3328645e-12 </wgt>
<wgt id='1499'> +1.3331708e-12 </wgt>
<wgt id='1500'> +1.3317585e-12 </wgt>
<wgt id='1501'> +1.3336049e-12 </wgt>
<wgt id='1502'> +1.3364039e-12 </wgt>
<wgt id='1503'> +1.3314905e-12 </wgt>
<wgt id='1504'> +1.3325447e-12 </wgt>
<wgt id='1505'> +1.3317937e-12 </wgt>
<wgt id='1506'> +1.3313324e-12 </wgt>
<wgt id='1507'> +1.3314470e-12 </wgt>
<wgt id='1508'> +1.3374808e-12 </wgt>
<wgt id='1509'> +1.3631596e-12 </wgt>
<wgt id='1510'> +1.3623652e-12 </wgt>
<wgt id='1511'> +1.3675691e-12 </wgt>
<wgt id='1512'> +1.3663429e-12 </wgt>
<wgt id='1513'> +1.3648053e-12 </wgt>
<wgt id='1514'> +1.3625884e-12 </wgt>
<wgt id='1515'> +1.3612371e-12 </wgt>
<wgt id='1516'> +1.3609784e-12 </wgt>
<wgt id='1517'> +1.3637541e-12 </wgt>
<wgt id='1518'> +1.3667358e-12 </wgt>
<wgt id='1519'> +1.3588049e-12 </wgt>
<wgt id='1520'> +1.3673144e-12 </wgt>
<wgt id='1521'> +1.3692889e-12 </wgt>
<wgt id='1522'> +1.3676083e-12 </wgt>
<wgt id='1523'> +1.3704472e-12 </wgt>
<wgt id='1524'> +1.3657423e-12 </wgt>
<wgt id='1525'> +1.3667512e-12 </wgt>
<wgt id='1526'> +1.3613097e-12 </wgt>
<wgt id='1527'> +1.3612237e-12 </wgt>
<wgt id='1528'> +1.3646017e-12 </wgt>
<wgt id='1529'> +1.3625119e-12 </wgt>
<wgt id='1530'> +1.3686840e-12 </wgt>
<wgt id='1531'> +1.3647956e-12 </wgt>
<wgt id='1532'> +1.3574341e-12 </wgt>
<wgt id='1533'> +1.3630917e-12 </wgt>
<wgt id='1534'> +1.3668612e-12 </wgt>
<wgt id='1535'> +1.3550850e-12 </wgt>
<wgt id='1536'> +1.3605040e-12 </wgt>
<wgt id='1537'> +1.3601061e-12 </wgt>
<wgt id='1538'> +1.3635564e-12 </wgt>
<wgt id='1539'> +1.3722573e-12 </wgt>
<wgt id='1540'> +1.3654544e-12 </wgt>
<wgt id='1541'> +1.3631058e-12 </wgt>
<wgt id='1542'> +1.3609507e-12 </wgt>
<wgt id='1543'> +1.3634526e-12 </wgt>
<wgt id='1544'> +1.3631460e-12 </wgt>
<wgt id='1545'> +1.3621380e-12 </wgt>
<wgt id='1546'> +1.3601386e-12 </wgt>
<wgt id='1547'> +1.3633513e-12 </wgt>
<wgt id='1548'> +1.3622941e-12 </wgt>
<wgt id='1549'> +1.3623306e-12 </wgt>
<wgt id='1550'> +1.3638366e-12 </wgt>
<wgt id='1551'> +1.3652304e-12 </wgt>
<wgt id='1552'> +1.3637077e-12 </wgt>
<wgt id='1553'> +1.3625061e-12 </wgt>
<wgt id='1554'> +1.3651205e-12 </wgt>
<wgt id='1555'> +1.3647916e-12 </wgt>
<wgt id='1556'> +1.3628897e-12 </wgt>
<wgt id='1557'> +1.3657006e-12 </wgt>
<wgt id='1558'> +1.3614291e-12 </wgt>
<wgt id='1559'> +1.3630869e-12 </wgt>
<wgt id='1560'> +1.3655041e-12 </wgt>
<wgt id='1561'> +1.3619926e-12 </wgt>
<wgt id='1562'> +1.3633650e-12 </wgt>
<wgt id='1563'> +1.3642267e-12 </wgt>
<wgt id='1564'> +1.3634411e-12 </wgt>
<wgt id='1565'> +1.3630383e-12 </wgt>
<wgt id='1566'> +1.3635677e-12 </wgt>
<wgt id='1567'> +1.3649036e-12 </wgt>
<wgt id='1568'> +1.3613200e-12 </wgt>
<wgt id='1569'> +1.3627682e-12 </wgt>
<wgt id='1570'> +1.3626980e-12 </wgt>
<wgt id='1571'> +1.3629095e-12 </wgt>
<wgt id='1572'> +1.3624831e-12 </wgt>
<wgt id='1573'> +1.3620139e-12 </wgt>
<wgt id='1574'> +1.3629478e-12 </wgt>
<wgt id='1575'> +1.3634789e-12 </wgt>
<wgt id='1576'> +1.3634875e-12 </wgt>
<wgt id='1577'> +1.3639517e-12 </wgt>
<wgt id='1578'> +1.3633051e-12 </wgt>
<wgt id='1579'> +1.3627507e-12 </wgt>
<wgt id='1580'> +1.3626524e-12 </wgt>
<wgt id='1581'> +1.3645388e-12 </wgt>
<wgt id='1582'> +1.3631501e-12 </wgt>
<wgt id='1583'> +1.3634304e-12 </wgt>
<wgt id='1584'> +1.3636441e-12 </wgt>
<wgt id='1585'> +1.3630400e-12 </wgt>
<wgt id='1586'> +1.3634650e-12 </wgt>
<wgt id='1587'> +1.3641075e-12 </wgt>
<wgt id='1588'> +1.3626441e-12 </wgt>
<wgt id='1589'> +1.3641063e-12 </wgt>
<wgt id='1590'> +1.3633351e-12 </wgt>
<wgt id='1591'> +1.3636130e-12 </wgt>
<wgt id='1592'> +1.3626997e-12 </wgt>
<wgt id='1593'> +1.3621381e-12 </wgt>
<wgt id='1594'> +1.3632905e-12 </wgt>
<wgt id='1595'> +1.3635278e-12 </wgt>
<wgt id='1596'> +1.3635834e-12 </wgt>
<wgt id='1597'> +1.3626648e-12 </wgt>
<wgt id='1598'> +1.3631758e-12 </wgt>
<wgt id='1599'> +1.3632894e-12 </wgt>
<wgt id='1600'> +1.3636287e-12 </wgt>
<wgt id='1601'> +1.3625137e-12 </wgt>
<wgt id='1602'> +1.3625304e-12 </wgt>
<wgt id='1603'> +1.3629841e-12 </wgt>
<wgt id='1604'> +1.3636041e-12 </wgt>
<wgt id='1605'> +1.3634010e-12 </wgt>
<wgt id='1606'> +1.3630700e-12 </wgt>
<wgt id='1607'> +1.3635011e-12 </wgt>
<wgt id='1608'> +1.3633902e-12 </wgt>
<wgt id='1609'> +1.3628947e-12 </wgt>
<wgt id='1610'> +1.3466799e-12 </wgt>
<wgt id='1611'> +1.3758197e-12 </wgt>
<wgt id='1612'> +1.5307943e-12 </wgt>
<wgt id='1613'> +1.5224430e-12 </wgt>
<wgt id='1614'> +1.5361269e-12 </wgt>
<wgt id='1615'> +1.5102792e-12 </wgt>
<wgt id='1616'> +1.5469725e-12 </wgt>
<wgt id='1617'> +1.5373619e-12 </wgt>
<wgt id='1618'> +1.5398335e-12 </wgt>
<wgt id='1619'> +1.5515295e-12 </wgt>
<wgt id='1620'> +1.4840182e-12 </wgt>
<wgt id='1621'> +1.5410040e-12 </wgt>
<wgt id='1622'> +1.5332597e-12 </wgt>
<wgt id='1623'> +1.5256940e-12 </wgt>
<wgt id='1624'> +1.5063840e-12 </wgt>
<wgt id='1625'> +1.5252358e-12 </wgt>
<wgt id='1626'> +1.5065337e-12 </wgt>
<wgt id='1627'> +1.5127507e-12 </wgt>
<wgt id='1628'> +1.5119414e-12 </wgt>
<wgt id='1629'> +1.5763247e-12 </wgt>
<wgt id='1630'> +1.5219965e-12 </wgt>
<wgt id='1631'> +1.5167127e-12 </wgt>
<wgt id='1632'> +1.5110694e-12 </wgt>
<wgt id='1633'> +1.4945897e-12 </wgt>
<wgt id='1634'> +1.5732582e-12 </wgt>
<wgt id='1635'> +1.5559428e-12 </wgt>
<wgt id='1636'> +1.5586232e-12 </wgt>
<wgt id='1637'> +1.5060417e-12 </wgt>
<wgt id='1638'> +1.5611611e-12 </wgt>
<wgt id='1639'> +1.5294926e-12 </wgt>
<wgt id='1640'> +1.5571065e-12 </wgt>
<wgt id='1641'> +1.5202609e-12 </wgt>
<wgt id='1642'> +1.5317290e-12 </wgt>
<wgt id='1643'> +1.5292178e-12 </wgt>
<wgt id='1644'> +1.5000802e-12 </wgt>
<wgt id='1645'> +1.5506459e-12 </wgt>
<wgt id='1646'> +1.5148279e-12 </wgt>
<wgt id='1647'> +1.5249936e-12 </wgt>
<wgt id='1648'> +1.5519812e-12 </wgt>
<wgt id='1649'> +1.5241742e-12 </wgt>
<wgt id='1650'> +1.5150929e-12 </wgt>
<wgt id='1651'> +1.4836846e-12 </wgt>
<wgt id='1652'> +1.5018457e-12 </wgt>
<wgt id='1653'> +1.5520745e-12 </wgt>
<wgt id='1654'> +1.5360820e-12 </wgt>
<wgt id='1655'> +1.4945946e-12 </wgt>
<wgt id='1656'> +1.4965868e-12 </wgt>
<wgt id='1657'> +1.4977798e-12 </wgt>
<wgt id='1658'> +1.5029454e-12 </wgt>
<wgt id='1659'> +1.5063840e-12 </wgt>
<wgt id='1660'> +1.5726521e-12 </wgt>
<wgt id='1661'> +1.5112566e-12 </wgt>
<wgt id='1662'> +1.5340345e-12 </wgt>
<wgt id='1663'> +1.5321971e-12 </wgt>
<wgt id='1664'> +1.5367756e-12 </wgt>
<wgt id='1665'> +1.5030423e-12 </wgt>
<wgt id='1666'> +1.5221147e-12 </wgt>
<wgt id='1667'> +1.5055769e-12 </wgt>
<wgt id='1668'> +1.5600757e-12 </wgt>
<wgt id='1669'> +1.5228902e-12 </wgt>
<wgt id='1670'> +1.5609807e-12 </wgt>
<wgt id='1671'> +1.5534480e-12 </wgt>
<wgt id='1672'> +1.5575346e-12 </wgt>
<wgt id='1673'> +1.5168464e-12 </wgt>
<wgt id='1674'> +1.4943117e-12 </wgt>
<wgt id='1675'> +1.5878746e-12 </wgt>
<wgt id='1676'> +1.5600626e-12 </wgt>
<wgt id='1677'> +1.5945447e-12 </wgt>
<wgt id='1678'> +1.5273823e-12 </wgt>
<wgt id='1679'> +1.5333631e-12 </wgt>
<wgt id='1680'> +1.5509441e-12 </wgt>
<wgt id='1681'> +1.5566283e-12 </wgt>
<wgt id='1682'> +1.5504555e-12 </wgt>
<wgt id='1683'> +1.5017636e-12 </wgt>
<wgt id='1684'> +1.5198631e-12 </wgt>
<wgt id='1685'> +1.5186875e-12 </wgt>
<wgt id='1686'> +1.5369933e-12 </wgt>
<wgt id='1687'> +1.5686777e-12 </wgt>
<wgt id='1688'> +1.5298816e-12 </wgt>
<wgt id='1689'> +1.5359953e-12 </wgt>
<wgt id='1690'> +1.5845838e-12 </wgt>
<wgt id='1691'> +1.5759631e-12 </wgt>
<wgt id='1692'> +1.5850593e-12 </wgt>
<wgt id='1693'> +1.5602374e-12 </wgt>
<wgt id='1694'> +1.4899877e-12 </wgt>
<wgt id='1695'> +1.5577782e-12 </wgt>
<wgt id='1696'> +1.5790447e-12 </wgt>
<wgt id='1697'> +1.5299667e-12 </wgt>
<wgt id='1698'> +1.5185151e-12 </wgt>
<wgt id='1699'> +1.5357959e-12 </wgt>
<wgt id='1700'> +1.5219704e-12 </wgt>
<wgt id='1701'> +1.5224797e-12 </wgt>
<wgt id='1702'> +1.5162658e-12 </wgt>
<wgt id='1703'> +1.5538180e-12 </wgt>
<wgt id='1704'> +1.5006306e-12 </wgt>
<wgt id='1705'> +1.4867666e-12 </wgt>
<wgt id='1706'> +1.5399332e-12 </wgt>
<wgt id='1707'> +1.5060081e-12 </wgt>
<wgt id='1708'> +1.4925965e-12 </wgt>
<wgt id='1709'> +1.5169500e-12 </wgt>
<wgt id='1710'> +1.5022646e-12 </wgt>
<wgt id='1711'> +1.5336067e-12 </wgt>
<wgt id='1712'> +1.5251274e-12 </wgt>
<wgt id='1713'> +1.3002927e-12 </wgt>
<wgt id='1714'> +1.2731441e-12 </wgt>
<wgt id='1715'> +1.3173691e-12 </wgt>
<wgt id='1716'> +1.2868600e-12 </wgt>
<wgt id='1717'> +1.2910894e-12 </wgt>
<wgt id='1718'> +1.2974974e-12 </wgt>
<wgt id='1719'> +1.2924792e-12 </wgt>
<wgt id='1720'> +1.3155720e-12 </wgt>
<wgt id='1721'> +1.2604735e-12 </wgt>
<wgt id='1722'> +1.2783206e-12 </wgt>
<wgt id='1723'> +1.2694909e-12 </wgt>
<wgt id='1724'> +1.3486463e-12 </wgt>
<wgt id='1725'> +1.3004662e-12 </wgt>
<wgt id='1726'> +1.3206778e-12 </wgt>
<wgt id='1727'> +1.2906374e-12 </wgt>
<wgt id='1728'> +1.3034241e-12 </wgt>
<wgt id='1729'> +1.2896622e-12 </wgt>
<wgt id='1730'> +1.2912232e-12 </wgt>
<wgt id='1731'> +1.2601031e-12 </wgt>
<wgt id='1732'> +1.3159838e-12 </wgt>
<wgt id='1733'> +1.3023672e-12 </wgt>
<wgt id='1734'> +1.3136690e-12 </wgt>
<wgt id='1735'> +1.2935059e-12 </wgt>
<wgt id='1736'> +1.3627302e-12 </wgt>
<wgt id='1737'> +1.3149984e-12 </wgt>
<wgt id='1738'> +1.3229547e-12 </wgt>
<wgt id='1739'> +1.2582110e-12 </wgt>
<wgt id='1740'> +1.2827881e-12 </wgt>
<wgt id='1741'> +1.3233170e-12 </wgt>
<wgt id='1742'> +1.2921312e-12 </wgt>
<wgt id='1743'> +1.3083710e-12 </wgt>
<wgt id='1744'> +1.3096776e-12 </wgt>
<wgt id='1745'> +1.2601610e-12 </wgt>
<wgt id='1746'> +1.3155313e-12 </wgt>
<wgt id='1747'> +1.2975045e-12 </wgt>
<wgt id='1748'> +1.2935088e-12 </wgt>
<wgt id='1749'> +1.3132804e-12 </wgt>
<wgt id='1750'> +1.3011687e-12 </wgt>
<wgt id='1751'> +1.2801664e-12 </wgt>
<wgt id='1752'> +1.2872491e-12 </wgt>
<wgt id='1753'> +1.3142248e-12 </wgt>
<wgt id='1754'> +1.3163134e-12 </wgt>
<wgt id='1755'> +1.3357905e-12 </wgt>
<wgt id='1756'> +1.3154507e-12 </wgt>
<wgt id='1757'> +1.2776794e-12 </wgt>
<wgt id='1758'> +1.3127887e-12 </wgt>
<wgt id='1759'> +1.3064302e-12 </wgt>
<wgt id='1760'> +1.2725203e-12 </wgt>
<wgt id='1761'> +1.2807297e-12 </wgt>
<wgt id='1762'> +1.2888438e-12 </wgt>
<wgt id='1763'> +1.3113527e-12 </wgt>
<wgt id='1764'> +1.3050492e-12 </wgt>
<wgt id='1765'> +1.2911287e-12 </wgt>
<wgt id='1766'> +1.3024407e-12 </wgt>
<wgt id='1767'> +1.3063773e-12 </wgt>
<wgt id='1768'> +1.3029747e-12 </wgt>
<wgt id='1769'> +1.2706065e-12 </wgt>
<wgt id='1770'> +1.3101963e-12 </wgt>
<wgt id='1771'> +1.3053380e-12 </wgt>
<wgt id='1772'> +1.3164309e-12 </wgt>
<wgt id='1773'> +1.2913043e-12 </wgt>
<wgt id='1774'> +1.2918344e-12 </wgt>
<wgt id='1775'> +1.3101398e-12 </wgt>
<wgt id='1776'> +1.3318227e-12 </wgt>
<wgt id='1777'> +1.2601599e-12 </wgt>
<wgt id='1778'> +1.2877437e-12 </wgt>
<wgt id='1779'> +1.3147402e-12 </wgt>
<wgt id='1780'> +1.3213326e-12 </wgt>
<wgt id='1781'> +1.2864324e-12 </wgt>
<wgt id='1782'> +1.2918784e-12 </wgt>
<wgt id='1783'> +1.2916117e-12 </wgt>
<wgt id='1784'> +1.3213965e-12 </wgt>
<wgt id='1785'> +1.2931222e-12 </wgt>
<wgt id='1786'> +1.2776076e-12 </wgt>
<wgt id='1787'> +1.3231233e-12 </wgt>
<wgt id='1788'> +1.3163931e-12 </wgt>
<wgt id='1789'> +1.2977998e-12 </wgt>
<wgt id='1790'> +1.3178053e-12 </wgt>
<wgt id='1791'> +1.3224185e-12 </wgt>
<wgt id='1792'> +1.2966114e-12 </wgt>
<wgt id='1793'> +1.3016966e-12 </wgt>
<wgt id='1794'> +1.3064673e-12 </wgt>
<wgt id='1795'> +1.3010537e-12 </wgt>
<wgt id='1796'> +1.2886365e-12 </wgt>
<wgt id='1797'> +1.3005101e-12 </wgt>
<wgt id='1798'> +1.2978950e-12 </wgt>
<wgt id='1799'> +1.3116573e-12 </wgt>
<wgt id='1800'> +1.3079303e-12 </wgt>
<wgt id='1801'> +1.3001932e-12 </wgt>
<wgt id='1802'> +1.3050327e-12 </wgt>
<wgt id='1803'> +1.3193540e-12 </wgt>
<wgt id='1804'> +1.2711627e-12 </wgt>
<wgt id='1805'> +1.2936162e-12 </wgt>
<wgt id='1806'> +1.2806963e-12 </wgt>
<wgt id='1807'> +1.3327718e-12 </wgt>
<wgt id='1808'> +1.2795382e-12 </wgt>
<wgt id='1809'> +1.2979011e-12 </wgt>
<wgt id='1810'> +1.2956715e-12 </wgt>
<wgt id='1811'> +1.3304030e-12 </wgt>
<wgt id='1812'> +1.3036164e-12 </wgt>
<wgt id='1813'> +1.2812445e-12 </wgt>
<wgt id='1814'> +1.3968700e-12 </wgt>
<wgt id='1815'> +1.5515585e-12 </wgt>
<wgt id='1816'> +1.3002927e-12 </wgt>
<wgt id='1817'> +1.2731441e-12 </wgt>
<wgt id='1818'> +1.3173691e-12 </wgt>
<wgt id='1819'> +1.2868600e-12 </wgt>
<wgt id='1820'> +1.2910894e-12 </wgt>
<wgt id='1821'> +1.2974974e-12 </wgt>
<wgt id='1822'> +1.2924792e-12 </wgt>
<wgt id='1823'> +1.3155720e-12 </wgt>
<wgt id='1824'> +1.2604735e-12 </wgt>
<wgt id='1825'> +1.2783206e-12 </wgt>
<wgt id='1826'> +1.2694909e-12 </wgt>
<wgt id='1827'> +1.3486463e-12 </wgt>
<wgt id='1828'> +1.3004662e-12 </wgt>
<wgt id='1829'> +1.3206778e-12 </wgt>
<wgt id='1830'> +1.2906374e-12 </wgt>
<wgt id='1831'> +1.3034241e-12 </wgt>
<wgt id='1832'> +1.2896622e-12 </wgt>
<wgt id='1833'> +1.2912232e-12 </wgt>
<wgt id='1834'> +1.2601031e-12 </wgt>
<wgt id='1835'> +1.3159838e-12 </wgt>
<wgt id='1836'> +1.3023672e-12 </wgt>
<wgt id='1837'> +1.3136690e-12 </wgt>
<wgt id='1838'> +1.2935059e-12 </wgt>
<wgt id='1839'> +1.3627302e-12 </wgt>
<wgt id='1840'> +1.3149984e-12 </wgt>
<wgt id='1841'> +1.3229547e-12 </wgt>
<wgt id='1842'> +1.2582110e-12 </wgt>
<wgt id='1843'> +1.2827881e-12 </wgt>
<wgt id='1844'> +1.3233170e-12 </wgt>
<wgt id='1845'> +1.2921312e-12 </wgt>
<wgt id='1846'> +1.3083710e-12 </wgt>
<wgt id='1847'> +1.3096776e-12 </wgt>
<wgt id='1848'> +1.2601610e-12 </wgt>
<wgt id='1849'> +1.3155313e-12 </wgt>
<wgt id='1850'> +1.2975045e-12 </wgt>
<wgt id='1851'> +1.2935088e-12 </wgt>
<wgt id='1852'> +1.3132804e-12 </wgt>
<wgt id='1853'> +1.3011687e-12 </wgt>
<wgt id='1854'> +1.2801664e-12 </wgt>
<wgt id='1855'> +1.2872491e-12 </wgt>
<wgt id='1856'> +1.3142248e-12 </wgt>
<wgt id='1857'> +1.3163134e-12 </wgt>
<wgt id='1858'> +1.3357905e-12 </wgt>
<wgt id='1859'> +1.3154507e-12 </wgt>
<wgt id='1860'> +1.2776794e-12 </wgt>
<wgt id='1861'> +1.3127887e-12 </wgt>
<wgt id='1862'> +1.3064302e-12 </wgt>
<wgt id='1863'> +1.2725203e-12 </wgt>
<wgt id='1864'> +1.2807297e-12 </wgt>
<wgt id='1865'> +1.2888438e-12 </wgt>
<wgt id='1866'> +1.3113527e-12 </wgt>
<wgt id='1867'> +1.3050492e-12 </wgt>
<wgt id='1868'> +1.2911287e-12 </wgt>
<wgt id='1869'> +1.3024407e-12 </wgt>
<wgt id='1870'> +1.3063773e-12 </wgt>
<wgt id='1871'> +1.3029747e-12 </wgt>
<wgt id='1872'> +1.2706065e-12 </wgt>
<wgt id='1873'> +1.3101963e-12 </wgt>
<wgt id='1874'> +1.3053380e-12 </wgt>
<wgt id='1875'> +1.3164309e-12 </wgt>
<wgt id='1876'> +1.2913043e-12 </wgt>
<wgt id='1877'> +1.2918344e-12 </wgt>
<wgt id='1878'> +1.3101398e-12 </wgt>
<wgt id='1879'> +1.3318227e-12 </wgt>
<wgt id='1880'> +1.2601599e-12 </wgt>
<wgt id='1881'> +1.2877437e-12 </wgt>
<wgt id='1882'> +1.3147402e-12 </wgt>
<wgt id='1883'> +1.3213326e-12 </wgt>
<wgt id='1884'> +1.2864324e-12 </wgt>
<wgt id='1885'> +1.2918784e-12 </wgt>
<wgt id='1886'> +1.2916117e-12 </wgt>
<wgt id='1887'> +1.3213965e-12 </wgt>
<wgt id='1888'> +1.2931222e-12 </wgt>
<wgt id='1889'> +1.2776076e-12 </wgt>
<wgt id='1890'> +1.3231233e-12 </wgt>
<wgt id='1891'> +1.3163931e-12 </wgt>
<wgt id='1892'> +1.2977998e-12 </wgt>
<wgt id='1893'> +1.3178053e-12 </wgt>
<wgt id='1894'> +1.3224185e-12 </wgt>
<wgt id='1895'> +1.2966114e-12 </wgt>
<wgt id='1896'> +1.3016966e-12 </wgt>
<wgt id='1897'> +1.3064673e-12 </wgt>
<wgt id='1898'> +1.3010537e-12 </wgt>
<wgt id='1899'> +1.2886365e-12 </wgt>
<wgt id='1900'> +1.3005101e-12 </wgt>
<wgt id='1901'> +1.2978950e-12 </wgt>
<wgt id='1902'> +1.3116573e-12 </wgt>
<wgt id='1903'> +1.3079303e-12 </wgt>
<wgt id='1904'> +1.3001932e-12 </wgt>
<wgt id='1905'> +1.3050327e-12 </wgt>
<wgt id='1906'> +1.3193540e-12 </wgt>
<wgt id='1907'> +1.2711627e-12 </wgt>
<wgt id='1908'> +1.2936162e-12 </wgt>
<wgt id='1909'> +1.2806963e-12 </wgt>
<wgt id='1910'> +1.3327718e-12 </wgt>
<wgt id='1911'> +1.2795382e-12 </wgt>
<wgt id='1912'> +1.2979011e-12 </wgt>
<wgt id='1913'> +1.2956715e-12 </wgt>
<wgt id='1914'> +1.3304030e-12 </wgt>
<wgt id='1915'> +1.3036164e-12 </wgt>
<wgt id='1916'> +1.2812445e-12 </wgt>
<wgt id='1917'> +1.2891667e-12 </wgt>
<wgt id='1918'> +1.3029339e-12 </wgt>
<wgt id='1919'> +1.3135330e-12 </wgt>
</rwgt>
</event>
<event>
 9      1 +1.5538000e-12 2.59058000e+01 7.81860800e-03 1.49514000e-01
        2 -1    0    0  502    0 -0.0000000000e+00 +0.0000000000e+00 +1.3548208183e+03 1.3548208183e+03 0.0000000000e+00 0.0000e+00 1.0000e+00
       21 -1    0    0  501  502 +0.0000000000e+00 -0.0000000000e+00 -1.2527230025e+00 1.2527230025e+00 0.0000000000e+00 0.0000e+00 1.0000e+00
     1023  2    1    2    0    0 +1.9871495997e+01 +7.1582892133e+00 +1.2550230311e+03 1.2552903724e+03 1.4999765933e+01 0.0000e+00 0.0000e+00
  1000023  2    3    3    0    0 +6.7645582640e+00 -4.7440597370e-02 +2.6909065152e+02 2.6923186933e+02 5.5008389585e+00 0.0000e+00 0.0000e+00
        2  1    1    2  501    0 -1.9871495997e+01 -7.1582892133e+00 +9.8545064254e+01 1.0078316896e+02 0.0000000000e+00 0.0000e+00 1.0000e+00
  1000022  1    4    4    0    0 +6.1855153418e+00 -4.5123264305e-01 +2.4872561207e+02 2.4885315812e+02 5.0000000000e+00 0.0000e+00 -1.0000e+00
      -13  1    4    4    0    0 +2.1748900157e-01 +2.0754644380e-01 +9.6353066743e+00 9.6405748889e+00 1.0570000000e-01 0.0000e+00 -1.0000e+00
       13  1    4    4    0    0 +3.6155392060e-01 +1.9624560188e-01 +1.0729732779e+01 1.0738136317e+01 1.0570000000e-01 0.0000e+00 1.0000e+00
  1000022  1    3    3    0    0 +1.3106937733e+01 +7.2057298106e+00 +9.8593237957e+02 9.8605850306e+02 5.0000000000e+00 0.0000e+00 1.0000e+00
<mgrwt>
<rscale>  1 0.25905799E+02</rscale>
<asrwt>0</asrwt>
<pdfrwt beam="1">  1       21 0.19272770E-03 0.25905799E+02</pdfrwt>
<pdfrwt beam="2">  1        2 0.20843280E+00 0.25905799E+02</pdfrwt>
<totfact> 0.60948056E+06</totfact>
</mgrwt>
<rwgt>
<wgt id='1001'> +1.5538000e-12 </wgt>
<wgt id='1002'> +1.5981573e-12 </wgt>
<wgt id='1003'> +1.6012359e-12 </wgt>
<wgt id='1004'> +1.5373266e-12 </wgt>
<wgt id='1005'> +1.6149849e-12 </wgt>
<wgt id='1006'> +1.3539455e-12 </wgt>
<wgt id='1007'> +1.4113622e-12 </wgt>
<wgt id='1008'> +1.4160311e-12 </wgt>
<wgt id='1009'> +1.3344510e-12 </wgt>
<wgt id='1010'> +1.4459158e-12 </wgt>
<wgt id='1011'> +1.8264259e-12 </wgt>
<wgt id='1012'> +1.8445539e-12 </wgt>
<wgt id='1013'> +1.8446706e-12 </wgt>
<wgt id='1014'> +1.8168263e-12 </wgt>
<wgt id='1015'> +1.8305998e-12 </wgt>
<wgt id='1016'> +1.8439722e-12 </wgt>
<wgt id='1017'> +1.8286770e-12 </wgt>
<wgt id='1018'> +1.8258429e-12 </wgt>
<wgt id='1019'> +1.8446706e-12 </wgt>
<wgt id='1020'> +1.7890208e-12 </wgt>
<wgt id='1021'> +1.6067948e-12 </wgt>
<wgt id='1022'> +1.6149384e-12 </wgt>
<wgt id='1023'> +1.6146593e-12 </wgt>
<wgt id='1024'> +1.6012359e-12 </wgt>
<wgt id='1025'> +1.6017323e-12 </wgt>
<wgt id='1026'> +2.1675110e-12 </wgt>
<wgt id='1027'> +2.1106140e-12 </wgt>
<wgt id='1028'> +2.1034244e-12 </wgt>
<wgt id='1029'> +2.1800482e-12 </wgt>
<wgt id='1030'> +2.0278710e-12 </wgt>
<wgt id='1031'> +1.2130116e-12 </wgt>
<wgt id='1032'> +1.3245809e-12 </wgt>
<wgt id='1033'> +1.3344510e-12 </wgt>
<wgt id='1034'> +1.1764232e-12 </wgt>
<wgt id='1035'> +1.4077508e-12 </wgt>
<wgt id='1036'> +1.0569903e-12 </wgt>
<wgt id='1037'> +1.1697618e-12 </wgt>
<wgt id='1038'> +1.1801036e-12 </wgt>
<wgt id='1039'> +1.0211747e-12 </wgt>
<wgt id='1040'> +1.2603766e-12 </wgt>
<wgt id='1041'> +1.4258436e-12 </wgt>
<wgt id='1042'> +1.5287987e-12 </wgt>
<wgt id='1043'> +1.5373266e-12 </wgt>
<wgt id='1044'> +1.3903074e-12 </wgt>
<wgt id='1045'> +1.5956981e-12 </wgt>
<wgt id='1046'> +1.5538000e-12 </wgt>
<wgt id='1047'> +1.5503015e-12 </wgt>
<wgt id='1048'> +1.6147820e-12 </wgt>
<wgt id='1049'> +1.5072707e-12 </wgt>
<wgt id='1050'> +1.5383246e-12 </wgt>
<wgt id='1051'> +1.5253946e-12 </wgt>
<wgt id='1052'> +1.5297723e-12 </wgt>
<wgt id='1053'> +1.6285005e-12 </wgt>
<wgt id='1054'> +1.6030369e-12 </wgt>
<wgt id='1055'> +1.5252066e-12 </wgt>
<wgt id='1056'> +1.4404157e-12 </wgt>
<wgt id='1057'> +1.5418510e-12 </wgt>
<wgt id='1058'> +1.5219820e-12 </wgt>
<wgt id='1059'> +1.5540424e-12 </wgt>
<wgt id='1060'> +1.5743098e-12 </wgt>
<wgt id='1061'> +1.5929323e-12 </wgt>
<wgt id='1062'> +1.5226767e-12 </wgt>
<wgt id='1063'> +1.4709957e-12 </wgt>
<wgt id='1064'> +1.5599974e-12 </wgt>
<wgt id='1065'> +1.5864909e-12 </wgt>
<wgt id='1066'> +1.5537932e-12 </wgt>
<wgt id='1067'> +1.6004776e-12 </wgt>
<wgt id='1068'> +1.6217806e-12 </wgt>
<wgt id='1069'> +1.6247202e-12 </wgt>
<wgt id='1070'> +1.5456674e-12 </wgt>
<wgt id='1071'> +1.5653542e-12 </wgt>
<wgt id='1072'> +1.5656030e-12 </wgt>
<wgt id='1073'> +1.5221124e-12 </wgt>
<wgt id='1074'> +1.5683231e-12 </wgt>
<wgt id='1075'> +1.5203356e-12 </wgt>
<wgt id='1076'> +1.5395976e-12 </wgt>
<wgt id='1077'> +1.5656714e-12 </wgt>
<wgt id='1078'> +1.5460305e-12 </wgt>
<wgt id='1079'> +1.5719886e-12 </wgt>
<wgt id='1080'> +1.5366222e-12 </wgt>
<wgt id='1081'> +1.5297993e-12 </wgt>
<wgt id='1082'> +1.5668669e-12 </wgt>
<wgt id='1083'> +1.5241842e-12 </wgt>
<wgt id='1084'> +1.5479069e-12 </wgt>
<wgt id='1085'> +1.5750084e-12 </wgt>
<wgt id='1086'> +1.6242425e-12 </wgt>
<wgt id='1087'> +1.5271703e-12 </wgt>
<wgt id='1088'> +1.5500447e-12 </wgt>
<wgt id='1089'> +1.5150693e-12 </wgt>
<wgt id='1090'> +1.5553702e-12 </wgt>
<wgt id='1091'> +1.5700143e-12 </wgt>
<wgt id='1092'> +1.5322136e-12 </wgt>
<wgt id='1093'> +1.5859616e-12 </wgt>
<wgt id='1094'> +1.5873049e-12 </wgt>
<wgt id='1095'> +1.5939020e-12 </wgt>
<wgt id='1096'> +1.4983992e-12 </wgt>
<wgt id='1097'> +1.5784310e-12 </wgt>
<wgt id='1098'> +1.5995636e-12 </wgt>
<wgt id='1099'> +1.5524947e-12 </wgt>
<wgt id='1100'> +1.6024612e-12 </wgt>
<wgt id='1101'> +1.5595287e-12 </wgt>
<wgt id='1102'> +1.5068139e-12 </wgt>
<wgt id='1103'> +1.5196485e-12 </wgt>
<wgt id='1104'> +1.5552796e-12 </wgt>
<wgt id='1105'> +1.4921156e-12 </wgt>
<wgt id='1106'> +1.5480001e-12 </wgt>
<wgt id='1107'> +1.6004512e-12 </wgt>
<wgt id='1108'> +1.5380811e-12 </wgt>
<wgt id='1109'> +1.5484566e-12 </wgt>
<wgt id='1110'> +1.5554822e-12 </wgt>
<wgt id='1111'> +1.5572619e-12 </wgt>
<wgt id='1112'> +1.5542984e-12 </wgt>
<wgt id='1113'> +1.6389969e-12 </wgt>
<wgt id='1114'> +1.5650826e-12 </wgt>
<wgt id='1115'> +1.5830820e-12 </wgt>
<wgt id='1116'> +1.6410711e-12 </wgt>
<wgt id='1117'> +1.5609375e-12 </wgt>
<wgt id='1118'> +1.5360698e-12 </wgt>
<wgt id='1119'> +1.5257490e-12 </wgt>
<wgt id='1120'> +1.5496567e-12 </wgt>
<wgt id='1121'> +1.5042640e-12 </wgt>
<wgt id='1122'> +1.5213273e-12 </wgt>
<wgt id='1123'> +1.5893173e-12 </wgt>
<wgt id='1124'> +1.6134426e-12 </wgt>
<wgt id='1125'> +1.4883448e-12 </wgt>
<wgt id='1126'> +1.5098202e-12 </wgt>
<wgt id='1127'> +1.5787008e-12 </wgt>
<wgt id='1128'> +1.5226767e-12 </wgt>
<wgt id='1129'> +1.5366870e-12 </wgt>
<wgt id='1130'> +1.5468680e-12 </wgt>
<wgt id='1131'> +1.6013712e-12 </wgt>
<wgt id='1132'> +1.5444766e-12 </wgt>
<wgt id='1133'> +1.5581066e-12 </wgt>
<wgt id='1134'> +1.5265888e-12 </wgt>
<wgt id='1135'> +1.4959463e-12 </wgt>
<wgt id='1136'> +1.5232452e-12 </wgt>
<wgt id='1137'> +1.5626933e-12 </wgt>
<wgt id='1138'> +1.5420025e-12 </wgt>
<wgt id='1139'> +1.5494147e-12 </wgt>
<wgt id='1140'> +1.5621326e-12 </wgt>
<wgt id='1141'> +1.5534700e-12 </wgt>
<wgt id='1142'> +1.6180749e-12 </wgt>
<wgt id='1143'> +1.4739837e-12 </wgt>
<wgt id='1144'> +1.5299524e-12 </wgt>
<wgt id='1145'> +1.5721277e-12 </wgt>
<wgt id='1146'> +1.5616469e-12 </wgt>
<wgt id='1147'> +1.4398146e-12 </wgt>
<wgt id='1148'> +1.4631222e-12 </wgt>
<wgt id='1149'> +1.3854484e-12 </wgt>
<wgt id='1150'> +1.4565446e-12 </wgt>
<wgt id='1151'> +1.8040513e-12 </wgt>
<wgt id='1152'> +2.5226335e-12 </wgt>
<wgt id='1153'> +2.5323546e-12 </wgt>
<wgt id='1154'> +2.5169274e-12 </wgt>
<wgt id='1155'> +2.5186133e-12 </wgt>
<wgt id='1156'> +2.5246882e-12 </wgt>
<wgt id='1157'> +2.5285663e-12 </wgt>
<wgt id='1158'> +2.5146144e-12 </wgt>
<wgt id='1159'> +2.5271095e-12 </wgt>
<wgt id='1160'> +2.5197311e-12 </wgt>
<wgt id='1161'> +2.5156848e-12 </wgt>
<wgt id='1162'> +2.5274107e-12 </wgt>
<wgt id='1163'> +2.5209733e-12 </wgt>
<wgt id='1164'> +2.5242710e-12 </wgt>
<wgt id='1165'> +2.5279303e-12 </wgt>
<wgt id='1166'> +2.5173324e-12 </wgt>
<wgt id='1167'> +2.5602576e-12 </wgt>
<wgt id='1168'> +2.4779823e-12 </wgt>
<wgt id='1169'> +2.5349558e-12 </wgt>
<wgt id='1170'> +2.5134397e-12 </wgt>
<wgt id='1171'> +2.5125649e-12 </wgt>
<wgt id='1172'> +2.5351074e-12 </wgt>
<wgt id='1173'> +2.4918533e-12 </wgt>
<wgt id='1174'> +2.5547639e-12 </wgt>
<wgt id='1175'> +2.5267138e-12 </wgt>
<wgt id='1176'> +2.5192420e-12 </wgt>
<wgt id='1177'> +2.5209856e-12 </wgt>
<wgt id='1178'> +2.5258890e-12 </wgt>
<wgt id='1179'> +2.5160373e-12 </wgt>
<wgt id='1180'> +2.5238079e-12 </wgt>
<wgt id='1181'> +2.5231322e-12 </wgt>
<wgt id='1182'> +2.5213679e-12 </wgt>
<wgt id='1183'> +2.5285279e-12 </wgt>
<wgt id='1184'> +2.5223834e-12 </wgt>
<wgt id='1185'> +2.5149236e-12 </wgt>
<wgt id='1186'> +2.5257740e-12 </wgt>
<wgt id='1187'> +2.5271451e-12 </wgt>
<wgt id='1188'> +2.5210371e-12 </wgt>
<wgt id='1189'> +2.5152259e-12 </wgt>
<wgt id='1190'> +2.4942871e-12 </wgt>
<wgt id='1191'> +2.5243972e-12 </wgt>
<wgt id='1192'> +2.5371701e-12 </wgt>
<wgt id='1193'> +1.4394149e-12 </wgt>
<wgt id='1194'> +1.4186011e-12 </wgt>
<wgt id='1195'> +1.4565030e-12 </wgt>
<wgt id='1196'> +1.4339926e-12 </wgt>
<wgt id='1197'> +1.4454739e-12 </wgt>
<wgt id='1198'> +1.4381806e-12 </wgt>
<wgt id='1199'> +1.4412931e-12 </wgt>
<wgt id='1200'> +1.4373824e-12 </wgt>
<wgt id='1201'> +1.4408195e-12 </wgt>
<wgt id='1202'> +1.4388117e-12 </wgt>
<wgt id='1203'> +1.4402496e-12 </wgt>
<wgt id='1204'> +1.4349204e-12 </wgt>
<wgt id='1205'> +1.4419396e-12 </wgt>
<wgt id='1206'> +1.4431983e-12 </wgt>
<wgt id='1207'> +1.4342051e-12 </wgt>
<wgt id='1208'> +1.4502063e-12 </wgt>
<wgt id='1209'> +1.4356157e-12 </wgt>
<wgt id='1210'> +1.4444838e-12 </wgt>
<wgt id='1211'> +1.4337560e-12 </wgt>
<wgt id='1212'> +1.4378420e-12 </wgt>
<wgt id='1213'> +1.4416217e-12 </wgt>
<wgt id='1214'> +1.4251334e-12 </wgt>
<wgt id='1215'> +1.4574720e-12 </wgt>
<wgt id='1216'> +1.4474959e-12 </wgt>
<wgt id='1217'> +1.4333876e-12 </wgt>
<wgt id='1218'> +1.4438721e-12 </wgt>
<wgt id='1219'> +1.4369657e-12 </wgt>
<wgt id='1220'> +1.4496931e-12 </wgt>
<wgt id='1221'> +1.4367954e-12 </wgt>
<wgt id='1222'> +1.4652522e-12 </wgt>
<wgt id='1223'> +1.4043830e-12 </wgt>
<wgt id='1224'> +1.4418009e-12 </wgt>
<wgt id='1225'> +1.4385217e-12 </wgt>
<wgt id='1226'> +1.4360948e-12 </wgt>
<wgt id='1227'> +1.4417737e-12 </wgt>
<wgt id='1228'> +1.4397927e-12 </wgt>
<wgt id='1229'> +1.4395612e-12 </wgt>
<wgt id='1230'> +1.4429976e-12 </wgt>
<wgt id='1231'> +1.4516869e-12 </wgt>
<wgt id='1232'> +1.4448613e-12 </wgt>
<wgt id='1233'> +1.4380822e-12 </wgt>
<wgt id='1234'> +1.4394149e-12 </wgt>
<wgt id='1235'> +1.4332315e-12 </wgt>
<wgt id='1236'> +1.4355788e-12 </wgt>
<wgt id='1237'> +1.4378034e-12 </wgt>
<wgt id='1238'> +1.4412172e-12 </wgt>
<wgt id='1239'> +1.4426890e-12 </wgt>
<wgt id='1240'> +1.4440343e-12 </wgt>
<wgt id='1241'> +1.3668273e-12 </wgt>
<wgt id='1242'> +1.3475097e-12 </wgt>
<wgt id='1243'> +1.3858706e-12 </wgt>
<wgt id='1244'> +1.3778144e-12 </wgt>
<wgt id='1245'> +1.3587151e-12 </wgt>
<wgt id='1246'> +1.3637409e-12 </wgt>
<wgt id='1247'> +1.3694497e-12 </wgt>
<wgt id='1248'> +1.3668840e-12 </wgt>
<wgt id='1249'> +1.3667421e-12 </wgt>
<wgt id='1250'> +1.3678390e-12 </wgt>
<wgt id='1251'> +1.3661343e-12 </wgt>
<wgt id='1252'> +1.3632638e-12 </wgt>
<wgt id='1253'> +1.3695935e-12 </wgt>
<wgt id='1254'> +1.3630723e-12 </wgt>
<wgt id='1255'> +1.3689668e-12 </wgt>
<wgt id='1256'> +1.3627123e-12 </wgt>
<wgt id='1257'> +1.3772740e-12 </wgt>
<wgt id='1258'> +1.3767449e-12 </wgt>
<wgt id='1259'> +1.3551233e-12 </wgt>
<wgt id='1260'> +1.3699337e-12 </wgt>
<wgt id='1261'> +1.3636415e-12 </wgt>
<wgt id='1262'> +1.3683246e-12 </wgt>
<wgt id='1263'> +1.3661811e-12 </wgt>
<wgt id='1264'> +1.3725839e-12 </wgt>
<wgt id='1265'> +1.3645907e-12 </wgt>
<wgt id='1266'> +1.3420464e-12 </wgt>
<wgt id='1267'> +1.3908136e-12 </wgt>
<wgt id='1268'> +1.3756948e-12 </wgt>
<wgt id='1269'> +1.3593162e-12 </wgt>
<wgt id='1270'> +1.3796394e-12 </wgt>
<wgt id='1271'> +1.3707654e-12 </wgt>
<wgt id='1272'> +1.3703899e-12 </wgt>
<wgt id='1273'> +1.3670293e-12 </wgt>
<wgt id='1274'> +1.3686628e-12 </wgt>
<wgt id='1275'> +1.3642402e-12 </wgt>
<wgt id='1276'> +1.3683120e-12 </wgt>
<wgt id='1277'> +1.3664806e-12 </wgt>
<wgt id='1278'> +1.3835839e-12 </wgt>
<wgt id='1279'> +1.3729737e-12 </wgt>
<wgt id='1280'> +1.3664756e-12 </wgt>
<wgt id='1281'> +1.3762947e-12 </wgt>
<wgt id='1282'> +1.3668273e-12 </wgt>
<wgt id='1283'> +1.3610797e-12 </wgt>
<wgt id='1284'> +1.3634424e-12 </wgt>
<wgt id='1285'> +1.3653526e-12 </wgt>
<wgt id='1286'> +1.3683993e-12 </wgt>
<wgt id='1287'> +1.3694167e-12 </wgt>
<wgt id='1288'> +1.3701999e-12 </wgt>
<wgt id='1289'> +1.4831747e-12 </wgt>
<wgt id='1290'> +1.4887509e-12 </wgt>
<wgt id='1291'> +1.4772330e-12 </wgt>
<wgt id='1292'> +1.4842623e-12 </wgt>
<wgt id='1293'> +1.4824068e-12 </wgt>
<wgt id='1294'> +1.4645755e-12 </wgt>
<wgt id='1295'> +1.5010099e-12 </wgt>
<wgt id='1296'> +1.4958191e-12 </wgt>
<wgt id='1297'> +1.4674779e-12 </wgt>
<wgt id='1298'> +1.4918909e-12 </wgt>
<wgt id='1299'> +1.4721271e-12 </wgt>
<wgt id='1300'> +1.4862412e-12 </wgt>
<wgt id='1301'> +1.4769678e-12 </wgt>
<wgt id='1302'> +1.4790974e-12 </wgt>
<wgt id='1303'> +1.4888443e-12 </wgt>
<wgt id='1304'> +1.4807827e-12 </wgt>
<wgt id='1305'> +1.4847854e-12 </wgt>
<wgt id='1306'> +1.4869104e-12 </wgt>
<wgt id='1307'> +1.4787919e-12 </wgt>
<wgt id='1308'> +1.4774371e-12 </wgt>
<wgt id='1309'> +1.4875760e-12 </wgt>
<wgt id='1310'> +1.4893758e-12 </wgt>
<wgt id='1311'> +1.4769430e-12 </wgt>
<wgt id='1312'> +1.4892588e-12 </wgt>
<wgt id='1313'> +1.4777012e-12 </wgt>
<wgt id='1314'> +1.4627637e-12 </wgt>
<wgt id='1315'> +1.5022649e-12 </wgt>
<wgt id='1316'> +1.4898282e-12 </wgt>
<wgt id='1317'> +1.4863877e-12 </wgt>
<wgt id='1318'> +1.4925624e-12 </wgt>
<wgt id='1319'> +1.4704363e-12 </wgt>
<wgt id='1320'> +1.5033556e-12 </wgt>
<wgt id='1321'> +1.4643890e-12 </wgt>
<wgt id='1322'> +1.4825512e-12 </wgt>
<wgt id='1323'> +1.4837144e-12 </wgt>
<wgt id='1324'> +1.4807851e-12 </wgt>
<wgt id='1325'> +1.4867152e-12 </wgt>
<wgt id='1326'> +1.4827139e-12 </wgt>
<wgt id='1327'> +1.4868819e-12 </wgt>
<wgt id='1328'> +1.4826361e-12 </wgt>
<wgt id='1329'> +1.4829319e-12 </wgt>
<wgt id='1330'> +1.4892260e-12 </wgt>
<wgt id='1331'> +1.4757226e-12 </wgt>
<wgt id='1332'> +1.4955364e-12 </wgt>
<wgt id='1333'> +1.4913459e-12 </wgt>
<wgt id='1334'> +1.4820219e-12 </wgt>
<wgt id='1335'> +1.4865863e-12 </wgt>
<wgt id='1336'> +1.4875790e-12 </wgt>
<wgt id='1337'> +1.4931871e-12 </wgt>
<wgt id='1338'> +1.4842544e-12 </wgt>
<wgt id='1339'> +1.4867082e-12 </wgt>
<wgt id='1340'> +1.4537235e-12 </wgt>
<wgt id='1341'> +1.4590603e-12 </wgt>
<wgt id='1342'> +1.4479490e-12 </wgt>
<wgt id='1343'> +1.4549422e-12 </wgt>
<wgt id='1344'> +1.4528646e-12 </wgt>
<wgt id='1345'> +1.4344376e-12 </wgt>
<wgt id='1346'> +1.4714663e-12 </wgt>
<wgt id='1347'> +1.4670444e-12 </wgt>
<wgt id='1348'> +1.4387797e-12 </wgt>
<wgt id='1349'> +1.4620797e-12 </wgt>
<wgt id='1350'> +1.4453981e-12 </wgt>
<wgt id='1351'> +1.4566785e-12 </wgt>
<wgt id='1352'> +1.4471728e-12 </wgt>
<wgt id='1353'> +1.4486405e-12 </wgt>
<wgt id='1354'> +1.4627442e-12 </wgt>
<wgt id='1355'> +1.4523201e-12 </wgt>
<wgt id='1356'> +1.4544590e-12 </wgt>
<wgt id='1357'> +1.4565082e-12 </wgt>
<wgt id='1358'> +1.4501767e-12 </wgt>
<wgt id='1359'> +1.4474320e-12 </wgt>
<wgt id='1360'> +1.4591548e-12 </wgt>
<wgt id='1361'> +1.4597253e-12 </wgt>
<wgt id='1362'> +1.4461086e-12 </wgt>
<wgt id='1363'> +1.4652482e-12 </wgt>
<wgt id='1364'> +1.4467668e-12 </wgt>
<wgt id='1365'> +1.4634945e-12 </wgt>
<wgt id='1366'> +1.4363847e-12 </wgt>
<wgt id='1367'> +1.4606714e-12 </wgt>
<wgt id='1368'> +1.4549766e-12 </wgt>
<wgt id='1369'> +1.4610915e-12 </wgt>
<wgt id='1370'> +1.4440332e-12 </wgt>
<wgt id='1371'> +1.4700109e-12 </wgt>
<wgt id='1372'> +1.4326748e-12 </wgt>
<wgt id='1373'> +1.4489206e-12 </wgt>
<wgt id='1374'> +1.4575325e-12 </wgt>
<wgt id='1375'> +1.4511580e-12 </wgt>
<wgt id='1376'> +1.4579101e-12 </wgt>
<wgt id='1377'> +1.4538098e-12 </wgt>
<wgt id='1378'> +1.4572244e-12 </wgt>
<wgt id='1379'> +1.4534208e-12 </wgt>
<wgt id='1380'> +1.4531887e-12 </wgt>
<wgt id='1381'> +1.4599064e-12 </wgt>
<wgt id='1382'> +1.4468865e-12 </wgt>
<wgt id='1383'> +1.4630292e-12 </wgt>
<wgt id='1384'> +1.4626800e-12 </wgt>
<wgt id='1385'> +1.4528305e-12 </wgt>
<wgt id='1386'> +1.4559444e-12 </wgt>
<wgt id='1387'> +1.4590903e-12 </wgt>
<wgt id='1388'> +1.4640400e-12 </wgt>
<wgt id='1389'> +1.4549631e-12 </wgt>
<wgt id='1390'> +1.4586767e-12 </wgt>
<wgt id='1391'> +1.4349709e-12 </wgt>
<wgt id='1392'> +1.3930428e-12 </wgt>
<wgt id='1393'> +1.4076435e-12 </wgt>
<wgt id='1394'> +1.4218334e-12 </wgt>
<wgt id='1395'> +1.4496117e-12 </wgt>
<wgt id='1396'> +1.4356839e-12 </wgt>
<wgt id='1397'> +1.4150173e-12 </wgt>
<wgt id='1398'> +1.4176359e-12 </wgt>
<wgt id='1399'> +1.4209025e-12 </wgt>
<wgt id='1400'> +1.4251240e-12 </wgt>
<wgt id='1401'> +1.4302652e-12 </wgt>
<wgt id='1402'> +1.4411065e-12 </wgt>
<wgt id='1403'> +1.4471224e-12 </wgt>
<wgt id='1404'> +1.4533337e-12 </wgt>
<wgt id='1405'> +1.4356839e-12 </wgt>
<wgt id='1406'> +1.4320346e-12 </wgt>
<wgt id='1407'> +1.4339026e-12 </wgt>
<wgt id='1408'> +1.4372622e-12 </wgt>
<wgt id='1409'> +1.4384185e-12 </wgt>
<wgt id='1410'> +1.3351298e-12 </wgt>
<wgt id='1411'> +1.3443985e-12 </wgt>
<wgt id='1412'> +1.3232092e-12 </wgt>
<wgt id='1413'> +1.3248024e-12 </wgt>
<wgt id='1414'> +1.3453730e-12 </wgt>
<wgt id='1415'> +1.3310972e-12 </wgt>
<wgt id='1416'> +1.3367300e-12 </wgt>
<wgt id='1417'> +1.3377162e-12 </wgt>
<wgt id='1418'> +1.3324450e-12 </wgt>
<wgt id='1419'> +1.3372578e-12 </wgt>
<wgt id='1420'> +1.3330248e-12 </wgt>
<wgt id='1421'> +1.3205842e-12 </wgt>
<wgt id='1422'> +1.3412134e-12 </wgt>
<wgt id='1423'> +1.3345817e-12 </wgt>
<wgt id='1424'> +1.3357876e-12 </wgt>
<wgt id='1425'> +1.3260415e-12 </wgt>
<wgt id='1426'> +1.3448846e-12 </wgt>
<wgt id='1427'> +1.3207127e-12 </wgt>
<wgt id='1428'> +1.3426774e-12 </wgt>
<wgt id='1429'> +1.3372810e-12 </wgt>
<wgt id='1430'> +1.3323850e-12 </wgt>
<wgt id='1431'> +1.3358323e-12 </wgt>
<wgt id='1432'> +1.3345735e-12 </wgt>
<wgt id='1433'> +1.3110678e-12 </wgt>
<wgt id='1434'> +1.3554691e-12 </wgt>
<wgt id='1435'> +1.3287413e-12 </wgt>
<wgt id='1436'> +1.3518137e-12 </wgt>
<wgt id='1437'> +1.3408216e-12 </wgt>
<wgt id='1438'> +1.3412124e-12 </wgt>
<wgt id='1439'> +1.3284672e-12 </wgt>
<wgt id='1440'> +1.3450202e-12 </wgt>
<wgt id='1441'> +1.3417201e-12 </wgt>
<wgt id='1442'> +1.3199205e-12 </wgt>
<wgt id='1443'> +1.3316259e-12 </wgt>
<wgt id='1444'> +1.3425512e-12 </wgt>
<wgt id='1445'> +1.3446835e-12 </wgt>
<wgt id='1446'> +1.3311751e-12 </wgt>
<wgt id='1447'> +1.3369358e-12 </wgt>
<wgt id='1448'> +1.3383273e-12 </wgt>
<wgt id='1449'> +1.3352526e-12 </wgt>
<wgt id='1450'> +1.3339597e-12 </wgt>
<wgt id='1451'> +1.3340761e-12 </wgt>
<wgt id='1452'> +1.3409585e-12 </wgt>
<wgt id='1453'> +1.3361892e-12 </wgt>
<wgt id='1454'> +1.3394638e-12 </wgt>
<wgt id='1455'> +1.3481204e-12 </wgt>
<wgt id='1456'> +1.3452854e-12 </wgt>
<wgt id='1457'> +1.3427594e-12 </wgt>
<wgt id='1458'> +1.3341813e-12 </wgt>
<wgt id='1459'> +1.3422687e-12 </wgt>
<wgt id='1460'> +1.3496268e-12 </wgt>
<wgt id='1461'> +1.3351298e-12 </wgt>
<wgt id='1462'> +1.3259063e-12 </wgt>
<wgt id='1463'> +1.3398711e-12 </wgt>
<wgt id='1464'> +1.3330340e-12 </wgt>
<wgt id='1465'> +1.3087898e-12 </wgt>
<wgt id='1466'> +1.3121201e-12 </wgt>
<wgt id='1467'> +1.3164659e-12 </wgt>
<wgt id='1468'> +1.3242108e-12 </wgt>
<wgt id='1469'> +1.3275691e-12 </wgt>
<wgt id='1470'> +1.3388624e-12 </wgt>
<wgt id='1471'> +1.3443873e-12 </wgt>
<wgt id='1472'> +1.3500778e-12 </wgt>
<wgt id='1473'> +1.3330340e-12 </wgt>
<wgt id='1474'> +1.3302656e-12 </wgt>
<wgt id='1475'> +1.3324941e-12 </wgt>
<wgt id='1476'> +1.3337684e-12 </wgt>
<wgt id='1477'> +1.3345912e-12 </wgt>
<wgt id='1478'> +1.4125511e-12 </wgt>
<wgt id='1479'> +1.4133326e-12 </wgt>
<wgt id='1480'> +1.4003785e-12 </wgt>
<wgt id='1481'> +1.4428948e-12 </wgt>
<wgt id='1482'> +1.4162380e-12 </wgt>
<wgt id='1483'> +1.3985871e-12 </wgt>
<wgt id='1484'> +1.3993588e-12 </wgt>
<wgt id='1485'> +1.4268645e-12 </wgt>
<wgt id='1486'> +1.4117310e-12 </wgt>
<wgt id='1487'> +1.4236488e-12 </wgt>
<wgt id='1488'> +1.4099478e-12 </wgt>
<wgt id='1489'> +1.4124692e-12 </wgt>
<wgt id='1490'> +1.4095475e-12 </wgt>
<wgt id='1491'> +1.4195895e-12 </wgt>
<wgt id='1492'> +1.4121226e-12 </wgt>
<wgt id='1493'> +1.3915308e-12 </wgt>
<wgt id='1494'> +1.4080071e-12 </wgt>
<wgt id='1495'> +1.4061358e-12 </wgt>
<wgt id='1496'> +1.4130845e-12 </wgt>
<wgt id='1497'> +1.4119048e-12 </wgt>
<wgt id='1498'> +1.4129285e-12 </wgt>
<wgt id='1499'> +1.4158534e-12 </wgt>
<wgt id='1500'> +1.4152153e-12 </wgt>
<wgt id='1501'> +1.4143018e-12 </wgt>
<wgt id='1502'> +1.4103231e-12 </wgt>
<wgt id='1503'> +1.4183231e-12 </wgt>
<wgt id='1504'> +1.4069569e-12 </wgt>
<wgt id='1505'> +1.4183944e-12 </wgt>
<wgt id='1506'> +1.4154364e-12 </wgt>
<wgt id='1507'> +1.4125731e-12 </wgt>
<wgt id='1508'> +1.4153713e-12 </wgt>
<wgt id='1509'> +1.3437305e-12 </wgt>
<wgt id='1510'> +1.3494950e-12 </wgt>
<wgt id='1511'> +1.3210159e-12 </wgt>
<wgt id='1512'> +1.3298069e-12 </wgt>
<wgt id='1513'> +1.3412120e-12 </wgt>
<wgt id='1514'> +1.3487073e-12 </wgt>
<wgt id='1515'> +1.3482999e-12 </wgt>
<wgt id='1516'> +1.3465311e-12 </wgt>
<wgt id='1517'> +1.3440882e-12 </wgt>
<wgt id='1518'> +1.3426337e-12 </wgt>
<wgt id='1519'> +1.3462888e-12 </wgt>
<wgt id='1520'> +1.3450317e-12 </wgt>
<wgt id='1521'> +1.3423575e-12 </wgt>
<wgt id='1522'> +1.3462828e-12 </wgt>
<wgt id='1523'> +1.3465919e-12 </wgt>
<wgt id='1524'> +1.3416526e-12 </wgt>
<wgt id='1525'> +1.3430952e-12 </wgt>
<wgt id='1526'> +1.3456645e-12 </wgt>
<wgt id='1527'> +1.3438029e-12 </wgt>
<wgt id='1528'> +1.3450913e-12 </wgt>
<wgt id='1529'> +1.3447907e-12 </wgt>
<wgt id='1530'> +1.3435526e-12 </wgt>
<wgt id='1531'> +1.3461395e-12 </wgt>
<wgt id='1532'> +1.3406732e-12 </wgt>
<wgt id='1533'> +1.3434885e-12 </wgt>
<wgt id='1534'> +1.3449921e-12 </wgt>
<wgt id='1535'> +1.3406045e-12 </wgt>
<wgt id='1536'> +1.3478537e-12 </wgt>
<wgt id='1537'> +1.3466627e-12 </wgt>
<wgt id='1538'> +1.3292746e-12 </wgt>
<wgt id='1539'> +1.3401321e-12 </wgt>
<wgt id='1540'> +1.3426030e-12 </wgt>
<wgt id='1541'> +1.3402517e-12 </wgt>
<wgt id='1542'> +1.3413570e-12 </wgt>
<wgt id='1543'> +1.3449388e-12 </wgt>
<wgt id='1544'> +1.3416013e-12 </wgt>
<wgt id='1545'> +1.3423818e-12 </wgt>
<wgt id='1546'> +1.3451130e-12 </wgt>
<wgt id='1547'> +1.3425392e-12 </wgt>
<wgt id='1548'> +1.3440037e-12 </wgt>
<wgt id='1549'> +1.3425810e-12 </wgt>
<wgt id='1550'> +1.3438267e-12 </wgt>
<wgt id='1551'> +1.3434304e-12 </wgt>
<wgt id='1552'> +1.3455856e-12 </wgt>
<wgt id='1553'> +1.3431981e-12 </wgt>
<wgt id='1554'> +1.3429959e-12 </wgt>
<wgt id='1555'> +1.3446518e-12 </wgt>
<wgt id='1556'> +1.3454990e-12 </wgt>
<wgt id='1557'> +1.3444157e-12 </wgt>
<wgt id='1558'> +1.3444859e-12 </wgt>
<wgt id='1559'> +1.3438277e-12 </wgt>
<wgt id='1560'> +1.3457212e-12 </wgt>
<wgt id='1561'> +1.3447204e-12 </wgt>
<wgt id='1562'> +1.3446073e-12 </wgt>
<wgt id='1563'> +1.3452335e-12 </wgt>
<wgt id='1564'> +1.3430864e-12 </wgt>
<wgt id='1565'> +1.3428172e-12 </wgt>
<wgt id='1566'> +1.3433173e-12 </wgt>
<wgt id='1567'> +1.3412889e-12 </wgt>
<wgt id='1568'> +1.3441403e-12 </wgt>
<wgt id='1569'> +1.3450875e-12 </wgt>
<wgt id='1570'> +1.3443347e-12 </wgt>
<wgt id='1571'> +1.3434962e-12 </wgt>
<wgt id='1572'> +1.3427466e-12 </wgt>
<wgt id='1573'> +1.3414553e-12 </wgt>
<wgt id='1574'> +1.3434417e-12 </wgt>
<wgt id='1575'> +1.3448267e-12 </wgt>
<wgt id='1576'> +1.3451629e-12 </wgt>
<wgt id='1577'> +1.3466247e-12 </wgt>
<wgt id='1578'> +1.3431687e-12 </wgt>
<wgt id='1579'> +1.3436845e-12 </wgt>
<wgt id='1580'> +1.3438787e-12 </wgt>
<wgt id='1581'> +1.3438421e-12 </wgt>
<wgt id='1582'> +1.3427279e-12 </wgt>
<wgt id='1583'> +1.3435455e-12 </wgt>
<wgt id='1584'> +1.3420621e-12 </wgt>
<wgt id='1585'> +1.3428701e-12 </wgt>
<wgt id='1586'> +1.3448127e-12 </wgt>
<wgt id='1587'> +1.3447923e-12 </wgt>
<wgt id='1588'> +1.3443862e-12 </wgt>
<wgt id='1589'> +1.3436460e-12 </wgt>
<wgt id='1590'> +1.3449927e-12 </wgt>
<wgt id='1591'> +1.3449366e-12 </wgt>
<wgt id='1592'> +1.3449118e-12 </wgt>
<wgt id='1593'> +1.3430464e-12 </wgt>
<wgt id='1594'> +1.3440031e-12 </wgt>
<wgt id='1595'> +1.3426770e-12 </wgt>
<wgt id='1596'> +1.3437210e-12 </wgt>
<wgt id='1597'> +1.3430176e-12 </wgt>
<wgt id='1598'> +1.3441581e-12 </wgt>
<wgt id='1599'> +1.3434554e-12 </wgt>
<wgt id='1600'> +1.3435371e-12 </wgt>
<wgt id='1601'> +1.3439281e-12 </wgt>
<wgt id='1602'> +1.3428000e-12 </wgt>
<wgt id='1603'> +1.3430696e-12 </wgt>
<wgt id='1604'> +1.3431592e-12 </wgt>
<wgt id='1605'> +1.3432030e-12 </wgt>
<wgt id='1606'> +1.3439990e-12 </wgt>
<wgt id='1607'> +1.3432703e-12 </wgt>
<wgt id='1608'> +1.3433867e-12 </wgt>
<wgt id='1609'> +1.3431448e-12 </wgt>
<wgt id='1610'> +1.3299652e-12 </wgt>
<wgt id='1611'> +1.3556845e-12 </wgt>
<wgt id='1612'> +1.5417466e-12 </wgt>
<wgt id='1613'> +1.5019351e-12 </wgt>
<wgt id='1614'> +1.4566593e-12 </wgt>
<wgt id='1615'> +1.5186238e-12 </wgt>
<wgt id='1616'> +1.4755625e-12 </wgt>
<wgt id='1617'> +1.5099365e-12 </wgt>
<wgt id='1618'> +1.5508319e-12 </wgt>
<wgt id='1619'> +1.4964420e-12 </wgt>
<wgt id='1620'> +1.4975665e-12 </wgt>
<wgt id='1621'> +1.5663765e-12 </wgt>
<wgt id='1622'> +1.5545518e-12 </wgt>
<wgt id='1623'> +1.5719322e-12 </wgt>
<wgt id='1624'> +1.5952535e-12 </wgt>
<wgt id='1625'> +1.4683444e-12 </wgt>
<wgt id='1626'> +1.5207290e-12 </wgt>
<wgt id='1627'> +1.5662842e-12 </wgt>
<wgt id='1628'> +1.4576317e-12 </wgt>
<wgt id='1629'> +1.5739221e-12 </wgt>
<wgt id='1630'> +1.4875390e-12 </wgt>
<wgt id='1631'> +1.5133603e-12 </wgt>
<wgt id='1632'> +1.4817469e-12 </wgt>
<wgt id='1633'> +1.4854918e-12 </wgt>
<wgt id='1634'> +1.5333669e-12 </wgt>
<wgt id='1635'> +1.5585846e-12 </wgt>
<wgt id='1636'> +1.5232240e-12 </wgt>
<wgt id='1637'> +1.5796583e-12 </wgt>
<wgt id='1638'> +1.5522395e-12 </wgt>
<wgt id='1639'> +1.5323061e-12 </wgt>
<wgt id='1640'> +1.5213871e-12 </wgt>
<wgt id='1641'> +1.5609014e-12 </wgt>
<wgt id='1642'> +1.4714979e-12 </wgt>
<wgt id='1643'> +1.5183144e-12 </wgt>
<wgt id='1644'> +1.5766060e-12 </wgt>
<wgt id='1645'> +1.5125033e-12 </wgt>
<wgt id='1646'> +1.5635961e-12 </wgt>
<wgt id='1647'> +1.5922023e-12 </wgt>
<wgt id='1648'> +1.5347494e-12 </wgt>
<wgt id='1649'> +1.6109574e-12 </wgt>
<wgt id='1650'> +1.5105021e-12 </wgt>
<wgt id='1651'> +1.5922063e-12 </wgt>
<wgt id='1652'> +1.5353271e-12 </wgt>
<wgt id='1653'> +1.5194354e-12 </wgt>
<wgt id='1654'> +1.5616296e-12 </wgt>
<wgt id='1655'> +1.5963564e-12 </wgt>
<wgt id='1656'> +1.5261727e-12 </wgt>
<wgt id='1657'> +1.5683137e-12 </wgt>
<wgt id='1658'> +1.5355825e-12 </wgt>
<wgt id='1659'> +1.5952535e-12 </wgt>
<wgt id='1660'> +1.5555910e-12 </wgt>
<wgt id='1661'> +1.5800703e-12 </wgt>
<wgt id='1662'> +1.6077495e-12 </wgt>
<wgt id='1663'> +1.5489860e-12 </wgt>
<wgt id='1664'> +1.5295709e-12 </wgt>
<wgt id='1665'> +1.5079607e-12 </wgt>
<wgt id='1666'> +1.5634389e-12 </wgt>
<wgt id='1667'> +1.5631082e-12 </wgt>
<wgt id='1668'> +1.5541781e-12 </wgt>
<wgt id='1669'> +1.5644756e-12 </wgt>
<wgt id='1670'> +1.5168534e-12 </wgt>
<wgt id='1671'> +1.5003730e-12 </wgt>
<wgt id='1672'> +1.5684852e-12 </wgt>
<wgt id='1673'> +1.5601329e-12 </wgt>
<wgt id='1674'> +1.5255523e-12 </wgt>
<wgt id='1675'> +1.5427832e-12 </wgt>
<wgt id='1676'> +1.5187704e-12 </wgt>
<wgt id='1677'> +1.5251079e-12 </wgt>
<wgt id='1678'> +1.5310734e-12 </wgt>
<wgt id='1679'> +1.5551932e-12 </wgt>
<wgt id='1680'> +1.5780344e-12 </wgt>
<wgt id='1681'> +1.5789404e-12 </wgt>
<wgt id='1682'> +1.5329948e-12 </wgt>
<wgt id='1683'> +1.5695559e-12 </wgt>
<wgt id='1684'> +1.6101877e-12 </wgt>
<wgt id='1685'> +1.5356230e-12 </wgt>
<wgt id='1686'> +1.5369077e-12 </wgt>
<wgt id='1687'> +1.5715122e-12 </wgt>
<wgt id='1688'> +1.5091814e-12 </wgt>
<wgt id='1689'> +1.6083921e-12 </wgt>
<wgt id='1690'> +1.5478339e-12 </wgt>
<wgt id='1691'> +1.4442058e-12 </wgt>
<wgt id='1692'> +1.4869487e-12 </wgt>
<wgt id='1693'> +1.5423891e-12 </wgt>
<wgt id='1694'> +1.5290014e-12 </wgt>
<wgt id='1695'> +1.5365869e-12 </wgt>
<wgt id='1696'> +1.5338130e-12 </wgt>
<wgt id='1697'> +1.5385858e-12 </wgt>
<wgt id='1698'> +1.5536263e-12 </wgt>
<wgt id='1699'> +1.5566021e-12 </wgt>
<wgt id='1700'> +1.5085377e-12 </wgt>
<wgt id='1701'> +1.6118782e-12 </wgt>
<wgt id='1702'> +1.4931388e-12 </wgt>
<wgt id='1703'> +1.4893249e-12 </wgt>
<wgt id='1704'> +1.5019094e-12 </wgt>
<wgt id='1705'> +1.4893443e-12 </wgt>
<wgt id='1706'> +1.5841882e-12 </wgt>
<wgt id='1707'> +1.5721917e-12 </wgt>
<wgt id='1708'> +1.6277496e-12 </wgt>
<wgt id='1709'> +1.6119597e-12 </wgt>
<wgt id='1710'> +1.5410173e-12 </wgt>
<wgt id='1711'> +1.5512993e-12 </wgt>
<wgt id='1712'> +1.6267104e-12 </wgt>
<wgt id='1713'> +1.3816339e-12 </wgt>
<wgt id='1714'> +1.3698623e-12 </wgt>
<wgt id='1715'> +1.3265989e-12 </wgt>
<wgt id='1716'> +1.4249974e-12 </wgt>
<wgt id='1717'> +1.4065351e-12 </wgt>
<wgt id='1718'> +1.4226687e-12 </wgt>
<wgt id='1719'> +1.4039159e-12 </wgt>
<wgt id='1720'> +1.3297299e-12 </wgt>
<wgt id='1721'> +1.3611542e-12 </wgt>
<wgt id='1722'> +1.3757763e-12 </wgt>
<wgt id='1723'> +1.4251656e-12 </wgt>
<wgt id='1724'> +1.3789669e-12 </wgt>
<wgt id='1725'> +1.3942083e-12 </wgt>
<wgt id='1726'> +1.3798471e-12 </wgt>
<wgt id='1727'> +1.4476584e-12 </wgt>
<wgt id='1728'> +1.3725479e-12 </wgt>
<wgt id='1729'> +1.3055203e-12 </wgt>
<wgt id='1730'> +1.3540600e-12 </wgt>
<wgt id='1731'> +1.3086381e-12 </wgt>
<wgt id='1732'> +1.3892272e-12 </wgt>
<wgt id='1733'> +1.3285084e-12 </wgt>
<wgt id='1734'> +1.4595962e-12 </wgt>
<wgt id='1735'> +1.3459821e-12 </wgt>
<wgt id='1736'> +1.4006319e-12 </wgt>
<wgt id='1737'> +1.4465953e-12 </wgt>
<wgt id='1738'> +1.3704425e-12 </wgt>
<wgt id='1739'> +1.4041941e-12 </wgt>
<wgt id='1740'> +1.2951664e-12 </wgt>
<wgt id='1741'> +1.4576775e-12 </wgt>
<wgt id='1742'> +1.3775416e-12 </wgt>
<wgt id='1743'> +1.3499940e-12 </wgt>
<wgt id='1744'> +1.4106935e-12 </wgt>
<wgt id='1745'> +1.4228747e-12 </wgt>
<wgt id='1746'> +1.3731062e-12 </wgt>
<wgt id='1747'> +1.4366677e-12 </wgt>
<wgt id='1748'> +1.3910808e-12 </wgt>
<wgt id='1749'> +1.3664973e-12 </wgt>
<wgt id='1750'> +1.3513900e-12 </wgt>
<wgt id='1751'> +1.3675464e-12 </wgt>
<wgt id='1752'> +1.3651663e-12 </wgt>
<wgt id='1753'> +1.3995475e-12 </wgt>
<wgt id='1754'> +1.4043227e-12 </wgt>
<wgt id='1755'> +1.3753271e-12 </wgt>
<wgt id='1756'> +1.4075749e-12 </wgt>
<wgt id='1757'> +1.4122045e-12 </wgt>
<wgt id='1758'> +1.4333534e-12 </wgt>
<wgt id='1759'> +1.4003733e-12 </wgt>
<wgt id='1760'> +1.3747675e-12 </wgt>
<wgt id='1761'> +1.3688983e-12 </wgt>
<wgt id='1762'> +1.3769458e-12 </wgt>
<wgt id='1763'> +1.4087935e-12 </wgt>
<wgt id='1764'> +1.4451074e-12 </wgt>
<wgt id='1765'> +1.3702063e-12 </wgt>
<wgt id='1766'> +1.4226627e-12 </wgt>
<wgt id='1767'> +1.3550881e-12 </wgt>
<wgt id='1768'> +1.3965475e-12 </wgt>
<wgt id='1769'> +1.3734353e-12 </wgt>
<wgt id='1770'> +1.3667796e-12 </wgt>
<wgt id='1771'> +1.4453673e-12 </wgt>
<wgt id='1772'> +1.3654844e-12 </wgt>
<wgt id='1773'> +1.3853268e-12 </wgt>
<wgt id='1774'> +1.3745106e-12 </wgt>
<wgt id='1775'> +1.3839295e-12 </wgt>
<wgt id='1776'> +1.4470919e-12 </wgt>
<wgt id='1777'> +1.3170413e-12 </wgt>
<wgt id='1778'> +1.4044622e-12 </wgt>
<wgt id='1779'> +1.3641168e-12 </wgt>
<wgt id='1780'> +1.3879696e-12 </wgt>
<wgt id='1781'> +1.4058518e-12 </wgt>
<wgt id='1782'> +1.3678132e-12 </wgt>
<wgt id='1783'> +1.3854495e-12 </wgt>
<wgt id='1784'> +1.3628288e-12 </wgt>
<wgt id='1785'> +1.3985421e-12 </wgt>
<wgt id='1786'> +1.3629908e-12 </wgt>
<wgt id='1787'> +1.4827055e-12 </wgt>
<wgt id='1788'> +1.3674916e-12 </wgt>
<wgt id='1789'> +1.4735479e-12 </wgt>
<wgt id='1790'> +1.3667606e-12 </wgt>
<wgt id='1791'> +1.3482434e-12 </wgt>
<wgt id='1792'> +1.3716876e-12 </wgt>
<wgt id='1793'> +1.3506745e-12 </wgt>
<wgt id='1794'> +1.4118373e-12 </wgt>
<wgt id='1795'> +1.3923504e-12 </wgt>
<wgt id='1796'> +1.3386941e-12 </wgt>
<wgt id='1797'> +1.3800071e-12 </wgt>
<wgt id='1798'> +1.3784149e-12 </wgt>
<wgt id='1799'> +1.3577739e-12 </wgt>
<wgt id='1800'> +1.3954463e-12 </wgt>
<wgt id='1801'> +1.3772738e-12 </wgt>
<wgt id='1802'> +1.3255514e-12 </wgt>
<wgt id='1803'> +1.3924291e-12 </wgt>
<wgt id='1804'> +1.4018633e-12 </wgt>
<wgt id='1805'> +1.3511516e-12 </wgt>
<wgt id='1806'> +1.3483791e-12 </wgt>
<wgt id='1807'> +1.3407969e-12 </wgt>
<wgt id='1808'> +1.3473287e-12 </wgt>
<wgt id='1809'> +1.3502821e-12 </wgt>
<wgt id='1810'> +1.3455436e-12 </wgt>
<wgt id='1811'> +1.3923700e-12 </wgt>
<wgt id='1812'> +1.3555546e-12 </wgt>
<wgt id='1813'> +1.2816152e-12 </wgt>
<wgt id='1814'> +1.8365653e-12 </wgt>
<wgt id='1815'> +2.2437518e-12 </wgt>
<wgt id='1816'> +1.3816339e-12 </wgt>
<wgt id='1817'> +1.3698623e-12 </wgt>
<wgt id='1818'> +1.3265989e-12 </wgt>
<wgt id='1819'> +1.4249974e-12 </wgt>
<wgt id='1820'> +1.4065351e-12 </wgt>
<wgt id='1821'> +1.4226687e-12 </wgt>
<wgt id='1822'> +1.4039159e-12 </wgt>
<wgt id='1823'> +1.3297299e-12 </wgt>
<wgt id='1824'> +1.3611542e-12 </wgt>
<wgt id='1825'> +1.3757763e-12 </wgt>
<wgt id='1826'> +1.4251656e-12 </wgt>
<wgt id='1827'> +1.3789669e-12 </wgt>
<wgt id='1828'> +1.3942083e-12 </wgt>
<wgt id='1829'> +1.3798471e-12 </wgt>
<wgt id='1830'> +1.4476584e-12 </wgt>
<wgt id='1831'> +1.3725479e-12 </wgt>
<wgt id='1832'> +1.3055203e-12 </wgt>
<wgt id='1833'> +1.3540600e-12 </wgt>
<wgt id='1834'> +1.3086381e-12 </wgt>
<wgt id='1835'> +1.3892272e-12 </wgt>
<wgt id='1836'> +1.3285084e-12 </wgt>
<wgt id='1837'> +1.4595962e-12 </wgt>
<wgt id='1838'> +1.3459821e-12 </wgt>
<wgt id='1839'> +1.4006319e-12 </wgt>
<wgt id='1840'> +1.4465953e-12 </wgt>
<wgt id='1841'> +1.3704425e-12 </wgt>
<wgt id='1842'> +1.4041941e-12 </wgt>
<wgt id='1843'> +1.2951664e-12 </wgt>
<wgt id='1844'> +1.4576775e-12 </wgt>
<wgt id='1845'> +1.3775416e-12 </wgt>
<wgt id='1846'> +1.3499940e-12 </wgt>
<wgt id='1847'> +1.4106935e-12 </wgt>
<wgt id='1848'> +1.4228747e-12 </wgt>
<wgt id='1849'> +1.3731062e-12 </wgt>
<wgt id='1850'> +1.4366677e-12 </wgt>
<wgt id='1851'> +1.3910808e-12 </wgt>
<wgt id='1852'> +1.3664973e-12 </wgt>
<wgt id='1853'> +1.3513900e-12 </wgt>
<wgt id='1854'> +1.3675464e-12 </wgt>
<wgt id='1855'> +1.3651663e-12 </wgt>
<wgt id='1856'> +1.3995475e-12 </wgt>
<wgt id='1857'> +1.4043227e-12 </wgt>
<wgt id='1858'> +1.3753271e-12 </wgt>
<wgt id='1859'> +1.4075749e-12 </wgt>
<wgt id='1860'> +1.4122045e-12 </wgt>
<wgt id='1861'> +1.4333534e-12 </wgt>
<wgt id='1862'> +1.4003733e-12 </wgt>
<wgt id='1863'> +1.3747675e-12 </wgt>
<wgt id='1864'> +1.3688983e-12 </wgt>
<wgt id='1865'> +1.3769458e-12 </wgt>
<wgt id='1866'> +1.4087935e-12 </wgt>
<wgt id='1867'> +1.4451074e-12 </wgt>
<wgt id='1868'> +1.3702063e-12 </wgt>
<wgt id='1869'> +1.4226627e-12 </wgt>
<wgt id='1870'> +1.3550881e-12 </wgt>
<wgt id='1871'> +1.3965475e-12 </wgt>
<wgt id='1872'> +1.3734353e-12 </wgt>
<wgt id='1873'> +1.3667796e-12 </wgt>
<wgt id='1874'> +1.4453673e-12 </wgt>
<wgt id='1875'> +1.3654844e-12 </wgt>
<wgt id='1876'> +1.3853268e-12 </wgt>
<wgt id='1877'> +1.3745106e-12 </wgt>
<wgt id='1878'> +1.3839295e-12 </wgt>
<wgt id='1879'> +1.4470919e-12 </wgt>
<wgt id='1880'> +1.3170413e-12 </wgt>
<wgt id='1881'> +1.4044622e-12 </wgt>
<wgt id='1882'> +1.3641168e-12 </wgt>
<wgt id='1883'> +1.3879696e-12 </wgt>
<wgt id='1884'> +1.4058518e-12 </wgt>
<wgt id='1885'> +1.3678132e-12 </wgt>
<wgt id='1886'> +1.3854495e-12 </wgt>
<wgt id='1887'> +1.3628288e-12 </wgt>
<wgt id='1888'> +1.3985421e-12 </wgt>
<wgt id='1889'> +1.3629908e-12 </wgt>
<wgt id='1890'> +1.4827055e-12 </wgt>
<wgt id='1891'> +1.3674916e-12 </wgt>
<wgt id='1892'> +1.4735479e-12 </wgt>
<wgt id='1893'> +1.3667606e-12 </wgt>
<wgt id='1894'> +1.3482434e-12 </wgt>
<wgt id='1895'> +1.3716876e-12 </wgt>
<wgt id='1896'> +1.3506745e-12 </wgt>
<wgt id='1897'> +1.4118373e-12 </wgt>
<wgt id='1898'> +1.3923504e-12 </wgt>
<wgt id='1899'> +1.3386941e-12 </wgt>
<wgt id='1900'> +1.3800071e-12 </wgt>
<wgt id='1901'> +1.3784149e-12 </wgt>
<wgt id='1902'> +1.3577739e-12 </wgt>
<wgt id='1903'> +1.3954463e-12 </wgt>
<wgt id='1904'> +1.3772738e-12 </wgt>
<wgt id='1905'> +1.3255514e-12 </wgt>
<wgt id='1906'> +1.3924291e-12 </wgt>
<wgt id='1907'> +1.4018633e-12 </wgt>
<wgt id='1908'> +1.3511516e-12 </wgt>
<wgt id='1909'> +1.3483791e-12 </wgt>
<wgt id='1910'> +1.3407969e-12 </wgt>
<wgt id='1911'> +1.3473287e-12 </wgt>
<wgt id='1912'> +1.3502821e-12 </wgt>
<wgt id='1913'> +1.3455436e-12 </wgt>
<wgt id='1914'> +1.3923700e-12 </wgt>
<wgt id='1915'> +1.3555546e-12 </wgt>
<wgt id='1916'> +1.2816152e-12 </wgt>
<wgt id='1917'> +1.3765501e-12 </wgt>
<wgt id='1918'> +1.3982679e-12 </wgt>
<wgt id='1919'> +1.3328450e-12 </wgt>
</rwgt>
</event>
<event>
 9      1 +1.5538000e-12 2.58161700e+01 7.81860800e-03 1.49625100e-01
       21 -1    0    0  501  502 +0.0000000000e+00 +0.0000000000e+00 +5.7368709989e+01 5.7368709989e+01 0.0000000000e+00 0.0000e+00 -1.0000e+00
       -2 -1    0    0    0  501 -0.0000000000e+00 -0.0000000000e+00 -2.7933830379e+01 2.7933830379e+01 0.0000000000e+00 0.0000e+00 -1.0000e+00
     1023  2    1    2    0    0 +2.0997440005e+01 +7.8713606911e-01 -1.9298622951e+01 3.2232149924e+01 1.4998752314e+01 0.0000e+00 0.0000e+00
  1000023  2    3    3    0    0 +1.5853655319e+01 -3.8660107138e+00 -1.3785807910e+01 2.2058584887e+01 5.4998401529e+00 0.0000e+00 0.0000e+00
       -2  1    1    2    0  502 -2.0997440005e+01 -7.8713606911e-01 +4.8733502562e+01 5.3070390444e+01 0.0000000000e+00 0.0000e+00 -1.0000e+00
  1000022  1    4    4    0    0 +1.3652573953e+01 -3.7163345097e+00 -1.2150952690e+01 1.9309313012e+01 5.0000000000e+00 0.0000e+00 -1.0000e+00
      -11  1    4    4    0    0 +1.0905462769e+00 -1.0299564451e-01 -8.8832404538e-01 1.4103259040e+00 5.1100000000e-04 0.0000e+00 -1.0000e+00
       11  1    4    4    0    0 +1.1105350892e+00 -4.6680559592e-02 -7.4653117448e-01 1.3389459715e+00 5.1100000000e-04 0.0000e+00 1.0000e+00
  1000022  1    3    3    0    0 +5.1437846861e+00 +4.6531467829e+00 -5.5128150415e+00 1.0173565037e+01 5.0000000000e+00 0.0000e+00 -1.0000e+00
<mgrwt>
<rscale>  1 0.25816170E+02</rscale>
<asrwt>0</asrwt>
<pdfrwt beam="1">  1       21 0.88259553E-02 0.25816170E+02</pdfrwt>
<pdfrwt beam="2">  1       -2 0.42975124E-02 0.25816170E+02</pdfrwt>
<totfact> 0.17585316E+06</totfact>
</mgrwt>
<rwgt>
<wgt id='1001'> +1.5538000e-12 </wgt>
<wgt id='1002'> +1.5751260e-12 </wgt>
<wgt id='1003'> +1.5753788e-12 </wgt>
<wgt id='1004'> +1.5470766e-12 </wgt>
<wgt id='1005'> +1.5728638e-12 </wgt>
<wgt id='1006'> +1.3538069e-12 </wgt>
<wgt id='1007'> +1.3931040e-12 </wgt>
<wgt id='1008'> +1.3939854e-12 </wgt>
<wgt id='1009'> +1.3439643e-12 </wgt>
<wgt id='1010'> +1.4074452e-12 </wgt>
<wgt id='1011'> +1.8266837e-12 </wgt>
<wgt id='1012'> +1.8143082e-12 </wgt>
<wgt id='1013'> +1.8134646e-12 </wgt>
<wgt id='1014'> +1.8263261e-12 </wgt>
<wgt id='1015'> +1.7841021e-12 </wgt>
<wgt id='1016'> +1.8090818e-12 </wgt>
<wgt id='1017'> +1.7749529e-12 </wgt>
<wgt id='1018'> +1.7735181e-12 </wgt>
<wgt id='1019'> +1.8134646e-12 </wgt>
<wgt id='1020'> +1.7321640e-12 </wgt>
<wgt id='1021'> +1.5762308e-12 </wgt>
<wgt id='1022'> +1.5698388e-12 </wgt>
<wgt id='1023'> +1.5693104e-12 </wgt>
<wgt id='1024'> +1.5753788e-12 </wgt>
<wgt id='1025'> +1.5499918e-12 </wgt>
<wgt id='1026'> +2.1267991e-12 </wgt>
<wgt id='1027'> +2.0444786e-12 </wgt>
<wgt id='1028'> +2.0415486e-12 </wgt>
<wgt id='1029'> +2.1407975e-12 </wgt>
<wgt id='1030'> +1.9647967e-12 </wgt>
<wgt id='1031'> +1.2580382e-12 </wgt>
<wgt id='1032'> +1.3418057e-12 </wgt>
<wgt id='1033'> +1.3439643e-12 </wgt>
<wgt id='1034'> +1.2385750e-12 </wgt>
<wgt id='1035'> +1.3864789e-12 </wgt>
<wgt id='1036'> +1.0961132e-12 </wgt>
<wgt id='1037'> +1.1867462e-12 </wgt>
<wgt id='1038'> +1.1892166e-12 </wgt>
<wgt id='1039'> +1.0759651e-12 </wgt>
<wgt id='1040'> +1.2406625e-12 </wgt>
<wgt id='1041'> +1.4789792e-12 </wgt>
<wgt id='1042'> +1.5455582e-12 </wgt>
<wgt id='1043'> +1.5470766e-12 </wgt>
<wgt id='1044'> +1.4621394e-12 </wgt>
<wgt id='1045'> +1.5726855e-12 </wgt>
<wgt id='1046'> +1.5538000e-12 </wgt>
<wgt id='1047'> +1.5894983e-12 </wgt>
<wgt id='1048'> +1.5349178e-12 </wgt>
<wgt id='1049'> +1.5157382e-12 </wgt>
<wgt id='1050'> +1.5406552e-12 </wgt>
<wgt id='1051'> +1.5385782e-12 </wgt>
<wgt id='1052'> +1.5858930e-12 </wgt>
<wgt id='1053'> +1.5429283e-12 </wgt>
<wgt id='1054'> +1.5358324e-12 </wgt>
<wgt id='1055'> +1.5227501e-12 </wgt>
<wgt id='1056'> +1.5448089e-12 </wgt>
<wgt id='1057'> +1.5934129e-12 </wgt>
<wgt id='1058'> +1.4904652e-12 </wgt>
<wgt id='1059'> +1.5448554e-12 </wgt>
<wgt id='1060'> +1.5629655e-12 </wgt>
<wgt id='1061'> +1.5840748e-12 </wgt>
<wgt id='1062'> +1.5699991e-12 </wgt>
<wgt id='1063'> +1.5755095e-12 </wgt>
<wgt id='1064'> +1.5338945e-12 </wgt>
<wgt id='1065'> +1.5609529e-12 </wgt>
<wgt id='1066'> +1.5416991e-12 </wgt>
<wgt id='1067'> +1.4981965e-12 </wgt>
<wgt id='1068'> +1.5718659e-12 </wgt>
<wgt id='1069'> +1.5564001e-12 </wgt>
<wgt id='1070'> +1.5277039e-12 </wgt>
<wgt id='1071'> +1.5298605e-12 </wgt>
<wgt id='1072'> +1.6120799e-12 </wgt>
<wgt id='1073'> +1.5862182e-12 </wgt>
<wgt id='1074'> +1.5250481e-12 </wgt>
<wgt id='1075'> +1.5690596e-12 </wgt>
<wgt id='1076'> +1.5780730e-12 </wgt>
<wgt id='1077'> +1.5692615e-12 </wgt>
<wgt id='1078'> +1.5269334e-12 </wgt>
<wgt id='1079'> +1.5645529e-12 </wgt>
<wgt id='1080'> +1.5211599e-12 </wgt>
<wgt id='1081'> +1.6038362e-12 </wgt>
<wgt id='1082'> +1.5560483e-12 </wgt>
<wgt id='1083'> +1.5577468e-12 </wgt>
<wgt id='1084'> +1.5653357e-12 </wgt>
<wgt id='1085'> +1.5327721e-12 </wgt>
<wgt id='1086'> +1.5887331e-12 </wgt>
<wgt id='1087'> +1.5887123e-12 </wgt>
<wgt id='1088'> +1.5368466e-12 </wgt>
<wgt id='1089'> +1.5571641e-12 </wgt>
<wgt id='1090'> +1.5535811e-12 </wgt>
<wgt id='1091'> +1.5654239e-12 </wgt>
<wgt id='1092'> +1.5852855e-12 </wgt>
<wgt id='1093'> +1.5597584e-12 </wgt>
<wgt id='1094'> +1.5599695e-12 </wgt>
<wgt id='1095'> +1.5861223e-12 </wgt>
<wgt id='1096'> +1.5581179e-12 </wgt>
<wgt id='1097'> +1.5042824e-12 </wgt>
<wgt id='1098'> +1.5273201e-12 </wgt>
<wgt id='1099'> +1.5743696e-12 </wgt>
<wgt id='1100'> +1.5232035e-12 </wgt>
<wgt id='1101'> +1.5859546e-12 </wgt>
<wgt id='1102'> +1.5257593e-12 </wgt>
<wgt id='1103'> +1.5454715e-12 </wgt>
<wgt id='1104'> +1.5371286e-12 </wgt>
<wgt id='1105'> +1.6011777e-12 </wgt>
<wgt id='1106'> +1.5842830e-12 </wgt>
<wgt id='1107'> +1.5689248e-12 </wgt>
<wgt id='1108'> +1.5330586e-12 </wgt>
<wgt id='1109'> +1.5668393e-12 </wgt>
<wgt id='1110'> +1.5386571e-12 </wgt>
<wgt id='1111'> +1.5782848e-12 </wgt>
<wgt id='1112'> +1.6110458e-12 </wgt>
<wgt id='1113'> +1.5395399e-12 </wgt>
<wgt id='1114'> +1.5872266e-12 </wgt>
<wgt id='1115'> +1.5523942e-12 </wgt>
<wgt id='1116'> +1.5077078e-12 </wgt>
<wgt id='1117'> +1.5551016e-12 </wgt>
<wgt id='1118'> +1.5463847e-12 </wgt>
<wgt id='1119'> +1.5170902e-12 </wgt>
<wgt id='1120'> +1.5539957e-12 </wgt>
<wgt id='1121'> +1.5616738e-12 </wgt>
<wgt id='1122'> +1.6246686e-12 </wgt>
<wgt id='1123'> +1.5168909e-12 </wgt>
<wgt id='1124'> +1.5568272e-12 </wgt>
<wgt id='1125'> +1.5719146e-12 </wgt>
<wgt id='1126'> +1.5752841e-12 </wgt>
<wgt id='1127'> +1.5141453e-12 </wgt>
<wgt id='1128'> +1.5699991e-12 </wgt>
<wgt id='1129'> +1.5693861e-12 </wgt>
<wgt id='1130'> +1.5421383e-12 </wgt>
<wgt id='1131'> +1.5578338e-12 </wgt>
<wgt id='1132'> +1.5322374e-12 </wgt>
<wgt id='1133'> +1.5135579e-12 </wgt>
<wgt id='1134'> +1.5708014e-12 </wgt>
<wgt id='1135'> +1.5582322e-12 </wgt>
<wgt id='1136'> +1.5129665e-12 </wgt>
<wgt id='1137'> +1.5329223e-12 </wgt>
<wgt id='1138'> +1.5631675e-12 </wgt>
<wgt id='1139'> +1.5612687e-12 </wgt>
<wgt id='1140'> +1.5343181e-12 </wgt>
<wgt id='1141'> +1.4899648e-12 </wgt>
<wgt id='1142'> +1.5627023e-12 </wgt>
<wgt id='1143'> +1.5722599e-12 </wgt>
<wgt id='1144'> +1.5560104e-12 </wgt>
<wgt id='1145'> +1.5467826e-12 </wgt>
<wgt id='1146'> +1.5394753e-12 </wgt>
<wgt id='1147'> +1.1964256e-12 </wgt>
<wgt id='1148'> +1.2229195e-12 </wgt>
<wgt id='1149'> +1.2778845e-12 </wgt>
<wgt id='1150'> +1.2248684e-12 </wgt>
<wgt id='1151'> +1.1544044e-12 </wgt>
<wgt id='1152'> +1.4460845e-12 </wgt>
<wgt id='1153'> +1.4385234e-12 </wgt>
<wgt id='1154'> +1.4504890e-12 </wgt>
<wgt id='1155'> +1.4453547e-12 </wgt>
<wgt id='1156'> +1.4464706e-12 </wgt>
<wgt id='1157'> +1.4500761e-12 </wgt>
<wgt id='1158'> +1.4406715e-12 </wgt>
<wgt id='1159'> +1.4494329e-12 </wgt>
<wgt id='1160'> +1.4439647e-12 </wgt>
<wgt id='1161'> +1.4430276e-12 </wgt>
<wgt id='1162'> +1.4481750e-12 </wgt>
<wgt id='1163'> +1.4502349e-12 </wgt>
<wgt id='1164'> +1.4419410e-12 </wgt>
<wgt id='1165'> +1.4377279e-12 </wgt>
<wgt id='1166'> +1.4542135e-12 </wgt>
<wgt id='1167'> +1.4532832e-12 </wgt>
<wgt id='1168'> +1.4357300e-12 </wgt>
<wgt id='1169'> +1.4479470e-12 </wgt>
<wgt id='1170'> +1.4446469e-12 </wgt>
<wgt id='1171'> +1.4425137e-12 </wgt>
<wgt id='1172'> +1.4502844e-12 </wgt>
<wgt id='1173'> +1.4364431e-12 </wgt>
<wgt id='1174'> +1.4549369e-12 </wgt>
<wgt id='1175'> +1.4445369e-12 </wgt>
<wgt id='1176'> +1.4464502e-12 </wgt>
<wgt id='1177'> +1.4465711e-12 </wgt>
<wgt id='1178'> +1.4449831e-12 </wgt>
<wgt id='1179'> +1.4563305e-12 </wgt>
<wgt id='1180'> +1.4302525e-12 </wgt>
<wgt id='1181'> +1.4403080e-12 </wgt>
<wgt id='1182'> +1.4515060e-12 </wgt>
<wgt id='1183'> +1.4444120e-12 </wgt>
<wgt id='1184'> +1.4462632e-12 </wgt>
<wgt id='1185'> +1.4371700e-12 </wgt>
<wgt id='1186'> +1.4508279e-12 </wgt>
<wgt id='1187'> +1.4451151e-12 </wgt>
<wgt id='1188'> +1.4464121e-12 </wgt>
<wgt id='1189'> +1.4404949e-12 </wgt>
<wgt id='1190'> +1.4372994e-12 </wgt>
<wgt id='1191'> +1.4419282e-12 </wgt>
<wgt id='1192'> +1.4459954e-12 </wgt>
<wgt id='1193'> +1.2507797e-12 </wgt>
<wgt id='1194'> +1.2507239e-12 </wgt>
<wgt id='1195'> +1.2507844e-12 </wgt>
<wgt id='1196'> +1.2574444e-12 </wgt>
<wgt id='1197'> +1.2433901e-12 </wgt>
<wgt id='1198'> +1.2507134e-12 </wgt>
<wgt id='1199'> +1.2508804e-12 </wgt>
<wgt id='1200'> +1.2528031e-12 </wgt>
<wgt id='1201'> +1.2494456e-12 </wgt>
<wgt id='1202'> +1.2491222e-12 </wgt>
<wgt id='1203'> +1.2531631e-12 </wgt>
<wgt id='1204'> +1.2407419e-12 </wgt>
<wgt id='1205'> +1.2569957e-12 </wgt>
<wgt id='1206'> +1.2553533e-12 </wgt>
<wgt id='1207'> +1.2445785e-12 </wgt>
<wgt id='1208'> +1.2429590e-12 </wgt>
<wgt id='1209'> +1.2536416e-12 </wgt>
<wgt id='1210'> +1.2568546e-12 </wgt>
<wgt id='1211'> +1.2359624e-12 </wgt>
<wgt id='1212'> +1.2508696e-12 </wgt>
<wgt id='1213'> +1.2506424e-12 </wgt>
<wgt id='1214'> +1.2334070e-12 </wgt>
<wgt id='1215'> +1.2799542e-12 </wgt>
<wgt id='1216'> +1.2595991e-12 </wgt>
<wgt id='1217'> +1.2447302e-12 </wgt>
<wgt id='1218'> +1.2546925e-12 </wgt>
<wgt id='1219'> +1.2486687e-12 </wgt>
<wgt id='1220'> +1.2548732e-12 </wgt>
<wgt id='1221'> +1.2500378e-12 </wgt>
<wgt id='1222'> +1.2480558e-12 </wgt>
<wgt id='1223'> +1.2544503e-12 </wgt>
<wgt id='1224'> +1.2526375e-12 </wgt>
<wgt id='1225'> +1.2500593e-12 </wgt>
<wgt id='1226'> +1.2480005e-12 </wgt>
<wgt id='1227'> +1.2526710e-12 </wgt>
<wgt id='1228'> +1.2480831e-12 </wgt>
<wgt id='1229'> +1.2517814e-12 </wgt>
<wgt id='1230'> +1.2421124e-12 </wgt>
<wgt id='1231'> +1.2459673e-12 </wgt>
<wgt id='1232'> +1.2500219e-12 </wgt>
<wgt id='1233'> +1.2510023e-12 </wgt>
<wgt id='1234'> +1.2507797e-12 </wgt>
<wgt id='1235'> +1.2419626e-12 </wgt>
<wgt id='1236'> +1.2452505e-12 </wgt>
<wgt id='1237'> +1.2482614e-12 </wgt>
<wgt id='1238'> +1.2532518e-12 </wgt>
<wgt id='1239'> +1.2553822e-12 </wgt>
<wgt id='1240'> +1.2573393e-12 </wgt>
<wgt id='1241'> +1.2686226e-12 </wgt>
<wgt id='1242'> +1.2645600e-12 </wgt>
<wgt id='1243'> +1.2726653e-12 </wgt>
<wgt id='1244'> +1.2608320e-12 </wgt>
<wgt id='1245'> +1.2743884e-12 </wgt>
<wgt id='1246'> +1.2691976e-12 </wgt>
<wgt id='1247'> +1.2681358e-12 </wgt>
<wgt id='1248'> +1.2685366e-12 </wgt>
<wgt id='1249'> +1.2687090e-12 </wgt>
<wgt id='1250'> +1.2707466e-12 </wgt>
<wgt id='1251'> +1.2671241e-12 </wgt>
<wgt id='1252'> +1.2653161e-12 </wgt>
<wgt id='1253'> +1.2712056e-12 </wgt>
<wgt id='1254'> +1.2579916e-12 </wgt>
<wgt id='1255'> +1.2750126e-12 </wgt>
<wgt id='1256'> +1.2729937e-12 </wgt>
<wgt id='1257'> +1.2576720e-12 </wgt>
<wgt id='1258'> +1.2922532e-12 </wgt>
<wgt id='1259'> +1.2469647e-12 </wgt>
<wgt id='1260'> +1.2727918e-12 </wgt>
<wgt id='1261'> +1.2638876e-12 </wgt>
<wgt id='1262'> +1.2700311e-12 </wgt>
<wgt id='1263'> +1.2677422e-12 </wgt>
<wgt id='1264'> +1.2715896e-12 </wgt>
<wgt id='1265'> +1.2670597e-12 </wgt>
<wgt id='1266'> +1.2652830e-12 </wgt>
<wgt id='1267'> +1.2717947e-12 </wgt>
<wgt id='1268'> +1.2685721e-12 </wgt>
<wgt id='1269'> +1.2724424e-12 </wgt>
<wgt id='1270'> +1.2616543e-12 </wgt>
<wgt id='1271'> +1.2597505e-12 </wgt>
<wgt id='1272'> +1.2691378e-12 </wgt>
<wgt id='1273'> +1.2676693e-12 </wgt>
<wgt id='1274'> +1.2711381e-12 </wgt>
<wgt id='1275'> +1.2632878e-12 </wgt>
<wgt id='1276'> +1.2695080e-12 </wgt>
<wgt id='1277'> +1.2667707e-12 </wgt>
<wgt id='1278'> +1.2678146e-12 </wgt>
<wgt id='1279'> +1.2629101e-12 </wgt>
<wgt id='1280'> +1.2690225e-12 </wgt>
<wgt id='1281'> +1.2660154e-12 </wgt>
<wgt id='1282'> +1.2686226e-12 </wgt>
<wgt id='1283'> +1.2589767e-12 </wgt>
<wgt id='1284'> +1.2626489e-12 </wgt>
<wgt id='1285'> +1.2659275e-12 </wgt>
<wgt id='1286'> +1.2712999e-12 </wgt>
<wgt id='1287'> +1.2735140e-12 </wgt>
<wgt id='1288'> +1.2753505e-12 </wgt>
<wgt id='1289'> +1.2497119e-12 </wgt>
<wgt id='1290'> +1.2515645e-12 </wgt>
<wgt id='1291'> +1.2477151e-12 </wgt>
<wgt id='1292'> +1.2431353e-12 </wgt>
<wgt id='1293'> +1.2544331e-12 </wgt>
<wgt id='1294'> +1.2499969e-12 </wgt>
<wgt id='1295'> +1.2494387e-12 </wgt>
<wgt id='1296'> +1.2449216e-12 </wgt>
<wgt id='1297'> +1.2555322e-12 </wgt>
<wgt id='1298'> +1.2538105e-12 </wgt>
<wgt id='1299'> +1.2444898e-12 </wgt>
<wgt id='1300'> +1.2524236e-12 </wgt>
<wgt id='1301'> +1.2442434e-12 </wgt>
<wgt id='1302'> +1.2482748e-12 </wgt>
<wgt id='1303'> +1.2516759e-12 </wgt>
<wgt id='1304'> +1.2476640e-12 </wgt>
<wgt id='1305'> +1.2510782e-12 </wgt>
<wgt id='1306'> +1.2477545e-12 </wgt>
<wgt id='1307'> +1.2520027e-12 </wgt>
<wgt id='1308'> +1.2580815e-12 </wgt>
<wgt id='1309'> +1.2432938e-12 </wgt>
<wgt id='1310'> +1.2499030e-12 </wgt>
<wgt id='1311'> +1.2496120e-12 </wgt>
<wgt id='1312'> +1.2511606e-12 </wgt>
<wgt id='1313'> +1.2484625e-12 </wgt>
<wgt id='1314'> +1.2558350e-12 </wgt>
<wgt id='1315'> +1.2383631e-12 </wgt>
<wgt id='1316'> +1.2559380e-12 </wgt>
<wgt id='1317'> +1.2492506e-12 </wgt>
<wgt id='1318'> +1.2602738e-12 </wgt>
<wgt id='1319'> +1.2371051e-12 </wgt>
<wgt id='1320'> +1.2608739e-12 </wgt>
<wgt id='1321'> +1.2402770e-12 </wgt>
<wgt id='1322'> +1.2486488e-12 </wgt>
<wgt id='1323'> +1.2507134e-12 </wgt>
<wgt id='1324'> +1.2474229e-12 </wgt>
<wgt id='1325'> +1.2583639e-12 </wgt>
<wgt id='1326'> +1.2482825e-12 </wgt>
<wgt id='1327'> +1.2525610e-12 </wgt>
<wgt id='1328'> +1.2506027e-12 </wgt>
<wgt id='1329'> +1.2486902e-12 </wgt>
<wgt id='1330'> +1.2262138e-12 </wgt>
<wgt id='1331'> +1.2653186e-12 </wgt>
<wgt id='1332'> +1.2710455e-12 </wgt>
<wgt id='1333'> +1.2336924e-12 </wgt>
<wgt id='1334'> +1.2439095e-12 </wgt>
<wgt id='1335'> +1.2640423e-12 </wgt>
<wgt id='1336'> +1.2445001e-12 </wgt>
<wgt id='1337'> +1.2458790e-12 </wgt>
<wgt id='1338'> +1.2471118e-12 </wgt>
<wgt id='1339'> +1.2502781e-12 </wgt>
<wgt id='1340'> +1.2302288e-12 </wgt>
<wgt id='1341'> +1.2323317e-12 </wgt>
<wgt id='1342'> +1.2279890e-12 </wgt>
<wgt id='1343'> +1.2234878e-12 </wgt>
<wgt id='1344'> +1.2347549e-12 </wgt>
<wgt id='1345'> +1.2305833e-12 </wgt>
<wgt id='1346'> +1.2298991e-12 </wgt>
<wgt id='1347'> +1.2254733e-12 </wgt>
<wgt id='1348'> +1.2355003e-12 </wgt>
<wgt id='1349'> +1.2337812e-12 </wgt>
<wgt id='1350'> +1.2266955e-12 </wgt>
<wgt id='1351'> +1.2329172e-12 </wgt>
<wgt id='1352'> +1.2243716e-12 </wgt>
<wgt id='1353'> +1.2283299e-12 </wgt>
<wgt id='1354'> +1.2335840e-12 </wgt>
<wgt id='1355'> +1.2284790e-12 </wgt>
<wgt id='1356'> +1.2312023e-12 </wgt>
<wgt id='1357'> +1.2306287e-12 </wgt>
<wgt id='1358'> +1.2299219e-12 </wgt>
<wgt id='1359'> +1.2393027e-12 </wgt>
<wgt id='1360'> +1.2223726e-12 </wgt>
<wgt id='1361'> +1.2302132e-12 </wgt>
<wgt id='1362'> +1.2303992e-12 </wgt>
<wgt id='1363'> +1.2314563e-12 </wgt>
<wgt id='1364'> +1.2297712e-12 </wgt>
<wgt id='1365'> +1.2174684e-12 </wgt>
<wgt id='1366'> +1.2386710e-12 </wgt>
<wgt id='1367'> +1.2358458e-12 </wgt>
<wgt id='1368'> +1.2296980e-12 </wgt>
<wgt id='1369'> +1.2391039e-12 </wgt>
<wgt id='1370'> +1.2196104e-12 </wgt>
<wgt id='1371'> +1.2382226e-12 </wgt>
<wgt id='1372'> +1.2204136e-12 </wgt>
<wgt id='1373'> +1.2273105e-12 </wgt>
<wgt id='1374'> +1.2324573e-12 </wgt>
<wgt id='1375'> +1.2281987e-12 </wgt>
<wgt id='1376'> +1.2386903e-12 </wgt>
<wgt id='1377'> +1.2290417e-12 </wgt>
<wgt id='1378'> +1.2331729e-12 </wgt>
<wgt id='1379'> +1.2306725e-12 </wgt>
<wgt id='1380'> +1.2295625e-12 </wgt>
<wgt id='1381'> +1.2058823e-12 </wgt>
<wgt id='1382'> +1.2445236e-12 </wgt>
<wgt id='1383'> +1.2523738e-12 </wgt>
<wgt id='1384'> +1.2120018e-12 </wgt>
<wgt id='1385'> +1.2243988e-12 </wgt>
<wgt id='1386'> +1.2437378e-12 </wgt>
<wgt id='1387'> +1.2239148e-12 </wgt>
<wgt id='1388'> +1.2251564e-12 </wgt>
<wgt id='1389'> +1.2254677e-12 </wgt>
<wgt id='1390'> +1.2312301e-12 </wgt>
<wgt id='1391'> +1.2091465e-12 </wgt>
<wgt id='1392'> +1.1825522e-12 </wgt>
<wgt id='1393'> +1.1912826e-12 </wgt>
<wgt id='1394'> +1.2002335e-12 </wgt>
<wgt id='1395'> +1.2169629e-12 </wgt>
<wgt id='1396'> +1.2093138e-12 </wgt>
<wgt id='1397'> +1.1728971e-12 </wgt>
<wgt id='1398'> +1.1807369e-12 </wgt>
<wgt id='1399'> +1.1876129e-12 </wgt>
<wgt id='1400'> +1.1944521e-12 </wgt>
<wgt id='1401'> +1.2019224e-12 </wgt>
<wgt id='1402'> +1.2157478e-12 </wgt>
<wgt id='1403'> +1.2223735e-12 </wgt>
<wgt id='1404'> +1.2283387e-12 </wgt>
<wgt id='1405'> +1.2093138e-12 </wgt>
<wgt id='1406'> +1.2054457e-12 </wgt>
<wgt id='1407'> +1.2076895e-12 </wgt>
<wgt id='1408'> +1.2109338e-12 </wgt>
<wgt id='1409'> +1.2124609e-12 </wgt>
<wgt id='1410'> +1.2362707e-12 </wgt>
<wgt id='1411'> +1.2369002e-12 </wgt>
<wgt id='1412'> +1.2354866e-12 </wgt>
<wgt id='1413'> +1.2426411e-12 </wgt>
<wgt id='1414'> +1.2299404e-12 </wgt>
<wgt id='1415'> +1.2285392e-12 </wgt>
<wgt id='1416'> +1.2393857e-12 </wgt>
<wgt id='1417'> +1.2292246e-12 </wgt>
<wgt id='1418'> +1.2433043e-12 </wgt>
<wgt id='1419'> +1.2375395e-12 </wgt>
<wgt id='1420'> +1.2350613e-12 </wgt>
<wgt id='1421'> +1.2258008e-12 </wgt>
<wgt id='1422'> +1.2407942e-12 </wgt>
<wgt id='1423'> +1.2358452e-12 </wgt>
<wgt id='1424'> +1.2368075e-12 </wgt>
<wgt id='1425'> +1.2326966e-12 </wgt>
<wgt id='1426'> +1.2401339e-12 </wgt>
<wgt id='1427'> +1.2425691e-12 </wgt>
<wgt id='1428'> +1.2326093e-12 </wgt>
<wgt id='1429'> +1.2305332e-12 </wgt>
<wgt id='1430'> +1.2440219e-12 </wgt>
<wgt id='1431'> +1.2402784e-12 </wgt>
<wgt id='1432'> +1.2334242e-12 </wgt>
<wgt id='1433'> +1.2423255e-12 </wgt>
<wgt id='1434'> +1.2297966e-12 </wgt>
<wgt id='1435'> +1.2376702e-12 </wgt>
<wgt id='1436'> +1.2329406e-12 </wgt>
<wgt id='1437'> +1.2423081e-12 </wgt>
<wgt id='1438'> +1.2349318e-12 </wgt>
<wgt id='1439'> +1.2290584e-12 </wgt>
<wgt id='1440'> +1.2539891e-12 </wgt>
<wgt id='1441'> +1.2390937e-12 </wgt>
<wgt id='1442'> +1.2310114e-12 </wgt>
<wgt id='1443'> +1.2337851e-12 </wgt>
<wgt id='1444'> +1.2419806e-12 </wgt>
<wgt id='1445'> +1.2472466e-12 </wgt>
<wgt id='1446'> +1.2323209e-12 </wgt>
<wgt id='1447'> +1.2373691e-12 </wgt>
<wgt id='1448'> +1.2365451e-12 </wgt>
<wgt id='1449'> +1.2375689e-12 </wgt>
<wgt id='1450'> +1.2351282e-12 </wgt>
<wgt id='1451'> +1.2466012e-12 </wgt>
<wgt id='1452'> +1.2078521e-12 </wgt>
<wgt id='1453'> +1.2387507e-12 </wgt>
<wgt id='1454'> +1.2198636e-12 </wgt>
<wgt id='1455'> +1.2205885e-12 </wgt>
<wgt id='1456'> +1.2420871e-12 </wgt>
<wgt id='1457'> +1.2443065e-12 </wgt>
<wgt id='1458'> +1.2323508e-12 </wgt>
<wgt id='1459'> +1.2394906e-12 </wgt>
<wgt id='1460'> +1.2293651e-12 </wgt>
<wgt id='1461'> +1.2362707e-12 </wgt>
<wgt id='1462'> +1.2291893e-12 </wgt>
<wgt id='1463'> +1.2463417e-12 </wgt>
<wgt id='1464'> +1.2377329e-12 </wgt>
<wgt id='1465'> +1.2092614e-12 </wgt>
<wgt id='1466'> +1.2155924e-12 </wgt>
<wgt id='1467'> +1.2220453e-12 </wgt>
<wgt id='1468'> +1.2263505e-12 </wgt>
<wgt id='1469'> +1.2324305e-12 </wgt>
<wgt id='1470'> +1.2435033e-12 </wgt>
<wgt id='1471'> +1.2475549e-12 </wgt>
<wgt id='1472'> +1.2529291e-12 </wgt>
<wgt id='1473'> +1.2377329e-12 </wgt>
<wgt id='1474'> +1.2332432e-12 </wgt>
<wgt id='1475'> +1.2345798e-12 </wgt>
<wgt id='1476'> +1.2396995e-12 </wgt>
<wgt id='1477'> +1.2416142e-12 </wgt>
<wgt id='1478'> +1.1996455e-12 </wgt>
<wgt id='1479'> +1.1979498e-12 </wgt>
<wgt id='1480'> +1.2011429e-12 </wgt>
<wgt id='1481'> +1.1940770e-12 </wgt>
<wgt id='1482'> +1.1979004e-12 </wgt>
<wgt id='1483'> +1.1782442e-12 </wgt>
<wgt id='1484'> +1.1969582e-12 </wgt>
<wgt id='1485'> +1.1998908e-12 </wgt>
<wgt id='1486'> +1.2007706e-12 </wgt>
<wgt id='1487'> +1.2044850e-12 </wgt>
<wgt id='1488'> +1.1967246e-12 </wgt>
<wgt id='1489'> +1.2222672e-12 </wgt>
<wgt id='1490'> +1.1972108e-12 </wgt>
<wgt id='1491'> +1.1994427e-12 </wgt>
<wgt id='1492'> +1.2011811e-12 </wgt>
<wgt id='1493'> +1.1883714e-12 </wgt>
<wgt id='1494'> +1.2157116e-12 </wgt>
<wgt id='1495'> +1.1920450e-12 </wgt>
<wgt id='1496'> +1.1981760e-12 </wgt>
<wgt id='1497'> +1.1996512e-12 </wgt>
<wgt id='1498'> +1.1982437e-12 </wgt>
<wgt id='1499'> +1.2009868e-12 </wgt>
<wgt id='1500'> +1.2010473e-12 </wgt>
<wgt id='1501'> +1.1981770e-12 </wgt>
<wgt id='1502'> +1.1978617e-12 </wgt>
<wgt id='1503'> +1.1996862e-12 </wgt>
<wgt id='1504'> +1.1942500e-12 </wgt>
<wgt id='1505'> +1.1992806e-12 </wgt>
<wgt id='1506'> +1.1987158e-12 </wgt>
<wgt id='1507'> +1.1985266e-12 </wgt>
<wgt id='1508'> +1.2039896e-12 </wgt>
<wgt id='1509'> +1.2932472e-12 </wgt>
<wgt id='1510'> +1.2925513e-12 </wgt>
<wgt id='1511'> +1.2984830e-12 </wgt>
<wgt id='1512'> +1.2966011e-12 </wgt>
<wgt id='1513'> +1.3001686e-12 </wgt>
<wgt id='1514'> +1.2911573e-12 </wgt>
<wgt id='1515'> +1.2889967e-12 </wgt>
<wgt id='1516'> +1.2902283e-12 </wgt>
<wgt id='1517'> +1.2910656e-12 </wgt>
<wgt id='1518'> +1.2990678e-12 </wgt>
<wgt id='1519'> +1.2880495e-12 </wgt>
<wgt id='1520'> +1.2960414e-12 </wgt>
<wgt id='1521'> +1.3020323e-12 </wgt>
<wgt id='1522'> +1.3003687e-12 </wgt>
<wgt id='1523'> +1.3034923e-12 </wgt>
<wgt id='1524'> +1.2957006e-12 </wgt>
<wgt id='1525'> +1.2962042e-12 </wgt>
<wgt id='1526'> +1.2909868e-12 </wgt>
<wgt id='1527'> +1.2936175e-12 </wgt>
<wgt id='1528'> +1.2962799e-12 </wgt>
<wgt id='1529'> +1.2957567e-12 </wgt>
<wgt id='1530'> +1.2993763e-12 </wgt>
<wgt id='1531'> +1.2939948e-12 </wgt>
<wgt id='1532'> +1.2903288e-12 </wgt>
<wgt id='1533'> +1.2906123e-12 </wgt>
<wgt id='1534'> +1.2966392e-12 </wgt>
<wgt id='1535'> +1.2851036e-12 </wgt>
<wgt id='1536'> +1.2909034e-12 </wgt>
<wgt id='1537'> +1.2947735e-12 </wgt>
<wgt id='1538'> +1.2897232e-12 </wgt>
<wgt id='1539'> +1.2881491e-12 </wgt>
<wgt id='1540'> +1.2948982e-12 </wgt>
<wgt id='1541'> +1.2928192e-12 </wgt>
<wgt id='1542'> +1.2957233e-12 </wgt>
<wgt id='1543'> +1.2927846e-12 </wgt>
<wgt id='1544'> +1.2885509e-12 </wgt>
<wgt id='1545'> +1.2946960e-12 </wgt>
<wgt id='1546'> +1.2940091e-12 </wgt>
<wgt id='1547'> +1.2937688e-12 </wgt>
<wgt id='1548'> +1.2915966e-12 </wgt>
<wgt id='1549'> +1.2908824e-12 </wgt>
<wgt id='1550'> +1.2967504e-12 </wgt>
<wgt id='1551'> +1.2899901e-12 </wgt>
<wgt id='1552'> +1.2934607e-12 </wgt>
<wgt id='1553'> +1.2944169e-12 </wgt>
<wgt id='1554'> +1.2960379e-12 </wgt>
<wgt id='1555'> +1.2966507e-12 </wgt>
<wgt id='1556'> +1.2933638e-12 </wgt>
<wgt id='1557'> +1.2940674e-12 </wgt>
<wgt id='1558'> +1.2900201e-12 </wgt>
<wgt id='1559'> +1.2904700e-12 </wgt>
<wgt id='1560'> +1.2932207e-12 </wgt>
<wgt id='1561'> +1.2912449e-12 </wgt>
<wgt id='1562'> +1.2932818e-12 </wgt>
<wgt id='1563'> +1.2933791e-12 </wgt>
<wgt id='1564'> +1.2936902e-12 </wgt>
<wgt id='1565'> +1.2934261e-12 </wgt>
<wgt id='1566'> +1.2935611e-12 </wgt>
<wgt id='1567'> +1.2933857e-12 </wgt>
<wgt id='1568'> +1.2916342e-12 </wgt>
<wgt id='1569'> +1.2928355e-12 </wgt>
<wgt id='1570'> +1.2928659e-12 </wgt>
<wgt id='1571'> +1.2935496e-12 </wgt>
<wgt id='1572'> +1.2935139e-12 </wgt>
<wgt id='1573'> +1.2953634e-12 </wgt>
<wgt id='1574'> +1.2923645e-12 </wgt>
<wgt id='1575'> +1.2927891e-12 </wgt>
<wgt id='1576'> +1.2934368e-12 </wgt>
<wgt id='1577'> +1.2943169e-12 </wgt>
<wgt id='1578'> +1.2929606e-12 </wgt>
<wgt id='1579'> +1.2934606e-12 </wgt>
<wgt id='1580'> +1.2932117e-12 </wgt>
<wgt id='1581'> +1.2927572e-12 </wgt>
<wgt id='1582'> +1.2924193e-12 </wgt>
<wgt id='1583'> +1.2936978e-12 </wgt>
<wgt id='1584'> +1.2928633e-12 </wgt>
<wgt id='1585'> +1.2925466e-12 </wgt>
<wgt id='1586'> +1.2933629e-12 </wgt>
<wgt id='1587'> +1.2923870e-12 </wgt>
<wgt id='1588'> +1.2941969e-12 </wgt>
<wgt id='1589'> +1.2929900e-12 </wgt>
<wgt id='1590'> +1.2929564e-12 </wgt>
<wgt id='1591'> +1.2929114e-12 </wgt>
<wgt id='1592'> +1.2925074e-12 </wgt>
<wgt id='1593'> +1.2935754e-12 </wgt>
<wgt id='1594'> +1.2934078e-12 </wgt>
<wgt id='1595'> +1.2929710e-12 </wgt>
<wgt id='1596'> +1.2929264e-12 </wgt>
<wgt id='1597'> +1.2934573e-12 </wgt>
<wgt id='1598'> +1.2932606e-12 </wgt>
<wgt id='1599'> +1.2935351e-12 </wgt>
<wgt id='1600'> +1.2935883e-12 </wgt>
<wgt id='1601'> +1.2928896e-12 </wgt>
<wgt id='1602'> +1.2928230e-12 </wgt>
<wgt id='1603'> +1.2932575e-12 </wgt>
<wgt id='1604'> +1.2937251e-12 </wgt>
<wgt id='1605'> +1.2934523e-12 </wgt>
<wgt id='1606'> +1.2938904e-12 </wgt>
<wgt id='1607'> +1.2930743e-12 </wgt>
<wgt id='1608'> +1.2933894e-12 </wgt>
<wgt id='1609'> +1.2935923e-12 </wgt>
<wgt id='1610'> +1.2816612e-12 </wgt>
<wgt id='1611'> +1.3052884e-12 </wgt>
<wgt id='1612'> +1.4930676e-12 </wgt>
<wgt id='1613'> +1.4726020e-12 </wgt>
<wgt id='1614'> +1.5001650e-12 </wgt>
<wgt id='1615'> +1.4653611e-12 </wgt>
<wgt id='1616'> +1.5544173e-12 </wgt>
<wgt id='1617'> +1.5357480e-12 </wgt>
<wgt id='1618'> +1.4671807e-12 </wgt>
<wgt id='1619'> +1.5189426e-12 </wgt>
<wgt id='1620'> +1.4614314e-12 </wgt>
<wgt id='1621'> +1.4845414e-12 </wgt>
<wgt id='1622'> +1.5006988e-12 </wgt>
<wgt id='1623'> +1.5190005e-12 </wgt>
<wgt id='1624'> +1.4584434e-12 </wgt>
<wgt id='1625'> +1.4676676e-12 </wgt>
<wgt id='1626'> +1.4766684e-12 </wgt>
<wgt id='1627'> +1.4616310e-12 </wgt>
<wgt id='1628'> +1.4657463e-12 </wgt>
<wgt id='1629'> +1.5444262e-12 </wgt>
<wgt id='1630'> +1.5105849e-12 </wgt>
<wgt id='1631'> +1.4588485e-12 </wgt>
<wgt id='1632'> +1.4240132e-12 </wgt>
<wgt id='1633'> +1.4390120e-12 </wgt>
<wgt id='1634'> +1.5473630e-12 </wgt>
<wgt id='1635'> +1.5018308e-12 </wgt>
<wgt id='1636'> +1.5080521e-12 </wgt>
<wgt id='1637'> +1.4578816e-12 </wgt>
<wgt id='1638'> +1.4784274e-12 </wgt>
<wgt id='1639'> +1.5154444e-12 </wgt>
<wgt id='1640'> +1.4947090e-12 </wgt>
<wgt id='1641'> +1.4720977e-12 </wgt>
<wgt id='1642'> +1.4730886e-12 </wgt>
<wgt id='1643'> +1.5346068e-12 </wgt>
<wgt id='1644'> +1.4150489e-12 </wgt>
<wgt id='1645'> +1.4826243e-12 </wgt>
<wgt id='1646'> +1.4952408e-12 </wgt>
<wgt id='1647'> +1.4978614e-12 </wgt>
<wgt id='1648'> +1.4770488e-12 </wgt>
<wgt id='1649'> +1.5020988e-12 </wgt>
<wgt id='1650'> +1.4817526e-12 </wgt>
<wgt id='1651'> +1.4530756e-12 </wgt>
<wgt id='1652'> +1.4810681e-12 </wgt>
<wgt id='1653'> +1.5506012e-12 </wgt>
<wgt id='1654'> +1.4861560e-12 </wgt>
<wgt id='1655'> +1.4585191e-12 </wgt>
<wgt id='1656'> +1.4390936e-12 </wgt>
<wgt id='1657'> +1.4744886e-12 </wgt>
<wgt id='1658'> +1.4209017e-12 </wgt>
<wgt id='1659'> +1.4584434e-12 </wgt>
<wgt id='1660'> +1.5186034e-12 </wgt>
<wgt id='1661'> +1.4871785e-12 </wgt>
<wgt id='1662'> +1.4998119e-12 </wgt>
<wgt id='1663'> +1.5291207e-12 </wgt>
<wgt id='1664'> +1.4707005e-12 </wgt>
<wgt id='1665'> +1.4056847e-12 </wgt>
<wgt id='1666'> +1.5241635e-12 </wgt>
<wgt id='1667'> +1.4985766e-12 </wgt>
<wgt id='1668'> +1.5417343e-12 </wgt>
<wgt id='1669'> +1.4221079e-12 </wgt>
<wgt id='1670'> +1.5168949e-12 </wgt>
<wgt id='1671'> +1.4799857e-12 </wgt>
<wgt id='1672'> +1.4873693e-12 </wgt>
<wgt id='1673'> +1.5563045e-12 </wgt>
<wgt id='1674'> +1.4737790e-12 </wgt>
<wgt id='1675'> +1.5301006e-12 </wgt>
<wgt id='1676'> +1.5319752e-12 </wgt>
<wgt id='1677'> +1.5717715e-12 </wgt>
<wgt id='1678'> +1.4892003e-12 </wgt>
<wgt id='1679'> +1.5524092e-12 </wgt>
<wgt id='1680'> +1.5144047e-12 </wgt>
<wgt id='1681'> +1.5212171e-12 </wgt>
<wgt id='1682'> +1.5188173e-12 </wgt>
<wgt id='1683'> +1.4829939e-12 </wgt>
<wgt id='1684'> +1.4807741e-12 </wgt>
<wgt id='1685'> +1.4665280e-12 </wgt>
<wgt id='1686'> +1.4951836e-12 </wgt>
<wgt id='1687'> +1.5514428e-12 </wgt>
<wgt id='1688'> +1.4958280e-12 </wgt>
<wgt id='1689'> +1.4792729e-12 </wgt>
<wgt id='1690'> +1.4920137e-12 </wgt>
<wgt id='1691'> +1.5015559e-12 </wgt>
<wgt id='1692'> +1.5617356e-12 </wgt>
<wgt id='1693'> +1.5443207e-12 </wgt>
<wgt id='1694'> +1.4261363e-12 </wgt>
<wgt id='1695'> +1.4818627e-12 </wgt>
<wgt id='1696'> +1.5379499e-12 </wgt>
<wgt id='1697'> +1.5299128e-12 </wgt>
<wgt id='1698'> +1.4737029e-12 </wgt>
<wgt id='1699'> +1.5149282e-12 </wgt>
<wgt id='1700'> +1.4585884e-12 </wgt>
<wgt id='1701'> +1.5225929e-12 </wgt>
<wgt id='1702'> +1.5065806e-12 </wgt>
<wgt id='1703'> +1.5039982e-12 </wgt>
<wgt id='1704'> +1.4516452e-12 </wgt>
<wgt id='1705'> +1.4692302e-12 </wgt>
<wgt id='1706'> +1.4934879e-12 </wgt>
<wgt id='1707'> +1.4995950e-12 </wgt>
<wgt id='1708'> +1.4774037e-12 </wgt>
<wgt id='1709'> +1.4805776e-12 </wgt>
<wgt id='1710'> +1.4882129e-12 </wgt>
<wgt id='1711'> +1.5630879e-12 </wgt>
<wgt id='1712'> +1.4916939e-12 </wgt>
<wgt id='1713'> +1.1862683e-12 </wgt>
<wgt id='1714'> +1.1613775e-12 </wgt>
<wgt id='1715'> +1.2016313e-12 </wgt>
<wgt id='1716'> +1.2507949e-12 </wgt>
<wgt id='1717'> +1.2062904e-12 </wgt>
<wgt id='1718'> +1.1962226e-12 </wgt>
<wgt id='1719'> +1.1937240e-12 </wgt>
<wgt id='1720'> +1.1993520e-12 </wgt>
<wgt id='1721'> +1.1634996e-12 </wgt>
<wgt id='1722'> +1.1770899e-12 </wgt>
<wgt id='1723'> +1.1188843e-12 </wgt>
<wgt id='1724'> +1.1298009e-12 </wgt>
<wgt id='1725'> +1.2059847e-12 </wgt>
<wgt id='1726'> +1.2222583e-12 </wgt>
<wgt id='1727'> +1.1566605e-12 </wgt>
<wgt id='1728'> +1.1797653e-12 </wgt>
<wgt id='1729'> +1.1913757e-12 </wgt>
<wgt id='1730'> +1.1550948e-12 </wgt>
<wgt id='1731'> +1.1481497e-12 </wgt>
<wgt id='1732'> +1.1826134e-12 </wgt>
<wgt id='1733'> +1.1926807e-12 </wgt>
<wgt id='1734'> +1.2223042e-12 </wgt>
<wgt id='1735'> +1.1543674e-12 </wgt>
<wgt id='1736'> +1.2711730e-12 </wgt>
<wgt id='1737'> +1.2221238e-12 </wgt>
<wgt id='1738'> +1.2008285e-12 </wgt>
<wgt id='1739'> +1.1903591e-12 </wgt>
<wgt id='1740'> +1.1693918e-12 </wgt>
<wgt id='1741'> +1.1774658e-12 </wgt>
<wgt id='1742'> +1.1855787e-12 </wgt>
<wgt id='1743'> +1.2163096e-12 </wgt>
<wgt id='1744'> +1.2186985e-12 </wgt>
<wgt id='1745'> +1.1169240e-12 </wgt>
<wgt id='1746'> +1.2109794e-12 </wgt>
<wgt id='1747'> +1.2054191e-12 </wgt>
<wgt id='1748'> +1.2094548e-12 </wgt>
<wgt id='1749'> +1.2121895e-12 </wgt>
<wgt id='1750'> +1.1829260e-12 </wgt>
<wgt id='1751'> +1.0958032e-12 </wgt>
<wgt id='1752'> +1.1765693e-12 </wgt>
<wgt id='1753'> +1.2076918e-12 </wgt>
<wgt id='1754'> +1.1831550e-12 </wgt>
<wgt id='1755'> +1.2072968e-12 </wgt>
<wgt id='1756'> +1.2018787e-12 </wgt>
<wgt id='1757'> +1.1691880e-12 </wgt>
<wgt id='1758'> +1.2135225e-12 </wgt>
<wgt id='1759'> +1.1940519e-12 </wgt>
<wgt id='1760'> +1.1470697e-12 </wgt>
<wgt id='1761'> +1.1650134e-12 </wgt>
<wgt id='1762'> +1.2071502e-12 </wgt>
<wgt id='1763'> +1.2201942e-12 </wgt>
<wgt id='1764'> +1.1865822e-12 </wgt>
<wgt id='1765'> +1.1951434e-12 </wgt>
<wgt id='1766'> +1.2050624e-12 </wgt>
<wgt id='1767'> +1.1974730e-12 </wgt>
<wgt id='1768'> +1.1919336e-12 </wgt>
<wgt id='1769'> +1.1511825e-12 </wgt>
<wgt id='1770'> +1.2567036e-12 </wgt>
<wgt id='1771'> +1.2030493e-12 </wgt>
<wgt id='1772'> +1.2167315e-12 </wgt>
<wgt id='1773'> +1.1806614e-12 </wgt>
<wgt id='1774'> +1.1984297e-12 </wgt>
<wgt id='1775'> +1.1909735e-12 </wgt>
<wgt id='1776'> +1.2086367e-12 </wgt>
<wgt id='1777'> +1.1112480e-12 </wgt>
<wgt id='1778'> +1.1815372e-12 </wgt>
<wgt id='1779'> +1.2033739e-12 </wgt>
<wgt id='1780'> +1.1801348e-12 </wgt>
<wgt id='1781'> +1.1763864e-12 </wgt>
<wgt id='1782'> +1.1335929e-12 </wgt>
<wgt id='1783'> +1.1841116e-12 </wgt>
<wgt id='1784'> +1.1999213e-12 </wgt>
<wgt id='1785'> +1.1406761e-12 </wgt>
<wgt id='1786'> +1.0776243e-12 </wgt>
<wgt id='1787'> +1.2392049e-12 </wgt>
<wgt id='1788'> +1.1719128e-12 </wgt>
<wgt id='1789'> +1.1432955e-12 </wgt>
<wgt id='1790'> +1.1805061e-12 </wgt>
<wgt id='1791'> +1.2005706e-12 </wgt>
<wgt id='1792'> +1.1471789e-12 </wgt>
<wgt id='1793'> +1.2137479e-12 </wgt>
<wgt id='1794'> +1.1947722e-12 </wgt>
<wgt id='1795'> +1.2081350e-12 </wgt>
<wgt id='1796'> +1.1651249e-12 </wgt>
<wgt id='1797'> +1.1962798e-12 </wgt>
<wgt id='1798'> +1.1687099e-12 </wgt>
<wgt id='1799'> +1.1688116e-12 </wgt>
<wgt id='1800'> +1.1859899e-12 </wgt>
<wgt id='1801'> +1.1955321e-12 </wgt>
<wgt id='1802'> +1.1685667e-12 </wgt>
<wgt id='1803'> +1.2025913e-12 </wgt>
<wgt id='1804'> +1.1573590e-12 </wgt>
<wgt id='1805'> +1.1893134e-12 </wgt>
<wgt id='1806'> +1.1770991e-12 </wgt>
<wgt id='1807'> +1.1980300e-12 </wgt>
<wgt id='1808'> +1.1868601e-12 </wgt>
<wgt id='1809'> +1.1644314e-12 </wgt>
<wgt id='1810'> +1.1918622e-12 </wgt>
<wgt id='1811'> +1.2439430e-12 </wgt>
<wgt id='1812'> +1.2234186e-12 </wgt>
<wgt id='1813'> +1.1920655e-12 </wgt>
<wgt id='1814'> +1.2875841e-12 </wgt>
<wgt id='1815'> +1.4407796e-12 </wgt>
<wgt id='1816'> +1.1862683e-12 </wgt>
<wgt id='1817'> +1.1613775e-12 </wgt>
<wgt id='1818'> +1.2016313e-12 </wgt>
<wgt id='1819'> +1.2507949e-12 </wgt>
<wgt id='1820'> +1.2062904e-12 </wgt>
<wgt id='1821'> +1.1962226e-12 </wgt>
<wgt id='1822'> +1.1937240e-12 </wgt>
<wgt id='1823'> +1.1993520e-12 </wgt>
<wgt id='1824'> +1.1634996e-12 </wgt>
<wgt id='1825'> +1.1770899e-12 </wgt>
<wgt id='1826'> +1.1188843e-12 </wgt>
<wgt id='1827'> +1.1298009e-12 </wgt>
<wgt id='1828'> +1.2059847e-12 </wgt>
<wgt id='1829'> +1.2222583e-12 </wgt>
<wgt id='1830'> +1.1566605e-12 </wgt>
<wgt id='1831'> +1.1797653e-12 </wgt>
<wgt id='1832'> +1.1913757e-12 </wgt>
<wgt id='1833'> +1.1550948e-12 </wgt>
<wgt id='1834'> +1.1481497e-12 </wgt>
<wgt id='1835'> +1.1826134e-12 </wgt>
<wgt id='1836'> +1.1926807e-12 </wgt>
<wgt id='1837'> +1.2223042e-12 </wgt>
<wgt id='1838'> +1.1543674e-12 </wgt>
<wgt id='1839'> +1.2711730e-12 </wgt>
<wgt id='1840'> +1.2221238e-12 </wgt>
<wgt id='1841'> +1.2008285e-12 </wgt>
<wgt id='1842'> +1.1903591e-12 </wgt>
<wgt id='1843'> +1.1693918e-12 </wgt>
<wgt id='1844'> +1.1774658e-12 </wgt>
<wgt id='1845'> +1.1855787e-12 </wgt>
<wgt id='1846'> +1.2163096e-12 </wgt>
<wgt id='1847'> +1.2186985e-12 </wgt>
<wgt id='1848'> +1.1169240e-12 </wgt>
<wgt id='1849'> +1.2109794e-12 </wgt>
<wgt id='1850'> +1.2054191e-12 </wgt>
<wgt id='1851'> +1.2094548e-12 </wgt>
<wgt id='1852'> +1.2121895e-12 </wgt>
<wgt id='1853'> +1.1829260e-12 </wgt>
<wgt id='1854'> +1.0958032e-12 </wgt>
<wgt id='1855'> +1.1765693e-12 </wgt>
<wgt id='1856'> +1.2076918e-12 </wgt>
<wgt id='1857'> +1.1831550e-12 </wgt>
<wgt id='1858'> +1.2072968e-12 </wgt>
<wgt id='1859'> +1.2018787e-12 </wgt>
<wgt id='1860'> +1.1691880e-12 </wgt>
<wgt id='1861'> +1.2135225e-12 </wgt>
<wgt id='1862'> +1.1940519e-12 </wgt>
<wgt id='1863'> +1.1470697e-12 </wgt>
<wgt id='1864'> +1.1650134e-12 </wgt>
<wgt id='1865'> +1.2071502e-12 </wgt>
<wgt id='1866'> +1.2201942e-12 </wgt>
<wgt id='1867'> +1.1865822e-12 </wgt>
<wgt id='1868'> +1.1951434e-12 </wgt>
<wgt id='1869'> +1.2050624e-12 </wgt>
<wgt id='1870'> +1.1974730e-12 </wgt>
<wgt id='1871'> +1.1919336e-12 </wgt>
<wgt id='1872'> +1.1511825e-12 </wgt>
<wgt id='1873'> +1.2567036e-12 </wgt>
<wgt id='1874'> +1.2030493e-12 </wgt>
<wgt id='1875'> +1.2167315e-12 </wgt>
<wgt id='1876'> +1.1806614e-12 </wgt>
<wgt id='1877'> +1.1984297e-12 </wgt>
<wgt id='1878'> +1.1909735e-12 </wgt>
<wgt id='1879'> +1.2086367e-12 </wgt>
<wgt id='1880'> +1.1112480e-12 </wgt>
<wgt id='1881'> +1.1815372e-12 </wgt>
<wgt id='1882'> +1.2033739e-12 </wgt>
<wgt id='1883'> +1.1801348e-12 </wgt>
<wgt id='1884'> +1.1763864e-12 </wgt>
<wgt id='1885'> +1.1335929e-12 </wgt>
<wgt id='1886'> +1.1841116e-12 </wgt>
<wgt id='1887'> +1.1999213e-12 </wgt>
<wgt id='1888'> +1.1406761e-12 </wgt>
<wgt id='1889'> +1.0776243e-12 </wgt>
<wgt id='1890'> +1.2392049e-12 </wgt>
<wgt id='1891'> +1.1719128e-12 </wgt>
<wgt id='1892'> +1.1432955e-12 </wgt>
<wgt id='1893'> +1.1805061e-12 </wgt>
<wgt id='1894'> +1.2005706e-12 </wgt>
<wgt id='1895'> +1.1471789e-12 </wgt>
<wgt id='1896'> +1.2137479e-12 </wgt>
<wgt id='1897'> +1.1947722e-12 </wgt>
<wgt id='1898'> +1.2081350e-12 </wgt>
<wgt id='1899'> +1.1651249e-12 </wgt>
<wgt id='1900'> +1.1962798e-12 </wgt>
<wgt id='1901'> +1.1687099e-12 </wgt>
<wgt id='1902'> +1.1688116e-12 </wgt>
<wgt id='1903'> +1.1859899e-12 </wgt>
<wgt id='1904'> +1.1955321e-12 </wgt>
<wgt id='1905'> +1.1685667e-12 </wgt>
<wgt id='1906'> +1.2025913e-12 </wgt>
<wgt id='1907'> +1.1573590e-12 </wgt>
<wgt id='1908'> +1.1893134e-12 </wgt>
<wgt id='1909'> +1.1770991e-12 </wgt>
<wgt id='1910'> +1.1980300e-12 </wgt>
<wgt id='1911'> +1.1868601e-12 </wgt>
<wgt id='1912'> +1.1644314e-12 </wgt>
<wgt id='1913'> +1.1918622e-12 </wgt>
<wgt id='1914'> +1.2439430e-12 </wgt>
<wgt id='1915'> +1.2234186e-12 </wgt>
<wgt id='1916'> +1.1920655e-12 </wgt>
<wgt id='1917'> +1.1788595e-12 </wgt>
<wgt id='1918'> +1.1899446e-12 </wgt>
<wgt id='1919'> +1.2389082e-12 </wgt>
</rwgt>
</event>
<event>
 9      1 +1.5538000e-12 6.25684900e+01 7.81860800e-03 1.25901100e-01
       21 -1    0    0  501  502 +0.0000000000e+00 +0.0000000000e+00 +1.9556368324e+00 1.9556368324e+00 0.0000000000e+00 0.0000e+00 -1.0000e+00
       -4 -1    0    0    0  501 -0.0000000000e+00 -0.0000000000e+00 -5.0019403878e+02 5.0019605439e+02 1.4200000000e+00 0.0000e+00 -1.0000e+00
     1023  2    1    2    0    0 -1.6365725381e+01 -1.2557659482e+01 -4.3219767243e+02 4.3294962381e+02 1.5000564251e+01 0.0000e+00 0.0000e+00
  1000023  2    3    3    0    0 -6.1461342148e+00 -1.8791204935e+00 -9.0051254196e+01 9.0447590610e+01 5.4983820584e+00 0.0000e+00 0.0000e+00
       -4  1    1    2    0  502 +1.6365725381e+01 +1.2557659482e+01 -6.6040729518e+01 6.9202067413e+01 1.4200000000e+00 0.0000e+00 -1.0000e+00
  1000022  1    4    4    0    0 -5.7077603429e+00 -1.4532073899e+00 -8.1929070348e+01 8.2292544668e+01 5.0000000000e+00 0.0000e+00 -1.0000e+00
      -11  1    4    4    0    0 -2.5436917683e-01 -1.3277133072e-01 -5.8120818922e+00 5.8191604281e+00 5.1100000000e-04 0.0000e+00 1.0000e+00
       11  1    4    4    0    0 -1.8400469507e-01 -2.9314177286e-01 -2.3101019550e+00 2.3358855131e+00 5.1100000000e-04 0.0000e+00 -1.0000e+00
  1000022  1    3    3    0    0 -1.0219591166e+01 -1.0678538988e+01 -3.4214641823e+02 3.4250203320e+02 5.0000000000e+00 0.0000e+00 -1.0000e+00
<mgrwt>
<rscale>  1 0.62568489E+02</rscale>
<asrwt>0</asrwt>
<pdfrwt beam="1">  1       21 0.30086725E-03 0.62568489E+02</pdfrwt>
<pdfrwt beam="2">  1       -4 0.76992728E-01 0.62568489E+02</pdfrwt>
<totfact> 0.10566561E+06</totfact>
</mgrwt>
<rwgt>
<wgt id='1001'> +1.5538000e-12 </wgt>
<wgt id='1002'> +1.4659101e-12 </wgt>
<wgt id='1003'> +1.4809885e-12 </wgt>
<wgt id='1004'> +1.2785623e-12 </wgt>
<wgt id='1005'> +1.5538000e-12 </wgt>
<wgt id='1006'> +1.3836376e-12 </wgt>
<wgt id='1007'> +1.2938129e-12 </wgt>
<wgt id='1008'> +1.3090434e-12 </wgt>
<wgt id='1009'> +1.1090959e-12 </wgt>
<wgt id='1010'> +1.3836376e-12 </wgt>
<wgt id='1011'> +1.7737045e-12 </wgt>
<wgt id='1012'> +1.6932572e-12 </wgt>
<wgt id='1013'> +1.7072789e-12 </wgt>
<wgt id='1014'> +1.5124333e-12 </wgt>
<wgt id='1015'> +1.7737045e-12 </wgt>
<wgt id='1016'> +1.8658291e-12 </wgt>
<wgt id='1017'> +1.8191597e-12 </wgt>
<wgt id='1018'> +1.8275136e-12 </wgt>
<wgt id='1019'> +1.7072789e-12 </wgt>
<wgt id='1020'> +1.8658291e-12 </wgt>
<wgt id='1021'> +1.6614952e-12 </wgt>
<wgt id='1022'> +1.6055913e-12 </wgt>
<wgt id='1023'> +1.6153364e-12 </wgt>
<wgt id='1024'> +1.4809885e-12 </wgt>
<wgt id='1025'> +1.6614952e-12 </wgt>
<wgt id='1026'> +2.1298942e-12 </wgt>
<wgt id='1027'> +2.1012921e-12 </wgt>
<wgt id='1028'> +2.1067520e-12 </wgt>
<wgt id='1029'> +2.0195696e-12 </wgt>
<wgt id='1030'> +2.1298942e-12 </wgt>
<wgt id='1031'> +1.2149888e-12 </wgt>
<wgt id='1032'> +1.0877792e-12 </wgt>
<wgt id='1033'> +1.1090959e-12 </wgt>
<wgt id='1034'> +8.3663940e-13 </wgt>
<wgt id='1035'> +1.2149888e-12 </wgt>
<wgt id='1036'> +1.0819308e-12 </wgt>
<wgt id='1037'> +9.6007444e-13 </wgt>
<wgt id='1038'> +9.8032813e-13 </wgt>
<wgt id='1039'> +7.2574745e-13 </wgt>
<wgt id='1040'> +1.0819308e-12 </wgt>
<wgt id='1041'> +1.3869424e-12 </wgt>
<wgt id='1042'> +1.2564822e-12 </wgt>
<wgt id='1043'> +1.2785623e-12 </wgt>
<wgt id='1044'> +9.8967513e-13 </wgt>
<wgt id='1045'> +1.3869424e-12 </wgt>
<wgt id='1046'> +1.5538000e-12 </wgt>
<wgt id='1047'> +1.2648074e-12 </wgt>
<wgt id='1048'> +1.6465130e-12 </wgt>
<wgt id='1049'> +1.6114815e-12 </wgt>
<wgt id='1050'> +1.6242774e-12 </wgt>
<wgt id='1051'> +1.5685014e-12 </wgt>
<wgt id='1052'> +1.6209327e-12 </wgt>
<wgt id='1053'> +1.5197108e-12 </wgt>
<wgt id='1054'> +1.6430838e-12 </wgt>
<wgt id='1055'> +1.4661709e-12 </wgt>
<wgt id='1056'> +1.6596886e-12 </wgt>
<wgt id='1057'> +1.6616218e-12 </wgt>
<wgt id='1058'> +1.5595284e-12 </wgt>
<wgt id='1059'> +1.6642928e-12 </wgt>
<wgt id='1060'> +1.5915843e-12 </wgt>
<wgt id='1061'> +1.4917790e-12 </wgt>
<wgt id='1062'> +1.6202314e-12 </wgt>
<wgt id='1063'> +1.4480168e-12 </wgt>
<wgt id='1064'> +1.6146873e-12 </wgt>
<wgt id='1065'> +1.4279417e-12 </wgt>
<wgt id='1066'> +1.5761253e-12 </wgt>
<wgt id='1067'> +1.4284686e-12 </wgt>
<wgt id='1068'> +1.4327570e-12 </wgt>
<wgt id='1069'> +1.4434484e-12 </wgt>
<wgt id='1070'> +1.5718150e-12 </wgt>
<wgt id='1071'> +1.5511906e-12 </wgt>
<wgt id='1072'> +1.4461770e-12 </wgt>
<wgt id='1073'> +1.4169862e-12 </wgt>
<wgt id='1074'> +1.4937883e-12 </wgt>
<wgt id='1075'> +1.5936612e-12 </wgt>
<wgt id='1076'> +1.6265330e-12 </wgt>
<wgt id='1077'> +1.4759874e-12 </wgt>
<wgt id='1078'> +1.8605834e-12 </wgt>
<wgt id='1079'> +1.3966751e-12 </wgt>
<wgt id='1080'> +1.6213716e-12 </wgt>
<wgt id='1081'> +1.6627857e-12 </wgt>
<wgt id='1082'> +1.5357731e-12 </wgt>
<wgt id='1083'> +1.4116692e-12 </wgt>
<wgt id='1084'> +1.6497418e-12 </wgt>
<wgt id='1085'> +1.3986498e-12 </wgt>
<wgt id='1086'> +1.6424991e-12 </wgt>
<wgt id='1087'> +1.4008362e-12 </wgt>
<wgt id='1088'> +1.6130644e-12 </wgt>
<wgt id='1089'> +1.4161922e-12 </wgt>
<wgt id='1090'> +1.4066369e-12 </wgt>
<wgt id='1091'> +1.5962242e-12 </wgt>
<wgt id='1092'> +1.4987976e-12 </wgt>
<wgt id='1093'> +1.6670595e-12 </wgt>
<wgt id='1094'> +1.5921455e-12 </wgt>
<wgt id='1095'> +1.4535659e-12 </wgt>
<wgt id='1096'> +1.4924557e-12 </wgt>
<wgt id='1097'> +1.4897474e-12 </wgt>
<wgt id='1098'> +1.5820141e-12 </wgt>
<wgt id='1099'> +1.7302295e-12 </wgt>
<wgt id='1100'> +1.3870213e-12 </wgt>
<wgt id='1101'> +1.3098326e-12 </wgt>
<wgt id='1102'> +1.4595773e-12 </wgt>
<wgt id='1103'> +1.2581631e-12 </wgt>
<wgt id='1104'> +1.3645969e-12 </wgt>
<wgt id='1105'> +1.4371557e-12 </wgt>
<wgt id='1106'> +1.2317934e-12 </wgt>
<wgt id='1107'> +1.5566012e-12 </wgt>
<wgt id='1108'> +1.5298126e-12 </wgt>
<wgt id='1109'> +1.5429149e-12 </wgt>
<wgt id='1110'> +1.8212776e-12 </wgt>
<wgt id='1111'> +1.4671977e-12 </wgt>
<wgt id='1112'> +1.5288503e-12 </wgt>
<wgt id='1113'> +1.4959009e-12 </wgt>
<wgt id='1114'> +1.4614040e-12 </wgt>
<wgt id='1115'> +1.6330601e-12 </wgt>
<wgt id='1116'> +1.7551958e-12 </wgt>
<wgt id='1117'> +1.3772374e-12 </wgt>
<wgt id='1118'> +1.4546523e-12 </wgt>
<wgt id='1119'> +1.9454542e-12 </wgt>
<wgt id='1120'> +1.8640870e-12 </wgt>
<wgt id='1121'> +1.5828431e-12 </wgt>
<wgt id='1122'> +1.2761369e-12 </wgt>
<wgt id='1123'> +1.8142504e-12 </wgt>
<wgt id='1124'> +1.4377876e-12 </wgt>
<wgt id='1125'> +1.6217917e-12 </wgt>
<wgt id='1126'> +1.5943040e-12 </wgt>
<wgt id='1127'> +1.6468140e-12 </wgt>
<wgt id='1128'> +1.6202314e-12 </wgt>
<wgt id='1129'> +1.8584174e-12 </wgt>
<wgt id='1130'> +1.6309007e-12 </wgt>
<wgt id='1131'> +1.5751813e-12 </wgt>
<wgt id='1132'> +1.5159213e-12 </wgt>
<wgt id='1133'> +1.5715692e-12 </wgt>
<wgt id='1134'> +1.6875372e-12 </wgt>
<wgt id='1135'> +2.0364840e-12 </wgt>
<wgt id='1136'> +1.5891327e-12 </wgt>
<wgt id='1137'> +1.4322941e-12 </wgt>
<wgt id='1138'> +1.7319381e-12 </wgt>
<wgt id='1139'> +1.5847263e-12 </wgt>
<wgt id='1140'> +1.6987507e-12 </wgt>
<wgt id='1141'> +1.6229231e-12 </wgt>
<wgt id='1142'> +1.4858344e-12 </wgt>
<wgt id='1143'> +1.4624658e-12 </wgt>
<wgt id='1144'> +1.5284390e-12 </wgt>
<wgt id='1145'> +1.5722593e-12 </wgt>
<wgt id='1146'> +1.4486972e-12 </wgt>
<wgt id='1147'> +1.4143617e-12 </wgt>
<wgt id='1148'> +1.4513579e-12 </wgt>
<wgt id='1149'> +1.5779160e-12 </wgt>
<wgt id='1150'> +1.4720762e-12 </wgt>
<wgt id='1151'> +1.6084514e-12 </wgt>
<wgt id='1152'> +2.5634488e-12 </wgt>
<wgt id='1153'> +2.5508888e-12 </wgt>
<wgt id='1154'> +2.5707295e-12 </wgt>
<wgt id='1155'> +2.5650047e-12 </wgt>
<wgt id='1156'> +2.5626584e-12 </wgt>
<wgt id='1157'> +2.5549717e-12 </wgt>
<wgt id='1158'> +2.5748316e-12 </wgt>
<wgt id='1159'> +2.5563088e-12 </wgt>
<wgt id='1160'> +2.5680460e-12 </wgt>
<wgt id='1161'> +2.5476453e-12 </wgt>
<wgt id='1162'> +2.5743045e-12 </wgt>
<wgt id='1163'> +2.5744329e-12 </wgt>
<wgt id='1164'> +2.5524944e-12 </wgt>
<wgt id='1165'> +2.5425957e-12 </wgt>
<wgt id='1166'> +2.5834062e-12 </wgt>
<wgt id='1167'> +2.5590227e-12 </wgt>
<wgt id='1168'> +2.5638699e-12 </wgt>
<wgt id='1169'> +2.5613796e-12 </wgt>
<wgt id='1170'> +2.5651173e-12 </wgt>
<wgt id='1171'> +2.5686789e-12 </wgt>
<wgt id='1172'> +2.5568500e-12 </wgt>
<wgt id='1173'> +2.5775040e-12 </wgt>
<wgt id='1174'> +2.5468637e-12 </wgt>
<wgt id='1175'> +2.5538116e-12 </wgt>
<wgt id='1176'> +2.5694640e-12 </wgt>
<wgt id='1177'> +2.5647235e-12 </wgt>
<wgt id='1178'> +2.5616589e-12 </wgt>
<wgt id='1179'> +2.5891657e-12 </wgt>
<wgt id='1180'> +2.5308734e-12 </wgt>
<wgt id='1181'> +2.5522237e-12 </wgt>
<wgt id='1182'> +2.5756871e-12 </wgt>
<wgt id='1183'> +2.5643848e-12 </wgt>
<wgt id='1184'> +2.5634844e-12 </wgt>
<wgt id='1185'> +2.5782392e-12 </wgt>
<wgt id='1186'> +2.5564450e-12 </wgt>
<wgt id='1187'> +2.5627751e-12 </wgt>
<wgt id='1188'> +2.5636691e-12 </wgt>
<wgt id='1189'> +2.5805724e-12 </wgt>
<wgt id='1190'> +2.5142997e-12 </wgt>
<wgt id='1191'> +2.5291895e-12 </wgt>
<wgt id='1192'> +2.5877705e-12 </wgt>
<wgt id='1193'> +1.5197631e-12 </wgt>
<wgt id='1194'> +1.5108652e-12 </wgt>
<wgt id='1195'> +1.5270028e-12 </wgt>
<wgt id='1196'> +1.5205879e-12 </wgt>
<wgt id='1197'> +1.5189190e-12 </wgt>
<wgt id='1198'> +1.5228109e-12 </wgt>
<wgt id='1199'> +1.5152895e-12 </wgt>
<wgt id='1200'> +1.5214203e-12 </wgt>
<wgt id='1201'> +1.5186895e-12 </wgt>
<wgt id='1202'> +1.5149645e-12 </wgt>
<wgt id='1203'> +1.5265875e-12 </wgt>
<wgt id='1204'> +1.4919725e-12 </wgt>
<wgt id='1205'> +1.5369803e-12 </wgt>
<wgt id='1206'> +1.5263426e-12 </wgt>
<wgt id='1207'> +1.5108061e-12 </wgt>
<wgt id='1208'> +1.5122346e-12 </wgt>
<wgt id='1209'> +1.5225831e-12 </wgt>
<wgt id='1210'> +1.5027791e-12 </wgt>
<wgt id='1211'> +1.5353071e-12 </wgt>
<wgt id='1212'> +1.5198828e-12 </wgt>
<wgt id='1213'> +1.5199534e-12 </wgt>
<wgt id='1214'> +1.5334632e-12 </wgt>
<wgt id='1215'> +1.4904414e-12 </wgt>
<wgt id='1216'> +1.5078069e-12 </wgt>
<wgt id='1217'> +1.5264555e-12 </wgt>
<wgt id='1218'> +1.5175035e-12 </wgt>
<wgt id='1219'> +1.5204789e-12 </wgt>
<wgt id='1220'> +1.5229120e-12 </wgt>
<wgt id='1221'> +1.5235599e-12 </wgt>
<wgt id='1222'> +1.5226976e-12 </wgt>
<wgt id='1223'> +1.5206063e-12 </wgt>
<wgt id='1224'> +1.5171249e-12 </wgt>
<wgt id='1225'> +1.5208296e-12 </wgt>
<wgt id='1226'> +1.5212188e-12 </wgt>
<wgt id='1227'> +1.5191054e-12 </wgt>
<wgt id='1228'> +1.5231066e-12 </wgt>
<wgt id='1229'> +1.5173055e-12 </wgt>
<wgt id='1230'> +1.5449892e-12 </wgt>
<wgt id='1231'> +1.5068685e-12 </wgt>
<wgt id='1232'> +1.5215238e-12 </wgt>
<wgt id='1233'> +1.5193433e-12 </wgt>
<wgt id='1234'> +1.5197631e-12 </wgt>
<wgt id='1235'> +1.5086640e-12 </wgt>
<wgt id='1236'> +1.5127836e-12 </wgt>
<wgt id='1237'> +1.5162568e-12 </wgt>
<wgt id='1238'> +1.5227305e-12 </wgt>
<wgt id='1239'> +1.5251026e-12 </wgt>
<wgt id='1240'> +1.5274120e-12 </wgt>
<wgt id='1241'> +1.4860050e-12 </wgt>
<wgt id='1242'> +1.4756171e-12 </wgt>
<wgt id='1243'> +1.4962268e-12 </wgt>
<wgt id='1244'> +1.4807978e-12 </wgt>
<wgt id='1245'> +1.4899128e-12 </wgt>
<wgt id='1246'> +1.4875150e-12 </wgt>
<wgt id='1247'> +1.4847677e-12 </wgt>
<wgt id='1248'> +1.4858782e-12 </wgt>
<wgt id='1249'> +1.4861884e-12 </wgt>
<wgt id='1250'> +1.4812137e-12 </wgt>
<wgt id='1251'> +1.4894267e-12 </wgt>
<wgt id='1252'> +1.4832512e-12 </wgt>
<wgt id='1253'> +1.4881756e-12 </wgt>
<wgt id='1254'> +1.4623790e-12 </wgt>
<wgt id='1255'> +1.5002692e-12 </wgt>
<wgt id='1256'> +1.4913785e-12 </wgt>
<wgt id='1257'> +1.4725625e-12 </wgt>
<wgt id='1258'> +1.4596004e-12 </wgt>
<wgt id='1259'> +1.5055752e-12 </wgt>
<wgt id='1260'> +1.4834529e-12 </wgt>
<wgt id='1261'> +1.4898086e-12 </wgt>
<wgt id='1262'> +1.4811867e-12 </wgt>
<wgt id='1263'> +1.4879917e-12 </wgt>
<wgt id='1264'> +1.4896996e-12 </wgt>
<wgt id='1265'> +1.4844927e-12 </wgt>
<wgt id='1266'> +1.4925941e-12 </wgt>
<wgt id='1267'> +1.4825120e-12 </wgt>
<wgt id='1268'> +1.4869503e-12 </wgt>
<wgt id='1269'> +1.4907486e-12 </wgt>
<wgt id='1270'> +1.4973843e-12 </wgt>
<wgt id='1271'> +1.4854829e-12 </wgt>
<wgt id='1272'> +1.4891122e-12 </wgt>
<wgt id='1273'> +1.4858718e-12 </wgt>
<wgt id='1274'> +1.4858220e-12 </wgt>
<wgt id='1275'> +1.4865816e-12 </wgt>
<wgt id='1276'> +1.4804876e-12 </wgt>
<wgt id='1277'> +1.4906993e-12 </wgt>
<wgt id='1278'> +1.4770903e-12 </wgt>
<wgt id='1279'> +1.5045280e-12 </wgt>
<wgt id='1280'> +1.4848467e-12 </wgt>
<wgt id='1281'> +1.4965266e-12 </wgt>
<wgt id='1282'> +1.4860050e-12 </wgt>
<wgt id='1283'> +1.4747019e-12 </wgt>
<wgt id='1284'> +1.4792468e-12 </wgt>
<wgt id='1285'> +1.4828704e-12 </wgt>
<wgt id='1286'> +1.4889991e-12 </wgt>
<wgt id='1287'> +1.4910445e-12 </wgt>
<wgt id='1288'> +1.4928455e-12 </wgt>
<wgt id='1289'> +1.5547573e-12 </wgt>
<wgt id='1290'> +1.5597663e-12 </wgt>
<wgt id='1291'> +1.5493530e-12 </wgt>
<wgt id='1292'> +1.5558958e-12 </wgt>
<wgt id='1293'> +1.5539601e-12 </wgt>
<wgt id='1294'> +1.5500717e-12 </wgt>
<wgt id='1295'> +1.5591193e-12 </wgt>
<wgt id='1296'> +1.5523012e-12 </wgt>
<wgt id='1297'> +1.5577190e-12 </wgt>
<wgt id='1298'> +1.5683842e-12 </wgt>
<wgt id='1299'> +1.5378354e-12 </wgt>
<wgt id='1300'> +1.5601317e-12 </wgt>
<wgt id='1301'> +1.5440041e-12 </wgt>
<wgt id='1302'> +1.5526240e-12 </wgt>
<wgt id='1303'> +1.5576845e-12 </wgt>
<wgt id='1304'> +1.5502668e-12 </wgt>
<wgt id='1305'> +1.5578310e-12 </wgt>
<wgt id='1306'> +1.5425958e-12 </wgt>
<wgt id='1307'> +1.5685457e-12 </wgt>
<wgt id='1308'> +1.5494147e-12 </wgt>
<wgt id='1309'> +1.5588206e-12 </wgt>
<wgt id='1310'> +1.5504157e-12 </wgt>
<wgt id='1311'> +1.5595642e-12 </wgt>
<wgt id='1312'> +1.5427456e-12 </wgt>
<wgt id='1313'> +1.5673580e-12 </wgt>
<wgt id='1314'> +1.5410205e-12 </wgt>
<wgt id='1315'> +1.5647598e-12 </wgt>
<wgt id='1316'> +1.5611558e-12 </wgt>
<wgt id='1317'> +1.5569608e-12 </wgt>
<wgt id='1318'> +1.5473122e-12 </wgt>
<wgt id='1319'> +1.5622637e-12 </wgt>
<wgt id='1320'> +1.5327478e-12 </wgt>
<wgt id='1321'> +1.5691957e-12 </wgt>
<wgt id='1322'> +1.5584539e-12 </wgt>
<wgt id='1323'> +1.5496599e-12 </wgt>
<wgt id='1324'> +1.5589770e-12 </wgt>
<wgt id='1325'> +1.5512184e-12 </wgt>
<wgt id='1326'> +1.5575996e-12 </wgt>
<wgt id='1327'> +1.5554740e-12 </wgt>
<wgt id='1328'> +1.5483792e-12 </wgt>
<wgt id='1329'> +1.5607921e-12 </wgt>
<wgt id='1330'> +1.5470946e-12 </wgt>
<wgt id='1331'> +1.5648686e-12 </wgt>
<wgt id='1332'> +1.5835797e-12 </wgt>
<wgt id='1333'> +1.5511867e-12 </wgt>
<wgt id='1334'> +1.5532798e-12 </wgt>
<wgt id='1335'> +1.5594596e-12 </wgt>
<wgt id='1336'> +1.5713714e-12 </wgt>
<wgt id='1337'> +1.5432048e-12 </wgt>
<wgt id='1338'> +1.5586630e-12 </wgt>
<wgt id='1339'> +1.5532181e-12 </wgt>
<wgt id='1340'> +1.4908558e-12 </wgt>
<wgt id='1341'> +1.4957823e-12 </wgt>
<wgt id='1342'> +1.4856140e-12 </wgt>
<wgt id='1343'> +1.4921329e-12 </wgt>
<wgt id='1344'> +1.4899970e-12 </wgt>
<wgt id='1345'> +1.4857017e-12 </wgt>
<wgt id='1346'> +1.4954880e-12 </wgt>
<wgt id='1347'> +1.4886082e-12 </wgt>
<wgt id='1348'> +1.4933153e-12 </wgt>
<wgt id='1349'> +1.5034642e-12 </wgt>
<wgt id='1350'> +1.4785918e-12 </wgt>
<wgt id='1351'> +1.4962598e-12 </wgt>
<wgt id='1352'> +1.4791339e-12 </wgt>
<wgt id='1353'> +1.4877972e-12 </wgt>
<wgt id='1354'> +1.4963199e-12 </wgt>
<wgt id='1355'> +1.4865439e-12 </wgt>
<wgt id='1356'> +1.4933015e-12 </wgt>
<wgt id='1357'> +1.4772591e-12 </wgt>
<wgt id='1358'> +1.5069061e-12 </wgt>
<wgt id='1359'> +1.4888008e-12 </wgt>
<wgt id='1360'> +1.4926589e-12 </wgt>
<wgt id='1361'> +1.4870186e-12 </wgt>
<wgt id='1362'> +1.4961342e-12 </wgt>
<wgt id='1363'> +1.4775189e-12 </wgt>
<wgt id='1364'> +1.5006342e-12 </wgt>
<wgt id='1365'> +1.5072779e-12 </wgt>
<wgt id='1366'> +1.4666350e-12 </wgt>
<wgt id='1367'> +1.4972222e-12 </wgt>
<wgt id='1368'> +1.4917584e-12 </wgt>
<wgt id='1369'> +1.4857238e-12 </wgt>
<wgt id='1370'> +1.4965239e-12 </wgt>
<wgt id='1371'> +1.4775967e-12 </wgt>
<wgt id='1372'> +1.5043301e-12 </wgt>
<wgt id='1373'> +1.4982595e-12 </wgt>
<wgt id='1374'> +1.4831683e-12 </wgt>
<wgt id='1375'> +1.4945155e-12 </wgt>
<wgt id='1376'> +1.4872964e-12 </wgt>
<wgt id='1377'> +1.4942433e-12 </wgt>
<wgt id='1378'> +1.4914853e-12 </wgt>
<wgt id='1379'> +1.4852029e-12 </wgt>
<wgt id='1380'> +1.4971516e-12 </wgt>
<wgt id='1381'> +1.4845621e-12 </wgt>
<wgt id='1382'> +1.4988470e-12 </wgt>
<wgt id='1383'> +1.5174808e-12 </wgt>
<wgt id='1384'> +1.4873408e-12 </wgt>
<wgt id='1385'> +1.4890786e-12 </wgt>
<wgt id='1386'> +1.4958307e-12 </wgt>
<wgt id='1387'> +1.5077070e-12 </wgt>
<wgt id='1388'> +1.4815025e-12 </wgt>
<wgt id='1389'> +1.4966237e-12 </wgt>
<wgt id='1390'> +1.4888572e-12 </wgt>
<wgt id='1391'> +1.4910063e-12 </wgt>
<wgt id='1392'> +1.4014251e-12 </wgt>
<wgt id='1393'> +1.4309928e-12 </wgt>
<wgt id='1394'> +1.4608047e-12 </wgt>
<wgt id='1395'> +1.5237673e-12 </wgt>
<wgt id='1396'> +1.4914095e-12 </wgt>
<wgt id='1397'> +1.6168452e-12 </wgt>
<wgt id='1398'> +1.5877075e-12 </wgt>
<wgt id='1399'> +1.5612037e-12 </wgt>
<wgt id='1400'> +1.5367230e-12 </wgt>
<wgt id='1401'> +1.5133904e-12 </wgt>
<wgt id='1402'> +1.4709372e-12 </wgt>
<wgt id='1403'> +1.4515516e-12 </wgt>
<wgt id='1404'> +1.4331258e-12 </wgt>
<wgt id='1405'> +1.4914095e-12 </wgt>
<wgt id='1406'> +1.4829291e-12 </wgt>
<wgt id='1407'> +1.4871974e-12 </wgt>
<wgt id='1408'> +1.4954747e-12 </wgt>
<wgt id='1409'> +1.4991334e-12 </wgt>
<wgt id='1410'> +1.4525420e-12 </wgt>
<wgt id='1411'> +1.4584503e-12 </wgt>
<wgt id='1412'> +1.4449476e-12 </wgt>
<wgt id='1413'> +1.4523905e-12 </wgt>
<wgt id='1414'> +1.4526342e-12 </wgt>
<wgt id='1415'> +1.4530527e-12 </wgt>
<wgt id='1416'> +1.4523257e-12 </wgt>
<wgt id='1417'> +1.4460155e-12 </wgt>
<wgt id='1418'> +1.4590093e-12 </wgt>
<wgt id='1419'> +1.4581165e-12 </wgt>
<wgt id='1420'> +1.4471517e-12 </wgt>
<wgt id='1421'> +1.4280017e-12 </wgt>
<wgt id='1422'> +1.4631326e-12 </wgt>
<wgt id='1423'> +1.4519667e-12 </wgt>
<wgt id='1424'> +1.4531972e-12 </wgt>
<wgt id='1425'> +1.4451728e-12 </wgt>
<wgt id='1426'> +1.4604318e-12 </wgt>
<wgt id='1427'> +1.4302618e-12 </wgt>
<wgt id='1428'> +1.4647099e-12 </wgt>
<wgt id='1429'> +1.4507256e-12 </wgt>
<wgt id='1430'> +1.4551704e-12 </wgt>
<wgt id='1431'> +1.4529876e-12 </wgt>
<wgt id='1432'> +1.4521510e-12 </wgt>
<wgt id='1433'> +1.4543292e-12 </wgt>
<wgt id='1434'> +1.4481758e-12 </wgt>
<wgt id='1435'> +1.4557025e-12 </wgt>
<wgt id='1436'> +1.4452750e-12 </wgt>
<wgt id='1437'> +1.4591503e-12 </wgt>
<wgt id='1438'> +1.4546333e-12 </wgt>
<wgt id='1439'> +1.4560117e-12 </wgt>
<wgt id='1440'> +1.4383062e-12 </wgt>
<wgt id='1441'> +1.4474456e-12 </wgt>
<wgt id='1442'> +1.4638693e-12 </wgt>
<wgt id='1443'> +1.4543995e-12 </wgt>
<wgt id='1444'> +1.4517380e-12 </wgt>
<wgt id='1445'> +1.4470087e-12 </wgt>
<wgt id='1446'> +1.4574116e-12 </wgt>
<wgt id='1447'> +1.4530686e-12 </wgt>
<wgt id='1448'> +1.4562801e-12 </wgt>
<wgt id='1449'> +1.4452175e-12 </wgt>
<wgt id='1450'> +1.4577284e-12 </wgt>
<wgt id='1451'> +1.4531027e-12 </wgt>
<wgt id='1452'> +1.4555968e-12 </wgt>
<wgt id='1453'> +1.4539016e-12 </wgt>
<wgt id='1454'> +1.4446549e-12 </wgt>
<wgt id='1455'> +1.4407755e-12 </wgt>
<wgt id='1456'> +1.4729399e-12 </wgt>
<wgt id='1457'> +1.4634939e-12 </wgt>
<wgt id='1458'> +1.4493601e-12 </wgt>
<wgt id='1459'> +1.4506472e-12 </wgt>
<wgt id='1460'> +1.4662238e-12 </wgt>
<wgt id='1461'> +1.4525420e-12 </wgt>
<wgt id='1462'> +1.4231014e-12 </wgt>
<wgt id='1463'> +1.4779420e-12 </wgt>
<wgt id='1464'> +1.4500610e-12 </wgt>
<wgt id='1465'> +1.5811455e-12 </wgt>
<wgt id='1466'> +1.5502411e-12 </wgt>
<wgt id='1467'> +1.5219612e-12 </wgt>
<wgt id='1468'> +1.4984692e-12 </wgt>
<wgt id='1469'> +1.4729781e-12 </wgt>
<wgt id='1470'> +1.4282519e-12 </wgt>
<wgt id='1471'> +1.4067033e-12 </wgt>
<wgt id='1472'> +1.3873725e-12 </wgt>
<wgt id='1473'> +1.4500610e-12 </wgt>
<wgt id='1474'> +1.4409095e-12 </wgt>
<wgt id='1475'> +1.4461431e-12 </wgt>
<wgt id='1476'> +1.4540565e-12 </wgt>
<wgt id='1477'> +1.4578046e-12 </wgt>
<wgt id='1478'> +1.4612427e-12 </wgt>
<wgt id='1479'> +1.4652218e-12 </wgt>
<wgt id='1480'> +1.4664207e-12 </wgt>
<wgt id='1481'> +1.4672956e-12 </wgt>
<wgt id='1482'> +1.4728867e-12 </wgt>
<wgt id='1483'> +1.4359315e-12 </wgt>
<wgt id='1484'> +1.4679208e-12 </wgt>
<wgt id='1485'> +1.4940716e-12 </wgt>
<wgt id='1486'> +1.4602235e-12 </wgt>
<wgt id='1487'> +1.4825846e-12 </wgt>
<wgt id='1488'> +1.4545842e-12 </wgt>
<wgt id='1489'> +1.4406507e-12 </wgt>
<wgt id='1490'> +1.4665061e-12 </wgt>
<wgt id='1491'> +1.4545123e-12 </wgt>
<wgt id='1492'> +1.4538956e-12 </wgt>
<wgt id='1493'> +1.4544341e-12 </wgt>
<wgt id='1494'> +1.4636100e-12 </wgt>
<wgt id='1495'> +1.4827057e-12 </wgt>
<wgt id='1496'> +1.4551598e-12 </wgt>
<wgt id='1497'> +1.4688813e-12 </wgt>
<wgt id='1498'> +1.4545146e-12 </wgt>
<wgt id='1499'> +1.4674334e-12 </wgt>
<wgt id='1500'> +1.4610018e-12 </wgt>
<wgt id='1501'> +1.4555568e-12 </wgt>
<wgt id='1502'> +1.4617485e-12 </wgt>
<wgt id='1503'> +1.4669455e-12 </wgt>
<wgt id='1504'> +1.4626385e-12 </wgt>
<wgt id='1505'> +1.4580021e-12 </wgt>
<wgt id='1506'> +1.4641015e-12 </wgt>
<wgt id='1507'> +1.4616521e-12 </wgt>
<wgt id='1508'> +1.4794462e-12 </wgt>
<wgt id='1509'> +1.2601725e-12 </wgt>
<wgt id='1510'> +1.2596052e-12 </wgt>
<wgt id='1511'> +1.2402124e-12 </wgt>
<wgt id='1512'> +1.2467424e-12 </wgt>
<wgt id='1513'> +1.2649291e-12 </wgt>
<wgt id='1514'> +1.2631320e-12 </wgt>
<wgt id='1515'> +1.2555368e-12 </wgt>
<wgt id='1516'> +1.2773383e-12 </wgt>
<wgt id='1517'> +1.2605254e-12 </wgt>
<wgt id='1518'> +1.2444655e-12 </wgt>
<wgt id='1519'> +1.2665134e-12 </wgt>
<wgt id='1520'> +1.2682056e-12 </wgt>
<wgt id='1521'> +1.2564877e-12 </wgt>
<wgt id='1522'> +1.2591470e-12 </wgt>
<wgt id='1523'> +1.2392394e-12 </wgt>
<wgt id='1524'> +1.2537282e-12 </wgt>
<wgt id='1525'> +1.2435260e-12 </wgt>
<wgt id='1526'> +1.2673664e-12 </wgt>
<wgt id='1527'> +1.2675365e-12 </wgt>
<wgt id='1528'> +1.2638502e-12 </wgt>
<wgt id='1529'> +1.2664846e-12 </wgt>
<wgt id='1530'> +1.2491603e-12 </wgt>
<wgt id='1531'> +1.2496238e-12 </wgt>
<wgt id='1532'> +1.2908180e-12 </wgt>
<wgt id='1533'> +1.2446469e-12 </wgt>
<wgt id='1534'> +1.2618868e-12 </wgt>
<wgt id='1535'> +1.2913520e-12 </wgt>
<wgt id='1536'> +1.2437294e-12 </wgt>
<wgt id='1537'> +1.2449129e-12 </wgt>
<wgt id='1538'> +1.3097195e-12 </wgt>
<wgt id='1539'> +1.2524779e-12 </wgt>
<wgt id='1540'> +1.2562735e-12 </wgt>
<wgt id='1541'> +1.2609022e-12 </wgt>
<wgt id='1542'> +1.2619892e-12 </wgt>
<wgt id='1543'> +1.2746621e-12 </wgt>
<wgt id='1544'> +1.2315763e-12 </wgt>
<wgt id='1545'> +1.2627862e-12 </wgt>
<wgt id='1546'> +1.2771877e-12 </wgt>
<wgt id='1547'> +1.2552329e-12 </wgt>
<wgt id='1548'> +1.2587143e-12 </wgt>
<wgt id='1549'> +1.2600990e-12 </wgt>
<wgt id='1550'> +1.2610703e-12 </wgt>
<wgt id='1551'> +1.2490516e-12 </wgt>
<wgt id='1552'> +1.2587761e-12 </wgt>
<wgt id='1553'> +1.2580212e-12 </wgt>
<wgt id='1554'> +1.2612975e-12 </wgt>
<wgt id='1555'> +1.2530416e-12 </wgt>
<wgt id='1556'> +1.2538372e-12 </wgt>
<wgt id='1557'> +1.2543342e-12 </wgt>
<wgt id='1558'> +1.2627939e-12 </wgt>
<wgt id='1559'> +1.2611905e-12 </wgt>
<wgt id='1560'> +1.2611415e-12 </wgt>
<wgt id='1561'> +1.2740191e-12 </wgt>
<wgt id='1562'> +1.2618216e-12 </wgt>
<wgt id='1563'> +1.2601554e-12 </wgt>
<wgt id='1564'> +1.2674844e-12 </wgt>
<wgt id='1565'> +1.2579344e-12 </wgt>
<wgt id='1566'> +1.2538904e-12 </wgt>
<wgt id='1567'> +1.2336636e-12 </wgt>
<wgt id='1568'> +1.2602244e-12 </wgt>
<wgt id='1569'> +1.2485677e-12 </wgt>
<wgt id='1570'> +1.2620835e-12 </wgt>
<wgt id='1571'> +1.2577528e-12 </wgt>
<wgt id='1572'> +1.2616813e-12 </wgt>
<wgt id='1573'> +1.2756301e-12 </wgt>
<wgt id='1574'> +1.2398435e-12 </wgt>
<wgt id='1575'> +1.2657261e-12 </wgt>
<wgt id='1576'> +1.2620078e-12 </wgt>
<wgt id='1577'> +1.2533745e-12 </wgt>
<wgt id='1578'> +1.2455565e-12 </wgt>
<wgt id='1579'> +1.2742622e-12 </wgt>
<wgt id='1580'> +1.2820621e-12 </wgt>
<wgt id='1581'> +1.2557623e-12 </wgt>
<wgt id='1582'> +1.2447649e-12 </wgt>
<wgt id='1583'> +1.2669844e-12 </wgt>
<wgt id='1584'> +1.2588107e-12 </wgt>
<wgt id='1585'> +1.2525949e-12 </wgt>
<wgt id='1586'> +1.2728250e-12 </wgt>
<wgt id='1587'> +1.2625985e-12 </wgt>
<wgt id='1588'> +1.2621161e-12 </wgt>
<wgt id='1589'> +1.2519509e-12 </wgt>
<wgt id='1590'> +1.2565959e-12 </wgt>
<wgt id='1591'> +1.2530431e-12 </wgt>
<wgt id='1592'> +1.2646074e-12 </wgt>
<wgt id='1593'> +1.2590041e-12 </wgt>
<wgt id='1594'> +1.2577792e-12 </wgt>
<wgt id='1595'> +1.2616705e-12 </wgt>
<wgt id='1596'> +1.2729319e-12 </wgt>
<wgt id='1597'> +1.2504540e-12 </wgt>
<wgt id='1598'> +1.2669104e-12 </wgt>
<wgt id='1599'> +1.2629596e-12 </wgt>
<wgt id='1600'> +1.2681751e-12 </wgt>
<wgt id='1601'> +1.2559209e-12 </wgt>
<wgt id='1602'> +1.2655189e-12 </wgt>
<wgt id='1603'> +1.2557686e-12 </wgt>
<wgt id='1604'> +1.2586805e-12 </wgt>
<wgt id='1605'> +1.2598454e-12 </wgt>
<wgt id='1606'> +1.2414225e-12 </wgt>
<wgt id='1607'> +1.2788230e-12 </wgt>
<wgt id='1608'> +1.2615462e-12 </wgt>
<wgt id='1609'> +1.2499540e-12 </wgt>
<wgt id='1610'> +1.1668696e-12 </wgt>
<wgt id='1611'> +1.3664110e-12 </wgt>
<wgt id='1612'> +1.3662833e-12 </wgt>
<wgt id='1613'> +1.3145785e-12 </wgt>
<wgt id='1614'> +1.3940532e-12 </wgt>
<wgt id='1615'> +1.5158039e-12 </wgt>
<wgt id='1616'> +1.4722714e-12 </wgt>
<wgt id='1617'> +1.3324325e-12 </wgt>
<wgt id='1618'> +1.3545052e-12 </wgt>
<wgt id='1619'> +1.3032717e-12 </wgt>
<wgt id='1620'> +1.3285389e-12 </wgt>
<wgt id='1621'> +1.3377441e-12 </wgt>
<wgt id='1622'> +1.2844052e-12 </wgt>
<wgt id='1623'> +1.4033585e-12 </wgt>
<wgt id='1624'> +1.3227258e-12 </wgt>
<wgt id='1625'> +1.2914709e-12 </wgt>
<wgt id='1626'> +1.5113291e-12 </wgt>
<wgt id='1627'> +1.3659700e-12 </wgt>
<wgt id='1628'> +1.7065667e-12 </wgt>
<wgt id='1629'> +1.2475059e-12 </wgt>
<wgt id='1630'> +1.3718890e-12 </wgt>
<wgt id='1631'> +1.3933352e-12 </wgt>
<wgt id='1632'> +1.5919922e-12 </wgt>
<wgt id='1633'> +1.6892040e-12 </wgt>
<wgt id='1634'> +1.3342344e-12 </wgt>
<wgt id='1635'> +1.1182576e-12 </wgt>
<wgt id='1636'> +1.3771739e-12 </wgt>
<wgt id='1637'> +1.3981697e-12 </wgt>
<wgt id='1638'> +1.3364128e-12 </wgt>
<wgt id='1639'> +1.4612452e-12 </wgt>
<wgt id='1640'> +1.4779872e-12 </wgt>
<wgt id='1641'> +1.3774725e-12 </wgt>
<wgt id='1642'> +1.5123636e-12 </wgt>
<wgt id='1643'> +1.5198592e-12 </wgt>
<wgt id='1644'> +1.4379692e-12 </wgt>
<wgt id='1645'> +1.4569962e-12 </wgt>
<wgt id='1646'> +1.2800023e-12 </wgt>
<wgt id='1647'> +1.2510922e-12 </wgt>
<wgt id='1648'> +1.3278079e-12 </wgt>
<wgt id='1649'> +1.4103847e-12 </wgt>
<wgt id='1650'> +1.6593829e-12 </wgt>
<wgt id='1651'> +1.7059597e-12 </wgt>
<wgt id='1652'> +1.5799731e-12 </wgt>
<wgt id='1653'> +1.1528025e-12 </wgt>
<wgt id='1654'> +1.4481935e-12 </wgt>
<wgt id='1655'> +1.4412789e-12 </wgt>
<wgt id='1656'> +1.3603306e-12 </wgt>
<wgt id='1657'> +1.3692238e-12 </wgt>
<wgt id='1658'> +1.5035996e-12 </wgt>
<wgt id='1659'> +1.3227258e-12 </wgt>
<wgt id='1660'> +1.3191006e-12 </wgt>
<wgt id='1661'> +1.1728341e-12 </wgt>
<wgt id='1662'> +1.1039334e-12 </wgt>
<wgt id='1663'> +1.1987223e-12 </wgt>
<wgt id='1664'> +1.3752390e-12 </wgt>
<wgt id='1665'> +1.5133172e-12 </wgt>
<wgt id='1666'> +1.3991053e-12 </wgt>
<wgt id='1667'> +1.1574544e-12 </wgt>
<wgt id='1668'> +1.3689268e-12 </wgt>
<wgt id='1669'> +1.3601249e-12 </wgt>
<wgt id='1670'> +1.4475924e-12 </wgt>
<wgt id='1671'> +1.4261143e-12 </wgt>
<wgt id='1672'> +1.2606161e-12 </wgt>
<wgt id='1673'> +1.5077563e-12 </wgt>
<wgt id='1674'> +1.1334033e-12 </wgt>
<wgt id='1675'> +1.3586813e-12 </wgt>
<wgt id='1676'> +1.3695646e-12 </wgt>
<wgt id='1677'> +1.3677606e-12 </wgt>
<wgt id='1678'> +1.4182720e-12 </wgt>
<wgt id='1679'> +1.2796647e-12 </wgt>
<wgt id='1680'> +1.1066713e-12 </wgt>
<wgt id='1681'> +1.1606881e-12 </wgt>
<wgt id='1682'> +1.2629155e-12 </wgt>
<wgt id='1683'> +1.2372068e-12 </wgt>
<wgt id='1684'> +1.2560483e-12 </wgt>
<wgt id='1685'> +1.3298348e-12 </wgt>
<wgt id='1686'> +1.1830884e-12 </wgt>
<wgt id='1687'> +1.3329024e-12 </wgt>
<wgt id='1688'> +1.6520405e-12 </wgt>
<wgt id='1689'> +1.2116986e-12 </wgt>
<wgt id='1690'> +1.0606294e-12 </wgt>
<wgt id='1691'> +1.1415018e-12 </wgt>
<wgt id='1692'> +1.3866495e-12 </wgt>
<wgt id='1693'> +1.3955293e-12 </wgt>
<wgt id='1694'> +1.4009456e-12 </wgt>
<wgt id='1695'> +1.2542273e-12 </wgt>
<wgt id='1696'> +1.4703193e-12 </wgt>
<wgt id='1697'> +1.2942261e-12 </wgt>
<wgt id='1698'> +1.3835491e-12 </wgt>
<wgt id='1699'> +1.3913746e-12 </wgt>
<wgt id='1700'> +1.4330139e-12 </wgt>
<wgt id='1701'> +1.2387681e-12 </wgt>
<wgt id='1702'> +1.2269599e-12 </wgt>
<wgt id='1703'> +1.3627765e-12 </wgt>
<wgt id='1704'> +1.5272886e-12 </wgt>
<wgt id='1705'> +1.7834846e-12 </wgt>
<wgt id='1706'> +1.2258358e-12 </wgt>
<wgt id='1707'> +1.4907718e-12 </wgt>
<wgt id='1708'> +1.3569595e-12 </wgt>
<wgt id='1709'> +1.3837166e-12 </wgt>
<wgt id='1710'> +1.3364414e-12 </wgt>
<wgt id='1711'> +1.3412338e-12 </wgt>
<wgt id='1712'> +1.3098201e-12 </wgt>
<wgt id='1713'> +1.4902633e-12 </wgt>
<wgt id='1714'> +1.5004379e-12 </wgt>
<wgt id='1715'> +1.4886061e-12 </wgt>
<wgt id='1716'> +1.5395574e-12 </wgt>
<wgt id='1717'> +1.4276887e-12 </wgt>
<wgt id='1718'> +1.5232820e-12 </wgt>
<wgt id='1719'> +1.5148808e-12 </wgt>
<wgt id='1720'> +1.4664812e-12 </wgt>
<wgt id='1721'> +1.4958298e-12 </wgt>
<wgt id='1722'> +1.5010702e-12 </wgt>
<wgt id='1723'> +1.5303941e-12 </wgt>
<wgt id='1724'> +1.4278389e-12 </wgt>
<wgt id='1725'> +1.4994807e-12 </wgt>
<wgt id='1726'> +1.4475576e-12 </wgt>
<wgt id='1727'> +1.5379780e-12 </wgt>
<wgt id='1728'> +1.5155221e-12 </wgt>
<wgt id='1729'> +1.4923077e-12 </wgt>
<wgt id='1730'> +1.5174820e-12 </wgt>
<wgt id='1731'> +1.4990786e-12 </wgt>
<wgt id='1732'> +1.4969295e-12 </wgt>
<wgt id='1733'> +1.5319930e-12 </wgt>
<wgt id='1734'> +1.5080822e-12 </wgt>
<wgt id='1735'> +1.4814190e-12 </wgt>
<wgt id='1736'> +1.5055794e-12 </wgt>
<wgt id='1737'> +1.5192538e-12 </wgt>
<wgt id='1738'> +1.4721271e-12 </wgt>
<wgt id='1739'> +1.4817574e-12 </wgt>
<wgt id='1740'> +1.4703018e-12 </wgt>
<wgt id='1741'> +1.5277499e-12 </wgt>
<wgt id='1742'> +1.5445416e-12 </wgt>
<wgt id='1743'> +1.5134118e-12 </wgt>
<wgt id='1744'> +1.4899451e-12 </wgt>
<wgt id='1745'> +1.4491286e-12 </wgt>
<wgt id='1746'> +1.4470339e-12 </wgt>
<wgt id='1747'> +1.5049916e-12 </wgt>
<wgt id='1748'> +1.4832887e-12 </wgt>
<wgt id='1749'> +1.4679003e-12 </wgt>
<wgt id='1750'> +1.5229159e-12 </wgt>
<wgt id='1751'> +1.4776846e-12 </wgt>
<wgt id='1752'> +1.4687803e-12 </wgt>
<wgt id='1753'> +1.4734388e-12 </wgt>
<wgt id='1754'> +1.4792189e-12 </wgt>
<wgt id='1755'> +1.4672153e-12 </wgt>
<wgt id='1756'> +1.4728270e-12 </wgt>
<wgt id='1757'> +1.5280258e-12 </wgt>
<wgt id='1758'> +1.5464866e-12 </wgt>
<wgt id='1759'> +1.5080017e-12 </wgt>
<wgt id='1760'> +1.4901653e-12 </wgt>
<wgt id='1761'> +1.4964839e-12 </wgt>
<wgt id='1762'> +1.4963057e-12 </wgt>
<wgt id='1763'> +1.4911821e-12 </wgt>
<wgt id='1764'> +1.5060145e-12 </wgt>
<wgt id='1765'> +1.4821834e-12 </wgt>
<wgt id='1766'> +1.5275592e-12 </wgt>
<wgt id='1767'> +1.4322028e-12 </wgt>
<wgt id='1768'> +1.4691767e-12 </wgt>
<wgt id='1769'> +1.5305509e-12 </wgt>
<wgt id='1770'> +1.4605055e-12 </wgt>
<wgt id='1771'> +1.5088289e-12 </wgt>
<wgt id='1772'> +1.5494582e-12 </wgt>
<wgt id='1773'> +1.4875983e-12 </wgt>
<wgt id='1774'> +1.4814307e-12 </wgt>
<wgt id='1775'> +1.5373768e-12 </wgt>
<wgt id='1776'> +1.4482998e-12 </wgt>
<wgt id='1777'> +1.5147497e-12 </wgt>
<wgt id='1778'> +1.4059573e-12 </wgt>
<wgt id='1779'> +1.4937415e-12 </wgt>
<wgt id='1780'> +1.5428564e-12 </wgt>
<wgt id='1781'> +1.4800475e-12 </wgt>
<wgt id='1782'> +1.4251526e-12 </wgt>
<wgt id='1783'> +1.4760548e-12 </wgt>
<wgt id='1784'> +1.4505593e-12 </wgt>
<wgt id='1785'> +1.4981105e-12 </wgt>
<wgt id='1786'> +1.4493274e-12 </wgt>
<wgt id='1787'> +1.5428433e-12 </wgt>
<wgt id='1788'> +1.4794533e-12 </wgt>
<wgt id='1789'> +1.4975150e-12 </wgt>
<wgt id='1790'> +1.4641042e-12 </wgt>
<wgt id='1791'> +1.4512959e-12 </wgt>
<wgt id='1792'> +1.4660506e-12 </wgt>
<wgt id='1793'> +1.4640205e-12 </wgt>
<wgt id='1794'> +1.4814859e-12 </wgt>
<wgt id='1795'> +1.4545369e-12 </wgt>
<wgt id='1796'> +1.5349471e-12 </wgt>
<wgt id='1797'> +1.4964383e-12 </wgt>
<wgt id='1798'> +1.5129683e-12 </wgt>
<wgt id='1799'> +1.4862401e-12 </wgt>
<wgt id='1800'> +1.5146578e-12 </wgt>
<wgt id='1801'> +1.4700439e-12 </wgt>
<wgt id='1802'> +1.5059792e-12 </wgt>
<wgt id='1803'> +1.4835609e-12 </wgt>
<wgt id='1804'> +1.4859064e-12 </wgt>
<wgt id='1805'> +1.4480408e-12 </wgt>
<wgt id='1806'> +1.5035536e-12 </wgt>
<wgt id='1807'> +1.5095722e-12 </wgt>
<wgt id='1808'> +1.5334700e-12 </wgt>
<wgt id='1809'> +1.4434915e-12 </wgt>
<wgt id='1810'> +1.4726301e-12 </wgt>
<wgt id='1811'> +1.4543304e-12 </wgt>
<wgt id='1812'> +1.4728653e-12 </wgt>
<wgt id='1813'> +1.4911453e-12 </wgt>
<wgt id='1814'> +1.7842081e-12 </wgt>
<wgt id='1815'> +2.1306197e-12 </wgt>
<wgt id='1816'> +1.4902633e-12 </wgt>
<wgt id='1817'> +1.5004379e-12 </wgt>
<wgt id='1818'> +1.4886061e-12 </wgt>
<wgt id='1819'> +1.5395574e-12 </wgt>
<wgt id='1820'> +1.4276887e-12 </wgt>
<wgt id='1821'> +1.5232820e-12 </wgt>
<wgt id='1822'> +1.5148808e-12 </wgt>
<wgt id='1823'> +1.4664812e-12 </wgt>
<wgt id='1824'> +1.4958298e-12 </wgt>
<wgt id='1825'> +1.5010702e-12 </wgt>
<wgt id='1826'> +1.5303941e-12 </wgt>
<wgt id='1827'> +1.4278389e-12 </wgt>
<wgt id='1828'> +1.4994807e-12 </wgt>
<wgt id='1829'> +1.4475576e-12 </wgt>
<wgt id='1830'> +1.5379780e-12 </wgt>
<wgt id='1831'> +1.5155221e-12 </wgt>
<wgt id='1832'> +1.4923077e-12 </wgt>
<wgt id='1833'> +1.5174820e-12 </wgt>
<wgt id='1834'> +1.4990786e-12 </wgt>
<wgt id='1835'> +1.4969295e-12 </wgt>
<wgt id='1836'> +1.5319930e-12 </wgt>
<wgt id='1837'> +1.5080822e-12 </wgt>
<wgt id='1838'> +1.4814190e-12 </wgt>
<wgt id='1839'> +1.5055794e-12 </wgt>
<wgt id='1840'> +1.5192538e-12 </wgt>
<wgt id='1841'> +1.4721271e-12 </wgt>
<wgt id='1842'> +1.4817574e-12 </wgt>
<wgt id='1843'> +1.4703018e-12 </wgt>
<wgt id='1844'> +1.5277499e-12 </wgt>
<wgt id='1845'> +1.5445416e-12 </wgt>
<wgt id='1846'> +1.5134118e-12 </wgt>
<wgt id='1847'> +1.4899451e-12 </wgt>
<wgt id='1848'> +1.4491286e-12 </wgt>
<wgt id='1849'> +1.4470339e-12 </wgt>
<wgt id='1850'> +1.5049916e-12 </wgt>
<wgt id='1851'> +1.4832887e-12 </wgt>
<wgt id='1852'> +1.4679003e-12 </wgt>
<wgt id='1853'> +1.5229159e-12 </wgt>
<wgt id='1854'> +1.4776846e-12 </wgt>
<wgt id='1855'> +1.4687803e-12 </wgt>
<wgt id='1856'> +1.4734388e-12 </wgt>
<wgt id='1857'> +1.4792189e-12 </wgt>
<wgt id='1858'> +1.4672153e-12 </wgt>
<wgt id='1859'> +1.4728270e-12 </wgt>
<wgt id='1860'> +1.5280258e-12 </wgt>
<wgt id='1861'> +1.5464866e-12 </wgt>
<wgt id='1862'> +1.5080017e-12 </wgt>
<wgt id='1863'> +1.4901653e-12 </wgt>
<wgt id='1864'> +1.4964839e-12 </wgt>
<wgt id='1865'> +1.4963057e-12 </wgt>
<wgt id='1866'> +1.4911821e-12 </wgt>
<wgt id='1867'> +1.5060145e-12 </wgt>
<wgt id='1868'> +1.4821834e-12 </wgt>
<wgt id='1869'> +1.5275592e-12 </wgt>
<wgt id='1870'> +1.4322028e-12 </wgt>
<wgt id='1871'> +1.4691767e-12 </wgt>
<wgt id='1872'> +1.5305509e-12 </wgt>
<wgt id='1873'> +1.4605055e-12 </wgt>
<wgt id='1874'> +1.5088289e-12 </wgt>
<wgt id='1875'> +1.5494582e-12 </wgt>
<wgt id='1876'> +1.4875983e-12 </wgt>
<wgt id='1877'> +1.4814307e-12 </wgt>
<wgt id='1878'> +1.5373768e-12 </wgt>
<wgt id='1879'> +1.4482998e-12 </wgt>
<wgt id='1880'> +1.5147497e-12 </wgt>
<wgt id='1881'> +1.4059573e-12 </wgt>
<wgt id='1882'> +1.4937415e-12 </wgt>
<wgt id='1883'> +1.5428564e-12 </wgt>
<wgt id='1884'> +1.4800475e-12 </wgt>
<wgt id='1885'> +1.4251526e-12 </wgt>
<wgt id='1886'> +1.4760548e-12 </wgt>
<wgt id='1887'> +1.4505593e-12 </wgt>
<wgt id='1888'> +1.4981105e-12 </wgt>
<wgt id='1889'> +1.4493274e-12 </wgt>
<wgt id='1890'> +1.5428433e-12 </wgt>
<wgt id='1891'> +1.4794533e-12 </wgt>
<wgt id='1892'> +1.4975150e-12 </wgt>
<wgt id='1893'> +1.4641042e-12 </wgt>
<wgt id='1894'> +1.4512959e-12 </wgt>
<wgt id='1895'> +1.4660506e-12 </wgt>
<wgt id='1896'> +1.4640205e-12 </wgt>
<wgt id='1897'> +1.4814859e-12 </wgt>
<wgt id='1898'> +1.4545369e-12 </wgt>
<wgt id='1899'> +1.5349471e-12 </wgt>
<wgt id='1900'> +1.4964383e-12 </wgt>
<wgt id='1901'> +1.5129683e-12 </wgt>
<wgt id='1902'> +1.4862401e-12 </wgt>
<wgt id='1903'> +1.5146578e-12 </wgt>
<wgt id='1904'> +1.4700439e-12 </wgt>
<wgt id='1905'> +1.5059792e-12 </wgt>
<wgt id='1906'> +1.4835609e-12 </wgt>
<wgt id='1907'> +1.4859064e-12 </wgt>
<wgt id='1908'> +1.4480408e-12 </wgt>
<wgt id='1909'> +1.5035536e-12 </wgt>
<wgt id='1910'> +1.5095722e-12 </wgt>
<wgt id='1911'> +1.5334700e-12 </wgt>
<wgt id='1912'> +1.4434915e-12 </wgt>
<wgt id='1913'> +1.4726301e-12 </wgt>
<wgt id='1914'> +1.4543304e-12 </wgt>
<wgt id='1915'> +1.4728653e-12 </wgt>
<wgt id='1916'> +1.4911453e-12 </wgt>
<wgt id='1917'> +1.4606711e-12 </wgt>
<wgt id='1918'> +1.5196650e-12 </wgt>
<wgt id='1919'> +1.5545832e-12 </wgt>
</rwgt>
</event>
<event>
 9      1 +1.5538000e-12 2.86475000e+01 7.81860800e-03 1.46364700e-01
        2 -1    0    0  502    0 -0.0000000000e+00 +0.0000000000e+00 +5.7152169716e+02 5.7152169716e+02 0.0000000000e+00 0.0000e+00 -1.0000e+00
       21 -1    0    0  501  502 +0.0000000000e+00 -0.0000000000e+00 -5.0224102753e+00 5.0224102753e+00 0.0000000000e+00 0.0000e+00 -1.0000e+00
     1023  2    1    2    0    0 +4.1520692934e+00 -2.4051555253e+01 +5.3905885753e+02 5.3981953593e+02 1.4998749802e+01 0.0000e+00 0.0000e+00
  1000023  2    3    3    0    0 +3.4094654403e+00 -2.0801554751e+01 +4.6810674994e+02 4.6861338777e+02 5.4998838781e+00 0.0000e+00 0.0000e+00
        2  1    1    2  501    0 -4.1520692934e+00 +2.4051555253e+01 +2.7440429360e+01 3.6724571515e+01 0.0000000000e+00 0.0000e+00 -1.0000e+00
  1000022  1    4    4    0    0 +3.1097289234e+00 -1.8807470986e+01 +4.2075301551e+02 4.2121430584e+02 5.0000000000e+00 0.0000e+00 -1.0000e+00
      -11  1    4    4    0    0 +2.4891857062e-01 -1.8549128592e+00 +3.9893061597e+01 3.9936938115e+01 5.1100000000e-04 0.0000e+00 -1.0000e+00
       11  1    4    4    0    0 +5.0817946265e-02 -1.3917090564e-01 +7.4606728280e+00 7.4621438148e+00 5.1100000000e-04 0.0000e+00 1.0000e+00
  1000022  1    3    3    0    0 +7.4260385309e-01 -3.2500005021e+00 +7.0952107591e+01 7.1206148156e+01 5.0000000000e+00 0.0000e+00 -1.0000e+00
<mgrwt>
<rscale>  1 0.28647504E+02</rscale>
<asrwt>0</asrwt>
<pdfrwt beam="1">  1       21 0.77267896E-03 0.28647504E+02</pdfrwt>
<pdfrwt beam="2">  1        2 0.87926364E-01 0.28647504E+02</pdfrwt>
<totfact> 0.26456697E+06</totfact>
</mgrwt>
<rwgt>
<wgt id='1001'> +1.5538000e-12 </wgt>
<wgt id='1002'> +1.5775596e-12 </wgt>
<wgt id='1003'> +1.5787125e-12 </wgt>
<wgt id='1004'> +1.5462441e-12 </wgt>
<wgt id='1005'> +1.5725378e-12 </wgt>
<wgt id='1006'> +1.3578670e-12 </wgt>
<wgt id='1007'> +1.3972923e-12 </wgt>
<wgt id='1008'> +1.4003668e-12 </wgt>
<wgt id='1009'> +1.3476158e-12 </wgt>
<wgt id='1010'> +1.4145435e-12 </wgt>
<wgt id='1011'> +1.8191314e-12 </wgt>
<wgt id='1012'> +1.8136141e-12 </wgt>
<wgt id='1013'> +1.8114026e-12 </wgt>
<wgt id='1014'> +1.8170720e-12 </wgt>
<wgt id='1015'> +1.7717573e-12 </wgt>
<wgt id='1016'> +1.8077425e-12 </wgt>
<wgt id='1017'> +1.7781112e-12 </wgt>
<wgt id='1018'> +1.7736408e-12 </wgt>
<wgt id='1019'> +1.8114026e-12 </wgt>
<wgt id='1020'> +1.7171567e-12 </wgt>
<wgt id='1021'> +1.5797875e-12 </wgt>
<wgt id='1022'> +1.5749270e-12 </wgt>
<wgt id='1023'> +1.5732742e-12 </wgt>
<wgt id='1024'> +1.5787125e-12 </wgt>
<wgt id='1025'> +1.5446324e-12 </wgt>
<wgt id='1026'> +2.1164379e-12 </wgt>
<wgt id='1027'> +2.0441748e-12 </wgt>
<wgt id='1028'> +2.0350618e-12 </wgt>
<wgt id='1029'> +2.1286736e-12 </wgt>
<wgt id='1030'> +1.9346975e-12 </wgt>
<wgt id='1031'> +1.2547009e-12 </wgt>
<wgt id='1032'> +1.3400147e-12 </wgt>
<wgt id='1033'> +1.3476158e-12 </wgt>
<wgt id='1034'> +1.2345366e-12 </wgt>
<wgt id='1035'> +1.4015384e-12 </wgt>
<wgt id='1036'> +1.0964841e-12 </wgt>
<wgt id='1037'> +1.1868916e-12 </wgt>
<wgt id='1038'> +1.1953769e-12 </wgt>
<wgt id='1039'> +1.0759498e-12 </wgt>
<wgt id='1040'> +1.2607246e-12 </wgt>
<wgt id='1041'> +1.4689573e-12 </wgt>
<wgt id='1042'> +1.5405247e-12 </wgt>
<wgt id='1043'> +1.5462441e-12 </wgt>
<wgt id='1044'> +1.4507682e-12 </wgt>
<wgt id='1045'> +1.5790946e-12 </wgt>
<wgt id='1046'> +1.5538000e-12 </wgt>
<wgt id='1047'> +1.5503915e-12 </wgt>
<wgt id='1048'> +1.5921396e-12 </wgt>
<wgt id='1049'> +1.5081013e-12 </wgt>
<wgt id='1050'> +1.5188560e-12 </wgt>
<wgt id='1051'> +1.5259403e-12 </wgt>
<wgt id='1052'> +1.5098485e-12 </wgt>
<wgt id='1053'> +1.5992092e-12 </wgt>
<wgt id='1054'> +1.5845611e-12 </wgt>
<wgt id='1055'> +1.5547309e-12 </wgt>
<wgt id='1056'> +1.4960783e-12 </wgt>
<wgt id='1057'> +1.5384759e-12 </wgt>
<wgt id='1058'> +1.5251373e-12 </wgt>
<wgt id='1059'> +1.5674282e-12 </wgt>
<wgt id='1060'> +1.5764972e-12 </wgt>
<wgt id='1061'> +1.5711578e-12 </wgt>
<wgt id='1062'> +1.5568222e-12 </wgt>
<wgt id='1063'> +1.5343857e-12 </wgt>
<wgt id='1064'> +1.5506215e-12 </wgt>
<wgt id='1065'> +1.5869190e-12 </wgt>
<wgt id='1066'> +1.5531259e-12 </wgt>
<wgt id='1067'> +1.5565504e-12 </wgt>
<wgt id='1068'> +1.5836967e-12 </wgt>
<wgt id='1069'> +1.5961284e-12 </wgt>
<wgt id='1070'> +1.5502265e-12 </wgt>
<wgt id='1071'> +1.5728773e-12 </wgt>
<wgt id='1072'> +1.5873151e-12 </wgt>
<wgt id='1073'> +1.5331674e-12 </wgt>
<wgt id='1074'> +1.5580849e-12 </wgt>
<wgt id='1075'> +1.5466666e-12 </wgt>
<wgt id='1076'> +1.5607909e-12 </wgt>
<wgt id='1077'> +1.5631236e-12 </wgt>
<wgt id='1078'> +1.5220857e-12 </wgt>
<wgt id='1079'> +1.5476252e-12 </wgt>
<wgt id='1080'> +1.5414593e-12 </wgt>
<wgt id='1081'> +1.5024062e-12 </wgt>
<wgt id='1082'> +1.5425535e-12 </wgt>
<wgt id='1083'> +1.5517418e-12 </wgt>
<wgt id='1084'> +1.5257390e-12 </wgt>
<wgt id='1085'> +1.5629382e-12 </wgt>
<wgt id='1086'> +1.5770428e-12 </wgt>
<wgt id='1087'> +1.5443707e-12 </wgt>
<wgt id='1088'> +1.5643104e-12 </wgt>
<wgt id='1089'> +1.5332222e-12 </wgt>
<wgt id='1090'> +1.5429306e-12 </wgt>
<wgt id='1091'> +1.5563954e-12 </wgt>
<wgt id='1092'> +1.5569060e-12 </wgt>
<wgt id='1093'> +1.5651755e-12 </wgt>
<wgt id='1094'> +1.6195371e-12 </wgt>
<wgt id='1095'> +1.5818818e-12 </wgt>
<wgt id='1096'> +1.5459917e-12 </wgt>
<wgt id='1097'> +1.5355119e-12 </wgt>
<wgt id='1098'> +1.5751968e-12 </wgt>
<wgt id='1099'> +1.5411887e-12 </wgt>
<wgt id='1100'> +1.5639560e-12 </wgt>
<wgt id='1101'> +1.5846763e-12 </wgt>
<wgt id='1102'> +1.5546497e-12 </wgt>
<wgt id='1103'> +1.5967455e-12 </wgt>
<wgt id='1104'> +1.5738622e-12 </wgt>
<wgt id='1105'> +1.5259449e-12 </wgt>
<wgt id='1106'> +1.5815402e-12 </wgt>
<wgt id='1107'> +1.5639780e-12 </wgt>
<wgt id='1108'> +1.5554011e-12 </wgt>
<wgt id='1109'> +1.5312373e-12 </wgt>
<wgt id='1110'> +1.5627780e-12 </wgt>
<wgt id='1111'> +1.5546006e-12 </wgt>
<wgt id='1112'> +1.5753316e-12 </wgt>
<wgt id='1113'> +1.5791145e-12 </wgt>
<wgt id='1114'> +1.5692460e-12 </wgt>
<wgt id='1115'> +1.5774015e-12 </wgt>
<wgt id='1116'> +1.5789491e-12 </wgt>
<wgt id='1117'> +1.5410433e-12 </wgt>
<wgt id='1118'> +1.5968889e-12 </wgt>
<wgt id='1119'> +1.5302009e-12 </wgt>
<wgt id='1120'> +1.5363989e-12 </wgt>
<wgt id='1121'> +1.5345758e-12 </wgt>
<wgt id='1122'> +1.5435815e-12 </wgt>
<wgt id='1123'> +1.5627796e-12 </wgt>
<wgt id='1124'> +1.5631403e-12 </wgt>
<wgt id='1125'> +1.5358611e-12 </wgt>
<wgt id='1126'> +1.5261827e-12 </wgt>
<wgt id='1127'> +1.5615281e-12 </wgt>
<wgt id='1128'> +1.5568222e-12 </wgt>
<wgt id='1129'> +1.4994038e-12 </wgt>
<wgt id='1130'> +1.5459672e-12 </wgt>
<wgt id='1131'> +1.5585476e-12 </wgt>
<wgt id='1132'> +1.5659223e-12 </wgt>
<wgt id='1133'> +1.5287079e-12 </wgt>
<wgt id='1134'> +1.5113693e-12 </wgt>
<wgt id='1135'> +1.4820037e-12 </wgt>
<wgt id='1136'> +1.5393009e-12 </wgt>
<wgt id='1137'> +1.5563955e-12 </wgt>
<wgt id='1138'> +1.5389643e-12 </wgt>
<wgt id='1139'> +1.5437133e-12 </wgt>
<wgt id='1140'> +1.5633554e-12 </wgt>
<wgt id='1141'> +1.5620325e-12 </wgt>
<wgt id='1142'> +1.5724499e-12 </wgt>
<wgt id='1143'> +1.5329488e-12 </wgt>
<wgt id='1144'> +1.5477942e-12 </wgt>
<wgt id='1145'> +1.5950683e-12 </wgt>
<wgt id='1146'> +1.5733149e-12 </wgt>
<wgt id='1147'> +1.3844088e-12 </wgt>
<wgt id='1148'> +1.4070111e-12 </wgt>
<wgt id='1149'> +1.3434088e-12 </wgt>
<wgt id='1150'> +1.3862878e-12 </wgt>
<wgt id='1151'> +1.5415790e-12 </wgt>
<wgt id='1152'> +1.9960684e-12 </wgt>
<wgt id='1153'> +1.9967350e-12 </wgt>
<wgt id='1154'> +1.9956111e-12 </wgt>
<wgt id='1155'> +1.9906666e-12 </wgt>
<wgt id='1156'> +1.9987862e-12 </wgt>
<wgt id='1157'> +1.9990663e-12 </wgt>
<wgt id='1158'> +1.9919841e-12 </wgt>
<wgt id='1159'> +1.9986663e-12 </wgt>
<wgt id='1160'> +1.9943985e-12 </wgt>
<wgt id='1161'> +1.9927763e-12 </wgt>
<wgt id='1162'> +1.9983415e-12 </wgt>
<wgt id='1163'> +1.9962883e-12 </wgt>
<wgt id='1164'> +1.9958224e-12 </wgt>
<wgt id='1165'> +1.9988898e-12 </wgt>
<wgt id='1166'> +1.9930290e-12 </wgt>
<wgt id='1167'> +2.0158126e-12 </wgt>
<wgt id='1168'> +1.9713279e-12 </wgt>
<wgt id='1169'> +2.0023485e-12 </wgt>
<wgt id='1170'> +1.9913457e-12 </wgt>
<wgt id='1171'> +1.9893012e-12 </wgt>
<wgt id='1172'> +2.0049293e-12 </wgt>
<wgt id='1173'> +1.9746563e-12 </wgt>
<wgt id='1174'> +2.0183792e-12 </wgt>
<wgt id='1175'> +1.9978218e-12 </wgt>
<wgt id='1176'> +1.9940728e-12 </wgt>
<wgt id='1177'> +1.9906672e-12 </wgt>
<wgt id='1178'> +2.0100420e-12 </wgt>
<wgt id='1179'> +1.9970945e-12 </wgt>
<wgt id='1180'> +1.9894423e-12 </wgt>
<wgt id='1181'> +2.0005972e-12 </wgt>
<wgt id='1182'> +1.9897232e-12 </wgt>
<wgt id='1183'> +1.9890921e-12 </wgt>
<wgt id='1184'> +1.9964558e-12 </wgt>
<wgt id='1185'> +1.9924370e-12 </wgt>
<wgt id='1186'> +1.9979637e-12 </wgt>
<wgt id='1187'> +1.9989785e-12 </wgt>
<wgt id='1188'> +1.9950399e-12 </wgt>
<wgt id='1189'> +1.9906877e-12 </wgt>
<wgt id='1190'> +1.9815473e-12 </wgt>
<wgt id='1191'> +1.9993007e-12 </wgt>
<wgt id='1192'> +1.9957548e-12 </wgt>
<wgt id='1193'> +1.3841984e-12 </wgt>
<wgt id='1194'> +1.3762326e-12 </wgt>
<wgt id='1195'> +1.3907598e-12 </wgt>
<wgt id='1196'> +1.3851094e-12 </wgt>
<wgt id='1197'> +1.3831875e-12 </wgt>
<wgt id='1198'> +1.3832252e-12 </wgt>
<wgt id='1199'> +1.3856924e-12 </wgt>
<wgt id='1200'> +1.3809864e-12 </wgt>
<wgt id='1201'> +1.3864034e-12 </wgt>
<wgt id='1202'> +1.3832068e-12 </wgt>
<wgt id='1203'> +1.3855807e-12 </wgt>
<wgt id='1204'> +1.3783339e-12 </wgt>
<wgt id='1205'> +1.3876458e-12 </wgt>
<wgt id='1206'> +1.3875161e-12 </wgt>
<wgt id='1207'> +1.3797274e-12 </wgt>
<wgt id='1208'> +1.3897395e-12 </wgt>
<wgt id='1209'> +1.3822364e-12 </wgt>
<wgt id='1210'> +1.3790531e-12 </wgt>
<wgt id='1211'> +1.3828446e-12 </wgt>
<wgt id='1212'> +1.3856483e-12 </wgt>
<wgt id='1213'> +1.3828947e-12 </wgt>
<wgt id='1214'> +1.3669145e-12 </wgt>
<wgt id='1215'> +1.4115070e-12 </wgt>
<wgt id='1216'> +1.3922263e-12 </wgt>
<wgt id='1217'> +1.3793294e-12 </wgt>
<wgt id='1218'> +1.3878581e-12 </wgt>
<wgt id='1219'> +1.3821488e-12 </wgt>
<wgt id='1220'> +1.3907202e-12 </wgt>
<wgt id='1221'> +1.3824812e-12 </wgt>
<wgt id='1222'> +1.3996422e-12 </wgt>
<wgt id='1223'> +1.3613824e-12 </wgt>
<wgt id='1224'> +1.3883716e-12 </wgt>
<wgt id='1225'> +1.3825411e-12 </wgt>
<wgt id='1226'> +1.3834527e-12 </wgt>
<wgt id='1227'> +1.3849824e-12 </wgt>
<wgt id='1228'> +1.3741169e-12 </wgt>
<wgt id='1229'> +1.3886554e-12 </wgt>
<wgt id='1230'> +1.3832721e-12 </wgt>
<wgt id='1231'> +1.3888312e-12 </wgt>
<wgt id='1232'> +1.3838487e-12 </wgt>
<wgt id='1233'> +1.3842682e-12 </wgt>
<wgt id='1234'> +1.3841984e-12 </wgt>
<wgt id='1235'> +1.3771601e-12 </wgt>
<wgt id='1236'> +1.3798831e-12 </wgt>
<wgt id='1237'> +1.3822794e-12 </wgt>
<wgt id='1238'> +1.3861961e-12 </wgt>
<wgt id='1239'> +1.3877481e-12 </wgt>
<wgt id='1240'> +1.3893399e-12 </wgt>
<wgt id='1241'> +1.3470955e-12 </wgt>
<wgt id='1242'> +1.3368667e-12 </wgt>
<wgt id='1243'> +1.3571782e-12 </wgt>
<wgt id='1244'> +1.3489666e-12 </wgt>
<wgt id='1245'> +1.3456279e-12 </wgt>
<wgt id='1246'> +1.3430442e-12 </wgt>
<wgt id='1247'> +1.3505363e-12 </wgt>
<wgt id='1248'> +1.3470526e-12 </wgt>
<wgt id='1249'> +1.3471396e-12 </wgt>
<wgt id='1250'> +1.3481976e-12 </wgt>
<wgt id='1251'> +1.3462899e-12 </wgt>
<wgt id='1252'> +1.3444023e-12 </wgt>
<wgt id='1253'> +1.3491529e-12 </wgt>
<wgt id='1254'> +1.3414294e-12 </wgt>
<wgt id='1255'> +1.3504346e-12 </wgt>
<wgt id='1256'> +1.3454387e-12 </wgt>
<wgt id='1257'> +1.3511999e-12 </wgt>
<wgt id='1258'> +1.3650960e-12 </wgt>
<wgt id='1259'> +1.3299572e-12 </wgt>
<wgt id='1260'> +1.3504706e-12 </wgt>
<wgt id='1261'> +1.3434334e-12 </wgt>
<wgt id='1262'> +1.3496088e-12 </wgt>
<wgt id='1263'> +1.3464159e-12 </wgt>
<wgt id='1264'> +1.3525731e-12 </wgt>
<wgt id='1265'> +1.3445164e-12 </wgt>
<wgt id='1266'> +1.3296981e-12 </wgt>
<wgt id='1267'> +1.3630834e-12 </wgt>
<wgt id='1268'> +1.3526764e-12 </wgt>
<wgt id='1269'> +1.3429670e-12 </wgt>
<wgt id='1270'> +1.3441911e-12 </wgt>
<wgt id='1271'> +1.3461161e-12 </wgt>
<wgt id='1272'> +1.3489036e-12 </wgt>
<wgt id='1273'> +1.3465444e-12 </wgt>
<wgt id='1274'> +1.3479235e-12 </wgt>
<wgt id='1275'> +1.3454795e-12 </wgt>
<wgt id='1276'> +1.3551019e-12 </wgt>
<wgt id='1277'> +1.3370985e-12 </wgt>
<wgt id='1278'> +1.3514983e-12 </wgt>
<wgt id='1279'> +1.3525467e-12 </wgt>
<wgt id='1280'> +1.3475020e-12 </wgt>
<wgt id='1281'> +1.3480179e-12 </wgt>
<wgt id='1282'> +1.3470955e-12 </wgt>
<wgt id='1283'> +1.3400886e-12 </wgt>
<wgt id='1284'> +1.3429807e-12 </wgt>
<wgt id='1285'> +1.3452135e-12 </wgt>
<wgt id='1286'> +1.3490584e-12 </wgt>
<wgt id='1287'> +1.3504366e-12 </wgt>
<wgt id='1288'> +1.3515234e-12 </wgt>
<wgt id='1289'> +1.4114755e-12 </wgt>
<wgt id='1290'> +1.4128066e-12 </wgt>
<wgt id='1291'> +1.4100889e-12 </wgt>
<wgt id='1292'> +1.4122089e-12 </wgt>
<wgt id='1293'> +1.4109582e-12 </wgt>
<wgt id='1294'> +1.4030424e-12 </wgt>
<wgt id='1295'> +1.4196381e-12 </wgt>
<wgt id='1296'> +1.4125619e-12 </wgt>
<wgt id='1297'> +1.4100140e-12 </wgt>
<wgt id='1298'> +1.4152084e-12 </wgt>
<wgt id='1299'> +1.4067326e-12 </wgt>
<wgt id='1300'> +1.4141122e-12 </wgt>
<wgt id='1301'> +1.4062278e-12 </wgt>
<wgt id='1302'> +1.4075636e-12 </wgt>
<wgt id='1303'> +1.4168875e-12 </wgt>
<wgt id='1304'> +1.4096586e-12 </wgt>
<wgt id='1305'> +1.4126866e-12 </wgt>
<wgt id='1306'> +1.4127511e-12 </wgt>
<wgt id='1307'> +1.4098250e-12 </wgt>
<wgt id='1308'> +1.4055070e-12 </wgt>
<wgt id='1309'> +1.4160721e-12 </wgt>
<wgt id='1310'> +1.4093713e-12 </wgt>
<wgt id='1311'> +1.4138472e-12 </wgt>
<wgt id='1312'> +1.4188156e-12 </wgt>
<wgt id='1313'> +1.4042707e-12 </wgt>
<wgt id='1314'> +1.3944364e-12 </wgt>
<wgt id='1315'> +1.4254236e-12 </wgt>
<wgt id='1316'> +1.4189437e-12 </wgt>
<wgt id='1317'> +1.4109422e-12 </wgt>
<wgt id='1318'> +1.4242008e-12 </wgt>
<wgt id='1319'> +1.3961439e-12 </wgt>
<wgt id='1320'> +1.4270365e-12 </wgt>
<wgt id='1321'> +1.3983432e-12 </wgt>
<wgt id='1322'> +1.4115392e-12 </wgt>
<wgt id='1323'> +1.4119968e-12 </wgt>
<wgt id='1324'> +1.4079103e-12 </wgt>
<wgt id='1325'> +1.4199218e-12 </wgt>
<wgt id='1326'> +1.4105209e-12 </wgt>
<wgt id='1327'> +1.4143919e-12 </wgt>
<wgt id='1328'> +1.4109578e-12 </wgt>
<wgt id='1329'> +1.4115041e-12 </wgt>
<wgt id='1330'> +1.4173975e-12 </wgt>
<wgt id='1331'> +1.4074047e-12 </wgt>
<wgt id='1332'> +1.4237128e-12 </wgt>
<wgt id='1333'> +1.4105885e-12 </wgt>
<wgt id='1334'> +1.4089555e-12 </wgt>
<wgt id='1335'> +1.4186241e-12 </wgt>
<wgt id='1336'> +1.4105797e-12 </wgt>
<wgt id='1337'> +1.4173269e-12 </wgt>
<wgt id='1338'> +1.4106888e-12 </wgt>
<wgt id='1339'> +1.4125234e-12 </wgt>
<wgt id='1340'> +1.3829748e-12 </wgt>
<wgt id='1341'> +1.3841620e-12 </wgt>
<wgt id='1342'> +1.3816164e-12 </wgt>
<wgt id='1343'> +1.3837380e-12 </wgt>
<wgt id='1344'> +1.3824185e-12 </wgt>
<wgt id='1345'> +1.3742002e-12 </wgt>
<wgt id='1346'> +1.3910586e-12 </wgt>
<wgt id='1347'> +1.3845927e-12 </wgt>
<wgt id='1348'> +1.3810519e-12 </wgt>
<wgt id='1349'> +1.3861974e-12 </wgt>
<wgt id='1350'> +1.3796873e-12 </wgt>
<wgt id='1351'> +1.3852637e-12 </wgt>
<wgt id='1352'> +1.3778885e-12 </wgt>
<wgt id='1353'> +1.3780800e-12 </wgt>
<wgt id='1354'> +1.3915942e-12 </wgt>
<wgt id='1355'> +1.3819721e-12 </wgt>
<wgt id='1356'> +1.3834753e-12 </wgt>
<wgt id='1357'> +1.3831862e-12 </wgt>
<wgt id='1358'> +1.3824189e-12 </wgt>
<wgt id='1359'> +1.3768382e-12 </wgt>
<wgt id='1360'> +1.3882013e-12 </wgt>
<wgt id='1361'> +1.3817864e-12 </wgt>
<wgt id='1362'> +1.3846225e-12 </wgt>
<wgt id='1363'> +1.3959849e-12 </wgt>
<wgt id='1364'> +1.3746869e-12 </wgt>
<wgt id='1365'> +1.3895166e-12 </wgt>
<wgt id='1366'> +1.3682813e-12 </wgt>
<wgt id='1367'> +1.3903916e-12 </wgt>
<wgt id='1368'> +1.3816788e-12 </wgt>
<wgt id='1369'> +1.3935517e-12 </wgt>
<wgt id='1370'> +1.3702148e-12 </wgt>
<wgt id='1371'> +1.3957839e-12 </wgt>
<wgt id='1372'> +1.3676468e-12 </wgt>
<wgt id='1373'> +1.3803280e-12 </wgt>
<wgt id='1374'> +1.3860241e-12 </wgt>
<wgt id='1375'> +1.3795127e-12 </wgt>
<wgt id='1376'> +1.3916436e-12 </wgt>
<wgt id='1377'> +1.3818077e-12 </wgt>
<wgt id='1378'> +1.3862249e-12 </wgt>
<wgt id='1379'> +1.3825559e-12 </wgt>
<wgt id='1380'> +1.3828865e-12 </wgt>
<wgt id='1381'> +1.3892661e-12 </wgt>
<wgt id='1382'> +1.3786706e-12 </wgt>
<wgt id='1383'> +1.3937785e-12 </wgt>
<wgt id='1384'> +1.3830913e-12 </wgt>
<wgt id='1385'> +1.3807351e-12 </wgt>
<wgt id='1386'> +1.3888203e-12 </wgt>
<wgt id='1387'> +1.3812481e-12 </wgt>
<wgt id='1388'> +1.3892528e-12 </wgt>
<wgt id='1389'> +1.3814336e-12 </wgt>
<wgt id='1390'> +1.3846798e-12 </wgt>
<wgt id='1391'> +1.3639851e-12 </wgt>
<wgt id='1392'> +1.3235724e-12 </wgt>
<wgt id='1393'> +1.3375678e-12 </wgt>
<wgt id='1394'> +1.3510817e-12 </wgt>
<wgt id='1395'> +1.3779502e-12 </wgt>
<wgt id='1396'> +1.3645804e-12 </wgt>
<wgt id='1397'> +1.3485968e-12 </wgt>
<wgt id='1398'> +1.3509727e-12 </wgt>
<wgt id='1399'> +1.3534470e-12 </wgt>
<wgt id='1400'> +1.3567149e-12 </wgt>
<wgt id='1401'> +1.3606217e-12 </wgt>
<wgt id='1402'> +1.3687058e-12 </wgt>
<wgt id='1403'> +1.3733399e-12 </wgt>
<wgt id='1404'> +1.3782176e-12 </wgt>
<wgt id='1405'> +1.3645804e-12 </wgt>
<wgt id='1406'> +1.3604462e-12 </wgt>
<wgt id='1407'> +1.3625901e-12 </wgt>
<wgt id='1408'> +1.3663981e-12 </wgt>
<wgt id='1409'> +1.3678473e-12 </wgt>
<wgt id='1410'> +1.3133837e-12 </wgt>
<wgt id='1411'> +1.3158940e-12 </wgt>
<wgt id='1412'> +1.3101695e-12 </wgt>
<wgt id='1413'> +1.3108151e-12 </wgt>
<wgt id='1414'> +1.3159600e-12 </wgt>
<wgt id='1415'> +1.3131356e-12 </wgt>
<wgt id='1416'> +1.3134976e-12 </wgt>
<wgt id='1417'> +1.3085497e-12 </wgt>
<wgt id='1418'> +1.3181834e-12 </wgt>
<wgt id='1419'> +1.3142107e-12 </wgt>
<wgt id='1420'> +1.3125851e-12 </wgt>
<wgt id='1421'> +1.3029379e-12 </wgt>
<wgt id='1422'> +1.3178509e-12 </wgt>
<wgt id='1423'> +1.3120216e-12 </wgt>
<wgt id='1424'> +1.3150846e-12 </wgt>
<wgt id='1425'> +1.3061535e-12 </wgt>
<wgt id='1426'> +1.3212065e-12 </wgt>
<wgt id='1427'> +1.3005140e-12 </wgt>
<wgt id='1428'> +1.3201302e-12 </wgt>
<wgt id='1429'> +1.3173236e-12 </wgt>
<wgt id='1430'> +1.3080496e-12 </wgt>
<wgt id='1431'> +1.3144645e-12 </wgt>
<wgt id='1432'> +1.3125310e-12 </wgt>
<wgt id='1433'> +1.3035981e-12 </wgt>
<wgt id='1434'> +1.3206154e-12 </wgt>
<wgt id='1435'> +1.3065271e-12 </wgt>
<wgt id='1436'> +1.3304975e-12 </wgt>
<wgt id='1437'> +1.3197920e-12 </wgt>
<wgt id='1438'> +1.3139506e-12 </wgt>
<wgt id='1439'> +1.3066903e-12 </wgt>
<wgt id='1440'> +1.3273986e-12 </wgt>
<wgt id='1441'> +1.3168421e-12 </wgt>
<wgt id='1442'> +1.3061152e-12 </wgt>
<wgt id='1443'> +1.3097828e-12 </wgt>
<wgt id='1444'> +1.3222031e-12 </wgt>
<wgt id='1445'> +1.3262931e-12 </wgt>
<wgt id='1446'> +1.3083181e-12 </wgt>
<wgt id='1447'> +1.3142949e-12 </wgt>
<wgt id='1448'> +1.3152506e-12 </wgt>
<wgt id='1449'> +1.3135991e-12 </wgt>
<wgt id='1450'> +1.3126109e-12 </wgt>
<wgt id='1451'> +1.3124307e-12 </wgt>
<wgt id='1452'> +1.3162563e-12 </wgt>
<wgt id='1453'> +1.3138178e-12 </wgt>
<wgt id='1454'> +1.3107538e-12 </wgt>
<wgt id='1455'> +1.3199646e-12 </wgt>
<wgt id='1456'> +1.3147167e-12 </wgt>
<wgt id='1457'> +1.3176051e-12 </wgt>
<wgt id='1458'> +1.3122121e-12 </wgt>
<wgt id='1459'> +1.3176361e-12 </wgt>
<wgt id='1460'> +1.3164694e-12 </wgt>
<wgt id='1461'> +1.3133837e-12 </wgt>
<wgt id='1462'> +1.3033336e-12 </wgt>
<wgt id='1463'> +1.3208944e-12 </wgt>
<wgt id='1464'> +1.3118873e-12 </wgt>
<wgt id='1465'> +1.2930513e-12 </wgt>
<wgt id='1466'> +1.2961098e-12 </wgt>
<wgt id='1467'> +1.2996145e-12 </wgt>
<wgt id='1468'> +1.3043474e-12 </wgt>
<wgt id='1469'> +1.3077511e-12 </wgt>
<wgt id='1470'> +1.3164821e-12 </wgt>
<wgt id='1471'> +1.3204795e-12 </wgt>
<wgt id='1472'> +1.3248420e-12 </wgt>
<wgt id='1473'> +1.3118873e-12 </wgt>
<wgt id='1474'> +1.3079544e-12 </wgt>
<wgt id='1475'> +1.3102609e-12 </wgt>
<wgt id='1476'> +1.3134236e-12 </wgt>
<wgt id='1477'> +1.3147002e-12 </wgt>
<wgt id='1478'> +1.3417607e-12 </wgt>
<wgt id='1479'> +1.3412234e-12 </wgt>
<wgt id='1480'> +1.3269331e-12 </wgt>
<wgt id='1481'> +1.3492798e-12 </wgt>
<wgt id='1482'> +1.3424305e-12 </wgt>
<wgt id='1483'> +1.3258372e-12 </wgt>
<wgt id='1484'> +1.3333677e-12 </wgt>
<wgt id='1485'> +1.3473691e-12 </wgt>
<wgt id='1486'> +1.3417234e-12 </wgt>
<wgt id='1487'> +1.3512087e-12 </wgt>
<wgt id='1488'> +1.3395429e-12 </wgt>
<wgt id='1489'> +1.3460776e-12 </wgt>
<wgt id='1490'> +1.3383657e-12 </wgt>
<wgt id='1491'> +1.3470051e-12 </wgt>
<wgt id='1492'> +1.3435026e-12 </wgt>
<wgt id='1493'> +1.3231282e-12 </wgt>
<wgt id='1494'> +1.3408610e-12 </wgt>
<wgt id='1495'> +1.3284223e-12 </wgt>
<wgt id='1496'> +1.3424141e-12 </wgt>
<wgt id='1497'> +1.3428081e-12 </wgt>
<wgt id='1498'> +1.3415956e-12 </wgt>
<wgt id='1499'> +1.3444296e-12 </wgt>
<wgt id='1500'> +1.3421211e-12 </wgt>
<wgt id='1501'> +1.3424285e-12 </wgt>
<wgt id='1502'> +1.3413114e-12 </wgt>
<wgt id='1503'> +1.3458304e-12 </wgt>
<wgt id='1504'> +1.3381320e-12 </wgt>
<wgt id='1505'> +1.3445874e-12 </wgt>
<wgt id='1506'> +1.3428255e-12 </wgt>
<wgt id='1507'> +1.3416270e-12 </wgt>
<wgt id='1508'> +1.3455599e-12 </wgt>
<wgt id='1509'> +1.3398517e-12 </wgt>
<wgt id='1510'> +1.3407559e-12 </wgt>
<wgt id='1511'> +1.3351003e-12 </wgt>
<wgt id='1512'> +1.3334893e-12 </wgt>
<wgt id='1513'> +1.3383459e-12 </wgt>
<wgt id='1514'> +1.3452738e-12 </wgt>
<wgt id='1515'> +1.3450154e-12 </wgt>
<wgt id='1516'> +1.3466989e-12 </wgt>
<wgt id='1517'> +1.3459035e-12 </wgt>
<wgt id='1518'> +1.3379278e-12 </wgt>
<wgt id='1519'> +1.3381859e-12 </wgt>
<wgt id='1520'> +1.3401948e-12 </wgt>
<wgt id='1521'> +1.3406696e-12 </wgt>
<wgt id='1522'> +1.3409184e-12 </wgt>
<wgt id='1523'> +1.3430694e-12 </wgt>
<wgt id='1524'> +1.3390440e-12 </wgt>
<wgt id='1525'> +1.3402936e-12 </wgt>
<wgt id='1526'> +1.3403906e-12 </wgt>
<wgt id='1527'> +1.3402902e-12 </wgt>
<wgt id='1528'> +1.3403621e-12 </wgt>
<wgt id='1529'> +1.3404377e-12 </wgt>
<wgt id='1530'> +1.3411487e-12 </wgt>
<wgt id='1531'> +1.3405303e-12 </wgt>
<wgt id='1532'> +1.3352129e-12 </wgt>
<wgt id='1533'> +1.3408305e-12 </wgt>
<wgt id='1534'> +1.3399695e-12 </wgt>
<wgt id='1535'> +1.3345857e-12 </wgt>
<wgt id='1536'> +1.3421866e-12 </wgt>
<wgt id='1537'> +1.3419250e-12 </wgt>
<wgt id='1538'> +1.3289273e-12 </wgt>
<wgt id='1539'> +1.3411082e-12 </wgt>
<wgt id='1540'> +1.3394885e-12 </wgt>
<wgt id='1541'> +1.3379025e-12 </wgt>
<wgt id='1542'> +1.3379493e-12 </wgt>
<wgt id='1543'> +1.3405953e-12 </wgt>
<wgt id='1544'> +1.3390819e-12 </wgt>
<wgt id='1545'> +1.3377233e-12 </wgt>
<wgt id='1546'> +1.3390780e-12 </wgt>
<wgt id='1547'> +1.3385085e-12 </wgt>
<wgt id='1548'> +1.3406114e-12 </wgt>
<wgt id='1549'> +1.3384059e-12 </wgt>
<wgt id='1550'> +1.3396965e-12 </wgt>
<wgt id='1551'> +1.3406483e-12 </wgt>
<wgt id='1552'> +1.3413063e-12 </wgt>
<wgt id='1553'> +1.3397028e-12 </wgt>
<wgt id='1554'> +1.3385214e-12 </wgt>
<wgt id='1555'> +1.3422355e-12 </wgt>
<wgt id='1556'> +1.3439401e-12 </wgt>
<wgt id='1557'> +1.3397099e-12 </wgt>
<wgt id='1558'> +1.3392036e-12 </wgt>
<wgt id='1559'> +1.3372803e-12 </wgt>
<wgt id='1560'> +1.3392521e-12 </wgt>
<wgt id='1561'> +1.3393309e-12 </wgt>
<wgt id='1562'> +1.3394463e-12 </wgt>
<wgt id='1563'> +1.3396068e-12 </wgt>
<wgt id='1564'> +1.3387649e-12 </wgt>
<wgt id='1565'> +1.3404087e-12 </wgt>
<wgt id='1566'> +1.3401647e-12 </wgt>
<wgt id='1567'> +1.3404179e-12 </wgt>
<wgt id='1568'> +1.3386798e-12 </wgt>
<wgt id='1569'> +1.3426875e-12 </wgt>
<wgt id='1570'> +1.3405070e-12 </wgt>
<wgt id='1571'> +1.3407957e-12 </wgt>
<wgt id='1572'> +1.3407507e-12 </wgt>
<wgt id='1573'> +1.3400507e-12 </wgt>
<wgt id='1574'> +1.3408852e-12 </wgt>
<wgt id='1575'> +1.3386907e-12 </wgt>
<wgt id='1576'> +1.3399549e-12 </wgt>
<wgt id='1577'> +1.3405820e-12 </wgt>
<wgt id='1578'> +1.3415749e-12 </wgt>
<wgt id='1579'> +1.3388230e-12 </wgt>
<wgt id='1580'> +1.3389768e-12 </wgt>
<wgt id='1581'> +1.3402349e-12 </wgt>
<wgt id='1582'> +1.3414816e-12 </wgt>
<wgt id='1583'> +1.3390241e-12 </wgt>
<wgt id='1584'> +1.3405210e-12 </wgt>
<wgt id='1585'> +1.3404113e-12 </wgt>
<wgt id='1586'> +1.3398609e-12 </wgt>
<wgt id='1587'> +1.3394207e-12 </wgt>
<wgt id='1588'> +1.3387481e-12 </wgt>
<wgt id='1589'> +1.3410058e-12 </wgt>
<wgt id='1590'> +1.3395630e-12 </wgt>
<wgt id='1591'> +1.3400026e-12 </wgt>
<wgt id='1592'> +1.3389752e-12 </wgt>
<wgt id='1593'> +1.3412120e-12 </wgt>
<wgt id='1594'> +1.3394087e-12 </wgt>
<wgt id='1595'> +1.3400834e-12 </wgt>
<wgt id='1596'> +1.3385474e-12 </wgt>
<wgt id='1597'> +1.3407488e-12 </wgt>
<wgt id='1598'> +1.3395137e-12 </wgt>
<wgt id='1599'> +1.3400704e-12 </wgt>
<wgt id='1600'> +1.3385770e-12 </wgt>
<wgt id='1601'> +1.3400090e-12 </wgt>
<wgt id='1602'> +1.3400341e-12 </wgt>
<wgt id='1603'> +1.3408789e-12 </wgt>
<wgt id='1604'> +1.3405318e-12 </wgt>
<wgt id='1605'> +1.3403333e-12 </wgt>
<wgt id='1606'> +1.3395356e-12 </wgt>
<wgt id='1607'> +1.3394935e-12 </wgt>
<wgt id='1608'> +1.3405029e-12 </wgt>
<wgt id='1609'> +1.3403919e-12 </wgt>
<wgt id='1610'> +1.3280442e-12 </wgt>
<wgt id='1611'> +1.3534135e-12 </wgt>
<wgt id='1612'> +1.5340898e-12 </wgt>
<wgt id='1613'> +1.5098210e-12 </wgt>
<wgt id='1614'> +1.5081444e-12 </wgt>
<wgt id='1615'> +1.5357183e-12 </wgt>
<wgt id='1616'> +1.4746376e-12 </wgt>
<wgt id='1617'> +1.5424590e-12 </wgt>
<wgt id='1618'> +1.5161438e-12 </wgt>
<wgt id='1619'> +1.4999902e-12 </wgt>
<wgt id='1620'> +1.5180723e-12 </wgt>
<wgt id='1621'> +1.5439929e-12 </wgt>
<wgt id='1622'> +1.5549864e-12 </wgt>
<wgt id='1623'> +1.5085201e-12 </wgt>
<wgt id='1624'> +1.5347564e-12 </wgt>
<wgt id='1625'> +1.5411390e-12 </wgt>
<wgt id='1626'> +1.5312552e-12 </wgt>
<wgt id='1627'> +1.5378299e-12 </wgt>
<wgt id='1628'> +1.4670246e-12 </wgt>
<wgt id='1629'> +1.5675523e-12 </wgt>
<wgt id='1630'> +1.5254858e-12 </wgt>
<wgt id='1631'> +1.5373242e-12 </wgt>
<wgt id='1632'> +1.4598229e-12 </wgt>
<wgt id='1633'> +1.5037152e-12 </wgt>
<wgt id='1634'> +1.5459569e-12 </wgt>
<wgt id='1635'> +1.5588136e-12 </wgt>
<wgt id='1636'> +1.5535119e-12 </wgt>
<wgt id='1637'> +1.5560943e-12 </wgt>
<wgt id='1638'> +1.5353601e-12 </wgt>
<wgt id='1639'> +1.5196903e-12 </wgt>
<wgt id='1640'> +1.5465082e-12 </wgt>
<wgt id='1641'> +1.5236249e-12 </wgt>
<wgt id='1642'> +1.5000825e-12 </wgt>
<wgt id='1643'> +1.5215749e-12 </wgt>
<wgt id='1644'> +1.5786558e-12 </wgt>
<wgt id='1645'> +1.5267385e-12 </wgt>
<wgt id='1646'> +1.5533734e-12 </wgt>
<wgt id='1647'> +1.5438906e-12 </wgt>
<wgt id='1648'> +1.5585757e-12 </wgt>
<wgt id='1649'> +1.5539448e-12 </wgt>
<wgt id='1650'> +1.5156808e-12 </wgt>
<wgt id='1651'> +1.5067973e-12 </wgt>
<wgt id='1652'> +1.5157874e-12 </wgt>
<wgt id='1653'> +1.5343571e-12 </wgt>
<wgt id='1654'> +1.5099479e-12 </wgt>
<wgt id='1655'> +1.5350383e-12 </wgt>
<wgt id='1656'> +1.5448290e-12 </wgt>
<wgt id='1657'> +1.5112948e-12 </wgt>
<wgt id='1658'> +1.5176399e-12 </wgt>
<wgt id='1659'> +1.5347564e-12 </wgt>
<wgt id='1660'> +1.5391743e-12 </wgt>
<wgt id='1661'> +1.5692412e-12 </wgt>
<wgt id='1662'> +1.5862888e-12 </wgt>
<wgt id='1663'> +1.5512744e-12 </wgt>
<wgt id='1664'> +1.5265531e-12 </wgt>
<wgt id='1665'> +1.5138891e-12 </wgt>
<wgt id='1666'> +1.5503806e-12 </wgt>
<wgt id='1667'> +1.5249993e-12 </wgt>
<wgt id='1668'> +1.5181464e-12 </wgt>
<wgt id='1669'> +1.5534834e-12 </wgt>
<wgt id='1670'> +1.5413667e-12 </wgt>
<wgt id='1671'> +1.5322839e-12 </wgt>
<wgt id='1672'> +1.5686901e-12 </wgt>
<wgt id='1673'> +1.5165609e-12 </wgt>
<wgt id='1674'> +1.5033648e-12 </wgt>
<wgt id='1675'> +1.5409428e-12 </wgt>
<wgt id='1676'> +1.5317210e-12 </wgt>
<wgt id='1677'> +1.5817418e-12 </wgt>
<wgt id='1678'> +1.5161339e-12 </wgt>
<wgt id='1679'> +1.5326100e-12 </wgt>
<wgt id='1680'> +1.5598644e-12 </wgt>
<wgt id='1681'> +1.5599472e-12 </wgt>
<wgt id='1682'> +1.5383441e-12 </wgt>
<wgt id='1683'> +1.5208420e-12 </wgt>
<wgt id='1684'> +1.5672484e-12 </wgt>
<wgt id='1685'> +1.5233096e-12 </wgt>
<wgt id='1686'> +1.5470586e-12 </wgt>
<wgt id='1687'> +1.5499279e-12 </wgt>
<wgt id='1688'> +1.5015037e-12 </wgt>
<wgt id='1689'> +1.5714217e-12 </wgt>
<wgt id='1690'> +1.5259062e-12 </wgt>
<wgt id='1691'> +1.5256409e-12 </wgt>
<wgt id='1692'> +1.5613231e-12 </wgt>
<wgt id='1693'> +1.5466478e-12 </wgt>
<wgt id='1694'> +1.5559210e-12 </wgt>
<wgt id='1695'> +1.5751507e-12 </wgt>
<wgt id='1696'> +1.5352248e-12 </wgt>
<wgt id='1697'> +1.5116377e-12 </wgt>
<wgt id='1698'> +1.5261893e-12 </wgt>
<wgt id='1699'> +1.5244122e-12 </wgt>
<wgt id='1700'> +1.5258274e-12 </wgt>
<wgt id='1701'> +1.5723296e-12 </wgt>
<wgt id='1702'> +1.5024330e-12 </wgt>
<wgt id='1703'> +1.5302927e-12 </wgt>
<wgt id='1704'> +1.5403665e-12 </wgt>
<wgt id='1705'> +1.4789492e-12 </wgt>
<wgt id='1706'> +1.5502532e-12 </wgt>
<wgt id='1707'> +1.5151113e-12 </wgt>
<wgt id='1708'> +1.5676601e-12 </wgt>
<wgt id='1709'> +1.5605447e-12 </wgt>
<wgt id='1710'> +1.5235430e-12 </wgt>
<wgt id='1711'> +1.5245952e-12 </wgt>
<wgt id='1712'> +1.5677563e-12 </wgt>
<wgt id='1713'> +1.3101728e-12 </wgt>
<wgt id='1714'> +1.2980111e-12 </wgt>
<wgt id='1715'> +1.2938899e-12 </wgt>
<wgt id='1716'> +1.3361885e-12 </wgt>
<wgt id='1717'> +1.3161097e-12 </wgt>
<wgt id='1718'> +1.3452632e-12 </wgt>
<wgt id='1719'> +1.3278487e-12 </wgt>
<wgt id='1720'> +1.2907324e-12 </wgt>
<wgt id='1721'> +1.2804454e-12 </wgt>
<wgt id='1722'> +1.3034451e-12 </wgt>
<wgt id='1723'> +1.3405209e-12 </wgt>
<wgt id='1724'> +1.3412555e-12 </wgt>
<wgt id='1725'> +1.3123372e-12 </wgt>
<wgt id='1726'> +1.3246727e-12 </wgt>
<wgt id='1727'> +1.3353012e-12 </wgt>
<wgt id='1728'> +1.3019803e-12 </wgt>
<wgt id='1729'> +1.2737458e-12 </wgt>
<wgt id='1730'> +1.2899493e-12 </wgt>
<wgt id='1731'> +1.2479738e-12 </wgt>
<wgt id='1732'> +1.3057547e-12 </wgt>
<wgt id='1733'> +1.2590236e-12 </wgt>
<wgt id='1734'> +1.3573261e-12 </wgt>
<wgt id='1735'> +1.3116152e-12 </wgt>
<wgt id='1736'> +1.3538512e-12 </wgt>
<wgt id='1737'> +1.3357456e-12 </wgt>
<wgt id='1738'> +1.3094475e-12 </wgt>
<wgt id='1739'> +1.3034756e-12 </wgt>
<wgt id='1740'> +1.2387379e-12 </wgt>
<wgt id='1741'> +1.3300043e-12 </wgt>
<wgt id='1742'> +1.2873486e-12 </wgt>
<wgt id='1743'> +1.3019000e-12 </wgt>
<wgt id='1744'> +1.3266960e-12 </wgt>
<wgt id='1745'> +1.3259217e-12 </wgt>
<wgt id='1746'> +1.2940941e-12 </wgt>
<wgt id='1747'> +1.3576291e-12 </wgt>
<wgt id='1748'> +1.2971326e-12 </wgt>
<wgt id='1749'> +1.2962809e-12 </wgt>
<wgt id='1750'> +1.2878623e-12 </wgt>
<wgt id='1751'> +1.2851819e-12 </wgt>
<wgt id='1752'> +1.2979067e-12 </wgt>
<wgt id='1753'> +1.3232675e-12 </wgt>
<wgt id='1754'> +1.3253976e-12 </wgt>
<wgt id='1755'> +1.3233706e-12 </wgt>
<wgt id='1756'> +1.3346671e-12 </wgt>
<wgt id='1757'> +1.3242673e-12 </wgt>
<wgt id='1758'> +1.3474042e-12 </wgt>
<wgt id='1759'> +1.3285407e-12 </wgt>
<wgt id='1760'> +1.2961006e-12 </wgt>
<wgt id='1761'> +1.3058852e-12 </wgt>
<wgt id='1762'> +1.2873427e-12 </wgt>
<wgt id='1763'> +1.3242803e-12 </wgt>
<wgt id='1764'> +1.3305050e-12 </wgt>
<wgt id='1765'> +1.3066887e-12 </wgt>
<wgt id='1766'> +1.3429598e-12 </wgt>
<wgt id='1767'> +1.3244940e-12 </wgt>
<wgt id='1768'> +1.3210346e-12 </wgt>
<wgt id='1769'> +1.3124689e-12 </wgt>
<wgt id='1770'> +1.3028620e-12 </wgt>
<wgt id='1771'> +1.3445013e-12 </wgt>
<wgt id='1772'> +1.2981504e-12 </wgt>
<wgt id='1773'> +1.3082795e-12 </wgt>
<wgt id='1774'> +1.2938698e-12 </wgt>
<wgt id='1775'> +1.3060113e-12 </wgt>
<wgt id='1776'> +1.3522922e-12 </wgt>
<wgt id='1777'> +1.2498904e-12 </wgt>
<wgt id='1778'> +1.3015099e-12 </wgt>
<wgt id='1779'> +1.3151754e-12 </wgt>
<wgt id='1780'> +1.3061536e-12 </wgt>
<wgt id='1781'> +1.3259988e-12 </wgt>
<wgt id='1782'> +1.2938815e-12 </wgt>
<wgt id='1783'> +1.3131570e-12 </wgt>
<wgt id='1784'> +1.3201248e-12 </wgt>
<wgt id='1785'> +1.3196680e-12 </wgt>
<wgt id='1786'> +1.3020593e-12 </wgt>
<wgt id='1787'> +1.3695892e-12 </wgt>
<wgt id='1788'> +1.3030702e-12 </wgt>
<wgt id='1789'> +1.3752371e-12 </wgt>
<wgt id='1790'> +1.3324144e-12 </wgt>
<wgt id='1791'> +1.3187047e-12 </wgt>
<wgt id='1792'> +1.2887866e-12 </wgt>
<wgt id='1793'> +1.3016468e-12 </wgt>
<wgt id='1794'> +1.3440341e-12 </wgt>
<wgt id='1795'> +1.3219279e-12 </wgt>
<wgt id='1796'> +1.2735834e-12 </wgt>
<wgt id='1797'> +1.3118772e-12 </wgt>
<wgt id='1798'> +1.2950919e-12 </wgt>
<wgt id='1799'> +1.2986298e-12 </wgt>
<wgt id='1800'> +1.3266680e-12 </wgt>
<wgt id='1801'> +1.3125881e-12 </wgt>
<wgt id='1802'> +1.2862205e-12 </wgt>
<wgt id='1803'> +1.3179727e-12 </wgt>
<wgt id='1804'> +1.3043969e-12 </wgt>
<wgt id='1805'> +1.2848502e-12 </wgt>
<wgt id='1806'> +1.2822761e-12 </wgt>
<wgt id='1807'> +1.3186429e-12 </wgt>
<wgt id='1808'> +1.2767237e-12 </wgt>
<wgt id='1809'> +1.3011693e-12 </wgt>
<wgt id='1810'> +1.2821200e-12 </wgt>
<wgt id='1811'> +1.3247481e-12 </wgt>
<wgt id='1812'> +1.2907348e-12 </wgt>
<wgt id='1813'> +1.2459433e-12 </wgt>
<wgt id='1814'> +1.5632472e-12 </wgt>
<wgt id='1815'> +1.8540988e-12 </wgt>
<wgt id='1816'> +1.3101728e-12 </wgt>
<wgt id='1817'> +1.2980111e-12 </wgt>
<wgt id='1818'> +1.2938899e-12 </wgt>
<wgt id='1819'> +1.3361885e-12 </wgt>
<wgt id='1820'> +1.3161097e-12 </wgt>
<wgt id='1821'> +1.3452632e-12 </wgt>
<wgt id='1822'> +1.3278487e-12 </wgt>
<wgt id='1823'> +1.2907324e-12 </wgt>
<wgt id='1824'> +1.2804454e-12 </wgt>
<wgt id='1825'> +1.3034451e-12 </wgt>
<wgt id='1826'> +1.3405209e-12 </wgt>
<wgt id='1827'> +1.3412555e-12 </wgt>
<wgt id='1828'> +1.3123372e-12 </wgt>
<wgt id='1829'> +1.3246727e-12 </wgt>
<wgt id='1830'> +1.3353012e-12 </wgt>
<wgt id='1831'> +1.3019803e-12 </wgt>
<wgt id='1832'> +1.2737458e-12 </wgt>
<wgt id='1833'> +1.2899493e-12 </wgt>
<wgt id='1834'> +1.2479738e-12 </wgt>
<wgt id='1835'> +1.3057547e-12 </wgt>
<wgt id='1836'> +1.2590236e-12 </wgt>
<wgt id='1837'> +1.3573261e-12 </wgt>
<wgt id='1838'> +1.3116152e-12 </wgt>
<wgt id='1839'> +1.3538512e-12 </wgt>
<wgt id='1840'> +1.3357456e-12 </wgt>
<wgt id='1841'> +1.3094475e-12 </wgt>
<wgt id='1842'> +1.3034756e-12 </wgt>
<wgt id='1843'> +1.2387379e-12 </wgt>
<wgt id='1844'> +1.3300043e-12 </wgt>
<wgt id='1845'> +1.2873486e-12 </wgt>
<wgt id='1846'> +1.3019000e-12 </wgt>
<wgt id='1847'> +1.3266960e-12 </wgt>
<wgt id='1848'> +1.3259217e-12 </wgt>
<wgt id='1849'> +1.2940941e-12 </wgt>
<wgt id='1850'> +1.3576291e-12 </wgt>
<wgt id='1851'> +1.2971326e-12 </wgt>
<wgt id='1852'> +1.2962809e-12 </wgt>
<wgt id='1853'> +1.2878623e-12 </wgt>
<wgt id='1854'> +1.2851819e-12 </wgt>
<wgt id='1855'> +1.2979067e-12 </wgt>
<wgt id='1856'> +1.3232675e-12 </wgt>
<wgt id='1857'> +1.3253976e-12 </wgt>
<wgt id='1858'> +1.3233706e-12 </wgt>
<wgt id='1859'> +1.3346671e-12 </wgt>
<wgt id='1860'> +1.3242673e-12 </wgt>
<wgt id='1861'> +1.3474042e-12 </wgt>
<wgt id='1862'> +1.3285407e-12 </wgt>
<wgt id='1863'> +1.2961006e-12 </wgt>
<wgt id='1864'> +1.3058852e-12 </wgt>
<wgt id='1865'> +1.2873427e-12 </wgt>
<wgt id='1866'> +1.3242803e-12 </wgt>
<wgt id='1867'> +1.3305050e-12 </wgt>
<wgt id='1868'> +1.3066887e-12 </wgt>
<wgt id='1869'> +1.3429598e-12 </wgt>
<wgt id='1870'> +1.3244940e-12 </wgt>
<wgt id='1871'> +1.3210346e-12 </wgt>
<wgt id='1872'> +1.3124689e-12 </wgt>
<wgt id='1873'> +1.3028620e-12 </wgt>
<wgt id='1874'> +1.3445013e-12 </wgt>
<wgt id='1875'> +1.2981504e-12 </wgt>
<wgt id='1876'> +1.3082795e-12 </wgt>
<wgt id='1877'> +1.2938698e-12 </wgt>
<wgt id='1878'> +1.3060113e-12 </wgt>
<wgt id='1879'> +1.3522922e-12 </wgt>
<wgt id='1880'> +1.2498904e-12 </wgt>
<wgt id='1881'> +1.3015099e-12 </wgt>
<wgt id='1882'> +1.3151754e-12 </wgt>
<wgt id='1883'> +1.3061536e-12 </wgt>
<wgt id='1884'> +1.3259988e-12 </wgt>
<wgt id='1885'> +1.2938815e-12 </wgt>
<wgt id='1886'> +1.3131570e-12 </wgt>
<wgt id='1887'> +1.3201248e-12 </wgt>
<wgt id='1888'> +1.3196680e-12 </wgt>
<wgt id='1889'> +1.3020593e-12 </wgt>
<wgt id='1890'> +1.3695892e-12 </wgt>
<wgt id='1891'> +1.3030702e-12 </wgt>
<wgt id='1892'> +1.3752371e-12 </wgt>
<wgt id='1893'> +1.3324144e-12 </wgt>
<wgt id='1894'> +1.3187047e-12 </wgt>
<wgt id='1895'> +1.2887866e-12 </wgt>
<wgt id='1896'> +1.3016468e-12 </wgt>
<wgt id='1897'> +1.3440341e-12 </wgt>
<wgt id='1898'> +1.3219279e-12 </wgt>
<wgt id='1899'> +1.2735834e-12 </wgt>
<wgt id='1900'> +1.3118772e-12 </wgt>
<wgt id='1901'> +1.2950919e-12 </wgt>
<wgt id='1902'> +1.2986298e-12 </wgt>
<wgt id='1903'> +1.3266680e-12 </wgt>
<wgt id='1904'> +1.3125881e-12 </wgt>
<wgt id='1905'> +1.2862205e-12 </wgt>
<wgt id='1906'> +1.3179727e-12 </wgt>
<wgt id='1907'> +1.3043969e-12 </wgt>
<wgt id='1908'> +1.2848502e-12 </wgt>
<wgt id='1909'> +1.2822761e-12 </wgt>
<wgt id='1910'> +1.3186429e-12 </wgt>
<wgt id='1911'> +1.2767237e-12 </wgt>
<wgt id='1912'> +1.3011693e-12 </wgt>
<wgt id='1913'> +1.2821200e-12 </wgt>
<wgt id='1914'> +1.3247481e-12 </wgt>
<wgt id='1915'> +1.2907348e-12 </wgt>
<wgt id='1916'> +1.2459433e-12 </wgt>
<wgt id='1917'> +1.3010287e-12 </wgt>
<wgt id='1918'> +1.3220430e-12 </wgt>
<wgt id='1919'> +1.2989181e-12 </wgt>
</rwgt>
</event>
<event>
 9      1 +1.5538000e-12 8.59697100e+01 7.81860800e-03 1.19170600e-01
       21 -1    0    0  501  502 +0.0000000000e+00 +0.0000000000e+00 +3.6227200276e+00 3.6227200276e+00 0.0000000000e+00 0.0000e+00 -1.0000e+00
        2 -1    0    0  502    0 -0.0000000000e+00 -0.0000000000e+00 -5.1003047194e+02 5.1003047194e+02 0.0000000000e+00 0.0000e+00 -1.0000e+00
     1023  2    1    2    0    0 -3.5722156428e+01 +5.9357607853e+00 -3.8417335446e+02 3.8616768833e+02 1.5000384022e+01 0.0000e+00 0.0000e+00
  1000023  2    3    3    0    0 -3.0419777348e+01 +2.4248666638e+00 -2.9303117487e+02 2.9466720472e+02 5.4999326519e+00 0.0000e+00 0.0000e+00
        2  1    1    2  501    0 +3.5722156428e+01 -5.9357607853e+00 -1.2223439746e+02 1.2748550364e+02 0.0000000000e+00 0.0000e+00 -1.0000e+00
  1000022  1    4    4    0    0 -2.7847090415e+01 +2.3500582864e+00 -2.7112650842e+02 2.7260881642e+02 5.0000000000e+00 0.0000e+00 -1.0000e+00
      -13  1    4    4    0    0 -2.2943861636e+00 +3.4476237381e-02 -1.9071190752e+01 1.9209031357e+01 1.0570000000e-01 0.0000e+00 1.0000e+00
       13  1    4    4    0    0 -2.7830076948e-01 +4.0332140088e-02 -2.8334756898e+00 2.8493569405e+00 1.0570000000e-01 0.0000e+00 1.0000e+00
  1000022  1    3    3    0    0 -5.3023790801e+00 +3.5108941215e+00 -9.1142179594e+01 9.1500483619e+01 5.0000000000e+00 0.0000e+00 1.0000e+00
<mgrwt>
<rscale>  1 0.85969706E+02</rscale>
<asrwt>0</asrwt>
<pdfrwt beam="1">  1       21 0.55734165E-03 0.85969706E+02</pdfrwt>
<pdfrwt beam="2">  1        2 0.78466211E-01 0.85969706E+02</pdfrwt>
<totfact> 0.60514673E+06</totfact>
</mgrwt>
<rwgt>
<wgt id='1001'> +1.5538000e-12 </wgt>
<wgt id='1002'> +1.5505625e-12 </wgt>
<wgt id='1003'> +1.5512691e-12 </wgt>
<wgt id='1004'> +1.5168713e-12 </wgt>
<wgt id='1005'> +1.5538000e-12 </wgt>
<wgt id='1006'> +1.3922349e-12 </wgt>
<wgt id='1007'> +1.3850749e-12 </wgt>
<wgt id='1008'> +1.3864955e-12 </wgt>
<wgt id='1009'> +1.3352277e-12 </wgt>
<wgt id='1010'> +1.3922349e-12 </wgt>
<wgt id='1011'> +1.7594558e-12 </wgt>
<wgt id='1012'> +1.7628059e-12 </wgt>
<wgt id='1013'> +1.7623029e-12 </wgt>
<wgt id='1014'> +1.7583913e-12 </wgt>
<wgt id='1015'> +1.7594558e-12 </wgt>
<wgt id='1016'> +1.7320794e-12 </wgt>
<wgt id='1017'> +1.7401524e-12 </wgt>
<wgt id='1018'> +1.7387582e-12 </wgt>
<wgt id='1019'> +1.7623029e-12 </wgt>
<wgt id='1020'> +1.7320794e-12 </wgt>
<wgt id='1021'> +1.5519768e-12 </wgt>
<wgt id='1022'> +1.5544304e-12 </wgt>
<wgt id='1023'> +1.5540698e-12 </wgt>
<wgt id='1024'> +1.5512691e-12 </wgt>
<wgt id='1025'> +1.5519768e-12 </wgt>
<wgt id='1026'> +1.9613317e-12 </wgt>
<wgt id='1027'> +1.9783472e-12 </wgt>
<wgt id='1028'> +1.9752979e-12 </wgt>
<wgt id='1029'> +2.0429010e-12 </wgt>
<wgt id='1030'> +1.9613317e-12 </wgt>
<wgt id='1031'> +1.3481878e-12 </wgt>
<wgt id='1032'> +1.3321234e-12 </wgt>
<wgt id='1033'> +1.3352277e-12 </wgt>
<wgt id='1034'> +1.2347940e-12 </wgt>
<wgt id='1035'> +1.3481878e-12 </wgt>
<wgt id='1036'> +1.2080024e-12 </wgt>
<wgt id='1037'> +1.1899493e-12 </wgt>
<wgt id='1038'> +1.1934017e-12 </wgt>
<wgt id='1039'> +1.0869288e-12 </wgt>
<wgt id='1040'> +1.2080024e-12 </wgt>
<wgt id='1041'> +1.5266294e-12 </wgt>
<wgt id='1042'> +1.5144666e-12 </wgt>
<wgt id='1043'> +1.5168713e-12 </wgt>
<wgt id='1044'> +1.4314009e-12 </wgt>
<wgt id='1045'> +1.5266294e-12 </wgt>
<wgt id='1046'> +1.5538000e-12 </wgt>
<wgt id='1047'> +1.5529132e-12 </wgt>
<wgt id='1048'> +1.5846100e-12 </wgt>
<wgt id='1049'> +1.5130332e-12 </wgt>
<wgt id='1050'> +1.5226130e-12 </wgt>
<wgt id='1051'> +1.5347271e-12 </wgt>
<wgt id='1052'> +1.5175045e-12 </wgt>
<wgt id='1053'> +1.5975192e-12 </wgt>
<wgt id='1054'> +1.5801222e-12 </wgt>
<wgt id='1055'> +1.5521397e-12 </wgt>
<wgt id='1056'> +1.5020236e-12 </wgt>
<wgt id='1057'> +1.5409596e-12 </wgt>
<wgt id='1058'> +1.5262455e-12 </wgt>
<wgt id='1059'> +1.5639776e-12 </wgt>
<wgt id='1060'> +1.5745329e-12 </wgt>
<wgt id='1061'> +1.5722794e-12 </wgt>
<wgt id='1062'> +1.5603551e-12 </wgt>
<wgt id='1063'> +1.5370784e-12 </wgt>
<wgt id='1064'> +1.5515601e-12 </wgt>
<wgt id='1065'> +1.5859810e-12 </wgt>
<wgt id='1066'> +1.5539584e-12 </wgt>
<wgt id='1067'> +1.5584294e-12 </wgt>
<wgt id='1068'> +1.5811670e-12 </wgt>
<wgt id='1069'> +1.5912302e-12 </wgt>
<wgt id='1070'> +1.5518994e-12 </wgt>
<wgt id='1071'> +1.5699798e-12 </wgt>
<wgt id='1072'> +1.5870902e-12 </wgt>
<wgt id='1073'> +1.5319355e-12 </wgt>
<wgt id='1074'> +1.5567538e-12 </wgt>
<wgt id='1075'> +1.5529336e-12 </wgt>
<wgt id='1076'> +1.5573661e-12 </wgt>
<wgt id='1077'> +1.5602711e-12 </wgt>
<wgt id='1078'> +1.5194919e-12 </wgt>
<wgt id='1079'> +1.5482150e-12 </wgt>
<wgt id='1080'> +1.5401391e-12 </wgt>
<wgt id='1081'> +1.5152932e-12 </wgt>
<wgt id='1082'> +1.5469313e-12 </wgt>
<wgt id='1083'> +1.5536803e-12 </wgt>
<wgt id='1084'> +1.5317064e-12 </wgt>
<wgt id='1085'> +1.5609261e-12 </wgt>
<wgt id='1086'> +1.5742060e-12 </wgt>
<wgt id='1087'> +1.5482988e-12 </wgt>
<wgt id='1088'> +1.5575647e-12 </wgt>
<wgt id='1089'> +1.5340384e-12 </wgt>
<wgt id='1090'> +1.5447589e-12 </wgt>
<wgt id='1091'> +1.5593013e-12 </wgt>
<wgt id='1092'> +1.5583431e-12 </wgt>
<wgt id='1093'> +1.5605638e-12 </wgt>
<wgt id='1094'> +1.6092026e-12 </wgt>
<wgt id='1095'> +1.5793516e-12 </wgt>
<wgt id='1096'> +1.5465532e-12 </wgt>
<wgt id='1097'> +1.5404707e-12 </wgt>
<wgt id='1098'> +1.5712043e-12 </wgt>
<wgt id='1099'> +1.5430028e-12 </wgt>
<wgt id='1100'> +1.5639953e-12 </wgt>
<wgt id='1101'> +1.5845654e-12 </wgt>
<wgt id='1102'> +1.5528051e-12 </wgt>
<wgt id='1103'> +1.5840375e-12 </wgt>
<wgt id='1104'> +1.5735805e-12 </wgt>
<wgt id='1105'> +1.5350393e-12 </wgt>
<wgt id='1106'> +1.5785390e-12 </wgt>
<wgt id='1107'> +1.5612279e-12 </wgt>
<wgt id='1108'> +1.5532412e-12 </wgt>
<wgt id='1109'> +1.5399107e-12 </wgt>
<wgt id='1110'> +1.5592502e-12 </wgt>
<wgt id='1111'> +1.5585649e-12 </wgt>
<wgt id='1112'> +1.5682373e-12 </wgt>
<wgt id='1113'> +1.5763191e-12 </wgt>
<wgt id='1114'> +1.5667057e-12 </wgt>
<wgt id='1115'> +1.5764099e-12 </wgt>
<wgt id='1116'> +1.5729069e-12 </wgt>
<wgt id='1117'> +1.5445261e-12 </wgt>
<wgt id='1118'> +1.5976412e-12 </wgt>
<wgt id='1119'> +1.5253712e-12 </wgt>
<wgt id='1120'> +1.5372575e-12 </wgt>
<wgt id='1121'> +1.5339636e-12 </wgt>
<wgt id='1122'> +1.5506490e-12 </wgt>
<wgt id='1123'> +1.5577304e-12 </wgt>
<wgt id='1124'> +1.5634085e-12 </wgt>
<wgt id='1125'> +1.5372777e-12 </wgt>
<wgt id='1126'> +1.5318192e-12 </wgt>
<wgt id='1127'> +1.5546169e-12 </wgt>
<wgt id='1128'> +1.5603551e-12 </wgt>
<wgt id='1129'> +1.5033713e-12 </wgt>
<wgt id='1130'> +1.5474288e-12 </wgt>
<wgt id='1131'> +1.5586856e-12 </wgt>
<wgt id='1132'> +1.5620445e-12 </wgt>
<wgt id='1133'> +1.5323452e-12 </wgt>
<wgt id='1134'> +1.5142947e-12 </wgt>
<wgt id='1135'> +1.4888491e-12 </wgt>
<wgt id='1136'> +1.5365212e-12 </wgt>
<wgt id='1137'> +1.5612252e-12 </wgt>
<wgt id='1138'> +1.5436012e-12 </wgt>
<wgt id='1139'> +1.5463027e-12 </wgt>
<wgt id='1140'> +1.5605690e-12 </wgt>
<wgt id='1141'> +1.5549010e-12 </wgt>
<wgt id='1142'> +1.5690689e-12 </wgt>
<wgt id='1143'> +1.5290642e-12 </wgt>
<wgt id='1144'> +1.5490131e-12 </wgt>
<wgt id='1145'> +1.5838403e-12 </wgt>
<wgt id='1146'> +1.5726390e-12 </wgt>
<wgt id='1147'> +1.3920087e-12 </wgt>
<wgt id='1148'> +1.4138233e-12 </wgt>
<wgt id='1149'> +1.3574215e-12 </wgt>
<wgt id='1150'> +1.3930763e-12 </wgt>
<wgt id='1151'> +1.5083172e-12 </wgt>
<wgt id='1152'> +1.9402777e-12 </wgt>
<wgt id='1153'> +1.9409798e-12 </wgt>
<wgt id='1154'> +1.9397840e-12 </wgt>
<wgt id='1155'> +1.9352330e-12 </wgt>
<wgt id='1156'> +1.9428520e-12 </wgt>
<wgt id='1157'> +1.9431449e-12 </wgt>
<wgt id='1158'> +1.9363575e-12 </wgt>
<wgt id='1159'> +1.9427467e-12 </wgt>
<wgt id='1160'> +1.9386769e-12 </wgt>
<wgt id='1161'> +1.9373195e-12 </wgt>
<wgt id='1162'> +1.9422923e-12 </wgt>
<wgt id='1163'> +1.9405929e-12 </wgt>
<wgt id='1164'> +1.9399491e-12 </wgt>
<wgt id='1165'> +1.9438257e-12 </wgt>
<wgt id='1166'> +1.9365455e-12 </wgt>
<wgt id='1167'> +1.9564308e-12 </wgt>
<wgt id='1168'> +1.9196919e-12 </wgt>
<wgt id='1169'> +1.9454726e-12 </wgt>
<wgt id='1170'> +1.9363798e-12 </wgt>
<wgt id='1171'> +1.9339453e-12 </wgt>
<wgt id='1172'> +1.9485693e-12 </wgt>
<wgt id='1173'> +1.9217021e-12 </wgt>
<wgt id='1174'> +1.9595507e-12 </wgt>
<wgt id='1175'> +1.9409995e-12 </wgt>
<wgt id='1176'> +1.9391540e-12 </wgt>
<wgt id='1177'> +1.9352331e-12 </wgt>
<wgt id='1178'> +1.9533614e-12 </wgt>
<wgt id='1179'> +1.9425026e-12 </wgt>
<wgt id='1180'> +1.9327580e-12 </wgt>
<wgt id='1181'> +1.9440649e-12 </wgt>
<wgt id='1182'> +1.9348341e-12 </wgt>
<wgt id='1183'> +1.9336159e-12 </wgt>
<wgt id='1184'> +1.9406557e-12 </wgt>
<wgt id='1185'> +1.9375035e-12 </wgt>
<wgt id='1186'> +1.9417509e-12 </wgt>
<wgt id='1187'> +1.9430001e-12 </wgt>
<wgt id='1188'> +1.9393313e-12 </wgt>
<wgt id='1189'> +1.9361995e-12 </wgt>
<wgt id='1190'> +1.9266711e-12 </wgt>
<wgt id='1191'> +1.9418147e-12 </wgt>
<wgt id='1192'> +1.9400060e-12 </wgt>
<wgt id='1193'> +1.3940531e-12 </wgt>
<wgt id='1194'> +1.3875501e-12 </wgt>
<wgt id='1195'> +1.3993912e-12 </wgt>
<wgt id='1196'> +1.3951605e-12 </wgt>
<wgt id='1197'> +1.3928243e-12 </wgt>
<wgt id='1198'> +1.3929351e-12 </wgt>
<wgt id='1199'> +1.3957468e-12 </wgt>
<wgt id='1200'> +1.3909935e-12 </wgt>
<wgt id='1201'> +1.3961407e-12 </wgt>
<wgt id='1202'> +1.3933125e-12 </wgt>
<wgt id='1203'> +1.3951206e-12 </wgt>
<wgt id='1204'> +1.3895400e-12 </wgt>
<wgt id='1205'> +1.3967029e-12 </wgt>
<wgt id='1206'> +1.3970624e-12 </wgt>
<wgt id='1207'> +1.3899760e-12 </wgt>
<wgt id='1208'> +1.3994166e-12 </wgt>
<wgt id='1209'> +1.3921394e-12 </wgt>
<wgt id='1210'> +1.3908503e-12 </wgt>
<wgt id='1211'> +1.3915218e-12 </wgt>
<wgt id='1212'> +1.3952685e-12 </wgt>
<wgt id='1213'> +1.3929843e-12 </wgt>
<wgt id='1214'> +1.3782157e-12 </wgt>
<wgt id='1215'> +1.4192503e-12 </wgt>
<wgt id='1216'> +1.4010839e-12 </wgt>
<wgt id='1217'> +1.3898724e-12 </wgt>
<wgt id='1218'> +1.3971328e-12 </wgt>
<wgt id='1219'> +1.3923393e-12 </wgt>
<wgt id='1220'> +1.3996672e-12 </wgt>
<wgt id='1221'> +1.3926625e-12 </wgt>
<wgt id='1222'> +1.4071149e-12 </wgt>
<wgt id='1223'> +1.3745200e-12 </wgt>
<wgt id='1224'> +1.3979386e-12 </wgt>
<wgt id='1225'> +1.3924937e-12 </wgt>
<wgt id='1226'> +1.3936501e-12 </wgt>
<wgt id='1227'> +1.3945926e-12 </wgt>
<wgt id='1228'> +1.3838931e-12 </wgt>
<wgt id='1229'> +1.3986029e-12 </wgt>
<wgt id='1230'> +1.3928310e-12 </wgt>
<wgt id='1231'> +1.3975589e-12 </wgt>
<wgt id='1232'> +1.3934079e-12 </wgt>
<wgt id='1233'> +1.3942117e-12 </wgt>
<wgt id='1234'> +1.3940531e-12 </wgt>
<wgt id='1235'> +1.3871948e-12 </wgt>
<wgt id='1236'> +1.3898328e-12 </wgt>
<wgt id='1237'> +1.3921927e-12 </wgt>
<wgt id='1238'> +1.3959730e-12 </wgt>
<wgt id='1239'> +1.3975467e-12 </wgt>
<wgt id='1240'> +1.3990525e-12 </wgt>
<wgt id='1241'> +1.3537806e-12 </wgt>
<wgt id='1242'> +1.3453238e-12 </wgt>
<wgt id='1243'> +1.3621304e-12 </wgt>
<wgt id='1244'> +1.3552379e-12 </wgt>
<wgt id='1245'> +1.3526540e-12 </wgt>
<wgt id='1246'> +1.3499181e-12 </wgt>
<wgt id='1247'> +1.3570560e-12 </wgt>
<wgt id='1248'> +1.3537404e-12 </wgt>
<wgt id='1249'> +1.3537925e-12 </wgt>
<wgt id='1250'> +1.3551075e-12 </wgt>
<wgt id='1251'> +1.3528318e-12 </wgt>
<wgt id='1252'> +1.3511302e-12 </wgt>
<wgt id='1253'> +1.3558245e-12 </wgt>
<wgt id='1254'> +1.3489200e-12 </wgt>
<wgt id='1255'> +1.3566118e-12 </wgt>
<wgt id='1256'> +1.3521164e-12 </wgt>
<wgt id='1257'> +1.3578744e-12 </wgt>
<wgt id='1258'> +1.3704692e-12 </wgt>
<wgt id='1259'> +1.3380723e-12 </wgt>
<wgt id='1260'> +1.3567624e-12 </wgt>
<wgt id='1261'> +1.3505314e-12 </wgt>
<wgt id='1262'> +1.3554645e-12 </wgt>
<wgt id='1263'> +1.3534126e-12 </wgt>
<wgt id='1264'> +1.3581388e-12 </wgt>
<wgt id='1265'> +1.3517155e-12 </wgt>
<wgt id='1266'> +1.3384455e-12 </wgt>
<wgt id='1267'> +1.3678223e-12 </wgt>
<wgt id='1268'> +1.3587419e-12 </wgt>
<wgt id='1269'> +1.3501459e-12 </wgt>
<wgt id='1270'> +1.3517679e-12 </wgt>
<wgt id='1271'> +1.3525746e-12 </wgt>
<wgt id='1272'> +1.3557977e-12 </wgt>
<wgt id='1273'> +1.3531947e-12 </wgt>
<wgt id='1274'> +1.3545468e-12 </wgt>
<wgt id='1275'> +1.3523311e-12 </wgt>
<wgt id='1276'> +1.3617687e-12 </wgt>
<wgt id='1277'> +1.3438436e-12 </wgt>
<wgt id='1278'> +1.3577430e-12 </wgt>
<wgt id='1279'> +1.3575320e-12 </wgt>
<wgt id='1280'> +1.3542782e-12 </wgt>
<wgt id='1281'> +1.3535383e-12 </wgt>
<wgt id='1282'> +1.3537806e-12 </wgt>
<wgt id='1283'> +1.3469048e-12 </wgt>
<wgt id='1284'> +1.3497183e-12 </wgt>
<wgt id='1285'> +1.3519387e-12 </wgt>
<wgt id='1286'> +1.3556538e-12 </wgt>
<wgt id='1287'> +1.3570395e-12 </wgt>
<wgt id='1288'> +1.3580928e-12 </wgt>
<wgt id='1289'> +1.4402800e-12 </wgt>
<wgt id='1290'> +1.4411528e-12 </wgt>
<wgt id='1291'> +1.4393098e-12 </wgt>
<wgt id='1292'> +1.4408021e-12 </wgt>
<wgt id='1293'> +1.4398892e-12 </wgt>
<wgt id='1294'> +1.4330088e-12 </wgt>
<wgt id='1295'> +1.4472577e-12 </wgt>
<wgt id='1296'> +1.4409176e-12 </wgt>
<wgt id='1297'> +1.4394019e-12 </wgt>
<wgt id='1298'> +1.4429260e-12 </wgt>
<wgt id='1299'> +1.4368702e-12 </wgt>
<wgt id='1300'> +1.4425325e-12 </wgt>
<wgt id='1301'> +1.4357356e-12 </wgt>
<wgt id='1302'> +1.4365441e-12 </wgt>
<wgt id='1303'> +1.4454352e-12 </wgt>
<wgt id='1304'> +1.4385288e-12 </wgt>
<wgt id='1305'> +1.4414401e-12 </wgt>
<wgt id='1306'> +1.4416961e-12 </wgt>
<wgt id='1307'> +1.4384826e-12 </wgt>
<wgt id='1308'> +1.4341674e-12 </wgt>
<wgt id='1309'> +1.4449196e-12 </wgt>
<wgt id='1310'> +1.4382548e-12 </wgt>
<wgt id='1311'> +1.4425179e-12 </wgt>
<wgt id='1312'> +1.4480015e-12 </wgt>
<wgt id='1313'> +1.4326488e-12 </wgt>
<wgt id='1314'> +1.4259797e-12 </wgt>
<wgt id='1315'> +1.4518246e-12 </wgt>
<wgt id='1316'> +1.4473970e-12 </wgt>
<wgt id='1317'> +1.4394135e-12 </wgt>
<wgt id='1318'> +1.4524886e-12 </wgt>
<wgt id='1319'> +1.4256328e-12 </wgt>
<wgt id='1320'> +1.4537974e-12 </wgt>
<wgt id='1321'> +1.4288484e-12 </wgt>
<wgt id='1322'> +1.4403762e-12 </wgt>
<wgt id='1323'> +1.4407335e-12 </wgt>
<wgt id='1324'> +1.4365239e-12 </wgt>
<wgt id='1325'> +1.4489000e-12 </wgt>
<wgt id='1326'> +1.4392302e-12 </wgt>
<wgt id='1327'> +1.4430481e-12 </wgt>
<wgt id='1328'> +1.4397369e-12 </wgt>
<wgt id='1329'> +1.4403566e-12 </wgt>
<wgt id='1330'> +1.4456686e-12 </wgt>
<wgt id='1331'> +1.4368695e-12 </wgt>
<wgt id='1332'> +1.4503257e-12 </wgt>
<wgt id='1333'> +1.4397845e-12 </wgt>
<wgt id='1334'> +1.4379349e-12 </wgt>
<wgt id='1335'> +1.4469662e-12 </wgt>
<wgt id='1336'> +1.4394773e-12 </wgt>
<wgt id='1337'> +1.4446246e-12 </wgt>
<wgt id='1338'> +1.4392234e-12 </wgt>
<wgt id='1339'> +1.4413356e-12 </wgt>
<wgt id='1340'> +1.4103483e-12 </wgt>
<wgt id='1341'> +1.4111820e-12 </wgt>
<wgt id='1342'> +1.4094747e-12 </wgt>
<wgt id='1343'> +1.4109477e-12 </wgt>
<wgt id='1344'> +1.4099516e-12 </wgt>
<wgt id='1345'> +1.4028049e-12 </wgt>
<wgt id='1346'> +1.4173468e-12 </wgt>
<wgt id='1347'> +1.4115012e-12 </wgt>
<wgt id='1348'> +1.4090105e-12 </wgt>
<wgt id='1349'> +1.4126321e-12 </wgt>
<wgt id='1350'> +1.4080465e-12 </wgt>
<wgt id='1351'> +1.4123115e-12 </wgt>
<wgt id='1352'> +1.4060832e-12 </wgt>
<wgt id='1353'> +1.4057412e-12 </wgt>
<wgt id='1354'> +1.4185845e-12 </wgt>
<wgt id='1355'> +1.4093808e-12 </wgt>
<wgt id='1356'> +1.4108788e-12 </wgt>
<wgt id='1357'> +1.4106612e-12 </wgt>
<wgt id='1358'> +1.4097503e-12 </wgt>
<wgt id='1359'> +1.4040876e-12 </wgt>
<wgt id='1360'> +1.4157602e-12 </wgt>
<wgt id='1361'> +1.4092282e-12 </wgt>
<wgt id='1362'> +1.4119753e-12 </wgt>
<wgt id='1363'> +1.4234244e-12 </wgt>
<wgt id='1364'> +1.4020027e-12 </wgt>
<wgt id='1365'> +1.4152044e-12 </wgt>
<wgt id='1366'> +1.3985755e-12 </wgt>
<wgt id='1367'> +1.4174402e-12 </wgt>
<wgt id='1368'> +1.4089581e-12 </wgt>
<wgt id='1369'> +1.4205324e-12 </wgt>
<wgt id='1370'> +1.3981789e-12 </wgt>
<wgt id='1371'> +1.4215336e-12 </wgt>
<wgt id='1372'> +1.3970456e-12 </wgt>
<wgt id='1373'> +1.4081197e-12 </wgt>
<wgt id='1374'> +1.4130313e-12 </wgt>
<wgt id='1375'> +1.4068100e-12 </wgt>
<wgt id='1376'> +1.4191908e-12 </wgt>
<wgt id='1377'> +1.4090956e-12 </wgt>
<wgt id='1378'> +1.4134674e-12 </wgt>
<wgt id='1379'> +1.4099145e-12 </wgt>
<wgt id='1380'> +1.4103624e-12 </wgt>
<wgt id='1381'> +1.4161456e-12 </wgt>
<wgt id='1382'> +1.4067555e-12 </wgt>
<wgt id='1383'> +1.4193243e-12 </wgt>
<wgt id='1384'> +1.4108799e-12 </wgt>
<wgt id='1385'> +1.4082720e-12 </wgt>
<wgt id='1386'> +1.4159228e-12 </wgt>
<wgt id='1387'> +1.4088598e-12 </wgt>
<wgt id='1388'> +1.4150727e-12 </wgt>
<wgt id='1389'> +1.4086782e-12 </wgt>
<wgt id='1390'> +1.4119750e-12 </wgt>
<wgt id='1391'> +1.3777777e-12 </wgt>
<wgt id='1392'> +1.3359665e-12 </wgt>
<wgt id='1393'> +1.3503455e-12 </wgt>
<wgt id='1394'> +1.3643070e-12 </wgt>
<wgt id='1395'> +1.3919370e-12 </wgt>
<wgt id='1396'> +1.3782065e-12 </wgt>
<wgt id='1397'> +1.3644463e-12 </wgt>
<wgt id='1398'> +1.3665571e-12 </wgt>
<wgt id='1399'> +1.3686732e-12 </wgt>
<wgt id='1400'> +1.3714471e-12 </wgt>
<wgt id='1401'> +1.3748344e-12 </wgt>
<wgt id='1402'> +1.3817209e-12 </wgt>
<wgt id='1403'> +1.3856309e-12 </wgt>
<wgt id='1404'> +1.3897171e-12 </wgt>
<wgt id='1405'> +1.3782065e-12 </wgt>
<wgt id='1406'> +1.3741924e-12 </wgt>
<wgt id='1407'> +1.3762812e-12 </wgt>
<wgt id='1408'> +1.3800002e-12 </wgt>
<wgt id='1409'> +1.3814482e-12 </wgt>
<wgt id='1410'> +1.3315337e-12 </wgt>
<wgt id='1411'> +1.3333908e-12 </wgt>
<wgt id='1412'> +1.3291422e-12 </wgt>
<wgt id='1413'> +1.3292900e-12 </wgt>
<wgt id='1414'> +1.3337657e-12 </wgt>
<wgt id='1415'> +1.3312615e-12 </wgt>
<wgt id='1416'> +1.3316435e-12 </wgt>
<wgt id='1417'> +1.3270184e-12 </wgt>
<wgt id='1418'> +1.3359856e-12 </wgt>
<wgt id='1419'> +1.3319195e-12 </wgt>
<wgt id='1420'> +1.3311352e-12 </wgt>
<wgt id='1421'> +1.3231167e-12 </wgt>
<wgt id='1422'> +1.3351112e-12 </wgt>
<wgt id='1423'> +1.3302501e-12 </wgt>
<wgt id='1424'> +1.3330873e-12 </wgt>
<wgt id='1425'> +1.3249294e-12 </wgt>
<wgt id='1426'> +1.3386165e-12 </wgt>
<wgt id='1427'> +1.3206754e-12 </wgt>
<wgt id='1428'> +1.3372224e-12 </wgt>
<wgt id='1429'> +1.3358534e-12 </wgt>
<wgt id='1430'> +1.3256280e-12 </wgt>
<wgt id='1431'> +1.3316498e-12 </wgt>
<wgt id='1432'> +1.3313772e-12 </wgt>
<wgt id='1433'> +1.3240017e-12 </wgt>
<wgt id='1434'> +1.3369388e-12 </wgt>
<wgt id='1435'> +1.3251626e-12 </wgt>
<wgt id='1436'> +1.3473518e-12 </wgt>
<wgt id='1437'> +1.3376234e-12 </wgt>
<wgt id='1438'> +1.3315828e-12 </wgt>
<wgt id='1439'> +1.3251585e-12 </wgt>
<wgt id='1440'> +1.3452866e-12 </wgt>
<wgt id='1441'> +1.3342807e-12 </wgt>
<wgt id='1442'> +1.3257290e-12 </wgt>
<wgt id='1443'> +1.3280253e-12 </wgt>
<wgt id='1444'> +1.3398880e-12 </wgt>
<wgt id='1445'> +1.3441608e-12 </wgt>
<wgt id='1446'> +1.3264667e-12 </wgt>
<wgt id='1447'> +1.3322771e-12 </wgt>
<wgt id='1448'> +1.3332283e-12 </wgt>
<wgt id='1449'> +1.3316167e-12 </wgt>
<wgt id='1450'> +1.3308897e-12 </wgt>
<wgt id='1451'> +1.3302759e-12 </wgt>
<wgt id='1452'> +1.3345898e-12 </wgt>
<wgt id='1453'> +1.3320263e-12 </wgt>
<wgt id='1454'> +1.3283459e-12 </wgt>
<wgt id='1455'> +1.3366430e-12 </wgt>
<wgt id='1456'> +1.3328367e-12 </wgt>
<wgt id='1457'> +1.3356868e-12 </wgt>
<wgt id='1458'> +1.3302434e-12 </wgt>
<wgt id='1459'> +1.3344270e-12 </wgt>
<wgt id='1460'> +1.3343807e-12 </wgt>
<wgt id='1461'> +1.3315337e-12 </wgt>
<wgt id='1462'> +1.3202266e-12 </wgt>
<wgt id='1463'> +1.3398810e-12 </wgt>
<wgt id='1464'> +1.3298259e-12 </wgt>
<wgt id='1465'> +1.3133550e-12 </wgt>
<wgt id='1466'> +1.3160908e-12 </wgt>
<wgt id='1467'> +1.3192037e-12 </wgt>
<wgt id='1468'> +1.3232309e-12 </wgt>
<wgt id='1469'> +1.3262697e-12 </wgt>
<wgt id='1470'> +1.3337634e-12 </wgt>
<wgt id='1471'> +1.3371374e-12 </wgt>
<wgt id='1472'> +1.3408669e-12 </wgt>
<wgt id='1473'> +1.3298259e-12 </wgt>
<wgt id='1474'> +1.3259455e-12 </wgt>
<wgt id='1475'> +1.3281505e-12 </wgt>
<wgt id='1476'> +1.3313911e-12 </wgt>
<wgt id='1477'> +1.3326947e-12 </wgt>
<wgt id='1478'> +1.3534972e-12 </wgt>
<wgt id='1479'> +1.3527968e-12 </wgt>
<wgt id='1480'> +1.3402532e-12 </wgt>
<wgt id='1481'> +1.3592096e-12 </wgt>
<wgt id='1482'> +1.3540645e-12 </wgt>
<wgt id='1483'> +1.3388559e-12 </wgt>
<wgt id='1484'> +1.3451578e-12 </wgt>
<wgt id='1485'> +1.3581235e-12 </wgt>
<wgt id='1486'> +1.3534001e-12 </wgt>
<wgt id='1487'> +1.3618467e-12 </wgt>
<wgt id='1488'> +1.3512271e-12 </wgt>
<wgt id='1489'> +1.3584848e-12 </wgt>
<wgt id='1490'> +1.3504682e-12 </wgt>
<wgt id='1491'> +1.3578961e-12 </wgt>
<wgt id='1492'> +1.3552402e-12 </wgt>
<wgt id='1493'> +1.3379519e-12 </wgt>
<wgt id='1494'> +1.3525943e-12 </wgt>
<wgt id='1495'> +1.3400174e-12 </wgt>
<wgt id='1496'> +1.3541316e-12 </wgt>
<wgt id='1497'> +1.3548484e-12 </wgt>
<wgt id='1498'> +1.3531394e-12 </wgt>
<wgt id='1499'> +1.3561260e-12 </wgt>
<wgt id='1500'> +1.3538379e-12 </wgt>
<wgt id='1501'> +1.3540788e-12 </wgt>
<wgt id='1502'> +1.3530832e-12 </wgt>
<wgt id='1503'> +1.3567957e-12 </wgt>
<wgt id='1504'> +1.3506402e-12 </wgt>
<wgt id='1505'> +1.3558980e-12 </wgt>
<wgt id='1506'> +1.3545602e-12 </wgt>
<wgt id='1507'> +1.3530864e-12 </wgt>
<wgt id='1508'> +1.3574224e-12 </wgt>
<wgt id='1509'> +1.3634571e-12 </wgt>
<wgt id='1510'> +1.3642953e-12 </wgt>
<wgt id='1511'> +1.3594194e-12 </wgt>
<wgt id='1512'> +1.3585570e-12 </wgt>
<wgt id='1513'> +1.3620640e-12 </wgt>
<wgt id='1514'> +1.3676944e-12 </wgt>
<wgt id='1515'> +1.3676175e-12 </wgt>
<wgt id='1516'> +1.3681432e-12 </wgt>
<wgt id='1517'> +1.3679694e-12 </wgt>
<wgt id='1518'> +1.3621474e-12 </wgt>
<wgt id='1519'> +1.3623344e-12 </wgt>
<wgt id='1520'> +1.3644095e-12 </wgt>
<wgt id='1521'> +1.3645069e-12 </wgt>
<wgt id='1522'> +1.3653409e-12 </wgt>
<wgt id='1523'> +1.3665001e-12 </wgt>
<wgt id='1524'> +1.3626143e-12 </wgt>
<wgt id='1525'> +1.3637909e-12 </wgt>
<wgt id='1526'> +1.3639537e-12 </wgt>
<wgt id='1527'> +1.3636587e-12 </wgt>
<wgt id='1528'> +1.3640217e-12 </wgt>
<wgt id='1529'> +1.3637699e-12 </wgt>
<wgt id='1530'> +1.3650257e-12 </wgt>
<wgt id='1531'> +1.3645601e-12 </wgt>
<wgt id='1532'> +1.3589686e-12 </wgt>
<wgt id='1533'> +1.3643668e-12 </wgt>
<wgt id='1534'> +1.3637629e-12 </wgt>
<wgt id='1535'> +1.3580162e-12 </wgt>
<wgt id='1536'> +1.3657216e-12 </wgt>
<wgt id='1537'> +1.3654952e-12 </wgt>
<wgt id='1538'> +1.3529541e-12 </wgt>
<wgt id='1539'> +1.3651397e-12 </wgt>
<wgt id='1540'> +1.3631250e-12 </wgt>
<wgt id='1541'> +1.3613968e-12 </wgt>
<wgt id='1542'> +1.3615670e-12 </wgt>
<wgt id='1543'> +1.3642673e-12 </wgt>
<wgt id='1544'> +1.3627874e-12 </wgt>
<wgt id='1545'> +1.3614855e-12 </wgt>
<wgt id='1546'> +1.3624427e-12 </wgt>
<wgt id='1547'> +1.3621875e-12 </wgt>
<wgt id='1548'> +1.3641195e-12 </wgt>
<wgt id='1549'> +1.3619509e-12 </wgt>
<wgt id='1550'> +1.3633420e-12 </wgt>
<wgt id='1551'> +1.3643055e-12 </wgt>
<wgt id='1552'> +1.3650041e-12 </wgt>
<wgt id='1553'> +1.3631948e-12 </wgt>
<wgt id='1554'> +1.3621384e-12 </wgt>
<wgt id='1555'> +1.3659080e-12 </wgt>
<wgt id='1556'> +1.3673252e-12 </wgt>
<wgt id='1557'> +1.3631250e-12 </wgt>
<wgt id='1558'> +1.3627625e-12 </wgt>
<wgt id='1559'> +1.3607703e-12 </wgt>
<wgt id='1560'> +1.3631020e-12 </wgt>
<wgt id='1561'> +1.3628505e-12 </wgt>
<wgt id='1562'> +1.3632460e-12 </wgt>
<wgt id='1563'> +1.3632056e-12 </wgt>
<wgt id='1564'> +1.3625411e-12 </wgt>
<wgt id='1565'> +1.3640004e-12 </wgt>
<wgt id='1566'> +1.3638252e-12 </wgt>
<wgt id='1567'> +1.3641440e-12 </wgt>
<wgt id='1568'> +1.3623154e-12 </wgt>
<wgt id='1569'> +1.3660575e-12 </wgt>
<wgt id='1570'> +1.3641050e-12 </wgt>
<wgt id='1571'> +1.3641859e-12 </wgt>
<wgt id='1572'> +1.3642408e-12 </wgt>
<wgt id='1573'> +1.3636581e-12 </wgt>
<wgt id='1574'> +1.3645365e-12 </wgt>
<wgt id='1575'> +1.3623162e-12 </wgt>
<wgt id='1576'> +1.3636294e-12 </wgt>
<wgt id='1577'> +1.3641258e-12 </wgt>
<wgt id='1578'> +1.3651314e-12 </wgt>
<wgt id='1579'> +1.3624559e-12 </wgt>
<wgt id='1580'> +1.3626608e-12 </wgt>
<wgt id='1581'> +1.3637398e-12 </wgt>
<wgt id='1582'> +1.3650359e-12 </wgt>
<wgt id='1583'> +1.3626861e-12 </wgt>
<wgt id='1584'> +1.3642298e-12 </wgt>
<wgt id='1585'> +1.3640236e-12 </wgt>
<wgt id='1586'> +1.3633932e-12 </wgt>
<wgt id='1587'> +1.3630753e-12 </wgt>
<wgt id='1588'> +1.3625682e-12 </wgt>
<wgt id='1589'> +1.3644129e-12 </wgt>
<wgt id='1590'> +1.3633788e-12 </wgt>
<wgt id='1591'> +1.3636769e-12 </wgt>
<wgt id='1592'> +1.3627397e-12 </wgt>
<wgt id='1593'> +1.3646866e-12 </wgt>
<wgt id='1594'> +1.3631617e-12 </wgt>
<wgt id='1595'> +1.3637456e-12 </wgt>
<wgt id='1596'> +1.3622388e-12 </wgt>
<wgt id='1597'> +1.3644398e-12 </wgt>
<wgt id='1598'> +1.3630952e-12 </wgt>
<wgt id='1599'> +1.3633163e-12 </wgt>
<wgt id='1600'> +1.3622418e-12 </wgt>
<wgt id='1601'> +1.3634746e-12 </wgt>
<wgt id='1602'> +1.3636922e-12 </wgt>
<wgt id='1603'> +1.3642170e-12 </wgt>
<wgt id='1604'> +1.3640448e-12 </wgt>
<wgt id='1605'> +1.3638050e-12 </wgt>
<wgt id='1606'> +1.3632177e-12 </wgt>
<wgt id='1607'> +1.3629916e-12 </wgt>
<wgt id='1608'> +1.3639539e-12 </wgt>
<wgt id='1609'> +1.3639407e-12 </wgt>
<wgt id='1610'> +1.3470640e-12 </wgt>
<wgt id='1611'> +1.3798509e-12 </wgt>
<wgt id='1612'> +1.5334073e-12 </wgt>
<wgt id='1613'> +1.5117091e-12 </wgt>
<wgt id='1614'> +1.5126100e-12 </wgt>
<wgt id='1615'> +1.5293724e-12 </wgt>
<wgt id='1616'> +1.4861758e-12 </wgt>
<wgt id='1617'> +1.5413379e-12 </wgt>
<wgt id='1618'> +1.5138721e-12 </wgt>
<wgt id='1619'> +1.5108477e-12 </wgt>
<wgt id='1620'> +1.5189643e-12 </wgt>
<wgt id='1621'> +1.5398049e-12 </wgt>
<wgt id='1622'> +1.5521157e-12 </wgt>
<wgt id='1623'> +1.5111953e-12 </wgt>
<wgt id='1624'> +1.5322556e-12 </wgt>
<wgt id='1625'> +1.5342489e-12 </wgt>
<wgt id='1626'> +1.5268686e-12 </wgt>
<wgt id='1627'> +1.5351976e-12 </wgt>
<wgt id='1628'> +1.4662266e-12 </wgt>
<wgt id='1629'> +1.5661698e-12 </wgt>
<wgt id='1630'> +1.5258375e-12 </wgt>
<wgt id='1631'> +1.5344748e-12 </wgt>
<wgt id='1632'> +1.4675368e-12 </wgt>
<wgt id='1633'> +1.5038069e-12 </wgt>
<wgt id='1634'> +1.5468995e-12 </wgt>
<wgt id='1635'> +1.5609570e-12 </wgt>
<wgt id='1636'> +1.5487807e-12 </wgt>
<wgt id='1637'> +1.5517229e-12 </wgt>
<wgt id='1638'> +1.5381395e-12 </wgt>
<wgt id='1639'> +1.5215455e-12 </wgt>
<wgt id='1640'> +1.5411430e-12 </wgt>
<wgt id='1641'> +1.5248220e-12 </wgt>
<wgt id='1642'> +1.5002539e-12 </wgt>
<wgt id='1643'> +1.5210713e-12 </wgt>
<wgt id='1644'> +1.5673638e-12 </wgt>
<wgt id='1645'> +1.5266389e-12 </wgt>
<wgt id='1646'> +1.5517977e-12 </wgt>
<wgt id='1647'> +1.5424393e-12 </wgt>
<wgt id='1648'> +1.5495579e-12 </wgt>
<wgt id='1649'> +1.5447436e-12 </wgt>
<wgt id='1650'> +1.5160327e-12 </wgt>
<wgt id='1651'> +1.5093152e-12 </wgt>
<wgt id='1652'> +1.5157126e-12 </wgt>
<wgt id='1653'> +1.5374085e-12 </wgt>
<wgt id='1654'> +1.5119819e-12 </wgt>
<wgt id='1655'> +1.5322489e-12 </wgt>
<wgt id='1656'> +1.5427478e-12 </wgt>
<wgt id='1657'> +1.5127611e-12 </wgt>
<wgt id='1658'> +1.5126686e-12 </wgt>
<wgt id='1659'> +1.5322556e-12 </wgt>
<wgt id='1660'> +1.5390591e-12 </wgt>
<wgt id='1661'> +1.5642335e-12 </wgt>
<wgt id='1662'> +1.5834331e-12 </wgt>
<wgt id='1663'> +1.5540093e-12 </wgt>
<wgt id='1664'> +1.5255726e-12 </wgt>
<wgt id='1665'> +1.5106800e-12 </wgt>
<wgt id='1666'> +1.5516378e-12 </wgt>
<wgt id='1667'> +1.5245926e-12 </wgt>
<wgt id='1668'> +1.5227356e-12 </wgt>
<wgt id='1669'> +1.5471421e-12 </wgt>
<wgt id='1670'> +1.5413930e-12 </wgt>
<wgt id='1671'> +1.5309425e-12 </wgt>
<wgt id='1672'> +1.5633224e-12 </wgt>
<wgt id='1673'> +1.5194906e-12 </wgt>
<wgt id='1674'> +1.5072856e-12 </wgt>
<wgt id='1675'> +1.5432020e-12 </wgt>
<wgt id='1676'> +1.5312738e-12 </wgt>
<wgt id='1677'> +1.5782478e-12 </wgt>
<wgt id='1678'> +1.5190713e-12 </wgt>
<wgt id='1679'> +1.5363107e-12 </wgt>
<wgt id='1680'> +1.5579654e-12 </wgt>
<wgt id='1681'> +1.5632854e-12 </wgt>
<wgt id='1682'> +1.5376485e-12 </wgt>
<wgt id='1683'> +1.5212669e-12 </wgt>
<wgt id='1684'> +1.5632244e-12 </wgt>
<wgt id='1685'> +1.5233872e-12 </wgt>
<wgt id='1686'> +1.5432985e-12 </wgt>
<wgt id='1687'> +1.5514237e-12 </wgt>
<wgt id='1688'> +1.5037865e-12 </wgt>
<wgt id='1689'> +1.5688114e-12 </wgt>
<wgt id='1690'> +1.5355822e-12 </wgt>
<wgt id='1691'> +1.5272315e-12 </wgt>
<wgt id='1692'> +1.5639348e-12 </wgt>
<wgt id='1693'> +1.5456782e-12 </wgt>
<wgt id='1694'> +1.5435893e-12 </wgt>
<wgt id='1695'> +1.5634976e-12 </wgt>
<wgt id='1696'> +1.5408516e-12 </wgt>
<wgt id='1697'> +1.5147651e-12 </wgt>
<wgt id='1698'> +1.5275874e-12 </wgt>
<wgt id='1699'> +1.5246939e-12 </wgt>
<wgt id='1700'> +1.5259608e-12 </wgt>
<wgt id='1701'> +1.5688149e-12 </wgt>
<wgt id='1702'> +1.5058274e-12 </wgt>
<wgt id='1703'> +1.5297736e-12 </wgt>
<wgt id='1704'> +1.5318207e-12 </wgt>
<wgt id='1705'> +1.4835507e-12 </wgt>
<wgt id='1706'> +1.5493420e-12 </wgt>
<wgt id='1707'> +1.5161773e-12 </wgt>
<wgt id='1708'> +1.5605565e-12 </wgt>
<wgt id='1709'> +1.5561391e-12 </wgt>
<wgt id='1710'> +1.5249422e-12 </wgt>
<wgt id='1711'> +1.5277996e-12 </wgt>
<wgt id='1712'> +1.5617489e-12 </wgt>
<wgt id='1713'> +1.3242405e-12 </wgt>
<wgt id='1714'> +1.3151974e-12 </wgt>
<wgt id='1715'> +1.3112035e-12 </wgt>
<wgt id='1716'> +1.3470425e-12 </wgt>
<wgt id='1717'> +1.3308211e-12 </wgt>
<wgt id='1718'> +1.3534858e-12 </wgt>
<wgt id='1719'> +1.3381705e-12 </wgt>
<wgt id='1720'> +1.3082571e-12 </wgt>
<wgt id='1721'> +1.2952745e-12 </wgt>
<wgt id='1722'> +1.3168693e-12 </wgt>
<wgt id='1723'> +1.3498553e-12 </wgt>
<wgt id='1724'> +1.3536150e-12 </wgt>
<wgt id='1725'> +1.3268761e-12 </wgt>
<wgt id='1726'> +1.3365177e-12 </wgt>
<wgt id='1727'> +1.3444251e-12 </wgt>
<wgt id='1728'> +1.3192194e-12 </wgt>
<wgt id='1729'> +1.2923038e-12 </wgt>
<wgt id='1730'> +1.3056253e-12 </wgt>
<wgt id='1731'> +1.2657393e-12 </wgt>
<wgt id='1732'> +1.3212569e-12 </wgt>
<wgt id='1733'> +1.2757448e-12 </wgt>
<wgt id='1734'> +1.3675309e-12 </wgt>
<wgt id='1735'> +1.3231739e-12 </wgt>
<wgt id='1736'> +1.3704245e-12 </wgt>
<wgt id='1737'> +1.3452804e-12 </wgt>
<wgt id='1738'> +1.3234111e-12 </wgt>
<wgt id='1739'> +1.3180183e-12 </wgt>
<wgt id='1740'> +1.2583307e-12 </wgt>
<wgt id='1741'> +1.3424828e-12 </wgt>
<wgt id='1742'> +1.3013071e-12 </wgt>
<wgt id='1743'> +1.3152848e-12 </wgt>
<wgt id='1744'> +1.3349876e-12 </wgt>
<wgt id='1745'> +1.3395427e-12 </wgt>
<wgt id='1746'> +1.3109880e-12 </wgt>
<wgt id='1747'> +1.3667652e-12 </wgt>
<wgt id='1748'> +1.3109639e-12 </wgt>
<wgt id='1749'> +1.3124216e-12 </wgt>
<wgt id='1750'> +1.3023643e-12 </wgt>
<wgt id='1751'> +1.3037807e-12 </wgt>
<wgt id='1752'> +1.3131804e-12 </wgt>
<wgt id='1753'> +1.3366573e-12 </wgt>
<wgt id='1754'> +1.3412830e-12 </wgt>
<wgt id='1755'> +1.3382952e-12 </wgt>
<wgt id='1756'> +1.3461043e-12 </wgt>
<wgt id='1757'> +1.3348940e-12 </wgt>
<wgt id='1758'> +1.3588076e-12 </wgt>
<wgt id='1759'> +1.3404601e-12 </wgt>
<wgt id='1760'> +1.3101501e-12 </wgt>
<wgt id='1761'> +1.3190697e-12 </wgt>
<wgt id='1762'> +1.3030167e-12 </wgt>
<wgt id='1763'> +1.3374729e-12 </wgt>
<wgt id='1764'> +1.3419443e-12 </wgt>
<wgt id='1765'> +1.3188373e-12 </wgt>
<wgt id='1766'> +1.3572653e-12 </wgt>
<wgt id='1767'> +1.3382634e-12 </wgt>
<wgt id='1768'> +1.3339628e-12 </wgt>
<wgt id='1769'> +1.3242237e-12 </wgt>
<wgt id='1770'> +1.3204446e-12 </wgt>
<wgt id='1771'> +1.3546036e-12 </wgt>
<wgt id='1772'> +1.3144956e-12 </wgt>
<wgt id='1773'> +1.3218074e-12 </wgt>
<wgt id='1774'> +1.3089144e-12 </wgt>
<wgt id='1775'> +1.3195866e-12 </wgt>
<wgt id='1776'> +1.3647950e-12 </wgt>
<wgt id='1777'> +1.2674007e-12 </wgt>
<wgt id='1778'> +1.3158278e-12 </wgt>
<wgt id='1779'> +1.3253476e-12 </wgt>
<wgt id='1780'> +1.3301174e-12 </wgt>
<wgt id='1781'> +1.3358744e-12 </wgt>
<wgt id='1782'> +1.3081384e-12 </wgt>
<wgt id='1783'> +1.3236695e-12 </wgt>
<wgt id='1784'> +1.3366032e-12 </wgt>
<wgt id='1785'> +1.3330537e-12 </wgt>
<wgt id='1786'> +1.3223810e-12 </wgt>
<wgt id='1787'> +1.3781318e-12 </wgt>
<wgt id='1788'> +1.3191513e-12 </wgt>
<wgt id='1789'> +1.3811952e-12 </wgt>
<wgt id='1790'> +1.3445350e-12 </wgt>
<wgt id='1791'> +1.3346328e-12 </wgt>
<wgt id='1792'> +1.3064155e-12 </wgt>
<wgt id='1793'> +1.3159797e-12 </wgt>
<wgt id='1794'> +1.3556159e-12 </wgt>
<wgt id='1795'> +1.3349726e-12 </wgt>
<wgt id='1796'> +1.2904334e-12 </wgt>
<wgt id='1797'> +1.3262930e-12 </wgt>
<wgt id='1798'> +1.3079534e-12 </wgt>
<wgt id='1799'> +1.3138480e-12 </wgt>
<wgt id='1800'> +1.3376159e-12 </wgt>
<wgt id='1801'> +1.3280012e-12 </wgt>
<wgt id='1802'> +1.3046646e-12 </wgt>
<wgt id='1803'> +1.3317843e-12 </wgt>
<wgt id='1804'> +1.3147775e-12 </wgt>
<wgt id='1805'> +1.3031671e-12 </wgt>
<wgt id='1806'> +1.2981341e-12 </wgt>
<wgt id='1807'> +1.3337866e-12 </wgt>
<wgt id='1808'> +1.2884193e-12 </wgt>
<wgt id='1809'> +1.3178382e-12 </wgt>
<wgt id='1810'> +1.3010771e-12 </wgt>
<wgt id='1811'> +1.3393984e-12 </wgt>
<wgt id='1812'> +1.3081498e-12 </wgt>
<wgt id='1813'> +1.2626343e-12 </wgt>
<wgt id='1814'> +1.5530395e-12 </wgt>
<wgt id='1815'> +1.8258949e-12 </wgt>
<wgt id='1816'> +1.3242405e-12 </wgt>
<wgt id='1817'> +1.3151974e-12 </wgt>
<wgt id='1818'> +1.3112035e-12 </wgt>
<wgt id='1819'> +1.3470425e-12 </wgt>
<wgt id='1820'> +1.3308211e-12 </wgt>
<wgt id='1821'> +1.3534858e-12 </wgt>
<wgt id='1822'> +1.3381705e-12 </wgt>
<wgt id='1823'> +1.3082571e-12 </wgt>
<wgt id='1824'> +1.2952745e-12 </wgt>
<wgt id='1825'> +1.3168693e-12 </wgt>
<wgt id='1826'> +1.3498553e-12 </wgt>
<wgt id='1827'> +1.3536150e-12 </wgt>
<wgt id='1828'> +1.3268761e-12 </wgt>
<wgt id='1829'> +1.3365177e-12 </wgt>
<wgt id='1830'> +1.3444251e-12 </wgt>
<wgt id='1831'> +1.3192194e-12 </wgt>
<wgt id='1832'> +1.2923038e-12 </wgt>
<wgt id='1833'> +1.3056253e-12 </wgt>
<wgt id='1834'> +1.2657393e-12 </wgt>
<wgt id='1835'> +1.3212569e-12 </wgt>
<wgt id='1836'> +1.2757448e-12 </wgt>
<wgt id='1837'> +1.3675309e-12 </wgt>
<wgt id='1838'> +1.3231739e-12 </wgt>
<wgt id='1839'> +1.3704245e-12 </wgt>
<wgt id='1840'> +1.3452804e-12 </wgt>
<wgt id='1841'> +1.3234111e-12 </wgt>
<wgt id='1842'> +1.3180183e-12 </wgt>
<wgt id='1843'> +1.2583307e-12 </wgt>
<wgt id='1844'> +1.3424828e-12 </wgt>
<wgt id='1845'> +1.3013071e-12 </wgt>
<wgt id='1846'> +1.3152848e-12 </wgt>
<wgt id='1847'> +1.3349876e-12 </wgt>
<wgt id='1848'> +1.3395427e-12 </wgt>
<wgt id='1849'> +1.3109880e-12 </wgt>
<wgt id='1850'> +1.3667652e-12 </wgt>
<wgt id='1851'> +1.3109639e-12 </wgt>
<wgt id='1852'> +1.3124216e-12 </wgt>
<wgt id='1853'> +1.3023643e-12 </wgt>
<wgt id='1854'> +1.3037807e-12 </wgt>
<wgt id='1855'> +1.3131804e-12 </wgt>
<wgt id='1856'> +1.3366573e-12 </wgt>
<wgt id='1857'> +1.3412830e-12 </wgt>
<wgt id='1858'> +1.3382952e-12 </wgt>
<wgt id='1859'> +1.3461043e-12 </wgt>
<wgt id='1860'> +1.3348940e-12 </wgt>
<wgt id='1861'> +1.3588076e-12 </wgt>
<wgt id='1862'> +1.3404601e-12 </wgt>
<wgt id='1863'> +1.3101501e-12 </wgt>
<wgt id='1864'> +1.3190697e-12 </wgt>
<wgt id='1865'> +1.3030167e-12 </wgt>
<wgt id='1866'> +1.3374729e-12 </wgt>
<wgt id='1867'> +1.3419443e-12 </wgt>
<wgt id='1868'> +1.3188373e-12 </wgt>
<wgt id='1869'> +1.3572653e-12 </wgt>
<wgt id='1870'> +1.3382634e-12 </wgt>
<wgt id='1871'> +1.3339628e-12 </wgt>
<wgt id='1872'> +1.3242237e-12 </wgt>
<wgt id='1873'> +1.3204446e-12 </wgt>
<wgt id='1874'> +1.3546036e-12 </wgt>
<wgt id='1875'> +1.3144956e-12 </wgt>
<wgt id='1876'> +1.3218074e-12 </wgt>
<wgt id='1877'> +1.3089144e-12 </wgt>
<wgt id='1878'> +1.3195866e-12 </wgt>
<wgt id='1879'> +1.3647950e-12 </wgt>
<wgt id='1880'> +1.2674007e-12 </wgt>
<wgt id='1881'> +1.3158278e-12 </wgt>
<wgt id='1882'> +1.3253476e-12 </wgt>
<wgt id='1883'> +1.3301174e-12 </wgt>
<wgt id='1884'> +1.3358744e-12 </wgt>
<wgt id='1885'> +1.3081384e-12 </wgt>
<wgt id='1886'> +1.3236695e-12 </wgt>
<wgt id='1887'> +1.3366032e-12 </wgt>
<wgt id='1888'> +1.3330537e-12 </wgt>
<wgt id='1889'> +1.3223810e-12 </wgt>
<wgt id='1890'> +1.3781318e-12 </wgt>
<wgt id='1891'> +1.3191513e-12 </wgt>
<wgt id='1892'> +1.3811952e-12 </wgt>
<wgt id='1893'> +1.3445350e-12 </wgt>
<wgt id='1894'> +1.3346328e-12 </wgt>
<wgt id='1895'> +1.3064155e-12 </wgt>
<wgt id='1896'> +1.3159797e-12 </wgt>
<wgt id='1897'> +1.3556159e-12 </wgt>
<wgt id='1898'> +1.3349726e-12 </wgt>
<wgt id='1899'> +1.2904334e-12 </wgt>
<wgt id='1900'> +1.3262930e-12 </wgt>
<wgt id='1901'> +1.3079534e-12 </wgt>
<wgt id='1902'> +1.3138480e-12 </wgt>
<wgt id='1903'> +1.3376159e-12 </wgt>
<wgt id='1904'> +1.3280012e-12 </wgt>
<wgt id='1905'> +1.3046646e-12 </wgt>
<wgt id='1906'> +1.3317843e-12 </wgt>
<wgt id='1907'> +1.3147775e-12 </wgt>
<wgt id='1908'> +1.3031671e-12 </wgt>
<wgt id='1909'> +1.2981341e-12 </wgt>
<wgt id='1910'> +1.3337866e-12 </wgt>
<wgt id='1911'> +1.2884193e-12 </wgt>
<wgt id='1912'> +1.3178382e-12 </wgt>
<wgt id='1913'> +1.3010771e-12 </wgt>
<wgt id='1914'> +1.3393984e-12 </wgt>
<wgt id='1915'> +1.3081498e-12 </wgt>
<wgt id='1916'> +1.2626343e-12 </wgt>
<wgt id='1917'> +1.3139345e-12 </wgt>
<wgt id='1918'> +1.3358734e-12 </wgt>
<wgt id='1919'> +1.3145518e-12 </wgt>
</rwgt>
</event>
</LesHouchesEvents>
