<LesHouchesEvents version="3.0">
<header>
<!--
#*********************************************************************
#                                                                    *
#                        MadGraph5_aMC@NLO                           *
#                                                                    *
#                           Going Beyond                             *
#                                                                    *
#                   http://madgraph.hep.uiuc.edu                     *
#                   http://madgraph.phys.ucl.ac.be                   *
#                   http://amcatnlo.cern.ch                          *
#                                                                    *
#                     The MadGraph5_aMC@NLO team                     *
#                                                                    *
#....................................................................*
#                                                                    *
# This file contains all the information necessary to reproduce      *
# the events generated:                                              *
#                                                                    *
# 1. software version                                                *
# 2. proc_card          : code generation info including model       *
# 3. param_card         : model primary parameters in the LH format  *
# 4. run_card           : running parameters (collider and cuts)     *
# 5. pythia_card        : present only if pythia has been run        *
# 6. pgs_card           : present only if pgs has been run           *
# 7. delphes_cards      : present only if delphes has been run       *
#                                                                    *
#                                                                    *
#*********************************************************************
-->
<MGVersion>
#2.6.0
</MGVersion>
<MG5ProcCard>
<![CDATA[
#************************************************************
#*                     MadGraph5_aMC@NLO                    *
#*                                                          *
#*                *                       *                 *
#*                  *        * *        *                   *
#*                    * * * * 5 * * * *                     *
#*                  *        * *        *                   *
#*                *                       *                 *
#*                                                          *
#*                                                          *
#*         VERSION 2.6.0                 2017-08-16         *
#*                                                          *
#*    The MadGraph5_aMC@NLO Development Team - Find us at   *
#*    https://server06.fynu.ucl.ac.be/projects/madgraph     *
#*                                                          *
#************************************************************
#*                                                          *
#*               Command File for MadGraph5_aMC@NLO         *
#*                                                          *
#*     run as ./bin/mg5_aMC  filename                       *
#*                                                          *
#************************************************************
set group_subprocesses Auto
set ignore_six_quark_processes False
set loop_optimized_output True
set loop_color_flows False
set gauge unitary
set complex_mass_scheme False
set max_npoint_for_channel 0
import model sm
define p = g u c d s u~ c~ d~ s~
define j = g u c d s u~ c~ d~ s~
define l+ = e+ mu+
define l- = e- mu-
define vl = ve vm vt
define vl~ = ve~ vm~ vt~
import model HAHM_darkphoton_iDM_UFO -modelname
generate p p > j Zp, (Zp > chi2 chi1, chi2 > chi1 l+ l-)
output iDM_Mchi-5p25_dMchi-0p5_mZDinput-15p0_ctau-0 iDM_darkphoton_tes\
t
]]>
</MG5ProcCard>
<MGProcCard>
#*********************************************************************
#                        MadGraph/MadEvent                           *
#                   http://madgraph.hep.uiuc.edu                     *
#                                                                    *
#                          proc_card.dat                             *
#*********************************************************************
#                                                                    *
#            This Files is generated by MADGRAPH 5                   *
#                                                                    *
# WARNING: This Files is generated for MADEVENT (compatibility issue)*
#          This files is NOT a valid MG4 proc_card.dat               *
#          Running this in MG4 will NEVER reproduce the result of MG5*
#                                                                    *
#*********************************************************************
#*********************************************************************
# Process(es) requested : mg2 input                                  *
#*********************************************************************
# Begin PROCESS # This is TAG. Do not modify this line
p p > j Zp , (Zp > chi2 chi1 , chi2 > chi1 l+ l-)           #Process
# Be carefull the coupling are here in MG5 convention
          
end_coup           # End the couplings input

done               # this tells MG there are no more procs
# End PROCESS  # This is TAG. Do not modify this line
#*********************************************************************
# Model information                                                  *
#*********************************************************************
# Begin MODEL  # This is TAG. Do not modify this line
HAHM_darkphoton_iDM_UFO
# End   MODEL  # This is TAG. Do not modify this line
#*********************************************************************
# Start multiparticle definitions                                    *
#*********************************************************************
# Begin MULTIPARTICLES # This is TAG. Do not modify this line

# End  MULTIPARTICLES # This is TAG. Do not modify this line
</MGProcCard>
<MGRunCard>
<![CDATA[
#*********************************************************************
#                       MadGraph5_aMC@NLO                            *
#                                                                    *
#                     run_card.dat MadEvent                          *
#                                                                    *
#  This file is used to set the parameters of the run.               *
#                                                                    *
#  Some notation/conventions:                                        *
#                                                                    *
#   Lines starting with a '# ' are info or comments                  *
#                                                                    *
#   mind the format:   value    = variable     ! comment             *
#*********************************************************************
#
#*******************                                                 
# Running parameters
#*******************                                                 
#                                                                    
#*********************************************************************
# Tag name for the run (one word)                                    *
#*********************************************************************
  tag_1	= run_tag ! name of the run 
#*********************************************************************
# Number of events and rnd seed                                      *
# Warning: Do not generate more than 1M events in a single run       *
# If you want to run Pythia, avoid more than 50k events in a run.    *
#*********************************************************************
  10000	= nevents ! Number of unweighted events requested 
 3425420 = iseed ! rnd seed (0=assigned automatically=default))
#*********************************************************************
# Collider type and energy                                           *
# lpp: 0=No PDF, 1=proton, -1=antiproton, 2=photon from proton,      *
#                                         3=photon from electron     *
#*********************************************************************
  1	= lpp1 ! beam 1 type 
  1	= lpp2 ! beam 2 type
  6500.0	= ebeam1 ! beam 1 total energy in GeV
  6500.0	= ebeam2 ! beam 2 total energy in GeV
#*********************************************************************
# Beam polarization from -100 (left-handed) to 100 (right-handed)    *
#*********************************************************************
  0.0	= polbeam1 ! beam polarization for beam 1
  0.0	= polbeam2 ! beam polarization for beam 2
#*********************************************************************
# PDF CHOICE: this automatically fixes also alpha_s and its evol.    *
#*********************************************************************
  lhapdf	= pdlabel ! PDF set                                     
  320900	= lhaid ! if pdlabel=lhapdf, this is the lhapdf number
#*********************************************************************
# Renormalization and factorization scales                           *
#*********************************************************************
  False	= fixed_ren_scale ! if .true. use fixed ren scale
  False	= fixed_fac_scale ! if .true. use fixed fac scale
  91.188	= scale ! fixed ren scale
  91.188	= dsqrt_q2fact1 ! fixed fact scale for pdf1
  91.188	= dsqrt_q2fact2 ! fixed fact scale for pdf2
  -1	= dynamical_scale_choice ! Choose one of the preselected dynamical choices
  1.0	= scalefact ! scale factor for event-by-event scales
#*********************************************************************
# Type and output format
#*********************************************************************
  True	= gridpack !True = setting up the grid pack
  0.0001	= time_of_flight ! threshold (in mm) below which the invariant livetime is not written (-1 means not written)
  3.0	= lhe_version ! Change the way clustering information pass to shower.        
  True	= clusinfo ! include clustering tag in output
  average	= event_norm ! average/sum. Normalization of the weight in the LHEF

#*********************************************************************
# Matching parameter (MLM only)
#*********************************************************************
  0	= ickkw ! 0 no matching, 1 MLM
  1.0	= alpsfact ! scale factor for QCD emission vx
  False	= chcluster ! cluster only according to channel diag
  4	= asrwgtflavor ! highest quark flavor for a_s reweight
  False	= auto_ptj_mjj ! Automatic setting of ptj and mjj if xqcut >0
                                   ! (turn off for VBF and single top processes) 
  0.0	= xqcut ! minimum kt jet measure between partons
#*********************************************************************
#
#*********************************************************************
# handling of the helicities:
#  0: sum over all helicities
#  1: importance sampling over helicities
#*********************************************************************
  0	= nhel ! using helicities importance sampling or not.
#*********************************************************************
# Generation bias, check the wiki page below for more information:   *
#  'cp3.irmp.ucl.ac.be/projects/madgraph/wiki/LOEventGenerationBias' *
#*********************************************************************
  None	= bias_module ! Bias type of bias, [None, ptj_bias, -custom_folder-]
  {}	= bias_parameters ! Specifies the parameters of the module.
#
#*******************************                                                 
# Parton level cuts definition *
#*******************************                                     
#                                                                    
#
#*********************************************************************
# BW cutoff (M+/-bwcutoff*Gamma) ! Define on/off-shell for "$" and decay  
#*********************************************************************
  15.0	= bwcutoff ! (M+/-bwcutoff*Gamma)
#*********************************************************************
# Apply pt/E/eta/dr/mij/kt_durham cuts on decay products or not
# (note that etmiss/ptll/ptheavy/ht/sorted cuts always apply)
#*********************************************************************
  False	= cut_decays ! Cut decay products 
#*********************************************************************
# Standard Cuts                                                      *
#*********************************************************************
# Minimum and maximum pt's (for max, -1 means no cut)                *
#*********************************************************************
  20.0	= ptj ! minimum pt for the jets 
  0.0	= ptb ! minimum pt for the b 
  10.0	= pta ! minimum pt for the photons 
  10.0	= ptl ! minimum pt for the charged leptons 
  0.0	= misset ! minimum missing Et (sum of neutrino's momenta)
  -1.0	= ptjmax ! maximum pt for the jets
  -1.0	= ptbmax ! maximum pt for the b
  -1.0	= ptamax ! maximum pt for the photons
  -1.0	= ptlmax ! maximum pt for the charged leptons
  -1.0	= missetmax ! maximum missing Et (sum of neutrino's momenta)
#*********************************************************************
# Minimum and maximum E's (in the center of mass frame)              *
#*********************************************************************
  0.0	= ej ! minimum E for the jets 
  0.0	= eb ! minimum E for the b 
  0.0	= ea ! minimum E for the photons 
  0.0	= el ! minimum E for the charged leptons 
  -1.0	= ejmax ! maximum E for the jets
  -1.0	= ebmax ! maximum E for the b
  -1.0	= eamax ! maximum E for the photons
  -1.0	= elmax ! maximum E for the charged leptons
#*********************************************************************
# Maximum and minimum absolute rapidity (for max, -1 means no cut)   *
#*********************************************************************
  5.0	= etaj ! max rap for the jets 
  -1.0	= etab ! max rap for the b
  2.5	= etaa ! max rap for the photons 
  2.5	= etal ! max rap for the charged leptons 
  0.0	= etajmin ! min rap for the jets
  0.0	= etabmin ! min rap for the b
  0.0	= etaamin ! min rap for the photons
  0.0	= etalmin ! main rap for the charged leptons
#*********************************************************************
# Minimum and maximum DeltaR distance                                *
#*********************************************************************
  0.4	= drjj ! min distance between jets 
  0.0	= drbb ! min distance between b's 
  0.4	= drll ! min distance between leptons 
  0.4	= draa ! min distance between gammas 
  0.0	= drbj ! min distance between b and jet 
  0.4	= draj ! min distance between gamma and jet 
  0.4	= drjl ! min distance between jet and lepton 
  0.0	= drab ! min distance between gamma and b 
  0.0	= drbl ! min distance between b and lepton 
  0.4	= dral ! min distance between gamma and lepton 
  -1.0	= drjjmax ! max distance between jets
  -1.0	= drbbmax ! max distance between b's
  -1.0	= drllmax ! max distance between leptons
  -1.0	= draamax ! max distance between gammas
  -1.0	= drbjmax ! max distance between b and jet
  -1.0	= drajmax ! max distance between gamma and jet
  -1.0	= drjlmax ! max distance between jet and lepton
  -1.0	= drabmax ! max distance between gamma and b
  -1.0	= drblmax ! max distance between b and lepton
  -1.0	= dralmax ! maxdistance between gamma and lepton
#*********************************************************************
# Minimum and maximum invariant mass for pairs                       *
# WARNING: for four lepton final state mmll cut require to have      *
#          different lepton masses for each flavor!                  *           
#*********************************************************************
  0.0	= mmjj ! min invariant mass of a jet pair 
  0.0	= mmbb ! min invariant mass of a b pair 
  0.0	= mmaa ! min invariant mass of gamma gamma pair
  0.0	= mmll ! min invariant mass of l+l- (same flavour) lepton pair
  -1.0	= mmjjmax ! max invariant mass of a jet pair
  -1.0	= mmbbmax ! max invariant mass of a b pair
  -1.0	= mmaamax ! max invariant mass of gamma gamma pair
  -1.0	= mmllmax ! max invariant mass of l+l- (same flavour) lepton pair
#*********************************************************************
# Minimum and maximum invariant mass for all letpons                 *
#*********************************************************************
  0.0	= mmnl ! min invariant mass for all letpons (l+- and vl) 
  -1.0	= mmnlmax ! max invariant mass for all letpons (l+- and vl) 
#*********************************************************************
# Minimum and maximum pt for 4-momenta sum of leptons                *
#*********************************************************************
  0.0	= ptllmin ! Minimum pt for 4-momenta sum of leptons(l and vl)
  -1.0	= ptllmax ! Maximum pt for 4-momenta sum of leptons(l and vl)
#*********************************************************************
# Inclusive cuts                                                     *
#*********************************************************************
  0.0	= ptheavy ! minimum pt for at least one heavy final state
  0.0	= xptj ! minimum pt for at least one jet  
  0.0	= xptb ! minimum pt for at least one b 
  0.0	= xpta ! minimum pt for at least one photon 
  0.0	= xptl ! minimum pt for at least one charged lepton 
#*********************************************************************
# Control the pt's of the jets sorted by pt                          *
#*********************************************************************
  0.0	= ptj1min ! minimum pt for the leading jet in pt
  0.0	= ptj2min ! minimum pt for the second jet in pt
  0.0	= ptj3min ! minimum pt for the third jet in pt
  0.0	= ptj4min ! minimum pt for the fourth jet in pt
  -1.0	= ptj1max ! maximum pt for the leading jet in pt 
  -1.0	= ptj2max ! maximum pt for the second jet in pt
  -1.0	= ptj3max ! maximum pt for the third jet in pt
  -1.0	= ptj4max ! maximum pt for the fourth jet in pt
  0	= cutuse ! reject event if fails any (0) / all (1) jet pt cuts
#*********************************************************************
# Control the pt's of leptons sorted by pt                           *
#*********************************************************************
  0.0	= ptl1min ! minimum pt for the leading lepton in pt
  0.0	= ptl2min ! minimum pt for the second lepton in pt
  0.0	= ptl3min ! minimum pt for the third lepton in pt
  0.0	= ptl4min ! minimum pt for the fourth lepton in pt
  -1.0	= ptl1max ! maximum pt for the leading lepton in pt 
  -1.0	= ptl2max ! maximum pt for the second lepton in pt
  -1.0	= ptl3max ! maximum pt for the third lepton in pt
  -1.0	= ptl4max ! maximum pt for the fourth lepton in pt
#*********************************************************************
# Control the Ht(k)=Sum of k leading jets                            *
#*********************************************************************
  0.0	= htjmin ! minimum jet HT=Sum(jet pt)
  -1.0	= htjmax ! maximum jet HT=Sum(jet pt)
  0.0	= ihtmin !inclusive Ht for all partons (including b)
  -1.0	= ihtmax !inclusive Ht for all partons (including b)
  0.0	= ht2min ! minimum Ht for the two leading jets
  0.0	= ht3min ! minimum Ht for the three leading jets
  0.0	= ht4min ! minimum Ht for the four leading jets
  -1.0	= ht2max ! maximum Ht for the two leading jets
  -1.0	= ht3max ! maximum Ht for the three leading jets
  -1.0	= ht4max ! maximum Ht for the four leading jets
#***********************************************************************
# Photon-isolation cuts, according to hep-ph/9801442                   *
# When ptgmin=0, all the other parameters are ignored                  *
# When ptgmin>0, pta and draj are not going to be used                 *
#***********************************************************************
  0.0	= ptgmin ! Min photon transverse momentum
  0.4	= r0gamma ! Radius of isolation code
  1.0	= xn ! n parameter of eq.(3.4) in hep-ph/9801442
  1.0	= epsgamma ! epsilon_gamma parameter of eq.(3.4) in hep-ph/9801442
  True	= isoem ! isolate photons from EM energy (photons and leptons)
#*********************************************************************
# WBF cuts                                                           *
#*********************************************************************
  0.0	= xetamin ! minimum rapidity for two jets in the WBF case  
  0.0	= deltaeta ! minimum rapidity for two jets in the WBF case 
#***********************************************************************
# Turn on either the ktdurham or ptlund cut to activate                *
# CKKW(L) merging with Pythia8 [arXiv:1410.3012, arXiv:1109.4829]      *
#***********************************************************************
  -1.0	= ktdurham 
  0.4	= dparameter 
  -1.0	= ptlund 
  1, 2, 3, 4, 5, 6, 21, 5100002, 5100004, 5100006	= pdgs_for_merging_cut ! PDGs for two cuts above   
#*********************************************************************
# maximal pdg code for quark to be considered as a light jet         *
# (otherwise b cuts are applied)                                     *
#*********************************************************************
  4	= maxjetflavor ! Maximum jet pdg code
#*********************************************************************
#
#*********************************************************************
# Store info for systematics studies                                 *
# WARNING: Do not use for interference type of computation           *
#*********************************************************************
  True	= use_syst ! Enable systematics studies
#
#**************************************
# Parameter of the systematics study
#  will be used by SysCalc (if installed)
#**************************************                                  
#
  0.5 1 2	= sys_scalefact # factorization/renormalization scale factor
  None	= sys_alpsfact # \alpha_s emission scale factors
  auto	= sys_matchscale # variation of merging scale
# PDF sets and number of members (0 or none for all members).
  NNPDF23_lo_as_0130_qed	= sys_pdf # list of pdf sets
# MSTW2008nlo68cl.LHgrid 1  = sys_pdf
#
]]>
</MGRunCard>
<slha>
######################################################################
## PARAM_CARD AUTOMATICALY GENERATED BY MG5                       ####
######################################################################
###################################
## INFORMATION FOR CKMBLOCK
###################################
BLOCK CKMBLOCK # 
      1 4.880000e-01 # cabi
###################################
## INFORMATION FOR DM
###################################
BLOCK DM # 
      1 5.250000e+00 # mchi
      2 5.000000e-01 # dmchi
###################################
## INFORMATION FOR GAUGEMASS
###################################
BLOCK GAUGEMASS # 
      1 9.118800e+01 # mzinput
      2 8.041900e+01 # mwinput
###################################
## INFORMATION FOR HIDDEN
###################################
BLOCK HIDDEN # 
      1 1.500000e+01 # mzdinput
      2 2.000000e+02 # mhsinput
      3 1.000000e-02 # epsilon
      4 1.000000e-09 # kap
      5 1.279000e+02 # axm1
###################################
## INFORMATION FOR HIGGS
###################################
BLOCK HIGGS # 
      1 1.250000e+02 # mhinput
###################################
## INFORMATION FOR MASS
###################################
BLOCK MASS # 
      4 1.420000e+00 # mc
      5 4.700000e+00 # mb
      6 1.743000e+02 # mt
      11 5.110000e-04 # me
      13 1.057000e-01 # mm
      15 1.777000e+00 # mta
      1 0.000000e+00 # d : 0.0
      2 0.000000e+00 # u : 0.0
      3 0.000000e+00 # s : 0.0
      12 0.000000e+00 # ve : 0.0
      14 0.000000e+00 # vm : 0.0
      16 0.000000e+00 # vt : 0.0
      21 0.000000e+00 # g : 0.0
      22 0.000000e+00 # a : 0.0
      23 9.118800e+01 # z : mzinput
      24 8.041900e+01 # w+ : mwinput
      25 1.250000e+02 # h : mhinput
      35 2.000000e+02 # hs : mhsinput
      1023 1.500000e+01 # zp : mzdinput
      1000022 5.000000e+00 # chi1 : -dmchi/2. + mchi
      1000023 5.500000e+00 # chi2 : dmchi/2. + mchi
###################################
## INFORMATION FOR SMINPUTS
###################################
BLOCK SMINPUTS # 
      1 2.250000e-01 # swsqsm
      2 1.279000e+02 # aewm1
      3 1.166390e-05 # gf
      4 1.180000e-01 # as
###################################
## INFORMATION FOR YUKAWA
###################################
BLOCK YUKAWA # 
      4 1.420000e+00 # ymc
      5 4.700000e+00 # ymb
      6 1.743000e+02 # ymt
      11 5.110000e-04 # ymel
      13 1.057000e-01 # ymmu
      15 1.777000e+00 # ymtau
###################################
## INFORMATION FOR DECAY
###################################
DECAY 6 1.508336e+00 # wt
DECAY 23 2.441404e+00 # wz
DECAY 24 2.047600e+00 # ww
DECAY 25 2.822990e-03 # wh
DECAY 35 5.237950e+00 # whs
DECAY 1023 1.000000e-03 # wzp
DECAY 1000023 1.000000e-03 # wchi2
DECAY 1 0.000000e+00 # d : 0.0
DECAY 2 0.000000e+00 # u : 0.0
DECAY 3 0.000000e+00 # s : 0.0
DECAY 4 0.000000e+00 # c : 0.0
DECAY 5 0.000000e+00 # b : 0.0
DECAY 11 0.000000e+00 # e- : 0.0
DECAY 12 0.000000e+00 # ve : 0.0
DECAY 13 0.000000e+00 # mu- : 0.0
DECAY 14 0.000000e+00 # vm : 0.0
DECAY 15 0.000000e+00 # tt- : 0.0
DECAY 16 0.000000e+00 # vt : 0.0
DECAY 21 0.000000e+00 # g : 0.0
DECAY 22 0.000000e+00 # a : 0.0
DECAY 1000022 0.000000e+00 # chi1 : 0.0
###################################
## INFORMATION FOR QNUMBERS 1000022
###################################
BLOCK QNUMBERS 1000022 #  chi1
      1 0 # 3 times electric charge
      2 2 # number of spin states (2s+1)
      3 1 # colour rep (1: singlet, 3: triplet, 8: octet)
      4 0 # particle/antiparticle distinction (0=own anti)
###################################
## INFORMATION FOR QNUMBERS 1000023
###################################
BLOCK QNUMBERS 1000023 #  chi2
      1 0 # 3 times electric charge
      2 2 # number of spin states (2s+1)
      3 1 # colour rep (1: singlet, 3: triplet, 8: octet)
      4 0 # particle/antiparticle distinction (0=own anti)
###################################
## INFORMATION FOR QNUMBERS 1023
###################################
BLOCK QNUMBERS 1023 #  zp
      1 0 # 3 times electric charge
      2 3 # number of spin states (2s+1)
      3 1 # colour rep (1: singlet, 3: triplet, 8: octet)
      4 0 # particle/antiparticle distinction (0=own anti)
###################################
## INFORMATION FOR QNUMBERS 35
###################################
BLOCK QNUMBERS 35 #  hs
      1 0 # 3 times electric charge
      2 1 # number of spin states (2s+1)
      3 1 # colour rep (1: singlet, 3: triplet, 8: octet)
      4 0 # particle/antiparticle distinction (0=own anti)
</slha>
<MGGenerationInfo>
#  Number of Events        :          100
#  Integrated weight (pb)  :  0.15594E-09
#  Truncated wgt (pb)      :  0.00000E+00
#  Unit wgt                :  0.15607E-11
</MGGenerationInfo>
<initrwgt>
<![CDATA[
<weightgroup name="NNPDF31_nnlo_as_0118_nf_4" combine="replicas"> # 320900: NNPDF3.1 NNLO global fit, nf=4. mem=0 ; average on replicas; mem=1-100 ; PDF replicas
<weight id="1001" MUR="1.0" MUF="1.0" PDF="320900" >  </weight>
<weightgroup name="Central scale variation" combine="envelope">
</weightgroup> PDF 
<weight id="1002" MUR="1.0" MUF="1.0" DYN_SCALE="1" PDF="320900" > dyn_scale_choice=sum pt  </weight>
<weight id="1003" MUR="1.0" MUF="1.0" DYN_SCALE="2" PDF="320900" > dyn_scale_choice=HT  </weight>
<weight id="1004" MUR="1.0" MUF="1.0" DYN_SCALE="3" PDF="320900" > dyn_scale_choice=HT/2  </weight>
<weight id="1005" MUR="1.0" MUF="1.0" DYN_SCALE="4" PDF="320900" > dyn_scale_choice=sqrts  </weight>
<weight id="1006" MUR="2.0" MUF="1.0" PDF="320900" > MUR=2.0  </weight>
<weight id="1007" MUR="2.0" MUF="1.0" DYN_SCALE="1" PDF="320900" > MUR=2.0 dyn_scale_choice=sum pt  </weight>
<weight id="1008" MUR="2.0" MUF="1.0" DYN_SCALE="2" PDF="320900" > MUR=2.0 dyn_scale_choice=HT  </weight>
<weight id="1009" MUR="2.0" MUF="1.0" DYN_SCALE="3" PDF="320900" > MUR=2.0 dyn_scale_choice=HT/2  </weight>
<weight id="1010" MUR="2.0" MUF="1.0" DYN_SCALE="4" PDF="320900" > MUR=2.0 dyn_scale_choice=sqrts  </weight>
<weight id="1011" MUR="0.5" MUF="1.0" PDF="320900" > MUR=0.5  </weight>
<weight id="1012" MUR="0.5" MUF="1.0" DYN_SCALE="1" PDF="320900" > MUR=0.5 dyn_scale_choice=sum pt  </weight>
<weight id="1013" MUR="0.5" MUF="1.0" DYN_SCALE="2" PDF="320900" > MUR=0.5 dyn_scale_choice=HT  </weight>
<weight id="1014" MUR="0.5" MUF="1.0" DYN_SCALE="3" PDF="320900" > MUR=0.5 dyn_scale_choice=HT/2  </weight>
<weight id="1015" MUR="0.5" MUF="1.0" DYN_SCALE="4" PDF="320900" > MUR=0.5 dyn_scale_choice=sqrts  </weight>
<weight id="1016" MUR="1.0" MUF="2.0" PDF="320900" > MUF=2.0  </weight>
<weight id="1017" MUR="1.0" MUF="2.0" DYN_SCALE="1" PDF="320900" > MUF=2.0 dyn_scale_choice=sum pt  </weight>
<weight id="1018" MUR="1.0" MUF="2.0" DYN_SCALE="2" PDF="320900" > MUF=2.0 dyn_scale_choice=HT  </weight>
<weight id="1019" MUR="1.0" MUF="2.0" DYN_SCALE="3" PDF="320900" > MUF=2.0 dyn_scale_choice=HT/2  </weight>
<weight id="1020" MUR="1.0" MUF="2.0" DYN_SCALE="4" PDF="320900" > MUF=2.0 dyn_scale_choice=sqrts  </weight>
<weight id="1021" MUR="2.0" MUF="2.0" PDF="320900" > MUR=2.0 MUF=2.0  </weight>
<weight id="1022" MUR="2.0" MUF="2.0" DYN_SCALE="1" PDF="320900" > MUR=2.0 MUF=2.0 dyn_scale_choice=sum pt  </weight>
<weight id="1023" MUR="2.0" MUF="2.0" DYN_SCALE="2" PDF="320900" > MUR=2.0 MUF=2.0 dyn_scale_choice=HT  </weight>
<weight id="1024" MUR="2.0" MUF="2.0" DYN_SCALE="3" PDF="320900" > MUR=2.0 MUF=2.0 dyn_scale_choice=HT/2  </weight>
<weight id="1025" MUR="2.0" MUF="2.0" DYN_SCALE="4" PDF="320900" > MUR=2.0 MUF=2.0 dyn_scale_choice=sqrts  </weight>
<weight id="1026" MUR="0.5" MUF="2.0" PDF="320900" > MUR=0.5 MUF=2.0  </weight>
<weight id="1027" MUR="0.5" MUF="2.0" DYN_SCALE="1" PDF="320900" > MUR=0.5 MUF=2.0 dyn_scale_choice=sum pt  </weight>
<weight id="1028" MUR="0.5" MUF="2.0" DYN_SCALE="2" PDF="320900" > MUR=0.5 MUF=2.0 dyn_scale_choice=HT  </weight>
<weight id="1029" MUR="0.5" MUF="2.0" DYN_SCALE="3" PDF="320900" > MUR=0.5 MUF=2.0 dyn_scale_choice=HT/2  </weight>
<weight id="1030" MUR="0.5" MUF="2.0" DYN_SCALE="4" PDF="320900" > MUR=0.5 MUF=2.0 dyn_scale_choice=sqrts  </weight>
<weight id="1031" MUR="1.0" MUF="0.5" PDF="320900" > MUF=0.5  </weight>
<weight id="1032" MUR="1.0" MUF="0.5" DYN_SCALE="1" PDF="320900" > MUF=0.5 dyn_scale_choice=sum pt  </weight>
<weight id="1033" MUR="1.0" MUF="0.5" DYN_SCALE="2" PDF="320900" > MUF=0.5 dyn_scale_choice=HT  </weight>
<weight id="1034" MUR="1.0" MUF="0.5" DYN_SCALE="3" PDF="320900" > MUF=0.5 dyn_scale_choice=HT/2  </weight>
<weight id="1035" MUR="1.0" MUF="0.5" DYN_SCALE="4" PDF="320900" > MUF=0.5 dyn_scale_choice=sqrts  </weight>
<weight id="1036" MUR="2.0" MUF="0.5" PDF="320900" > MUR=2.0 MUF=0.5  </weight>
<weight id="1037" MUR="2.0" MUF="0.5" DYN_SCALE="1" PDF="320900" > MUR=2.0 MUF=0.5 dyn_scale_choice=sum pt  </weight>
<weight id="1038" MUR="2.0" MUF="0.5" DYN_SCALE="2" PDF="320900" > MUR=2.0 MUF=0.5 dyn_scale_choice=HT  </weight>
<weight id="1039" MUR="2.0" MUF="0.5" DYN_SCALE="3" PDF="320900" > MUR=2.0 MUF=0.5 dyn_scale_choice=HT/2  </weight>
<weight id="1040" MUR="2.0" MUF="0.5" DYN_SCALE="4" PDF="320900" > MUR=2.0 MUF=0.5 dyn_scale_choice=sqrts  </weight>
<weight id="1041" MUR="0.5" MUF="0.5" PDF="320900" > MUR=0.5 MUF=0.5  </weight>
<weight id="1042" MUR="0.5" MUF="0.5" DYN_SCALE="1" PDF="320900" > MUR=0.5 MUF=0.5 dyn_scale_choice=sum pt  </weight>
<weight id="1043" MUR="0.5" MUF="0.5" DYN_SCALE="2" PDF="320900" > MUR=0.5 MUF=0.5 dyn_scale_choice=HT  </weight>
<weight id="1044" MUR="0.5" MUF="0.5" DYN_SCALE="3" PDF="320900" > MUR=0.5 MUF=0.5 dyn_scale_choice=HT/2  </weight>
<weight id="1045" MUR="0.5" MUF="0.5" DYN_SCALE="4" PDF="320900" > MUR=0.5 MUF=0.5 dyn_scale_choice=sqrts  </weight>
</weightgroup> # scale
<weightgroup name="NNPDF31_nnlo_as_0118_nf_4" combine="replicas"> # 320900: NNPDF3.1 NNLO global fit, nf=4. mem=0 ; average on replicas; mem=1-100 ; PDF replicas
<weight id="1046" MUR="1.0" MUF="1.0" PDF="320900" >  </weight>
<weight id="1047" MUR="1.0" MUF="1.0" PDF="320901" > PDF=320900 MemberID=1 </weight>
<weight id="1048" MUR="1.0" MUF="1.0" PDF="320902" > PDF=320900 MemberID=2 </weight>
<weight id="1049" MUR="1.0" MUF="1.0" PDF="320903" > PDF=320900 MemberID=3 </weight>
<weight id="1050" MUR="1.0" MUF="1.0" PDF="320904" > PDF=320900 MemberID=4 </weight>
<weight id="1051" MUR="1.0" MUF="1.0" PDF="320905" > PDF=320900 MemberID=5 </weight>
<weight id="1052" MUR="1.0" MUF="1.0" PDF="320906" > PDF=320900 MemberID=6 </weight>
<weight id="1053" MUR="1.0" MUF="1.0" PDF="320907" > PDF=320900 MemberID=7 </weight>
<weight id="1054" MUR="1.0" MUF="1.0" PDF="320908" > PDF=320900 MemberID=8 </weight>
<weight id="1055" MUR="1.0" MUF="1.0" PDF="320909" > PDF=320900 MemberID=9 </weight>
<weight id="1056" MUR="1.0" MUF="1.0" PDF="320910" > PDF=320900 MemberID=10 </weight>
<weight id="1057" MUR="1.0" MUF="1.0" PDF="320911" > PDF=320900 MemberID=11 </weight>
<weight id="1058" MUR="1.0" MUF="1.0" PDF="320912" > PDF=320900 MemberID=12 </weight>
<weight id="1059" MUR="1.0" MUF="1.0" PDF="320913" > PDF=320900 MemberID=13 </weight>
<weight id="1060" MUR="1.0" MUF="1.0" PDF="320914" > PDF=320900 MemberID=14 </weight>
<weight id="1061" MUR="1.0" MUF="1.0" PDF="320915" > PDF=320900 MemberID=15 </weight>
<weight id="1062" MUR="1.0" MUF="1.0" PDF="320916" > PDF=320900 MemberID=16 </weight>
<weight id="1063" MUR="1.0" MUF="1.0" PDF="320917" > PDF=320900 MemberID=17 </weight>
<weight id="1064" MUR="1.0" MUF="1.0" PDF="320918" > PDF=320900 MemberID=18 </weight>
<weight id="1065" MUR="1.0" MUF="1.0" PDF="320919" > PDF=320900 MemberID=19 </weight>
<weight id="1066" MUR="1.0" MUF="1.0" PDF="320920" > PDF=320900 MemberID=20 </weight>
<weight id="1067" MUR="1.0" MUF="1.0" PDF="320921" > PDF=320900 MemberID=21 </weight>
<weight id="1068" MUR="1.0" MUF="1.0" PDF="320922" > PDF=320900 MemberID=22 </weight>
<weight id="1069" MUR="1.0" MUF="1.0" PDF="320923" > PDF=320900 MemberID=23 </weight>
<weight id="1070" MUR="1.0" MUF="1.0" PDF="320924" > PDF=320900 MemberID=24 </weight>
<weight id="1071" MUR="1.0" MUF="1.0" PDF="320925" > PDF=320900 MemberID=25 </weight>
<weight id="1072" MUR="1.0" MUF="1.0" PDF="320926" > PDF=320900 MemberID=26 </weight>
<weight id="1073" MUR="1.0" MUF="1.0" PDF="320927" > PDF=320900 MemberID=27 </weight>
<weight id="1074" MUR="1.0" MUF="1.0" PDF="320928" > PDF=320900 MemberID=28 </weight>
<weight id="1075" MUR="1.0" MUF="1.0" PDF="320929" > PDF=320900 MemberID=29 </weight>
<weight id="1076" MUR="1.0" MUF="1.0" PDF="320930" > PDF=320900 MemberID=30 </weight>
<weight id="1077" MUR="1.0" MUF="1.0" PDF="320931" > PDF=320900 MemberID=31 </weight>
<weight id="1078" MUR="1.0" MUF="1.0" PDF="320932" > PDF=320900 MemberID=32 </weight>
<weight id="1079" MUR="1.0" MUF="1.0" PDF="320933" > PDF=320900 MemberID=33 </weight>
<weight id="1080" MUR="1.0" MUF="1.0" PDF="320934" > PDF=320900 MemberID=34 </weight>
<weight id="1081" MUR="1.0" MUF="1.0" PDF="320935" > PDF=320900 MemberID=35 </weight>
<weight id="1082" MUR="1.0" MUF="1.0" PDF="320936" > PDF=320900 MemberID=36 </weight>
<weight id="1083" MUR="1.0" MUF="1.0" PDF="320937" > PDF=320900 MemberID=37 </weight>
<weight id="1084" MUR="1.0" MUF="1.0" PDF="320938" > PDF=320900 MemberID=38 </weight>
<weight id="1085" MUR="1.0" MUF="1.0" PDF="320939" > PDF=320900 MemberID=39 </weight>
<weight id="1086" MUR="1.0" MUF="1.0" PDF="320940" > PDF=320900 MemberID=40 </weight>
<weight id="1087" MUR="1.0" MUF="1.0" PDF="320941" > PDF=320900 MemberID=41 </weight>
<weight id="1088" MUR="1.0" MUF="1.0" PDF="320942" > PDF=320900 MemberID=42 </weight>
<weight id="1089" MUR="1.0" MUF="1.0" PDF="320943" > PDF=320900 MemberID=43 </weight>
<weight id="1090" MUR="1.0" MUF="1.0" PDF="320944" > PDF=320900 MemberID=44 </weight>
<weight id="1091" MUR="1.0" MUF="1.0" PDF="320945" > PDF=320900 MemberID=45 </weight>
<weight id="1092" MUR="1.0" MUF="1.0" PDF="320946" > PDF=320900 MemberID=46 </weight>
<weight id="1093" MUR="1.0" MUF="1.0" PDF="320947" > PDF=320900 MemberID=47 </weight>
<weight id="1094" MUR="1.0" MUF="1.0" PDF="320948" > PDF=320900 MemberID=48 </weight>
<weight id="1095" MUR="1.0" MUF="1.0" PDF="320949" > PDF=320900 MemberID=49 </weight>
<weight id="1096" MUR="1.0" MUF="1.0" PDF="320950" > PDF=320900 MemberID=50 </weight>
<weight id="1097" MUR="1.0" MUF="1.0" PDF="320951" > PDF=320900 MemberID=51 </weight>
<weight id="1098" MUR="1.0" MUF="1.0" PDF="320952" > PDF=320900 MemberID=52 </weight>
<weight id="1099" MUR="1.0" MUF="1.0" PDF="320953" > PDF=320900 MemberID=53 </weight>
<weight id="1100" MUR="1.0" MUF="1.0" PDF="320954" > PDF=320900 MemberID=54 </weight>
<weight id="1101" MUR="1.0" MUF="1.0" PDF="320955" > PDF=320900 MemberID=55 </weight>
<weight id="1102" MUR="1.0" MUF="1.0" PDF="320956" > PDF=320900 MemberID=56 </weight>
<weight id="1103" MUR="1.0" MUF="1.0" PDF="320957" > PDF=320900 MemberID=57 </weight>
<weight id="1104" MUR="1.0" MUF="1.0" PDF="320958" > PDF=320900 MemberID=58 </weight>
<weight id="1105" MUR="1.0" MUF="1.0" PDF="320959" > PDF=320900 MemberID=59 </weight>
<weight id="1106" MUR="1.0" MUF="1.0" PDF="320960" > PDF=320900 MemberID=60 </weight>
<weight id="1107" MUR="1.0" MUF="1.0" PDF="320961" > PDF=320900 MemberID=61 </weight>
<weight id="1108" MUR="1.0" MUF="1.0" PDF="320962" > PDF=320900 MemberID=62 </weight>
<weight id="1109" MUR="1.0" MUF="1.0" PDF="320963" > PDF=320900 MemberID=63 </weight>
<weight id="1110" MUR="1.0" MUF="1.0" PDF="320964" > PDF=320900 MemberID=64 </weight>
<weight id="1111" MUR="1.0" MUF="1.0" PDF="320965" > PDF=320900 MemberID=65 </weight>
<weight id="1112" MUR="1.0" MUF="1.0" PDF="320966" > PDF=320900 MemberID=66 </weight>
<weight id="1113" MUR="1.0" MUF="1.0" PDF="320967" > PDF=320900 MemberID=67 </weight>
<weight id="1114" MUR="1.0" MUF="1.0" PDF="320968" > PDF=320900 MemberID=68 </weight>
<weight id="1115" MUR="1.0" MUF="1.0" PDF="320969" > PDF=320900 MemberID=69 </weight>
<weight id="1116" MUR="1.0" MUF="1.0" PDF="320970" > PDF=320900 MemberID=70 </weight>
<weight id="1117" MUR="1.0" MUF="1.0" PDF="320971" > PDF=320900 MemberID=71 </weight>
<weight id="1118" MUR="1.0" MUF="1.0" PDF="320972" > PDF=320900 MemberID=72 </weight>
<weight id="1119" MUR="1.0" MUF="1.0" PDF="320973" > PDF=320900 MemberID=73 </weight>
<weight id="1120" MUR="1.0" MUF="1.0" PDF="320974" > PDF=320900 MemberID=74 </weight>
<weight id="1121" MUR="1.0" MUF="1.0" PDF="320975" > PDF=320900 MemberID=75 </weight>
<weight id="1122" MUR="1.0" MUF="1.0" PDF="320976" > PDF=320900 MemberID=76 </weight>
<weight id="1123" MUR="1.0" MUF="1.0" PDF="320977" > PDF=320900 MemberID=77 </weight>
<weight id="1124" MUR="1.0" MUF="1.0" PDF="320978" > PDF=320900 MemberID=78 </weight>
<weight id="1125" MUR="1.0" MUF="1.0" PDF="320979" > PDF=320900 MemberID=79 </weight>
<weight id="1126" MUR="1.0" MUF="1.0" PDF="320980" > PDF=320900 MemberID=80 </weight>
<weight id="1127" MUR="1.0" MUF="1.0" PDF="320981" > PDF=320900 MemberID=81 </weight>
<weight id="1128" MUR="1.0" MUF="1.0" PDF="320982" > PDF=320900 MemberID=82 </weight>
<weight id="1129" MUR="1.0" MUF="1.0" PDF="320983" > PDF=320900 MemberID=83 </weight>
<weight id="1130" MUR="1.0" MUF="1.0" PDF="320984" > PDF=320900 MemberID=84 </weight>
<weight id="1131" MUR="1.0" MUF="1.0" PDF="320985" > PDF=320900 MemberID=85 </weight>
<weight id="1132" MUR="1.0" MUF="1.0" PDF="320986" > PDF=320900 MemberID=86 </weight>
<weight id="1133" MUR="1.0" MUF="1.0" PDF="320987" > PDF=320900 MemberID=87 </weight>
<weight id="1134" MUR="1.0" MUF="1.0" PDF="320988" > PDF=320900 MemberID=88 </weight>
<weight id="1135" MUR="1.0" MUF="1.0" PDF="320989" > PDF=320900 MemberID=89 </weight>
<weight id="1136" MUR="1.0" MUF="1.0" PDF="320990" > PDF=320900 MemberID=90 </weight>
<weight id="1137" MUR="1.0" MUF="1.0" PDF="320991" > PDF=320900 MemberID=91 </weight>
<weight id="1138" MUR="1.0" MUF="1.0" PDF="320992" > PDF=320900 MemberID=92 </weight>
<weight id="1139" MUR="1.0" MUF="1.0" PDF="320993" > PDF=320900 MemberID=93 </weight>
<weight id="1140" MUR="1.0" MUF="1.0" PDF="320994" > PDF=320900 MemberID=94 </weight>
<weight id="1141" MUR="1.0" MUF="1.0" PDF="320995" > PDF=320900 MemberID=95 </weight>
<weight id="1142" MUR="1.0" MUF="1.0" PDF="320996" > PDF=320900 MemberID=96 </weight>
<weight id="1143" MUR="1.0" MUF="1.0" PDF="320997" > PDF=320900 MemberID=97 </weight>
<weight id="1144" MUR="1.0" MUF="1.0" PDF="320998" > PDF=320900 MemberID=98 </weight>
<weight id="1145" MUR="1.0" MUF="1.0" PDF="320999" > PDF=320900 MemberID=99 </weight>
<weight id="1146" MUR="1.0" MUF="1.0" PDF="321000" > PDF=320900 MemberID=100 </weight>
</weightgroup> # PDFSET -> PDFSET
<weightgroup name="CT10nlo_nf4" combine="unknown"> # 11082: CT10 NLO PDF fixed 4-flavour fits using the standard CTEQ PDF evolution but using the HOPPET alphas_s running solution. NEW CT12 grid type. Excluding the D0 Run-II W asymmetry data. mem=0 ; mem=0 ; NF4 high scale Q=m_Z=91.190 GeV; mem=1 ; NF4 low scale  Q=m_tau=1.778 GeV
<weight id="1147" MUR="1.0" MUF="1.0" PDF="11082" > PDF=11082 MemberID=0 </weight>
<weight id="1148" MUR="1.0" MUF="1.0" PDF="11083" > PDF=11082 MemberID=1 </weight>
</weightgroup> # PDFSET -> PDF
<weight id="1149" MUR="1.0" MUF="1.0" PDF="13091" > PDF=13091 MemberID=0 </weight>
<weight id="1150" MUR="1.0" MUF="1.0" PDF="13191" > PDF=13191 MemberID=0 </weight>
<weight id="1151" MUR="1.0" MUF="1.0" PDF="13202" > PDF=13202 MemberID=0 </weight>
<weightgroup name="MSTW2008lo68cl_nf4" combine="hessian"> # 23100: MSTW 2008 LO (68% C.L.) evolved with 4 flavours maximum.  This set has 41 member PDFs.  mem=0 ; central value; mem=1-40 ; 20 eigenvectors (+/- directions).  http://mstwpdf.hepforge.org
<weight id="1152" MUR="1.0" MUF="1.0" PDF="23100" > PDF=23100 MemberID=0 </weight>
<weight id="1153" MUR="1.0" MUF="1.0" PDF="23101" > PDF=23100 MemberID=1 </weight>
<weight id="1154" MUR="1.0" MUF="1.0" PDF="23102" > PDF=23100 MemberID=2 </weight>
<weight id="1155" MUR="1.0" MUF="1.0" PDF="23103" > PDF=23100 MemberID=3 </weight>
<weight id="1156" MUR="1.0" MUF="1.0" PDF="23104" > PDF=23100 MemberID=4 </weight>
<weight id="1157" MUR="1.0" MUF="1.0" PDF="23105" > PDF=23100 MemberID=5 </weight>
<weight id="1158" MUR="1.0" MUF="1.0" PDF="23106" > PDF=23100 MemberID=6 </weight>
<weight id="1159" MUR="1.0" MUF="1.0" PDF="23107" > PDF=23100 MemberID=7 </weight>
<weight id="1160" MUR="1.0" MUF="1.0" PDF="23108" > PDF=23100 MemberID=8 </weight>
<weight id="1161" MUR="1.0" MUF="1.0" PDF="23109" > PDF=23100 MemberID=9 </weight>
<weight id="1162" MUR="1.0" MUF="1.0" PDF="23110" > PDF=23100 MemberID=10 </weight>
<weight id="1163" MUR="1.0" MUF="1.0" PDF="23111" > PDF=23100 MemberID=11 </weight>
<weight id="1164" MUR="1.0" MUF="1.0" PDF="23112" > PDF=23100 MemberID=12 </weight>
<weight id="1165" MUR="1.0" MUF="1.0" PDF="23113" > PDF=23100 MemberID=13 </weight>
<weight id="1166" MUR="1.0" MUF="1.0" PDF="23114" > PDF=23100 MemberID=14 </weight>
<weight id="1167" MUR="1.0" MUF="1.0" PDF="23115" > PDF=23100 MemberID=15 </weight>
<weight id="1168" MUR="1.0" MUF="1.0" PDF="23116" > PDF=23100 MemberID=16 </weight>
<weight id="1169" MUR="1.0" MUF="1.0" PDF="23117" > PDF=23100 MemberID=17 </weight>
<weight id="1170" MUR="1.0" MUF="1.0" PDF="23118" > PDF=23100 MemberID=18 </weight>
<weight id="1171" MUR="1.0" MUF="1.0" PDF="23119" > PDF=23100 MemberID=19 </weight>
<weight id="1172" MUR="1.0" MUF="1.0" PDF="23120" > PDF=23100 MemberID=20 </weight>
<weight id="1173" MUR="1.0" MUF="1.0" PDF="23121" > PDF=23100 MemberID=21 </weight>
<weight id="1174" MUR="1.0" MUF="1.0" PDF="23122" > PDF=23100 MemberID=22 </weight>
<weight id="1175" MUR="1.0" MUF="1.0" PDF="23123" > PDF=23100 MemberID=23 </weight>
<weight id="1176" MUR="1.0" MUF="1.0" PDF="23124" > PDF=23100 MemberID=24 </weight>
<weight id="1177" MUR="1.0" MUF="1.0" PDF="23125" > PDF=23100 MemberID=25 </weight>
<weight id="1178" MUR="1.0" MUF="1.0" PDF="23126" > PDF=23100 MemberID=26 </weight>
<weight id="1179" MUR="1.0" MUF="1.0" PDF="23127" > PDF=23100 MemberID=27 </weight>
<weight id="1180" MUR="1.0" MUF="1.0" PDF="23128" > PDF=23100 MemberID=28 </weight>
<weight id="1181" MUR="1.0" MUF="1.0" PDF="23129" > PDF=23100 MemberID=29 </weight>
<weight id="1182" MUR="1.0" MUF="1.0" PDF="23130" > PDF=23100 MemberID=30 </weight>
<weight id="1183" MUR="1.0" MUF="1.0" PDF="23131" > PDF=23100 MemberID=31 </weight>
<weight id="1184" MUR="1.0" MUF="1.0" PDF="23132" > PDF=23100 MemberID=32 </weight>
<weight id="1185" MUR="1.0" MUF="1.0" PDF="23133" > PDF=23100 MemberID=33 </weight>
<weight id="1186" MUR="1.0" MUF="1.0" PDF="23134" > PDF=23100 MemberID=34 </weight>
<weight id="1187" MUR="1.0" MUF="1.0" PDF="23135" > PDF=23100 MemberID=35 </weight>
<weight id="1188" MUR="1.0" MUF="1.0" PDF="23136" > PDF=23100 MemberID=36 </weight>
<weight id="1189" MUR="1.0" MUF="1.0" PDF="23137" > PDF=23100 MemberID=37 </weight>
<weight id="1190" MUR="1.0" MUF="1.0" PDF="23138" > PDF=23100 MemberID=38 </weight>
<weight id="1191" MUR="1.0" MUF="1.0" PDF="23139" > PDF=23100 MemberID=39 </weight>
<weight id="1192" MUR="1.0" MUF="1.0" PDF="23140" > PDF=23100 MemberID=40 </weight>
</weightgroup> # PDFSET -> PDFSET
<weightgroup name="MSTW2008nlo68cl_nf4" combine="hessian"> # 23300: MSTW 2008 NLO (68% C.L.) evolved with 4 flavours maximum.  This set has 41 member PDFs.  mem=0 ; central value; mem=1-40 ; 20 eigenvectors (+/- directions).  http://mstwpdf.hepforge.org
<weight id="1193" MUR="1.0" MUF="1.0" PDF="23300" > PDF=23300 MemberID=0 </weight>
<weight id="1194" MUR="1.0" MUF="1.0" PDF="23301" > PDF=23300 MemberID=1 </weight>
<weight id="1195" MUR="1.0" MUF="1.0" PDF="23302" > PDF=23300 MemberID=2 </weight>
<weight id="1196" MUR="1.0" MUF="1.0" PDF="23303" > PDF=23300 MemberID=3 </weight>
<weight id="1197" MUR="1.0" MUF="1.0" PDF="23304" > PDF=23300 MemberID=4 </weight>
<weight id="1198" MUR="1.0" MUF="1.0" PDF="23305" > PDF=23300 MemberID=5 </weight>
<weight id="1199" MUR="1.0" MUF="1.0" PDF="23306" > PDF=23300 MemberID=6 </weight>
<weight id="1200" MUR="1.0" MUF="1.0" PDF="23307" > PDF=23300 MemberID=7 </weight>
<weight id="1201" MUR="1.0" MUF="1.0" PDF="23308" > PDF=23300 MemberID=8 </weight>
<weight id="1202" MUR="1.0" MUF="1.0" PDF="23309" > PDF=23300 MemberID=9 </weight>
<weight id="1203" MUR="1.0" MUF="1.0" PDF="23310" > PDF=23300 MemberID=10 </weight>
<weight id="1204" MUR="1.0" MUF="1.0" PDF="23311" > PDF=23300 MemberID=11 </weight>
<weight id="1205" MUR="1.0" MUF="1.0" PDF="23312" > PDF=23300 MemberID=12 </weight>
<weight id="1206" MUR="1.0" MUF="1.0" PDF="23313" > PDF=23300 MemberID=13 </weight>
<weight id="1207" MUR="1.0" MUF="1.0" PDF="23314" > PDF=23300 MemberID=14 </weight>
<weight id="1208" MUR="1.0" MUF="1.0" PDF="23315" > PDF=23300 MemberID=15 </weight>
<weight id="1209" MUR="1.0" MUF="1.0" PDF="23316" > PDF=23300 MemberID=16 </weight>
<weight id="1210" MUR="1.0" MUF="1.0" PDF="23317" > PDF=23300 MemberID=17 </weight>
<weight id="1211" MUR="1.0" MUF="1.0" PDF="23318" > PDF=23300 MemberID=18 </weight>
<weight id="1212" MUR="1.0" MUF="1.0" PDF="23319" > PDF=23300 MemberID=19 </weight>
<weight id="1213" MUR="1.0" MUF="1.0" PDF="23320" > PDF=23300 MemberID=20 </weight>
<weight id="1214" MUR="1.0" MUF="1.0" PDF="23321" > PDF=23300 MemberID=21 </weight>
<weight id="1215" MUR="1.0" MUF="1.0" PDF="23322" > PDF=23300 MemberID=22 </weight>
<weight id="1216" MUR="1.0" MUF="1.0" PDF="23323" > PDF=23300 MemberID=23 </weight>
<weight id="1217" MUR="1.0" MUF="1.0" PDF="23324" > PDF=23300 MemberID=24 </weight>
<weight id="1218" MUR="1.0" MUF="1.0" PDF="23325" > PDF=23300 MemberID=25 </weight>
<weight id="1219" MUR="1.0" MUF="1.0" PDF="23326" > PDF=23300 MemberID=26 </weight>
<weight id="1220" MUR="1.0" MUF="1.0" PDF="23327" > PDF=23300 MemberID=27 </weight>
<weight id="1221" MUR="1.0" MUF="1.0" PDF="23328" > PDF=23300 MemberID=28 </weight>
<weight id="1222" MUR="1.0" MUF="1.0" PDF="23329" > PDF=23300 MemberID=29 </weight>
<weight id="1223" MUR="1.0" MUF="1.0" PDF="23330" > PDF=23300 MemberID=30 </weight>
<weight id="1224" MUR="1.0" MUF="1.0" PDF="23331" > PDF=23300 MemberID=31 </weight>
<weight id="1225" MUR="1.0" MUF="1.0" PDF="23332" > PDF=23300 MemberID=32 </weight>
<weight id="1226" MUR="1.0" MUF="1.0" PDF="23333" > PDF=23300 MemberID=33 </weight>
<weight id="1227" MUR="1.0" MUF="1.0" PDF="23334" > PDF=23300 MemberID=34 </weight>
<weight id="1228" MUR="1.0" MUF="1.0" PDF="23335" > PDF=23300 MemberID=35 </weight>
<weight id="1229" MUR="1.0" MUF="1.0" PDF="23336" > PDF=23300 MemberID=36 </weight>
<weight id="1230" MUR="1.0" MUF="1.0" PDF="23337" > PDF=23300 MemberID=37 </weight>
<weight id="1231" MUR="1.0" MUF="1.0" PDF="23338" > PDF=23300 MemberID=38 </weight>
<weight id="1232" MUR="1.0" MUF="1.0" PDF="23339" > PDF=23300 MemberID=39 </weight>
<weight id="1233" MUR="1.0" MUF="1.0" PDF="23340" > PDF=23300 MemberID=40 </weight>
</weightgroup> # PDFSET -> PDFSET
<weightgroup name="MSTW2008nlo_mbrange_nf4" combine="unknown"> # 23490: MSTW 2008 NLO (fits for range of m_b values, evolve with 4 flavours maximum).  This set has 7 member PDFs.  mem=0 ; default m_b = 4.75 GeV; mem=1-6 ; m_b = 4.00, 4.25, 4.50, 5.00, 5.25, 5.50 GeV.  http://mstwpdf.hepforge.org
<weight id="1234" MUR="1.0" MUF="1.0" PDF="23490" > PDF=23490 MemberID=0 </weight>
<weight id="1235" MUR="1.0" MUF="1.0" PDF="23491" > PDF=23490 MemberID=1 </weight>
<weight id="1236" MUR="1.0" MUF="1.0" PDF="23492" > PDF=23490 MemberID=2 </weight>
<weight id="1237" MUR="1.0" MUF="1.0" PDF="23493" > PDF=23490 MemberID=3 </weight>
<weight id="1238" MUR="1.0" MUF="1.0" PDF="23494" > PDF=23490 MemberID=4 </weight>
<weight id="1239" MUR="1.0" MUF="1.0" PDF="23495" > PDF=23490 MemberID=5 </weight>
<weight id="1240" MUR="1.0" MUF="1.0" PDF="23496" > PDF=23490 MemberID=6 </weight>
</weightgroup> # PDFSET -> PDFSET
<weightgroup name="MSTW2008nnlo68cl_nf4" combine="hessian"> # 23600: MSTW 2008 NNLO (68% C.L.) evolved with 4 flavours maximum.  This set has 41 member PDFs.  mem=0 ; central value; mem=1-40 ; 20 eigenvectors (+/- directions).  http://mstwpdf.hepforge.org
<weight id="1241" MUR="1.0" MUF="1.0" PDF="23600" > PDF=23600 MemberID=0 </weight>
<weight id="1242" MUR="1.0" MUF="1.0" PDF="23601" > PDF=23600 MemberID=1 </weight>
<weight id="1243" MUR="1.0" MUF="1.0" PDF="23602" > PDF=23600 MemberID=2 </weight>
<weight id="1244" MUR="1.0" MUF="1.0" PDF="23603" > PDF=23600 MemberID=3 </weight>
<weight id="1245" MUR="1.0" MUF="1.0" PDF="23604" > PDF=23600 MemberID=4 </weight>
<weight id="1246" MUR="1.0" MUF="1.0" PDF="23605" > PDF=23600 MemberID=5 </weight>
<weight id="1247" MUR="1.0" MUF="1.0" PDF="23606" > PDF=23600 MemberID=6 </weight>
<weight id="1248" MUR="1.0" MUF="1.0" PDF="23607" > PDF=23600 MemberID=7 </weight>
<weight id="1249" MUR="1.0" MUF="1.0" PDF="23608" > PDF=23600 MemberID=8 </weight>
<weight id="1250" MUR="1.0" MUF="1.0" PDF="23609" > PDF=23600 MemberID=9 </weight>
<weight id="1251" MUR="1.0" MUF="1.0" PDF="23610" > PDF=23600 MemberID=10 </weight>
<weight id="1252" MUR="1.0" MUF="1.0" PDF="23611" > PDF=23600 MemberID=11 </weight>
<weight id="1253" MUR="1.0" MUF="1.0" PDF="23612" > PDF=23600 MemberID=12 </weight>
<weight id="1254" MUR="1.0" MUF="1.0" PDF="23613" > PDF=23600 MemberID=13 </weight>
<weight id="1255" MUR="1.0" MUF="1.0" PDF="23614" > PDF=23600 MemberID=14 </weight>
<weight id="1256" MUR="1.0" MUF="1.0" PDF="23615" > PDF=23600 MemberID=15 </weight>
<weight id="1257" MUR="1.0" MUF="1.0" PDF="23616" > PDF=23600 MemberID=16 </weight>
<weight id="1258" MUR="1.0" MUF="1.0" PDF="23617" > PDF=23600 MemberID=17 </weight>
<weight id="1259" MUR="1.0" MUF="1.0" PDF="23618" > PDF=23600 MemberID=18 </weight>
<weight id="1260" MUR="1.0" MUF="1.0" PDF="23619" > PDF=23600 MemberID=19 </weight>
<weight id="1261" MUR="1.0" MUF="1.0" PDF="23620" > PDF=23600 MemberID=20 </weight>
<weight id="1262" MUR="1.0" MUF="1.0" PDF="23621" > PDF=23600 MemberID=21 </weight>
<weight id="1263" MUR="1.0" MUF="1.0" PDF="23622" > PDF=23600 MemberID=22 </weight>
<weight id="1264" MUR="1.0" MUF="1.0" PDF="23623" > PDF=23600 MemberID=23 </weight>
<weight id="1265" MUR="1.0" MUF="1.0" PDF="23624" > PDF=23600 MemberID=24 </weight>
<weight id="1266" MUR="1.0" MUF="1.0" PDF="23625" > PDF=23600 MemberID=25 </weight>
<weight id="1267" MUR="1.0" MUF="1.0" PDF="23626" > PDF=23600 MemberID=26 </weight>
<weight id="1268" MUR="1.0" MUF="1.0" PDF="23627" > PDF=23600 MemberID=27 </weight>
<weight id="1269" MUR="1.0" MUF="1.0" PDF="23628" > PDF=23600 MemberID=28 </weight>
<weight id="1270" MUR="1.0" MUF="1.0" PDF="23629" > PDF=23600 MemberID=29 </weight>
<weight id="1271" MUR="1.0" MUF="1.0" PDF="23630" > PDF=23600 MemberID=30 </weight>
<weight id="1272" MUR="1.0" MUF="1.0" PDF="23631" > PDF=23600 MemberID=31 </weight>
<weight id="1273" MUR="1.0" MUF="1.0" PDF="23632" > PDF=23600 MemberID=32 </weight>
<weight id="1274" MUR="1.0" MUF="1.0" PDF="23633" > PDF=23600 MemberID=33 </weight>
<weight id="1275" MUR="1.0" MUF="1.0" PDF="23634" > PDF=23600 MemberID=34 </weight>
<weight id="1276" MUR="1.0" MUF="1.0" PDF="23635" > PDF=23600 MemberID=35 </weight>
<weight id="1277" MUR="1.0" MUF="1.0" PDF="23636" > PDF=23600 MemberID=36 </weight>
<weight id="1278" MUR="1.0" MUF="1.0" PDF="23637" > PDF=23600 MemberID=37 </weight>
<weight id="1279" MUR="1.0" MUF="1.0" PDF="23638" > PDF=23600 MemberID=38 </weight>
<weight id="1280" MUR="1.0" MUF="1.0" PDF="23639" > PDF=23600 MemberID=39 </weight>
<weight id="1281" MUR="1.0" MUF="1.0" PDF="23640" > PDF=23600 MemberID=40 </weight>
</weightgroup> # PDFSET -> PDFSET
<weightgroup name="MSTW2008nnlo_mbrange_nf4" combine="unknown"> # 23790: MSTW 2008 NNLO (fits for range of m_b values, evolve with 4 flavours maximum).  This set has 7 member PDFs.  mem=0 ; default m_b = 4.75 GeV; mem=1-6 ; m_b = 4.00, 4.25, 4.50, 5.00, 5.25, 5.50 GeV.  http://mstwpdf.hepforge.org
<weight id="1282" MUR="1.0" MUF="1.0" PDF="23790" > PDF=23790 MemberID=0 </weight>
<weight id="1283" MUR="1.0" MUF="1.0" PDF="23791" > PDF=23790 MemberID=1 </weight>
<weight id="1284" MUR="1.0" MUF="1.0" PDF="23792" > PDF=23790 MemberID=2 </weight>
<weight id="1285" MUR="1.0" MUF="1.0" PDF="23793" > PDF=23790 MemberID=3 </weight>
<weight id="1286" MUR="1.0" MUF="1.0" PDF="23794" > PDF=23790 MemberID=4 </weight>
<weight id="1287" MUR="1.0" MUF="1.0" PDF="23795" > PDF=23790 MemberID=5 </weight>
<weight id="1288" MUR="1.0" MUF="1.0" PDF="23796" > PDF=23790 MemberID=6 </weight>
</weightgroup> # PDFSET -> PDFSET
<weightgroup name="MMHT2014nlo68cl_nf4" combine="hessian"> # 25410: MMHT 2014 NLO (68% C.L.): evolve with 4 flavours maximum. This set has 51 member PDFs. mem=0 --.gt. central value; mem=1-50 --.gt. 20 eigenvector sets (+/- directions). Website: www.hep.ucl.ac.uk/mmht
<weight id="1289" MUR="1.0" MUF="1.0" PDF="25410" > PDF=25410 MemberID=0 </weight>
<weight id="1290" MUR="1.0" MUF="1.0" PDF="25411" > PDF=25410 MemberID=1 </weight>
<weight id="1291" MUR="1.0" MUF="1.0" PDF="25412" > PDF=25410 MemberID=2 </weight>
<weight id="1292" MUR="1.0" MUF="1.0" PDF="25413" > PDF=25410 MemberID=3 </weight>
<weight id="1293" MUR="1.0" MUF="1.0" PDF="25414" > PDF=25410 MemberID=4 </weight>
<weight id="1294" MUR="1.0" MUF="1.0" PDF="25415" > PDF=25410 MemberID=5 </weight>
<weight id="1295" MUR="1.0" MUF="1.0" PDF="25416" > PDF=25410 MemberID=6 </weight>
<weight id="1296" MUR="1.0" MUF="1.0" PDF="25417" > PDF=25410 MemberID=7 </weight>
<weight id="1297" MUR="1.0" MUF="1.0" PDF="25418" > PDF=25410 MemberID=8 </weight>
<weight id="1298" MUR="1.0" MUF="1.0" PDF="25419" > PDF=25410 MemberID=9 </weight>
<weight id="1299" MUR="1.0" MUF="1.0" PDF="25420" > PDF=25410 MemberID=10 </weight>
<weight id="1300" MUR="1.0" MUF="1.0" PDF="25421" > PDF=25410 MemberID=11 </weight>
<weight id="1301" MUR="1.0" MUF="1.0" PDF="25422" > PDF=25410 MemberID=12 </weight>
<weight id="1302" MUR="1.0" MUF="1.0" PDF="25423" > PDF=25410 MemberID=13 </weight>
<weight id="1303" MUR="1.0" MUF="1.0" PDF="25424" > PDF=25410 MemberID=14 </weight>
<weight id="1304" MUR="1.0" MUF="1.0" PDF="25425" > PDF=25410 MemberID=15 </weight>
<weight id="1305" MUR="1.0" MUF="1.0" PDF="25426" > PDF=25410 MemberID=16 </weight>
<weight id="1306" MUR="1.0" MUF="1.0" PDF="25427" > PDF=25410 MemberID=17 </weight>
<weight id="1307" MUR="1.0" MUF="1.0" PDF="25428" > PDF=25410 MemberID=18 </weight>
<weight id="1308" MUR="1.0" MUF="1.0" PDF="25429" > PDF=25410 MemberID=19 </weight>
<weight id="1309" MUR="1.0" MUF="1.0" PDF="25430" > PDF=25410 MemberID=20 </weight>
<weight id="1310" MUR="1.0" MUF="1.0" PDF="25431" > PDF=25410 MemberID=21 </weight>
<weight id="1311" MUR="1.0" MUF="1.0" PDF="25432" > PDF=25410 MemberID=22 </weight>
<weight id="1312" MUR="1.0" MUF="1.0" PDF="25433" > PDF=25410 MemberID=23 </weight>
<weight id="1313" MUR="1.0" MUF="1.0" PDF="25434" > PDF=25410 MemberID=24 </weight>
<weight id="1314" MUR="1.0" MUF="1.0" PDF="25435" > PDF=25410 MemberID=25 </weight>
<weight id="1315" MUR="1.0" MUF="1.0" PDF="25436" > PDF=25410 MemberID=26 </weight>
<weight id="1316" MUR="1.0" MUF="1.0" PDF="25437" > PDF=25410 MemberID=27 </weight>
<weight id="1317" MUR="1.0" MUF="1.0" PDF="25438" > PDF=25410 MemberID=28 </weight>
<weight id="1318" MUR="1.0" MUF="1.0" PDF="25439" > PDF=25410 MemberID=29 </weight>
<weight id="1319" MUR="1.0" MUF="1.0" PDF="25440" > PDF=25410 MemberID=30 </weight>
<weight id="1320" MUR="1.0" MUF="1.0" PDF="25441" > PDF=25410 MemberID=31 </weight>
<weight id="1321" MUR="1.0" MUF="1.0" PDF="25442" > PDF=25410 MemberID=32 </weight>
<weight id="1322" MUR="1.0" MUF="1.0" PDF="25443" > PDF=25410 MemberID=33 </weight>
<weight id="1323" MUR="1.0" MUF="1.0" PDF="25444" > PDF=25410 MemberID=34 </weight>
<weight id="1324" MUR="1.0" MUF="1.0" PDF="25445" > PDF=25410 MemberID=35 </weight>
<weight id="1325" MUR="1.0" MUF="1.0" PDF="25446" > PDF=25410 MemberID=36 </weight>
<weight id="1326" MUR="1.0" MUF="1.0" PDF="25447" > PDF=25410 MemberID=37 </weight>
<weight id="1327" MUR="1.0" MUF="1.0" PDF="25448" > PDF=25410 MemberID=38 </weight>
<weight id="1328" MUR="1.0" MUF="1.0" PDF="25449" > PDF=25410 MemberID=39 </weight>
<weight id="1329" MUR="1.0" MUF="1.0" PDF="25450" > PDF=25410 MemberID=40 </weight>
<weight id="1330" MUR="1.0" MUF="1.0" PDF="25451" > PDF=25410 MemberID=41 </weight>
<weight id="1331" MUR="1.0" MUF="1.0" PDF="25452" > PDF=25410 MemberID=42 </weight>
<weight id="1332" MUR="1.0" MUF="1.0" PDF="25453" > PDF=25410 MemberID=43 </weight>
<weight id="1333" MUR="1.0" MUF="1.0" PDF="25454" > PDF=25410 MemberID=44 </weight>
<weight id="1334" MUR="1.0" MUF="1.0" PDF="25455" > PDF=25410 MemberID=45 </weight>
<weight id="1335" MUR="1.0" MUF="1.0" PDF="25456" > PDF=25410 MemberID=46 </weight>
<weight id="1336" MUR="1.0" MUF="1.0" PDF="25457" > PDF=25410 MemberID=47 </weight>
<weight id="1337" MUR="1.0" MUF="1.0" PDF="25458" > PDF=25410 MemberID=48 </weight>
<weight id="1338" MUR="1.0" MUF="1.0" PDF="25459" > PDF=25410 MemberID=49 </weight>
<weight id="1339" MUR="1.0" MUF="1.0" PDF="25460" > PDF=25410 MemberID=50 </weight>
</weightgroup> # PDFSET -> PDFSET
<weightgroup name="MMHT2014nlo68clas118_nf4" combine="hessian"> # 25510: MMHT 2014 NLO (68% C.L.): evolve with 4 flavours maximum. This set has 51 member PDFs. mem=0 --.gt. central value; mem=1-50 --.gt. 20 eigenvector sets (+/- directions). Website: www.hep.ucl.ac.uk/mmht
<weight id="1340" MUR="1.0" MUF="1.0" PDF="25510" > PDF=25510 MemberID=0 </weight>
<weight id="1341" MUR="1.0" MUF="1.0" PDF="25511" > PDF=25510 MemberID=1 </weight>
<weight id="1342" MUR="1.0" MUF="1.0" PDF="25512" > PDF=25510 MemberID=2 </weight>
<weight id="1343" MUR="1.0" MUF="1.0" PDF="25513" > PDF=25510 MemberID=3 </weight>
<weight id="1344" MUR="1.0" MUF="1.0" PDF="25514" > PDF=25510 MemberID=4 </weight>
<weight id="1345" MUR="1.0" MUF="1.0" PDF="25515" > PDF=25510 MemberID=5 </weight>
<weight id="1346" MUR="1.0" MUF="1.0" PDF="25516" > PDF=25510 MemberID=6 </weight>
<weight id="1347" MUR="1.0" MUF="1.0" PDF="25517" > PDF=25510 MemberID=7 </weight>
<weight id="1348" MUR="1.0" MUF="1.0" PDF="25518" > PDF=25510 MemberID=8 </weight>
<weight id="1349" MUR="1.0" MUF="1.0" PDF="25519" > PDF=25510 MemberID=9 </weight>
<weight id="1350" MUR="1.0" MUF="1.0" PDF="25520" > PDF=25510 MemberID=10 </weight>
<weight id="1351" MUR="1.0" MUF="1.0" PDF="25521" > PDF=25510 MemberID=11 </weight>
<weight id="1352" MUR="1.0" MUF="1.0" PDF="25522" > PDF=25510 MemberID=12 </weight>
<weight id="1353" MUR="1.0" MUF="1.0" PDF="25523" > PDF=25510 MemberID=13 </weight>
<weight id="1354" MUR="1.0" MUF="1.0" PDF="25524" > PDF=25510 MemberID=14 </weight>
<weight id="1355" MUR="1.0" MUF="1.0" PDF="25525" > PDF=25510 MemberID=15 </weight>
<weight id="1356" MUR="1.0" MUF="1.0" PDF="25526" > PDF=25510 MemberID=16 </weight>
<weight id="1357" MUR="1.0" MUF="1.0" PDF="25527" > PDF=25510 MemberID=17 </weight>
<weight id="1358" MUR="1.0" MUF="1.0" PDF="25528" > PDF=25510 MemberID=18 </weight>
<weight id="1359" MUR="1.0" MUF="1.0" PDF="25529" > PDF=25510 MemberID=19 </weight>
<weight id="1360" MUR="1.0" MUF="1.0" PDF="25530" > PDF=25510 MemberID=20 </weight>
<weight id="1361" MUR="1.0" MUF="1.0" PDF="25531" > PDF=25510 MemberID=21 </weight>
<weight id="1362" MUR="1.0" MUF="1.0" PDF="25532" > PDF=25510 MemberID=22 </weight>
<weight id="1363" MUR="1.0" MUF="1.0" PDF="25533" > PDF=25510 MemberID=23 </weight>
<weight id="1364" MUR="1.0" MUF="1.0" PDF="25534" > PDF=25510 MemberID=24 </weight>
<weight id="1365" MUR="1.0" MUF="1.0" PDF="25535" > PDF=25510 MemberID=25 </weight>
<weight id="1366" MUR="1.0" MUF="1.0" PDF="25536" > PDF=25510 MemberID=26 </weight>
<weight id="1367" MUR="1.0" MUF="1.0" PDF="25537" > PDF=25510 MemberID=27 </weight>
<weight id="1368" MUR="1.0" MUF="1.0" PDF="25538" > PDF=25510 MemberID=28 </weight>
<weight id="1369" MUR="1.0" MUF="1.0" PDF="25539" > PDF=25510 MemberID=29 </weight>
<weight id="1370" MUR="1.0" MUF="1.0" PDF="25540" > PDF=25510 MemberID=30 </weight>
<weight id="1371" MUR="1.0" MUF="1.0" PDF="25541" > PDF=25510 MemberID=31 </weight>
<weight id="1372" MUR="1.0" MUF="1.0" PDF="25542" > PDF=25510 MemberID=32 </weight>
<weight id="1373" MUR="1.0" MUF="1.0" PDF="25543" > PDF=25510 MemberID=33 </weight>
<weight id="1374" MUR="1.0" MUF="1.0" PDF="25544" > PDF=25510 MemberID=34 </weight>
<weight id="1375" MUR="1.0" MUF="1.0" PDF="25545" > PDF=25510 MemberID=35 </weight>
<weight id="1376" MUR="1.0" MUF="1.0" PDF="25546" > PDF=25510 MemberID=36 </weight>
<weight id="1377" MUR="1.0" MUF="1.0" PDF="25547" > PDF=25510 MemberID=37 </weight>
<weight id="1378" MUR="1.0" MUF="1.0" PDF="25548" > PDF=25510 MemberID=38 </weight>
<weight id="1379" MUR="1.0" MUF="1.0" PDF="25549" > PDF=25510 MemberID=39 </weight>
<weight id="1380" MUR="1.0" MUF="1.0" PDF="25550" > PDF=25510 MemberID=40 </weight>
<weight id="1381" MUR="1.0" MUF="1.0" PDF="25551" > PDF=25510 MemberID=41 </weight>
<weight id="1382" MUR="1.0" MUF="1.0" PDF="25552" > PDF=25510 MemberID=42 </weight>
<weight id="1383" MUR="1.0" MUF="1.0" PDF="25553" > PDF=25510 MemberID=43 </weight>
<weight id="1384" MUR="1.0" MUF="1.0" PDF="25554" > PDF=25510 MemberID=44 </weight>
<weight id="1385" MUR="1.0" MUF="1.0" PDF="25555" > PDF=25510 MemberID=45 </weight>
<weight id="1386" MUR="1.0" MUF="1.0" PDF="25556" > PDF=25510 MemberID=46 </weight>
<weight id="1387" MUR="1.0" MUF="1.0" PDF="25557" > PDF=25510 MemberID=47 </weight>
<weight id="1388" MUR="1.0" MUF="1.0" PDF="25558" > PDF=25510 MemberID=48 </weight>
<weight id="1389" MUR="1.0" MUF="1.0" PDF="25559" > PDF=25510 MemberID=49 </weight>
<weight id="1390" MUR="1.0" MUF="1.0" PDF="25560" > PDF=25510 MemberID=50 </weight>
</weightgroup> # PDFSET -> PDFSET
<weightgroup name="MMHT2014nlo_asmzsmallrange_nf4" combine="unknown"> # 25570: MMHT 2014 NLO (fits for range of alpha_S values, evolve with 4 flavours maximum). This set has 5 member PDFs. mem=0 --.gt. best-fit alpha_S(M_Z) = 0.120; mem=1-4 --.gt. alpha_S(M_Z) = 0.117,...,0.121. Website: www.hep.ucl.ac.uk/mmht
<weight id="1391" MUR="1.0" MUF="1.0" PDF="25570" > PDF=25570 MemberID=0 </weight>
<weight id="1392" MUR="1.0" MUF="1.0" PDF="25571" > PDF=25570 MemberID=1 </weight>
<weight id="1393" MUR="1.0" MUF="1.0" PDF="25572" > PDF=25570 MemberID=2 </weight>
<weight id="1394" MUR="1.0" MUF="1.0" PDF="25573" > PDF=25570 MemberID=3 </weight>
<weight id="1395" MUR="1.0" MUF="1.0" PDF="25574" > PDF=25570 MemberID=4 </weight>
</weightgroup> # PDFSET -> PDFSET
<weightgroup name="MMHT2014nlo_mcrange_nf4" combine="unknown"> # 25605: MMHT 2014 NLO (range of mc, evolve with 4 flavours maximum). This set has 9 member PDFs. mem=0 --.gt. default mc = 1.40 GeV; mem=1-8 --.gt. mc = 1.15 - 1.55 GeV in steps of 0.05 GeV. Website: www.hep.ucl.ac.uk/mmht
<weight id="1396" MUR="1.0" MUF="1.0" PDF="25605" > PDF=25605 MemberID=0 </weight>
<weight id="1397" MUR="1.0" MUF="1.0" PDF="25606" > PDF=25605 MemberID=1 </weight>
<weight id="1398" MUR="1.0" MUF="1.0" PDF="25607" > PDF=25605 MemberID=2 </weight>
<weight id="1399" MUR="1.0" MUF="1.0" PDF="25608" > PDF=25605 MemberID=3 </weight>
<weight id="1400" MUR="1.0" MUF="1.0" PDF="25609" > PDF=25605 MemberID=4 </weight>
<weight id="1401" MUR="1.0" MUF="1.0" PDF="25610" > PDF=25605 MemberID=5 </weight>
<weight id="1402" MUR="1.0" MUF="1.0" PDF="25611" > PDF=25605 MemberID=6 </weight>
<weight id="1403" MUR="1.0" MUF="1.0" PDF="25612" > PDF=25605 MemberID=7 </weight>
<weight id="1404" MUR="1.0" MUF="1.0" PDF="25613" > PDF=25605 MemberID=8 </weight>
</weightgroup> # PDFSET -> PDFSET
<weightgroup name="MMHT2014nlo_mbrange_nf4" combine="unknown"> # 25620: MMHT 2014 NLO (range of mb, evolve with 4 flavours maximum). This set has 5 member PDFs. mem=0 --.gt. default mb = 4.75 GeV; mem=1-4 --.gt. mb = 4.25 - 5.25 GeV in steps of 0.25 GeV. Website: www.hep.ucl.ac.uk/mmht
<weight id="1405" MUR="1.0" MUF="1.0" PDF="25620" > PDF=25620 MemberID=0 </weight>
<weight id="1406" MUR="1.0" MUF="1.0" PDF="25621" > PDF=25620 MemberID=1 </weight>
<weight id="1407" MUR="1.0" MUF="1.0" PDF="25622" > PDF=25620 MemberID=2 </weight>
<weight id="1408" MUR="1.0" MUF="1.0" PDF="25623" > PDF=25620 MemberID=3 </weight>
<weight id="1409" MUR="1.0" MUF="1.0" PDF="25624" > PDF=25620 MemberID=4 </weight>
</weightgroup> # PDFSET -> PDFSET
<weightgroup name="MMHT2014nnlo68cl_nf4" combine="hessian"> # 25710: MMHT 2014 NNLO (68% C.L.): evolve with 4 flavours maximum. This set has 51 member PDFs. mem=0 --.gt. central value; mem=1-50 --.gt. 20 eigenvector sets (+/- directions). Website: www.hep.ucl.ac.uk/mmht
<weight id="1410" MUR="1.0" MUF="1.0" PDF="25710" > PDF=25710 MemberID=0 </weight>
<weight id="1411" MUR="1.0" MUF="1.0" PDF="25711" > PDF=25710 MemberID=1 </weight>
<weight id="1412" MUR="1.0" MUF="1.0" PDF="25712" > PDF=25710 MemberID=2 </weight>
<weight id="1413" MUR="1.0" MUF="1.0" PDF="25713" > PDF=25710 MemberID=3 </weight>
<weight id="1414" MUR="1.0" MUF="1.0" PDF="25714" > PDF=25710 MemberID=4 </weight>
<weight id="1415" MUR="1.0" MUF="1.0" PDF="25715" > PDF=25710 MemberID=5 </weight>
<weight id="1416" MUR="1.0" MUF="1.0" PDF="25716" > PDF=25710 MemberID=6 </weight>
<weight id="1417" MUR="1.0" MUF="1.0" PDF="25717" > PDF=25710 MemberID=7 </weight>
<weight id="1418" MUR="1.0" MUF="1.0" PDF="25718" > PDF=25710 MemberID=8 </weight>
<weight id="1419" MUR="1.0" MUF="1.0" PDF="25719" > PDF=25710 MemberID=9 </weight>
<weight id="1420" MUR="1.0" MUF="1.0" PDF="25720" > PDF=25710 MemberID=10 </weight>
<weight id="1421" MUR="1.0" MUF="1.0" PDF="25721" > PDF=25710 MemberID=11 </weight>
<weight id="1422" MUR="1.0" MUF="1.0" PDF="25722" > PDF=25710 MemberID=12 </weight>
<weight id="1423" MUR="1.0" MUF="1.0" PDF="25723" > PDF=25710 MemberID=13 </weight>
<weight id="1424" MUR="1.0" MUF="1.0" PDF="25724" > PDF=25710 MemberID=14 </weight>
<weight id="1425" MUR="1.0" MUF="1.0" PDF="25725" > PDF=25710 MemberID=15 </weight>
<weight id="1426" MUR="1.0" MUF="1.0" PDF="25726" > PDF=25710 MemberID=16 </weight>
<weight id="1427" MUR="1.0" MUF="1.0" PDF="25727" > PDF=25710 MemberID=17 </weight>
<weight id="1428" MUR="1.0" MUF="1.0" PDF="25728" > PDF=25710 MemberID=18 </weight>
<weight id="1429" MUR="1.0" MUF="1.0" PDF="25729" > PDF=25710 MemberID=19 </weight>
<weight id="1430" MUR="1.0" MUF="1.0" PDF="25730" > PDF=25710 MemberID=20 </weight>
<weight id="1431" MUR="1.0" MUF="1.0" PDF="25731" > PDF=25710 MemberID=21 </weight>
<weight id="1432" MUR="1.0" MUF="1.0" PDF="25732" > PDF=25710 MemberID=22 </weight>
<weight id="1433" MUR="1.0" MUF="1.0" PDF="25733" > PDF=25710 MemberID=23 </weight>
<weight id="1434" MUR="1.0" MUF="1.0" PDF="25734" > PDF=25710 MemberID=24 </weight>
<weight id="1435" MUR="1.0" MUF="1.0" PDF="25735" > PDF=25710 MemberID=25 </weight>
<weight id="1436" MUR="1.0" MUF="1.0" PDF="25736" > PDF=25710 MemberID=26 </weight>
<weight id="1437" MUR="1.0" MUF="1.0" PDF="25737" > PDF=25710 MemberID=27 </weight>
<weight id="1438" MUR="1.0" MUF="1.0" PDF="25738" > PDF=25710 MemberID=28 </weight>
<weight id="1439" MUR="1.0" MUF="1.0" PDF="25739" > PDF=25710 MemberID=29 </weight>
<weight id="1440" MUR="1.0" MUF="1.0" PDF="25740" > PDF=25710 MemberID=30 </weight>
<weight id="1441" MUR="1.0" MUF="1.0" PDF="25741" > PDF=25710 MemberID=31 </weight>
<weight id="1442" MUR="1.0" MUF="1.0" PDF="25742" > PDF=25710 MemberID=32 </weight>
<weight id="1443" MUR="1.0" MUF="1.0" PDF="25743" > PDF=25710 MemberID=33 </weight>
<weight id="1444" MUR="1.0" MUF="1.0" PDF="25744" > PDF=25710 MemberID=34 </weight>
<weight id="1445" MUR="1.0" MUF="1.0" PDF="25745" > PDF=25710 MemberID=35 </weight>
<weight id="1446" MUR="1.0" MUF="1.0" PDF="25746" > PDF=25710 MemberID=36 </weight>
<weight id="1447" MUR="1.0" MUF="1.0" PDF="25747" > PDF=25710 MemberID=37 </weight>
<weight id="1448" MUR="1.0" MUF="1.0" PDF="25748" > PDF=25710 MemberID=38 </weight>
<weight id="1449" MUR="1.0" MUF="1.0" PDF="25749" > PDF=25710 MemberID=39 </weight>
<weight id="1450" MUR="1.0" MUF="1.0" PDF="25750" > PDF=25710 MemberID=40 </weight>
<weight id="1451" MUR="1.0" MUF="1.0" PDF="25751" > PDF=25710 MemberID=41 </weight>
<weight id="1452" MUR="1.0" MUF="1.0" PDF="25752" > PDF=25710 MemberID=42 </weight>
<weight id="1453" MUR="1.0" MUF="1.0" PDF="25753" > PDF=25710 MemberID=43 </weight>
<weight id="1454" MUR="1.0" MUF="1.0" PDF="25754" > PDF=25710 MemberID=44 </weight>
<weight id="1455" MUR="1.0" MUF="1.0" PDF="25755" > PDF=25710 MemberID=45 </weight>
<weight id="1456" MUR="1.0" MUF="1.0" PDF="25756" > PDF=25710 MemberID=46 </weight>
<weight id="1457" MUR="1.0" MUF="1.0" PDF="25757" > PDF=25710 MemberID=47 </weight>
<weight id="1458" MUR="1.0" MUF="1.0" PDF="25758" > PDF=25710 MemberID=48 </weight>
<weight id="1459" MUR="1.0" MUF="1.0" PDF="25759" > PDF=25710 MemberID=49 </weight>
<weight id="1460" MUR="1.0" MUF="1.0" PDF="25760" > PDF=25710 MemberID=50 </weight>
</weightgroup> # PDFSET -> PDFSET
<weightgroup name="MMHT2014nnlo_asmzsmallrange_nf4" combine="unknown"> # 25770: MMHT 2014 NNLO (fits for range of alpha_S values, evolve with 4 flavours maximum). This set has 3 member PDFs. mem=0 --.gt. best-fit alpha_S(M_Z) = 0.118; mem=1-2 --.gt. alpha_S(M_Z) = 0.117, 0.119. Website: www.hep.ucl.ac.uk/mmht
<weight id="1461" MUR="1.0" MUF="1.0" PDF="25770" > PDF=25770 MemberID=0 </weight>
<weight id="1462" MUR="1.0" MUF="1.0" PDF="25771" > PDF=25770 MemberID=1 </weight>
<weight id="1463" MUR="1.0" MUF="1.0" PDF="25772" > PDF=25770 MemberID=2 </weight>
</weightgroup> # PDFSET -> PDFSET
<weightgroup name="MMHT2014nnlo_mcrange_nf4" combine="unknown"> # 25805: MMHT 2014 NNLO (range of mc, evolve with 4 flavours maximum). This set has 9 member PDFs. mem=0 --.gt. default mc = 1.40 GeV; mem=1-8 --.gt. mc = 1.15 - 1.55 GeV in steps of 0.05 GeV. Website: www.hep.ucl.ac.uk/mmht
<weight id="1464" MUR="1.0" MUF="1.0" PDF="25805" > PDF=25805 MemberID=0 </weight>
<weight id="1465" MUR="1.0" MUF="1.0" PDF="25806" > PDF=25805 MemberID=1 </weight>
<weight id="1466" MUR="1.0" MUF="1.0" PDF="25807" > PDF=25805 MemberID=2 </weight>
<weight id="1467" MUR="1.0" MUF="1.0" PDF="25808" > PDF=25805 MemberID=3 </weight>
<weight id="1468" MUR="1.0" MUF="1.0" PDF="25809" > PDF=25805 MemberID=4 </weight>
<weight id="1469" MUR="1.0" MUF="1.0" PDF="25810" > PDF=25805 MemberID=5 </weight>
<weight id="1470" MUR="1.0" MUF="1.0" PDF="25811" > PDF=25805 MemberID=6 </weight>
<weight id="1471" MUR="1.0" MUF="1.0" PDF="25812" > PDF=25805 MemberID=7 </weight>
<weight id="1472" MUR="1.0" MUF="1.0" PDF="25813" > PDF=25805 MemberID=8 </weight>
</weightgroup> # PDFSET -> PDFSET
<weightgroup name="MMHT2014nnlo_mbrange_nf4" combine="unknown"> # 25840: MMHT 2014 NNLO (range of mb, evolve with 4 flavours maximum). This set has 5 member PDFs. mem=0 --.gt. default mb = 4.75 GeV; mem=1-4 --.gt. mb = 4.25 - 5.25 GeV in steps of 0.25 GeV. Website: www.hep.ucl.ac.uk/mmht
<weight id="1473" MUR="1.0" MUF="1.0" PDF="25840" > PDF=25840 MemberID=0 </weight>
<weight id="1474" MUR="1.0" MUF="1.0" PDF="25841" > PDF=25840 MemberID=1 </weight>
<weight id="1475" MUR="1.0" MUF="1.0" PDF="25842" > PDF=25840 MemberID=2 </weight>
<weight id="1476" MUR="1.0" MUF="1.0" PDF="25843" > PDF=25840 MemberID=3 </weight>
<weight id="1477" MUR="1.0" MUF="1.0" PDF="25844" > PDF=25840 MemberID=4 </weight>
</weightgroup> # PDFSET -> PDFSET
<weightgroup name="PDF4LHC15_nlo_nf4_30" combine="symmhessian"> # 92000: PDF4LHC15_nlo_nf4_30, alphas(MZ)=0.1126, mem=0 ; central value; mem=1-30 ; PDF symmetric eigenvectors
<weight id="1478" MUR="1.0" MUF="1.0" PDF="92000" > PDF=92000 MemberID=0 </weight>
<weight id="1479" MUR="1.0" MUF="1.0" PDF="92001" > PDF=92000 MemberID=1 </weight>
<weight id="1480" MUR="1.0" MUF="1.0" PDF="92002" > PDF=92000 MemberID=2 </weight>
<weight id="1481" MUR="1.0" MUF="1.0" PDF="92003" > PDF=92000 MemberID=3 </weight>
<weight id="1482" MUR="1.0" MUF="1.0" PDF="92004" > PDF=92000 MemberID=4 </weight>
<weight id="1483" MUR="1.0" MUF="1.0" PDF="92005" > PDF=92000 MemberID=5 </weight>
<weight id="1484" MUR="1.0" MUF="1.0" PDF="92006" > PDF=92000 MemberID=6 </weight>
<weight id="1485" MUR="1.0" MUF="1.0" PDF="92007" > PDF=92000 MemberID=7 </weight>
<weight id="1486" MUR="1.0" MUF="1.0" PDF="92008" > PDF=92000 MemberID=8 </weight>
<weight id="1487" MUR="1.0" MUF="1.0" PDF="92009" > PDF=92000 MemberID=9 </weight>
<weight id="1488" MUR="1.0" MUF="1.0" PDF="92010" > PDF=92000 MemberID=10 </weight>
<weight id="1489" MUR="1.0" MUF="1.0" PDF="92011" > PDF=92000 MemberID=11 </weight>
<weight id="1490" MUR="1.0" MUF="1.0" PDF="92012" > PDF=92000 MemberID=12 </weight>
<weight id="1491" MUR="1.0" MUF="1.0" PDF="92013" > PDF=92000 MemberID=13 </weight>
<weight id="1492" MUR="1.0" MUF="1.0" PDF="92014" > PDF=92000 MemberID=14 </weight>
<weight id="1493" MUR="1.0" MUF="1.0" PDF="92015" > PDF=92000 MemberID=15 </weight>
<weight id="1494" MUR="1.0" MUF="1.0" PDF="92016" > PDF=92000 MemberID=16 </weight>
<weight id="1495" MUR="1.0" MUF="1.0" PDF="92017" > PDF=92000 MemberID=17 </weight>
<weight id="1496" MUR="1.0" MUF="1.0" PDF="92018" > PDF=92000 MemberID=18 </weight>
<weight id="1497" MUR="1.0" MUF="1.0" PDF="92019" > PDF=92000 MemberID=19 </weight>
<weight id="1498" MUR="1.0" MUF="1.0" PDF="92020" > PDF=92000 MemberID=20 </weight>
<weight id="1499" MUR="1.0" MUF="1.0" PDF="92021" > PDF=92000 MemberID=21 </weight>
<weight id="1500" MUR="1.0" MUF="1.0" PDF="92022" > PDF=92000 MemberID=22 </weight>
<weight id="1501" MUR="1.0" MUF="1.0" PDF="92023" > PDF=92000 MemberID=23 </weight>
<weight id="1502" MUR="1.0" MUF="1.0" PDF="92024" > PDF=92000 MemberID=24 </weight>
<weight id="1503" MUR="1.0" MUF="1.0" PDF="92025" > PDF=92000 MemberID=25 </weight>
<weight id="1504" MUR="1.0" MUF="1.0" PDF="92026" > PDF=92000 MemberID=26 </weight>
<weight id="1505" MUR="1.0" MUF="1.0" PDF="92027" > PDF=92000 MemberID=27 </weight>
<weight id="1506" MUR="1.0" MUF="1.0" PDF="92028" > PDF=92000 MemberID=28 </weight>
<weight id="1507" MUR="1.0" MUF="1.0" PDF="92029" > PDF=92000 MemberID=29 </weight>
<weight id="1508" MUR="1.0" MUF="1.0" PDF="92030" > PDF=92000 MemberID=30 </weight>
</weightgroup> # PDFSET -> PDFSET
<weightgroup name="NNPDF31_nnlo_hessian_pdfas" combine="symmhessian+as"> # 306000: Hessian conversion of NNPDF31_nnlo_as_0118_1000, mem=0 central value ; Alphas(MZ)=0.118; mem=1-100 ; PDF eig.; mem=101 ; central value Alphas(MZ)=0.116; mem=102 ; central value Alphas(MZ)=0.120
<weight id="1509" MUR="1.0" MUF="1.0" PDF="306000" > PDF=306000 MemberID=0 </weight>
<weight id="1510" MUR="1.0" MUF="1.0" PDF="306001" > PDF=306000 MemberID=1 </weight>
<weight id="1511" MUR="1.0" MUF="1.0" PDF="306002" > PDF=306000 MemberID=2 </weight>
<weight id="1512" MUR="1.0" MUF="1.0" PDF="306003" > PDF=306000 MemberID=3 </weight>
<weight id="1513" MUR="1.0" MUF="1.0" PDF="306004" > PDF=306000 MemberID=4 </weight>
<weight id="1514" MUR="1.0" MUF="1.0" PDF="306005" > PDF=306000 MemberID=5 </weight>
<weight id="1515" MUR="1.0" MUF="1.0" PDF="306006" > PDF=306000 MemberID=6 </weight>
<weight id="1516" MUR="1.0" MUF="1.0" PDF="306007" > PDF=306000 MemberID=7 </weight>
<weight id="1517" MUR="1.0" MUF="1.0" PDF="306008" > PDF=306000 MemberID=8 </weight>
<weight id="1518" MUR="1.0" MUF="1.0" PDF="306009" > PDF=306000 MemberID=9 </weight>
<weight id="1519" MUR="1.0" MUF="1.0" PDF="306010" > PDF=306000 MemberID=10 </weight>
<weight id="1520" MUR="1.0" MUF="1.0" PDF="306011" > PDF=306000 MemberID=11 </weight>
<weight id="1521" MUR="1.0" MUF="1.0" PDF="306012" > PDF=306000 MemberID=12 </weight>
<weight id="1522" MUR="1.0" MUF="1.0" PDF="306013" > PDF=306000 MemberID=13 </weight>
<weight id="1523" MUR="1.0" MUF="1.0" PDF="306014" > PDF=306000 MemberID=14 </weight>
<weight id="1524" MUR="1.0" MUF="1.0" PDF="306015" > PDF=306000 MemberID=15 </weight>
<weight id="1525" MUR="1.0" MUF="1.0" PDF="306016" > PDF=306000 MemberID=16 </weight>
<weight id="1526" MUR="1.0" MUF="1.0" PDF="306017" > PDF=306000 MemberID=17 </weight>
<weight id="1527" MUR="1.0" MUF="1.0" PDF="306018" > PDF=306000 MemberID=18 </weight>
<weight id="1528" MUR="1.0" MUF="1.0" PDF="306019" > PDF=306000 MemberID=19 </weight>
<weight id="1529" MUR="1.0" MUF="1.0" PDF="306020" > PDF=306000 MemberID=20 </weight>
<weight id="1530" MUR="1.0" MUF="1.0" PDF="306021" > PDF=306000 MemberID=21 </weight>
<weight id="1531" MUR="1.0" MUF="1.0" PDF="306022" > PDF=306000 MemberID=22 </weight>
<weight id="1532" MUR="1.0" MUF="1.0" PDF="306023" > PDF=306000 MemberID=23 </weight>
<weight id="1533" MUR="1.0" MUF="1.0" PDF="306024" > PDF=306000 MemberID=24 </weight>
<weight id="1534" MUR="1.0" MUF="1.0" PDF="306025" > PDF=306000 MemberID=25 </weight>
<weight id="1535" MUR="1.0" MUF="1.0" PDF="306026" > PDF=306000 MemberID=26 </weight>
<weight id="1536" MUR="1.0" MUF="1.0" PDF="306027" > PDF=306000 MemberID=27 </weight>
<weight id="1537" MUR="1.0" MUF="1.0" PDF="306028" > PDF=306000 MemberID=28 </weight>
<weight id="1538" MUR="1.0" MUF="1.0" PDF="306029" > PDF=306000 MemberID=29 </weight>
<weight id="1539" MUR="1.0" MUF="1.0" PDF="306030" > PDF=306000 MemberID=30 </weight>
<weight id="1540" MUR="1.0" MUF="1.0" PDF="306031" > PDF=306000 MemberID=31 </weight>
<weight id="1541" MUR="1.0" MUF="1.0" PDF="306032" > PDF=306000 MemberID=32 </weight>
<weight id="1542" MUR="1.0" MUF="1.0" PDF="306033" > PDF=306000 MemberID=33 </weight>
<weight id="1543" MUR="1.0" MUF="1.0" PDF="306034" > PDF=306000 MemberID=34 </weight>
<weight id="1544" MUR="1.0" MUF="1.0" PDF="306035" > PDF=306000 MemberID=35 </weight>
<weight id="1545" MUR="1.0" MUF="1.0" PDF="306036" > PDF=306000 MemberID=36 </weight>
<weight id="1546" MUR="1.0" MUF="1.0" PDF="306037" > PDF=306000 MemberID=37 </weight>
<weight id="1547" MUR="1.0" MUF="1.0" PDF="306038" > PDF=306000 MemberID=38 </weight>
<weight id="1548" MUR="1.0" MUF="1.0" PDF="306039" > PDF=306000 MemberID=39 </weight>
<weight id="1549" MUR="1.0" MUF="1.0" PDF="306040" > PDF=306000 MemberID=40 </weight>
<weight id="1550" MUR="1.0" MUF="1.0" PDF="306041" > PDF=306000 MemberID=41 </weight>
<weight id="1551" MUR="1.0" MUF="1.0" PDF="306042" > PDF=306000 MemberID=42 </weight>
<weight id="1552" MUR="1.0" MUF="1.0" PDF="306043" > PDF=306000 MemberID=43 </weight>
<weight id="1553" MUR="1.0" MUF="1.0" PDF="306044" > PDF=306000 MemberID=44 </weight>
<weight id="1554" MUR="1.0" MUF="1.0" PDF="306045" > PDF=306000 MemberID=45 </weight>
<weight id="1555" MUR="1.0" MUF="1.0" PDF="306046" > PDF=306000 MemberID=46 </weight>
<weight id="1556" MUR="1.0" MUF="1.0" PDF="306047" > PDF=306000 MemberID=47 </weight>
<weight id="1557" MUR="1.0" MUF="1.0" PDF="306048" > PDF=306000 MemberID=48 </weight>
<weight id="1558" MUR="1.0" MUF="1.0" PDF="306049" > PDF=306000 MemberID=49 </weight>
<weight id="1559" MUR="1.0" MUF="1.0" PDF="306050" > PDF=306000 MemberID=50 </weight>
<weight id="1560" MUR="1.0" MUF="1.0" PDF="306051" > PDF=306000 MemberID=51 </weight>
<weight id="1561" MUR="1.0" MUF="1.0" PDF="306052" > PDF=306000 MemberID=52 </weight>
<weight id="1562" MUR="1.0" MUF="1.0" PDF="306053" > PDF=306000 MemberID=53 </weight>
<weight id="1563" MUR="1.0" MUF="1.0" PDF="306054" > PDF=306000 MemberID=54 </weight>
<weight id="1564" MUR="1.0" MUF="1.0" PDF="306055" > PDF=306000 MemberID=55 </weight>
<weight id="1565" MUR="1.0" MUF="1.0" PDF="306056" > PDF=306000 MemberID=56 </weight>
<weight id="1566" MUR="1.0" MUF="1.0" PDF="306057" > PDF=306000 MemberID=57 </weight>
<weight id="1567" MUR="1.0" MUF="1.0" PDF="306058" > PDF=306000 MemberID=58 </weight>
<weight id="1568" MUR="1.0" MUF="1.0" PDF="306059" > PDF=306000 MemberID=59 </weight>
<weight id="1569" MUR="1.0" MUF="1.0" PDF="306060" > PDF=306000 MemberID=60 </weight>
<weight id="1570" MUR="1.0" MUF="1.0" PDF="306061" > PDF=306000 MemberID=61 </weight>
<weight id="1571" MUR="1.0" MUF="1.0" PDF="306062" > PDF=306000 MemberID=62 </weight>
<weight id="1572" MUR="1.0" MUF="1.0" PDF="306063" > PDF=306000 MemberID=63 </weight>
<weight id="1573" MUR="1.0" MUF="1.0" PDF="306064" > PDF=306000 MemberID=64 </weight>
<weight id="1574" MUR="1.0" MUF="1.0" PDF="306065" > PDF=306000 MemberID=65 </weight>
<weight id="1575" MUR="1.0" MUF="1.0" PDF="306066" > PDF=306000 MemberID=66 </weight>
<weight id="1576" MUR="1.0" MUF="1.0" PDF="306067" > PDF=306000 MemberID=67 </weight>
<weight id="1577" MUR="1.0" MUF="1.0" PDF="306068" > PDF=306000 MemberID=68 </weight>
<weight id="1578" MUR="1.0" MUF="1.0" PDF="306069" > PDF=306000 MemberID=69 </weight>
<weight id="1579" MUR="1.0" MUF="1.0" PDF="306070" > PDF=306000 MemberID=70 </weight>
<weight id="1580" MUR="1.0" MUF="1.0" PDF="306071" > PDF=306000 MemberID=71 </weight>
<weight id="1581" MUR="1.0" MUF="1.0" PDF="306072" > PDF=306000 MemberID=72 </weight>
<weight id="1582" MUR="1.0" MUF="1.0" PDF="306073" > PDF=306000 MemberID=73 </weight>
<weight id="1583" MUR="1.0" MUF="1.0" PDF="306074" > PDF=306000 MemberID=74 </weight>
<weight id="1584" MUR="1.0" MUF="1.0" PDF="306075" > PDF=306000 MemberID=75 </weight>
<weight id="1585" MUR="1.0" MUF="1.0" PDF="306076" > PDF=306000 MemberID=76 </weight>
<weight id="1586" MUR="1.0" MUF="1.0" PDF="306077" > PDF=306000 MemberID=77 </weight>
<weight id="1587" MUR="1.0" MUF="1.0" PDF="306078" > PDF=306000 MemberID=78 </weight>
<weight id="1588" MUR="1.0" MUF="1.0" PDF="306079" > PDF=306000 MemberID=79 </weight>
<weight id="1589" MUR="1.0" MUF="1.0" PDF="306080" > PDF=306000 MemberID=80 </weight>
<weight id="1590" MUR="1.0" MUF="1.0" PDF="306081" > PDF=306000 MemberID=81 </weight>
<weight id="1591" MUR="1.0" MUF="1.0" PDF="306082" > PDF=306000 MemberID=82 </weight>
<weight id="1592" MUR="1.0" MUF="1.0" PDF="306083" > PDF=306000 MemberID=83 </weight>
<weight id="1593" MUR="1.0" MUF="1.0" PDF="306084" > PDF=306000 MemberID=84 </weight>
<weight id="1594" MUR="1.0" MUF="1.0" PDF="306085" > PDF=306000 MemberID=85 </weight>
<weight id="1595" MUR="1.0" MUF="1.0" PDF="306086" > PDF=306000 MemberID=86 </weight>
<weight id="1596" MUR="1.0" MUF="1.0" PDF="306087" > PDF=306000 MemberID=87 </weight>
<weight id="1597" MUR="1.0" MUF="1.0" PDF="306088" > PDF=306000 MemberID=88 </weight>
<weight id="1598" MUR="1.0" MUF="1.0" PDF="306089" > PDF=306000 MemberID=89 </weight>
<weight id="1599" MUR="1.0" MUF="1.0" PDF="306090" > PDF=306000 MemberID=90 </weight>
<weight id="1600" MUR="1.0" MUF="1.0" PDF="306091" > PDF=306000 MemberID=91 </weight>
<weight id="1601" MUR="1.0" MUF="1.0" PDF="306092" > PDF=306000 MemberID=92 </weight>
<weight id="1602" MUR="1.0" MUF="1.0" PDF="306093" > PDF=306000 MemberID=93 </weight>
<weight id="1603" MUR="1.0" MUF="1.0" PDF="306094" > PDF=306000 MemberID=94 </weight>
<weight id="1604" MUR="1.0" MUF="1.0" PDF="306095" > PDF=306000 MemberID=95 </weight>
<weight id="1605" MUR="1.0" MUF="1.0" PDF="306096" > PDF=306000 MemberID=96 </weight>
<weight id="1606" MUR="1.0" MUF="1.0" PDF="306097" > PDF=306000 MemberID=97 </weight>
<weight id="1607" MUR="1.0" MUF="1.0" PDF="306098" > PDF=306000 MemberID=98 </weight>
<weight id="1608" MUR="1.0" MUF="1.0" PDF="306099" > PDF=306000 MemberID=99 </weight>
<weight id="1609" MUR="1.0" MUF="1.0" PDF="306100" > PDF=306000 MemberID=100 </weight>
<weight id="1610" MUR="1.0" MUF="1.0" PDF="306101" > PDF=306000 MemberID=101 </weight>
<weight id="1611" MUR="1.0" MUF="1.0" PDF="306102" > PDF=306000 MemberID=102 </weight>
</weightgroup> # PDFSET -> PDFSET
<weightgroup name="NNPDF31_nlo_as_0118_nf_4" combine="replicas"> # 320500: NNPDF3.1 NLO global fit, nf=4. mem=0 ; average on replicas; mem=1-100 ; PDF replicas
<weight id="1612" MUR="1.0" MUF="1.0" PDF="320500" > PDF=320500 MemberID=0 </weight>
<weight id="1613" MUR="1.0" MUF="1.0" PDF="320501" > PDF=320500 MemberID=1 </weight>
<weight id="1614" MUR="1.0" MUF="1.0" PDF="320502" > PDF=320500 MemberID=2 </weight>
<weight id="1615" MUR="1.0" MUF="1.0" PDF="320503" > PDF=320500 MemberID=3 </weight>
<weight id="1616" MUR="1.0" MUF="1.0" PDF="320504" > PDF=320500 MemberID=4 </weight>
<weight id="1617" MUR="1.0" MUF="1.0" PDF="320505" > PDF=320500 MemberID=5 </weight>
<weight id="1618" MUR="1.0" MUF="1.0" PDF="320506" > PDF=320500 MemberID=6 </weight>
<weight id="1619" MUR="1.0" MUF="1.0" PDF="320507" > PDF=320500 MemberID=7 </weight>
<weight id="1620" MUR="1.0" MUF="1.0" PDF="320508" > PDF=320500 MemberID=8 </weight>
<weight id="1621" MUR="1.0" MUF="1.0" PDF="320509" > PDF=320500 MemberID=9 </weight>
<weight id="1622" MUR="1.0" MUF="1.0" PDF="320510" > PDF=320500 MemberID=10 </weight>
<weight id="1623" MUR="1.0" MUF="1.0" PDF="320511" > PDF=320500 MemberID=11 </weight>
<weight id="1624" MUR="1.0" MUF="1.0" PDF="320512" > PDF=320500 MemberID=12 </weight>
<weight id="1625" MUR="1.0" MUF="1.0" PDF="320513" > PDF=320500 MemberID=13 </weight>
<weight id="1626" MUR="1.0" MUF="1.0" PDF="320514" > PDF=320500 MemberID=14 </weight>
<weight id="1627" MUR="1.0" MUF="1.0" PDF="320515" > PDF=320500 MemberID=15 </weight>
<weight id="1628" MUR="1.0" MUF="1.0" PDF="320516" > PDF=320500 MemberID=16 </weight>
<weight id="1629" MUR="1.0" MUF="1.0" PDF="320517" > PDF=320500 MemberID=17 </weight>
<weight id="1630" MUR="1.0" MUF="1.0" PDF="320518" > PDF=320500 MemberID=18 </weight>
<weight id="1631" MUR="1.0" MUF="1.0" PDF="320519" > PDF=320500 MemberID=19 </weight>
<weight id="1632" MUR="1.0" MUF="1.0" PDF="320520" > PDF=320500 MemberID=20 </weight>
<weight id="1633" MUR="1.0" MUF="1.0" PDF="320521" > PDF=320500 MemberID=21 </weight>
<weight id="1634" MUR="1.0" MUF="1.0" PDF="320522" > PDF=320500 MemberID=22 </weight>
<weight id="1635" MUR="1.0" MUF="1.0" PDF="320523" > PDF=320500 MemberID=23 </weight>
<weight id="1636" MUR="1.0" MUF="1.0" PDF="320524" > PDF=320500 MemberID=24 </weight>
<weight id="1637" MUR="1.0" MUF="1.0" PDF="320525" > PDF=320500 MemberID=25 </weight>
<weight id="1638" MUR="1.0" MUF="1.0" PDF="320526" > PDF=320500 MemberID=26 </weight>
<weight id="1639" MUR="1.0" MUF="1.0" PDF="320527" > PDF=320500 MemberID=27 </weight>
<weight id="1640" MUR="1.0" MUF="1.0" PDF="320528" > PDF=320500 MemberID=28 </weight>
<weight id="1641" MUR="1.0" MUF="1.0" PDF="320529" > PDF=320500 MemberID=29 </weight>
<weight id="1642" MUR="1.0" MUF="1.0" PDF="320530" > PDF=320500 MemberID=30 </weight>
<weight id="1643" MUR="1.0" MUF="1.0" PDF="320531" > PDF=320500 MemberID=31 </weight>
<weight id="1644" MUR="1.0" MUF="1.0" PDF="320532" > PDF=320500 MemberID=32 </weight>
<weight id="1645" MUR="1.0" MUF="1.0" PDF="320533" > PDF=320500 MemberID=33 </weight>
<weight id="1646" MUR="1.0" MUF="1.0" PDF="320534" > PDF=320500 MemberID=34 </weight>
<weight id="1647" MUR="1.0" MUF="1.0" PDF="320535" > PDF=320500 MemberID=35 </weight>
<weight id="1648" MUR="1.0" MUF="1.0" PDF="320536" > PDF=320500 MemberID=36 </weight>
<weight id="1649" MUR="1.0" MUF="1.0" PDF="320537" > PDF=320500 MemberID=37 </weight>
<weight id="1650" MUR="1.0" MUF="1.0" PDF="320538" > PDF=320500 MemberID=38 </weight>
<weight id="1651" MUR="1.0" MUF="1.0" PDF="320539" > PDF=320500 MemberID=39 </weight>
<weight id="1652" MUR="1.0" MUF="1.0" PDF="320540" > PDF=320500 MemberID=40 </weight>
<weight id="1653" MUR="1.0" MUF="1.0" PDF="320541" > PDF=320500 MemberID=41 </weight>
<weight id="1654" MUR="1.0" MUF="1.0" PDF="320542" > PDF=320500 MemberID=42 </weight>
<weight id="1655" MUR="1.0" MUF="1.0" PDF="320543" > PDF=320500 MemberID=43 </weight>
<weight id="1656" MUR="1.0" MUF="1.0" PDF="320544" > PDF=320500 MemberID=44 </weight>
<weight id="1657" MUR="1.0" MUF="1.0" PDF="320545" > PDF=320500 MemberID=45 </weight>
<weight id="1658" MUR="1.0" MUF="1.0" PDF="320546" > PDF=320500 MemberID=46 </weight>
<weight id="1659" MUR="1.0" MUF="1.0" PDF="320547" > PDF=320500 MemberID=47 </weight>
<weight id="1660" MUR="1.0" MUF="1.0" PDF="320548" > PDF=320500 MemberID=48 </weight>
<weight id="1661" MUR="1.0" MUF="1.0" PDF="320549" > PDF=320500 MemberID=49 </weight>
<weight id="1662" MUR="1.0" MUF="1.0" PDF="320550" > PDF=320500 MemberID=50 </weight>
<weight id="1663" MUR="1.0" MUF="1.0" PDF="320551" > PDF=320500 MemberID=51 </weight>
<weight id="1664" MUR="1.0" MUF="1.0" PDF="320552" > PDF=320500 MemberID=52 </weight>
<weight id="1665" MUR="1.0" MUF="1.0" PDF="320553" > PDF=320500 MemberID=53 </weight>
<weight id="1666" MUR="1.0" MUF="1.0" PDF="320554" > PDF=320500 MemberID=54 </weight>
<weight id="1667" MUR="1.0" MUF="1.0" PDF="320555" > PDF=320500 MemberID=55 </weight>
<weight id="1668" MUR="1.0" MUF="1.0" PDF="320556" > PDF=320500 MemberID=56 </weight>
<weight id="1669" MUR="1.0" MUF="1.0" PDF="320557" > PDF=320500 MemberID=57 </weight>
<weight id="1670" MUR="1.0" MUF="1.0" PDF="320558" > PDF=320500 MemberID=58 </weight>
<weight id="1671" MUR="1.0" MUF="1.0" PDF="320559" > PDF=320500 MemberID=59 </weight>
<weight id="1672" MUR="1.0" MUF="1.0" PDF="320560" > PDF=320500 MemberID=60 </weight>
<weight id="1673" MUR="1.0" MUF="1.0" PDF="320561" > PDF=320500 MemberID=61 </weight>
<weight id="1674" MUR="1.0" MUF="1.0" PDF="320562" > PDF=320500 MemberID=62 </weight>
<weight id="1675" MUR="1.0" MUF="1.0" PDF="320563" > PDF=320500 MemberID=63 </weight>
<weight id="1676" MUR="1.0" MUF="1.0" PDF="320564" > PDF=320500 MemberID=64 </weight>
<weight id="1677" MUR="1.0" MUF="1.0" PDF="320565" > PDF=320500 MemberID=65 </weight>
<weight id="1678" MUR="1.0" MUF="1.0" PDF="320566" > PDF=320500 MemberID=66 </weight>
<weight id="1679" MUR="1.0" MUF="1.0" PDF="320567" > PDF=320500 MemberID=67 </weight>
<weight id="1680" MUR="1.0" MUF="1.0" PDF="320568" > PDF=320500 MemberID=68 </weight>
<weight id="1681" MUR="1.0" MUF="1.0" PDF="320569" > PDF=320500 MemberID=69 </weight>
<weight id="1682" MUR="1.0" MUF="1.0" PDF="320570" > PDF=320500 MemberID=70 </weight>
<weight id="1683" MUR="1.0" MUF="1.0" PDF="320571" > PDF=320500 MemberID=71 </weight>
<weight id="1684" MUR="1.0" MUF="1.0" PDF="320572" > PDF=320500 MemberID=72 </weight>
<weight id="1685" MUR="1.0" MUF="1.0" PDF="320573" > PDF=320500 MemberID=73 </weight>
<weight id="1686" MUR="1.0" MUF="1.0" PDF="320574" > PDF=320500 MemberID=74 </weight>
<weight id="1687" MUR="1.0" MUF="1.0" PDF="320575" > PDF=320500 MemberID=75 </weight>
<weight id="1688" MUR="1.0" MUF="1.0" PDF="320576" > PDF=320500 MemberID=76 </weight>
<weight id="1689" MUR="1.0" MUF="1.0" PDF="320577" > PDF=320500 MemberID=77 </weight>
<weight id="1690" MUR="1.0" MUF="1.0" PDF="320578" > PDF=320500 MemberID=78 </weight>
<weight id="1691" MUR="1.0" MUF="1.0" PDF="320579" > PDF=320500 MemberID=79 </weight>
<weight id="1692" MUR="1.0" MUF="1.0" PDF="320580" > PDF=320500 MemberID=80 </weight>
<weight id="1693" MUR="1.0" MUF="1.0" PDF="320581" > PDF=320500 MemberID=81 </weight>
<weight id="1694" MUR="1.0" MUF="1.0" PDF="320582" > PDF=320500 MemberID=82 </weight>
<weight id="1695" MUR="1.0" MUF="1.0" PDF="320583" > PDF=320500 MemberID=83 </weight>
<weight id="1696" MUR="1.0" MUF="1.0" PDF="320584" > PDF=320500 MemberID=84 </weight>
<weight id="1697" MUR="1.0" MUF="1.0" PDF="320585" > PDF=320500 MemberID=85 </weight>
<weight id="1698" MUR="1.0" MUF="1.0" PDF="320586" > PDF=320500 MemberID=86 </weight>
<weight id="1699" MUR="1.0" MUF="1.0" PDF="320587" > PDF=320500 MemberID=87 </weight>
<weight id="1700" MUR="1.0" MUF="1.0" PDF="320588" > PDF=320500 MemberID=88 </weight>
<weight id="1701" MUR="1.0" MUF="1.0" PDF="320589" > PDF=320500 MemberID=89 </weight>
<weight id="1702" MUR="1.0" MUF="1.0" PDF="320590" > PDF=320500 MemberID=90 </weight>
<weight id="1703" MUR="1.0" MUF="1.0" PDF="320591" > PDF=320500 MemberID=91 </weight>
<weight id="1704" MUR="1.0" MUF="1.0" PDF="320592" > PDF=320500 MemberID=92 </weight>
<weight id="1705" MUR="1.0" MUF="1.0" PDF="320593" > PDF=320500 MemberID=93 </weight>
<weight id="1706" MUR="1.0" MUF="1.0" PDF="320594" > PDF=320500 MemberID=94 </weight>
<weight id="1707" MUR="1.0" MUF="1.0" PDF="320595" > PDF=320500 MemberID=95 </weight>
<weight id="1708" MUR="1.0" MUF="1.0" PDF="320596" > PDF=320500 MemberID=96 </weight>
<weight id="1709" MUR="1.0" MUF="1.0" PDF="320597" > PDF=320500 MemberID=97 </weight>
<weight id="1710" MUR="1.0" MUF="1.0" PDF="320598" > PDF=320500 MemberID=98 </weight>
<weight id="1711" MUR="1.0" MUF="1.0" PDF="320599" > PDF=320500 MemberID=99 </weight>
<weight id="1712" MUR="1.0" MUF="1.0" PDF="320600" > PDF=320500 MemberID=100 </weight>
</weightgroup> # PDFSET -> PDFSET
<weightgroup name="NNPDF30_nlo_as_0118_nf_4" combine="replicas"> # 260400: NNPDF3.0 NLO global fit, alphas(mb)=0.22278. mem=0 ; average on replicas; mem=1-100 ; PDF replicas
<weight id="1713" MUR="1.0" MUF="1.0" PDF="260400" > PDF=260400 MemberID=0 </weight>
<weight id="1714" MUR="1.0" MUF="1.0" PDF="260401" > PDF=260400 MemberID=1 </weight>
<weight id="1715" MUR="1.0" MUF="1.0" PDF="260402" > PDF=260400 MemberID=2 </weight>
<weight id="1716" MUR="1.0" MUF="1.0" PDF="260403" > PDF=260400 MemberID=3 </weight>
<weight id="1717" MUR="1.0" MUF="1.0" PDF="260404" > PDF=260400 MemberID=4 </weight>
<weight id="1718" MUR="1.0" MUF="1.0" PDF="260405" > PDF=260400 MemberID=5 </weight>
<weight id="1719" MUR="1.0" MUF="1.0" PDF="260406" > PDF=260400 MemberID=6 </weight>
<weight id="1720" MUR="1.0" MUF="1.0" PDF="260407" > PDF=260400 MemberID=7 </weight>
<weight id="1721" MUR="1.0" MUF="1.0" PDF="260408" > PDF=260400 MemberID=8 </weight>
<weight id="1722" MUR="1.0" MUF="1.0" PDF="260409" > PDF=260400 MemberID=9 </weight>
<weight id="1723" MUR="1.0" MUF="1.0" PDF="260410" > PDF=260400 MemberID=10 </weight>
<weight id="1724" MUR="1.0" MUF="1.0" PDF="260411" > PDF=260400 MemberID=11 </weight>
<weight id="1725" MUR="1.0" MUF="1.0" PDF="260412" > PDF=260400 MemberID=12 </weight>
<weight id="1726" MUR="1.0" MUF="1.0" PDF="260413" > PDF=260400 MemberID=13 </weight>
<weight id="1727" MUR="1.0" MUF="1.0" PDF="260414" > PDF=260400 MemberID=14 </weight>
<weight id="1728" MUR="1.0" MUF="1.0" PDF="260415" > PDF=260400 MemberID=15 </weight>
<weight id="1729" MUR="1.0" MUF="1.0" PDF="260416" > PDF=260400 MemberID=16 </weight>
<weight id="1730" MUR="1.0" MUF="1.0" PDF="260417" > PDF=260400 MemberID=17 </weight>
<weight id="1731" MUR="1.0" MUF="1.0" PDF="260418" > PDF=260400 MemberID=18 </weight>
<weight id="1732" MUR="1.0" MUF="1.0" PDF="260419" > PDF=260400 MemberID=19 </weight>
<weight id="1733" MUR="1.0" MUF="1.0" PDF="260420" > PDF=260400 MemberID=20 </weight>
<weight id="1734" MUR="1.0" MUF="1.0" PDF="260421" > PDF=260400 MemberID=21 </weight>
<weight id="1735" MUR="1.0" MUF="1.0" PDF="260422" > PDF=260400 MemberID=22 </weight>
<weight id="1736" MUR="1.0" MUF="1.0" PDF="260423" > PDF=260400 MemberID=23 </weight>
<weight id="1737" MUR="1.0" MUF="1.0" PDF="260424" > PDF=260400 MemberID=24 </weight>
<weight id="1738" MUR="1.0" MUF="1.0" PDF="260425" > PDF=260400 MemberID=25 </weight>
<weight id="1739" MUR="1.0" MUF="1.0" PDF="260426" > PDF=260400 MemberID=26 </weight>
<weight id="1740" MUR="1.0" MUF="1.0" PDF="260427" > PDF=260400 MemberID=27 </weight>
<weight id="1741" MUR="1.0" MUF="1.0" PDF="260428" > PDF=260400 MemberID=28 </weight>
<weight id="1742" MUR="1.0" MUF="1.0" PDF="260429" > PDF=260400 MemberID=29 </weight>
<weight id="1743" MUR="1.0" MUF="1.0" PDF="260430" > PDF=260400 MemberID=30 </weight>
<weight id="1744" MUR="1.0" MUF="1.0" PDF="260431" > PDF=260400 MemberID=31 </weight>
<weight id="1745" MUR="1.0" MUF="1.0" PDF="260432" > PDF=260400 MemberID=32 </weight>
<weight id="1746" MUR="1.0" MUF="1.0" PDF="260433" > PDF=260400 MemberID=33 </weight>
<weight id="1747" MUR="1.0" MUF="1.0" PDF="260434" > PDF=260400 MemberID=34 </weight>
<weight id="1748" MUR="1.0" MUF="1.0" PDF="260435" > PDF=260400 MemberID=35 </weight>
<weight id="1749" MUR="1.0" MUF="1.0" PDF="260436" > PDF=260400 MemberID=36 </weight>
<weight id="1750" MUR="1.0" MUF="1.0" PDF="260437" > PDF=260400 MemberID=37 </weight>
<weight id="1751" MUR="1.0" MUF="1.0" PDF="260438" > PDF=260400 MemberID=38 </weight>
<weight id="1752" MUR="1.0" MUF="1.0" PDF="260439" > PDF=260400 MemberID=39 </weight>
<weight id="1753" MUR="1.0" MUF="1.0" PDF="260440" > PDF=260400 MemberID=40 </weight>
<weight id="1754" MUR="1.0" MUF="1.0" PDF="260441" > PDF=260400 MemberID=41 </weight>
<weight id="1755" MUR="1.0" MUF="1.0" PDF="260442" > PDF=260400 MemberID=42 </weight>
<weight id="1756" MUR="1.0" MUF="1.0" PDF="260443" > PDF=260400 MemberID=43 </weight>
<weight id="1757" MUR="1.0" MUF="1.0" PDF="260444" > PDF=260400 MemberID=44 </weight>
<weight id="1758" MUR="1.0" MUF="1.0" PDF="260445" > PDF=260400 MemberID=45 </weight>
<weight id="1759" MUR="1.0" MUF="1.0" PDF="260446" > PDF=260400 MemberID=46 </weight>
<weight id="1760" MUR="1.0" MUF="1.0" PDF="260447" > PDF=260400 MemberID=47 </weight>
<weight id="1761" MUR="1.0" MUF="1.0" PDF="260448" > PDF=260400 MemberID=48 </weight>
<weight id="1762" MUR="1.0" MUF="1.0" PDF="260449" > PDF=260400 MemberID=49 </weight>
<weight id="1763" MUR="1.0" MUF="1.0" PDF="260450" > PDF=260400 MemberID=50 </weight>
<weight id="1764" MUR="1.0" MUF="1.0" PDF="260451" > PDF=260400 MemberID=51 </weight>
<weight id="1765" MUR="1.0" MUF="1.0" PDF="260452" > PDF=260400 MemberID=52 </weight>
<weight id="1766" MUR="1.0" MUF="1.0" PDF="260453" > PDF=260400 MemberID=53 </weight>
<weight id="1767" MUR="1.0" MUF="1.0" PDF="260454" > PDF=260400 MemberID=54 </weight>
<weight id="1768" MUR="1.0" MUF="1.0" PDF="260455" > PDF=260400 MemberID=55 </weight>
<weight id="1769" MUR="1.0" MUF="1.0" PDF="260456" > PDF=260400 MemberID=56 </weight>
<weight id="1770" MUR="1.0" MUF="1.0" PDF="260457" > PDF=260400 MemberID=57 </weight>
<weight id="1771" MUR="1.0" MUF="1.0" PDF="260458" > PDF=260400 MemberID=58 </weight>
<weight id="1772" MUR="1.0" MUF="1.0" PDF="260459" > PDF=260400 MemberID=59 </weight>
<weight id="1773" MUR="1.0" MUF="1.0" PDF="260460" > PDF=260400 MemberID=60 </weight>
<weight id="1774" MUR="1.0" MUF="1.0" PDF="260461" > PDF=260400 MemberID=61 </weight>
<weight id="1775" MUR="1.0" MUF="1.0" PDF="260462" > PDF=260400 MemberID=62 </weight>
<weight id="1776" MUR="1.0" MUF="1.0" PDF="260463" > PDF=260400 MemberID=63 </weight>
<weight id="1777" MUR="1.0" MUF="1.0" PDF="260464" > PDF=260400 MemberID=64 </weight>
<weight id="1778" MUR="1.0" MUF="1.0" PDF="260465" > PDF=260400 MemberID=65 </weight>
<weight id="1779" MUR="1.0" MUF="1.0" PDF="260466" > PDF=260400 MemberID=66 </weight>
<weight id="1780" MUR="1.0" MUF="1.0" PDF="260467" > PDF=260400 MemberID=67 </weight>
<weight id="1781" MUR="1.0" MUF="1.0" PDF="260468" > PDF=260400 MemberID=68 </weight>
<weight id="1782" MUR="1.0" MUF="1.0" PDF="260469" > PDF=260400 MemberID=69 </weight>
<weight id="1783" MUR="1.0" MUF="1.0" PDF="260470" > PDF=260400 MemberID=70 </weight>
<weight id="1784" MUR="1.0" MUF="1.0" PDF="260471" > PDF=260400 MemberID=71 </weight>
<weight id="1785" MUR="1.0" MUF="1.0" PDF="260472" > PDF=260400 MemberID=72 </weight>
<weight id="1786" MUR="1.0" MUF="1.0" PDF="260473" > PDF=260400 MemberID=73 </weight>
<weight id="1787" MUR="1.0" MUF="1.0" PDF="260474" > PDF=260400 MemberID=74 </weight>
<weight id="1788" MUR="1.0" MUF="1.0" PDF="260475" > PDF=260400 MemberID=75 </weight>
<weight id="1789" MUR="1.0" MUF="1.0" PDF="260476" > PDF=260400 MemberID=76 </weight>
<weight id="1790" MUR="1.0" MUF="1.0" PDF="260477" > PDF=260400 MemberID=77 </weight>
<weight id="1791" MUR="1.0" MUF="1.0" PDF="260478" > PDF=260400 MemberID=78 </weight>
<weight id="1792" MUR="1.0" MUF="1.0" PDF="260479" > PDF=260400 MemberID=79 </weight>
<weight id="1793" MUR="1.0" MUF="1.0" PDF="260480" > PDF=260400 MemberID=80 </weight>
<weight id="1794" MUR="1.0" MUF="1.0" PDF="260481" > PDF=260400 MemberID=81 </weight>
<weight id="1795" MUR="1.0" MUF="1.0" PDF="260482" > PDF=260400 MemberID=82 </weight>
<weight id="1796" MUR="1.0" MUF="1.0" PDF="260483" > PDF=260400 MemberID=83 </weight>
<weight id="1797" MUR="1.0" MUF="1.0" PDF="260484" > PDF=260400 MemberID=84 </weight>
<weight id="1798" MUR="1.0" MUF="1.0" PDF="260485" > PDF=260400 MemberID=85 </weight>
<weight id="1799" MUR="1.0" MUF="1.0" PDF="260486" > PDF=260400 MemberID=86 </weight>
<weight id="1800" MUR="1.0" MUF="1.0" PDF="260487" > PDF=260400 MemberID=87 </weight>
<weight id="1801" MUR="1.0" MUF="1.0" PDF="260488" > PDF=260400 MemberID=88 </weight>
<weight id="1802" MUR="1.0" MUF="1.0" PDF="260489" > PDF=260400 MemberID=89 </weight>
<weight id="1803" MUR="1.0" MUF="1.0" PDF="260490" > PDF=260400 MemberID=90 </weight>
<weight id="1804" MUR="1.0" MUF="1.0" PDF="260491" > PDF=260400 MemberID=91 </weight>
<weight id="1805" MUR="1.0" MUF="1.0" PDF="260492" > PDF=260400 MemberID=92 </weight>
<weight id="1806" MUR="1.0" MUF="1.0" PDF="260493" > PDF=260400 MemberID=93 </weight>
<weight id="1807" MUR="1.0" MUF="1.0" PDF="260494" > PDF=260400 MemberID=94 </weight>
<weight id="1808" MUR="1.0" MUF="1.0" PDF="260495" > PDF=260400 MemberID=95 </weight>
<weight id="1809" MUR="1.0" MUF="1.0" PDF="260496" > PDF=260400 MemberID=96 </weight>
<weight id="1810" MUR="1.0" MUF="1.0" PDF="260497" > PDF=260400 MemberID=97 </weight>
<weight id="1811" MUR="1.0" MUF="1.0" PDF="260498" > PDF=260400 MemberID=98 </weight>
<weight id="1812" MUR="1.0" MUF="1.0" PDF="260499" > PDF=260400 MemberID=99 </weight>
<weight id="1813" MUR="1.0" MUF="1.0" PDF="260500" > PDF=260400 MemberID=100 </weight>
</weightgroup> # PDFSET -> PDF
<weight id="1814" MUR="1.0" MUF="1.0" PDF="262400" > PDF=262400 MemberID=0 </weight>
<weight id="1815" MUR="1.0" MUF="1.0" PDF="263400" > PDF=263400 MemberID=0 </weight>
<weightgroup name="NNPDF30_nlo_nf_4_pdfas" combine="replicas+as"> # 292000: NNPDF3.0 NLO global fit; mem=0 to mem=100 with alphas(MZ)=0.118, mem=0 ; average on replicas 1-100; mem=1-100 ; PDF replicas with  alphas(MZ)=0.118; mem=101 ; central value for alphas=0.117; mem=102 ; central value for alphas=0.119; maximum number of active flavors NF=4
<weight id="1816" MUR="1.0" MUF="1.0" PDF="292000" > PDF=292000 MemberID=0 </weight>
<weight id="1817" MUR="1.0" MUF="1.0" PDF="292001" > PDF=292000 MemberID=1 </weight>
<weight id="1818" MUR="1.0" MUF="1.0" PDF="292002" > PDF=292000 MemberID=2 </weight>
<weight id="1819" MUR="1.0" MUF="1.0" PDF="292003" > PDF=292000 MemberID=3 </weight>
<weight id="1820" MUR="1.0" MUF="1.0" PDF="292004" > PDF=292000 MemberID=4 </weight>
<weight id="1821" MUR="1.0" MUF="1.0" PDF="292005" > PDF=292000 MemberID=5 </weight>
<weight id="1822" MUR="1.0" MUF="1.0" PDF="292006" > PDF=292000 MemberID=6 </weight>
<weight id="1823" MUR="1.0" MUF="1.0" PDF="292007" > PDF=292000 MemberID=7 </weight>
<weight id="1824" MUR="1.0" MUF="1.0" PDF="292008" > PDF=292000 MemberID=8 </weight>
<weight id="1825" MUR="1.0" MUF="1.0" PDF="292009" > PDF=292000 MemberID=9 </weight>
<weight id="1826" MUR="1.0" MUF="1.0" PDF="292010" > PDF=292000 MemberID=10 </weight>
<weight id="1827" MUR="1.0" MUF="1.0" PDF="292011" > PDF=292000 MemberID=11 </weight>
<weight id="1828" MUR="1.0" MUF="1.0" PDF="292012" > PDF=292000 MemberID=12 </weight>
<weight id="1829" MUR="1.0" MUF="1.0" PDF="292013" > PDF=292000 MemberID=13 </weight>
<weight id="1830" MUR="1.0" MUF="1.0" PDF="292014" > PDF=292000 MemberID=14 </weight>
<weight id="1831" MUR="1.0" MUF="1.0" PDF="292015" > PDF=292000 MemberID=15 </weight>
<weight id="1832" MUR="1.0" MUF="1.0" PDF="292016" > PDF=292000 MemberID=16 </weight>
<weight id="1833" MUR="1.0" MUF="1.0" PDF="292017" > PDF=292000 MemberID=17 </weight>
<weight id="1834" MUR="1.0" MUF="1.0" PDF="292018" > PDF=292000 MemberID=18 </weight>
<weight id="1835" MUR="1.0" MUF="1.0" PDF="292019" > PDF=292000 MemberID=19 </weight>
<weight id="1836" MUR="1.0" MUF="1.0" PDF="292020" > PDF=292000 MemberID=20 </weight>
<weight id="1837" MUR="1.0" MUF="1.0" PDF="292021" > PDF=292000 MemberID=21 </weight>
<weight id="1838" MUR="1.0" MUF="1.0" PDF="292022" > PDF=292000 MemberID=22 </weight>
<weight id="1839" MUR="1.0" MUF="1.0" PDF="292023" > PDF=292000 MemberID=23 </weight>
<weight id="1840" MUR="1.0" MUF="1.0" PDF="292024" > PDF=292000 MemberID=24 </weight>
<weight id="1841" MUR="1.0" MUF="1.0" PDF="292025" > PDF=292000 MemberID=25 </weight>
<weight id="1842" MUR="1.0" MUF="1.0" PDF="292026" > PDF=292000 MemberID=26 </weight>
<weight id="1843" MUR="1.0" MUF="1.0" PDF="292027" > PDF=292000 MemberID=27 </weight>
<weight id="1844" MUR="1.0" MUF="1.0" PDF="292028" > PDF=292000 MemberID=28 </weight>
<weight id="1845" MUR="1.0" MUF="1.0" PDF="292029" > PDF=292000 MemberID=29 </weight>
<weight id="1846" MUR="1.0" MUF="1.0" PDF="292030" > PDF=292000 MemberID=30 </weight>
<weight id="1847" MUR="1.0" MUF="1.0" PDF="292031" > PDF=292000 MemberID=31 </weight>
<weight id="1848" MUR="1.0" MUF="1.0" PDF="292032" > PDF=292000 MemberID=32 </weight>
<weight id="1849" MUR="1.0" MUF="1.0" PDF="292033" > PDF=292000 MemberID=33 </weight>
<weight id="1850" MUR="1.0" MUF="1.0" PDF="292034" > PDF=292000 MemberID=34 </weight>
<weight id="1851" MUR="1.0" MUF="1.0" PDF="292035" > PDF=292000 MemberID=35 </weight>
<weight id="1852" MUR="1.0" MUF="1.0" PDF="292036" > PDF=292000 MemberID=36 </weight>
<weight id="1853" MUR="1.0" MUF="1.0" PDF="292037" > PDF=292000 MemberID=37 </weight>
<weight id="1854" MUR="1.0" MUF="1.0" PDF="292038" > PDF=292000 MemberID=38 </weight>
<weight id="1855" MUR="1.0" MUF="1.0" PDF="292039" > PDF=292000 MemberID=39 </weight>
<weight id="1856" MUR="1.0" MUF="1.0" PDF="292040" > PDF=292000 MemberID=40 </weight>
<weight id="1857" MUR="1.0" MUF="1.0" PDF="292041" > PDF=292000 MemberID=41 </weight>
<weight id="1858" MUR="1.0" MUF="1.0" PDF="292042" > PDF=292000 MemberID=42 </weight>
<weight id="1859" MUR="1.0" MUF="1.0" PDF="292043" > PDF=292000 MemberID=43 </weight>
<weight id="1860" MUR="1.0" MUF="1.0" PDF="292044" > PDF=292000 MemberID=44 </weight>
<weight id="1861" MUR="1.0" MUF="1.0" PDF="292045" > PDF=292000 MemberID=45 </weight>
<weight id="1862" MUR="1.0" MUF="1.0" PDF="292046" > PDF=292000 MemberID=46 </weight>
<weight id="1863" MUR="1.0" MUF="1.0" PDF="292047" > PDF=292000 MemberID=47 </weight>
<weight id="1864" MUR="1.0" MUF="1.0" PDF="292048" > PDF=292000 MemberID=48 </weight>
<weight id="1865" MUR="1.0" MUF="1.0" PDF="292049" > PDF=292000 MemberID=49 </weight>
<weight id="1866" MUR="1.0" MUF="1.0" PDF="292050" > PDF=292000 MemberID=50 </weight>
<weight id="1867" MUR="1.0" MUF="1.0" PDF="292051" > PDF=292000 MemberID=51 </weight>
<weight id="1868" MUR="1.0" MUF="1.0" PDF="292052" > PDF=292000 MemberID=52 </weight>
<weight id="1869" MUR="1.0" MUF="1.0" PDF="292053" > PDF=292000 MemberID=53 </weight>
<weight id="1870" MUR="1.0" MUF="1.0" PDF="292054" > PDF=292000 MemberID=54 </weight>
<weight id="1871" MUR="1.0" MUF="1.0" PDF="292055" > PDF=292000 MemberID=55 </weight>
<weight id="1872" MUR="1.0" MUF="1.0" PDF="292056" > PDF=292000 MemberID=56 </weight>
<weight id="1873" MUR="1.0" MUF="1.0" PDF="292057" > PDF=292000 MemberID=57 </weight>
<weight id="1874" MUR="1.0" MUF="1.0" PDF="292058" > PDF=292000 MemberID=58 </weight>
<weight id="1875" MUR="1.0" MUF="1.0" PDF="292059" > PDF=292000 MemberID=59 </weight>
<weight id="1876" MUR="1.0" MUF="1.0" PDF="292060" > PDF=292000 MemberID=60 </weight>
<weight id="1877" MUR="1.0" MUF="1.0" PDF="292061" > PDF=292000 MemberID=61 </weight>
<weight id="1878" MUR="1.0" MUF="1.0" PDF="292062" > PDF=292000 MemberID=62 </weight>
<weight id="1879" MUR="1.0" MUF="1.0" PDF="292063" > PDF=292000 MemberID=63 </weight>
<weight id="1880" MUR="1.0" MUF="1.0" PDF="292064" > PDF=292000 MemberID=64 </weight>
<weight id="1881" MUR="1.0" MUF="1.0" PDF="292065" > PDF=292000 MemberID=65 </weight>
<weight id="1882" MUR="1.0" MUF="1.0" PDF="292066" > PDF=292000 MemberID=66 </weight>
<weight id="1883" MUR="1.0" MUF="1.0" PDF="292067" > PDF=292000 MemberID=67 </weight>
<weight id="1884" MUR="1.0" MUF="1.0" PDF="292068" > PDF=292000 MemberID=68 </weight>
<weight id="1885" MUR="1.0" MUF="1.0" PDF="292069" > PDF=292000 MemberID=69 </weight>
<weight id="1886" MUR="1.0" MUF="1.0" PDF="292070" > PDF=292000 MemberID=70 </weight>
<weight id="1887" MUR="1.0" MUF="1.0" PDF="292071" > PDF=292000 MemberID=71 </weight>
<weight id="1888" MUR="1.0" MUF="1.0" PDF="292072" > PDF=292000 MemberID=72 </weight>
<weight id="1889" MUR="1.0" MUF="1.0" PDF="292073" > PDF=292000 MemberID=73 </weight>
<weight id="1890" MUR="1.0" MUF="1.0" PDF="292074" > PDF=292000 MemberID=74 </weight>
<weight id="1891" MUR="1.0" MUF="1.0" PDF="292075" > PDF=292000 MemberID=75 </weight>
<weight id="1892" MUR="1.0" MUF="1.0" PDF="292076" > PDF=292000 MemberID=76 </weight>
<weight id="1893" MUR="1.0" MUF="1.0" PDF="292077" > PDF=292000 MemberID=77 </weight>
<weight id="1894" MUR="1.0" MUF="1.0" PDF="292078" > PDF=292000 MemberID=78 </weight>
<weight id="1895" MUR="1.0" MUF="1.0" PDF="292079" > PDF=292000 MemberID=79 </weight>
<weight id="1896" MUR="1.0" MUF="1.0" PDF="292080" > PDF=292000 MemberID=80 </weight>
<weight id="1897" MUR="1.0" MUF="1.0" PDF="292081" > PDF=292000 MemberID=81 </weight>
<weight id="1898" MUR="1.0" MUF="1.0" PDF="292082" > PDF=292000 MemberID=82 </weight>
<weight id="1899" MUR="1.0" MUF="1.0" PDF="292083" > PDF=292000 MemberID=83 </weight>
<weight id="1900" MUR="1.0" MUF="1.0" PDF="292084" > PDF=292000 MemberID=84 </weight>
<weight id="1901" MUR="1.0" MUF="1.0" PDF="292085" > PDF=292000 MemberID=85 </weight>
<weight id="1902" MUR="1.0" MUF="1.0" PDF="292086" > PDF=292000 MemberID=86 </weight>
<weight id="1903" MUR="1.0" MUF="1.0" PDF="292087" > PDF=292000 MemberID=87 </weight>
<weight id="1904" MUR="1.0" MUF="1.0" PDF="292088" > PDF=292000 MemberID=88 </weight>
<weight id="1905" MUR="1.0" MUF="1.0" PDF="292089" > PDF=292000 MemberID=89 </weight>
<weight id="1906" MUR="1.0" MUF="1.0" PDF="292090" > PDF=292000 MemberID=90 </weight>
<weight id="1907" MUR="1.0" MUF="1.0" PDF="292091" > PDF=292000 MemberID=91 </weight>
<weight id="1908" MUR="1.0" MUF="1.0" PDF="292092" > PDF=292000 MemberID=92 </weight>
<weight id="1909" MUR="1.0" MUF="1.0" PDF="292093" > PDF=292000 MemberID=93 </weight>
<weight id="1910" MUR="1.0" MUF="1.0" PDF="292094" > PDF=292000 MemberID=94 </weight>
<weight id="1911" MUR="1.0" MUF="1.0" PDF="292095" > PDF=292000 MemberID=95 </weight>
<weight id="1912" MUR="1.0" MUF="1.0" PDF="292096" > PDF=292000 MemberID=96 </weight>
<weight id="1913" MUR="1.0" MUF="1.0" PDF="292097" > PDF=292000 MemberID=97 </weight>
<weight id="1914" MUR="1.0" MUF="1.0" PDF="292098" > PDF=292000 MemberID=98 </weight>
<weight id="1915" MUR="1.0" MUF="1.0" PDF="292099" > PDF=292000 MemberID=99 </weight>
<weight id="1916" MUR="1.0" MUF="1.0" PDF="292100" > PDF=292000 MemberID=100 </weight>
<weight id="1917" MUR="1.0" MUF="1.0" PDF="292101" > PDF=292000 MemberID=101 </weight>
<weight id="1918" MUR="1.0" MUF="1.0" PDF="292102" > PDF=292000 MemberID=102 </weight>
</weightgroup> # PDFSET -> PDF
<weight id="1919" MUR="1.0" MUF="1.0" PDF="292400" > PDF=292400 MemberID=0 </weight>
]]>
</initrwgt>
</header>
<init>
2212     2212  0.65000000000E+04  0.65000000000E+04 0 0  320900  320900  3   1
  0.14475492500E-09  0.19078799369E-11  0.15594000000E-11   1
<generator name='MadGraph5_aMC@NLO' version='#2.6.0'>please cite 1405.0301 </generator>
</init>
<event>
 9      1 +1.5607000e-12 2.60871700e+01 7.81860800e-03 1.49291000e-01
        4 -1    0    0  502    0 -0.0000000000e+00 +0.0000000000e+00 +4.1812836710e+01 4.1836941974e+01 0.0000000000e+00 0.0000e+00 -1.0000e+00
       21 -1    0    0  501  502 +0.0000000000e+00 -0.0000000000e+00 -2.4086520239e+01 2.4086520239e+01 1.4200000000e+00 0.0000e+00 1.0000e+00
     1023  2    1    2    0    0 -1.9356565188e+01 +8.9944018630e+00 +3.1179407533e+01 4.0653362493e+01 1.4998818191e+01 0.0000e+00 0.0000e+00
  1000023  2    3    3    0    0 -1.4013246093e+01 +5.3226121493e+00 +2.7222917981e+01 3.1560128292e+01 5.5002880164e+00 0.0000e+00 0.0000e+00
        4  1    1    2  501    0 +1.9356565188e+01 -8.9944018630e+00 -1.3453091062e+01 2.5270099720e+01 1.4200000000e+00 0.0000e+00 -1.0000e+00
  1000022  1    4    4    0    0 -1.3537547552e+01 +5.4648345559e+00 +2.6650899966e+01 3.0796104939e+01 5.0000000000e+00 0.0000e+00 1.0000e+00
      -11  1    4    4    0    0 -3.1715061957e-01 -5.3003213922e-02 +4.0434252848e-01 5.1661107000e-01 5.1100000000e-04 0.0000e+00 1.0000e+00
       11  1    4    4    0    0 -1.5854792174e-01 -8.9219192602e-02 +1.6767548669e-01 2.4741228299e-01 5.1100000000e-04 0.0000e+00 -1.0000e+00
  1000022  1    3    3    0    0 -5.3433190952e+00 +3.6717897136e+00 +3.9564895520e+00 9.0932342007e+00 5.0000000000e+00 0.0000e+00 1.0000e+00
<mgrwt>
<rscale>  1 0.26087170E+02</rscale>
<asrwt>0</asrwt>
<pdfrwt beam="1">  1       21 0.37056194E-02 0.26087170E+02</pdfrwt>
<pdfrwt beam="2">  1        4 0.64378165E-02 0.26087170E+02</pdfrwt>
<totfact> 0.23253208E+06</totfact>
</mgrwt>
<rwgt>
<wgt id='1001'> +1.5607000e-12 </wgt>
<wgt id='1002'> +1.6953884e-12 </wgt>
<wgt id='1003'> +1.7003870e-12 </wgt>
<wgt id='1004'> +1.5188281e-12 </wgt>
<wgt id='1005'> +1.7623162e-12 </wgt>
<wgt id='1006'> +1.3602380e-12 </wgt>
<wgt id='1007'> +1.4983933e-12 </wgt>
<wgt id='1008'> +1.5036465e-12 </wgt>
<wgt id='1009'> +1.3183144e-12 </wgt>
<wgt id='1010'> +1.5697932e-12 </wgt>
<wgt id='1011'> +1.8340169e-12 </wgt>
<wgt id='1012'> +1.9547164e-12 </wgt>
<wgt id='1013'> +1.9590134e-12 </wgt>
<wgt id='1014'> +1.7951172e-12 </wgt>
<wgt id='1015'> +2.0109270e-12 </wgt>
<wgt id='1016'> +1.9821242e-12 </wgt>
<wgt id='1017'> +2.0495260e-12 </wgt>
<wgt id='1018'> +2.0518094e-12 </wgt>
<wgt id='1019'> +1.9590134e-12 </wgt>
<wgt id='1020'> +2.0780999e-12 </wgt>
<wgt id='1021'> +1.7275330e-12 </wgt>
<wgt id='1022'> +1.8113821e-12 </wgt>
<wgt id='1023'> +1.8144081e-12 </wgt>
<wgt id='1024'> +1.7003870e-12 </wgt>
<wgt id='1025'> +1.8510793e-12 </wgt>
<wgt id='1026'> +2.3292428e-12 </wgt>
<wgt id='1027'> +2.3630232e-12 </wgt>
<wgt id='1028'> +2.3638867e-12 </wgt>
<wgt id='1029'> +2.3153763e-12 </wgt>
<wgt id='1030'> +2.3712585e-12 </wgt>
<wgt id='1031'> +1.1129742e-12 </wgt>
<wgt id='1032'> +1.3106630e-12 </wgt>
<wgt id='1033'> +1.3183144e-12 </wgt>
<wgt id='1034'> +1.0536357e-12 </wgt>
<wgt id='1035'> +1.4162654e-12 </wgt>
<wgt id='1036'> +9.7001973e-13 </wgt>
<wgt id='1037'> +1.1583710e-12 </wgt>
<wgt id='1038'> +1.1657810e-12 </wgt>
<wgt id='1039'> +9.1453605e-13 </wgt>
<wgt id='1040'> +1.2615465e-12 </wgt>
<wgt id='1041'> +1.3078833e-12 </wgt>
<wgt id='1042'> +1.5111431e-12 </wgt>
<wgt id='1043'> +1.5188281e-12 </wgt>
<wgt id='1044'> +1.2453019e-12 </wgt>
<wgt id='1045'> +1.6160587e-12 </wgt>
<wgt id='1046'> +1.5607000e-12 </wgt>
<wgt id='1047'> +1.4838875e-12 </wgt>
<wgt id='1048'> +1.5811278e-12 </wgt>
<wgt id='1049'> +1.5975879e-12 </wgt>
<wgt id='1050'> +1.5561744e-12 </wgt>
<wgt id='1051'> +1.5872202e-12 </wgt>
<wgt id='1052'> +1.4626829e-12 </wgt>
<wgt id='1053'> +1.5801629e-12 </wgt>
<wgt id='1054'> +1.6107830e-12 </wgt>
<wgt id='1055'> +1.6299539e-12 </wgt>
<wgt id='1056'> +1.5985748e-12 </wgt>
<wgt id='1057'> +1.5544660e-12 </wgt>
<wgt id='1058'> +1.5340345e-12 </wgt>
<wgt id='1059'> +1.5777386e-12 </wgt>
<wgt id='1060'> +1.5194462e-12 </wgt>
<wgt id='1061'> +1.5987375e-12 </wgt>
<wgt id='1062'> +1.5754244e-12 </wgt>
<wgt id='1063'> +1.6144615e-12 </wgt>
<wgt id='1064'> +1.5581624e-12 </wgt>
<wgt id='1065'> +1.5618740e-12 </wgt>
<wgt id='1066'> +1.6376009e-12 </wgt>
<wgt id='1067'> +1.5843833e-12 </wgt>
<wgt id='1068'> +1.5597420e-12 </wgt>
<wgt id='1069'> +1.5568065e-12 </wgt>
<wgt id='1070'> +1.5673693e-12 </wgt>
<wgt id='1071'> +1.5864771e-12 </wgt>
<wgt id='1072'> +1.6196555e-12 </wgt>
<wgt id='1073'> +1.5682936e-12 </wgt>
<wgt id='1074'> +1.5215797e-12 </wgt>
<wgt id='1075'> +1.5582530e-12 </wgt>
<wgt id='1076'> +1.5690464e-12 </wgt>
<wgt id='1077'> +1.5128033e-12 </wgt>
<wgt id='1078'> +1.5638161e-12 </wgt>
<wgt id='1079'> +1.5126961e-12 </wgt>
<wgt id='1080'> +1.5265776e-12 </wgt>
<wgt id='1081'> +1.5796623e-12 </wgt>
<wgt id='1082'> +1.5502751e-12 </wgt>
<wgt id='1083'> +1.6140401e-12 </wgt>
<wgt id='1084'> +1.5882957e-12 </wgt>
<wgt id='1085'> +1.5125929e-12 </wgt>
<wgt id='1086'> +1.5300436e-12 </wgt>
<wgt id='1087'> +1.5612383e-12 </wgt>
<wgt id='1088'> +1.4725180e-12 </wgt>
<wgt id='1089'> +1.5072448e-12 </wgt>
<wgt id='1090'> +1.4807640e-12 </wgt>
<wgt id='1091'> +1.5332780e-12 </wgt>
<wgt id='1092'> +1.5334275e-12 </wgt>
<wgt id='1093'> +1.4888266e-12 </wgt>
<wgt id='1094'> +1.5706727e-12 </wgt>
<wgt id='1095'> +1.5325555e-12 </wgt>
<wgt id='1096'> +1.5738437e-12 </wgt>
<wgt id='1097'> +1.5135740e-12 </wgt>
<wgt id='1098'> +1.6266538e-12 </wgt>
<wgt id='1099'> +1.5502190e-12 </wgt>
<wgt id='1100'> +1.5138258e-12 </wgt>
<wgt id='1101'> +1.5381505e-12 </wgt>
<wgt id='1102'> +1.5454359e-12 </wgt>
<wgt id='1103'> +1.5423227e-12 </wgt>
<wgt id='1104'> +1.5954723e-12 </wgt>
<wgt id='1105'> +1.6167854e-12 </wgt>
<wgt id='1106'> +1.5609739e-12 </wgt>
<wgt id='1107'> +1.5404493e-12 </wgt>
<wgt id='1108'> +1.5882032e-12 </wgt>
<wgt id='1109'> +1.5695452e-12 </wgt>
<wgt id='1110'> +1.5617343e-12 </wgt>
<wgt id='1111'> +1.5588824e-12 </wgt>
<wgt id='1112'> +1.4489901e-12 </wgt>
<wgt id='1113'> +1.4600435e-12 </wgt>
<wgt id='1114'> +1.5993545e-12 </wgt>
<wgt id='1115'> +1.5444226e-12 </wgt>
<wgt id='1116'> +1.5556216e-12 </wgt>
<wgt id='1117'> +1.6282369e-12 </wgt>
<wgt id='1118'> +1.5597859e-12 </wgt>
<wgt id='1119'> +1.6488493e-12 </wgt>
<wgt id='1120'> +1.6443920e-12 </wgt>
<wgt id='1121'> +1.5491884e-12 </wgt>
<wgt id='1122'> +1.4917820e-12 </wgt>
<wgt id='1123'> +1.6427572e-12 </wgt>
<wgt id='1124'> +1.5417903e-12 </wgt>
<wgt id='1125'> +1.5796802e-12 </wgt>
<wgt id='1126'> +1.4952347e-12 </wgt>
<wgt id='1127'> +1.5260927e-12 </wgt>
<wgt id='1128'> +1.5754244e-12 </wgt>
<wgt id='1129'> +1.5055185e-12 </wgt>
<wgt id='1130'> +1.6069004e-12 </wgt>
<wgt id='1131'> +1.5916369e-12 </wgt>
<wgt id='1132'> +1.4547290e-12 </wgt>
<wgt id='1133'> +1.5638948e-12 </wgt>
<wgt id='1134'> +1.5408535e-12 </wgt>
<wgt id='1135'> +1.6953106e-12 </wgt>
<wgt id='1136'> +1.5123583e-12 </wgt>
<wgt id='1137'> +1.5300257e-12 </wgt>
<wgt id='1138'> +1.6112807e-12 </wgt>
<wgt id='1139'> +1.5972504e-12 </wgt>
<wgt id='1140'> +1.5928162e-12 </wgt>
<wgt id='1141'> +1.5700429e-12 </wgt>
<wgt id='1142'> +1.5356159e-12 </wgt>
<wgt id='1143'> +1.5029154e-12 </wgt>
<wgt id='1144'> +1.6260079e-12 </wgt>
<wgt id='1145'> +1.6499635e-12 </wgt>
<wgt id='1146'> +1.6283432e-12 </wgt>
<wgt id='1147'> +1.2737368e-12 </wgt>
<wgt id='1148'> +1.3152924e-12 </wgt>
<wgt id='1149'> +1.2629613e-12 </wgt>
<wgt id='1150'> +1.2895976e-12 </wgt>
<wgt id='1151'> +1.0720770e-12 </wgt>
<wgt id='1152'> +1.5340516e-12 </wgt>
<wgt id='1153'> +1.5265734e-12 </wgt>
<wgt id='1154'> +1.5384248e-12 </wgt>
<wgt id='1155'> +1.5347869e-12 </wgt>
<wgt id='1156'> +1.5336548e-12 </wgt>
<wgt id='1157'> +1.5305965e-12 </wgt>
<wgt id='1158'> +1.5385869e-12 </wgt>
<wgt id='1159'> +1.5311467e-12 </wgt>
<wgt id='1160'> +1.5358381e-12 </wgt>
<wgt id='1161'> +1.5248735e-12 </wgt>
<wgt id='1162'> +1.5402419e-12 </wgt>
<wgt id='1163'> +1.5384416e-12 </wgt>
<wgt id='1164'> +1.5297242e-12 </wgt>
<wgt id='1165'> +1.5162197e-12 </wgt>
<wgt id='1166'> +1.5514244e-12 </wgt>
<wgt id='1167'> +1.5528202e-12 </wgt>
<wgt id='1168'> +1.5092101e-12 </wgt>
<wgt id='1169'> +1.5406785e-12 </wgt>
<wgt id='1170'> +1.5290216e-12 </wgt>
<wgt id='1171'> +1.5301043e-12 </wgt>
<wgt id='1172'> +1.5388846e-12 </wgt>
<wgt id='1173'> +1.5192409e-12 </wgt>
<wgt id='1174'> +1.5485687e-12 </wgt>
<wgt id='1175'> +1.5380083e-12 </wgt>
<wgt id='1176'> +1.5296946e-12 </wgt>
<wgt id='1177'> +1.5347037e-12 </wgt>
<wgt id='1178'> +1.5325007e-12 </wgt>
<wgt id='1179'> +1.5457249e-12 </wgt>
<wgt id='1180'> +1.5158937e-12 </wgt>
<wgt id='1181'> +1.5286974e-12 </wgt>
<wgt id='1182'> +1.5391568e-12 </wgt>
<wgt id='1183'> +1.5331647e-12 </wgt>
<wgt id='1184'> +1.5341579e-12 </wgt>
<wgt id='1185'> +1.5329730e-12 </wgt>
<wgt id='1186'> +1.5345484e-12 </wgt>
<wgt id='1187'> +1.5332287e-12 </wgt>
<wgt id='1188'> +1.5342488e-12 </wgt>
<wgt id='1189'> +1.5254475e-12 </wgt>
<wgt id='1190'> +1.5236986e-12 </wgt>
<wgt id='1191'> +1.5250765e-12 </wgt>
<wgt id='1192'> +1.5373376e-12 </wgt>
<wgt id='1193'> +1.3092547e-12 </wgt>
<wgt id='1194'> +1.3081872e-12 </wgt>
<wgt id='1195'> +1.3100391e-12 </wgt>
<wgt id='1196'> +1.3118767e-12 </wgt>
<wgt id='1197'> +1.3061977e-12 </wgt>
<wgt id='1198'> +1.3121880e-12 </wgt>
<wgt id='1199'> +1.3048718e-12 </wgt>
<wgt id='1200'> +1.3110249e-12 </wgt>
<wgt id='1201'> +1.3080842e-12 </wgt>
<wgt id='1202'> +1.3051830e-12 </wgt>
<wgt id='1203'> +1.3149868e-12 </wgt>
<wgt id='1204'> +1.2856710e-12 </wgt>
<wgt id='1205'> +1.3238314e-12 </wgt>
<wgt id='1206'> +1.3161136e-12 </wgt>
<wgt id='1207'> +1.2998938e-12 </wgt>
<wgt id='1208'> +1.2998520e-12 </wgt>
<wgt id='1209'> +1.3126715e-12 </wgt>
<wgt id='1210'> +1.3139995e-12 </wgt>
<wgt id='1211'> +1.2937887e-12 </wgt>
<wgt id='1212'> +1.3065605e-12 </wgt>
<wgt id='1213'> +1.3116458e-12 </wgt>
<wgt id='1214'> +1.2938989e-12 </wgt>
<wgt id='1215'> +1.3336136e-12 </wgt>
<wgt id='1216'> +1.3205054e-12 </wgt>
<wgt id='1217'> +1.3017057e-12 </wgt>
<wgt id='1218'> +1.3186813e-12 </wgt>
<wgt id='1219'> +1.3043840e-12 </wgt>
<wgt id='1220'> +1.3148932e-12 </wgt>
<wgt id='1221'> +1.3080313e-12 </wgt>
<wgt id='1222'> +1.3082108e-12 </wgt>
<wgt id='1223'> +1.3141928e-12 </wgt>
<wgt id='1224'> +1.3111982e-12 </wgt>
<wgt id='1225'> +1.3084076e-12 </wgt>
<wgt id='1226'> +1.3099579e-12 </wgt>
<wgt id='1227'> +1.3088692e-12 </wgt>
<wgt id='1228'> +1.3032190e-12 </wgt>
<wgt id='1229'> +1.3121123e-12 </wgt>
<wgt id='1230'> +1.3023471e-12 </wgt>
<wgt id='1231'> +1.3011003e-12 </wgt>
<wgt id='1232'> +1.3046985e-12 </wgt>
<wgt id='1233'> +1.3104276e-12 </wgt>
<wgt id='1234'> +1.3092547e-12 </wgt>
<wgt id='1235'> +1.2956796e-12 </wgt>
<wgt id='1236'> +1.3007477e-12 </wgt>
<wgt id='1237'> +1.3051588e-12 </wgt>
<wgt id='1238'> +1.3130228e-12 </wgt>
<wgt id='1239'> +1.3162009e-12 </wgt>
<wgt id='1240'> +1.3192936e-12 </wgt>
<wgt id='1241'> +1.2332044e-12 </wgt>
<wgt id='1242'> +1.2266311e-12 </wgt>
<wgt id='1243'> +1.2397668e-12 </wgt>
<wgt id='1244'> +1.2264991e-12 </wgt>
<wgt id='1245'> +1.2381761e-12 </wgt>
<wgt id='1246'> +1.2349282e-12 </wgt>
<wgt id='1247'> +1.2318130e-12 </wgt>
<wgt id='1248'> +1.2331398e-12 </wgt>
<wgt id='1249'> +1.2334002e-12 </wgt>
<wgt id='1250'> +1.2289150e-12 </wgt>
<wgt id='1251'> +1.2363140e-12 </wgt>
<wgt id='1252'> +1.2295060e-12 </wgt>
<wgt id='1253'> +1.2361084e-12 </wgt>
<wgt id='1254'> +1.2108875e-12 </wgt>
<wgt id='1255'> +1.2467338e-12 </wgt>
<wgt id='1256'> +1.2393988e-12 </wgt>
<wgt id='1257'> +1.2177363e-12 </wgt>
<wgt id='1258'> +1.2532320e-12 </wgt>
<wgt id='1259'> +1.2133409e-12 </wgt>
<wgt id='1260'> +1.2392432e-12 </wgt>
<wgt id='1261'> +1.2264081e-12 </wgt>
<wgt id='1262'> +1.2377425e-12 </wgt>
<wgt id='1263'> +1.2311940e-12 </wgt>
<wgt id='1264'> +1.2461385e-12 </wgt>
<wgt id='1265'> +1.2270673e-12 </wgt>
<wgt id='1266'> +1.2261855e-12 </wgt>
<wgt id='1267'> +1.2410938e-12 </wgt>
<wgt id='1268'> +1.2341885e-12 </wgt>
<wgt id='1269'> +1.2368844e-12 </wgt>
<wgt id='1270'> +1.2217450e-12 </wgt>
<wgt id='1271'> +1.2243728e-12 </wgt>
<wgt id='1272'> +1.2338076e-12 </wgt>
<wgt id='1273'> +1.2321996e-12 </wgt>
<wgt id='1274'> +1.2339142e-12 </wgt>
<wgt id='1275'> +1.2305274e-12 </wgt>
<wgt id='1276'> +1.2356778e-12 </wgt>
<wgt id='1277'> +1.2299072e-12 </wgt>
<wgt id='1278'> +1.2325599e-12 </wgt>
<wgt id='1279'> +1.2292145e-12 </wgt>
<wgt id='1280'> +1.2346929e-12 </wgt>
<wgt id='1281'> +1.2265333e-12 </wgt>
<wgt id='1282'> +1.2332044e-12 </wgt>
<wgt id='1283'> +1.2203260e-12 </wgt>
<wgt id='1284'> +1.2252162e-12 </wgt>
<wgt id='1285'> +1.2296558e-12 </wgt>
<wgt id='1286'> +1.2370745e-12 </wgt>
<wgt id='1287'> +1.2400057e-12 </wgt>
<wgt id='1288'> +1.2426275e-12 </wgt>
<wgt id='1289'> +1.3466391e-12 </wgt>
<wgt id='1290'> +1.3482958e-12 </wgt>
<wgt id='1291'> +1.3447960e-12 </wgt>
<wgt id='1292'> +1.3472345e-12 </wgt>
<wgt id='1293'> +1.3461046e-12 </wgt>
<wgt id='1294'> +1.3472980e-12 </wgt>
<wgt id='1295'> +1.3458332e-12 </wgt>
<wgt id='1296'> +1.3407068e-12 </wgt>
<wgt id='1297'> +1.3539174e-12 </wgt>
<wgt id='1298'> +1.3556851e-12 </wgt>
<wgt id='1299'> +1.3352180e-12 </wgt>
<wgt id='1300'> +1.3511918e-12 </wgt>
<wgt id='1301'> +1.3372838e-12 </wgt>
<wgt id='1302'> +1.3450735e-12 </wgt>
<wgt id='1303'> +1.3485899e-12 </wgt>
<wgt id='1304'> +1.3410550e-12 </wgt>
<wgt id='1305'> +1.3504778e-12 </wgt>
<wgt id='1306'> +1.3359820e-12 </wgt>
<wgt id='1307'> +1.3586247e-12 </wgt>
<wgt id='1308'> +1.3460333e-12 </wgt>
<wgt id='1309'> +1.3470519e-12 </wgt>
<wgt id='1310'> +1.3426555e-12 </wgt>
<wgt id='1311'> +1.3509341e-12 </wgt>
<wgt id='1312'> +1.3378489e-12 </wgt>
<wgt id='1313'> +1.3556062e-12 </wgt>
<wgt id='1314'> +1.3599624e-12 </wgt>
<wgt id='1315'> +1.3255026e-12 </wgt>
<wgt id='1316'> +1.3532895e-12 </wgt>
<wgt id='1317'> +1.3471416e-12 </wgt>
<wgt id='1318'> +1.3637062e-12 </wgt>
<wgt id='1319'> +1.3268555e-12 </wgt>
<wgt id='1320'> +1.3578747e-12 </wgt>
<wgt id='1321'> +1.3367926e-12 </wgt>
<wgt id='1322'> +1.3481652e-12 </wgt>
<wgt id='1323'> +1.3443747e-12 </wgt>
<wgt id='1324'> +1.3446099e-12 </wgt>
<wgt id='1325'> +1.3555883e-12 </wgt>
<wgt id='1326'> +1.3504335e-12 </wgt>
<wgt id='1327'> +1.3458600e-12 </wgt>
<wgt id='1328'> +1.3458575e-12 </wgt>
<wgt id='1329'> +1.3470939e-12 </wgt>
<wgt id='1330'> +1.3457106e-12 </wgt>
<wgt id='1331'> +1.3480938e-12 </wgt>
<wgt id='1332'> +1.3757598e-12 </wgt>
<wgt id='1333'> +1.3347905e-12 </wgt>
<wgt id='1334'> +1.3444230e-12 </wgt>
<wgt id='1335'> +1.3525490e-12 </wgt>
<wgt id='1336'> +1.3358438e-12 </wgt>
<wgt id='1337'> +1.3510174e-12 </wgt>
<wgt id='1338'> +1.3433234e-12 </wgt>
<wgt id='1339'> +1.3480099e-12 </wgt>
<wgt id='1340'> +1.3153166e-12 </wgt>
<wgt id='1341'> +1.3170899e-12 </wgt>
<wgt id='1342'> +1.3134754e-12 </wgt>
<wgt id='1343'> +1.3160470e-12 </wgt>
<wgt id='1344'> +1.3148942e-12 </wgt>
<wgt id='1345'> +1.3159489e-12 </wgt>
<wgt id='1346'> +1.3147813e-12 </wgt>
<wgt id='1347'> +1.3094413e-12 </wgt>
<wgt id='1348'> +1.3219067e-12 </wgt>
<wgt id='1349'> +1.3237993e-12 </wgt>
<wgt id='1350'> +1.3071626e-12 </wgt>
<wgt id='1351'> +1.3199846e-12 </wgt>
<wgt id='1352'> +1.3052443e-12 </wgt>
<wgt id='1353'> +1.3129759e-12 </wgt>
<wgt id='1354'> +1.3196430e-12 </wgt>
<wgt id='1355'> +1.3097953e-12 </wgt>
<wgt id='1356'> +1.3185456e-12 </wgt>
<wgt id='1357'> +1.3040455e-12 </wgt>
<wgt id='1358'> +1.3286878e-12 </wgt>
<wgt id='1359'> +1.3172752e-12 </wgt>
<wgt id='1360'> +1.3137314e-12 </wgt>
<wgt id='1361'> +1.3113236e-12 </wgt>
<wgt id='1362'> +1.3207641e-12 </wgt>
<wgt id='1363'> +1.3026520e-12 </wgt>
<wgt id='1364'> +1.3244449e-12 </wgt>
<wgt id='1365'> +1.2966799e-12 </wgt>
<wgt id='1366'> +1.3284131e-12 </wgt>
<wgt id='1367'> +1.3212426e-12 </wgt>
<wgt id='1368'> +1.3156315e-12 </wgt>
<wgt id='1369'> +1.3295550e-12 </wgt>
<wgt id='1370'> +1.2987209e-12 </wgt>
<wgt id='1371'> +1.3243605e-12 </wgt>
<wgt id='1372'> +1.3043707e-12 </wgt>
<wgt id='1373'> +1.3162404e-12 </wgt>
<wgt id='1374'> +1.3140816e-12 </wgt>
<wgt id='1375'> +1.3133351e-12 </wgt>
<wgt id='1376'> +1.3247665e-12 </wgt>
<wgt id='1377'> +1.3188333e-12 </wgt>
<wgt id='1378'> +1.3153583e-12 </wgt>
<wgt id='1379'> +1.3144467e-12 </wgt>
<wgt id='1380'> +1.3162275e-12 </wgt>
<wgt id='1381'> +1.3158537e-12 </wgt>
<wgt id='1382'> +1.3152041e-12 </wgt>
<wgt id='1383'> +1.3422225e-12 </wgt>
<wgt id='1384'> +1.3045896e-12 </wgt>
<wgt id='1385'> +1.3137245e-12 </wgt>
<wgt id='1386'> +1.3197762e-12 </wgt>
<wgt id='1387'> +1.3022121e-12 </wgt>
<wgt id='1388'> +1.3203817e-12 </wgt>
<wgt id='1389'> +1.3091126e-12 </wgt>
<wgt id='1390'> +1.3177269e-12 </wgt>
<wgt id='1391'> +1.3027630e-12 </wgt>
<wgt id='1392'> +1.2584259e-12 </wgt>
<wgt id='1393'> +1.2735177e-12 </wgt>
<wgt id='1394'> +1.2882684e-12 </wgt>
<wgt id='1395'> +1.3168352e-12 </wgt>
<wgt id='1396'> +1.3025954e-12 </wgt>
<wgt id='1397'> +1.3660827e-12 </wgt>
<wgt id='1398'> +1.3515240e-12 </wgt>
<wgt id='1399'> +1.3381060e-12 </wgt>
<wgt id='1400'> +1.3258115e-12 </wgt>
<wgt id='1401'> +1.3139133e-12 </wgt>
<wgt id='1402'> +1.2920979e-12 </wgt>
<wgt id='1403'> +1.2824589e-12 </wgt>
<wgt id='1404'> +1.2735284e-12 </wgt>
<wgt id='1405'> +1.3025954e-12 </wgt>
<wgt id='1406'> +1.2930686e-12 </wgt>
<wgt id='1407'> +1.2979779e-12 </wgt>
<wgt id='1408'> +1.3067827e-12 </wgt>
<wgt id='1409'> +1.3102845e-12 </wgt>
<wgt id='1410'> +1.2163165e-12 </wgt>
<wgt id='1411'> +1.2174840e-12 </wgt>
<wgt id='1412'> +1.2147720e-12 </wgt>
<wgt id='1413'> +1.2204626e-12 </wgt>
<wgt id='1414'> +1.2120806e-12 </wgt>
<wgt id='1415'> +1.2186444e-12 </wgt>
<wgt id='1416'> +1.2153024e-12 </wgt>
<wgt id='1417'> +1.2084344e-12 </wgt>
<wgt id='1418'> +1.2242107e-12 </wgt>
<wgt id='1419'> +1.2203906e-12 </wgt>
<wgt id='1420'> +1.2123369e-12 </wgt>
<wgt id='1421'> +1.1948808e-12 </wgt>
<wgt id='1422'> +1.2255878e-12 </wgt>
<wgt id='1423'> +1.2162673e-12 </wgt>
<wgt id='1424'> +1.2163779e-12 </wgt>
<wgt id='1425'> +1.2097478e-12 </wgt>
<wgt id='1426'> +1.2233637e-12 </wgt>
<wgt id='1427'> +1.2039173e-12 </wgt>
<wgt id='1428'> +1.2229940e-12 </wgt>
<wgt id='1429'> +1.2132149e-12 </wgt>
<wgt id='1430'> +1.2204905e-12 </wgt>
<wgt id='1431'> +1.2175717e-12 </wgt>
<wgt id='1432'> +1.2153216e-12 </wgt>
<wgt id='1433'> +1.2284264e-12 </wgt>
<wgt id='1434'> +1.2035164e-12 </wgt>
<wgt id='1435'> +1.2223716e-12 </wgt>
<wgt id='1436'> +1.2015812e-12 </wgt>
<wgt id='1437'> +1.2248172e-12 </wgt>
<wgt id='1438'> +1.2141282e-12 </wgt>
<wgt id='1439'> +1.2067532e-12 </wgt>
<wgt id='1440'> +1.2397038e-12 </wgt>
<wgt id='1441'> +1.2188453e-12 </wgt>
<wgt id='1442'> +1.2115693e-12 </wgt>
<wgt id='1443'> +1.2132779e-12 </wgt>
<wgt id='1444'> +1.2236331e-12 </wgt>
<wgt id='1445'> +1.2247622e-12 </wgt>
<wgt id='1446'> +1.2138786e-12 </wgt>
<wgt id='1447'> +1.2172295e-12 </wgt>
<wgt id='1448'> +1.2175946e-12 </wgt>
<wgt id='1449'> +1.2160432e-12 </wgt>
<wgt id='1450'> +1.2163063e-12 </wgt>
<wgt id='1451'> +1.2139355e-12 </wgt>
<wgt id='1452'> +1.2176566e-12 </wgt>
<wgt id='1453'> +1.2174267e-12 </wgt>
<wgt id='1454'> +1.2097285e-12 </wgt>
<wgt id='1455'> +1.2125033e-12 </wgt>
<wgt id='1456'> +1.2142079e-12 </wgt>
<wgt id='1457'> +1.2142741e-12 </wgt>
<wgt id='1458'> +1.2168011e-12 </wgt>
<wgt id='1459'> +1.2227107e-12 </wgt>
<wgt id='1460'> +1.2092461e-12 </wgt>
<wgt id='1461'> +1.2163165e-12 </wgt>
<wgt id='1462'> +1.2099661e-12 </wgt>
<wgt id='1463'> +1.2243385e-12 </wgt>
<wgt id='1464'> +1.2183157e-12 </wgt>
<wgt id='1465'> +1.2743514e-12 </wgt>
<wgt id='1466'> +1.2610481e-12 </wgt>
<wgt id='1467'> +1.2492471e-12 </wgt>
<wgt id='1468'> +1.2394261e-12 </wgt>
<wgt id='1469'> +1.2279213e-12 </wgt>
<wgt id='1470'> +1.2103256e-12 </wgt>
<wgt id='1471'> +1.2006475e-12 </wgt>
<wgt id='1472'> +1.1923164e-12 </wgt>
<wgt id='1473'> +1.2183157e-12 </wgt>
<wgt id='1474'> +1.2095380e-12 </wgt>
<wgt id='1475'> +1.2144523e-12 </wgt>
<wgt id='1476'> +1.2220183e-12 </wgt>
<wgt id='1477'> +1.2251632e-12 </wgt>
<wgt id='1478'> +1.2774089e-12 </wgt>
<wgt id='1479'> +1.2770959e-12 </wgt>
<wgt id='1480'> +1.2693371e-12 </wgt>
<wgt id='1481'> +1.2622375e-12 </wgt>
<wgt id='1482'> +1.2821447e-12 </wgt>
<wgt id='1483'> +1.2680660e-12 </wgt>
<wgt id='1484'> +1.2770569e-12 </wgt>
<wgt id='1485'> +1.2915632e-12 </wgt>
<wgt id='1486'> +1.2774931e-12 </wgt>
<wgt id='1487'> +1.2802681e-12 </wgt>
<wgt id='1488'> +1.2724368e-12 </wgt>
<wgt id='1489'> +1.3102870e-12 </wgt>
<wgt id='1490'> +1.2784261e-12 </wgt>
<wgt id='1491'> +1.2818959e-12 </wgt>
<wgt id='1492'> +1.2753616e-12 </wgt>
<wgt id='1493'> +1.2562027e-12 </wgt>
<wgt id='1494'> +1.2790623e-12 </wgt>
<wgt id='1495'> +1.2847677e-12 </wgt>
<wgt id='1496'> +1.2766765e-12 </wgt>
<wgt id='1497'> +1.2808060e-12 </wgt>
<wgt id='1498'> +1.2762639e-12 </wgt>
<wgt id='1499'> +1.2811313e-12 </wgt>
<wgt id='1500'> +1.2773535e-12 </wgt>
<wgt id='1501'> +1.2761789e-12 </wgt>
<wgt id='1502'> +1.2772710e-12 </wgt>
<wgt id='1503'> +1.2783961e-12 </wgt>
<wgt id='1504'> +1.2781157e-12 </wgt>
<wgt id='1505'> +1.2786063e-12 </wgt>
<wgt id='1506'> +1.2793996e-12 </wgt>
<wgt id='1507'> +1.2770832e-12 </wgt>
<wgt id='1508'> +1.2839696e-12 </wgt>
<wgt id='1509'> +1.2080004e-12 </wgt>
<wgt id='1510'> +1.2046604e-12 </wgt>
<wgt id='1511'> +1.2133706e-12 </wgt>
<wgt id='1512'> +1.2132567e-12 </wgt>
<wgt id='1513'> +1.2063179e-12 </wgt>
<wgt id='1514'> +1.2059017e-12 </wgt>
<wgt id='1515'> +1.2077934e-12 </wgt>
<wgt id='1516'> +1.2088828e-12 </wgt>
<wgt id='1517'> +1.2162726e-12 </wgt>
<wgt id='1518'> +1.2032435e-12 </wgt>
<wgt id='1519'> +1.2054724e-12 </wgt>
<wgt id='1520'> +1.2240427e-12 </wgt>
<wgt id='1521'> +1.2167324e-12 </wgt>
<wgt id='1522'> +1.2242714e-12 </wgt>
<wgt id='1523'> +1.2083448e-12 </wgt>
<wgt id='1524'> +1.2072032e-12 </wgt>
<wgt id='1525'> +1.2015901e-12 </wgt>
<wgt id='1526'> +1.2116900e-12 </wgt>
<wgt id='1527'> +1.2131883e-12 </wgt>
<wgt id='1528'> +1.2050625e-12 </wgt>
<wgt id='1529'> +1.2088686e-12 </wgt>
<wgt id='1530'> +1.1999733e-12 </wgt>
<wgt id='1531'> +1.2071407e-12 </wgt>
<wgt id='1532'> +1.2096456e-12 </wgt>
<wgt id='1533'> +1.2048685e-12 </wgt>
<wgt id='1534'> +1.2023240e-12 </wgt>
<wgt id='1535'> +1.2191521e-12 </wgt>
<wgt id='1536'> +1.2121819e-12 </wgt>
<wgt id='1537'> +1.2072624e-12 </wgt>
<wgt id='1538'> +1.2091839e-12 </wgt>
<wgt id='1539'> +1.2039469e-12 </wgt>
<wgt id='1540'> +1.2045183e-12 </wgt>
<wgt id='1541'> +1.2071263e-12 </wgt>
<wgt id='1542'> +1.2052762e-12 </wgt>
<wgt id='1543'> +1.2096554e-12 </wgt>
<wgt id='1544'> +1.2109770e-12 </wgt>
<wgt id='1545'> +1.2057482e-12 </wgt>
<wgt id='1546'> +1.2090065e-12 </wgt>
<wgt id='1547'> +1.2058601e-12 </wgt>
<wgt id='1548'> +1.2120365e-12 </wgt>
<wgt id='1549'> +1.2103453e-12 </wgt>
<wgt id='1550'> +1.2050476e-12 </wgt>
<wgt id='1551'> +1.2106864e-12 </wgt>
<wgt id='1552'> +1.2087888e-12 </wgt>
<wgt id='1553'> +1.2032973e-12 </wgt>
<wgt id='1554'> +1.2027655e-12 </wgt>
<wgt id='1555'> +1.2037785e-12 </wgt>
<wgt id='1556'> +1.2099931e-12 </wgt>
<wgt id='1557'> +1.2065046e-12 </wgt>
<wgt id='1558'> +1.2110311e-12 </wgt>
<wgt id='1559'> +1.2071494e-12 </wgt>
<wgt id='1560'> +1.2060138e-12 </wgt>
<wgt id='1561'> +1.2110210e-12 </wgt>
<wgt id='1562'> +1.2083442e-12 </wgt>
<wgt id='1563'> +1.2089141e-12 </wgt>
<wgt id='1564'> +1.2106973e-12 </wgt>
<wgt id='1565'> +1.2075925e-12 </wgt>
<wgt id='1566'> +1.2058310e-12 </wgt>
<wgt id='1567'> +1.2064079e-12 </wgt>
<wgt id='1568'> +1.2084650e-12 </wgt>
<wgt id='1569'> +1.2066622e-12 </wgt>
<wgt id='1570'> +1.2116707e-12 </wgt>
<wgt id='1571'> +1.2072541e-12 </wgt>
<wgt id='1572'> +1.2093325e-12 </wgt>
<wgt id='1573'> +1.2077882e-12 </wgt>
<wgt id='1574'> +1.2079347e-12 </wgt>
<wgt id='1575'> +1.2072873e-12 </wgt>
<wgt id='1576'> +1.2093574e-12 </wgt>
<wgt id='1577'> +1.2081090e-12 </wgt>
<wgt id='1578'> +1.2076265e-12 </wgt>
<wgt id='1579'> +1.2087328e-12 </wgt>
<wgt id='1580'> +1.2095528e-12 </wgt>
<wgt id='1581'> +1.2078982e-12 </wgt>
<wgt id='1582'> +1.2086589e-12 </wgt>
<wgt id='1583'> +1.2079636e-12 </wgt>
<wgt id='1584'> +1.2088629e-12 </wgt>
<wgt id='1585'> +1.2075431e-12 </wgt>
<wgt id='1586'> +1.2099104e-12 </wgt>
<wgt id='1587'> +1.2086876e-12 </wgt>
<wgt id='1588'> +1.2057686e-12 </wgt>
<wgt id='1589'> +1.2076548e-12 </wgt>
<wgt id='1590'> +1.2081770e-12 </wgt>
<wgt id='1591'> +1.2071384e-12 </wgt>
<wgt id='1592'> +1.2094575e-12 </wgt>
<wgt id='1593'> +1.2081928e-12 </wgt>
<wgt id='1594'> +1.2070364e-12 </wgt>
<wgt id='1595'> +1.2071931e-12 </wgt>
<wgt id='1596'> +1.2066092e-12 </wgt>
<wgt id='1597'> +1.2076250e-12 </wgt>
<wgt id='1598'> +1.2077458e-12 </wgt>
<wgt id='1599'> +1.2072999e-12 </wgt>
<wgt id='1600'> +1.2064765e-12 </wgt>
<wgt id='1601'> +1.2081968e-12 </wgt>
<wgt id='1602'> +1.2085888e-12 </wgt>
<wgt id='1603'> +1.2086339e-12 </wgt>
<wgt id='1604'> +1.2078725e-12 </wgt>
<wgt id='1605'> +1.2091963e-12 </wgt>
<wgt id='1606'> +1.2065800e-12 </wgt>
<wgt id='1607'> +1.2082563e-12 </wgt>
<wgt id='1608'> +1.2083239e-12 </wgt>
<wgt id='1609'> +1.2086903e-12 </wgt>
<wgt id='1610'> +1.1792765e-12 </wgt>
<wgt id='1611'> +1.2341552e-12 </wgt>
<wgt id='1612'> +1.4415225e-12 </wgt>
<wgt id='1613'> +1.5338284e-12 </wgt>
<wgt id='1614'> +1.4606719e-12 </wgt>
<wgt id='1615'> +1.4387644e-12 </wgt>
<wgt id='1616'> +1.4650927e-12 </wgt>
<wgt id='1617'> +1.3452005e-12 </wgt>
<wgt id='1618'> +1.2810395e-12 </wgt>
<wgt id='1619'> +1.4503075e-12 </wgt>
<wgt id='1620'> +1.4790382e-12 </wgt>
<wgt id='1621'> +1.4260434e-12 </wgt>
<wgt id='1622'> +1.4193944e-12 </wgt>
<wgt id='1623'> +1.4150057e-12 </wgt>
<wgt id='1624'> +1.4068246e-12 </wgt>
<wgt id='1625'> +1.4757112e-12 </wgt>
<wgt id='1626'> +1.5055070e-12 </wgt>
<wgt id='1627'> +1.4159726e-12 </wgt>
<wgt id='1628'> +1.4646876e-12 </wgt>
<wgt id='1629'> +1.4966381e-12 </wgt>
<wgt id='1630'> +1.4444606e-12 </wgt>
<wgt id='1631'> +1.4465454e-12 </wgt>
<wgt id='1632'> +1.5834078e-12 </wgt>
<wgt id='1633'> +1.4429618e-12 </wgt>
<wgt id='1634'> +1.4349284e-12 </wgt>
<wgt id='1635'> +1.4226173e-12 </wgt>
<wgt id='1636'> +1.3886913e-12 </wgt>
<wgt id='1637'> +1.3969285e-12 </wgt>
<wgt id='1638'> +1.4539259e-12 </wgt>
<wgt id='1639'> +1.4687118e-12 </wgt>
<wgt id='1640'> +1.5267123e-12 </wgt>
<wgt id='1641'> +1.4270090e-12 </wgt>
<wgt id='1642'> +1.4902447e-12 </wgt>
<wgt id='1643'> +1.5237549e-12 </wgt>
<wgt id='1644'> +1.3991464e-12 </wgt>
<wgt id='1645'> +1.4839175e-12 </wgt>
<wgt id='1646'> +1.5067035e-12 </wgt>
<wgt id='1647'> +1.5130089e-12 </wgt>
<wgt id='1648'> +1.4182585e-12 </wgt>
<wgt id='1649'> +1.2966344e-12 </wgt>
<wgt id='1650'> +1.4965225e-12 </wgt>
<wgt id='1651'> +1.3981590e-12 </wgt>
<wgt id='1652'> +1.5224949e-12 </wgt>
<wgt id='1653'> +1.3698767e-12 </wgt>
<wgt id='1654'> +1.3574609e-12 </wgt>
<wgt id='1655'> +1.3704083e-12 </wgt>
<wgt id='1656'> +1.4832253e-12 </wgt>
<wgt id='1657'> +1.4065738e-12 </wgt>
<wgt id='1658'> +1.4401752e-12 </wgt>
<wgt id='1659'> +1.4068246e-12 </wgt>
<wgt id='1660'> +1.3715539e-12 </wgt>
<wgt id='1661'> +1.4073246e-12 </wgt>
<wgt id='1662'> +1.4443065e-12 </wgt>
<wgt id='1663'> +1.4432437e-12 </wgt>
<wgt id='1664'> +1.5387985e-12 </wgt>
<wgt id='1665'> +1.5104616e-12 </wgt>
<wgt id='1666'> +1.4139758e-12 </wgt>
<wgt id='1667'> +1.4087824e-12 </wgt>
<wgt id='1668'> +1.4077178e-12 </wgt>
<wgt id='1669'> +1.4360645e-12 </wgt>
<wgt id='1670'> +1.4687479e-12 </wgt>
<wgt id='1671'> +1.5208446e-12 </wgt>
<wgt id='1672'> +1.4424815e-12 </wgt>
<wgt id='1673'> +1.3627311e-12 </wgt>
<wgt id='1674'> +1.4702478e-12 </wgt>
<wgt id='1675'> +1.5717357e-12 </wgt>
<wgt id='1676'> +1.4253575e-12 </wgt>
<wgt id='1677'> +1.4727144e-12 </wgt>
<wgt id='1678'> +1.4428757e-12 </wgt>
<wgt id='1679'> +1.4525989e-12 </wgt>
<wgt id='1680'> +1.4348524e-12 </wgt>
<wgt id='1681'> +1.4822244e-12 </wgt>
<wgt id='1682'> +1.4332347e-12 </wgt>
<wgt id='1683'> +1.4184970e-12 </wgt>
<wgt id='1684'> +1.4421047e-12 </wgt>
<wgt id='1685'> +1.4461386e-12 </wgt>
<wgt id='1686'> +1.4827406e-12 </wgt>
<wgt id='1687'> +1.4967501e-12 </wgt>
<wgt id='1688'> +1.4807874e-12 </wgt>
<wgt id='1689'> +1.3917829e-12 </wgt>
<wgt id='1690'> +1.4245767e-12 </wgt>
<wgt id='1691'> +1.4567632e-12 </wgt>
<wgt id='1692'> +1.4470598e-12 </wgt>
<wgt id='1693'> +1.5004880e-12 </wgt>
<wgt id='1694'> +1.3649843e-12 </wgt>
<wgt id='1695'> +1.4501839e-12 </wgt>
<wgt id='1696'> +1.4919125e-12 </wgt>
<wgt id='1697'> +1.3411022e-12 </wgt>
<wgt id='1698'> +1.4245632e-12 </wgt>
<wgt id='1699'> +1.3890782e-12 </wgt>
<wgt id='1700'> +1.4470959e-12 </wgt>
<wgt id='1701'> +1.4310498e-12 </wgt>
<wgt id='1702'> +1.3684545e-12 </wgt>
<wgt id='1703'> +1.4718311e-12 </wgt>
<wgt id='1704'> +1.4359323e-12 </wgt>
<wgt id='1705'> +1.4937236e-12 </wgt>
<wgt id='1706'> +1.3885031e-12 </wgt>
<wgt id='1707'> +1.4005512e-12 </wgt>
<wgt id='1708'> +1.4009266e-12 </wgt>
<wgt id='1709'> +1.4503751e-12 </wgt>
<wgt id='1710'> +1.4315886e-12 </wgt>
<wgt id='1711'> +1.4089635e-12 </wgt>
<wgt id='1712'> +1.4351177e-12 </wgt>
<wgt id='1713'> +1.2813854e-12 </wgt>
<wgt id='1714'> +1.2263741e-12 </wgt>
<wgt id='1715'> +1.3016676e-12 </wgt>
<wgt id='1716'> +1.2684219e-12 </wgt>
<wgt id='1717'> +1.2535956e-12 </wgt>
<wgt id='1718'> +1.2587198e-12 </wgt>
<wgt id='1719'> +1.2775157e-12 </wgt>
<wgt id='1720'> +1.3144321e-12 </wgt>
<wgt id='1721'> +1.2665792e-12 </wgt>
<wgt id='1722'> +1.2655079e-12 </wgt>
<wgt id='1723'> +1.2529222e-12 </wgt>
<wgt id='1724'> +1.3186079e-12 </wgt>
<wgt id='1725'> +1.3038480e-12 </wgt>
<wgt id='1726'> +1.3040656e-12 </wgt>
<wgt id='1727'> +1.2480875e-12 </wgt>
<wgt id='1728'> +1.2893839e-12 </wgt>
<wgt id='1729'> +1.3015817e-12 </wgt>
<wgt id='1730'> +1.2459820e-12 </wgt>
<wgt id='1731'> +1.2445436e-12 </wgt>
<wgt id='1732'> +1.2813201e-12 </wgt>
<wgt id='1733'> +1.2795052e-12 </wgt>
<wgt id='1734'> +1.2881457e-12 </wgt>
<wgt id='1735'> +1.2945583e-12 </wgt>
<wgt id='1736'> +1.3991437e-12 </wgt>
<wgt id='1737'> +1.2722127e-12 </wgt>
<wgt id='1738'> +1.3078371e-12 </wgt>
<wgt id='1739'> +1.2336640e-12 </wgt>
<wgt id='1740'> +1.2440913e-12 </wgt>
<wgt id='1741'> +1.2683833e-12 </wgt>
<wgt id='1742'> +1.2608236e-12 </wgt>
<wgt id='1743'> +1.3082911e-12 </wgt>
<wgt id='1744'> +1.2858606e-12 </wgt>
<wgt id='1745'> +1.2343069e-12 </wgt>
<wgt id='1746'> +1.3187903e-12 </wgt>
<wgt id='1747'> +1.3023141e-12 </wgt>
<wgt id='1748'> +1.2959549e-12 </wgt>
<wgt id='1749'> +1.3025145e-12 </wgt>
<wgt id='1750'> +1.2993057e-12 </wgt>
<wgt id='1751'> +1.2673588e-12 </wgt>
<wgt id='1752'> +1.2287532e-12 </wgt>
<wgt id='1753'> +1.3137775e-12 </wgt>
<wgt id='1754'> +1.2521616e-12 </wgt>
<wgt id='1755'> +1.3128714e-12 </wgt>
<wgt id='1756'> +1.3108328e-12 </wgt>
<wgt id='1757'> +1.2761084e-12 </wgt>
<wgt id='1758'> +1.3174517e-12 </wgt>
<wgt id='1759'> +1.2787474e-12 </wgt>
<wgt id='1760'> +1.2452416e-12 </wgt>
<wgt id='1761'> +1.2377118e-12 </wgt>
<wgt id='1762'> +1.2924333e-12 </wgt>
<wgt id='1763'> +1.2893349e-12 </wgt>
<wgt id='1764'> +1.2851999e-12 </wgt>
<wgt id='1765'> +1.2892997e-12 </wgt>
<wgt id='1766'> +1.3096301e-12 </wgt>
<wgt id='1767'> +1.2772847e-12 </wgt>
<wgt id='1768'> +1.2738308e-12 </wgt>
<wgt id='1769'> +1.2379820e-12 </wgt>
<wgt id='1770'> +1.3200129e-12 </wgt>
<wgt id='1771'> +1.2790392e-12 </wgt>
<wgt id='1772'> +1.3045547e-12 </wgt>
<wgt id='1773'> +1.2664512e-12 </wgt>
<wgt id='1774'> +1.2824414e-12 </wgt>
<wgt id='1775'> +1.2868545e-12 </wgt>
<wgt id='1776'> +1.2982451e-12 </wgt>
<wgt id='1777'> +1.2688182e-12 </wgt>
<wgt id='1778'> +1.2498167e-12 </wgt>
<wgt id='1779'> +1.3066176e-12 </wgt>
<wgt id='1780'> +1.3287723e-12 </wgt>
<wgt id='1781'> +1.2510977e-12 </wgt>
<wgt id='1782'> +1.2437317e-12 </wgt>
<wgt id='1783'> +1.2956986e-12 </wgt>
<wgt id='1784'> +1.3141591e-12 </wgt>
<wgt id='1785'> +1.2600502e-12 </wgt>
<wgt id='1786'> +1.2349348e-12 </wgt>
<wgt id='1787'> +1.2970745e-12 </wgt>
<wgt id='1788'> +1.2581621e-12 </wgt>
<wgt id='1789'> +1.2686001e-12 </wgt>
<wgt id='1790'> +1.3187334e-12 </wgt>
<wgt id='1791'> +1.3388098e-12 </wgt>
<wgt id='1792'> +1.2618219e-12 </wgt>
<wgt id='1793'> +1.3041320e-12 </wgt>
<wgt id='1794'> +1.2841499e-12 </wgt>
<wgt id='1795'> +1.2732740e-12 </wgt>
<wgt id='1796'> +1.2574601e-12 </wgt>
<wgt id='1797'> +1.2804557e-12 </wgt>
<wgt id='1798'> +1.2408364e-12 </wgt>
<wgt id='1799'> +1.2832012e-12 </wgt>
<wgt id='1800'> +1.2787537e-12 </wgt>
<wgt id='1801'> +1.2732536e-12 </wgt>
<wgt id='1802'> +1.2842629e-12 </wgt>
<wgt id='1803'> +1.2911749e-12 </wgt>
<wgt id='1804'> +1.2182096e-12 </wgt>
<wgt id='1805'> +1.3102793e-12 </wgt>
<wgt id='1806'> +1.2540806e-12 </wgt>
<wgt id='1807'> +1.3289868e-12 </wgt>
<wgt id='1808'> +1.2755331e-12 </wgt>
<wgt id='1809'> +1.2759688e-12 </wgt>
<wgt id='1810'> +1.2761879e-12 </wgt>
<wgt id='1811'> +1.3303797e-12 </wgt>
<wgt id='1812'> +1.2983146e-12 </wgt>
<wgt id='1813'> +1.2850118e-12 </wgt>
<wgt id='1814'> +1.1809486e-12 </wgt>
<wgt id='1815'> +1.3916731e-12 </wgt>
<wgt id='1816'> +1.2813854e-12 </wgt>
<wgt id='1817'> +1.2263741e-12 </wgt>
<wgt id='1818'> +1.3016676e-12 </wgt>
<wgt id='1819'> +1.2684219e-12 </wgt>
<wgt id='1820'> +1.2535956e-12 </wgt>
<wgt id='1821'> +1.2587198e-12 </wgt>
<wgt id='1822'> +1.2775157e-12 </wgt>
<wgt id='1823'> +1.3144321e-12 </wgt>
<wgt id='1824'> +1.2665792e-12 </wgt>
<wgt id='1825'> +1.2655079e-12 </wgt>
<wgt id='1826'> +1.2529222e-12 </wgt>
<wgt id='1827'> +1.3186079e-12 </wgt>
<wgt id='1828'> +1.3038480e-12 </wgt>
<wgt id='1829'> +1.3040656e-12 </wgt>
<wgt id='1830'> +1.2480875e-12 </wgt>
<wgt id='1831'> +1.2893839e-12 </wgt>
<wgt id='1832'> +1.3015817e-12 </wgt>
<wgt id='1833'> +1.2459820e-12 </wgt>
<wgt id='1834'> +1.2445436e-12 </wgt>
<wgt id='1835'> +1.2813201e-12 </wgt>
<wgt id='1836'> +1.2795052e-12 </wgt>
<wgt id='1837'> +1.2881457e-12 </wgt>
<wgt id='1838'> +1.2945583e-12 </wgt>
<wgt id='1839'> +1.3991437e-12 </wgt>
<wgt id='1840'> +1.2722127e-12 </wgt>
<wgt id='1841'> +1.3078371e-12 </wgt>
<wgt id='1842'> +1.2336640e-12 </wgt>
<wgt id='1843'> +1.2440913e-12 </wgt>
<wgt id='1844'> +1.2683833e-12 </wgt>
<wgt id='1845'> +1.2608236e-12 </wgt>
<wgt id='1846'> +1.3082911e-12 </wgt>
<wgt id='1847'> +1.2858606e-12 </wgt>
<wgt id='1848'> +1.2343069e-12 </wgt>
<wgt id='1849'> +1.3187903e-12 </wgt>
<wgt id='1850'> +1.3023141e-12 </wgt>
<wgt id='1851'> +1.2959549e-12 </wgt>
<wgt id='1852'> +1.3025145e-12 </wgt>
<wgt id='1853'> +1.2993057e-12 </wgt>
<wgt id='1854'> +1.2673588e-12 </wgt>
<wgt id='1855'> +1.2287532e-12 </wgt>
<wgt id='1856'> +1.3137775e-12 </wgt>
<wgt id='1857'> +1.2521616e-12 </wgt>
<wgt id='1858'> +1.3128714e-12 </wgt>
<wgt id='1859'> +1.3108328e-12 </wgt>
<wgt id='1860'> +1.2761084e-12 </wgt>
<wgt id='1861'> +1.3174517e-12 </wgt>
<wgt id='1862'> +1.2787474e-12 </wgt>
<wgt id='1863'> +1.2452416e-12 </wgt>
<wgt id='1864'> +1.2377118e-12 </wgt>
<wgt id='1865'> +1.2924333e-12 </wgt>
<wgt id='1866'> +1.2893349e-12 </wgt>
<wgt id='1867'> +1.2851999e-12 </wgt>
<wgt id='1868'> +1.2892997e-12 </wgt>
<wgt id='1869'> +1.3096301e-12 </wgt>
<wgt id='1870'> +1.2772847e-12 </wgt>
<wgt id='1871'> +1.2738308e-12 </wgt>
<wgt id='1872'> +1.2379820e-12 </wgt>
<wgt id='1873'> +1.3200129e-12 </wgt>
<wgt id='1874'> +1.2790392e-12 </wgt>
<wgt id='1875'> +1.3045547e-12 </wgt>
<wgt id='1876'> +1.2664512e-12 </wgt>
<wgt id='1877'> +1.2824414e-12 </wgt>
<wgt id='1878'> +1.2868545e-12 </wgt>
<wgt id='1879'> +1.2982451e-12 </wgt>
<wgt id='1880'> +1.2688182e-12 </wgt>
<wgt id='1881'> +1.2498167e-12 </wgt>
<wgt id='1882'> +1.3066176e-12 </wgt>
<wgt id='1883'> +1.3287723e-12 </wgt>
<wgt id='1884'> +1.2510977e-12 </wgt>
<wgt id='1885'> +1.2437317e-12 </wgt>
<wgt id='1886'> +1.2956986e-12 </wgt>
<wgt id='1887'> +1.3141591e-12 </wgt>
<wgt id='1888'> +1.2600502e-12 </wgt>
<wgt id='1889'> +1.2349348e-12 </wgt>
<wgt id='1890'> +1.2970745e-12 </wgt>
<wgt id='1891'> +1.2581621e-12 </wgt>
<wgt id='1892'> +1.2686001e-12 </wgt>
<wgt id='1893'> +1.3187334e-12 </wgt>
<wgt id='1894'> +1.3388098e-12 </wgt>
<wgt id='1895'> +1.2618219e-12 </wgt>
<wgt id='1896'> +1.3041320e-12 </wgt>
<wgt id='1897'> +1.2841499e-12 </wgt>
<wgt id='1898'> +1.2732740e-12 </wgt>
<wgt id='1899'> +1.2574601e-12 </wgt>
<wgt id='1900'> +1.2804557e-12 </wgt>
<wgt id='1901'> +1.2408364e-12 </wgt>
<wgt id='1902'> +1.2832012e-12 </wgt>
<wgt id='1903'> +1.2787537e-12 </wgt>
<wgt id='1904'> +1.2732536e-12 </wgt>
<wgt id='1905'> +1.2842629e-12 </wgt>
<wgt id='1906'> +1.2911749e-12 </wgt>
<wgt id='1907'> +1.2182096e-12 </wgt>
<wgt id='1908'> +1.3102793e-12 </wgt>
<wgt id='1909'> +1.2540806e-12 </wgt>
<wgt id='1910'> +1.3289868e-12 </wgt>
<wgt id='1911'> +1.2755331e-12 </wgt>
<wgt id='1912'> +1.2759688e-12 </wgt>
<wgt id='1913'> +1.2761879e-12 </wgt>
<wgt id='1914'> +1.3303797e-12 </wgt>
<wgt id='1915'> +1.2983146e-12 </wgt>
<wgt id='1916'> +1.2850118e-12 </wgt>
<wgt id='1917'> +1.2599070e-12 </wgt>
<wgt id='1918'> +1.2894853e-12 </wgt>
<wgt id='1919'> +1.2642308e-12 </wgt>
</rwgt>
</event>
<event>
 9      1 +1.5607000e-12 4.68407400e+01 7.81860800e-03 1.32757800e-01
       21 -1    0    0  501  502 +0.0000000000e+00 +0.0000000000e+00 +1.0166658826e+00 1.0166658826e+00 0.0000000000e+00 0.0000e+00 1.0000e+00
        2 -1    0    0  502    0 -0.0000000000e+00 -0.0000000000e+00 -5.3952206464e+02 5.3952206464e+02 0.0000000000e+00 0.0000e+00 1.0000e+00
     1023  2    1    2    0    0 +1.4080570184e+01 +1.5344275755e+01 -3.2965269771e+02 3.3065028398e+02 1.4999997893e+01 0.0000e+00 0.0000e+00
  1000023  2    3    3    0    0 +1.0898278142e+01 +4.5469557811e+00 -1.9536759092e+02 1.9580148345e+02 5.5025507166e+00 0.0000e+00 0.0000e+00
        2  1    1    2  501    0 -1.4080570184e+01 -1.5344275755e+01 -2.0885270105e+02 2.0988844654e+02 0.0000000000e+00 0.0000e+00 1.0000e+00
  1000022  1    4    4    0    0 +1.0209463749e+01 +4.5309526693e+00 -1.8379715099e+02 1.8420411341e+02 5.0000000000e+00 0.0000e+00 1.0000e+00
      -13  1    4    4    0    0 +4.2312752162e-01 -1.4593869886e-01 -7.0814256823e+00 7.0963439310e+00 1.0570000000e-01 0.0000e+00 1.0000e+00
       13  1    4    4    0    0 +2.6568687197e-01 +1.6194181059e-01 -4.4890142454e+00 4.5010261107e+00 1.0570000000e-01 0.0000e+00 1.0000e+00
  1000022  1    3    3    0    0 +3.1822920419e+00 +1.0797319974e+01 -1.3428510678e+02 1.3484880053e+02 5.0000000000e+00 0.0000e+00 1.0000e+00
<mgrwt>
<rscale>  1 0.46840738E+02</rscale>
<asrwt>0</asrwt>
<pdfrwt beam="1">  1       21 0.15641006E-03 0.46840738E+02</pdfrwt>
<pdfrwt beam="2">  1        2 0.83003434E-01 0.46840738E+02</pdfrwt>
<totfact> 0.30046185E+07</totfact>
</mgrwt>
<rwgt>
<wgt id='1001'> +1.5607000e-12 </wgt>
<wgt id='1002'> +1.5504357e-12 </wgt>
<wgt id='1003'> +1.5583482e-12 </wgt>
<wgt id='1004'> +1.4146546e-12 </wgt>
<wgt id='1005'> +1.5607000e-12 </wgt>
<wgt id='1006'> +1.3810407e-12 </wgt>
<wgt id='1007'> +1.3699817e-12 </wgt>
<wgt id='1008'> +1.3784986e-12 </wgt>
<wgt id='1009'> +1.2284362e-12 </wgt>
<wgt id='1010'> +1.3810407e-12 </wgt>
<wgt id='1011'> +1.7964922e-12 </wgt>
<wgt id='1012'> +1.7881242e-12 </wgt>
<wgt id='1013'> +1.7945780e-12 </wgt>
<wgt id='1014'> +1.6709486e-12 </wgt>
<wgt id='1015'> +1.7964922e-12 </wgt>
<wgt id='1016'> +1.8643316e-12 </wgt>
<wgt id='1017'> +1.8599907e-12 </wgt>
<wgt id='1018'> +1.8633518e-12 </wgt>
<wgt id='1019'> +1.7945780e-12 </wgt>
<wgt id='1020'> +1.8643316e-12 </wgt>
<wgt id='1021'> +1.6497198e-12 </wgt>
<wgt id='1022'> +1.6435080e-12 </wgt>
<wgt id='1023'> +1.6483016e-12 </wgt>
<wgt id='1024'> +1.5583482e-12 </wgt>
<wgt id='1025'> +1.6497198e-12 </wgt>
<wgt id='1026'> +2.1459968e-12 </wgt>
<wgt id='1027'> +2.1451354e-12 </wgt>
<wgt id='1028'> +2.1458170e-12 </wgt>
<wgt id='1029'> +2.1197029e-12 </wgt>
<wgt id='1030'> +2.1459968e-12 </wgt>
<wgt id='1031'> +1.2321318e-12 </wgt>
<wgt id='1032'> +1.2160227e-12 </wgt>
<wgt id='1033'> +1.2284362e-12 </wgt>
<wgt id='1034'> +1.0124176e-12 </wgt>
<wgt id='1035'> +1.2321318e-12 </wgt>
<wgt id='1036'> +1.0902955e-12 </wgt>
<wgt id='1037'> +1.0744908e-12 </wgt>
<wgt id='1038'> +1.0866619e-12 </wgt>
<wgt id='1039'> +8.7914775e-13 </wgt>
<wgt id='1040'> +1.0902955e-12 </wgt>
<wgt id='1041'> +1.4182835e-12 </wgt>
<wgt id='1042'> +1.4024443e-12 </wgt>
<wgt id='1043'> +1.4146546e-12 </wgt>
<wgt id='1044'> +1.1958380e-12 </wgt>
<wgt id='1045'> +1.4182835e-12 </wgt>
<wgt id='1046'> +1.5607000e-12 </wgt>
<wgt id='1047'> +1.5613550e-12 </wgt>
<wgt id='1048'> +1.6198524e-12 </wgt>
<wgt id='1049'> +1.4993510e-12 </wgt>
<wgt id='1050'> +1.5351514e-12 </wgt>
<wgt id='1051'> +1.5298907e-12 </wgt>
<wgt id='1052'> +1.5279442e-12 </wgt>
<wgt id='1053'> +1.6271813e-12 </wgt>
<wgt id='1054'> +1.5923745e-12 </wgt>
<wgt id='1055'> +1.5429204e-12 </wgt>
<wgt id='1056'> +1.5008988e-12 </wgt>
<wgt id='1057'> +1.5412312e-12 </wgt>
<wgt id='1058'> +1.5201627e-12 </wgt>
<wgt id='1059'> +1.5764861e-12 </wgt>
<wgt id='1060'> +1.5708453e-12 </wgt>
<wgt id='1061'> +1.5915302e-12 </wgt>
<wgt id='1062'> +1.5519927e-12 </wgt>
<wgt id='1063'> +1.5034303e-12 </wgt>
<wgt id='1064'> +1.5496254e-12 </wgt>
<wgt id='1065'> +1.6065359e-12 </wgt>
<wgt id='1066'> +1.5672766e-12 </wgt>
<wgt id='1067'> +1.5902676e-12 </wgt>
<wgt id='1068'> +1.6039323e-12 </wgt>
<wgt id='1069'> +1.6233767e-12 </wgt>
<wgt id='1070'> +1.5569421e-12 </wgt>
<wgt id='1071'> +1.5655197e-12 </wgt>
<wgt id='1072'> +1.5691297e-12 </wgt>
<wgt id='1073'> +1.5528461e-12 </wgt>
<wgt id='1074'> +1.5646465e-12 </wgt>
<wgt id='1075'> +1.5536858e-12 </wgt>
<wgt id='1076'> +1.5752536e-12 </wgt>
<wgt id='1077'> +1.5822112e-12 </wgt>
<wgt id='1078'> +1.5238014e-12 </wgt>
<wgt id='1079'> +1.5658783e-12 </wgt>
<wgt id='1080'> +1.5515643e-12 </wgt>
<wgt id='1081'> +1.5124271e-12 </wgt>
<wgt id='1082'> +1.5512734e-12 </wgt>
<wgt id='1083'> +1.5372966e-12 </wgt>
<wgt id='1084'> +1.5466601e-12 </wgt>
<wgt id='1085'> +1.5932878e-12 </wgt>
<wgt id='1086'> +1.6124235e-12 </wgt>
<wgt id='1087'> +1.5434988e-12 </wgt>
<wgt id='1088'> +1.5525729e-12 </wgt>
<wgt id='1089'> +1.5355204e-12 </wgt>
<wgt id='1090'> +1.5726503e-12 </wgt>
<wgt id='1091'> +1.5655546e-12 </wgt>
<wgt id='1092'> +1.5491686e-12 </wgt>
<wgt id='1093'> +1.5946435e-12 </wgt>
<wgt id='1094'> +1.6059023e-12 </wgt>
<wgt id='1095'> +1.6090514e-12 </wgt>
<wgt id='1096'> +1.5277914e-12 </wgt>
<wgt id='1097'> +1.5650742e-12 </wgt>
<wgt id='1098'> +1.5855615e-12 </wgt>
<wgt id='1099'> +1.5506245e-12 </wgt>
<wgt id='1100'> +1.5906879e-12 </wgt>
<wgt id='1101'> +1.5725262e-12 </wgt>
<wgt id='1102'> +1.5289667e-12 </wgt>
<wgt id='1103'> +1.5419026e-12 </wgt>
<wgt id='1104'> +1.5626901e-12 </wgt>
<wgt id='1105'> +1.5048647e-12 </wgt>
<wgt id='1106'> +1.5538091e-12 </wgt>
<wgt id='1107'> +1.6132033e-12 </wgt>
<wgt id='1108'> +1.5485030e-12 </wgt>
<wgt id='1109'> +1.5556450e-12 </wgt>
<wgt id='1110'> +1.5461784e-12 </wgt>
<wgt id='1111'> +1.5668506e-12 </wgt>
<wgt id='1112'> +1.5833759e-12 </wgt>
<wgt id='1113'> +1.6323760e-12 </wgt>
<wgt id='1114'> +1.5926355e-12 </wgt>
<wgt id='1115'> +1.6030035e-12 </wgt>
<wgt id='1116'> +1.6387785e-12 </wgt>
<wgt id='1117'> +1.5530455e-12 </wgt>
<wgt id='1118'> +1.6160827e-12 </wgt>
<wgt id='1119'> +1.5077272e-12 </wgt>
<wgt id='1120'> +1.5535727e-12 </wgt>
<wgt id='1121'> +1.5249782e-12 </wgt>
<wgt id='1122'> +1.5469650e-12 </wgt>
<wgt id='1123'> +1.5951734e-12 </wgt>
<wgt id='1124'> +1.5946838e-12 </wgt>
<wgt id='1125'> +1.5024831e-12 </wgt>
<wgt id='1126'> +1.5397669e-12 </wgt>
<wgt id='1127'> +1.5601126e-12 </wgt>
<wgt id='1128'> +1.5519927e-12 </wgt>
<wgt id='1129'> +1.5260808e-12 </wgt>
<wgt id='1130'> +1.5441070e-12 </wgt>
<wgt id='1131'> +1.5769526e-12 </wgt>
<wgt id='1132'> +1.5753510e-12 </wgt>
<wgt id='1133'> +1.5313620e-12 </wgt>
<wgt id='1134'> +1.5324056e-12 </wgt>
<wgt id='1135'> +1.5001545e-12 </wgt>
<wgt id='1136'> +1.5228038e-12 </wgt>
<wgt id='1137'> +1.5647186e-12 </wgt>
<wgt id='1138'> +1.5477886e-12 </wgt>
<wgt id='1139'> +1.5517100e-12 </wgt>
<wgt id='1140'> +1.5842424e-12 </wgt>
<wgt id='1141'> +1.5508362e-12 </wgt>
<wgt id='1142'> +1.5985568e-12 </wgt>
<wgt id='1143'> +1.4906021e-12 </wgt>
<wgt id='1144'> +1.5560082e-12 </wgt>
<wgt id='1145'> +1.5665955e-12 </wgt>
<wgt id='1146'> +1.5607894e-12 </wgt>
<wgt id='1147'> +1.4090047e-12 </wgt>
<wgt id='1148'> +1.4384909e-12 </wgt>
<wgt id='1149'> +1.3497300e-12 </wgt>
<wgt id='1150'> +1.4126440e-12 </wgt>
<wgt id='1151'> +1.6670156e-12 </wgt>
<wgt id='1152'> +2.3211615e-12 </wgt>
<wgt id='1153'> +2.3214677e-12 </wgt>
<wgt id='1154'> +2.3209607e-12 </wgt>
<wgt id='1155'> +2.3149701e-12 </wgt>
<wgt id='1156'> +2.3243054e-12 </wgt>
<wgt id='1157'> +2.3249936e-12 </wgt>
<wgt id='1158'> +2.3159118e-12 </wgt>
<wgt id='1159'> +2.3244631e-12 </wgt>
<wgt id='1160'> +2.3190786e-12 </wgt>
<wgt id='1161'> +2.3169837e-12 </wgt>
<wgt id='1162'> +2.3240666e-12 </wgt>
<wgt id='1163'> +2.3209858e-12 </wgt>
<wgt id='1164'> +2.3213645e-12 </wgt>
<wgt id='1165'> +2.3220369e-12 </wgt>
<wgt id='1166'> +2.3201719e-12 </wgt>
<wgt id='1167'> +2.3496276e-12 </wgt>
<wgt id='1168'> +2.2869592e-12 </wgt>
<wgt id='1169'> +2.3297046e-12 </wgt>
<wgt id='1170'> +2.3147675e-12 </wgt>
<wgt id='1171'> +2.3128633e-12 </wgt>
<wgt id='1172'> +2.3319144e-12 </wgt>
<wgt id='1173'> +2.2951387e-12 </wgt>
<wgt id='1174'> +2.3482852e-12 </wgt>
<wgt id='1175'> +2.3261580e-12 </wgt>
<wgt id='1176'> +2.3167421e-12 </wgt>
<wgt id='1177'> +2.3150744e-12 </wgt>
<wgt id='1178'> +2.3369389e-12 </wgt>
<wgt id='1179'> +2.3168366e-12 </wgt>
<wgt id='1180'> +2.3195609e-12 </wgt>
<wgt id='1181'> +2.3287079e-12 </wgt>
<wgt id='1182'> +2.3119261e-12 </wgt>
<wgt id='1183'> +2.3132903e-12 </wgt>
<wgt id='1184'> +2.3216014e-12 </wgt>
<wgt id='1185'> +2.3164866e-12 </wgt>
<wgt id='1186'> +2.3236333e-12 </wgt>
<wgt id='1187'> +2.3246109e-12 </wgt>
<wgt id='1188'> +2.3199440e-12 </wgt>
<wgt id='1189'> +2.3137493e-12 </wgt>
<wgt id='1190'> +2.2970909e-12 </wgt>
<wgt id='1191'> +2.3244575e-12 </wgt>
<wgt id='1192'> +2.3302090e-12 </wgt>
<wgt id='1193'> +1.4101375e-12 </wgt>
<wgt id='1194'> +1.3918712e-12 </wgt>
<wgt id='1195'> +1.4251105e-12 </wgt>
<wgt id='1196'> +1.4095819e-12 </wgt>
<wgt id='1197'> +1.4107331e-12 </wgt>
<wgt id='1198'> +1.4092920e-12 </wgt>
<wgt id='1199'> +1.4114350e-12 </wgt>
<wgt id='1200'> +1.4064202e-12 </wgt>
<wgt id='1201'> +1.4126520e-12 </wgt>
<wgt id='1202'> +1.4090746e-12 </wgt>
<wgt id='1203'> +1.4116250e-12 </wgt>
<wgt id='1204'> +1.4038447e-12 </wgt>
<wgt id='1205'> +1.4138215e-12 </wgt>
<wgt id='1206'> +1.4129881e-12 </wgt>
<wgt id='1207'> +1.4061914e-12 </wgt>
<wgt id='1208'> +1.4164758e-12 </wgt>
<wgt id='1209'> +1.4079194e-12 </wgt>
<wgt id='1210'> +1.4154032e-12 </wgt>
<wgt id='1211'> +1.4044193e-12 </wgt>
<wgt id='1212'> +1.4094042e-12 </wgt>
<wgt id='1213'> +1.4114427e-12 </wgt>
<wgt id='1214'> +1.3988838e-12 </wgt>
<wgt id='1215'> +1.4234703e-12 </wgt>
<wgt id='1216'> +1.4157338e-12 </wgt>
<wgt id='1217'> +1.4063905e-12 </wgt>
<wgt id='1218'> +1.4150246e-12 </wgt>
<wgt id='1219'> +1.4074167e-12 </wgt>
<wgt id='1220'> +1.4188889e-12 </wgt>
<wgt id='1221'> +1.4083567e-12 </wgt>
<wgt id='1222'> +1.4317851e-12 </wgt>
<wgt id='1223'> +1.3795374e-12 </wgt>
<wgt id='1224'> +1.4143484e-12 </wgt>
<wgt id='1225'> +1.4084428e-12 </wgt>
<wgt id='1226'> +1.4083457e-12 </wgt>
<wgt id='1227'> +1.4116557e-12 </wgt>
<wgt id='1228'> +1.4014598e-12 </wgt>
<wgt id='1229'> +1.4135113e-12 </wgt>
<wgt id='1230'> +1.4110079e-12 </wgt>
<wgt id='1231'> +1.4220906e-12 </wgt>
<wgt id='1232'> +1.4106233e-12 </wgt>
<wgt id='1233'> +1.4100026e-12 </wgt>
<wgt id='1234'> +1.4101375e-12 </wgt>
<wgt id='1235'> +1.4026278e-12 </wgt>
<wgt id='1236'> +1.4055426e-12 </wgt>
<wgt id='1237'> +1.4081375e-12 </wgt>
<wgt id='1238'> +1.4123396e-12 </wgt>
<wgt id='1239'> +1.4140261e-12 </wgt>
<wgt id='1240'> +1.4157902e-12 </wgt>
<wgt id='1241'> +1.3279724e-12 </wgt>
<wgt id='1242'> +1.3105954e-12 </wgt>
<wgt id='1243'> +1.3451327e-12 </wgt>
<wgt id='1244'> +1.3321725e-12 </wgt>
<wgt id='1245'> +1.3248157e-12 </wgt>
<wgt id='1246'> +1.3235831e-12 </wgt>
<wgt id='1247'> +1.3316979e-12 </wgt>
<wgt id='1248'> +1.3279839e-12 </wgt>
<wgt id='1249'> +1.3279710e-12 </wgt>
<wgt id='1250'> +1.3288512e-12 </wgt>
<wgt id='1251'> +1.3273779e-12 </wgt>
<wgt id='1252'> +1.3257775e-12 </wgt>
<wgt id='1253'> +1.3296626e-12 </wgt>
<wgt id='1254'> +1.3236471e-12 </wgt>
<wgt id='1255'> +1.3304784e-12 </wgt>
<wgt id='1256'> +1.3256541e-12 </wgt>
<wgt id='1257'> +1.3337823e-12 </wgt>
<wgt id='1258'> +1.3348935e-12 </wgt>
<wgt id='1259'> +1.3189783e-12 </wgt>
<wgt id='1260'> +1.3296101e-12 </wgt>
<wgt id='1261'> +1.3265226e-12 </wgt>
<wgt id='1262'> +1.3277738e-12 </wgt>
<wgt id='1263'> +1.3284136e-12 </wgt>
<wgt id='1264'> +1.3340456e-12 </wgt>
<wgt id='1265'> +1.3253244e-12 </wgt>
<wgt id='1266'> +1.3067467e-12 </wgt>
<wgt id='1267'> +1.3479004e-12 </wgt>
<wgt id='1268'> +1.3361048e-12 </wgt>
<wgt id='1269'> +1.3210332e-12 </wgt>
<wgt id='1270'> +1.3385930e-12 </wgt>
<wgt id='1271'> +1.3312141e-12 </wgt>
<wgt id='1272'> +1.3328529e-12 </wgt>
<wgt id='1273'> +1.3275078e-12 </wgt>
<wgt id='1274'> +1.3298911e-12 </wgt>
<wgt id='1275'> +1.3255264e-12 </wgt>
<wgt id='1276'> +1.3335666e-12 </wgt>
<wgt id='1277'> +1.3200878e-12 </wgt>
<wgt id='1278'> +1.3438527e-12 </wgt>
<wgt id='1279'> +1.3317641e-12 </wgt>
<wgt id='1280'> +1.3287439e-12 </wgt>
<wgt id='1281'> +1.3294191e-12 </wgt>
<wgt id='1282'> +1.3279724e-12 </wgt>
<wgt id='1283'> +1.3212193e-12 </wgt>
<wgt id='1284'> +1.3240320e-12 </wgt>
<wgt id='1285'> +1.3261770e-12 </wgt>
<wgt id='1286'> +1.3298327e-12 </wgt>
<wgt id='1287'> +1.3310708e-12 </wgt>
<wgt id='1288'> +1.3320880e-12 </wgt>
<wgt id='1289'> +1.4568322e-12 </wgt>
<wgt id='1290'> +1.4604326e-12 </wgt>
<wgt id='1291'> +1.4529401e-12 </wgt>
<wgt id='1292'> +1.4580580e-12 </wgt>
<wgt id='1293'> +1.4559529e-12 </wgt>
<wgt id='1294'> +1.4385406e-12 </wgt>
<wgt id='1295'> +1.4744860e-12 </wgt>
<wgt id='1296'> +1.4626673e-12 </wgt>
<wgt id='1297'> +1.4494729e-12 </wgt>
<wgt id='1298'> +1.4646507e-12 </wgt>
<wgt id='1299'> +1.4469824e-12 </wgt>
<wgt id='1300'> +1.4602196e-12 </wgt>
<wgt id='1301'> +1.4500367e-12 </wgt>
<wgt id='1302'> +1.4523964e-12 </wgt>
<wgt id='1303'> +1.4630072e-12 </wgt>
<wgt id='1304'> +1.4556906e-12 </wgt>
<wgt id='1305'> +1.4575813e-12 </wgt>
<wgt id='1306'> +1.4586276e-12 </wgt>
<wgt id='1307'> +1.4546246e-12 </wgt>
<wgt id='1308'> +1.4489941e-12 </wgt>
<wgt id='1309'> +1.4628130e-12 </wgt>
<wgt id='1310'> +1.4562487e-12 </wgt>
<wgt id='1311'> +1.4576830e-12 </wgt>
<wgt id='1312'> +1.4668560e-12 </wgt>
<wgt id='1313'> +1.4474992e-12 </wgt>
<wgt id='1314'> +1.4393703e-12 </wgt>
<wgt id='1315'> +1.4732957e-12 </wgt>
<wgt id='1316'> +1.4656514e-12 </wgt>
<wgt id='1317'> +1.4575976e-12 </wgt>
<wgt id='1318'> +1.4664088e-12 </wgt>
<wgt id='1319'> +1.4441473e-12 </wgt>
<wgt id='1320'> +1.4717840e-12 </wgt>
<wgt id='1321'> +1.4431451e-12 </wgt>
<wgt id='1322'> +1.4565215e-12 </wgt>
<wgt id='1323'> +1.4577956e-12 </wgt>
<wgt id='1324'> +1.4537608e-12 </wgt>
<wgt id='1325'> +1.4661114e-12 </wgt>
<wgt id='1326'> +1.4555594e-12 </wgt>
<wgt id='1327'> +1.4609425e-12 </wgt>
<wgt id='1328'> +1.4562811e-12 </wgt>
<wgt id='1329'> +1.4568502e-12 </wgt>
<wgt id='1330'> +1.4646813e-12 </wgt>
<wgt id='1331'> +1.4509622e-12 </wgt>
<wgt id='1332'> +1.4684703e-12 </wgt>
<wgt id='1333'> +1.4624754e-12 </wgt>
<wgt id='1334'> +1.4549287e-12 </wgt>
<wgt id='1335'> +1.4627837e-12 </wgt>
<wgt id='1336'> +1.4600974e-12 </wgt>
<wgt id='1337'> +1.4657884e-12 </wgt>
<wgt id='1338'> +1.4565589e-12 </wgt>
<wgt id='1339'> +1.4578462e-12 </wgt>
<wgt id='1340'> +1.4208807e-12 </wgt>
<wgt id='1341'> +1.4242409e-12 </wgt>
<wgt id='1342'> +1.4172611e-12 </wgt>
<wgt id='1343'> +1.4222119e-12 </wgt>
<wgt id='1344'> +1.4199947e-12 </wgt>
<wgt id='1345'> +1.4019080e-12 </wgt>
<wgt id='1346'> +1.4384516e-12 </wgt>
<wgt id='1347'> +1.4275816e-12 </wgt>
<wgt id='1348'> +1.4132960e-12 </wgt>
<wgt id='1349'> +1.4282139e-12 </wgt>
<wgt id='1350'> +1.4136636e-12 </wgt>
<wgt id='1351'> +1.4240798e-12 </wgt>
<wgt id='1352'> +1.4139135e-12 </wgt>
<wgt id='1353'> +1.4154462e-12 </wgt>
<wgt id='1354'> +1.4305981e-12 </wgt>
<wgt id='1355'> +1.4207615e-12 </wgt>
<wgt id='1356'> +1.4209355e-12 </wgt>
<wgt id='1357'> +1.4213083e-12 </wgt>
<wgt id='1358'> +1.4201276e-12 </wgt>
<wgt id='1359'> +1.4130162e-12 </wgt>
<wgt id='1360'> +1.4276888e-12 </wgt>
<wgt id='1361'> +1.4211366e-12 </wgt>
<wgt id='1362'> +1.4207641e-12 </wgt>
<wgt id='1363'> +1.4376423e-12 </wgt>
<wgt id='1364'> +1.4105794e-12 </wgt>
<wgt id='1365'> +1.4286643e-12 </wgt>
<wgt id='1366'> +1.4068423e-12 </wgt>
<wgt id='1367'> +1.4295697e-12 </wgt>
<wgt id='1368'> +1.4204560e-12 </wgt>
<wgt id='1369'> +1.4285835e-12 </wgt>
<wgt id='1370'> +1.4110232e-12 </wgt>
<wgt id='1371'> +1.4332264e-12 </wgt>
<wgt id='1372'> +1.4054522e-12 </wgt>
<wgt id='1373'> +1.4175615e-12 </wgt>
<wgt id='1374'> +1.4244481e-12 </wgt>
<wgt id='1375'> +1.4178997e-12 </wgt>
<wgt id='1376'> +1.4301641e-12 </wgt>
<wgt id='1377'> +1.4195183e-12 </wgt>
<wgt id='1378'> +1.4252199e-12 </wgt>
<wgt id='1379'> +1.4205506e-12 </wgt>
<wgt id='1380'> +1.4206869e-12 </wgt>
<wgt id='1381'> +1.4288830e-12 </wgt>
<wgt id='1382'> +1.4152065e-12 </wgt>
<wgt id='1383'> +1.4306040e-12 </wgt>
<wgt id='1384'> +1.4274306e-12 </wgt>
<wgt id='1385'> +1.4192234e-12 </wgt>
<wgt id='1386'> +1.4256292e-12 </wgt>
<wgt id='1387'> +1.4240188e-12 </wgt>
<wgt id='1388'> +1.4298304e-12 </wgt>
<wgt id='1389'> +1.4206624e-12 </wgt>
<wgt id='1390'> +1.4225239e-12 </wgt>
<wgt id='1391'> +1.4006671e-12 </wgt>
<wgt id='1392'> +1.3498501e-12 </wgt>
<wgt id='1393'> +1.3673005e-12 </wgt>
<wgt id='1394'> +1.3843092e-12 </wgt>
<wgt id='1395'> +1.4182122e-12 </wgt>
<wgt id='1396'> +1.4012841e-12 </wgt>
<wgt id='1397'> +1.3783540e-12 </wgt>
<wgt id='1398'> +1.3818005e-12 </wgt>
<wgt id='1399'> +1.3855492e-12 </wgt>
<wgt id='1400'> +1.3902399e-12 </wgt>
<wgt id='1401'> +1.3956929e-12 </wgt>
<wgt id='1402'> +1.4066455e-12 </wgt>
<wgt id='1403'> +1.4125430e-12 </wgt>
<wgt id='1404'> +1.4185211e-12 </wgt>
<wgt id='1405'> +1.4012841e-12 </wgt>
<wgt id='1406'> +1.3968095e-12 </wgt>
<wgt id='1407'> +1.3991145e-12 </wgt>
<wgt id='1408'> +1.4032657e-12 </wgt>
<wgt id='1409'> +1.4047271e-12 </wgt>
<wgt id='1410'> +1.3069208e-12 </wgt>
<wgt id='1411'> +1.3139584e-12 </wgt>
<wgt id='1412'> +1.2978394e-12 </wgt>
<wgt id='1413'> +1.2965783e-12 </wgt>
<wgt id='1414'> +1.3172136e-12 </wgt>
<wgt id='1415'> +1.3035958e-12 </wgt>
<wgt id='1416'> +1.3082574e-12 </wgt>
<wgt id='1417'> +1.3032396e-12 </wgt>
<wgt id='1418'> +1.3105390e-12 </wgt>
<wgt id='1419'> +1.3087581e-12 </wgt>
<wgt id='1420'> +1.3051082e-12 </wgt>
<wgt id='1421'> +1.2933173e-12 </wgt>
<wgt id='1422'> +1.3126592e-12 </wgt>
<wgt id='1423'> +1.3053618e-12 </wgt>
<wgt id='1424'> +1.3088195e-12 </wgt>
<wgt id='1425'> +1.2988714e-12 </wgt>
<wgt id='1426'> +1.3155776e-12 </wgt>
<wgt id='1427'> +1.2908076e-12 </wgt>
<wgt id='1428'> +1.3155447e-12 </wgt>
<wgt id='1429'> +1.3109447e-12 </wgt>
<wgt id='1430'> +1.3015678e-12 </wgt>
<wgt id='1431'> +1.3074937e-12 </wgt>
<wgt id='1432'> +1.3064631e-12 </wgt>
<wgt id='1433'> +1.2932591e-12 </wgt>
<wgt id='1434'> +1.3175587e-12 </wgt>
<wgt id='1435'> +1.2990478e-12 </wgt>
<wgt id='1436'> +1.3271156e-12 </wgt>
<wgt id='1437'> +1.3148922e-12 </wgt>
<wgt id='1438'> +1.3099106e-12 </wgt>
<wgt id='1439'> +1.3008876e-12 </wgt>
<wgt id='1440'> +1.3160679e-12 </wgt>
<wgt id='1441'> +1.3111691e-12 </wgt>
<wgt id='1442'> +1.2982919e-12 </wgt>
<wgt id='1443'> +1.3037364e-12 </wgt>
<wgt id='1444'> +1.3162222e-12 </wgt>
<wgt id='1445'> +1.3217003e-12 </wgt>
<wgt id='1446'> +1.3021476e-12 </wgt>
<wgt id='1447'> +1.3082576e-12 </wgt>
<wgt id='1448'> +1.3103260e-12 </wgt>
<wgt id='1449'> +1.3069925e-12 </wgt>
<wgt id='1450'> +1.3060893e-12 </wgt>
<wgt id='1451'> +1.3052895e-12 </wgt>
<wgt id='1452'> +1.3150598e-12 </wgt>
<wgt id='1453'> +1.3070952e-12 </wgt>
<wgt id='1454'> +1.3055918e-12 </wgt>
<wgt id='1455'> +1.3178817e-12 </wgt>
<wgt id='1456'> +1.3162540e-12 </wgt>
<wgt id='1457'> +1.3147052e-12 </wgt>
<wgt id='1458'> +1.3055558e-12 </wgt>
<wgt id='1459'> +1.3131554e-12 </wgt>
<wgt id='1460'> +1.3189221e-12 </wgt>
<wgt id='1461'> +1.3069208e-12 </wgt>
<wgt id='1462'> +1.2944030e-12 </wgt>
<wgt id='1463'> +1.3147745e-12 </wgt>
<wgt id='1464'> +1.3041815e-12 </wgt>
<wgt id='1465'> +1.2777631e-12 </wgt>
<wgt id='1466'> +1.2821230e-12 </wgt>
<wgt id='1467'> +1.2870174e-12 </wgt>
<wgt id='1468'> +1.2944265e-12 </wgt>
<wgt id='1469'> +1.2986661e-12 </wgt>
<wgt id='1470'> +1.3099394e-12 </wgt>
<wgt id='1471'> +1.3153433e-12 </wgt>
<wgt id='1472'> +1.3208846e-12 </wgt>
<wgt id='1473'> +1.3041815e-12 </wgt>
<wgt id='1474'> +1.3006255e-12 </wgt>
<wgt id='1475'> +1.3030544e-12 </wgt>
<wgt id='1476'> +1.3054066e-12 </wgt>
<wgt id='1477'> +1.3065092e-12 </wgt>
<wgt id='1478'> +1.3657106e-12 </wgt>
<wgt id='1479'> +1.3653372e-12 </wgt>
<wgt id='1480'> +1.3506372e-12 </wgt>
<wgt id='1481'> +1.3914893e-12 </wgt>
<wgt id='1482'> +1.3666463e-12 </wgt>
<wgt id='1483'> +1.3497187e-12 </wgt>
<wgt id='1484'> +1.3568328e-12 </wgt>
<wgt id='1485'> +1.3726600e-12 </wgt>
<wgt id='1486'> +1.3654882e-12 </wgt>
<wgt id='1487'> +1.3766459e-12 </wgt>
<wgt id='1488'> +1.3631692e-12 </wgt>
<wgt id='1489'> +1.3676104e-12 </wgt>
<wgt id='1490'> +1.3618661e-12 </wgt>
<wgt id='1491'> +1.3716712e-12 </wgt>
<wgt id='1492'> +1.3672594e-12 </wgt>
<wgt id='1493'> +1.3468930e-12 </wgt>
<wgt id='1494'> +1.3622575e-12 </wgt>
<wgt id='1495'> +1.3517447e-12 </wgt>
<wgt id='1496'> +1.3662340e-12 </wgt>
<wgt id='1497'> +1.3665747e-12 </wgt>
<wgt id='1498'> +1.3656552e-12 </wgt>
<wgt id='1499'> +1.3685584e-12 </wgt>
<wgt id='1500'> +1.3658487e-12 </wgt>
<wgt id='1501'> +1.3663427e-12 </wgt>
<wgt id='1502'> +1.3653990e-12 </wgt>
<wgt id='1503'> +1.3700181e-12 </wgt>
<wgt id='1504'> +1.3614305e-12 </wgt>
<wgt id='1505'> +1.3687597e-12 </wgt>
<wgt id='1506'> +1.3668763e-12 </wgt>
<wgt id='1507'> +1.3655425e-12 </wgt>
<wgt id='1508'> +1.3693106e-12 </wgt>
<wgt id='1509'> +1.3223839e-12 </wgt>
<wgt id='1510'> +1.3277088e-12 </wgt>
<wgt id='1511'> +1.3028302e-12 </wgt>
<wgt id='1512'> +1.3107329e-12 </wgt>
<wgt id='1513'> +1.3213232e-12 </wgt>
<wgt id='1514'> +1.3272856e-12 </wgt>
<wgt id='1515'> +1.3254632e-12 </wgt>
<wgt id='1516'> +1.3251647e-12 </wgt>
<wgt id='1517'> +1.3232233e-12 </wgt>
<wgt id='1518'> +1.3222345e-12 </wgt>
<wgt id='1519'> +1.3227605e-12 </wgt>
<wgt id='1520'> +1.3233085e-12 </wgt>
<wgt id='1521'> +1.3226735e-12 </wgt>
<wgt id='1522'> +1.3243970e-12 </wgt>
<wgt id='1523'> +1.3246532e-12 </wgt>
<wgt id='1524'> +1.3211109e-12 </wgt>
<wgt id='1525'> +1.3233011e-12 </wgt>
<wgt id='1526'> +1.3228572e-12 </wgt>
<wgt id='1527'> +1.3217649e-12 </wgt>
<wgt id='1528'> +1.3228918e-12 </wgt>
<wgt id='1529'> +1.3228527e-12 </wgt>
<wgt id='1530'> +1.3238273e-12 </wgt>
<wgt id='1531'> +1.3236609e-12 </wgt>
<wgt id='1532'> +1.3178973e-12 </wgt>
<wgt id='1533'> +1.3233038e-12 </wgt>
<wgt id='1534'> +1.3223794e-12 </wgt>
<wgt id='1535'> +1.3170515e-12 </wgt>
<wgt id='1536'> +1.3246682e-12 </wgt>
<wgt id='1537'> +1.3244242e-12 </wgt>
<wgt id='1538'> +1.3119288e-12 </wgt>
<wgt id='1539'> +1.3238184e-12 </wgt>
<wgt id='1540'> +1.3220765e-12 </wgt>
<wgt id='1541'> +1.3203850e-12 </wgt>
<wgt id='1542'> +1.3205293e-12 </wgt>
<wgt id='1543'> +1.3231618e-12 </wgt>
<wgt id='1544'> +1.3216636e-12 </wgt>
<wgt id='1545'> +1.3204548e-12 </wgt>
<wgt id='1546'> +1.3214626e-12 </wgt>
<wgt id='1547'> +1.3211122e-12 </wgt>
<wgt id='1548'> +1.3231440e-12 </wgt>
<wgt id='1549'> +1.3209109e-12 </wgt>
<wgt id='1550'> +1.3222287e-12 </wgt>
<wgt id='1551'> +1.3232388e-12 </wgt>
<wgt id='1552'> +1.3238800e-12 </wgt>
<wgt id='1553'> +1.3220931e-12 </wgt>
<wgt id='1554'> +1.3210560e-12 </wgt>
<wgt id='1555'> +1.3248399e-12 </wgt>
<wgt id='1556'> +1.3261727e-12 </wgt>
<wgt id='1557'> +1.3221055e-12 </wgt>
<wgt id='1558'> +1.3217626e-12 </wgt>
<wgt id='1559'> +1.3197540e-12 </wgt>
<wgt id='1560'> +1.3219377e-12 </wgt>
<wgt id='1561'> +1.3218792e-12 </wgt>
<wgt id='1562'> +1.3220236e-12 </wgt>
<wgt id='1563'> +1.3221357e-12 </wgt>
<wgt id='1564'> +1.3214532e-12 </wgt>
<wgt id='1565'> +1.3229084e-12 </wgt>
<wgt id='1566'> +1.3227182e-12 </wgt>
<wgt id='1567'> +1.3230094e-12 </wgt>
<wgt id='1568'> +1.3212673e-12 </wgt>
<wgt id='1569'> +1.3250429e-12 </wgt>
<wgt id='1570'> +1.3230424e-12 </wgt>
<wgt id='1571'> +1.3231949e-12 </wgt>
<wgt id='1572'> +1.3232132e-12 </wgt>
<wgt id='1573'> +1.3225944e-12 </wgt>
<wgt id='1574'> +1.3234067e-12 </wgt>
<wgt id='1575'> +1.3212654e-12 </wgt>
<wgt id='1576'> +1.3225088e-12 </wgt>
<wgt id='1577'> +1.3230572e-12 </wgt>
<wgt id='1578'> +1.3240420e-12 </wgt>
<wgt id='1579'> +1.3213699e-12 </wgt>
<wgt id='1580'> +1.3215820e-12 </wgt>
<wgt id='1581'> +1.3227153e-12 </wgt>
<wgt id='1582'> +1.3239621e-12 </wgt>
<wgt id='1583'> +1.3216066e-12 </wgt>
<wgt id='1584'> +1.3230969e-12 </wgt>
<wgt id='1585'> +1.3229357e-12 </wgt>
<wgt id='1586'> +1.3223680e-12 </wgt>
<wgt id='1587'> +1.3219812e-12 </wgt>
<wgt id='1588'> +1.3214146e-12 </wgt>
<wgt id='1589'> +1.3234120e-12 </wgt>
<wgt id='1590'> +1.3222055e-12 </wgt>
<wgt id='1591'> +1.3225684e-12 </wgt>
<wgt id='1592'> +1.3215965e-12 </wgt>
<wgt id='1593'> +1.3236562e-12 </wgt>
<wgt id='1594'> +1.3220244e-12 </wgt>
<wgt id='1595'> +1.3226495e-12 </wgt>
<wgt id='1596'> +1.3211544e-12 </wgt>
<wgt id='1597'> +1.3233099e-12 </wgt>
<wgt id='1598'> +1.3220384e-12 </wgt>
<wgt id='1599'> +1.3224131e-12 </wgt>
<wgt id='1600'> +1.3211671e-12 </wgt>
<wgt id='1601'> +1.3224702e-12 </wgt>
<wgt id='1602'> +1.3225908e-12 </wgt>
<wgt id='1603'> +1.3232553e-12 </wgt>
<wgt id='1604'> +1.3230048e-12 </wgt>
<wgt id='1605'> +1.3227872e-12 </wgt>
<wgt id='1606'> +1.3221158e-12 </wgt>
<wgt id='1607'> +1.3219819e-12 </wgt>
<wgt id='1608'> +1.3229407e-12 </wgt>
<wgt id='1609'> +1.3228817e-12 </wgt>
<wgt id='1610'> +1.3051437e-12 </wgt>
<wgt id='1611'> +1.3378424e-12 </wgt>
<wgt id='1612'> +1.5453748e-12 </wgt>
<wgt id='1613'> +1.5164008e-12 </wgt>
<wgt id='1614'> +1.4847186e-12 </wgt>
<wgt id='1615'> +1.5275800e-12 </wgt>
<wgt id='1616'> +1.4925057e-12 </wgt>
<wgt id='1617'> +1.4997873e-12 </wgt>
<wgt id='1618'> +1.5629015e-12 </wgt>
<wgt id='1619'> +1.5254796e-12 </wgt>
<wgt id='1620'> +1.5236430e-12 </wgt>
<wgt id='1621'> +1.5478773e-12 </wgt>
<wgt id='1622'> +1.5576955e-12 </wgt>
<wgt id='1623'> +1.5397283e-12 </wgt>
<wgt id='1624'> +1.5889674e-12 </wgt>
<wgt id='1625'> +1.4810701e-12 </wgt>
<wgt id='1626'> +1.5173767e-12 </wgt>
<wgt id='1627'> +1.5770696e-12 </wgt>
<wgt id='1628'> +1.4875193e-12 </wgt>
<wgt id='1629'> +1.5733630e-12 </wgt>
<wgt id='1630'> +1.4988752e-12 </wgt>
<wgt id='1631'> +1.5094728e-12 </wgt>
<wgt id='1632'> +1.4701441e-12 </wgt>
<wgt id='1633'> +1.4690599e-12 </wgt>
<wgt id='1634'> +1.5389167e-12 </wgt>
<wgt id='1635'> +1.5691470e-12 </wgt>
<wgt id='1636'> +1.5550473e-12 </wgt>
<wgt id='1637'> +1.5831033e-12 </wgt>
<wgt id='1638'> +1.5633385e-12 </wgt>
<wgt id='1639'> +1.5146504e-12 </wgt>
<wgt id='1640'> +1.5437956e-12 </wgt>
<wgt id='1641'> +1.5405436e-12 </wgt>
<wgt id='1642'> +1.4839950e-12 </wgt>
<wgt id='1643'> +1.5145690e-12 </wgt>
<wgt id='1644'> +1.5727447e-12 </wgt>
<wgt id='1645'> +1.5138979e-12 </wgt>
<wgt id='1646'> +1.5461907e-12 </wgt>
<wgt id='1647'> +1.5819370e-12 </wgt>
<wgt id='1648'> +1.5495253e-12 </wgt>
<wgt id='1649'> +1.6360834e-12 </wgt>
<wgt id='1650'> +1.5050639e-12 </wgt>
<wgt id='1651'> +1.5627920e-12 </wgt>
<wgt id='1652'> +1.5070499e-12 </wgt>
<wgt id='1653'> +1.5591625e-12 </wgt>
<wgt id='1654'> +1.5531641e-12 </wgt>
<wgt id='1655'> +1.5924800e-12 </wgt>
<wgt id='1656'> +1.5187447e-12 </wgt>
<wgt id='1657'> +1.5625715e-12 </wgt>
<wgt id='1658'> +1.5091545e-12 </wgt>
<wgt id='1659'> +1.5889674e-12 </wgt>
<wgt id='1660'> +1.5673637e-12 </wgt>
<wgt id='1661'> +1.5761837e-12 </wgt>
<wgt id='1662'> +1.6220129e-12 </wgt>
<wgt id='1663'> +1.5398331e-12 </wgt>
<wgt id='1664'> +1.5196632e-12 </wgt>
<wgt id='1665'> +1.5183253e-12 </wgt>
<wgt id='1666'> +1.5731396e-12 </wgt>
<wgt id='1667'> +1.5425753e-12 </wgt>
<wgt id='1668'> +1.5738986e-12 </wgt>
<wgt id='1669'> +1.5679607e-12 </wgt>
<wgt id='1670'> +1.5172933e-12 </wgt>
<wgt id='1671'> +1.5247273e-12 </wgt>
<wgt id='1672'> +1.5722808e-12 </wgt>
<wgt id='1673'> +1.5477716e-12 </wgt>
<wgt id='1674'> +1.5200815e-12 </wgt>
<wgt id='1675'> +1.5396502e-12 </wgt>
<wgt id='1676'> +1.5249632e-12 </wgt>
<wgt id='1677'> +1.5437375e-12 </wgt>
<wgt id='1678'> +1.5227057e-12 </wgt>
<wgt id='1679'> +1.5492765e-12 </wgt>
<wgt id='1680'> +1.6041486e-12 </wgt>
<wgt id='1681'> +1.5823305e-12 </wgt>
<wgt id='1682'> +1.5351029e-12 </wgt>
<wgt id='1683'> +1.5535941e-12 </wgt>
<wgt id='1684'> +1.6046219e-12 </wgt>
<wgt id='1685'> +1.5448022e-12 </wgt>
<wgt id='1686'> +1.5307066e-12 </wgt>
<wgt id='1687'> +1.5658446e-12 </wgt>
<wgt id='1688'> +1.5253353e-12 </wgt>
<wgt id='1689'> +1.6166873e-12 </wgt>
<wgt id='1690'> +1.5452138e-12 </wgt>
<wgt id='1691'> +1.4825579e-12 </wgt>
<wgt id='1692'> +1.5762032e-12 </wgt>
<wgt id='1693'> +1.5444442e-12 </wgt>
<wgt id='1694'> +1.5283501e-12 </wgt>
<wgt id='1695'> +1.5575235e-12 </wgt>
<wgt id='1696'> +1.5383521e-12 </wgt>
<wgt id='1697'> +1.5461061e-12 </wgt>
<wgt id='1698'> +1.5641434e-12 </wgt>
<wgt id='1699'> +1.5686371e-12 </wgt>
<wgt id='1700'> +1.5175106e-12 </wgt>
<wgt id='1701'> +1.6171633e-12 </wgt>
<wgt id='1702'> +1.5035435e-12 </wgt>
<wgt id='1703'> +1.5244086e-12 </wgt>
<wgt id='1704'> +1.5117635e-12 </wgt>
<wgt id='1705'> +1.4732981e-12 </wgt>
<wgt id='1706'> +1.5953675e-12 </wgt>
<wgt id='1707'> +1.5722086e-12 </wgt>
<wgt id='1708'> +1.6246897e-12 </wgt>
<wgt id='1709'> +1.6069283e-12 </wgt>
<wgt id='1710'> +1.5386544e-12 </wgt>
<wgt id='1711'> +1.5488248e-12 </wgt>
<wgt id='1712'> +1.6053637e-12 </wgt>
<wgt id='1713'> +1.3236979e-12 </wgt>
<wgt id='1714'> +1.3222441e-12 </wgt>
<wgt id='1715'> +1.2909003e-12 </wgt>
<wgt id='1716'> +1.3515466e-12 </wgt>
<wgt id='1717'> +1.3366779e-12 </wgt>
<wgt id='1718'> +1.3487083e-12 </wgt>
<wgt id='1719'> +1.3450498e-12 </wgt>
<wgt id='1720'> +1.2751016e-12 </wgt>
<wgt id='1721'> +1.2943987e-12 </wgt>
<wgt id='1722'> +1.3147420e-12 </wgt>
<wgt id='1723'> +1.3754326e-12 </wgt>
<wgt id='1724'> +1.3182953e-12 </wgt>
<wgt id='1725'> +1.3278305e-12 </wgt>
<wgt id='1726'> +1.3255366e-12 </wgt>
<wgt id='1727'> +1.3764865e-12 </wgt>
<wgt id='1728'> +1.3112876e-12 </wgt>
<wgt id='1729'> +1.2655823e-12 </wgt>
<wgt id='1730'> +1.3012323e-12 </wgt>
<wgt id='1731'> +1.2552437e-12 </wgt>
<wgt id='1732'> +1.3279499e-12 </wgt>
<wgt id='1733'> +1.2596042e-12 </wgt>
<wgt id='1734'> +1.3954771e-12 </wgt>
<wgt id='1735'> +1.2954999e-12 </wgt>
<wgt id='1736'> +1.3460292e-12 </wgt>
<wgt id='1737'> +1.3745686e-12 </wgt>
<wgt id='1738'> +1.3117125e-12 </wgt>
<wgt id='1739'> +1.3282151e-12 </wgt>
<wgt id='1740'> +1.2429010e-12 </wgt>
<wgt id='1741'> +1.3731814e-12 </wgt>
<wgt id='1742'> +1.3069914e-12 </wgt>
<wgt id='1743'> +1.2928101e-12 </wgt>
<wgt id='1744'> +1.3449797e-12 </wgt>
<wgt id='1745'> +1.3456646e-12 </wgt>
<wgt id='1746'> +1.2998303e-12 </wgt>
<wgt id='1747'> +1.3858101e-12 </wgt>
<wgt id='1748'> +1.3173604e-12 </wgt>
<wgt id='1749'> +1.3134797e-12 </wgt>
<wgt id='1750'> +1.2974816e-12 </wgt>
<wgt id='1751'> +1.3070348e-12 </wgt>
<wgt id='1752'> +1.3185050e-12 </wgt>
<wgt id='1753'> +1.3375414e-12 </wgt>
<wgt id='1754'> +1.3444579e-12 </wgt>
<wgt id='1755'> +1.3333319e-12 </wgt>
<wgt id='1756'> +1.3471612e-12 </wgt>
<wgt id='1757'> +1.3494197e-12 </wgt>
<wgt id='1758'> +1.3831992e-12 </wgt>
<wgt id='1759'> +1.3527375e-12 </wgt>
<wgt id='1760'> +1.3194414e-12 </wgt>
<wgt id='1761'> +1.3279448e-12 </wgt>
<wgt id='1762'> +1.2992554e-12 </wgt>
<wgt id='1763'> +1.3475566e-12 </wgt>
<wgt id='1764'> +1.3665893e-12 </wgt>
<wgt id='1765'> +1.3105359e-12 </wgt>
<wgt id='1766'> +1.3588317e-12 </wgt>
<wgt id='1767'> +1.3232371e-12 </wgt>
<wgt id='1768'> +1.3435522e-12 </wgt>
<wgt id='1769'> +1.3389774e-12 </wgt>
<wgt id='1770'> +1.3151142e-12 </wgt>
<wgt id='1771'> +1.3789255e-12 </wgt>
<wgt id='1772'> +1.3168886e-12 </wgt>
<wgt id='1773'> +1.3283240e-12 </wgt>
<wgt id='1774'> +1.3040416e-12 </wgt>
<wgt id='1775'> +1.3217390e-12 </wgt>
<wgt id='1776'> +1.3751086e-12 </wgt>
<wgt id='1777'> +1.2645222e-12 </wgt>
<wgt id='1778'> +1.3295864e-12 </wgt>
<wgt id='1779'> +1.3102112e-12 </wgt>
<wgt id='1780'> +1.3168129e-12 </wgt>
<wgt id='1781'> +1.3535929e-12 </wgt>
<wgt id='1782'> +1.3145798e-12 </wgt>
<wgt id='1783'> +1.3351237e-12 </wgt>
<wgt id='1784'> +1.3132877e-12 </wgt>
<wgt id='1785'> +1.3268040e-12 </wgt>
<wgt id='1786'> +1.3136833e-12 </wgt>
<wgt id='1787'> +1.4104979e-12 </wgt>
<wgt id='1788'> +1.3107974e-12 </wgt>
<wgt id='1789'> +1.4000706e-12 </wgt>
<wgt id='1790'> +1.3313788e-12 </wgt>
<wgt id='1791'> +1.3046049e-12 </wgt>
<wgt id='1792'> +1.2982325e-12 </wgt>
<wgt id='1793'> +1.3023885e-12 </wgt>
<wgt id='1794'> +1.3625460e-12 </wgt>
<wgt id='1795'> +1.3338443e-12 </wgt>
<wgt id='1796'> +1.2913344e-12 </wgt>
<wgt id='1797'> +1.3295479e-12 </wgt>
<wgt id='1798'> +1.3124185e-12 </wgt>
<wgt id='1799'> +1.3050213e-12 </wgt>
<wgt id='1800'> +1.3397985e-12 </wgt>
<wgt id='1801'> +1.3203379e-12 </wgt>
<wgt id='1802'> +1.2909318e-12 </wgt>
<wgt id='1803'> +1.3371581e-12 </wgt>
<wgt id='1804'> +1.3381160e-12 </wgt>
<wgt id='1805'> +1.2865906e-12 </wgt>
<wgt id='1806'> +1.2982211e-12 </wgt>
<wgt id='1807'> +1.3004318e-12 </wgt>
<wgt id='1808'> +1.2880000e-12 </wgt>
<wgt id='1809'> +1.3040580e-12 </wgt>
<wgt id='1810'> +1.2952861e-12 </wgt>
<wgt id='1811'> +1.3285569e-12 </wgt>
<wgt id='1812'> +1.2944537e-12 </wgt>
<wgt id='1813'> +1.2420616e-12 </wgt>
<wgt id='1814'> +1.6785701e-12 </wgt>
<wgt id='1815'> +2.0556081e-12 </wgt>
<wgt id='1816'> +1.3236979e-12 </wgt>
<wgt id='1817'> +1.3222441e-12 </wgt>
<wgt id='1818'> +1.2909003e-12 </wgt>
<wgt id='1819'> +1.3515466e-12 </wgt>
<wgt id='1820'> +1.3366779e-12 </wgt>
<wgt id='1821'> +1.3487083e-12 </wgt>
<wgt id='1822'> +1.3450498e-12 </wgt>
<wgt id='1823'> +1.2751016e-12 </wgt>
<wgt id='1824'> +1.2943987e-12 </wgt>
<wgt id='1825'> +1.3147420e-12 </wgt>
<wgt id='1826'> +1.3754326e-12 </wgt>
<wgt id='1827'> +1.3182953e-12 </wgt>
<wgt id='1828'> +1.3278305e-12 </wgt>
<wgt id='1829'> +1.3255366e-12 </wgt>
<wgt id='1830'> +1.3764865e-12 </wgt>
<wgt id='1831'> +1.3112876e-12 </wgt>
<wgt id='1832'> +1.2655823e-12 </wgt>
<wgt id='1833'> +1.3012323e-12 </wgt>
<wgt id='1834'> +1.2552437e-12 </wgt>
<wgt id='1835'> +1.3279499e-12 </wgt>
<wgt id='1836'> +1.2596042e-12 </wgt>
<wgt id='1837'> +1.3954771e-12 </wgt>
<wgt id='1838'> +1.2954999e-12 </wgt>
<wgt id='1839'> +1.3460292e-12 </wgt>
<wgt id='1840'> +1.3745686e-12 </wgt>
<wgt id='1841'> +1.3117125e-12 </wgt>
<wgt id='1842'> +1.3282151e-12 </wgt>
<wgt id='1843'> +1.2429010e-12 </wgt>
<wgt id='1844'> +1.3731814e-12 </wgt>
<wgt id='1845'> +1.3069914e-12 </wgt>
<wgt id='1846'> +1.2928101e-12 </wgt>
<wgt id='1847'> +1.3449797e-12 </wgt>
<wgt id='1848'> +1.3456646e-12 </wgt>
<wgt id='1849'> +1.2998303e-12 </wgt>
<wgt id='1850'> +1.3858101e-12 </wgt>
<wgt id='1851'> +1.3173604e-12 </wgt>
<wgt id='1852'> +1.3134797e-12 </wgt>
<wgt id='1853'> +1.2974816e-12 </wgt>
<wgt id='1854'> +1.3070348e-12 </wgt>
<wgt id='1855'> +1.3185050e-12 </wgt>
<wgt id='1856'> +1.3375414e-12 </wgt>
<wgt id='1857'> +1.3444579e-12 </wgt>
<wgt id='1858'> +1.3333319e-12 </wgt>
<wgt id='1859'> +1.3471612e-12 </wgt>
<wgt id='1860'> +1.3494197e-12 </wgt>
<wgt id='1861'> +1.3831992e-12 </wgt>
<wgt id='1862'> +1.3527375e-12 </wgt>
<wgt id='1863'> +1.3194414e-12 </wgt>
<wgt id='1864'> +1.3279448e-12 </wgt>
<wgt id='1865'> +1.2992554e-12 </wgt>
<wgt id='1866'> +1.3475566e-12 </wgt>
<wgt id='1867'> +1.3665893e-12 </wgt>
<wgt id='1868'> +1.3105359e-12 </wgt>
<wgt id='1869'> +1.3588317e-12 </wgt>
<wgt id='1870'> +1.3232371e-12 </wgt>
<wgt id='1871'> +1.3435522e-12 </wgt>
<wgt id='1872'> +1.3389774e-12 </wgt>
<wgt id='1873'> +1.3151142e-12 </wgt>
<wgt id='1874'> +1.3789255e-12 </wgt>
<wgt id='1875'> +1.3168886e-12 </wgt>
<wgt id='1876'> +1.3283240e-12 </wgt>
<wgt id='1877'> +1.3040416e-12 </wgt>
<wgt id='1878'> +1.3217390e-12 </wgt>
<wgt id='1879'> +1.3751086e-12 </wgt>
<wgt id='1880'> +1.2645222e-12 </wgt>
<wgt id='1881'> +1.3295864e-12 </wgt>
<wgt id='1882'> +1.3102112e-12 </wgt>
<wgt id='1883'> +1.3168129e-12 </wgt>
<wgt id='1884'> +1.3535929e-12 </wgt>
<wgt id='1885'> +1.3145798e-12 </wgt>
<wgt id='1886'> +1.3351237e-12 </wgt>
<wgt id='1887'> +1.3132877e-12 </wgt>
<wgt id='1888'> +1.3268040e-12 </wgt>
<wgt id='1889'> +1.3136833e-12 </wgt>
<wgt id='1890'> +1.4104979e-12 </wgt>
<wgt id='1891'> +1.3107974e-12 </wgt>
<wgt id='1892'> +1.4000706e-12 </wgt>
<wgt id='1893'> +1.3313788e-12 </wgt>
<wgt id='1894'> +1.3046049e-12 </wgt>
<wgt id='1895'> +1.2982325e-12 </wgt>
<wgt id='1896'> +1.3023885e-12 </wgt>
<wgt id='1897'> +1.3625460e-12 </wgt>
<wgt id='1898'> +1.3338443e-12 </wgt>
<wgt id='1899'> +1.2913344e-12 </wgt>
<wgt id='1900'> +1.3295479e-12 </wgt>
<wgt id='1901'> +1.3124185e-12 </wgt>
<wgt id='1902'> +1.3050213e-12 </wgt>
<wgt id='1903'> +1.3397985e-12 </wgt>
<wgt id='1904'> +1.3203379e-12 </wgt>
<wgt id='1905'> +1.2909318e-12 </wgt>
<wgt id='1906'> +1.3371581e-12 </wgt>
<wgt id='1907'> +1.3381160e-12 </wgt>
<wgt id='1908'> +1.2865906e-12 </wgt>
<wgt id='1909'> +1.2982211e-12 </wgt>
<wgt id='1910'> +1.3004318e-12 </wgt>
<wgt id='1911'> +1.2880000e-12 </wgt>
<wgt id='1912'> +1.3040580e-12 </wgt>
<wgt id='1913'> +1.2952861e-12 </wgt>
<wgt id='1914'> +1.3285569e-12 </wgt>
<wgt id='1915'> +1.2944537e-12 </wgt>
<wgt id='1916'> +1.2420616e-12 </wgt>
<wgt id='1917'> +1.3153059e-12 </wgt>
<wgt id='1918'> +1.3419972e-12 </wgt>
<wgt id='1919'> +1.2784662e-12 </wgt>
</rwgt>
</event>
<event>
 9      1 +1.5607000e-12 5.15379800e+01 7.81860800e-03 1.30410600e-01
       -2 -1    0    0    0  501 -0.0000000000e+00 +0.0000000000e+00 +6.2888109831e+01 6.2888109831e+01 0.0000000000e+00 0.0000e+00 -1.0000e+00
       21 -1    0    0  501  502 +0.0000000000e+00 -0.0000000000e+00 -1.0559083890e+01 1.0559083890e+01 0.0000000000e+00 0.0000e+00 1.0000e+00
     1023  2    1    2    0    0 -1.5583560950e+01 +1.5396647013e+01 +1.5924691488e+01 3.0959787610e+01 1.5000284621e+01 0.0000e+00 0.0000e+00
  1000023  2    3    3    0    0 -1.3821371164e+01 +1.2427309650e+01 +7.9893977731e+00 2.0965230913e+01 5.4992821780e+00 0.0000e+00 0.0000e+00
       -2  1    1    2    0  502 +1.5583560950e+01 -1.5396647013e+01 +3.6404334453e+01 4.2487406112e+01 0.0000000000e+00 0.0000e+00 -1.0000e+00
  1000022  1    4    4    0    0 -1.2280215295e+01 +1.1368740801e+01 +7.5871526485e+00 1.9042500897e+01 5.0000000000e+00 0.0000e+00 1.0000e+00
      -11  1    4    4    0    0 -1.2880794464e+00 +8.8742557051e-01 +4.1033265967e-01 1.6171103723e+00 5.1100000000e-04 0.0000e+00 -1.0000e+00
       11  1    4    4    0    0 -2.5307642285e-01 +1.7114327839e-01 -8.0875351313e-03 3.0561964414e-01 5.1100000000e-04 0.0000e+00 1.0000e+00
  1000022  1    3    3    0    0 -1.7621897859e+00 +2.9693373634e+00 +7.9352937149e+00 9.9945566966e+00 5.0000000000e+00 0.0000e+00 1.0000e+00
<mgrwt>
<rscale>  1 0.51537979E+02</rscale>
<asrwt>0</asrwt>
<pdfrwt beam="1">  1       21 0.16244745E-02 0.51537979E+02</pdfrwt>
<pdfrwt beam="2">  1       -2 0.96750935E-02 0.51537979E+02</pdfrwt>
<totfact> 0.86661232E+06</totfact>
</mgrwt>
<rwgt>
<wgt id='1001'> +1.5607000e-12 </wgt>
<wgt id='1002'> +1.5452632e-12 </wgt>
<wgt id='1003'> +1.5509820e-12 </wgt>
<wgt id='1004'> +1.4432653e-12 </wgt>
<wgt id='1005'> +1.5607000e-12 </wgt>
<wgt id='1006'> +1.3840313e-12 </wgt>
<wgt id='1007'> +1.3661867e-12 </wgt>
<wgt id='1008'> +1.3727629e-12 </wgt>
<wgt id='1009'> +1.2542214e-12 </wgt>
<wgt id='1010'> +1.3840313e-12 </wgt>
<wgt id='1011'> +1.7913536e-12 </wgt>
<wgt id='1012'> +1.7807927e-12 </wgt>
<wgt id='1013'> +1.7847555e-12 </wgt>
<wgt id='1014'> +1.7029320e-12 </wgt>
<wgt id='1015'> +1.7913536e-12 </wgt>
<wgt id='1016'> +1.8233727e-12 </wgt>
<wgt id='1017'> +1.8198292e-12 </wgt>
<wgt id='1018'> +1.8212259e-12 </wgt>
<wgt id='1019'> +1.7847555e-12 </wgt>
<wgt id='1020'> +1.8233727e-12 </wgt>
<wgt id='1021'> +1.6169698e-12 </wgt>
<wgt id='1022'> +1.6089340e-12 </wgt>
<wgt id='1023'> +1.6119537e-12 </wgt>
<wgt id='1024'> +1.5509820e-12 </wgt>
<wgt id='1025'> +1.6169698e-12 </wgt>
<wgt id='1026'> +2.0928463e-12 </wgt>
<wgt id='1027'> +2.0972081e-12 </wgt>
<wgt id='1028'> +2.0957321e-12 </wgt>
<wgt id='1029'> +2.1058619e-12 </wgt>
<wgt id='1030'> +2.0928463e-12 </wgt>
<wgt id='1031'> +1.2715581e-12 </wgt>
<wgt id='1032'> +1.2441398e-12 </wgt>
<wgt id='1033'> +1.2542214e-12 </wgt>
<wgt id='1034'> +1.0753309e-12 </wgt>
<wgt id='1035'> +1.2715581e-12 </wgt>
<wgt id='1036'> +1.1276198e-12 </wgt>
<wgt id='1037'> +1.0999598e-12 </wgt>
<wgt id='1038'> +1.1101022e-12 </wgt>
<wgt id='1039'> +9.3448033e-13 </wgt>
<wgt id='1040'> +1.1276198e-12 </wgt>
<wgt id='1041'> +1.4594799e-12 </wgt>
<wgt id='1042'> +1.4337720e-12 </wgt>
<wgt id='1043'> +1.4432653e-12 </wgt>
<wgt id='1044'> +1.2688003e-12 </wgt>
<wgt id='1045'> +1.4594799e-12 </wgt>
<wgt id='1046'> +1.5607000e-12 </wgt>
<wgt id='1047'> +1.6557918e-12 </wgt>
<wgt id='1048'> +1.5708156e-12 </wgt>
<wgt id='1049'> +1.5244423e-12 </wgt>
<wgt id='1050'> +1.5434496e-12 </wgt>
<wgt id='1051'> +1.5074023e-12 </wgt>
<wgt id='1052'> +1.6020869e-12 </wgt>
<wgt id='1053'> +1.5699155e-12 </wgt>
<wgt id='1054'> +1.5309611e-12 </wgt>
<wgt id='1055'> +1.5194995e-12 </wgt>
<wgt id='1056'> +1.5236830e-12 </wgt>
<wgt id='1057'> +1.5748740e-12 </wgt>
<wgt id='1058'> +1.5098383e-12 </wgt>
<wgt id='1059'> +1.5567069e-12 </wgt>
<wgt id='1060'> +1.5712985e-12 </wgt>
<wgt id='1061'> +1.5694230e-12 </wgt>
<wgt id='1062'> +1.5717561e-12 </wgt>
<wgt id='1063'> +1.5655512e-12 </wgt>
<wgt id='1064'> +1.5222844e-12 </wgt>
<wgt id='1065'> +1.5733694e-12 </wgt>
<wgt id='1066'> +1.5100552e-12 </wgt>
<wgt id='1067'> +1.5303140e-12 </wgt>
<wgt id='1068'> +1.6038229e-12 </wgt>
<wgt id='1069'> +1.5810839e-12 </wgt>
<wgt id='1070'> +1.5293104e-12 </wgt>
<wgt id='1071'> +1.5454599e-12 </wgt>
<wgt id='1072'> +1.6197629e-12 </wgt>
<wgt id='1073'> +1.5827147e-12 </wgt>
<wgt id='1074'> +1.5399567e-12 </wgt>
<wgt id='1075'> +1.5541537e-12 </wgt>
<wgt id='1076'> +1.5826616e-12 </wgt>
<wgt id='1077'> +1.6092391e-12 </wgt>
<wgt id='1078'> +1.5482028e-12 </wgt>
<wgt id='1079'> +1.5796947e-12 </wgt>
<wgt id='1080'> +1.5027837e-12 </wgt>
<wgt id='1081'> +1.5623689e-12 </wgt>
<wgt id='1082'> +1.5716999e-12 </wgt>
<wgt id='1083'> +1.5667475e-12 </wgt>
<wgt id='1084'> +1.5385246e-12 </wgt>
<wgt id='1085'> +1.5555657e-12 </wgt>
<wgt id='1086'> +1.6055878e-12 </wgt>
<wgt id='1087'> +1.5694116e-12 </wgt>
<wgt id='1088'> +1.5806158e-12 </wgt>
<wgt id='1089'> +1.5775269e-12 </wgt>
<wgt id='1090'> +1.5694623e-12 </wgt>
<wgt id='1091'> +1.5856151e-12 </wgt>
<wgt id='1092'> +1.6034595e-12 </wgt>
<wgt id='1093'> +1.5752577e-12 </wgt>
<wgt id='1094'> +1.5807508e-12 </wgt>
<wgt id='1095'> +1.5832266e-12 </wgt>
<wgt id='1096'> +1.5430929e-12 </wgt>
<wgt id='1097'> +1.5093756e-12 </wgt>
<wgt id='1098'> +1.5503012e-12 </wgt>
<wgt id='1099'> +1.5511223e-12 </wgt>
<wgt id='1100'> +1.5658216e-12 </wgt>
<wgt id='1101'> +1.5891534e-12 </wgt>
<wgt id='1102'> +1.5481243e-12 </wgt>
<wgt id='1103'> +1.5933131e-12 </wgt>
<wgt id='1104'> +1.5537722e-12 </wgt>
<wgt id='1105'> +1.5645146e-12 </wgt>
<wgt id='1106'> +1.6025228e-12 </wgt>
<wgt id='1107'> +1.5808886e-12 </wgt>
<wgt id='1108'> +1.5483345e-12 </wgt>
<wgt id='1109'> +1.5424454e-12 </wgt>
<wgt id='1110'> +1.5233208e-12 </wgt>
<wgt id='1111'> +1.5939176e-12 </wgt>
<wgt id='1112'> +1.6187300e-12 </wgt>
<wgt id='1113'> +1.5615979e-12 </wgt>
<wgt id='1114'> +1.6006516e-12 </wgt>
<wgt id='1115'> +1.5756715e-12 </wgt>
<wgt id='1116'> +1.5466241e-12 </wgt>
<wgt id='1117'> +1.5299203e-12 </wgt>
<wgt id='1118'> +1.5557084e-12 </wgt>
<wgt id='1119'> +1.5136076e-12 </wgt>
<wgt id='1120'> +1.5223802e-12 </wgt>
<wgt id='1121'> +1.5434575e-12 </wgt>
<wgt id='1122'> +1.6073516e-12 </wgt>
<wgt id='1123'> +1.5319852e-12 </wgt>
<wgt id='1124'> +1.5509794e-12 </wgt>
<wgt id='1125'> +1.5564648e-12 </wgt>
<wgt id='1126'> +1.5682768e-12 </wgt>
<wgt id='1127'> +1.5569582e-12 </wgt>
<wgt id='1128'> +1.5717561e-12 </wgt>
<wgt id='1129'> +1.5801724e-12 </wgt>
<wgt id='1130'> +1.5482389e-12 </wgt>
<wgt id='1131'> +1.5708382e-12 </wgt>
<wgt id='1132'> +1.5795162e-12 </wgt>
<wgt id='1133'> +1.4770283e-12 </wgt>
<wgt id='1134'> +1.5752799e-12 </wgt>
<wgt id='1135'> +1.5236208e-12 </wgt>
<wgt id='1136'> +1.5326373e-12 </wgt>
<wgt id='1137'> +1.5267884e-12 </wgt>
<wgt id='1138'> +1.5142788e-12 </wgt>
<wgt id='1139'> +1.5396405e-12 </wgt>
<wgt id='1140'> +1.5423055e-12 </wgt>
<wgt id='1141'> +1.5574851e-12 </wgt>
<wgt id='1142'> +1.5830373e-12 </wgt>
<wgt id='1143'> +1.5999080e-12 </wgt>
<wgt id='1144'> +1.5786456e-12 </wgt>
<wgt id='1145'> +1.5838043e-12 </wgt>
<wgt id='1146'> +1.5702547e-12 </wgt>
<wgt id='1147'> +1.2150583e-12 </wgt>
<wgt id='1148'> +1.2446903e-12 </wgt>
<wgt id='1149'> +1.2581183e-12 </wgt>
<wgt id='1150'> +1.2470760e-12 </wgt>
<wgt id='1151'> +1.2807421e-12 </wgt>
<wgt id='1152'> +1.6636149e-12 </wgt>
<wgt id='1153'> +1.6546233e-12 </wgt>
<wgt id='1154'> +1.6688289e-12 </wgt>
<wgt id='1155'> +1.6620094e-12 </wgt>
<wgt id='1156'> +1.6644517e-12 </wgt>
<wgt id='1157'> +1.6685344e-12 </wgt>
<wgt id='1158'> +1.6569744e-12 </wgt>
<wgt id='1159'> +1.6678054e-12 </wgt>
<wgt id='1160'> +1.6609435e-12 </wgt>
<wgt id='1161'> +1.6604940e-12 </wgt>
<wgt id='1162'> +1.6657561e-12 </wgt>
<wgt id='1163'> +1.6676993e-12 </wgt>
<wgt id='1164'> +1.6595453e-12 </wgt>
<wgt id='1165'> +1.6541270e-12 </wgt>
<wgt id='1166'> +1.6728941e-12 </wgt>
<wgt id='1167'> +1.6713387e-12 </wgt>
<wgt id='1168'> +1.6524599e-12 </wgt>
<wgt id='1169'> +1.6658539e-12 </wgt>
<wgt id='1170'> +1.6619222e-12 </wgt>
<wgt id='1171'> +1.6569966e-12 </wgt>
<wgt id='1172'> +1.6714396e-12 </wgt>
<wgt id='1173'> +1.6494844e-12 </wgt>
<wgt id='1174'> +1.6767476e-12 </wgt>
<wgt id='1175'> +1.6644923e-12 </wgt>
<wgt id='1176'> +1.6618690e-12 </wgt>
<wgt id='1177'> +1.6649250e-12 </wgt>
<wgt id='1178'> +1.6599340e-12 </wgt>
<wgt id='1179'> +1.6696163e-12 </wgt>
<wgt id='1180'> +1.6500938e-12 </wgt>
<wgt id='1181'> +1.6582776e-12 </wgt>
<wgt id='1182'> +1.6686622e-12 </wgt>
<wgt id='1183'> +1.6618100e-12 </wgt>
<wgt id='1184'> +1.6637859e-12 </wgt>
<wgt id='1185'> +1.6547930e-12 </wgt>
<wgt id='1186'> +1.6687232e-12 </wgt>
<wgt id='1187'> +1.6631564e-12 </wgt>
<wgt id='1188'> +1.6637886e-12 </wgt>
<wgt id='1189'> +1.6587122e-12 </wgt>
<wgt id='1190'> +1.6511140e-12 </wgt>
<wgt id='1191'> +1.6579407e-12 </wgt>
<wgt id='1192'> +1.6652992e-12 </wgt>
<wgt id='1193'> +1.2753414e-12 </wgt>
<wgt id='1194'> +1.2731878e-12 </wgt>
<wgt id='1195'> +1.2771382e-12 </wgt>
<wgt id='1196'> +1.2824871e-12 </wgt>
<wgt id='1197'> +1.2674611e-12 </wgt>
<wgt id='1198'> +1.2750215e-12 </wgt>
<wgt id='1199'> +1.2758989e-12 </wgt>
<wgt id='1200'> +1.2767235e-12 </wgt>
<wgt id='1201'> +1.2744758e-12 </wgt>
<wgt id='1202'> +1.2739009e-12 </wgt>
<wgt id='1203'> +1.2774548e-12 </wgt>
<wgt id='1204'> +1.2664675e-12 </wgt>
<wgt id='1205'> +1.2808608e-12 </wgt>
<wgt id='1206'> +1.2796925e-12 </wgt>
<wgt id='1207'> +1.2695271e-12 </wgt>
<wgt id='1208'> +1.2675632e-12 </wgt>
<wgt id='1209'> +1.2782139e-12 </wgt>
<wgt id='1210'> +1.2781704e-12 </wgt>
<wgt id='1211'> +1.2638038e-12 </wgt>
<wgt id='1212'> +1.2760627e-12 </wgt>
<wgt id='1213'> +1.2746611e-12 </wgt>
<wgt id='1214'> +1.2579862e-12 </wgt>
<wgt id='1215'> +1.3039705e-12 </wgt>
<wgt id='1216'> +1.2811598e-12 </wgt>
<wgt id='1217'> +1.2708997e-12 </wgt>
<wgt id='1218'> +1.2801083e-12 </wgt>
<wgt id='1219'> +1.2728206e-12 </wgt>
<wgt id='1220'> +1.2812806e-12 </wgt>
<wgt id='1221'> +1.2733198e-12 </wgt>
<wgt id='1222'> +1.2794584e-12 </wgt>
<wgt id='1223'> +1.2675474e-12 </wgt>
<wgt id='1224'> +1.2768965e-12 </wgt>
<wgt id='1225'> +1.2747725e-12 </wgt>
<wgt id='1226'> +1.2712666e-12 </wgt>
<wgt id='1227'> +1.2781695e-12 </wgt>
<wgt id='1228'> +1.2756780e-12 </wgt>
<wgt id='1229'> +1.2744700e-12 </wgt>
<wgt id='1230'> +1.2705379e-12 </wgt>
<wgt id='1231'> +1.2702215e-12 </wgt>
<wgt id='1232'> +1.2770218e-12 </wgt>
<wgt id='1233'> +1.2749184e-12 </wgt>
<wgt id='1234'> +1.2753414e-12 </wgt>
<wgt id='1235'> +1.2667386e-12 </wgt>
<wgt id='1236'> +1.2699725e-12 </wgt>
<wgt id='1237'> +1.2729049e-12 </wgt>
<wgt id='1238'> +1.2778334e-12 </wgt>
<wgt id='1239'> +1.2798837e-12 </wgt>
<wgt id='1240'> +1.2817606e-12 </wgt>
<wgt id='1241'> +1.2688571e-12 </wgt>
<wgt id='1242'> +1.2625202e-12 </wgt>
<wgt id='1243'> +1.2751849e-12 </wgt>
<wgt id='1244'> +1.2616586e-12 </wgt>
<wgt id='1245'> +1.2741730e-12 </wgt>
<wgt id='1246'> +1.2686578e-12 </wgt>
<wgt id='1247'> +1.2690607e-12 </wgt>
<wgt id='1248'> +1.2687724e-12 </wgt>
<wgt id='1249'> +1.2689233e-12 </wgt>
<wgt id='1250'> +1.2716231e-12 </wgt>
<wgt id='1251'> +1.2668942e-12 </wgt>
<wgt id='1252'> +1.2657850e-12 </wgt>
<wgt id='1253'> +1.2712610e-12 </wgt>
<wgt id='1254'> +1.2603581e-12 </wgt>
<wgt id='1255'> +1.2739408e-12 </wgt>
<wgt id='1256'> +1.2728893e-12 </wgt>
<wgt id='1257'> +1.2587721e-12 </wgt>
<wgt id='1258'> +1.2910894e-12 </wgt>
<wgt id='1259'> +1.2483603e-12 </wgt>
<wgt id='1260'> +1.2727102e-12 </wgt>
<wgt id='1261'> +1.2645176e-12 </wgt>
<wgt id='1262'> +1.2680261e-12 </wgt>
<wgt id='1263'> +1.2688358e-12 </wgt>
<wgt id='1264'> +1.2736013e-12 </wgt>
<wgt id='1265'> +1.2664539e-12 </wgt>
<wgt id='1266'> +1.2595402e-12 </wgt>
<wgt id='1267'> +1.2770142e-12 </wgt>
<wgt id='1268'> +1.2708722e-12 </wgt>
<wgt id='1269'> +1.2698787e-12 </wgt>
<wgt id='1270'> +1.2616917e-12 </wgt>
<wgt id='1271'> +1.2629886e-12 </wgt>
<wgt id='1272'> +1.2672702e-12 </wgt>
<wgt id='1273'> +1.2687272e-12 </wgt>
<wgt id='1274'> +1.2713274e-12 </wgt>
<wgt id='1275'> +1.2639225e-12 </wgt>
<wgt id='1276'> +1.2668068e-12 </wgt>
<wgt id='1277'> +1.2696919e-12 </wgt>
<wgt id='1278'> +1.2673609e-12 </wgt>
<wgt id='1279'> +1.2672438e-12 </wgt>
<wgt id='1280'> +1.2683116e-12 </wgt>
<wgt id='1281'> +1.2719960e-12 </wgt>
<wgt id='1282'> +1.2688571e-12 </wgt>
<wgt id='1283'> +1.2598014e-12 </wgt>
<wgt id='1284'> +1.2632887e-12 </wgt>
<wgt id='1285'> +1.2663342e-12 </wgt>
<wgt id='1286'> +1.2713952e-12 </wgt>
<wgt id='1287'> +1.2734137e-12 </wgt>
<wgt id='1288'> +1.2750722e-12 </wgt>
<wgt id='1289'> +1.2829135e-12 </wgt>
<wgt id='1290'> +1.2818931e-12 </wgt>
<wgt id='1291'> +1.2840332e-12 </wgt>
<wgt id='1292'> +1.2766045e-12 </wgt>
<wgt id='1293'> +1.2874721e-12 </wgt>
<wgt id='1294'> +1.2773367e-12 </wgt>
<wgt id='1295'> +1.2883492e-12 </wgt>
<wgt id='1296'> +1.2807008e-12 </wgt>
<wgt id='1297'> +1.2855865e-12 </wgt>
<wgt id='1298'> +1.2868043e-12 </wgt>
<wgt id='1299'> +1.2779889e-12 </wgt>
<wgt id='1300'> +1.2852103e-12 </wgt>
<wgt id='1301'> +1.2783294e-12 </wgt>
<wgt id='1302'> +1.2808513e-12 </wgt>
<wgt id='1303'> +1.2858031e-12 </wgt>
<wgt id='1304'> +1.2806561e-12 </wgt>
<wgt id='1305'> +1.2844294e-12 </wgt>
<wgt id='1306'> +1.2804336e-12 </wgt>
<wgt id='1307'> +1.2857976e-12 </wgt>
<wgt id='1308'> +1.2834731e-12 </wgt>
<wgt id='1309'> +1.2824601e-12 </wgt>
<wgt id='1310'> +1.2849359e-12 </wgt>
<wgt id='1311'> +1.2809374e-12 </wgt>
<wgt id='1312'> +1.2830272e-12 </wgt>
<wgt id='1313'> +1.2830934e-12 </wgt>
<wgt id='1314'> +1.2794582e-12 </wgt>
<wgt id='1315'> +1.2819476e-12 </wgt>
<wgt id='1316'> +1.2889685e-12 </wgt>
<wgt id='1317'> +1.2832131e-12 </wgt>
<wgt id='1318'> +1.2935139e-12 </wgt>
<wgt id='1319'> +1.2701896e-12 </wgt>
<wgt id='1320'> +1.3002425e-12 </wgt>
<wgt id='1321'> +1.2690118e-12 </wgt>
<wgt id='1322'> +1.2812109e-12 </wgt>
<wgt id='1323'> +1.2847274e-12 </wgt>
<wgt id='1324'> +1.2824171e-12 </wgt>
<wgt id='1325'> +1.2880051e-12 </wgt>
<wgt id='1326'> +1.2816079e-12 </wgt>
<wgt id='1327'> +1.2859529e-12 </wgt>
<wgt id='1328'> +1.2829682e-12 </wgt>
<wgt id='1329'> +1.2827045e-12 </wgt>
<wgt id='1330'> +1.2672289e-12 </wgt>
<wgt id='1331'> +1.2963155e-12 </wgt>
<wgt id='1332'> +1.3065936e-12 </wgt>
<wgt id='1333'> +1.2674546e-12 </wgt>
<wgt id='1334'> +1.2770457e-12 </wgt>
<wgt id='1335'> +1.2984089e-12 </wgt>
<wgt id='1336'> +1.2796147e-12 </wgt>
<wgt id='1337'> +1.2793902e-12 </wgt>
<wgt id='1338'> +1.2796264e-12 </wgt>
<wgt id='1339'> +1.2835349e-12 </wgt>
<wgt id='1340'> +1.2621595e-12 </wgt>
<wgt id='1341'> +1.2613021e-12 </wgt>
<wgt id='1342'> +1.2631107e-12 </wgt>
<wgt id='1343'> +1.2556963e-12 </wgt>
<wgt id='1344'> +1.2665193e-12 </wgt>
<wgt id='1345'> +1.2566553e-12 </wgt>
<wgt id='1346'> +1.2673359e-12 </wgt>
<wgt id='1347'> +1.2601580e-12 </wgt>
<wgt id='1348'> +1.2643356e-12 </wgt>
<wgt id='1349'> +1.2657099e-12 </wgt>
<wgt id='1350'> +1.2586279e-12 </wgt>
<wgt id='1351'> +1.2643592e-12 </wgt>
<wgt id='1352'> +1.2573897e-12 </wgt>
<wgt id='1353'> +1.2594985e-12 </wgt>
<wgt id='1354'> +1.2668636e-12 </wgt>
<wgt id='1355'> +1.2603048e-12 </wgt>
<wgt id='1356'> +1.2631592e-12 </wgt>
<wgt id='1357'> +1.2598589e-12 </wgt>
<wgt id='1358'> +1.2649416e-12 </wgt>
<wgt id='1359'> +1.2637043e-12 </wgt>
<wgt id='1360'> +1.2608196e-12 </wgt>
<wgt id='1361'> +1.2638308e-12 </wgt>
<wgt id='1362'> +1.2601246e-12 </wgt>
<wgt id='1363'> +1.2628899e-12 </wgt>
<wgt id='1364'> +1.2621786e-12 </wgt>
<wgt id='1365'> +1.2577672e-12 </wgt>
<wgt id='1366'> +1.2604940e-12 </wgt>
<wgt id='1367'> +1.2680611e-12 </wgt>
<wgt id='1368'> +1.2618763e-12 </wgt>
<wgt id='1369'> +1.2707891e-12 </wgt>
<wgt id='1370'> +1.2517376e-12 </wgt>
<wgt id='1371'> +1.2750290e-12 </wgt>
<wgt id='1372'> +1.2470853e-12 </wgt>
<wgt id='1373'> +1.2570983e-12 </wgt>
<wgt id='1374'> +1.2663598e-12 </wgt>
<wgt id='1375'> +1.2616220e-12 </wgt>
<wgt id='1376'> +1.2673414e-12 </wgt>
<wgt id='1377'> +1.2613037e-12 </wgt>
<wgt id='1378'> +1.2651235e-12 </wgt>
<wgt id='1379'> +1.2619486e-12 </wgt>
<wgt id='1380'> +1.2621970e-12 </wgt>
<wgt id='1381'> +1.2465978e-12 </wgt>
<wgt id='1382'> +1.2736797e-12 </wgt>
<wgt id='1383'> +1.2862965e-12 </wgt>
<wgt id='1384'> +1.2459014e-12 </wgt>
<wgt id='1385'> +1.2565275e-12 </wgt>
<wgt id='1386'> +1.2761002e-12 </wgt>
<wgt id='1387'> +1.2577792e-12 </wgt>
<wgt id='1388'> +1.2577506e-12 </wgt>
<wgt id='1389'> +1.2566249e-12 </wgt>
<wgt id='1390'> +1.2632938e-12 </wgt>
<wgt id='1391'> +1.2323790e-12 </wgt>
<wgt id='1392'> +1.2031741e-12 </wgt>
<wgt id='1393'> +1.2135110e-12 </wgt>
<wgt id='1394'> +1.2235555e-12 </wgt>
<wgt id='1395'> +1.2432874e-12 </wgt>
<wgt id='1396'> +1.2337079e-12 </wgt>
<wgt id='1397'> +1.1942522e-12 </wgt>
<wgt id='1398'> +1.2025467e-12 </wgt>
<wgt id='1399'> +1.2098171e-12 </wgt>
<wgt id='1400'> +1.2172684e-12 </wgt>
<wgt id='1401'> +1.2255783e-12 </wgt>
<wgt id='1402'> +1.2416510e-12 </wgt>
<wgt id='1403'> +1.2494166e-12 </wgt>
<wgt id='1404'> +1.2567900e-12 </wgt>
<wgt id='1405'> +1.2337079e-12 </wgt>
<wgt id='1406'> +1.2296576e-12 </wgt>
<wgt id='1407'> +1.2320146e-12 </wgt>
<wgt id='1408'> +1.2354364e-12 </wgt>
<wgt id='1409'> +1.2375380e-12 </wgt>
<wgt id='1410'> +1.2270959e-12 </wgt>
<wgt id='1411'> +1.2262222e-12 </wgt>
<wgt id='1412'> +1.2282542e-12 </wgt>
<wgt id='1413'> +1.2293256e-12 </wgt>
<wgt id='1414'> +1.2249086e-12 </wgt>
<wgt id='1415'> +1.2183691e-12 </wgt>
<wgt id='1416'> +1.2306561e-12 </wgt>
<wgt id='1417'> +1.2202446e-12 </wgt>
<wgt id='1418'> +1.2339817e-12 </wgt>
<wgt id='1419'> +1.2283670e-12 </wgt>
<wgt id='1420'> +1.2258947e-12 </wgt>
<wgt id='1421'> +1.2166835e-12 </wgt>
<wgt id='1422'> +1.2316035e-12 </wgt>
<wgt id='1423'> +1.2267508e-12 </wgt>
<wgt id='1424'> +1.2275257e-12 </wgt>
<wgt id='1425'> +1.2218214e-12 </wgt>
<wgt id='1426'> +1.2328130e-12 </wgt>
<wgt id='1427'> +1.2213236e-12 </wgt>
<wgt id='1428'> +1.2301114e-12 </wgt>
<wgt id='1429'> +1.2247478e-12 </wgt>
<wgt id='1430'> +1.2303814e-12 </wgt>
<wgt id='1431'> +1.2277670e-12 </wgt>
<wgt id='1432'> +1.2266271e-12 </wgt>
<wgt id='1433'> +1.2230233e-12 </wgt>
<wgt id='1434'> +1.2298591e-12 </wgt>
<wgt id='1435'> +1.2267424e-12 </wgt>
<wgt id='1436'> +1.2282512e-12 </wgt>
<wgt id='1437'> +1.2324969e-12 </wgt>
<wgt id='1438'> +1.2271673e-12 </wgt>
<wgt id='1439'> +1.2203088e-12 </wgt>
<wgt id='1440'> +1.2430484e-12 </wgt>
<wgt id='1441'> +1.2327375e-12 </wgt>
<wgt id='1442'> +1.2162962e-12 </wgt>
<wgt id='1443'> +1.2256429e-12 </wgt>
<wgt id='1444'> +1.2309762e-12 </wgt>
<wgt id='1445'> +1.2354379e-12 </wgt>
<wgt id='1446'> +1.2246237e-12 </wgt>
<wgt id='1447'> +1.2279501e-12 </wgt>
<wgt id='1448'> +1.2281880e-12 </wgt>
<wgt id='1449'> +1.2277544e-12 </wgt>
<wgt id='1450'> +1.2264080e-12 </wgt>
<wgt id='1451'> +1.2358854e-12 </wgt>
<wgt id='1452'> +1.2060165e-12 </wgt>
<wgt id='1453'> +1.2291858e-12 </wgt>
<wgt id='1454'> +1.2122243e-12 </wgt>
<wgt id='1455'> +1.2179879e-12 </wgt>
<wgt id='1456'> +1.2317696e-12 </wgt>
<wgt id='1457'> +1.2354639e-12 </wgt>
<wgt id='1458'> +1.2233267e-12 </wgt>
<wgt id='1459'> +1.2314966e-12 </wgt>
<wgt id='1460'> +1.2219298e-12 </wgt>
<wgt id='1461'> +1.2270959e-12 </wgt>
<wgt id='1462'> +1.2199994e-12 </wgt>
<wgt id='1463'> +1.2376676e-12 </wgt>
<wgt id='1464'> +1.2285015e-12 </wgt>
<wgt id='1465'> +1.1939995e-12 </wgt>
<wgt id='1466'> +1.2014506e-12 </wgt>
<wgt id='1467'> +1.2091122e-12 </wgt>
<wgt id='1468'> +1.2148390e-12 </wgt>
<wgt id='1469'> +1.2220717e-12 </wgt>
<wgt id='1470'> +1.2353414e-12 </wgt>
<wgt id='1471'> +1.2403219e-12 </wgt>
<wgt id='1472'> +1.2468553e-12 </wgt>
<wgt id='1473'> +1.2285015e-12 </wgt>
<wgt id='1474'> +1.2240584e-12 </wgt>
<wgt id='1475'> +1.2254808e-12 </wgt>
<wgt id='1476'> +1.2304181e-12 </wgt>
<wgt id='1477'> +1.2323025e-12 </wgt>
<wgt id='1478'> +1.2189742e-12 </wgt>
<wgt id='1479'> +1.2177215e-12 </wgt>
<wgt id='1480'> +1.2191483e-12 </wgt>
<wgt id='1481'> +1.2192103e-12 </wgt>
<wgt id='1482'> +1.2184788e-12 </wgt>
<wgt id='1483'> +1.1973252e-12 </wgt>
<wgt id='1484'> +1.2164663e-12 </wgt>
<wgt id='1485'> +1.2233004e-12 </wgt>
<wgt id='1486'> +1.2196652e-12 </wgt>
<wgt id='1487'> +1.2227925e-12 </wgt>
<wgt id='1488'> +1.2166256e-12 </wgt>
<wgt id='1489'> +1.2310127e-12 </wgt>
<wgt id='1490'> +1.2149016e-12 </wgt>
<wgt id='1491'> +1.2218312e-12 </wgt>
<wgt id='1492'> +1.2201065e-12 </wgt>
<wgt id='1493'> +1.2004608e-12 </wgt>
<wgt id='1494'> +1.2284794e-12 </wgt>
<wgt id='1495'> +1.2120051e-12 </wgt>
<wgt id='1496'> +1.2184141e-12 </wgt>
<wgt id='1497'> +1.2159079e-12 </wgt>
<wgt id='1498'> +1.2182711e-12 </wgt>
<wgt id='1499'> +1.2202177e-12 </wgt>
<wgt id='1500'> +1.2199516e-12 </wgt>
<wgt id='1501'> +1.2183262e-12 </wgt>
<wgt id='1502'> +1.2203391e-12 </wgt>
<wgt id='1503'> +1.2190331e-12 </wgt>
<wgt id='1504'> +1.2115789e-12 </wgt>
<wgt id='1505'> +1.2192208e-12 </wgt>
<wgt id='1506'> +1.2188362e-12 </wgt>
<wgt id='1507'> +1.2174667e-12 </wgt>
<wgt id='1508'> +1.2242717e-12 </wgt>
<wgt id='1509'> +1.2956800e-12 </wgt>
<wgt id='1510'> +1.2948104e-12 </wgt>
<wgt id='1511'> +1.2976754e-12 </wgt>
<wgt id='1512'> +1.2948811e-12 </wgt>
<wgt id='1513'> +1.2994266e-12 </wgt>
<wgt id='1514'> +1.2974540e-12 </wgt>
<wgt id='1515'> +1.2946764e-12 </wgt>
<wgt id='1516'> +1.2990968e-12 </wgt>
<wgt id='1517'> +1.3001385e-12 </wgt>
<wgt id='1518'> +1.2988427e-12 </wgt>
<wgt id='1519'> +1.2879591e-12 </wgt>
<wgt id='1520'> +1.2957948e-12 </wgt>
<wgt id='1521'> +1.3033215e-12 </wgt>
<wgt id='1522'> +1.2949952e-12 </wgt>
<wgt id='1523'> +1.3063132e-12 </wgt>
<wgt id='1524'> +1.2999319e-12 </wgt>
<wgt id='1525'> +1.3045172e-12 </wgt>
<wgt id='1526'> +1.2912477e-12 </wgt>
<wgt id='1527'> +1.2925702e-12 </wgt>
<wgt id='1528'> +1.2968130e-12 </wgt>
<wgt id='1529'> +1.2982188e-12 </wgt>
<wgt id='1530'> +1.3019506e-12 </wgt>
<wgt id='1531'> +1.2991009e-12 </wgt>
<wgt id='1532'> +1.2895453e-12 </wgt>
<wgt id='1533'> +1.2937778e-12 </wgt>
<wgt id='1534'> +1.2987758e-12 </wgt>
<wgt id='1535'> +1.2884003e-12 </wgt>
<wgt id='1536'> +1.2961545e-12 </wgt>
<wgt id='1537'> +1.2981939e-12 </wgt>
<wgt id='1538'> +1.2917349e-12 </wgt>
<wgt id='1539'> +1.2852789e-12 </wgt>
<wgt id='1540'> +1.2984303e-12 </wgt>
<wgt id='1541'> +1.2980183e-12 </wgt>
<wgt id='1542'> +1.2997336e-12 </wgt>
<wgt id='1543'> +1.2963330e-12 </wgt>
<wgt id='1544'> +1.2916980e-12 </wgt>
<wgt id='1545'> +1.2963837e-12 </wgt>
<wgt id='1546'> +1.2972530e-12 </wgt>
<wgt id='1547'> +1.2958510e-12 </wgt>
<wgt id='1548'> +1.2942257e-12 </wgt>
<wgt id='1549'> +1.2946319e-12 </wgt>
<wgt id='1550'> +1.2978790e-12 </wgt>
<wgt id='1551'> +1.2928942e-12 </wgt>
<wgt id='1552'> +1.2948609e-12 </wgt>
<wgt id='1553'> +1.2951319e-12 </wgt>
<wgt id='1554'> +1.3010052e-12 </wgt>
<wgt id='1555'> +1.2995289e-12 </wgt>
<wgt id='1556'> +1.2952910e-12 </wgt>
<wgt id='1557'> +1.2976304e-12 </wgt>
<wgt id='1558'> +1.2929605e-12 </wgt>
<wgt id='1559'> +1.2942006e-12 </wgt>
<wgt id='1560'> +1.2969401e-12 </wgt>
<wgt id='1561'> +1.2941071e-12 </wgt>
<wgt id='1562'> +1.2956406e-12 </wgt>
<wgt id='1563'> +1.2952960e-12 </wgt>
<wgt id='1564'> +1.2943183e-12 </wgt>
<wgt id='1565'> +1.2959492e-12 </wgt>
<wgt id='1566'> +1.2966729e-12 </wgt>
<wgt id='1567'> +1.2966077e-12 </wgt>
<wgt id='1568'> +1.2937187e-12 </wgt>
<wgt id='1569'> +1.2972319e-12 </wgt>
<wgt id='1570'> +1.2940325e-12 </wgt>
<wgt id='1571'> +1.2962082e-12 </wgt>
<wgt id='1572'> +1.2950903e-12 </wgt>
<wgt id='1573'> +1.2961856e-12 </wgt>
<wgt id='1574'> +1.2952236e-12 </wgt>
<wgt id='1575'> +1.2953255e-12 </wgt>
<wgt id='1576'> +1.2955339e-12 </wgt>
<wgt id='1577'> +1.2963145e-12 </wgt>
<wgt id='1578'> +1.2963103e-12 </wgt>
<wgt id='1579'> +1.2951390e-12 </wgt>
<wgt id='1580'> +1.2956411e-12 </wgt>
<wgt id='1581'> +1.2962823e-12 </wgt>
<wgt id='1582'> +1.2967111e-12 </wgt>
<wgt id='1583'> +1.2952746e-12 </wgt>
<wgt id='1584'> +1.2946752e-12 </wgt>
<wgt id='1585'> +1.2964605e-12 </wgt>
<wgt id='1586'> +1.2950675e-12 </wgt>
<wgt id='1587'> +1.2960322e-12 </wgt>
<wgt id='1588'> +1.2954048e-12 </wgt>
<wgt id='1589'> +1.2950193e-12 </wgt>
<wgt id='1590'> +1.2953309e-12 </wgt>
<wgt id='1591'> +1.2953775e-12 </wgt>
<wgt id='1592'> +1.2950297e-12 </wgt>
<wgt id='1593'> +1.2953887e-12 </wgt>
<wgt id='1594'> +1.2964153e-12 </wgt>
<wgt id='1595'> +1.2969560e-12 </wgt>
<wgt id='1596'> +1.2966652e-12 </wgt>
<wgt id='1597'> +1.2960820e-12 </wgt>
<wgt id='1598'> +1.2961054e-12 </wgt>
<wgt id='1599'> +1.2956837e-12 </wgt>
<wgt id='1600'> +1.2977440e-12 </wgt>
<wgt id='1601'> +1.2960564e-12 </wgt>
<wgt id='1602'> +1.2957967e-12 </wgt>
<wgt id='1603'> +1.2952429e-12 </wgt>
<wgt id='1604'> +1.2958572e-12 </wgt>
<wgt id='1605'> +1.2950765e-12 </wgt>
<wgt id='1606'> +1.2957539e-12 </wgt>
<wgt id='1607'> +1.2962973e-12 </wgt>
<wgt id='1608'> +1.2954507e-12 </wgt>
<wgt id='1609'> +1.2952210e-12 </wgt>
<wgt id='1610'> +1.2890191e-12 </wgt>
<wgt id='1611'> +1.3050275e-12 </wgt>
<wgt id='1612'> +1.5205612e-12 </wgt>
<wgt id='1613'> +1.4933015e-12 </wgt>
<wgt id='1614'> +1.5293945e-12 </wgt>
<wgt id='1615'> +1.5021002e-12 </wgt>
<wgt id='1616'> +1.5346739e-12 </wgt>
<wgt id='1617'> +1.5587236e-12 </wgt>
<wgt id='1618'> +1.5458055e-12 </wgt>
<wgt id='1619'> +1.5198679e-12 </wgt>
<wgt id='1620'> +1.4899794e-12 </wgt>
<wgt id='1621'> +1.5290858e-12 </wgt>
<wgt id='1622'> +1.5458787e-12 </wgt>
<wgt id='1623'> +1.5083705e-12 </wgt>
<wgt id='1624'> +1.4997703e-12 </wgt>
<wgt id='1625'> +1.5070026e-12 </wgt>
<wgt id='1626'> +1.5018575e-12 </wgt>
<wgt id='1627'> +1.4839658e-12 </wgt>
<wgt id='1628'> +1.5156441e-12 </wgt>
<wgt id='1629'> +1.6131017e-12 </wgt>
<wgt id='1630'> +1.5290948e-12 </wgt>
<wgt id='1631'> +1.5148077e-12 </wgt>
<wgt id='1632'> +1.4202466e-12 </wgt>
<wgt id='1633'> +1.4697418e-12 </wgt>
<wgt id='1634'> +1.5415641e-12 </wgt>
<wgt id='1635'> +1.5240128e-12 </wgt>
<wgt id='1636'> +1.5573911e-12 </wgt>
<wgt id='1637'> +1.4911418e-12 </wgt>
<wgt id='1638'> +1.5127840e-12 </wgt>
<wgt id='1639'> +1.5116397e-12 </wgt>
<wgt id='1640'> +1.4809660e-12 </wgt>
<wgt id='1641'> +1.5057848e-12 </wgt>
<wgt id='1642'> +1.5060540e-12 </wgt>
<wgt id='1643'> +1.5631479e-12 </wgt>
<wgt id='1644'> +1.4780790e-12 </wgt>
<wgt id='1645'> +1.5076146e-12 </wgt>
<wgt id='1646'> +1.5166474e-12 </wgt>
<wgt id='1647'> +1.4990208e-12 </wgt>
<wgt id='1648'> +1.5197906e-12 </wgt>
<wgt id='1649'> +1.5901659e-12 </wgt>
<wgt id='1650'> +1.5105699e-12 </wgt>
<wgt id='1651'> +1.4980821e-12 </wgt>
<wgt id='1652'> +1.5008070e-12 </wgt>
<wgt id='1653'> +1.5730054e-12 </wgt>
<wgt id='1654'> +1.5302683e-12 </wgt>
<wgt id='1655'> +1.5087711e-12 </wgt>
<wgt id='1656'> +1.4675511e-12 </wgt>
<wgt id='1657'> +1.4883643e-12 </wgt>
<wgt id='1658'> +1.4825661e-12 </wgt>
<wgt id='1659'> +1.4997703e-12 </wgt>
<wgt id='1660'> +1.5593071e-12 </wgt>
<wgt id='1661'> +1.5467517e-12 </wgt>
<wgt id='1662'> +1.5100551e-12 </wgt>
<wgt id='1663'> +1.5489940e-12 </wgt>
<wgt id='1664'> +1.4950302e-12 </wgt>
<wgt id='1665'> +1.4484664e-12 </wgt>
<wgt id='1666'> +1.5298501e-12 </wgt>
<wgt id='1667'> +1.5418919e-12 </wgt>
<wgt id='1668'> +1.5447882e-12 </wgt>
<wgt id='1669'> +1.4943650e-12 </wgt>
<wgt id='1670'> +1.5241557e-12 </wgt>
<wgt id='1671'> +1.4939849e-12 </wgt>
<wgt id='1672'> +1.5390031e-12 </wgt>
<wgt id='1673'> +1.5792709e-12 </wgt>
<wgt id='1674'> +1.5107147e-12 </wgt>
<wgt id='1675'> +1.5264846e-12 </wgt>
<wgt id='1676'> +1.5620900e-12 </wgt>
<wgt id='1677'> +1.5793019e-12 </wgt>
<wgt id='1678'> +1.4740667e-12 </wgt>
<wgt id='1679'> +1.5740854e-12 </wgt>
<wgt id='1680'> +1.5066371e-12 </wgt>
<wgt id='1681'> +1.5396668e-12 </wgt>
<wgt id='1682'> +1.5215516e-12 </wgt>
<wgt id='1683'> +1.5084633e-12 </wgt>
<wgt id='1684'> +1.4907610e-12 </wgt>
<wgt id='1685'> +1.4951118e-12 </wgt>
<wgt id='1686'> +1.5066037e-12 </wgt>
<wgt id='1687'> +1.5658966e-12 </wgt>
<wgt id='1688'> +1.5040231e-12 </wgt>
<wgt id='1689'> +1.5090609e-12 </wgt>
<wgt id='1690'> +1.5010119e-12 </wgt>
<wgt id='1691'> +1.5170825e-12 </wgt>
<wgt id='1692'> +1.5691548e-12 </wgt>
<wgt id='1693'> +1.5581241e-12 </wgt>
<wgt id='1694'> +1.5193579e-12 </wgt>
<wgt id='1695'> +1.5275000e-12 </wgt>
<wgt id='1696'> +1.5382547e-12 </wgt>
<wgt id='1697'> +1.5624895e-12 </wgt>
<wgt id='1698'> +1.4970171e-12 </wgt>
<wgt id='1699'> +1.5339126e-12 </wgt>
<wgt id='1700'> +1.4935454e-12 </wgt>
<wgt id='1701'> +1.5466924e-12 </wgt>
<wgt id='1702'> +1.5547742e-12 </wgt>
<wgt id='1703'> +1.5532403e-12 </wgt>
<wgt id='1704'> +1.4987132e-12 </wgt>
<wgt id='1705'> +1.4664257e-12 </wgt>
<wgt id='1706'> +1.5344546e-12 </wgt>
<wgt id='1707'> +1.5212370e-12 </wgt>
<wgt id='1708'> +1.5435398e-12 </wgt>
<wgt id='1709'> +1.5046411e-12 </wgt>
<wgt id='1710'> +1.5118026e-12 </wgt>
<wgt id='1711'> +1.5480892e-12 </wgt>
<wgt id='1712'> +1.5385541e-12 </wgt>
<wgt id='1713'> +1.1999899e-12 </wgt>
<wgt id='1714'> +1.1612382e-12 </wgt>
<wgt id='1715'> +1.1957707e-12 </wgt>
<wgt id='1716'> +1.2524872e-12 </wgt>
<wgt id='1717'> +1.2227929e-12 </wgt>
<wgt id='1718'> +1.2159207e-12 </wgt>
<wgt id='1719'> +1.2058453e-12 </wgt>
<wgt id='1720'> +1.2128846e-12 </wgt>
<wgt id='1721'> +1.1831344e-12 </wgt>
<wgt id='1722'> +1.2038688e-12 </wgt>
<wgt id='1723'> +1.1619093e-12 </wgt>
<wgt id='1724'> +1.1694908e-12 </wgt>
<wgt id='1725'> +1.2150810e-12 </wgt>
<wgt id='1726'> +1.2275235e-12 </wgt>
<wgt id='1727'> +1.2044412e-12 </wgt>
<wgt id='1728'> +1.1980016e-12 </wgt>
<wgt id='1729'> +1.1861860e-12 </wgt>
<wgt id='1730'> +1.1801308e-12 </wgt>
<wgt id='1731'> +1.1567682e-12 </wgt>
<wgt id='1732'> +1.1826479e-12 </wgt>
<wgt id='1733'> +1.2019694e-12 </wgt>
<wgt id='1734'> +1.2388803e-12 </wgt>
<wgt id='1735'> +1.1974387e-12 </wgt>
<wgt id='1736'> +1.2618232e-12 </wgt>
<wgt id='1737'> +1.2535528e-12 </wgt>
<wgt id='1738'> +1.2143144e-12 </wgt>
<wgt id='1739'> +1.2020211e-12 </wgt>
<wgt id='1740'> +1.1696788e-12 </wgt>
<wgt id='1741'> +1.1906394e-12 </wgt>
<wgt id='1742'> +1.2036486e-12 </wgt>
<wgt id='1743'> +1.2178367e-12 </wgt>
<wgt id='1744'> +1.2408099e-12 </wgt>
<wgt id='1745'> +1.1697146e-12 </wgt>
<wgt id='1746'> +1.1946188e-12 </wgt>
<wgt id='1747'> +1.2245398e-12 </wgt>
<wgt id='1748'> +1.2139205e-12 </wgt>
<wgt id='1749'> +1.1976616e-12 </wgt>
<wgt id='1750'> +1.1969278e-12 </wgt>
<wgt id='1751'> +1.1250340e-12 </wgt>
<wgt id='1752'> +1.1865871e-12 </wgt>
<wgt id='1753'> +1.2250553e-12 </wgt>
<wgt id='1754'> +1.1829467e-12 </wgt>
<wgt id='1755'> +1.1917512e-12 </wgt>
<wgt id='1756'> +1.2230322e-12 </wgt>
<wgt id='1757'> +1.1929122e-12 </wgt>
<wgt id='1758'> +1.2273855e-12 </wgt>
<wgt id='1759'> +1.1897701e-12 </wgt>
<wgt id='1760'> +1.1485539e-12 </wgt>
<wgt id='1761'> +1.1884500e-12 </wgt>
<wgt id='1762'> +1.2111898e-12 </wgt>
<wgt id='1763'> +1.2340715e-12 </wgt>
<wgt id='1764'> +1.2006535e-12 </wgt>
<wgt id='1765'> +1.2100791e-12 </wgt>
<wgt id='1766'> +1.2030324e-12 </wgt>
<wgt id='1767'> +1.2164672e-12 </wgt>
<wgt id='1768'> +1.2097404e-12 </wgt>
<wgt id='1769'> +1.1836482e-12 </wgt>
<wgt id='1770'> +1.2227253e-12 </wgt>
<wgt id='1771'> +1.2263723e-12 </wgt>
<wgt id='1772'> +1.2112272e-12 </wgt>
<wgt id='1773'> +1.1947290e-12 </wgt>
<wgt id='1774'> +1.1960939e-12 </wgt>
<wgt id='1775'> +1.2044686e-12 </wgt>
<wgt id='1776'> +1.1823727e-12 </wgt>
<wgt id='1777'> +1.1324585e-12 </wgt>
<wgt id='1778'> +1.1806404e-12 </wgt>
<wgt id='1779'> +1.2373301e-12 </wgt>
<wgt id='1780'> +1.2102512e-12 </wgt>
<wgt id='1781'> +1.1930617e-12 </wgt>
<wgt id='1782'> +1.1500706e-12 </wgt>
<wgt id='1783'> +1.2079283e-12 </wgt>
<wgt id='1784'> +1.2026410e-12 </wgt>
<wgt id='1785'> +1.1739776e-12 </wgt>
<wgt id='1786'> +1.1324906e-12 </wgt>
<wgt id='1787'> +1.2623868e-12 </wgt>
<wgt id='1788'> +1.1783800e-12 </wgt>
<wgt id='1789'> +1.2022466e-12 </wgt>
<wgt id='1790'> +1.2294446e-12 </wgt>
<wgt id='1791'> +1.1957005e-12 </wgt>
<wgt id='1792'> +1.1612064e-12 </wgt>
<wgt id='1793'> +1.2335795e-12 </wgt>
<wgt id='1794'> +1.2135578e-12 </wgt>
<wgt id='1795'> +1.2215234e-12 </wgt>
<wgt id='1796'> +1.1832708e-12 </wgt>
<wgt id='1797'> +1.2176168e-12 </wgt>
<wgt id='1798'> +1.1929827e-12 </wgt>
<wgt id='1799'> +1.1917086e-12 </wgt>
<wgt id='1800'> +1.2066670e-12 </wgt>
<wgt id='1801'> +1.2080014e-12 </wgt>
<wgt id='1802'> +1.1893971e-12 </wgt>
<wgt id='1803'> +1.2235179e-12 </wgt>
<wgt id='1804'> +1.1821228e-12 </wgt>
<wgt id='1805'> +1.1983805e-12 </wgt>
<wgt id='1806'> +1.1904597e-12 </wgt>
<wgt id='1807'> +1.1926294e-12 </wgt>
<wgt id='1808'> +1.2040811e-12 </wgt>
<wgt id='1809'> +1.1745684e-12 </wgt>
<wgt id='1810'> +1.1911141e-12 </wgt>
<wgt id='1811'> +1.2216728e-12 </wgt>
<wgt id='1812'> +1.2143018e-12 </wgt>
<wgt id='1813'> +1.1878379e-12 </wgt>
<wgt id='1814'> +1.4309703e-12 </wgt>
<wgt id='1815'> +1.6287553e-12 </wgt>
<wgt id='1816'> +1.1999899e-12 </wgt>
<wgt id='1817'> +1.1612382e-12 </wgt>
<wgt id='1818'> +1.1957707e-12 </wgt>
<wgt id='1819'> +1.2524872e-12 </wgt>
<wgt id='1820'> +1.2227929e-12 </wgt>
<wgt id='1821'> +1.2159207e-12 </wgt>
<wgt id='1822'> +1.2058453e-12 </wgt>
<wgt id='1823'> +1.2128846e-12 </wgt>
<wgt id='1824'> +1.1831344e-12 </wgt>
<wgt id='1825'> +1.2038688e-12 </wgt>
<wgt id='1826'> +1.1619093e-12 </wgt>
<wgt id='1827'> +1.1694908e-12 </wgt>
<wgt id='1828'> +1.2150810e-12 </wgt>
<wgt id='1829'> +1.2275235e-12 </wgt>
<wgt id='1830'> +1.2044412e-12 </wgt>
<wgt id='1831'> +1.1980016e-12 </wgt>
<wgt id='1832'> +1.1861860e-12 </wgt>
<wgt id='1833'> +1.1801308e-12 </wgt>
<wgt id='1834'> +1.1567682e-12 </wgt>
<wgt id='1835'> +1.1826479e-12 </wgt>
<wgt id='1836'> +1.2019694e-12 </wgt>
<wgt id='1837'> +1.2388803e-12 </wgt>
<wgt id='1838'> +1.1974387e-12 </wgt>
<wgt id='1839'> +1.2618232e-12 </wgt>
<wgt id='1840'> +1.2535528e-12 </wgt>
<wgt id='1841'> +1.2143144e-12 </wgt>
<wgt id='1842'> +1.2020211e-12 </wgt>
<wgt id='1843'> +1.1696788e-12 </wgt>
<wgt id='1844'> +1.1906394e-12 </wgt>
<wgt id='1845'> +1.2036486e-12 </wgt>
<wgt id='1846'> +1.2178367e-12 </wgt>
<wgt id='1847'> +1.2408099e-12 </wgt>
<wgt id='1848'> +1.1697146e-12 </wgt>
<wgt id='1849'> +1.1946188e-12 </wgt>
<wgt id='1850'> +1.2245398e-12 </wgt>
<wgt id='1851'> +1.2139205e-12 </wgt>
<wgt id='1852'> +1.1976616e-12 </wgt>
<wgt id='1853'> +1.1969278e-12 </wgt>
<wgt id='1854'> +1.1250340e-12 </wgt>
<wgt id='1855'> +1.1865871e-12 </wgt>
<wgt id='1856'> +1.2250553e-12 </wgt>
<wgt id='1857'> +1.1829467e-12 </wgt>
<wgt id='1858'> +1.1917512e-12 </wgt>
<wgt id='1859'> +1.2230322e-12 </wgt>
<wgt id='1860'> +1.1929122e-12 </wgt>
<wgt id='1861'> +1.2273855e-12 </wgt>
<wgt id='1862'> +1.1897701e-12 </wgt>
<wgt id='1863'> +1.1485539e-12 </wgt>
<wgt id='1864'> +1.1884500e-12 </wgt>
<wgt id='1865'> +1.2111898e-12 </wgt>
<wgt id='1866'> +1.2340715e-12 </wgt>
<wgt id='1867'> +1.2006535e-12 </wgt>
<wgt id='1868'> +1.2100791e-12 </wgt>
<wgt id='1869'> +1.2030324e-12 </wgt>
<wgt id='1870'> +1.2164672e-12 </wgt>
<wgt id='1871'> +1.2097404e-12 </wgt>
<wgt id='1872'> +1.1836482e-12 </wgt>
<wgt id='1873'> +1.2227253e-12 </wgt>
<wgt id='1874'> +1.2263723e-12 </wgt>
<wgt id='1875'> +1.2112272e-12 </wgt>
<wgt id='1876'> +1.1947290e-12 </wgt>
<wgt id='1877'> +1.1960939e-12 </wgt>
<wgt id='1878'> +1.2044686e-12 </wgt>
<wgt id='1879'> +1.1823727e-12 </wgt>
<wgt id='1880'> +1.1324585e-12 </wgt>
<wgt id='1881'> +1.1806404e-12 </wgt>
<wgt id='1882'> +1.2373301e-12 </wgt>
<wgt id='1883'> +1.2102512e-12 </wgt>
<wgt id='1884'> +1.1930617e-12 </wgt>
<wgt id='1885'> +1.1500706e-12 </wgt>
<wgt id='1886'> +1.2079283e-12 </wgt>
<wgt id='1887'> +1.2026410e-12 </wgt>
<wgt id='1888'> +1.1739776e-12 </wgt>
<wgt id='1889'> +1.1324906e-12 </wgt>
<wgt id='1890'> +1.2623868e-12 </wgt>
<wgt id='1891'> +1.1783800e-12 </wgt>
<wgt id='1892'> +1.2022466e-12 </wgt>
<wgt id='1893'> +1.2294446e-12 </wgt>
<wgt id='1894'> +1.1957005e-12 </wgt>
<wgt id='1895'> +1.1612064e-12 </wgt>
<wgt id='1896'> +1.2335795e-12 </wgt>
<wgt id='1897'> +1.2135578e-12 </wgt>
<wgt id='1898'> +1.2215234e-12 </wgt>
<wgt id='1899'> +1.1832708e-12 </wgt>
<wgt id='1900'> +1.2176168e-12 </wgt>
<wgt id='1901'> +1.1929827e-12 </wgt>
<wgt id='1902'> +1.1917086e-12 </wgt>
<wgt id='1903'> +1.2066670e-12 </wgt>
<wgt id='1904'> +1.2080014e-12 </wgt>
<wgt id='1905'> +1.1893971e-12 </wgt>
<wgt id='1906'> +1.2235179e-12 </wgt>
<wgt id='1907'> +1.1821228e-12 </wgt>
<wgt id='1908'> +1.1983805e-12 </wgt>
<wgt id='1909'> +1.1904597e-12 </wgt>
<wgt id='1910'> +1.1926294e-12 </wgt>
<wgt id='1911'> +1.2040811e-12 </wgt>
<wgt id='1912'> +1.1745684e-12 </wgt>
<wgt id='1913'> +1.1911141e-12 </wgt>
<wgt id='1914'> +1.2216728e-12 </wgt>
<wgt id='1915'> +1.2143018e-12 </wgt>
<wgt id='1916'> +1.1878379e-12 </wgt>
<wgt id='1917'> +1.1925288e-12 </wgt>
<wgt id='1918'> +1.2076810e-12 </wgt>
<wgt id='1919'> +1.2272237e-12 </wgt>
</rwgt>
</event>
<event>
 9      1 +1.5607000e-12 4.79687700e+01 7.81860800e-03 1.32164900e-01
        2 -1    0    0  502    0 -0.0000000000e+00 +0.0000000000e+00 +1.2241108881e+01 1.2241108881e+01 0.0000000000e+00 0.0000e+00 1.0000e+00
       21 -1    0    0  501  502 +0.0000000000e+00 -0.0000000000e+00 -4.6993342230e+01 4.6993342230e+01 0.0000000000e+00 0.0000e+00 1.0000e+00
     1023  2    1    2    0    0 -1.8784988622e+01 +7.7850557831e+00 -2.8212631476e+01 3.7874458515e+01 1.5001304674e+01 0.0000e+00 0.0000e+00
  1000023  2    3    3    0    0 -1.7270974637e+01 +6.4595098402e+00 -2.5178367127e+01 3.1689309322e+01 5.5000292598e+00 0.0000e+00 0.0000e+00
        2  1    1    2  501    0 +1.8784988622e+01 -7.7850557831e+00 -6.5396018732e+00 2.1359992597e+01 0.0000000000e+00 0.0000e+00 1.0000e+00
  1000022  1    4    4    0    0 -1.6285878754e+01 +5.6818793437e+00 -2.3718270770e+01 2.9750125512e+01 5.0000000000e+00 0.0000e+00 1.0000e+00
      -11  1    4    4    0    0 -2.4212975749e-01 +2.2453015778e-01 -5.4438359645e-01 6.3670587591e-01 5.1100000000e-04 0.0000e+00 -1.0000e+00
       11  1    4    4    0    0 -7.4296612564e-01 +5.5310033878e-01 -9.1571276010e-01 1.3024779341e+00 5.1100000000e-04 0.0000e+00 1.0000e+00
  1000022  1    3    3    0    0 -1.5140139851e+00 +1.3255459429e+00 -3.0342643489e+00 6.1851491925e+00 5.0000000000e+00 0.0000e+00 1.0000e+00
<mgrwt>
<rscale>  1 0.47968766E+02</rscale>
<asrwt>0</asrwt>
<pdfrwt beam="1">  1       21 0.72297450E-02 0.47968766E+02</pdfrwt>
<pdfrwt beam="2">  1        2 0.18832475E-02 0.47968766E+02</pdfrwt>
<totfact> 0.98293569E+06</totfact>
</mgrwt>
<rwgt>
<wgt id='1001'> +1.5607000e-12 </wgt>
<wgt id='1002'> +1.5508212e-12 </wgt>
<wgt id='1003'> +1.5555148e-12 </wgt>
<wgt id='1004'> +1.4757759e-12 </wgt>
<wgt id='1005'> +1.5607000e-12 </wgt>
<wgt id='1006'> +1.3817969e-12 </wgt>
<wgt id='1007'> +1.3691878e-12 </wgt>
<wgt id='1008'> +1.3751310e-12 </wgt>
<wgt id='1009'> +1.2804385e-12 </wgt>
<wgt id='1010'> +1.3817969e-12 </wgt>
<wgt id='1011'> +1.7951966e-12 </wgt>
<wgt id='1012'> +1.7905748e-12 </wgt>
<wgt id='1013'> +1.7928165e-12 </wgt>
<wgt id='1014'> +1.7452070e-12 </wgt>
<wgt id='1015'> +1.7951966e-12 </wgt>
<wgt id='1016'> +1.8040907e-12 </wgt>
<wgt id='1017'> +1.8044357e-12 </wgt>
<wgt id='1018'> +1.8043752e-12 </wgt>
<wgt id='1019'> +1.7928165e-12 </wgt>
<wgt id='1020'> +1.8040907e-12 </wgt>
<wgt id='1021'> +1.5972877e-12 </wgt>
<wgt id='1022'> +1.5930987e-12 </wgt>
<wgt id='1023'> +1.5951325e-12 </wgt>
<wgt id='1024'> +1.5555148e-12 </wgt>
<wgt id='1025'> +1.5972877e-12 </wgt>
<wgt id='1026'> +2.0751570e-12 </wgt>
<wgt id='1027'> +2.0833975e-12 </wgt>
<wgt id='1028'> +2.0796418e-12 </wgt>
<wgt id='1029'> +2.1201295e-12 </wgt>
<wgt id='1030'> +2.0751570e-12 </wgt>
<wgt id='1031'> +1.2913173e-12 </wgt>
<wgt id='1032'> +1.2707176e-12 </wgt>
<wgt id='1033'> +1.2804385e-12 </wgt>
<wgt id='1034'> +1.1301754e-12 </wgt>
<wgt id='1035'> +1.2913173e-12 </wgt>
<wgt id='1036'> +1.1432935e-12 </wgt>
<wgt id='1037'> +1.1218902e-12 </wgt>
<wgt id='1038'> +1.1319536e-12 </wgt>
<wgt id='1039'> +9.8058255e-13 </wgt>
<wgt id='1040'> +1.1432935e-12 </wgt>
<wgt id='1041'> +1.4853389e-12 </wgt>
<wgt id='1042'> +1.4671678e-12 </wgt>
<wgt id='1043'> +1.4757759e-12 </wgt>
<wgt id='1044'> +1.3365105e-12 </wgt>
<wgt id='1045'> +1.4853389e-12 </wgt>
<wgt id='1046'> +1.5607000e-12 </wgt>
<wgt id='1047'> +1.5674223e-12 </wgt>
<wgt id='1048'> +1.5378703e-12 </wgt>
<wgt id='1049'> +1.5742353e-12 </wgt>
<wgt id='1050'> +1.5500301e-12 </wgt>
<wgt id='1051'> +1.5758753e-12 </wgt>
<wgt id='1052'> +1.5607082e-12 </wgt>
<wgt id='1053'> +1.5406865e-12 </wgt>
<wgt id='1054'> +1.5484917e-12 </wgt>
<wgt id='1055'> +1.5393499e-12 </wgt>
<wgt id='1056'> +1.5735857e-12 </wgt>
<wgt id='1057'> +1.5967302e-12 </wgt>
<wgt id='1058'> +1.5151575e-12 </wgt>
<wgt id='1059'> +1.5637695e-12 </wgt>
<wgt id='1060'> +1.5561631e-12 </wgt>
<wgt id='1061'> +1.5723982e-12 </wgt>
<wgt id='1062'> +1.5688185e-12 </wgt>
<wgt id='1063'> +1.5984895e-12 </wgt>
<wgt id='1064'> +1.5515548e-12 </wgt>
<wgt id='1065'> +1.5603430e-12 </wgt>
<wgt id='1066'> +1.5595965e-12 </wgt>
<wgt id='1067'> +1.5043354e-12 </wgt>
<wgt id='1068'> +1.5654426e-12 </wgt>
<wgt id='1069'> +1.5481319e-12 </wgt>
<wgt id='1070'> +1.5467843e-12 </wgt>
<wgt id='1071'> +1.5277516e-12 </wgt>
<wgt id='1072'> +1.5887944e-12 </wgt>
<wgt id='1073'> +1.6129628e-12 </wgt>
<wgt id='1074'> +1.5283520e-12 </wgt>
<wgt id='1075'> +1.5743134e-12 </wgt>
<wgt id='1076'> +1.5809838e-12 </wgt>
<wgt id='1077'> +1.5596433e-12 </wgt>
<wgt id='1078'> +1.5445989e-12 </wgt>
<wgt id='1079'> +1.5478837e-12 </wgt>
<wgt id='1080'> +1.5337290e-12 </wgt>
<wgt id='1081'> +1.6124004e-12 </wgt>
<wgt id='1082'> +1.5571741e-12 </wgt>
<wgt id='1083'> +1.5761326e-12 </wgt>
<wgt id='1084'> +1.5728410e-12 </wgt>
<wgt id='1085'> +1.5277494e-12 </wgt>
<wgt id='1086'> +1.5556758e-12 </wgt>
<wgt id='1087'> +1.5831044e-12 </wgt>
<wgt id='1088'> +1.5337479e-12 </wgt>
<wgt id='1089'> +1.5749420e-12 </wgt>
<wgt id='1090'> +1.5413694e-12 </wgt>
<wgt id='1091'> +1.5454488e-12 </wgt>
<wgt id='1092'> +1.5812940e-12 </wgt>
<wgt id='1093'> +1.5496363e-12 </wgt>
<wgt id='1094'> +1.5717616e-12 </wgt>
<wgt id='1095'> +1.5882430e-12 </wgt>
<wgt id='1096'> +1.6062749e-12 </wgt>
<wgt id='1097'> +1.5274786e-12 </wgt>
<wgt id='1098'> +1.5321425e-12 </wgt>
<wgt id='1099'> +1.5806502e-12 </wgt>
<wgt id='1100'> +1.5327642e-12 </wgt>
<wgt id='1101'> +1.5747022e-12 </wgt>
<wgt id='1102'> +1.5556842e-12 </wgt>
<wgt id='1103'> +1.5707894e-12 </wgt>
<wgt id='1104'> +1.5430207e-12 </wgt>
<wgt id='1105'> +1.5970090e-12 </wgt>
<wgt id='1106'> +1.5654047e-12 </wgt>
<wgt id='1107'> +1.5638338e-12 </wgt>
<wgt id='1108'> +1.5501388e-12 </wgt>
<wgt id='1109'> +1.5985845e-12 </wgt>
<wgt id='1110'> +1.5559933e-12 </wgt>
<wgt id='1111'> +1.5598530e-12 </wgt>
<wgt id='1112'> +1.5643598e-12 </wgt>
<wgt id='1113'> +1.5405499e-12 </wgt>
<wgt id='1114'> +1.5736705e-12 </wgt>
<wgt id='1115'> +1.5395901e-12 </wgt>
<wgt id='1116'> +1.5144696e-12 </wgt>
<wgt id='1117'> +1.5712761e-12 </wgt>
<wgt id='1118'> +1.5847204e-12 </wgt>
<wgt id='1119'> +1.5384130e-12 </wgt>
<wgt id='1120'> +1.5727174e-12 </wgt>
<wgt id='1121'> +1.5649998e-12 </wgt>
<wgt id='1122'> +1.6054260e-12 </wgt>
<wgt id='1123'> +1.5377996e-12 </wgt>
<wgt id='1124'> +1.5445346e-12 </wgt>
<wgt id='1125'> +1.5675918e-12 </wgt>
<wgt id='1126'> +1.5762906e-12 </wgt>
<wgt id='1127'> +1.5375078e-12 </wgt>
<wgt id='1128'> +1.5688185e-12 </wgt>
<wgt id='1129'> +1.5555651e-12 </wgt>
<wgt id='1130'> +1.5645370e-12 </wgt>
<wgt id='1131'> +1.5663660e-12 </wgt>
<wgt id='1132'> +1.5417227e-12 </wgt>
<wgt id='1133'> +1.5759026e-12 </wgt>
<wgt id='1134'> +1.5924442e-12 </wgt>
<wgt id='1135'> +1.5714789e-12 </wgt>
<wgt id='1136'> +1.5250384e-12 </wgt>
<wgt id='1137'> +1.5381469e-12 </wgt>
<wgt id='1138'> +1.5757096e-12 </wgt>
<wgt id='1139'> +1.5777075e-12 </wgt>
<wgt id='1140'> +1.5664358e-12 </wgt>
<wgt id='1141'> +1.5259263e-12 </wgt>
<wgt id='1142'> +1.5412624e-12 </wgt>
<wgt id='1143'> +1.5710846e-12 </wgt>
<wgt id='1144'> +1.5732730e-12 </wgt>
<wgt id='1145'> +1.5837178e-12 </wgt>
<wgt id='1146'> +1.5603687e-12 </wgt>
<wgt id='1147'> +1.2102619e-12 </wgt>
<wgt id='1148'> +1.2401587e-12 </wgt>
<wgt id='1149'> +1.2929948e-12 </wgt>
<wgt id='1150'> +1.2436936e-12 </wgt>
<wgt id='1151'> +1.2049349e-12 </wgt>
<wgt id='1152'> +1.5506165e-12 </wgt>
<wgt id='1153'> +1.5421049e-12 </wgt>
<wgt id='1154'> +1.5555669e-12 </wgt>
<wgt id='1155'> +1.5505954e-12 </wgt>
<wgt id='1156'> +1.5506213e-12 </wgt>
<wgt id='1157'> +1.5524792e-12 </wgt>
<wgt id='1158'> +1.5480836e-12 </wgt>
<wgt id='1159'> +1.5521561e-12 </wgt>
<wgt id='1160'> +1.5496317e-12 </wgt>
<wgt id='1161'> +1.5463184e-12 </wgt>
<wgt id='1162'> +1.5534982e-12 </wgt>
<wgt id='1163'> +1.5545764e-12 </wgt>
<wgt id='1164'> +1.5466956e-12 </wgt>
<wgt id='1165'> +1.5389095e-12 </wgt>
<wgt id='1166'> +1.5619532e-12 </wgt>
<wgt id='1167'> +1.5594930e-12 </wgt>
<wgt id='1168'> +1.5383635e-12 </wgt>
<wgt id='1169'> +1.5529853e-12 </wgt>
<wgt id='1170'> +1.5487854e-12 </wgt>
<wgt id='1171'> +1.5485900e-12 </wgt>
<wgt id='1172'> +1.5529012e-12 </wgt>
<wgt id='1173'> +1.5433215e-12 </wgt>
<wgt id='1174'> +1.5571547e-12 </wgt>
<wgt id='1175'> +1.5510857e-12 </wgt>
<wgt id='1176'> +1.5493921e-12 </wgt>
<wgt id='1177'> +1.5523242e-12 </wgt>
<wgt id='1178'> +1.5460238e-12 </wgt>
<wgt id='1179'> +1.5609971e-12 </wgt>
<wgt id='1180'> +1.5351385e-12 </wgt>
<wgt id='1181'> +1.5436323e-12 </wgt>
<wgt id='1182'> +1.5574482e-12 </wgt>
<wgt id='1183'> +1.5514112e-12 </wgt>
<wgt id='1184'> +1.5505269e-12 </wgt>
<wgt id='1185'> +1.5448932e-12 </wgt>
<wgt id='1186'> +1.5535402e-12 </wgt>
<wgt id='1187'> +1.5491814e-12 </wgt>
<wgt id='1188'> +1.5511026e-12 </wgt>
<wgt id='1189'> +1.5458928e-12 </wgt>
<wgt id='1190'> +1.5383177e-12 </wgt>
<wgt id='1191'> +1.5458063e-12 </wgt>
<wgt id='1192'> +1.5530098e-12 </wgt>
<wgt id='1193'> +1.2606058e-12 </wgt>
<wgt id='1194'> +1.2582040e-12 </wgt>
<wgt id='1195'> +1.2624913e-12 </wgt>
<wgt id='1196'> +1.2661503e-12 </wgt>
<wgt id='1197'> +1.2544768e-12 </wgt>
<wgt id='1198'> +1.2615498e-12 </wgt>
<wgt id='1199'> +1.2591569e-12 </wgt>
<wgt id='1200'> +1.2625538e-12 </wgt>
<wgt id='1201'> +1.2593512e-12 </wgt>
<wgt id='1202'> +1.2583445e-12 </wgt>
<wgt id='1203'> +1.2637437e-12 </wgt>
<wgt id='1204'> +1.2473600e-12 </wgt>
<wgt id='1205'> +1.2688169e-12 </wgt>
<wgt id='1206'> +1.2653191e-12 </wgt>
<wgt id='1207'> +1.2541200e-12 </wgt>
<wgt id='1208'> +1.2522127e-12 </wgt>
<wgt id='1209'> +1.2636767e-12 </wgt>
<wgt id='1210'> +1.2609543e-12 </wgt>
<wgt id='1211'> +1.2515094e-12 </wgt>
<wgt id='1212'> +1.2609333e-12 </wgt>
<wgt id='1213'> +1.2602288e-12 </wgt>
<wgt id='1214'> +1.2456655e-12 </wgt>
<wgt id='1215'> +1.2846318e-12 </wgt>
<wgt id='1216'> +1.2682299e-12 </wgt>
<wgt id='1217'> +1.2553064e-12 </wgt>
<wgt id='1218'> +1.2655036e-12 </wgt>
<wgt id='1219'> +1.2579695e-12 </wgt>
<wgt id='1220'> +1.2651108e-12 </wgt>
<wgt id='1221'> +1.2599346e-12 </wgt>
<wgt id='1222'> +1.2587447e-12 </wgt>
<wgt id='1223'> +1.2643302e-12 </wgt>
<wgt id='1224'> +1.2619131e-12 </wgt>
<wgt id='1225'> +1.2601115e-12 </wgt>
<wgt id='1226'> +1.2587988e-12 </wgt>
<wgt id='1227'> +1.2619188e-12 </wgt>
<wgt id='1228'> +1.2577584e-12 </wgt>
<wgt id='1229'> +1.2616052e-12 </wgt>
<wgt id='1230'> +1.2567791e-12 </wgt>
<wgt id='1231'> +1.2553039e-12 </wgt>
<wgt id='1232'> +1.2589530e-12 </wgt>
<wgt id='1233'> +1.2610490e-12 </wgt>
<wgt id='1234'> +1.2606058e-12 </wgt>
<wgt id='1235'> +1.2515770e-12 </wgt>
<wgt id='1236'> +1.2548578e-12 </wgt>
<wgt id='1237'> +1.2579334e-12 </wgt>
<wgt id='1238'> +1.2629519e-12 </wgt>
<wgt id='1239'> +1.2650469e-12 </wgt>
<wgt id='1240'> +1.2670518e-12 </wgt>
<wgt id='1241'> +1.2742245e-12 </wgt>
<wgt id='1242'> +1.2677626e-12 </wgt>
<wgt id='1243'> +1.2805671e-12 </wgt>
<wgt id='1244'> +1.2668931e-12 </wgt>
<wgt id='1245'> +1.2795976e-12 </wgt>
<wgt id='1246'> +1.2751954e-12 </wgt>
<wgt id='1247'> +1.2734256e-12 </wgt>
<wgt id='1248'> +1.2740736e-12 </wgt>
<wgt id='1249'> +1.2742979e-12 </wgt>
<wgt id='1250'> +1.2743103e-12 </wgt>
<wgt id='1251'> +1.2740640e-12 </wgt>
<wgt id='1252'> +1.2711907e-12 </wgt>
<wgt id='1253'> +1.2765604e-12 </wgt>
<wgt id='1254'> +1.2616391e-12 </wgt>
<wgt id='1255'> +1.2817418e-12 </wgt>
<wgt id='1256'> +1.2790092e-12 </wgt>
<wgt id='1257'> +1.2621337e-12 </wgt>
<wgt id='1258'> +1.2932846e-12 </wgt>
<wgt id='1259'> +1.2558720e-12 </wgt>
<wgt id='1260'> +1.2781749e-12 </wgt>
<wgt id='1261'> +1.2696912e-12 </wgt>
<wgt id='1262'> +1.2764108e-12 </wgt>
<wgt id='1263'> +1.2731045e-12 </wgt>
<wgt id='1264'> +1.2797403e-12 </wgt>
<wgt id='1265'> +1.2714289e-12 </wgt>
<wgt id='1266'> +1.2718869e-12 </wgt>
<wgt id='1267'> +1.2769278e-12 </wgt>
<wgt id='1268'> +1.2738726e-12 </wgt>
<wgt id='1269'> +1.2785693e-12 </wgt>
<wgt id='1270'> +1.2673957e-12 </wgt>
<wgt id='1271'> +1.2663448e-12 </wgt>
<wgt id='1272'> +1.2748717e-12 </wgt>
<wgt id='1273'> +1.2733403e-12 </wgt>
<wgt id='1274'> +1.2759235e-12 </wgt>
<wgt id='1275'> +1.2700883e-12 </wgt>
<wgt id='1276'> +1.2753651e-12 </wgt>
<wgt id='1277'> +1.2719406e-12 </wgt>
<wgt id='1278'> +1.2729937e-12 </wgt>
<wgt id='1279'> +1.2728357e-12 </wgt>
<wgt id='1280'> +1.2748082e-12 </wgt>
<wgt id='1281'> +1.2717922e-12 </wgt>
<wgt id='1282'> +1.2742245e-12 </wgt>
<wgt id='1283'> +1.2645382e-12 </wgt>
<wgt id='1284'> +1.2681778e-12 </wgt>
<wgt id='1285'> +1.2715420e-12 </wgt>
<wgt id='1286'> +1.2769395e-12 </wgt>
<wgt id='1287'> +1.2790990e-12 </wgt>
<wgt id='1288'> +1.2809340e-12 </wgt>
<wgt id='1289'> +1.2975191e-12 </wgt>
<wgt id='1290'> +1.3013387e-12 </wgt>
<wgt id='1291'> +1.2933322e-12 </wgt>
<wgt id='1292'> +1.2928848e-12 </wgt>
<wgt id='1293'> +1.3008377e-12 </wgt>
<wgt id='1294'> +1.2976748e-12 </wgt>
<wgt id='1295'> +1.2973331e-12 </wgt>
<wgt id='1296'> +1.2916909e-12 </wgt>
<wgt id='1297'> +1.3046951e-12 </wgt>
<wgt id='1298'> +1.3033816e-12 </wgt>
<wgt id='1299'> +1.2900373e-12 </wgt>
<wgt id='1300'> +1.3008532e-12 </wgt>
<wgt id='1301'> +1.2908412e-12 </wgt>
<wgt id='1302'> +1.2965228e-12 </wgt>
<wgt id='1303'> +1.2987689e-12 </wgt>
<wgt id='1304'> +1.2950452e-12 </wgt>
<wgt id='1305'> +1.2991884e-12 </wgt>
<wgt id='1306'> +1.2918596e-12 </wgt>
<wgt id='1307'> +1.3039833e-12 </wgt>
<wgt id='1308'> +1.3066683e-12 </wgt>
<wgt id='1309'> +1.2904626e-12 </wgt>
<wgt id='1310'> +1.2965546e-12 </wgt>
<wgt id='1311'> +1.2985643e-12 </wgt>
<wgt id='1312'> +1.2924192e-12 </wgt>
<wgt id='1313'> +1.3028041e-12 </wgt>
<wgt id='1314'> +1.3032326e-12 </wgt>
<wgt id='1315'> +1.2852058e-12 </wgt>
<wgt id='1316'> +1.3031264e-12 </wgt>
<wgt id='1317'> +1.2981959e-12 </wgt>
<wgt id='1318'> +1.3057669e-12 </wgt>
<wgt id='1319'> +1.2874395e-12 </wgt>
<wgt id='1320'> +1.3059748e-12 </wgt>
<wgt id='1321'> +1.2897475e-12 </wgt>
<wgt id='1322'> +1.2968432e-12 </wgt>
<wgt id='1323'> +1.2980294e-12 </wgt>
<wgt id='1324'> +1.2962711e-12 </wgt>
<wgt id='1325'> +1.3046398e-12 </wgt>
<wgt id='1326'> +1.2979035e-12 </wgt>
<wgt id='1327'> +1.2990657e-12 </wgt>
<wgt id='1328'> +1.2978607e-12 </wgt>
<wgt id='1329'> +1.2969598e-12 </wgt>
<wgt id='1330'> +1.2763724e-12 </wgt>
<wgt id='1331'> +1.3106208e-12 </wgt>
<wgt id='1332'> +1.3189894e-12 </wgt>
<wgt id='1333'> +1.2834499e-12 </wgt>
<wgt id='1334'> +1.2932560e-12 </wgt>
<wgt id='1335'> +1.3078602e-12 </wgt>
<wgt id='1336'> +1.2940978e-12 </wgt>
<wgt id='1337'> +1.2950655e-12 </wgt>
<wgt id='1338'> +1.2965003e-12 </wgt>
<wgt id='1339'> +1.2976705e-12 </wgt>
<wgt id='1340'> +1.2766202e-12 </wgt>
<wgt id='1341'> +1.2806612e-12 </wgt>
<wgt id='1342'> +1.2722847e-12 </wgt>
<wgt id='1343'> +1.2718638e-12 </wgt>
<wgt id='1344'> +1.2797938e-12 </wgt>
<wgt id='1345'> +1.2766400e-12 </wgt>
<wgt id='1346'> +1.2765209e-12 </wgt>
<wgt id='1347'> +1.2707889e-12 </wgt>
<wgt id='1348'> +1.2831235e-12 </wgt>
<wgt id='1349'> +1.2819279e-12 </wgt>
<wgt id='1350'> +1.2713564e-12 </wgt>
<wgt id='1351'> +1.2800051e-12 </wgt>
<wgt id='1352'> +1.2692259e-12 </wgt>
<wgt id='1353'> +1.2751718e-12 </wgt>
<wgt id='1354'> +1.2791138e-12 </wgt>
<wgt id='1355'> +1.2743116e-12 </wgt>
<wgt id='1356'> +1.2778642e-12 </wgt>
<wgt id='1357'> +1.2732983e-12 </wgt>
<wgt id='1358'> +1.2807130e-12 </wgt>
<wgt id='1359'> +1.2872866e-12 </wgt>
<wgt id='1360'> +1.2673442e-12 </wgt>
<wgt id='1361'> +1.2754557e-12 </wgt>
<wgt id='1362'> +1.2782419e-12 </wgt>
<wgt id='1363'> +1.2692940e-12 </wgt>
<wgt id='1364'> +1.2820041e-12 </wgt>
<wgt id='1365'> +1.2653436e-12 </wgt>
<wgt id='1366'> +1.2818580e-12 </wgt>
<wgt id='1367'> +1.2816516e-12 </wgt>
<wgt id='1368'> +1.2769427e-12 </wgt>
<wgt id='1369'> +1.2837445e-12 </wgt>
<wgt id='1370'> +1.2680209e-12 </wgt>
<wgt id='1371'> +1.2828780e-12 </wgt>
<wgt id='1372'> +1.2686116e-12 </wgt>
<wgt id='1373'> +1.2746524e-12 </wgt>
<wgt id='1374'> +1.2780070e-12 </wgt>
<wgt id='1375'> +1.2753064e-12 </wgt>
<wgt id='1376'> +1.2839099e-12 </wgt>
<wgt id='1377'> +1.2771420e-12 </wgt>
<wgt id='1378'> +1.2784878e-12 </wgt>
<wgt id='1379'> +1.2766412e-12 </wgt>
<wgt id='1380'> +1.2763818e-12 </wgt>
<wgt id='1381'> +1.2547268e-12 </wgt>
<wgt id='1382'> +1.2885109e-12 </wgt>
<wgt id='1383'> +1.2984314e-12 </wgt>
<wgt id='1384'> +1.2605087e-12 </wgt>
<wgt id='1385'> +1.2722828e-12 </wgt>
<wgt id='1386'> +1.2864612e-12 </wgt>
<wgt id='1387'> +1.2721385e-12 </wgt>
<wgt id='1388'> +1.2733286e-12 </wgt>
<wgt id='1389'> +1.2741579e-12 </wgt>
<wgt id='1390'> +1.2770896e-12 </wgt>
<wgt id='1391'> +1.2472212e-12 </wgt>
<wgt id='1392'> +1.2193493e-12 </wgt>
<wgt id='1393'> +1.2282106e-12 </wgt>
<wgt id='1394'> +1.2374613e-12 </wgt>
<wgt id='1395'> +1.2548573e-12 </wgt>
<wgt id='1396'> +1.2467164e-12 </wgt>
<wgt id='1397'> +1.2119930e-12 </wgt>
<wgt id='1398'> +1.2191648e-12 </wgt>
<wgt id='1399'> +1.2258744e-12 </wgt>
<wgt id='1400'> +1.2325984e-12 </wgt>
<wgt id='1401'> +1.2396420e-12 </wgt>
<wgt id='1402'> +1.2530508e-12 </wgt>
<wgt id='1403'> +1.2597869e-12 </wgt>
<wgt id='1404'> +1.2659039e-12 </wgt>
<wgt id='1405'> +1.2467164e-12 </wgt>
<wgt id='1406'> +1.2420991e-12 </wgt>
<wgt id='1407'> +1.2447200e-12 </wgt>
<wgt id='1408'> +1.2487359e-12 </wgt>
<wgt id='1409'> +1.2503104e-12 </wgt>
<wgt id='1410'> +1.2537506e-12 </wgt>
<wgt id='1411'> +1.2561291e-12 </wgt>
<wgt id='1412'> +1.2506159e-12 </wgt>
<wgt id='1413'> +1.2598563e-12 </wgt>
<wgt id='1414'> +1.2477154e-12 </wgt>
<wgt id='1415'> +1.2487013e-12 </wgt>
<wgt id='1416'> +1.2558098e-12 </wgt>
<wgt id='1417'> +1.2452674e-12 </wgt>
<wgt id='1418'> +1.2622619e-12 </wgt>
<wgt id='1419'> +1.2557549e-12 </wgt>
<wgt id='1420'> +1.2518152e-12 </wgt>
<wgt id='1421'> +1.2405164e-12 </wgt>
<wgt id='1422'> +1.2595439e-12 </wgt>
<wgt id='1423'> +1.2535220e-12 </wgt>
<wgt id='1424'> +1.2540544e-12 </wgt>
<wgt id='1425'> +1.2501791e-12 </wgt>
<wgt id='1426'> +1.2576879e-12 </wgt>
<wgt id='1427'> +1.2548154e-12 </wgt>
<wgt id='1428'> +1.2530217e-12 </wgt>
<wgt id='1429'> +1.2461764e-12 </wgt>
<wgt id='1430'> +1.2641247e-12 </wgt>
<wgt id='1431'> +1.2591992e-12 </wgt>
<wgt id='1432'> +1.2499368e-12 </wgt>
<wgt id='1433'> +1.2601035e-12 </wgt>
<wgt id='1434'> +1.2465012e-12 </wgt>
<wgt id='1435'> +1.2577876e-12 </wgt>
<wgt id='1436'> +1.2441296e-12 </wgt>
<wgt id='1437'> +1.2598888e-12 </wgt>
<wgt id='1438'> +1.2531228e-12 </wgt>
<wgt id='1439'> +1.2478687e-12 </wgt>
<wgt id='1440'> +1.2673062e-12 </wgt>
<wgt id='1441'> +1.2562467e-12 </wgt>
<wgt id='1442'> +1.2491809e-12 </wgt>
<wgt id='1443'> +1.2522395e-12 </wgt>
<wgt id='1444'> +1.2582028e-12 </wgt>
<wgt id='1445'> +1.2619953e-12 </wgt>
<wgt id='1446'> +1.2513257e-12 </wgt>
<wgt id='1447'> +1.2547536e-12 </wgt>
<wgt id='1448'> +1.2545924e-12 </wgt>
<wgt id='1449'> +1.2544951e-12 </wgt>
<wgt id='1450'> +1.2530047e-12 </wgt>
<wgt id='1451'> +1.2621085e-12 </wgt>
<wgt id='1452'> +1.2305797e-12 </wgt>
<wgt id='1453'> +1.2557198e-12 </wgt>
<wgt id='1454'> +1.2411861e-12 </wgt>
<wgt id='1455'> +1.2413454e-12 </wgt>
<wgt id='1456'> +1.2595470e-12 </wgt>
<wgt id='1457'> +1.2593255e-12 </wgt>
<wgt id='1458'> +1.2512110e-12 </wgt>
<wgt id='1459'> +1.2579244e-12 </wgt>
<wgt id='1460'> +1.2487582e-12 </wgt>
<wgt id='1461'> +1.2537506e-12 </wgt>
<wgt id='1462'> +1.2473119e-12 </wgt>
<wgt id='1463'> +1.2632498e-12 </wgt>
<wgt id='1464'> +1.2556106e-12 </wgt>
<wgt id='1465'> +1.2281597e-12 </wgt>
<wgt id='1466'> +1.2338195e-12 </wgt>
<wgt id='1467'> +1.2398067e-12 </wgt>
<wgt id='1468'> +1.2447262e-12 </wgt>
<wgt id='1469'> +1.2502242e-12 </wgt>
<wgt id='1470'> +1.2615848e-12 </wgt>
<wgt id='1471'> +1.2662427e-12 </wgt>
<wgt id='1472'> +1.2718354e-12 </wgt>
<wgt id='1473'> +1.2556106e-12 </wgt>
<wgt id='1474'> +1.2503720e-12 </wgt>
<wgt id='1475'> +1.2524493e-12 </wgt>
<wgt id='1476'> +1.2578320e-12 </wgt>
<wgt id='1477'> +1.2598908e-12 </wgt>
<wgt id='1478'> +1.2242857e-12 </wgt>
<wgt id='1479'> +1.2221347e-12 </wgt>
<wgt id='1480'> +1.2241810e-12 </wgt>
<wgt id='1481'> +1.2180442e-12 </wgt>
<wgt id='1482'> +1.2222832e-12 </wgt>
<wgt id='1483'> +1.2090281e-12 </wgt>
<wgt id='1484'> +1.2268163e-12 </wgt>
<wgt id='1485'> +1.2221505e-12 </wgt>
<wgt id='1486'> +1.2253320e-12 </wgt>
<wgt id='1487'> +1.2252017e-12 </wgt>
<wgt id='1488'> +1.2214320e-12 </wgt>
<wgt id='1489'> +1.2467598e-12 </wgt>
<wgt id='1490'> +1.2221381e-12 </wgt>
<wgt id='1491'> +1.2230958e-12 </wgt>
<wgt id='1492'> +1.2257649e-12 </wgt>
<wgt id='1493'> +1.2128669e-12 </wgt>
<wgt id='1494'> +1.2397275e-12 </wgt>
<wgt id='1495'> +1.2211645e-12 </wgt>
<wgt id='1496'> +1.2232551e-12 </wgt>
<wgt id='1497'> +1.2226129e-12 </wgt>
<wgt id='1498'> +1.2239240e-12 </wgt>
<wgt id='1499'> +1.2256213e-12 </wgt>
<wgt id='1500'> +1.2254467e-12 </wgt>
<wgt id='1501'> +1.2238838e-12 </wgt>
<wgt id='1502'> +1.2235750e-12 </wgt>
<wgt id='1503'> +1.2257182e-12 </wgt>
<wgt id='1504'> +1.2220354e-12 </wgt>
<wgt id='1505'> +1.2248451e-12 </wgt>
<wgt id='1506'> +1.2220379e-12 </wgt>
<wgt id='1507'> +1.2228406e-12 </wgt>
<wgt id='1508'> +1.2281913e-12 </wgt>
<wgt id='1509'> +1.2873865e-12 </wgt>
<wgt id='1510'> +1.2857861e-12 </wgt>
<wgt id='1511'> +1.2925515e-12 </wgt>
<wgt id='1512'> +1.2903414e-12 </wgt>
<wgt id='1513'> +1.2938122e-12 </wgt>
<wgt id='1514'> +1.2855072e-12 </wgt>
<wgt id='1515'> +1.2828602e-12 </wgt>
<wgt id='1516'> +1.2856305e-12 </wgt>
<wgt id='1517'> +1.2867338e-12 </wgt>
<wgt id='1518'> +1.2914808e-12 </wgt>
<wgt id='1519'> +1.2823752e-12 </wgt>
<wgt id='1520'> +1.2918218e-12 </wgt>
<wgt id='1521'> +1.2954649e-12 </wgt>
<wgt id='1522'> +1.2938480e-12 </wgt>
<wgt id='1523'> +1.2927933e-12 </wgt>
<wgt id='1524'> +1.2883071e-12 </wgt>
<wgt id='1525'> +1.2876154e-12 </wgt>
<wgt id='1526'> +1.2850268e-12 </wgt>
<wgt id='1527'> +1.2880097e-12 </wgt>
<wgt id='1528'> +1.2901264e-12 </wgt>
<wgt id='1529'> +1.2888180e-12 </wgt>
<wgt id='1530'> +1.2915957e-12 </wgt>
<wgt id='1531'> +1.2878920e-12 </wgt>
<wgt id='1532'> +1.2882056e-12 </wgt>
<wgt id='1533'> +1.2865704e-12 </wgt>
<wgt id='1534'> +1.2898719e-12 </wgt>
<wgt id='1535'> +1.2817155e-12 </wgt>
<wgt id='1536'> +1.2834967e-12 </wgt>
<wgt id='1537'> +1.2866255e-12 </wgt>
<wgt id='1538'> +1.2885443e-12 </wgt>
<wgt id='1539'> +1.2894812e-12 </wgt>
<wgt id='1540'> +1.2882857e-12 </wgt>
<wgt id='1541'> +1.2872977e-12 </wgt>
<wgt id='1542'> +1.2874151e-12 </wgt>
<wgt id='1543'> +1.2859040e-12 </wgt>
<wgt id='1544'> +1.2866701e-12 </wgt>
<wgt id='1545'> +1.2897386e-12 </wgt>
<wgt id='1546'> +1.2879138e-12 </wgt>
<wgt id='1547'> +1.2885471e-12 </wgt>
<wgt id='1548'> +1.2863751e-12 </wgt>
<wgt id='1549'> +1.2862444e-12 </wgt>
<wgt id='1550'> +1.2896909e-12 </wgt>
<wgt id='1551'> +1.2872890e-12 </wgt>
<wgt id='1552'> +1.2879553e-12 </wgt>
<wgt id='1553'> +1.2891278e-12 </wgt>
<wgt id='1554'> +1.2882219e-12 </wgt>
<wgt id='1555'> +1.2875719e-12 </wgt>
<wgt id='1556'> +1.2868754e-12 </wgt>
<wgt id='1557'> +1.2872577e-12 </wgt>
<wgt id='1558'> +1.2884377e-12 </wgt>
<wgt id='1559'> +1.2883914e-12 </wgt>
<wgt id='1560'> +1.2879623e-12 </wgt>
<wgt id='1561'> +1.2879338e-12 </wgt>
<wgt id='1562'> +1.2878640e-12 </wgt>
<wgt id='1563'> +1.2877653e-12 </wgt>
<wgt id='1564'> +1.2862733e-12 </wgt>
<wgt id='1565'> +1.2870870e-12 </wgt>
<wgt id='1566'> +1.2867511e-12 </wgt>
<wgt id='1567'> +1.2856178e-12 </wgt>
<wgt id='1568'> +1.2889751e-12 </wgt>
<wgt id='1569'> +1.2881347e-12 </wgt>
<wgt id='1570'> +1.2868021e-12 </wgt>
<wgt id='1571'> +1.2876684e-12 </wgt>
<wgt id='1572'> +1.2874113e-12 </wgt>
<wgt id='1573'> +1.2871572e-12 </wgt>
<wgt id='1574'> +1.2875689e-12 </wgt>
<wgt id='1575'> +1.2871633e-12 </wgt>
<wgt id='1576'> +1.2871852e-12 </wgt>
<wgt id='1577'> +1.2867158e-12 </wgt>
<wgt id='1578'> +1.2874999e-12 </wgt>
<wgt id='1579'> +1.2871692e-12 </wgt>
<wgt id='1580'> +1.2872527e-12 </wgt>
<wgt id='1581'> +1.2871260e-12 </wgt>
<wgt id='1582'> +1.2874197e-12 </wgt>
<wgt id='1583'> +1.2870898e-12 </wgt>
<wgt id='1584'> +1.2872922e-12 </wgt>
<wgt id='1585'> +1.2879595e-12 </wgt>
<wgt id='1586'> +1.2872754e-12 </wgt>
<wgt id='1587'> +1.2869418e-12 </wgt>
<wgt id='1588'> +1.2871649e-12 </wgt>
<wgt id='1589'> +1.2867736e-12 </wgt>
<wgt id='1590'> +1.2874014e-12 </wgt>
<wgt id='1591'> +1.2870740e-12 </wgt>
<wgt id='1592'> +1.2876553e-12 </wgt>
<wgt id='1593'> +1.2870003e-12 </wgt>
<wgt id='1594'> +1.2875414e-12 </wgt>
<wgt id='1595'> +1.2871795e-12 </wgt>
<wgt id='1596'> +1.2873023e-12 </wgt>
<wgt id='1597'> +1.2877995e-12 </wgt>
<wgt id='1598'> +1.2875279e-12 </wgt>
<wgt id='1599'> +1.2869485e-12 </wgt>
<wgt id='1600'> +1.2872082e-12 </wgt>
<wgt id='1601'> +1.2874679e-12 </wgt>
<wgt id='1602'> +1.2872357e-12 </wgt>
<wgt id='1603'> +1.2874165e-12 </wgt>
<wgt id='1604'> +1.2874334e-12 </wgt>
<wgt id='1605'> +1.2875508e-12 </wgt>
<wgt id='1606'> +1.2877431e-12 </wgt>
<wgt id='1607'> +1.2874685e-12 </wgt>
<wgt id='1608'> +1.2878573e-12 </wgt>
<wgt id='1609'> +1.2877285e-12 </wgt>
<wgt id='1610'> +1.2728864e-12 </wgt>
<wgt id='1611'> +1.2997220e-12 </wgt>
<wgt id='1612'> +1.4993819e-12 </wgt>
<wgt id='1613'> +1.4929490e-12 </wgt>
<wgt id='1614'> +1.5152938e-12 </wgt>
<wgt id='1615'> +1.4781972e-12 </wgt>
<wgt id='1616'> +1.5525600e-12 </wgt>
<wgt id='1617'> +1.5222306e-12 </wgt>
<wgt id='1618'> +1.4696614e-12 </wgt>
<wgt id='1619'> +1.5067714e-12 </wgt>
<wgt id='1620'> +1.4695039e-12 </wgt>
<wgt id='1621'> +1.5026456e-12 </wgt>
<wgt id='1622'> +1.4917195e-12 </wgt>
<wgt id='1623'> +1.5052797e-12 </wgt>
<wgt id='1624'> +1.4663594e-12 </wgt>
<wgt id='1625'> +1.4783108e-12 </wgt>
<wgt id='1626'> +1.4913193e-12 </wgt>
<wgt id='1627'> +1.4908491e-12 </wgt>
<wgt id='1628'> +1.5138373e-12 </wgt>
<wgt id='1629'> +1.5293334e-12 </wgt>
<wgt id='1630'> +1.5080047e-12 </wgt>
<wgt id='1631'> +1.4790299e-12 </wgt>
<wgt id='1632'> +1.4762603e-12 </wgt>
<wgt id='1633'> +1.4674616e-12 </wgt>
<wgt id='1634'> +1.5631158e-12 </wgt>
<wgt id='1635'> +1.4936896e-12 </wgt>
<wgt id='1636'> +1.5372976e-12 </wgt>
<wgt id='1637'> +1.4625214e-12 </wgt>
<wgt id='1638'> +1.5162124e-12 </wgt>
<wgt id='1639'> +1.5136893e-12 </wgt>
<wgt id='1640'> +1.5297003e-12 </wgt>
<wgt id='1641'> +1.4805011e-12 </wgt>
<wgt id='1642'> +1.5025387e-12 </wgt>
<wgt id='1643'> +1.5549086e-12 </wgt>
<wgt id='1644'> +1.4337661e-12 </wgt>
<wgt id='1645'> +1.5059264e-12 </wgt>
<wgt id='1646'> +1.5063397e-12 </wgt>
<wgt id='1647'> +1.5103772e-12 </wgt>
<wgt id='1648'> +1.4974990e-12 </wgt>
<wgt id='1649'> +1.5070589e-12 </wgt>
<wgt id='1650'> +1.4897852e-12 </wgt>
<wgt id='1651'> +1.4533411e-12 </wgt>
<wgt id='1652'> +1.5054837e-12 </wgt>
<wgt id='1653'> +1.5350079e-12 </wgt>
<wgt id='1654'> +1.4965379e-12 </wgt>
<wgt id='1655'> +1.4689239e-12 </wgt>
<wgt id='1656'> +1.4544723e-12 </wgt>
<wgt id='1657'> +1.4928704e-12 </wgt>
<wgt id='1658'> +1.4638286e-12 </wgt>
<wgt id='1659'> +1.4663594e-12 </wgt>
<wgt id='1660'> +1.4902522e-12 </wgt>
<wgt id='1661'> +1.4955119e-12 </wgt>
<wgt id='1662'> +1.4914147e-12 </wgt>
<wgt id='1663'> +1.4861457e-12 </wgt>
<wgt id='1664'> +1.5006352e-12 </wgt>
<wgt id='1665'> +1.4732802e-12 </wgt>
<wgt id='1666'> +1.5138364e-12 </wgt>
<wgt id='1667'> +1.4886510e-12 </wgt>
<wgt id='1668'> +1.5394310e-12 </wgt>
<wgt id='1669'> +1.4500805e-12 </wgt>
<wgt id='1670'> +1.5112763e-12 </wgt>
<wgt id='1671'> +1.4900891e-12 </wgt>
<wgt id='1672'> +1.5000215e-12 </wgt>
<wgt id='1673'> +1.4662642e-12 </wgt>
<wgt id='1674'> +1.4831575e-12 </wgt>
<wgt id='1675'> +1.5494217e-12 </wgt>
<wgt id='1676'> +1.5279130e-12 </wgt>
<wgt id='1677'> +1.5671216e-12 </wgt>
<wgt id='1678'> +1.4972347e-12 </wgt>
<wgt id='1679'> +1.5291206e-12 </wgt>
<wgt id='1680'> +1.5009790e-12 </wgt>
<wgt id='1681'> +1.5195936e-12 </wgt>
<wgt id='1682'> +1.5030057e-12 </wgt>
<wgt id='1683'> +1.4764190e-12 </wgt>
<wgt id='1684'> +1.4860245e-12 </wgt>
<wgt id='1685'> +1.4880895e-12 </wgt>
<wgt id='1686'> +1.5071803e-12 </wgt>
<wgt id='1687'> +1.5454003e-12 </wgt>
<wgt id='1688'> +1.5225013e-12 </wgt>
<wgt id='1689'> +1.4651727e-12 </wgt>
<wgt id='1690'> +1.5247949e-12 </wgt>
<wgt id='1691'> +1.5356190e-12 </wgt>
<wgt id='1692'> +1.5190510e-12 </wgt>
<wgt id='1693'> +1.5438018e-12 </wgt>
<wgt id='1694'> +1.4420231e-12 </wgt>
<wgt id='1695'> +1.5019014e-12 </wgt>
<wgt id='1696'> +1.5461288e-12 </wgt>
<wgt id='1697'> +1.4753974e-12 </wgt>
<wgt id='1698'> +1.4877865e-12 </wgt>
<wgt id='1699'> +1.5075636e-12 </wgt>
<wgt id='1700'> +1.4906320e-12 </wgt>
<wgt id='1701'> +1.4839361e-12 </wgt>
<wgt id='1702'> +1.4975330e-12 </wgt>
<wgt id='1703'> +1.5174078e-12 </wgt>
<wgt id='1704'> +1.4850622e-12 </wgt>
<wgt id='1705'> +1.4848764e-12 </wgt>
<wgt id='1706'> +1.4998711e-12 </wgt>
<wgt id='1707'> +1.4872381e-12 </wgt>
<wgt id='1708'> +1.4677050e-12 </wgt>
<wgt id='1709'> +1.4942711e-12 </wgt>
<wgt id='1710'> +1.4792662e-12 </wgt>
<wgt id='1711'> +1.5609087e-12 </wgt>
<wgt id='1712'> +1.4954647e-12 </wgt>
<wgt id='1713'> +1.2058768e-12 </wgt>
<wgt id='1714'> +1.1720350e-12 </wgt>
<wgt id='1715'> +1.2276069e-12 </wgt>
<wgt id='1716'> +1.2124422e-12 </wgt>
<wgt id='1717'> +1.2017461e-12 </wgt>
<wgt id='1718'> +1.2030796e-12 </wgt>
<wgt id='1719'> +1.2152653e-12 </wgt>
<wgt id='1720'> +1.2261952e-12 </wgt>
<wgt id='1721'> +1.1877728e-12 </wgt>
<wgt id='1722'> +1.1936931e-12 </wgt>
<wgt id='1723'> +1.1656889e-12 </wgt>
<wgt id='1724'> +1.1224472e-12 </wgt>
<wgt id='1725'> +1.2347801e-12 </wgt>
<wgt id='1726'> +1.2685151e-12 </wgt>
<wgt id='1727'> +1.1739303e-12 </wgt>
<wgt id='1728'> +1.2089177e-12 </wgt>
<wgt id='1729'> +1.2065148e-12 </wgt>
<wgt id='1730'> +1.1811323e-12 </wgt>
<wgt id='1731'> +1.1708801e-12 </wgt>
<wgt id='1732'> +1.2197922e-12 </wgt>
<wgt id='1733'> +1.2259126e-12 </wgt>
<wgt id='1734'> +1.2215115e-12 </wgt>
<wgt id='1735'> +1.1658061e-12 </wgt>
<wgt id='1736'> +1.2796572e-12 </wgt>
<wgt id='1737'> +1.2287833e-12 </wgt>
<wgt id='1738'> +1.2268177e-12 </wgt>
<wgt id='1739'> +1.1740023e-12 </wgt>
<wgt id='1740'> +1.1960225e-12 </wgt>
<wgt id='1741'> +1.2065081e-12 </wgt>
<wgt id='1742'> +1.2054761e-12 </wgt>
<wgt id='1743'> +1.2364101e-12 </wgt>
<wgt id='1744'> +1.2459164e-12 </wgt>
<wgt id='1745'> +1.1268291e-12 </wgt>
<wgt id='1746'> +1.2364693e-12 </wgt>
<wgt id='1747'> +1.2267515e-12 </wgt>
<wgt id='1748'> +1.2208245e-12 </wgt>
<wgt id='1749'> +1.2316966e-12 </wgt>
<wgt id='1750'> +1.2231475e-12 </wgt>
<wgt id='1751'> +1.1513313e-12 </wgt>
<wgt id='1752'> +1.1830495e-12 </wgt>
<wgt id='1753'> +1.2254566e-12 </wgt>
<wgt id='1754'> +1.2049243e-12 </wgt>
<wgt id='1755'> +1.2312067e-12 </wgt>
<wgt id='1756'> +1.2182516e-12 </wgt>
<wgt id='1757'> +1.1947949e-12 </wgt>
<wgt id='1758'> +1.2284477e-12 </wgt>
<wgt id='1759'> +1.2196359e-12 </wgt>
<wgt id='1760'> +1.1742729e-12 </wgt>
<wgt id='1761'> +1.1828707e-12 </wgt>
<wgt id='1762'> +1.2257120e-12 </wgt>
<wgt id='1763'> +1.2266033e-12 </wgt>
<wgt id='1764'> +1.2059248e-12 </wgt>
<wgt id='1765'> +1.2097888e-12 </wgt>
<wgt id='1766'> +1.2205554e-12 </wgt>
<wgt id='1767'> +1.2091919e-12 </wgt>
<wgt id='1768'> +1.2037420e-12 </wgt>
<wgt id='1769'> +1.1750666e-12 </wgt>
<wgt id='1770'> +1.2568632e-12 </wgt>
<wgt id='1771'> +1.2054976e-12 </wgt>
<wgt id='1772'> +1.2479877e-12 </wgt>
<wgt id='1773'> +1.2017638e-12 </wgt>
<wgt id='1774'> +1.2184374e-12 </wgt>
<wgt id='1775'> +1.2123366e-12 </wgt>
<wgt id='1776'> +1.2359176e-12 </wgt>
<wgt id='1777'> +1.1548262e-12 </wgt>
<wgt id='1778'> +1.1876389e-12 </wgt>
<wgt id='1779'> +1.2282907e-12 </wgt>
<wgt id='1780'> +1.2025924e-12 </wgt>
<wgt id='1781'> +1.2010668e-12 </wgt>
<wgt id='1782'> +1.1750346e-12 </wgt>
<wgt id='1783'> +1.2076722e-12 </wgt>
<wgt id='1784'> +1.2155587e-12 </wgt>
<wgt id='1785'> +1.1720096e-12 </wgt>
<wgt id='1786'> +1.1201418e-12 </wgt>
<wgt id='1787'> +1.2352076e-12 </wgt>
<wgt id='1788'> +1.2063896e-12 </wgt>
<wgt id='1789'> +1.1235575e-12 </wgt>
<wgt id='1790'> +1.2057742e-12 </wgt>
<wgt id='1791'> +1.2308020e-12 </wgt>
<wgt id='1792'> +1.1720306e-12 </wgt>
<wgt id='1793'> +1.2110780e-12 </wgt>
<wgt id='1794'> +1.2078999e-12 </wgt>
<wgt id='1795'> +1.2213772e-12 </wgt>
<wgt id='1796'> +1.1933317e-12 </wgt>
<wgt id='1797'> +1.2121580e-12 </wgt>
<wgt id='1798'> +1.1931981e-12 </wgt>
<wgt id='1799'> +1.2001964e-12 </wgt>
<wgt id='1800'> +1.2001207e-12 </wgt>
<wgt id='1801'> +1.2039873e-12 </wgt>
<wgt id='1802'> +1.1921415e-12 </wgt>
<wgt id='1803'> +1.2225563e-12 </wgt>
<wgt id='1804'> +1.1847517e-12 </wgt>
<wgt id='1805'> +1.2177893e-12 </wgt>
<wgt id='1806'> +1.1971100e-12 </wgt>
<wgt id='1807'> +1.2186481e-12 </wgt>
<wgt id='1808'> +1.2144307e-12 </wgt>
<wgt id='1809'> +1.1957561e-12 </wgt>
<wgt id='1810'> +1.2108621e-12 </wgt>
<wgt id='1811'> +1.2573154e-12 </wgt>
<wgt id='1812'> +1.2355454e-12 </wgt>
<wgt id='1813'> +1.2262974e-12 </wgt>
<wgt id='1814'> +1.2959216e-12 </wgt>
<wgt id='1815'> +1.4589114e-12 </wgt>
<wgt id='1816'> +1.2058768e-12 </wgt>
<wgt id='1817'> +1.1720350e-12 </wgt>
<wgt id='1818'> +1.2276069e-12 </wgt>
<wgt id='1819'> +1.2124422e-12 </wgt>
<wgt id='1820'> +1.2017461e-12 </wgt>
<wgt id='1821'> +1.2030796e-12 </wgt>
<wgt id='1822'> +1.2152653e-12 </wgt>
<wgt id='1823'> +1.2261952e-12 </wgt>
<wgt id='1824'> +1.1877728e-12 </wgt>
<wgt id='1825'> +1.1936931e-12 </wgt>
<wgt id='1826'> +1.1656889e-12 </wgt>
<wgt id='1827'> +1.1224472e-12 </wgt>
<wgt id='1828'> +1.2347801e-12 </wgt>
<wgt id='1829'> +1.2685151e-12 </wgt>
<wgt id='1830'> +1.1739303e-12 </wgt>
<wgt id='1831'> +1.2089177e-12 </wgt>
<wgt id='1832'> +1.2065148e-12 </wgt>
<wgt id='1833'> +1.1811323e-12 </wgt>
<wgt id='1834'> +1.1708801e-12 </wgt>
<wgt id='1835'> +1.2197922e-12 </wgt>
<wgt id='1836'> +1.2259126e-12 </wgt>
<wgt id='1837'> +1.2215115e-12 </wgt>
<wgt id='1838'> +1.1658061e-12 </wgt>
<wgt id='1839'> +1.2796572e-12 </wgt>
<wgt id='1840'> +1.2287833e-12 </wgt>
<wgt id='1841'> +1.2268177e-12 </wgt>
<wgt id='1842'> +1.1740023e-12 </wgt>
<wgt id='1843'> +1.1960225e-12 </wgt>
<wgt id='1844'> +1.2065081e-12 </wgt>
<wgt id='1845'> +1.2054761e-12 </wgt>
<wgt id='1846'> +1.2364101e-12 </wgt>
<wgt id='1847'> +1.2459164e-12 </wgt>
<wgt id='1848'> +1.1268291e-12 </wgt>
<wgt id='1849'> +1.2364693e-12 </wgt>
<wgt id='1850'> +1.2267515e-12 </wgt>
<wgt id='1851'> +1.2208245e-12 </wgt>
<wgt id='1852'> +1.2316966e-12 </wgt>
<wgt id='1853'> +1.2231475e-12 </wgt>
<wgt id='1854'> +1.1513313e-12 </wgt>
<wgt id='1855'> +1.1830495e-12 </wgt>
<wgt id='1856'> +1.2254566e-12 </wgt>
<wgt id='1857'> +1.2049243e-12 </wgt>
<wgt id='1858'> +1.2312067e-12 </wgt>
<wgt id='1859'> +1.2182516e-12 </wgt>
<wgt id='1860'> +1.1947949e-12 </wgt>
<wgt id='1861'> +1.2284477e-12 </wgt>
<wgt id='1862'> +1.2196359e-12 </wgt>
<wgt id='1863'> +1.1742729e-12 </wgt>
<wgt id='1864'> +1.1828707e-12 </wgt>
<wgt id='1865'> +1.2257120e-12 </wgt>
<wgt id='1866'> +1.2266033e-12 </wgt>
<wgt id='1867'> +1.2059248e-12 </wgt>
<wgt id='1868'> +1.2097888e-12 </wgt>
<wgt id='1869'> +1.2205554e-12 </wgt>
<wgt id='1870'> +1.2091919e-12 </wgt>
<wgt id='1871'> +1.2037420e-12 </wgt>
<wgt id='1872'> +1.1750666e-12 </wgt>
<wgt id='1873'> +1.2568632e-12 </wgt>
<wgt id='1874'> +1.2054976e-12 </wgt>
<wgt id='1875'> +1.2479877e-12 </wgt>
<wgt id='1876'> +1.2017638e-12 </wgt>
<wgt id='1877'> +1.2184374e-12 </wgt>
<wgt id='1878'> +1.2123366e-12 </wgt>
<wgt id='1879'> +1.2359176e-12 </wgt>
<wgt id='1880'> +1.1548262e-12 </wgt>
<wgt id='1881'> +1.1876389e-12 </wgt>
<wgt id='1882'> +1.2282907e-12 </wgt>
<wgt id='1883'> +1.2025924e-12 </wgt>
<wgt id='1884'> +1.2010668e-12 </wgt>
<wgt id='1885'> +1.1750346e-12 </wgt>
<wgt id='1886'> +1.2076722e-12 </wgt>
<wgt id='1887'> +1.2155587e-12 </wgt>
<wgt id='1888'> +1.1720096e-12 </wgt>
<wgt id='1889'> +1.1201418e-12 </wgt>
<wgt id='1890'> +1.2352076e-12 </wgt>
<wgt id='1891'> +1.2063896e-12 </wgt>
<wgt id='1892'> +1.1235575e-12 </wgt>
<wgt id='1893'> +1.2057742e-12 </wgt>
<wgt id='1894'> +1.2308020e-12 </wgt>
<wgt id='1895'> +1.1720306e-12 </wgt>
<wgt id='1896'> +1.2110780e-12 </wgt>
<wgt id='1897'> +1.2078999e-12 </wgt>
<wgt id='1898'> +1.2213772e-12 </wgt>
<wgt id='1899'> +1.1933317e-12 </wgt>
<wgt id='1900'> +1.2121580e-12 </wgt>
<wgt id='1901'> +1.1931981e-12 </wgt>
<wgt id='1902'> +1.2001964e-12 </wgt>
<wgt id='1903'> +1.2001207e-12 </wgt>
<wgt id='1904'> +1.2039873e-12 </wgt>
<wgt id='1905'> +1.1921415e-12 </wgt>
<wgt id='1906'> +1.2225563e-12 </wgt>
<wgt id='1907'> +1.1847517e-12 </wgt>
<wgt id='1908'> +1.2177893e-12 </wgt>
<wgt id='1909'> +1.1971100e-12 </wgt>
<wgt id='1910'> +1.2186481e-12 </wgt>
<wgt id='1911'> +1.2144307e-12 </wgt>
<wgt id='1912'> +1.1957561e-12 </wgt>
<wgt id='1913'> +1.2108621e-12 </wgt>
<wgt id='1914'> +1.2573154e-12 </wgt>
<wgt id='1915'> +1.2355454e-12 </wgt>
<wgt id='1916'> +1.2262974e-12 </wgt>
<wgt id='1917'> +1.1967242e-12 </wgt>
<wgt id='1918'> +1.2118121e-12 </wgt>
<wgt id='1919'> +1.2503701e-12 </wgt>
</rwgt>
</event>
<event>
 9      1 +1.5607000e-12 4.26999000e+01 7.81860800e-03 1.35115900e-01
        2 -1    0    0  502    0 +0.0000000000e+00 +0.0000000000e+00 +3.5673417439e+02 3.5673417439e+02 0.0000000000e+00 0.0000e+00 -1.0000e+00
       -2 -1    0    0    0  501 -0.0000000000e+00 -0.0000000000e+00 -4.8177624149e+00 4.8177624149e+00 0.0000000000e+00 0.0000e+00 1.0000e+00
     1023  2    1    2    0    0 -3.8343119734e+01 +1.1317232149e+01 +1.9531489625e+02 1.9992796178e+02 1.5000221036e+01 0.0000e+00 0.0000e+00
  1000023  2    3    3    0    0 -1.5917664913e+01 +3.4739784336e-02 +6.6925332173e+01 6.9011668596e+01 5.4988228591e+00 0.0000e+00 0.0000e+00
       21  1    1    2  502  501 +3.8343119734e+01 -1.1317232149e+01 +1.5660151572e+02 1.6162397502e+02 0.0000000000e+00 0.0000e+00 1.0000e+00
  1000022  1    4    4    0    0 -1.4611031113e+01 -3.1474749891e-01 +6.0902411184e+01 6.2830605474e+01 5.0000000000e+00 0.0000e+00 -1.0000e+00
      -13  1    4    4    0    0 -3.3495121273e-01 +1.3012727866e-01 +1.2890950641e+00 1.3424097727e+00 1.0570000000e-01 0.0000e+00 1.0000e+00
       13  1    4    4    0    0 -9.7168258681e-01 +2.1936000458e-01 +4.7338259244e+00 4.8386533492e+00 1.0570000000e-01 0.0000e+00 -1.0000e+00
  1000022  1    3    3    0    0 -2.2425454821e+01 +1.1282492365e+01 +1.2838956408e+02 1.3091629319e+02 5.0000000000e+00 0.0000e+00 -1.0000e+00
<mgrwt>
<rscale>  1 0.42699897E+02</rscale>
<asrwt>0</asrwt>
<pdfrwt beam="1">  1        2 0.54882160E-01 0.42699897E+02</pdfrwt>
<pdfrwt beam="2">  1       -2 0.74119450E-03 0.42699897E+02</pdfrwt>
<totfact> 0.25857853E+05</totfact>
</mgrwt>
<rwgt>
<wgt id='1001'> +1.5607000e-12 </wgt>
<wgt id='1002'> +1.5622852e-12 </wgt>
<wgt id='1003'> +1.5621617e-12 </wgt>
<wgt id='1004'> +1.5601760e-12 </wgt>
<wgt id='1005'> +1.5621104e-12 </wgt>
<wgt id='1006'> +1.3780583e-12 </wgt>
<wgt id='1007'> +1.3983239e-12 </wgt>
<wgt id='1008'> +1.3986235e-12 </wgt>
<wgt id='1009'> +1.3764139e-12 </wgt>
<wgt id='1010'> +1.3987407e-12 </wgt>
<wgt id='1011'> +1.8017182e-12 </wgt>
<wgt id='1012'> +1.7715357e-12 </wgt>
<wgt id='1013'> +1.7707226e-12 </wgt>
<wgt id='1014'> +1.8031965e-12 </wgt>
<wgt id='1015'> +1.7703976e-12 </wgt>
<wgt id='1016'> +1.7688526e-12 </wgt>
<wgt id='1017'> +1.7330358e-12 </wgt>
<wgt id='1018'> +1.7321071e-12 </wgt>
<wgt id='1019'> +1.7707226e-12 </wgt>
<wgt id='1020'> +1.7317360e-12 </wgt>
<wgt id='1021'> +1.5618518e-12 </wgt>
<wgt id='1022'> +1.5511542e-12 </wgt>
<wgt id='1023'> +1.5507778e-12 </wgt>
<wgt id='1024'> +1.5621617e-12 </wgt>
<wgt id='1025'> +1.5506264e-12 </wgt>
<wgt id='1026'> +2.0420157e-12 </wgt>
<wgt id='1027'> +1.9651563e-12 </wgt>
<wgt id='1028'> +1.9633571e-12 </wgt>
<wgt id='1029'> +2.0465388e-12 </wgt>
<wgt id='1030'> +1.9626406e-12 </wgt>
<wgt id='1031'> +1.3333882e-12 </wgt>
<wgt id='1032'> +1.3756745e-12 </wgt>
<wgt id='1033'> +1.3764139e-12 </wgt>
<wgt id='1034'> +1.3302672e-12 </wgt>
<wgt id='1035'> +1.3767053e-12 </wgt>
<wgt id='1036'> +1.1773478e-12 </wgt>
<wgt id='1037'> +1.2312979e-12 </wgt>
<wgt id='1038'> +1.2323211e-12 </wgt>
<wgt id='1039'> +1.1735844e-12 </wgt>
<wgt id='1040'> +1.2327257e-12 </wgt>
<wgt id='1041'> +1.5393028e-12 </wgt>
<wgt id='1042'> +1.5599305e-12 </wgt>
<wgt id='1043'> +1.5601760e-12 </wgt>
<wgt id='1044'> +1.5374759e-12 </wgt>
<wgt id='1045'> +1.5602711e-12 </wgt>
<wgt id='1046'> +1.5607000e-12 </wgt>
<wgt id='1047'> +1.6138905e-12 </wgt>
<wgt id='1048'> +1.5560335e-12 </wgt>
<wgt id='1049'> +1.5304450e-12 </wgt>
<wgt id='1050'> +1.5215052e-12 </wgt>
<wgt id='1051'> +1.5366060e-12 </wgt>
<wgt id='1052'> +1.5640231e-12 </wgt>
<wgt id='1053'> +1.5860046e-12 </wgt>
<wgt id='1054'> +1.5660666e-12 </wgt>
<wgt id='1055'> +1.5301136e-12 </wgt>
<wgt id='1056'> +1.5394197e-12 </wgt>
<wgt id='1057'> +1.5678783e-12 </wgt>
<wgt id='1058'> +1.5228350e-12 </wgt>
<wgt id='1059'> +1.5599886e-12 </wgt>
<wgt id='1060'> +1.6018114e-12 </wgt>
<wgt id='1061'> +1.5628397e-12 </wgt>
<wgt id='1062'> +1.5705394e-12 </wgt>
<wgt id='1063'> +1.5759591e-12 </wgt>
<wgt id='1064'> +1.5408736e-12 </wgt>
<wgt id='1065'> +1.5973696e-12 </wgt>
<wgt id='1066'> +1.5310037e-12 </wgt>
<wgt id='1067'> +1.5462902e-12 </wgt>
<wgt id='1068'> +1.5663077e-12 </wgt>
<wgt id='1069'> +1.5706040e-12 </wgt>
<wgt id='1070'> +1.5424742e-12 </wgt>
<wgt id='1071'> +1.5494558e-12 </wgt>
<wgt id='1072'> +1.6191911e-12 </wgt>
<wgt id='1073'> +1.5987518e-12 </wgt>
<wgt id='1074'> +1.5581035e-12 </wgt>
<wgt id='1075'> +1.5946507e-12 </wgt>
<wgt id='1076'> +1.5805136e-12 </wgt>
<wgt id='1077'> +1.5762846e-12 </wgt>
<wgt id='1078'> +1.5128547e-12 </wgt>
<wgt id='1079'> +1.5540722e-12 </wgt>
<wgt id='1080'> +1.5428218e-12 </wgt>
<wgt id='1081'> +1.5501463e-12 </wgt>
<wgt id='1082'> +1.5500086e-12 </wgt>
<wgt id='1083'> +1.5337224e-12 </wgt>
<wgt id='1084'> +1.5452161e-12 </wgt>
<wgt id='1085'> +1.5586180e-12 </wgt>
<wgt id='1086'> +1.5877888e-12 </wgt>
<wgt id='1087'> +1.5670573e-12 </wgt>
<wgt id='1088'> +1.5815825e-12 </wgt>
<wgt id='1089'> +1.5586135e-12 </wgt>
<wgt id='1090'> +1.5678794e-12 </wgt>
<wgt id='1091'> +1.5379017e-12 </wgt>
<wgt id='1092'> +1.5900280e-12 </wgt>
<wgt id='1093'> +1.5705022e-12 </wgt>
<wgt id='1094'> +1.6295344e-12 </wgt>
<wgt id='1095'> +1.5946840e-12 </wgt>
<wgt id='1096'> +1.5706064e-12 </wgt>
<wgt id='1097'> +1.5608312e-12 </wgt>
<wgt id='1098'> +1.5429071e-12 </wgt>
<wgt id='1099'> +1.5868343e-12 </wgt>
<wgt id='1100'> +1.5716657e-12 </wgt>
<wgt id='1101'> +1.6184536e-12 </wgt>
<wgt id='1102'> +1.5439603e-12 </wgt>
<wgt id='1103'> +1.5742709e-12 </wgt>
<wgt id='1104'> +1.5576426e-12 </wgt>
<wgt id='1105'> +1.5727105e-12 </wgt>
<wgt id='1106'> +1.5836661e-12 </wgt>
<wgt id='1107'> +1.5648916e-12 </wgt>
<wgt id='1108'> +1.5534836e-12 </wgt>
<wgt id='1109'> +1.5889414e-12 </wgt>
<wgt id='1110'> +1.5732657e-12 </wgt>
<wgt id='1111'> +1.5647742e-12 </wgt>
<wgt id='1112'> +1.5597829e-12 </wgt>
<wgt id='1113'> +1.5757755e-12 </wgt>
<wgt id='1114'> +1.5758784e-12 </wgt>
<wgt id='1115'> +1.5831698e-12 </wgt>
<wgt id='1116'> +1.5629752e-12 </wgt>
<wgt id='1117'> +1.5419345e-12 </wgt>
<wgt id='1118'> +1.6127340e-12 </wgt>
<wgt id='1119'> +1.4717343e-12 </wgt>
<wgt id='1120'> +1.5235369e-12 </wgt>
<wgt id='1121'> +1.5334989e-12 </wgt>
<wgt id='1122'> +1.6101831e-12 </wgt>
<wgt id='1123'> +1.5314969e-12 </wgt>
<wgt id='1124'> +1.5658779e-12 </wgt>
<wgt id='1125'> +1.5490835e-12 </wgt>
<wgt id='1126'> +1.5762261e-12 </wgt>
<wgt id='1127'> +1.5441355e-12 </wgt>
<wgt id='1128'> +1.5705394e-12 </wgt>
<wgt id='1129'> +1.5394380e-12 </wgt>
<wgt id='1130'> +1.5430655e-12 </wgt>
<wgt id='1131'> +1.5426379e-12 </wgt>
<wgt id='1132'> +1.5958659e-12 </wgt>
<wgt id='1133'> +1.5221774e-12 </wgt>
<wgt id='1134'> +1.5628856e-12 </wgt>
<wgt id='1135'> +1.4784015e-12 </wgt>
<wgt id='1136'> +1.5328259e-12 </wgt>
<wgt id='1137'> +1.5727953e-12 </wgt>
<wgt id='1138'> +1.5404828e-12 </wgt>
<wgt id='1139'> +1.5404429e-12 </wgt>
<wgt id='1140'> +1.5676903e-12 </wgt>
<wgt id='1141'> +1.5242540e-12 </wgt>
<wgt id='1142'> +1.5595100e-12 </wgt>
<wgt id='1143'> +1.5616801e-12 </wgt>
<wgt id='1144'> +1.5485538e-12 </wgt>
<wgt id='1145'> +1.5639287e-12 </wgt>
<wgt id='1146'> +1.5495749e-12 </wgt>
<wgt id='1147'> +1.2426260e-12 </wgt>
<wgt id='1148'> +1.2697401e-12 </wgt>
<wgt id='1149'> +1.3452453e-12 </wgt>
<wgt id='1150'> +1.2663305e-12 </wgt>
<wgt id='1151'> +1.1488298e-12 </wgt>
<wgt id='1152'> +1.4559332e-12 </wgt>
<wgt id='1153'> +1.4532334e-12 </wgt>
<wgt id='1154'> +1.4574615e-12 </wgt>
<wgt id='1155'> +1.4518622e-12 </wgt>
<wgt id='1156'> +1.4581003e-12 </wgt>
<wgt id='1157'> +1.4626129e-12 </wgt>
<wgt id='1158'> +1.4470668e-12 </wgt>
<wgt id='1159'> +1.4616344e-12 </wgt>
<wgt id='1160'> +1.4523155e-12 </wgt>
<wgt id='1161'> +1.4563621e-12 </wgt>
<wgt id='1162'> +1.4556846e-12 </wgt>
<wgt id='1163'> +1.4572861e-12 </wgt>
<wgt id='1164'> +1.4545944e-12 </wgt>
<wgt id='1165'> +1.4583297e-12 </wgt>
<wgt id='1166'> +1.4535943e-12 </wgt>
<wgt id='1167'> +1.4666779e-12 </wgt>
<wgt id='1168'> +1.4428948e-12 </wgt>
<wgt id='1169'> +1.4582227e-12 </wgt>
<wgt id='1170'> +1.4543158e-12 </wgt>
<wgt id='1171'> +1.4508048e-12 </wgt>
<wgt id='1172'> +1.4625504e-12 </wgt>
<wgt id='1173'> +1.4448199e-12 </wgt>
<wgt id='1174'> +1.4670563e-12 </wgt>
<wgt id='1175'> +1.4561996e-12 </wgt>
<wgt id='1176'> +1.4554669e-12 </wgt>
<wgt id='1177'> +1.4519984e-12 </wgt>
<wgt id='1178'> +1.4669782e-12 </wgt>
<wgt id='1179'> +1.4584133e-12 </wgt>
<wgt id='1180'> +1.4499310e-12 </wgt>
<wgt id='1181'> +1.4588289e-12 </wgt>
<wgt id='1182'> +1.4520692e-12 </wgt>
<wgt id='1183'> +1.4484105e-12 </wgt>
<wgt id='1184'> +1.4565133e-12 </wgt>
<wgt id='1185'> +1.4474960e-12 </wgt>
<wgt id='1186'> +1.4605940e-12 </wgt>
<wgt id='1187'> +1.4569917e-12 </wgt>
<wgt id='1188'> +1.4556154e-12 </wgt>
<wgt id='1189'> +1.4521643e-12 </wgt>
<wgt id='1190'> +1.4430316e-12 </wgt>
<wgt id='1191'> +1.4622373e-12 </wgt>
<wgt id='1192'> +1.4553041e-12 </wgt>
<wgt id='1193'> +1.2623598e-12 </wgt>
<wgt id='1194'> +1.2547981e-12 </wgt>
<wgt id='1195'> +1.2685173e-12 </wgt>
<wgt id='1196'> +1.2674691e-12 </wgt>
<wgt id='1197'> +1.2566309e-12 </wgt>
<wgt id='1198'> +1.2599263e-12 </wgt>
<wgt id='1199'> +1.2659773e-12 </wgt>
<wgt id='1200'> +1.2607825e-12 </wgt>
<wgt id='1201'> +1.2634637e-12 </wgt>
<wgt id='1202'> +1.2624130e-12 </wgt>
<wgt id='1203'> +1.2623458e-12 </wgt>
<wgt id='1204'> +1.2621519e-12 </wgt>
<wgt id='1205'> +1.2623958e-12 </wgt>
<wgt id='1206'> +1.2644444e-12 </wgt>
<wgt id='1207'> +1.2594921e-12 </wgt>
<wgt id='1208'> +1.2649550e-12 </wgt>
<wgt id='1209'> +1.2614809e-12 </wgt>
<wgt id='1210'> +1.2565116e-12 </wgt>
<wgt id='1211'> +1.2623215e-12 </wgt>
<wgt id='1212'> +1.2659015e-12 </wgt>
<wgt id='1213'> +1.2590833e-12 </wgt>
<wgt id='1214'> +1.2445839e-12 </wgt>
<wgt id='1215'> +1.2909844e-12 </wgt>
<wgt id='1216'> +1.2654242e-12 </wgt>
<wgt id='1217'> +1.2603355e-12 </wgt>
<wgt id='1218'> +1.2631845e-12 </wgt>
<wgt id='1219'> +1.2617129e-12 </wgt>
<wgt id='1220'> +1.2671680e-12 </wgt>
<wgt id='1221'> +1.2618145e-12 </wgt>
<wgt id='1222'> +1.2708478e-12 </wgt>
<wgt id='1223'> +1.2481247e-12 </wgt>
<wgt id='1224'> +1.2664605e-12 </wgt>
<wgt id='1225'> +1.2607698e-12 </wgt>
<wgt id='1226'> +1.2596285e-12 </wgt>
<wgt id='1227'> +1.2644042e-12 </wgt>
<wgt id='1228'> +1.2507781e-12 </wgt>
<wgt id='1229'> +1.2673901e-12 </wgt>
<wgt id='1230'> +1.2614134e-12 </wgt>
<wgt id='1231'> +1.2672357e-12 </wgt>
<wgt id='1232'> +1.2613385e-12 </wgt>
<wgt id='1233'> +1.2625638e-12 </wgt>
<wgt id='1234'> +1.2623598e-12 </wgt>
<wgt id='1235'> +1.2538307e-12 </wgt>
<wgt id='1236'> +1.2570890e-12 </wgt>
<wgt id='1237'> +1.2600103e-12 </wgt>
<wgt id='1238'> +1.2648166e-12 </wgt>
<wgt id='1239'> +1.2667480e-12 </wgt>
<wgt id='1240'> +1.2686042e-12 </wgt>
<wgt id='1241'> +1.2918597e-12 </wgt>
<wgt id='1242'> +1.2828034e-12 </wgt>
<wgt id='1243'> +1.3008379e-12 </wgt>
<wgt id='1244'> +1.2905894e-12 </wgt>
<wgt id='1245'> +1.2927425e-12 </wgt>
<wgt id='1246'> +1.2882134e-12 </wgt>
<wgt id='1247'> +1.2949422e-12 </wgt>
<wgt id='1248'> +1.2918698e-12 </wgt>
<wgt id='1249'> +1.2918948e-12 </wgt>
<wgt id='1250'> +1.2970101e-12 </wgt>
<wgt id='1251'> +1.2882355e-12 </wgt>
<wgt id='1252'> +1.2897487e-12 </wgt>
<wgt id='1253'> +1.2934969e-12 </wgt>
<wgt id='1254'> +1.2919002e-12 </wgt>
<wgt id='1255'> +1.2918350e-12 </wgt>
<wgt id='1256'> +1.2906832e-12 </wgt>
<wgt id='1257'> +1.2948080e-12 </wgt>
<wgt id='1258'> +1.3108738e-12 </wgt>
<wgt id='1259'> +1.2743298e-12 </wgt>
<wgt id='1260'> +1.2938423e-12 </wgt>
<wgt id='1261'> +1.2898716e-12 </wgt>
<wgt id='1262'> +1.2897080e-12 </wgt>
<wgt id='1263'> +1.2929628e-12 </wgt>
<wgt id='1264'> +1.2918854e-12 </wgt>
<wgt id='1265'> +1.2918661e-12 </wgt>
<wgt id='1266'> +1.2819733e-12 </wgt>
<wgt id='1267'> +1.3005218e-12 </wgt>
<wgt id='1268'> +1.2952228e-12 </wgt>
<wgt id='1269'> +1.2902382e-12 </wgt>
<wgt id='1270'> +1.2909868e-12 </wgt>
<wgt id='1271'> +1.2894811e-12 </wgt>
<wgt id='1272'> +1.2940447e-12 </wgt>
<wgt id='1273'> +1.2911817e-12 </wgt>
<wgt id='1274'> +1.2942303e-12 </wgt>
<wgt id='1275'> +1.2878833e-12 </wgt>
<wgt id='1276'> +1.3016777e-12 </wgt>
<wgt id='1277'> +1.2793548e-12 </wgt>
<wgt id='1278'> +1.2955169e-12 </wgt>
<wgt id='1279'> +1.2964404e-12 </wgt>
<wgt id='1280'> +1.2923247e-12 </wgt>
<wgt id='1281'> +1.2915181e-12 </wgt>
<wgt id='1282'> +1.2918597e-12 </wgt>
<wgt id='1283'> +1.2824205e-12 </wgt>
<wgt id='1284'> +1.2862741e-12 </wgt>
<wgt id='1285'> +1.2893361e-12 </wgt>
<wgt id='1286'> +1.2944496e-12 </wgt>
<wgt id='1287'> +1.2962688e-12 </wgt>
<wgt id='1288'> +1.2977485e-12 </wgt>
<wgt id='1289'> +1.2982984e-12 </wgt>
<wgt id='1290'> +1.3025356e-12 </wgt>
<wgt id='1291'> +1.2937397e-12 </wgt>
<wgt id='1292'> +1.2941559e-12 </wgt>
<wgt id='1293'> +1.3013441e-12 </wgt>
<wgt id='1294'> +1.2922835e-12 </wgt>
<wgt id='1295'> +1.3041756e-12 </wgt>
<wgt id='1296'> +1.2961599e-12 </wgt>
<wgt id='1297'> +1.3010120e-12 </wgt>
<wgt id='1298'> +1.2986933e-12 </wgt>
<wgt id='1299'> +1.2978168e-12 </wgt>
<wgt id='1300'> +1.3000242e-12 </wgt>
<wgt id='1301'> +1.2949863e-12 </wgt>
<wgt id='1302'> +1.2955133e-12 </wgt>
<wgt id='1303'> +1.3022031e-12 </wgt>
<wgt id='1304'> +1.2984114e-12 </wgt>
<wgt id='1305'> +1.2982246e-12 </wgt>
<wgt id='1306'> +1.3017322e-12 </wgt>
<wgt id='1307'> +1.2944456e-12 </wgt>
<wgt id='1308'> +1.3042869e-12 </wgt>
<wgt id='1309'> +1.2937180e-12 </wgt>
<wgt id='1310'> +1.2963826e-12 </wgt>
<wgt id='1311'> +1.3005129e-12 </wgt>
<wgt id='1312'> +1.3079795e-12 </wgt>
<wgt id='1313'> +1.2887789e-12 </wgt>
<wgt id='1314'> +1.2838326e-12 </wgt>
<wgt id='1315'> +1.3093109e-12 </wgt>
<wgt id='1316'> +1.3069664e-12 </wgt>
<wgt id='1317'> +1.2963431e-12 </wgt>
<wgt id='1318'> +1.3073239e-12 </wgt>
<wgt id='1319'> +1.2869644e-12 </wgt>
<wgt id='1320'> +1.3063882e-12 </wgt>
<wgt id='1321'> +1.2908750e-12 </wgt>
<wgt id='1322'> +1.2963959e-12 </wgt>
<wgt id='1323'> +1.3013294e-12 </wgt>
<wgt id='1324'> +1.2925465e-12 </wgt>
<wgt id='1325'> +1.3142733e-12 </wgt>
<wgt id='1326'> +1.2947615e-12 </wgt>
<wgt id='1327'> +1.3030754e-12 </wgt>
<wgt id='1328'> +1.2996022e-12 </wgt>
<wgt id='1329'> +1.2967666e-12 </wgt>
<wgt id='1330'> +1.2798521e-12 </wgt>
<wgt id='1331'> +1.3089643e-12 </wgt>
<wgt id='1332'> +1.3084574e-12 </wgt>
<wgt id='1333'> +1.2911472e-12 </wgt>
<wgt id='1334'> +1.2930597e-12 </wgt>
<wgt id='1335'> +1.3116496e-12 </wgt>
<wgt id='1336'> +1.3009217e-12 </wgt>
<wgt id='1337'> +1.2982400e-12 </wgt>
<wgt id='1338'> +1.2969055e-12 </wgt>
<wgt id='1339'> +1.2986708e-12 </wgt>
<wgt id='1340'> +1.2497942e-12 </wgt>
<wgt id='1341'> +1.2539172e-12 </wgt>
<wgt id='1342'> +1.2453431e-12 </wgt>
<wgt id='1343'> +1.2456076e-12 </wgt>
<wgt id='1344'> +1.2525876e-12 </wgt>
<wgt id='1345'> +1.2435897e-12 </wgt>
<wgt id='1346'> +1.2555615e-12 </wgt>
<wgt id='1347'> +1.2481559e-12 </wgt>
<wgt id='1348'> +1.2516200e-12 </wgt>
<wgt id='1349'> +1.2496494e-12 </wgt>
<wgt id='1350'> +1.2499066e-12 </wgt>
<wgt id='1351'> +1.2511136e-12 </wgt>
<wgt id='1352'> +1.2468538e-12 </wgt>
<wgt id='1353'> +1.2466440e-12 </wgt>
<wgt id='1354'> +1.2554582e-12 </wgt>
<wgt id='1355'> +1.2506560e-12 </wgt>
<wgt id='1356'> +1.2492437e-12 </wgt>
<wgt id='1357'> +1.2557812e-12 </wgt>
<wgt id='1358'> +1.2427651e-12 </wgt>
<wgt id='1359'> +1.2549890e-12 </wgt>
<wgt id='1360'> +1.2451841e-12 </wgt>
<wgt id='1361'> +1.2488343e-12 </wgt>
<wgt id='1362'> +1.2512294e-12 </wgt>
<wgt id='1363'> +1.2652734e-12 </wgt>
<wgt id='1364'> +1.2397998e-12 </wgt>
<wgt id='1365'> +1.2540339e-12 </wgt>
<wgt id='1366'> +1.2379689e-12 </wgt>
<wgt id='1367'> +1.2578595e-12 </wgt>
<wgt id='1368'> +1.2475984e-12 </wgt>
<wgt id='1369'> +1.2576487e-12 </wgt>
<wgt id='1370'> +1.2401067e-12 </wgt>
<wgt id='1371'> +1.2558815e-12 </wgt>
<wgt id='1372'> +1.2420495e-12 </wgt>
<wgt id='1373'> +1.2455730e-12 </wgt>
<wgt id='1374'> +1.2542281e-12 </wgt>
<wgt id='1375'> +1.2446100e-12 </wgt>
<wgt id='1376'> +1.2652151e-12 </wgt>
<wgt id='1377'> +1.2462372e-12 </wgt>
<wgt id='1378'> +1.2546165e-12 </wgt>
<wgt id='1379'> +1.2507519e-12 </wgt>
<wgt id='1380'> +1.2483530e-12 </wgt>
<wgt id='1381'> +1.2296775e-12 </wgt>
<wgt id='1382'> +1.2603572e-12 </wgt>
<wgt id='1383'> +1.2605090e-12 </wgt>
<wgt id='1384'> +1.2408056e-12 </wgt>
<wgt id='1385'> +1.2443469e-12 </wgt>
<wgt id='1386'> +1.2625983e-12 </wgt>
<wgt id='1387'> +1.2524815e-12 </wgt>
<wgt id='1388'> +1.2479980e-12 </wgt>
<wgt id='1389'> +1.2483844e-12 </wgt>
<wgt id='1390'> +1.2501365e-12 </wgt>
<wgt id='1391'> +1.2493476e-12 </wgt>
<wgt id='1392'> +1.1823615e-12 </wgt>
<wgt id='1393'> +1.2037220e-12 </wgt>
<wgt id='1394'> +1.2262315e-12 </wgt>
<wgt id='1395'> +1.2700988e-12 </wgt>
<wgt id='1396'> +1.2489914e-12 </wgt>
<wgt id='1397'> +1.2274270e-12 </wgt>
<wgt id='1398'> +1.2318991e-12 </wgt>
<wgt id='1399'> +1.2357256e-12 </wgt>
<wgt id='1400'> +1.2396299e-12 </wgt>
<wgt id='1401'> +1.2443231e-12 </wgt>
<wgt id='1402'> +1.2521900e-12 </wgt>
<wgt id='1403'> +1.2560980e-12 </wgt>
<wgt id='1404'> +1.2593748e-12 </wgt>
<wgt id='1405'> +1.2489914e-12 </wgt>
<wgt id='1406'> +1.2451193e-12 </wgt>
<wgt id='1407'> +1.2472918e-12 </wgt>
<wgt id='1408'> +1.2506691e-12 </wgt>
<wgt id='1409'> +1.2518258e-12 </wgt>
<wgt id='1410'> +1.2915663e-12 </wgt>
<wgt id='1411'> +1.2950053e-12 </wgt>
<wgt id='1412'> +1.2870964e-12 </wgt>
<wgt id='1413'> +1.2925900e-12 </wgt>
<wgt id='1414'> +1.2905639e-12 </wgt>
<wgt id='1415'> +1.2853035e-12 </wgt>
<wgt id='1416'> +1.2940563e-12 </wgt>
<wgt id='1417'> +1.2837753e-12 </wgt>
<wgt id='1418'> +1.2993481e-12 </wgt>
<wgt id='1419'> +1.2902815e-12 </wgt>
<wgt id='1420'> +1.2927794e-12 </wgt>
<wgt id='1421'> +1.2887202e-12 </wgt>
<wgt id='1422'> +1.2927618e-12 </wgt>
<wgt id='1423'> +1.2903389e-12 </wgt>
<wgt id='1424'> +1.2930296e-12 </wgt>
<wgt id='1425'> +1.2875781e-12 </wgt>
<wgt id='1426'> +1.2958778e-12 </wgt>
<wgt id='1427'> +1.2926275e-12 </wgt>
<wgt id='1428'> +1.2906304e-12 </wgt>
<wgt id='1429'> +1.2905610e-12 </wgt>
<wgt id='1430'> +1.2926671e-12 </wgt>
<wgt id='1431'> +1.2971596e-12 </wgt>
<wgt id='1432'> +1.2875068e-12 </wgt>
<wgt id='1433'> +1.2847592e-12 </wgt>
<wgt id='1434'> +1.2960886e-12 </wgt>
<wgt id='1435'> +1.2842697e-12 </wgt>
<wgt id='1436'> +1.3094825e-12 </wgt>
<wgt id='1437'> +1.2985660e-12 </wgt>
<wgt id='1438'> +1.2908781e-12 </wgt>
<wgt id='1439'> +1.2863350e-12 </wgt>
<wgt id='1440'> +1.3017956e-12 </wgt>
<wgt id='1441'> +1.2923243e-12 </wgt>
<wgt id='1442'> +1.2905668e-12 </wgt>
<wgt id='1443'> +1.2882129e-12 </wgt>
<wgt id='1444'> +1.3002014e-12 </wgt>
<wgt id='1445'> +1.3118174e-12 </wgt>
<wgt id='1446'> +1.2838080e-12 </wgt>
<wgt id='1447'> +1.2918939e-12 </wgt>
<wgt id='1448'> +1.2939344e-12 </wgt>
<wgt id='1449'> +1.2933716e-12 </wgt>
<wgt id='1450'> +1.2897212e-12 </wgt>
<wgt id='1451'> +1.3012922e-12 </wgt>
<wgt id='1452'> +1.2687147e-12 </wgt>
<wgt id='1453'> +1.2936344e-12 </wgt>
<wgt id='1454'> +1.2767555e-12 </wgt>
<wgt id='1455'> +1.2866432e-12 </wgt>
<wgt id='1456'> +1.2996434e-12 </wgt>
<wgt id='1457'> +1.3024096e-12 </wgt>
<wgt id='1458'> +1.2874741e-12 </wgt>
<wgt id='1459'> +1.2960804e-12 </wgt>
<wgt id='1460'> +1.2922694e-12 </wgt>
<wgt id='1461'> +1.2915663e-12 </wgt>
<wgt id='1462'> +1.2678888e-12 </wgt>
<wgt id='1463'> +1.3140313e-12 </wgt>
<wgt id='1464'> +1.2907639e-12 </wgt>
<wgt id='1465'> +1.2686766e-12 </wgt>
<wgt id='1466'> +1.2736804e-12 </wgt>
<wgt id='1467'> +1.2788006e-12 </wgt>
<wgt id='1468'> +1.2823248e-12 </wgt>
<wgt id='1469'> +1.2867410e-12 </wgt>
<wgt id='1470'> +1.2946851e-12 </wgt>
<wgt id='1471'> +1.2978453e-12 </wgt>
<wgt id='1472'> +1.3015085e-12 </wgt>
<wgt id='1473'> +1.2907639e-12 </wgt>
<wgt id='1474'> +1.2860532e-12 </wgt>
<wgt id='1475'> +1.2877463e-12 </wgt>
<wgt id='1476'> +1.2927477e-12 </wgt>
<wgt id='1477'> +1.2948797e-12 </wgt>
<wgt id='1478'> +1.2220889e-12 </wgt>
<wgt id='1479'> +1.2206026e-12 </wgt>
<wgt id='1480'> +1.2142565e-12 </wgt>
<wgt id='1481'> +1.2274742e-12 </wgt>
<wgt id='1482'> +1.2182480e-12 </wgt>
<wgt id='1483'> +1.1950025e-12 </wgt>
<wgt id='1484'> +1.2154139e-12 </wgt>
<wgt id='1485'> +1.2161874e-12 </wgt>
<wgt id='1486'> +1.2232083e-12 </wgt>
<wgt id='1487'> +1.2334145e-12 </wgt>
<wgt id='1488'> +1.2198903e-12 </wgt>
<wgt id='1489'> +1.2285406e-12 </wgt>
<wgt id='1490'> +1.2164351e-12 </wgt>
<wgt id='1491'> +1.2216533e-12 </wgt>
<wgt id='1492'> +1.2264063e-12 </wgt>
<wgt id='1493'> +1.2113124e-12 </wgt>
<wgt id='1494'> +1.2411791e-12 </wgt>
<wgt id='1495'> +1.1963975e-12 </wgt>
<wgt id='1496'> +1.2205881e-12 </wgt>
<wgt id='1497'> +1.2201214e-12 </wgt>
<wgt id='1498'> +1.2224986e-12 </wgt>
<wgt id='1499'> +1.2226304e-12 </wgt>
<wgt id='1500'> +1.2250849e-12 </wgt>
<wgt id='1501'> +1.2214863e-12 </wgt>
<wgt id='1502'> +1.2194840e-12 </wgt>
<wgt id='1503'> +1.2264434e-12 </wgt>
<wgt id='1504'> +1.2181510e-12 </wgt>
<wgt id='1505'> +1.2244425e-12 </wgt>
<wgt id='1506'> +1.2203132e-12 </wgt>
<wgt id='1507'> +1.2221101e-12 </wgt>
<wgt id='1508'> +1.2251376e-12 </wgt>
<wgt id='1509'> +1.3610832e-12 </wgt>
<wgt id='1510'> +1.3603300e-12 </wgt>
<wgt id='1511'> +1.3614568e-12 </wgt>
<wgt id='1512'> +1.3595419e-12 </wgt>
<wgt id='1513'> +1.3698514e-12 </wgt>
<wgt id='1514'> +1.3627543e-12 </wgt>
<wgt id='1515'> +1.3596961e-12 </wgt>
<wgt id='1516'> +1.3625256e-12 </wgt>
<wgt id='1517'> +1.3600792e-12 </wgt>
<wgt id='1518'> +1.3679609e-12 </wgt>
<wgt id='1519'> +1.3563743e-12 </wgt>
<wgt id='1520'> +1.3592844e-12 </wgt>
<wgt id='1521'> +1.3656139e-12 </wgt>
<wgt id='1522'> +1.3604548e-12 </wgt>
<wgt id='1523'> +1.3677982e-12 </wgt>
<wgt id='1524'> +1.3591779e-12 </wgt>
<wgt id='1525'> +1.3643815e-12 </wgt>
<wgt id='1526'> +1.3588156e-12 </wgt>
<wgt id='1527'> +1.3602389e-12 </wgt>
<wgt id='1528'> +1.3669949e-12 </wgt>
<wgt id='1529'> +1.3624080e-12 </wgt>
<wgt id='1530'> +1.3689063e-12 </wgt>
<wgt id='1531'> +1.3622900e-12 </wgt>
<wgt id='1532'> +1.3580975e-12 </wgt>
<wgt id='1533'> +1.3594996e-12 </wgt>
<wgt id='1534'> +1.3644522e-12 </wgt>
<wgt id='1535'> +1.3488255e-12 </wgt>
<wgt id='1536'> +1.3585957e-12 </wgt>
<wgt id='1537'> +1.3618157e-12 </wgt>
<wgt id='1538'> +1.3519151e-12 </wgt>
<wgt id='1539'> +1.3658696e-12 </wgt>
<wgt id='1540'> +1.3620293e-12 </wgt>
<wgt id='1541'> +1.3575659e-12 </wgt>
<wgt id='1542'> +1.3599747e-12 </wgt>
<wgt id='1543'> +1.3615667e-12 </wgt>
<wgt id='1544'> +1.3600257e-12 </wgt>
<wgt id='1545'> +1.3590678e-12 </wgt>
<wgt id='1546'> +1.3590793e-12 </wgt>
<wgt id='1547'> +1.3605286e-12 </wgt>
<wgt id='1548'> +1.3608298e-12 </wgt>
<wgt id='1549'> +1.3583931e-12 </wgt>
<wgt id='1550'> +1.3617978e-12 </wgt>
<wgt id='1551'> +1.3617887e-12 </wgt>
<wgt id='1552'> +1.3630523e-12 </wgt>
<wgt id='1553'> +1.3592359e-12 </wgt>
<wgt id='1554'> +1.3597076e-12 </wgt>
<wgt id='1555'> +1.3621116e-12 </wgt>
<wgt id='1556'> +1.3647428e-12 </wgt>
<wgt id='1557'> +1.3597683e-12 </wgt>
<wgt id='1558'> +1.3591350e-12 </wgt>
<wgt id='1559'> +1.3580541e-12 </wgt>
<wgt id='1560'> +1.3604002e-12 </wgt>
<wgt id='1561'> +1.3610031e-12 </wgt>
<wgt id='1562'> +1.3613811e-12 </wgt>
<wgt id='1563'> +1.3607949e-12 </wgt>
<wgt id='1564'> +1.3615369e-12 </wgt>
<wgt id='1565'> +1.3619253e-12 </wgt>
<wgt id='1566'> +1.3616340e-12 </wgt>
<wgt id='1567'> +1.3634029e-12 </wgt>
<wgt id='1568'> +1.3596210e-12 </wgt>
<wgt id='1569'> +1.3618035e-12 </wgt>
<wgt id='1570'> +1.3625308e-12 </wgt>
<wgt id='1571'> +1.3604694e-12 </wgt>
<wgt id='1572'> +1.3618031e-12 </wgt>
<wgt id='1573'> +1.3614377e-12 </wgt>
<wgt id='1574'> +1.3621456e-12 </wgt>
<wgt id='1575'> +1.3598902e-12 </wgt>
<wgt id='1576'> +1.3611002e-12 </wgt>
<wgt id='1577'> +1.3610692e-12 </wgt>
<wgt id='1578'> +1.3623470e-12 </wgt>
<wgt id='1579'> +1.3602981e-12 </wgt>
<wgt id='1580'> +1.3602508e-12 </wgt>
<wgt id='1581'> +1.3608865e-12 </wgt>
<wgt id='1582'> +1.3635941e-12 </wgt>
<wgt id='1583'> +1.3607545e-12 </wgt>
<wgt id='1584'> +1.3621587e-12 </wgt>
<wgt id='1585'> +1.3615833e-12 </wgt>
<wgt id='1586'> +1.3603691e-12 </wgt>
<wgt id='1587'> +1.3610339e-12 </wgt>
<wgt id='1588'> +1.3606022e-12 </wgt>
<wgt id='1589'> +1.3614821e-12 </wgt>
<wgt id='1590'> +1.3616116e-12 </wgt>
<wgt id='1591'> +1.3614553e-12 </wgt>
<wgt id='1592'> +1.3614078e-12 </wgt>
<wgt id='1593'> +1.3620832e-12 </wgt>
<wgt id='1594'> +1.3608792e-12 </wgt>
<wgt id='1595'> +1.3616182e-12 </wgt>
<wgt id='1596'> +1.3602621e-12 </wgt>
<wgt id='1597'> +1.3622389e-12 </wgt>
<wgt id='1598'> +1.3600597e-12 </wgt>
<wgt id='1599'> +1.3594973e-12 </wgt>
<wgt id='1600'> +1.3600838e-12 </wgt>
<wgt id='1601'> +1.3611129e-12 </wgt>
<wgt id='1602'> +1.3620994e-12 </wgt>
<wgt id='1603'> +1.3607998e-12 </wgt>
<wgt id='1604'> +1.3610287e-12 </wgt>
<wgt id='1605'> +1.3608167e-12 </wgt>
<wgt id='1606'> +1.3607512e-12 </wgt>
<wgt id='1607'> +1.3600600e-12 </wgt>
<wgt id='1608'> +1.3608440e-12 </wgt>
<wgt id='1609'> +1.3612366e-12 </wgt>
<wgt id='1610'> +1.3217771e-12 </wgt>
<wgt id='1611'> +1.4015952e-12 </wgt>
<wgt id='1612'> +1.4876208e-12 </wgt>
<wgt id='1613'> +1.4629463e-12 </wgt>
<wgt id='1614'> +1.4933961e-12 </wgt>
<wgt id='1615'> +1.4681845e-12 </wgt>
<wgt id='1616'> +1.4983427e-12 </wgt>
<wgt id='1617'> +1.5267761e-12 </wgt>
<wgt id='1618'> +1.4866193e-12 </wgt>
<wgt id='1619'> +1.5141176e-12 </wgt>
<wgt id='1620'> +1.4522455e-12 </wgt>
<wgt id='1621'> +1.4886047e-12 </wgt>
<wgt id='1622'> +1.4762111e-12 </wgt>
<wgt id='1623'> +1.4706741e-12 </wgt>
<wgt id='1624'> +1.4769491e-12 </wgt>
<wgt id='1625'> +1.4515363e-12 </wgt>
<wgt id='1626'> +1.4693816e-12 </wgt>
<wgt id='1627'> +1.4709562e-12 </wgt>
<wgt id='1628'> +1.4293807e-12 </wgt>
<wgt id='1629'> +1.5245085e-12 </wgt>
<wgt id='1630'> +1.4839376e-12 </wgt>
<wgt id='1631'> +1.4802682e-12 </wgt>
<wgt id='1632'> +1.4009506e-12 </wgt>
<wgt id='1633'> +1.4449318e-12 </wgt>
<wgt id='1634'> +1.5311588e-12 </wgt>
<wgt id='1635'> +1.5232079e-12 </wgt>
<wgt id='1636'> +1.5334363e-12 </wgt>
<wgt id='1637'> +1.5022974e-12 </wgt>
<wgt id='1638'> +1.4892206e-12 </wgt>
<wgt id='1639'> +1.4676192e-12 </wgt>
<wgt id='1640'> +1.4968015e-12 </wgt>
<wgt id='1641'> +1.4837677e-12 </wgt>
<wgt id='1642'> +1.4625982e-12 </wgt>
<wgt id='1643'> +1.4989761e-12 </wgt>
<wgt id='1644'> +1.4689580e-12 </wgt>
<wgt id='1645'> +1.4741057e-12 </wgt>
<wgt id='1646'> +1.4876242e-12 </wgt>
<wgt id='1647'> +1.4780994e-12 </wgt>
<wgt id='1648'> +1.5266343e-12 </wgt>
<wgt id='1649'> +1.5383322e-12 </wgt>
<wgt id='1650'> +1.4756701e-12 </wgt>
<wgt id='1651'> +1.4632021e-12 </wgt>
<wgt id='1652'> +1.4597035e-12 </wgt>
<wgt id='1653'> +1.5195666e-12 </wgt>
<wgt id='1654'> +1.4660626e-12 </wgt>
<wgt id='1655'> +1.4708370e-12 </wgt>
<wgt id='1656'> +1.4597669e-12 </wgt>
<wgt id='1657'> +1.4602215e-12 </wgt>
<wgt id='1658'> +1.4356268e-12 </wgt>
<wgt id='1659'> +1.4769491e-12 </wgt>
<wgt id='1660'> +1.5057572e-12 </wgt>
<wgt id='1661'> +1.5201343e-12 </wgt>
<wgt id='1662'> +1.5400102e-12 </wgt>
<wgt id='1663'> +1.5061229e-12 </wgt>
<wgt id='1664'> +1.4475987e-12 </wgt>
<wgt id='1665'> +1.4136613e-12 </wgt>
<wgt id='1666'> +1.5301601e-12 </wgt>
<wgt id='1667'> +1.4670916e-12 </wgt>
<wgt id='1668'> +1.5275886e-12 </wgt>
<wgt id='1669'> +1.4470990e-12 </wgt>
<wgt id='1670'> +1.5145117e-12 </wgt>
<wgt id='1671'> +1.4884823e-12 </wgt>
<wgt id='1672'> +1.4912736e-12 </wgt>
<wgt id='1673'> +1.4705375e-12 </wgt>
<wgt id='1674'> +1.4362549e-12 </wgt>
<wgt id='1675'> +1.5015553e-12 </wgt>
<wgt id='1676'> +1.5007022e-12 </wgt>
<wgt id='1677'> +1.5934067e-12 </wgt>
<wgt id='1678'> +1.4700107e-12 </wgt>
<wgt id='1679'> +1.4932873e-12 </wgt>
<wgt id='1680'> +1.5105141e-12 </wgt>
<wgt id='1681'> +1.5121798e-12 </wgt>
<wgt id='1682'> +1.5007399e-12 </wgt>
<wgt id='1683'> +1.4453700e-12 </wgt>
<wgt id='1684'> +1.5046744e-12 </wgt>
<wgt id='1685'> +1.4520345e-12 </wgt>
<wgt id='1686'> +1.4927693e-12 </wgt>
<wgt id='1687'> +1.5306305e-12 </wgt>
<wgt id='1688'> +1.4826395e-12 </wgt>
<wgt id='1689'> +1.4979400e-12 </wgt>
<wgt id='1690'> +1.4822564e-12 </wgt>
<wgt id='1691'> +1.4984759e-12 </wgt>
<wgt id='1692'> +1.5439869e-12 </wgt>
<wgt id='1693'> +1.5309916e-12 </wgt>
<wgt id='1694'> +1.4752764e-12 </wgt>
<wgt id='1695'> +1.5392998e-12 </wgt>
<wgt id='1696'> +1.5013536e-12 </wgt>
<wgt id='1697'> +1.4714671e-12 </wgt>
<wgt id='1698'> +1.4778114e-12 </wgt>
<wgt id='1699'> +1.4867414e-12 </wgt>
<wgt id='1700'> +1.4790859e-12 </wgt>
<wgt id='1701'> +1.5286232e-12 </wgt>
<wgt id='1702'> +1.4861865e-12 </wgt>
<wgt id='1703'> +1.5094651e-12 </wgt>
<wgt id='1704'> +1.4723743e-12 </wgt>
<wgt id='1705'> +1.4162677e-12 </wgt>
<wgt id='1706'> +1.5009559e-12 </wgt>
<wgt id='1707'> +1.4932245e-12 </wgt>
<wgt id='1708'> +1.4844785e-12 </wgt>
<wgt id='1709'> +1.4861353e-12 </wgt>
<wgt id='1710'> +1.4843925e-12 </wgt>
<wgt id='1711'> +1.5260887e-12 </wgt>
<wgt id='1712'> +1.4790412e-12 </wgt>
<wgt id='1713'> +1.1979524e-12 </wgt>
<wgt id='1714'> +1.1905847e-12 </wgt>
<wgt id='1715'> +1.2042618e-12 </wgt>
<wgt id='1716'> +1.2371749e-12 </wgt>
<wgt id='1717'> +1.2201404e-12 </wgt>
<wgt id='1718'> +1.2325068e-12 </wgt>
<wgt id='1719'> +1.2132726e-12 </wgt>
<wgt id='1720'> +1.1886388e-12 </wgt>
<wgt id='1721'> +1.1653957e-12 </wgt>
<wgt id='1722'> +1.1793719e-12 </wgt>
<wgt id='1723'> +1.1995452e-12 </wgt>
<wgt id='1724'> +1.1110409e-12 </wgt>
<wgt id='1725'> +1.2210767e-12 </wgt>
<wgt id='1726'> +1.2422766e-12 </wgt>
<wgt id='1727'> +1.2071513e-12 </wgt>
<wgt id='1728'> +1.1896201e-12 </wgt>
<wgt id='1729'> +1.1596352e-12 </wgt>
<wgt id='1730'> +1.1895037e-12 </wgt>
<wgt id='1731'> +1.1375835e-12 </wgt>
<wgt id='1732'> +1.2111634e-12 </wgt>
<wgt id='1733'> +1.1567547e-12 </wgt>
<wgt id='1734'> +1.2469117e-12 </wgt>
<wgt id='1735'> +1.1508909e-12 </wgt>
<wgt id='1736'> +1.2384039e-12 </wgt>
<wgt id='1737'> +1.2423208e-12 </wgt>
<wgt id='1738'> +1.1956396e-12 </wgt>
<wgt id='1739'> +1.2125126e-12 </wgt>
<wgt id='1740'> +1.1523447e-12 </wgt>
<wgt id='1741'> +1.2205468e-12 </wgt>
<wgt id='1742'> +1.1820473e-12 </wgt>
<wgt id='1743'> +1.1884510e-12 </wgt>
<wgt id='1744'> +1.2375872e-12 </wgt>
<wgt id='1745'> +1.1570412e-12 </wgt>
<wgt id='1746'> +1.2130274e-12 </wgt>
<wgt id='1747'> +1.2411899e-12 </wgt>
<wgt id='1748'> +1.1834607e-12 </wgt>
<wgt id='1749'> +1.1927518e-12 </wgt>
<wgt id='1750'> +1.1741101e-12 </wgt>
<wgt id='1751'> +1.1293606e-12 </wgt>
<wgt id='1752'> +1.2002712e-12 </wgt>
<wgt id='1753'> +1.2067103e-12 </wgt>
<wgt id='1754'> +1.2390822e-12 </wgt>
<wgt id='1755'> +1.2148337e-12 </wgt>
<wgt id='1756'> +1.1994085e-12 </wgt>
<wgt id='1757'> +1.1877678e-12 </wgt>
<wgt id='1758'> +1.2309821e-12 </wgt>
<wgt id='1759'> +1.2169967e-12 </wgt>
<wgt id='1760'> +1.1804287e-12 </wgt>
<wgt id='1761'> +1.2019915e-12 </wgt>
<wgt id='1762'> +1.2074125e-12 </wgt>
<wgt id='1763'> +1.2236207e-12 </wgt>
<wgt id='1764'> +1.2089785e-12 </wgt>
<wgt id='1765'> +1.1848017e-12 </wgt>
<wgt id='1766'> +1.2284905e-12 </wgt>
<wgt id='1767'> +1.2147390e-12 </wgt>
<wgt id='1768'> +1.2062787e-12 </wgt>
<wgt id='1769'> +1.1941829e-12 </wgt>
<wgt id='1770'> +1.2132529e-12 </wgt>
<wgt id='1771'> +1.2205437e-12 </wgt>
<wgt id='1772'> +1.2169687e-12 </wgt>
<wgt id='1773'> +1.1921657e-12 </wgt>
<wgt id='1774'> +1.1942191e-12 </wgt>
<wgt id='1775'> +1.1924068e-12 </wgt>
<wgt id='1776'> +1.2617977e-12 </wgt>
<wgt id='1777'> +1.1180693e-12 </wgt>
<wgt id='1778'> +1.1978121e-12 </wgt>
<wgt id='1779'> +1.2023787e-12 </wgt>
<wgt id='1780'> +1.1649419e-12 </wgt>
<wgt id='1781'> +1.2229866e-12 </wgt>
<wgt id='1782'> +1.1811012e-12 </wgt>
<wgt id='1783'> +1.1822897e-12 </wgt>
<wgt id='1784'> +1.2056299e-12 </wgt>
<wgt id='1785'> +1.1793808e-12 </wgt>
<wgt id='1786'> +1.1777119e-12 </wgt>
<wgt id='1787'> +1.2509615e-12 </wgt>
<wgt id='1788'> +1.2064652e-12 </wgt>
<wgt id='1789'> +1.1529905e-12 </wgt>
<wgt id='1790'> +1.1876544e-12 </wgt>
<wgt id='1791'> +1.1961974e-12 </wgt>
<wgt id='1792'> +1.1637397e-12 </wgt>
<wgt id='1793'> +1.1913172e-12 </wgt>
<wgt id='1794'> +1.2280355e-12 </wgt>
<wgt id='1795'> +1.2427793e-12 </wgt>
<wgt id='1796'> +1.1640583e-12 </wgt>
<wgt id='1797'> +1.2065135e-12 </wgt>
<wgt id='1798'> +1.1907131e-12 </wgt>
<wgt id='1799'> +1.1939590e-12 </wgt>
<wgt id='1800'> +1.2157523e-12 </wgt>
<wgt id='1801'> +1.2096918e-12 </wgt>
<wgt id='1802'> +1.1670736e-12 </wgt>
<wgt id='1803'> +1.2283099e-12 </wgt>
<wgt id='1804'> +1.1921304e-12 </wgt>
<wgt id='1805'> +1.1637055e-12 </wgt>
<wgt id='1806'> +1.1732450e-12 </wgt>
<wgt id='1807'> +1.2064404e-12 </wgt>
<wgt id='1808'> +1.1720512e-12 </wgt>
<wgt id='1809'> +1.1984622e-12 </wgt>
<wgt id='1810'> +1.2095568e-12 </wgt>
<wgt id='1811'> +1.2351341e-12 </wgt>
<wgt id='1812'> +1.2025638e-12 </wgt>
<wgt id='1813'> +1.1624689e-12 </wgt>
<wgt id='1814'> +1.1115841e-12 </wgt>
<wgt id='1815'> +1.3730127e-12 </wgt>
<wgt id='1816'> +1.1979524e-12 </wgt>
<wgt id='1817'> +1.1905847e-12 </wgt>
<wgt id='1818'> +1.2042618e-12 </wgt>
<wgt id='1819'> +1.2371749e-12 </wgt>
<wgt id='1820'> +1.2201404e-12 </wgt>
<wgt id='1821'> +1.2325068e-12 </wgt>
<wgt id='1822'> +1.2132726e-12 </wgt>
<wgt id='1823'> +1.1886388e-12 </wgt>
<wgt id='1824'> +1.1653957e-12 </wgt>
<wgt id='1825'> +1.1793719e-12 </wgt>
<wgt id='1826'> +1.1995452e-12 </wgt>
<wgt id='1827'> +1.1110409e-12 </wgt>
<wgt id='1828'> +1.2210767e-12 </wgt>
<wgt id='1829'> +1.2422766e-12 </wgt>
<wgt id='1830'> +1.2071513e-12 </wgt>
<wgt id='1831'> +1.1896201e-12 </wgt>
<wgt id='1832'> +1.1596352e-12 </wgt>
<wgt id='1833'> +1.1895037e-12 </wgt>
<wgt id='1834'> +1.1375835e-12 </wgt>
<wgt id='1835'> +1.2111634e-12 </wgt>
<wgt id='1836'> +1.1567547e-12 </wgt>
<wgt id='1837'> +1.2469117e-12 </wgt>
<wgt id='1838'> +1.1508909e-12 </wgt>
<wgt id='1839'> +1.2384039e-12 </wgt>
<wgt id='1840'> +1.2423208e-12 </wgt>
<wgt id='1841'> +1.1956396e-12 </wgt>
<wgt id='1842'> +1.2125126e-12 </wgt>
<wgt id='1843'> +1.1523447e-12 </wgt>
<wgt id='1844'> +1.2205468e-12 </wgt>
<wgt id='1845'> +1.1820473e-12 </wgt>
<wgt id='1846'> +1.1884510e-12 </wgt>
<wgt id='1847'> +1.2375872e-12 </wgt>
<wgt id='1848'> +1.1570412e-12 </wgt>
<wgt id='1849'> +1.2130274e-12 </wgt>
<wgt id='1850'> +1.2411899e-12 </wgt>
<wgt id='1851'> +1.1834607e-12 </wgt>
<wgt id='1852'> +1.1927518e-12 </wgt>
<wgt id='1853'> +1.1741101e-12 </wgt>
<wgt id='1854'> +1.1293606e-12 </wgt>
<wgt id='1855'> +1.2002712e-12 </wgt>
<wgt id='1856'> +1.2067103e-12 </wgt>
<wgt id='1857'> +1.2390822e-12 </wgt>
<wgt id='1858'> +1.2148337e-12 </wgt>
<wgt id='1859'> +1.1994085e-12 </wgt>
<wgt id='1860'> +1.1877678e-12 </wgt>
<wgt id='1861'> +1.2309821e-12 </wgt>
<wgt id='1862'> +1.2169967e-12 </wgt>
<wgt id='1863'> +1.1804287e-12 </wgt>
<wgt id='1864'> +1.2019915e-12 </wgt>
<wgt id='1865'> +1.2074125e-12 </wgt>
<wgt id='1866'> +1.2236207e-12 </wgt>
<wgt id='1867'> +1.2089785e-12 </wgt>
<wgt id='1868'> +1.1848017e-12 </wgt>
<wgt id='1869'> +1.2284905e-12 </wgt>
<wgt id='1870'> +1.2147390e-12 </wgt>
<wgt id='1871'> +1.2062787e-12 </wgt>
<wgt id='1872'> +1.1941829e-12 </wgt>
<wgt id='1873'> +1.2132529e-12 </wgt>
<wgt id='1874'> +1.2205437e-12 </wgt>
<wgt id='1875'> +1.2169687e-12 </wgt>
<wgt id='1876'> +1.1921657e-12 </wgt>
<wgt id='1877'> +1.1942191e-12 </wgt>
<wgt id='1878'> +1.1924068e-12 </wgt>
<wgt id='1879'> +1.2617977e-12 </wgt>
<wgt id='1880'> +1.1180693e-12 </wgt>
<wgt id='1881'> +1.1978121e-12 </wgt>
<wgt id='1882'> +1.2023787e-12 </wgt>
<wgt id='1883'> +1.1649419e-12 </wgt>
<wgt id='1884'> +1.2229866e-12 </wgt>
<wgt id='1885'> +1.1811012e-12 </wgt>
<wgt id='1886'> +1.1822897e-12 </wgt>
<wgt id='1887'> +1.2056299e-12 </wgt>
<wgt id='1888'> +1.1793808e-12 </wgt>
<wgt id='1889'> +1.1777119e-12 </wgt>
<wgt id='1890'> +1.2509615e-12 </wgt>
<wgt id='1891'> +1.2064652e-12 </wgt>
<wgt id='1892'> +1.1529905e-12 </wgt>
<wgt id='1893'> +1.1876544e-12 </wgt>
<wgt id='1894'> +1.1961974e-12 </wgt>
<wgt id='1895'> +1.1637397e-12 </wgt>
<wgt id='1896'> +1.1913172e-12 </wgt>
<wgt id='1897'> +1.2280355e-12 </wgt>
<wgt id='1898'> +1.2427793e-12 </wgt>
<wgt id='1899'> +1.1640583e-12 </wgt>
<wgt id='1900'> +1.2065135e-12 </wgt>
<wgt id='1901'> +1.1907131e-12 </wgt>
<wgt id='1902'> +1.1939590e-12 </wgt>
<wgt id='1903'> +1.2157523e-12 </wgt>
<wgt id='1904'> +1.2096918e-12 </wgt>
<wgt id='1905'> +1.1670736e-12 </wgt>
<wgt id='1906'> +1.2283099e-12 </wgt>
<wgt id='1907'> +1.1921304e-12 </wgt>
<wgt id='1908'> +1.1637055e-12 </wgt>
<wgt id='1909'> +1.1732450e-12 </wgt>
<wgt id='1910'> +1.2064404e-12 </wgt>
<wgt id='1911'> +1.1720512e-12 </wgt>
<wgt id='1912'> +1.1984622e-12 </wgt>
<wgt id='1913'> +1.2095568e-12 </wgt>
<wgt id='1914'> +1.2351341e-12 </wgt>
<wgt id='1915'> +1.2025638e-12 </wgt>
<wgt id='1916'> +1.1624689e-12 </wgt>
<wgt id='1917'> +1.1808298e-12 </wgt>
<wgt id='1918'> +1.2155546e-12 </wgt>
<wgt id='1919'> +1.2496982e-12 </wgt>
</rwgt>
</event>
<event>
 9      1 +1.5607000e-12 2.74554800e+01 7.81860800e-03 1.47677700e-01
        2 -1    0    0  502    0 -0.0000000000e+00 +0.0000000000e+00 +7.6237239831e+02 7.6237239831e+02 0.0000000000e+00 0.0000e+00 1.0000e+00
       21 -1    0    0  501  502 +0.0000000000e+00 -0.0000000000e+00 -3.1474681786e+00 3.1474681786e+00 0.0000000000e+00 0.0000e+00 1.0000e+00
     1023  2    1    2    0    0 +1.1923943838e+01 +1.9656615927e+01 +7.1629838246e+02 7.1682436894e+02 1.5008004769e+01 0.0000e+00 0.0000e+00
  1000023  2    3    3    0    0 +6.5747215315e+00 +5.4319644078e+00 +1.7864815998e+02 1.7893616809e+02 5.5003621142e+00 0.0000e+00 0.0000e+00
        2  1    1    2  501    0 -1.1923943838e+01 -1.9656615927e+01 +4.2926547669e+01 4.8695497545e+01 0.0000000000e+00 0.0000e+00 1.0000e+00
  1000022  1    4    4    0    0 +5.9271975199e+00 +4.5623719409e+00 +1.5358718266e+02 1.5385047801e+02 5.0000000000e+00 0.0000e+00 1.0000e+00
      -11  1    4    4    0    0 +4.5460378838e-03 +1.3545426870e-01 +3.5528301629e+00 3.5554143153e+00 5.1100000000e-04 0.0000e+00 1.0000e+00
       11  1    4    4    0    0 +6.4297797373e-01 +7.3413819820e-01 +2.1508147164e+01 2.1530275759e+01 5.1100000000e-04 0.0000e+00 -1.0000e+00
  1000022  1    3    3    0    0 +5.3492223062e+00 +1.4224651519e+01 +5.3765022248e+02 5.3788820086e+02 5.0000000000e+00 0.0000e+00 1.0000e+00
<mgrwt>
<rscale>  1 0.27455477E+02</rscale>
<asrwt>0</asrwt>
<pdfrwt beam="1">  1       21 0.48422648E-03 0.27455477E+02</pdfrwt>
<pdfrwt beam="2">  1        2 0.11728791E+00 0.27455477E+02</pdfrwt>
<totfact> 0.36828037E+06</totfact>
</mgrwt>
<rwgt>
<wgt id='1001'> +1.5607000e-12 </wgt>
<wgt id='1002'> +1.5968932e-12 </wgt>
<wgt id='1003'> +1.5986965e-12 </wgt>
<wgt id='1004'> +1.5487672e-12 </wgt>
<wgt id='1005'> +1.6050742e-12 </wgt>
<wgt id='1006'> +1.3622608e-12 </wgt>
<wgt id='1007'> +1.4130275e-12 </wgt>
<wgt id='1008'> +1.4161872e-12 </wgt>
<wgt id='1009'> +1.3474025e-12 </wgt>
<wgt id='1010'> +1.4415700e-12 </wgt>
<wgt id='1011'> +1.8302549e-12 </wgt>
<wgt id='1012'> +1.8382219e-12 </wgt>
<wgt id='1013'> +1.8376162e-12 </wgt>
<wgt id='1014'> +1.8245588e-12 </wgt>
<wgt id='1015'> +1.8120202e-12 </wgt>
<wgt id='1016'> +1.8355472e-12 </wgt>
<wgt id='1017'> +1.8145415e-12 </wgt>
<wgt id='1018'> +1.8118924e-12 </wgt>
<wgt id='1019'> +1.8376162e-12 </wgt>
<wgt id='1020'> +1.7654643e-12 </wgt>
<wgt id='1021'> +1.6021618e-12 </wgt>
<wgt id='1022'> +1.6056159e-12 </wgt>
<wgt id='1023'> +1.6050443e-12 </wgt>
<wgt id='1024'> +1.5986965e-12 </wgt>
<wgt id='1025'> +1.5856216e-12 </wgt>
<wgt id='1026'> +2.1525720e-12 </wgt>
<wgt id='1027'> +2.0887621e-12 </wgt>
<wgt id='1028'> +2.0826735e-12 </wgt>
<wgt id='1029'> +2.1648436e-12 </wgt>
<wgt id='1030'> +1.9930898e-12 </wgt>
<wgt id='1031'> +1.2395745e-12 </wgt>
<wgt id='1032'> +1.3405917e-12 </wgt>
<wgt id='1033'> +1.3474025e-12 </wgt>
<wgt id='1034'> +1.2116075e-12 </wgt>
<wgt id='1035'> +1.4160413e-12 </wgt>
<wgt id='1036'> +1.0819656e-12 </wgt>
<wgt id='1037'> +1.1862365e-12 </wgt>
<wgt id='1038'> +1.1935813e-12 </wgt>
<wgt id='1039'> +1.0540790e-12 </wgt>
<wgt id='1040'> +1.2717933e-12 </wgt>
<wgt id='1041'> +1.4536665e-12 </wgt>
<wgt id='1042'> +1.5431872e-12 </wgt>
<wgt id='1043'> +1.5487672e-12 </wgt>
<wgt id='1044'> +1.4273605e-12 </wgt>
<wgt id='1045'> +1.5986148e-12 </wgt>
<wgt id='1046'> +1.5607000e-12 </wgt>
<wgt id='1047'> +1.5562200e-12 </wgt>
<wgt id='1048'> +1.6182980e-12 </wgt>
<wgt id='1049'> +1.5257647e-12 </wgt>
<wgt id='1050'> +1.5224144e-12 </wgt>
<wgt id='1051'> +1.5143246e-12 </wgt>
<wgt id='1052'> +1.5170266e-12 </wgt>
<wgt id='1053'> +1.6169592e-12 </wgt>
<wgt id='1054'> +1.5958359e-12 </wgt>
<wgt id='1055'> +1.5502039e-12 </wgt>
<wgt id='1056'> +1.4863264e-12 </wgt>
<wgt id='1057'> +1.5462945e-12 </wgt>
<wgt id='1058'> +1.5248277e-12 </wgt>
<wgt id='1059'> +1.5682813e-12 </wgt>
<wgt id='1060'> +1.5872482e-12 </wgt>
<wgt id='1061'> +1.5810972e-12 </wgt>
<wgt id='1062'> +1.5453099e-12 </wgt>
<wgt id='1063'> +1.5235238e-12 </wgt>
<wgt id='1064'> +1.5597222e-12 </wgt>
<wgt id='1065'> +1.5967021e-12 </wgt>
<wgt id='1066'> +1.5611448e-12 </wgt>
<wgt id='1067'> +1.5713494e-12 </wgt>
<wgt id='1068'> +1.6037373e-12 </wgt>
<wgt id='1069'> +1.6169289e-12 </wgt>
<wgt id='1070'> +1.5476354e-12 </wgt>
<wgt id='1071'> +1.5847966e-12 </wgt>
<wgt id='1072'> +1.5856794e-12 </wgt>
<wgt id='1073'> +1.5312201e-12 </wgt>
<wgt id='1074'> +1.5658772e-12 </wgt>
<wgt id='1075'> +1.5393029e-12 </wgt>
<wgt id='1076'> +1.5707654e-12 </wgt>
<wgt id='1077'> +1.5731697e-12 </wgt>
<wgt id='1078'> +1.5446466e-12 </wgt>
<wgt id='1079'> +1.5626954e-12 </wgt>
<wgt id='1080'> +1.5422857e-12 </wgt>
<wgt id='1081'> +1.5073146e-12 </wgt>
<wgt id='1082'> +1.5645352e-12 </wgt>
<wgt id='1083'> +1.5463266e-12 </wgt>
<wgt id='1084'> +1.5361480e-12 </wgt>
<wgt id='1085'> +1.5815866e-12 </wgt>
<wgt id='1086'> +1.5994539e-12 </wgt>
<wgt id='1087'> +1.5486952e-12 </wgt>
<wgt id='1088'> +1.5705907e-12 </wgt>
<wgt id='1089'> +1.5321460e-12 </wgt>
<wgt id='1090'> +1.5471363e-12 </wgt>
<wgt id='1091'> +1.5729947e-12 </wgt>
<wgt id='1092'> +1.5530671e-12 </wgt>
<wgt id='1093'> +1.5859106e-12 </wgt>
<wgt id='1094'> +1.6124172e-12 </wgt>
<wgt id='1095'> +1.5970758e-12 </wgt>
<wgt id='1096'> +1.5248513e-12 </wgt>
<wgt id='1097'> +1.5552682e-12 </wgt>
<wgt id='1098'> +1.5901404e-12 </wgt>
<wgt id='1099'> +1.5532395e-12 </wgt>
<wgt id='1100'> +1.5753381e-12 </wgt>
<wgt id='1101'> +1.5793424e-12 </wgt>
<wgt id='1102'> +1.5529272e-12 </wgt>
<wgt id='1103'> +1.5751672e-12 </wgt>
<wgt id='1104'> +1.5838406e-12 </wgt>
<wgt id='1105'> +1.5252272e-12 </wgt>
<wgt id='1106'> +1.5805092e-12 </wgt>
<wgt id='1107'> +1.5860377e-12 </wgt>
<wgt id='1108'> +1.5531849e-12 </wgt>
<wgt id='1109'> +1.5336983e-12 </wgt>
<wgt id='1110'> +1.5776380e-12 </wgt>
<wgt id='1111'> +1.5602672e-12 </wgt>
<wgt id='1112'> +1.5830244e-12 </wgt>
<wgt id='1113'> +1.6035831e-12 </wgt>
<wgt id='1114'> +1.5848866e-12 </wgt>
<wgt id='1115'> +1.5911159e-12 </wgt>
<wgt id='1116'> +1.6023756e-12 </wgt>
<wgt id='1117'> +1.5487396e-12 </wgt>
<wgt id='1118'> +1.5833293e-12 </wgt>
<wgt id='1119'> +1.5326997e-12 </wgt>
<wgt id='1120'> +1.5515632e-12 </wgt>
<wgt id='1121'> +1.5413433e-12 </wgt>
<wgt id='1122'> +1.5436649e-12 </wgt>
<wgt id='1123'> +1.5742088e-12 </wgt>
<wgt id='1124'> +1.5883540e-12 </wgt>
<wgt id='1125'> +1.5282717e-12 </wgt>
<wgt id='1126'> +1.5260104e-12 </wgt>
<wgt id='1127'> +1.5732132e-12 </wgt>
<wgt id='1128'> +1.5453099e-12 </wgt>
<wgt id='1129'> +1.5181604e-12 </wgt>
<wgt id='1130'> +1.5510251e-12 </wgt>
<wgt id='1131'> +1.5763698e-12 </wgt>
<wgt id='1132'> +1.5788110e-12 </wgt>
<wgt id='1133'> +1.5458928e-12 </wgt>
<wgt id='1134'> +1.5183522e-12 </wgt>
<wgt id='1135'> +1.4908166e-12 </wgt>
<wgt id='1136'> +1.5340688e-12 </wgt>
<wgt id='1137'> +1.5600474e-12 </wgt>
<wgt id='1138'> +1.5456066e-12 </wgt>
<wgt id='1139'> +1.5524037e-12 </wgt>
<wgt id='1140'> +1.5721173e-12 </wgt>
<wgt id='1141'> +1.5585022e-12 </wgt>
<wgt id='1142'> +1.5931139e-12 </wgt>
<wgt id='1143'> +1.5319365e-12 </wgt>
<wgt id='1144'> +1.5569943e-12 </wgt>
<wgt id='1145'> +1.6128371e-12 </wgt>
<wgt id='1146'> +1.5711759e-12 </wgt>
<wgt id='1147'> +1.4037766e-12 </wgt>
<wgt id='1148'> +1.4271472e-12 </wgt>
<wgt id='1149'> +1.3605022e-12 </wgt>
<wgt id='1150'> +1.4114224e-12 </wgt>
<wgt id='1151'> +1.6084087e-12 </wgt>
<wgt id='1152'> +2.1437675e-12 </wgt>
<wgt id='1153'> +2.1469390e-12 </wgt>
<wgt id='1154'> +2.1418909e-12 </wgt>
<wgt id='1155'> +2.1381971e-12 </wgt>
<wgt id='1156'> +2.1466217e-12 </wgt>
<wgt id='1157'> +2.1473105e-12 </wgt>
<wgt id='1158'> +2.1389835e-12 </wgt>
<wgt id='1159'> +2.1467541e-12 </wgt>
<wgt id='1160'> +2.1418902e-12 </wgt>
<wgt id='1161'> +2.1396324e-12 </wgt>
<wgt id='1162'> +2.1466223e-12 </wgt>
<wgt id='1163'> +2.1433713e-12 </wgt>
<wgt id='1164'> +2.1441909e-12 </wgt>
<wgt id='1165'> +2.1479319e-12 </wgt>
<wgt id='1166'> +2.1395494e-12 </wgt>
<wgt id='1167'> +2.1690370e-12 </wgt>
<wgt id='1168'> +2.1128220e-12 </wgt>
<wgt id='1169'> +2.1517975e-12 </wgt>
<wgt id='1170'> +2.1377916e-12 </wgt>
<wgt id='1171'> +2.1373083e-12 </wgt>
<wgt id='1172'> +2.1522788e-12 </wgt>
<wgt id='1173'> +2.1185640e-12 </wgt>
<wgt id='1174'> +2.1702190e-12 </wgt>
<wgt id='1175'> +2.1453219e-12 </wgt>
<wgt id='1176'> +2.1420865e-12 </wgt>
<wgt id='1177'> +2.1388507e-12 </wgt>
<wgt id='1178'> +2.1560606e-12 </wgt>
<wgt id='1179'> +2.1429320e-12 </wgt>
<wgt id='1180'> +2.1390549e-12 </wgt>
<wgt id='1181'> +2.1474392e-12 </wgt>
<wgt id='1182'> +2.1384206e-12 </wgt>
<wgt id='1183'> +2.1403151e-12 </wgt>
<wgt id='1184'> +2.1439103e-12 </wgt>
<wgt id='1185'> +2.1389117e-12 </wgt>
<wgt id='1186'> +2.1459314e-12 </wgt>
<wgt id='1187'> +2.1473070e-12 </wgt>
<wgt id='1188'> +2.1425267e-12 </wgt>
<wgt id='1189'> +2.1378060e-12 </wgt>
<wgt id='1190'> +2.1255305e-12 </wgt>
<wgt id='1191'> +2.1476948e-12 </wgt>
<wgt id='1192'> +2.1462255e-12 </wgt>
<wgt id='1193'> +1.4047758e-12 </wgt>
<wgt id='1194'> +1.3932867e-12 </wgt>
<wgt id='1195'> +1.4141940e-12 </wgt>
<wgt id='1196'> +1.4038585e-12 </wgt>
<wgt id='1197'> +1.4058318e-12 </wgt>
<wgt id='1198'> +1.4037392e-12 </wgt>
<wgt id='1199'> +1.4063555e-12 </wgt>
<wgt id='1200'> +1.4014117e-12 </wgt>
<wgt id='1201'> +1.4070671e-12 </wgt>
<wgt id='1202'> +1.4038278e-12 </wgt>
<wgt id='1203'> +1.4061343e-12 </wgt>
<wgt id='1204'> +1.3988829e-12 </wgt>
<wgt id='1205'> +1.4082237e-12 </wgt>
<wgt id='1206'> +1.4082547e-12 </wgt>
<wgt id='1207'> +1.4000384e-12 </wgt>
<wgt id='1208'> +1.4124790e-12 </wgt>
<wgt id='1209'> +1.4020481e-12 </wgt>
<wgt id='1210'> +1.4003108e-12 </wgt>
<wgt id='1211'> +1.4035020e-12 </wgt>
<wgt id='1212'> +1.4058249e-12 </wgt>
<wgt id='1213'> +1.4040147e-12 </wgt>
<wgt id='1214'> +1.3876164e-12 </wgt>
<wgt id='1215'> +1.4308496e-12 </wgt>
<wgt id='1216'> +1.4149436e-12 </wgt>
<wgt id='1217'> +1.3983035e-12 </wgt>
<wgt id='1218'> +1.4080600e-12 </wgt>
<wgt id='1219'> +1.4028764e-12 </wgt>
<wgt id='1220'> +1.4122487e-12 </wgt>
<wgt id='1221'> +1.4029743e-12 </wgt>
<wgt id='1222'> +1.4238662e-12 </wgt>
<wgt id='1223'> +1.3774773e-12 </wgt>
<wgt id='1224'> +1.4085937e-12 </wgt>
<wgt id='1225'> +1.4032816e-12 </wgt>
<wgt id='1226'> +1.4034172e-12 </wgt>
<wgt id='1227'> +1.4059249e-12 </wgt>
<wgt id='1228'> +1.3979253e-12 </wgt>
<wgt id='1229'> +1.4078153e-12 </wgt>
<wgt id='1230'> +1.4057862e-12 </wgt>
<wgt id='1231'> +1.4112131e-12 </wgt>
<wgt id='1232'> +1.4065331e-12 </wgt>
<wgt id='1233'> +1.4043191e-12 </wgt>
<wgt id='1234'> +1.4047758e-12 </wgt>
<wgt id='1235'> +1.3980718e-12 </wgt>
<wgt id='1236'> +1.4006564e-12 </wgt>
<wgt id='1237'> +1.4029941e-12 </wgt>
<wgt id='1238'> +1.4067106e-12 </wgt>
<wgt id='1239'> +1.4082275e-12 </wgt>
<wgt id='1240'> +1.4097166e-12 </wgt>
<wgt id='1241'> +1.3622430e-12 </wgt>
<wgt id='1242'> +1.3492313e-12 </wgt>
<wgt id='1243'> +1.3750487e-12 </wgt>
<wgt id='1244'> +1.3668807e-12 </wgt>
<wgt id='1245'> +1.3587645e-12 </wgt>
<wgt id='1246'> +1.3579709e-12 </wgt>
<wgt id='1247'> +1.3658528e-12 </wgt>
<wgt id='1248'> +1.3622169e-12 </wgt>
<wgt id='1249'> +1.3622450e-12 </wgt>
<wgt id='1250'> +1.3631592e-12 </wgt>
<wgt id='1251'> +1.3615741e-12 </wgt>
<wgt id='1252'> +1.3592715e-12 </wgt>
<wgt id='1253'> +1.3644959e-12 </wgt>
<wgt id='1254'> +1.3568357e-12 </wgt>
<wgt id='1255'> +1.3653802e-12 </wgt>
<wgt id='1256'> +1.3596232e-12 </wgt>
<wgt id='1257'> +1.3687232e-12 </wgt>
<wgt id='1258'> +1.3794882e-12 </wgt>
<wgt id='1259'> +1.3454916e-12 </wgt>
<wgt id='1260'> +1.3656961e-12 </wgt>
<wgt id='1261'> +1.3584986e-12 </wgt>
<wgt id='1262'> +1.3667413e-12 </wgt>
<wgt id='1263'> +1.3606306e-12 </wgt>
<wgt id='1264'> +1.3674033e-12 </wgt>
<wgt id='1265'> +1.3598988e-12 </wgt>
<wgt id='1266'> +1.3422331e-12 </wgt>
<wgt id='1267'> +1.3810191e-12 </wgt>
<wgt id='1268'> +1.3688700e-12 </wgt>
<wgt id='1269'> +1.3570763e-12 </wgt>
<wgt id='1270'> +1.3624726e-12 </wgt>
<wgt id='1271'> +1.3630021e-12 </wgt>
<wgt id='1272'> +1.3642929e-12 </wgt>
<wgt id='1273'> +1.3619769e-12 </wgt>
<wgt id='1274'> +1.3631170e-12 </wgt>
<wgt id='1275'> +1.3606604e-12 </wgt>
<wgt id='1276'> +1.3683259e-12 </wgt>
<wgt id='1277'> +1.3550849e-12 </wgt>
<wgt id='1278'> +1.3695161e-12 </wgt>
<wgt id='1279'> +1.3690159e-12 </wgt>
<wgt id='1280'> +1.3622724e-12 </wgt>
<wgt id='1281'> +1.3664992e-12 </wgt>
<wgt id='1282'> +1.3622430e-12 </wgt>
<wgt id='1283'> +1.3554584e-12 </wgt>
<wgt id='1284'> +1.3582670e-12 </wgt>
<wgt id='1285'> +1.3604201e-12 </wgt>
<wgt id='1286'> +1.3641086e-12 </wgt>
<wgt id='1287'> +1.3653876e-12 </wgt>
<wgt id='1288'> +1.3663977e-12 </wgt>
<wgt id='1289'> +1.4307434e-12 </wgt>
<wgt id='1290'> +1.4335016e-12 </wgt>
<wgt id='1291'> +1.4277811e-12 </wgt>
<wgt id='1292'> +1.4316716e-12 </wgt>
<wgt id='1293'> +1.4301039e-12 </wgt>
<wgt id='1294'> +1.4199520e-12 </wgt>
<wgt id='1295'> +1.4411450e-12 </wgt>
<wgt id='1296'> +1.4347369e-12 </wgt>
<wgt id='1297'> +1.4257048e-12 </wgt>
<wgt id='1298'> +1.4359918e-12 </wgt>
<wgt id='1299'> +1.4240910e-12 </wgt>
<wgt id='1300'> +1.4336739e-12 </wgt>
<wgt id='1301'> +1.4248944e-12 </wgt>
<wgt id='1302'> +1.4265675e-12 </wgt>
<wgt id='1303'> +1.4365422e-12 </wgt>
<wgt id='1304'> +1.4289001e-12 </wgt>
<wgt id='1305'> +1.4320003e-12 </wgt>
<wgt id='1306'> +1.4332779e-12 </wgt>
<wgt id='1307'> +1.4277016e-12 </wgt>
<wgt id='1308'> +1.4249851e-12 </wgt>
<wgt id='1309'> +1.4351399e-12 </wgt>
<wgt id='1310'> +1.4305728e-12 </wgt>
<wgt id='1311'> +1.4311185e-12 </wgt>
<wgt id='1312'> +1.4381073e-12 </wgt>
<wgt id='1313'> +1.4236917e-12 </wgt>
<wgt id='1314'> +1.4106059e-12 </wgt>
<wgt id='1315'> +1.4478957e-12 </wgt>
<wgt id='1316'> +1.4377705e-12 </wgt>
<wgt id='1317'> +1.4314454e-12 </wgt>
<wgt id='1318'> +1.4424807e-12 </wgt>
<wgt id='1319'> +1.4162372e-12 </wgt>
<wgt id='1320'> +1.4489398e-12 </wgt>
<wgt id='1321'> +1.4149738e-12 </wgt>
<wgt id='1322'> +1.4310430e-12 </wgt>
<wgt id='1323'> +1.4307867e-12 </wgt>
<wgt id='1324'> +1.4279883e-12 </wgt>
<wgt id='1325'> +1.4358695e-12 </wgt>
<wgt id='1326'> +1.4297990e-12 </wgt>
<wgt id='1327'> +1.4340071e-12 </wgt>
<wgt id='1328'> +1.4300301e-12 </wgt>
<wgt id='1329'> +1.4308913e-12 </wgt>
<wgt id='1330'> +1.4367407e-12 </wgt>
<wgt id='1331'> +1.4253887e-12 </wgt>
<wgt id='1332'> +1.4436563e-12 </wgt>
<wgt id='1333'> +1.4316910e-12 </wgt>
<wgt id='1334'> +1.4283777e-12 </wgt>
<wgt id='1335'> +1.4373775e-12 </wgt>
<wgt id='1336'> +1.4315608e-12 </wgt>
<wgt id='1337'> +1.4376168e-12 </wgt>
<wgt id='1338'> +1.4312219e-12 </wgt>
<wgt id='1339'> +1.4323542e-12 </wgt>
<wgt id='1340'> +1.4016335e-12 </wgt>
<wgt id='1341'> +1.4042778e-12 </wgt>
<wgt id='1342'> +1.3988031e-12 </wgt>
<wgt id='1343'> +1.4026500e-12 </wgt>
<wgt id='1344'> +1.4009440e-12 </wgt>
<wgt id='1345'> +1.3904284e-12 </wgt>
<wgt id='1346'> +1.4120253e-12 </wgt>
<wgt id='1347'> +1.4062382e-12 </wgt>
<wgt id='1348'> +1.3964653e-12 </wgt>
<wgt id='1349'> +1.4063955e-12 </wgt>
<wgt id='1350'> +1.3969121e-12 </wgt>
<wgt id='1351'> +1.4042750e-12 </wgt>
<wgt id='1352'> +1.3958805e-12 </wgt>
<wgt id='1353'> +1.3965088e-12 </wgt>
<wgt id='1354'> +1.4108247e-12 </wgt>
<wgt id='1355'> +1.4006851e-12 </wgt>
<wgt id='1356'> +1.4021600e-12 </wgt>
<wgt id='1357'> +1.4032798e-12 </wgt>
<wgt id='1358'> +1.3994901e-12 </wgt>
<wgt id='1359'> +1.3954955e-12 </wgt>
<wgt id='1360'> +1.4069372e-12 </wgt>
<wgt id='1361'> +1.4022460e-12 </wgt>
<wgt id='1362'> +1.4010635e-12 </wgt>
<wgt id='1363'> +1.4150398e-12 </wgt>
<wgt id='1364'> +1.3933054e-12 </wgt>
<wgt id='1365'> +1.4104858e-12 </wgt>
<wgt id='1366'> +1.3838448e-12 </wgt>
<wgt id='1367'> +1.4088376e-12 </wgt>
<wgt id='1368'> +1.4011915e-12 </wgt>
<wgt id='1369'> +1.4112625e-12 </wgt>
<wgt id='1370'> +1.3899210e-12 </wgt>
<wgt id='1371'> +1.4166872e-12 </wgt>
<wgt id='1372'> +1.3832969e-12 </wgt>
<wgt id='1373'> +1.3987466e-12 </wgt>
<wgt id='1374'> +1.4045997e-12 </wgt>
<wgt id='1375'> +1.3988756e-12 </wgt>
<wgt id='1376'> +1.4071884e-12 </wgt>
<wgt id='1377'> +1.4007599e-12 </wgt>
<wgt id='1378'> +1.4050235e-12 </wgt>
<wgt id='1379'> +1.4011103e-12 </wgt>
<wgt id='1380'> +1.4015991e-12 </wgt>
<wgt id='1381'> +1.4080002e-12 </wgt>
<wgt id='1382'> +1.3962830e-12 </wgt>
<wgt id='1383'> +1.4126299e-12 </wgt>
<wgt id='1384'> +1.4034770e-12 </wgt>
<wgt id='1385'> +1.3995647e-12 </wgt>
<wgt id='1386'> +1.4070037e-12 </wgt>
<wgt id='1387'> +1.4021347e-12 </wgt>
<wgt id='1388'> +1.4090293e-12 </wgt>
<wgt id='1389'> +1.4017572e-12 </wgt>
<wgt id='1390'> +1.4041733e-12 </wgt>
<wgt id='1391'> +1.3832861e-12 </wgt>
<wgt id='1392'> +1.3419034e-12 </wgt>
<wgt id='1393'> +1.3562755e-12 </wgt>
<wgt id='1394'> +1.3701521e-12 </wgt>
<wgt id='1395'> +1.3977731e-12 </wgt>
<wgt id='1396'> +1.3839700e-12 </wgt>
<wgt id='1397'> +1.3673088e-12 </wgt>
<wgt id='1398'> +1.3696069e-12 </wgt>
<wgt id='1399'> +1.3721342e-12 </wgt>
<wgt id='1400'> +1.3755410e-12 </wgt>
<wgt id='1401'> +1.3796925e-12 </wgt>
<wgt id='1402'> +1.3884458e-12 </wgt>
<wgt id='1403'> +1.3935033e-12 </wgt>
<wgt id='1404'> +1.3988056e-12 </wgt>
<wgt id='1405'> +1.3839700e-12 </wgt>
<wgt id='1406'> +1.3799931e-12 </wgt>
<wgt id='1407'> +1.3820324e-12 </wgt>
<wgt id='1408'> +1.3857203e-12 </wgt>
<wgt id='1409'> +1.3870808e-12 </wgt>
<wgt id='1410'> +1.3209827e-12 </wgt>
<wgt id='1411'> +1.3255003e-12 </wgt>
<wgt id='1412'> +1.3151720e-12 </wgt>
<wgt id='1413'> +1.3169186e-12 </wgt>
<wgt id='1414'> +1.3250230e-12 </wgt>
<wgt id='1415'> +1.3200619e-12 </wgt>
<wgt id='1416'> +1.3213604e-12 </wgt>
<wgt id='1417'> +1.3179324e-12 </wgt>
<wgt id='1418'> +1.3239465e-12 </wgt>
<wgt id='1419'> +1.3222009e-12 </wgt>
<wgt id='1420'> +1.3197710e-12 </wgt>
<wgt id='1421'> +1.3088582e-12 </wgt>
<wgt id='1422'> +1.3261273e-12 </wgt>
<wgt id='1423'> +1.3196267e-12 </wgt>
<wgt id='1424'> +1.3226056e-12 </wgt>
<wgt id='1425'> +1.3129983e-12 </wgt>
<wgt id='1426'> +1.3295798e-12 </wgt>
<wgt id='1427'> +1.3077851e-12 </wgt>
<wgt id='1428'> +1.3278395e-12 </wgt>
<wgt id='1429'> +1.3245599e-12 </wgt>
<wgt id='1430'> +1.3161491e-12 </wgt>
<wgt id='1431'> +1.3225544e-12 </wgt>
<wgt id='1432'> +1.3197704e-12 </wgt>
<wgt id='1433'> +1.3061412e-12 </wgt>
<wgt id='1434'> +1.3326707e-12 </wgt>
<wgt id='1435'> +1.3136873e-12 </wgt>
<wgt id='1436'> +1.3394476e-12 </wgt>
<wgt id='1437'> +1.3267942e-12 </wgt>
<wgt id='1438'> +1.3234035e-12 </wgt>
<wgt id='1439'> +1.3142854e-12 </wgt>
<wgt id='1440'> +1.3337684e-12 </wgt>
<wgt id='1441'> +1.3258162e-12 </wgt>
<wgt id='1442'> +1.3102213e-12 </wgt>
<wgt id='1443'> +1.3171176e-12 </wgt>
<wgt id='1444'> +1.3296715e-12 </wgt>
<wgt id='1445'> +1.3310982e-12 </wgt>
<wgt id='1446'> +1.3168256e-12 </wgt>
<wgt id='1447'> +1.3222875e-12 </wgt>
<wgt id='1448'> +1.3229593e-12 </wgt>
<wgt id='1449'> +1.3210072e-12 </wgt>
<wgt id='1450'> +1.3201988e-12 </wgt>
<wgt id='1451'> +1.3202890e-12 </wgt>
<wgt id='1452'> +1.3237703e-12 </wgt>
<wgt id='1453'> +1.3213442e-12 </wgt>
<wgt id='1454'> +1.3214161e-12 </wgt>
<wgt id='1455'> +1.3295106e-12 </wgt>
<wgt id='1456'> +1.3245028e-12 </wgt>
<wgt id='1457'> +1.3263406e-12 </wgt>
<wgt id='1458'> +1.3197503e-12 </wgt>
<wgt id='1459'> +1.3261716e-12 </wgt>
<wgt id='1460'> +1.3270773e-12 </wgt>
<wgt id='1461'> +1.3209827e-12 </wgt>
<wgt id='1462'> +1.3109992e-12 </wgt>
<wgt id='1463'> +1.3282723e-12 </wgt>
<wgt id='1464'> +1.3194530e-12 </wgt>
<wgt id='1465'> +1.2995357e-12 </wgt>
<wgt id='1466'> +1.3025494e-12 </wgt>
<wgt id='1467'> +1.3061482e-12 </wgt>
<wgt id='1468'> +1.3116646e-12 </wgt>
<wgt id='1469'> +1.3150143e-12 </wgt>
<wgt id='1470'> +1.3243578e-12 </wgt>
<wgt id='1471'> +1.3287793e-12 </wgt>
<wgt id='1472'> +1.3334930e-12 </wgt>
<wgt id='1473'> +1.3194530e-12 </wgt>
<wgt id='1474'> +1.3157861e-12 </wgt>
<wgt id='1475'> +1.3181415e-12 </wgt>
<wgt id='1476'> +1.3207800e-12 </wgt>
<wgt id='1477'> +1.3219062e-12 </wgt>
<wgt id='1478'> +1.3646504e-12 </wgt>
<wgt id='1479'> +1.3652617e-12 </wgt>
<wgt id='1480'> +1.3502198e-12 </wgt>
<wgt id='1481'> +1.3781821e-12 </wgt>
<wgt id='1482'> +1.3664779e-12 </wgt>
<wgt id='1483'> +1.3481815e-12 </wgt>
<wgt id='1484'> +1.3547691e-12 </wgt>
<wgt id='1485'> +1.3740359e-12 </wgt>
<wgt id='1486'> +1.3644493e-12 </wgt>
<wgt id='1487'> +1.3761573e-12 </wgt>
<wgt id='1488'> +1.3620345e-12 </wgt>
<wgt id='1489'> +1.3668512e-12 </wgt>
<wgt id='1490'> +1.3611806e-12 </wgt>
<wgt id='1491'> +1.3705439e-12 </wgt>
<wgt id='1492'> +1.3655187e-12 </wgt>
<wgt id='1493'> +1.3448241e-12 </wgt>
<wgt id='1494'> +1.3627752e-12 </wgt>
<wgt id='1495'> +1.3542233e-12 </wgt>
<wgt id='1496'> +1.3656048e-12 </wgt>
<wgt id='1497'> +1.3650236e-12 </wgt>
<wgt id='1498'> +1.3648769e-12 </wgt>
<wgt id='1499'> +1.3675681e-12 </wgt>
<wgt id='1500'> +1.3660837e-12 </wgt>
<wgt id='1501'> +1.3655626e-12 </wgt>
<wgt id='1502'> +1.3637625e-12 </wgt>
<wgt id='1503'> +1.3699052e-12 </wgt>
<wgt id='1504'> +1.3594010e-12 </wgt>
<wgt id='1505'> +1.3687408e-12 </wgt>
<wgt id='1506'> +1.3660598e-12 </wgt>
<wgt id='1507'> +1.3651387e-12 </wgt>
<wgt id='1508'> +1.3678293e-12 </wgt>
<wgt id='1509'> +1.3427749e-12 </wgt>
<wgt id='1510'> +1.3451209e-12 </wgt>
<wgt id='1511'> +1.3326107e-12 </wgt>
<wgt id='1512'> +1.3326093e-12 </wgt>
<wgt id='1513'> +1.3414091e-12 </wgt>
<wgt id='1514'> +1.3490561e-12 </wgt>
<wgt id='1515'> +1.3479915e-12 </wgt>
<wgt id='1516'> +1.3496717e-12 </wgt>
<wgt id='1517'> +1.3464434e-12 </wgt>
<wgt id='1518'> +1.3413019e-12 </wgt>
<wgt id='1519'> +1.3429426e-12 </wgt>
<wgt id='1520'> +1.3425423e-12 </wgt>
<wgt id='1521'> +1.3427280e-12 </wgt>
<wgt id='1522'> +1.3448461e-12 </wgt>
<wgt id='1523'> +1.3461501e-12 </wgt>
<wgt id='1524'> +1.3414571e-12 </wgt>
<wgt id='1525'> +1.3419279e-12 </wgt>
<wgt id='1526'> +1.3437319e-12 </wgt>
<wgt id='1527'> +1.3432947e-12 </wgt>
<wgt id='1528'> +1.3434666e-12 </wgt>
<wgt id='1529'> +1.3432902e-12 </wgt>
<wgt id='1530'> +1.3438110e-12 </wgt>
<wgt id='1531'> +1.3444482e-12 </wgt>
<wgt id='1532'> +1.3386166e-12 </wgt>
<wgt id='1533'> +1.3434066e-12 </wgt>
<wgt id='1534'> +1.3431576e-12 </wgt>
<wgt id='1535'> +1.3382510e-12 </wgt>
<wgt id='1536'> +1.3463549e-12 </wgt>
<wgt id='1537'> +1.3458634e-12 </wgt>
<wgt id='1538'> +1.3302406e-12 </wgt>
<wgt id='1539'> +1.3417878e-12 </wgt>
<wgt id='1540'> +1.3419312e-12 </wgt>
<wgt id='1541'> +1.3404978e-12 </wgt>
<wgt id='1542'> +1.3409622e-12 </wgt>
<wgt id='1543'> +1.3436224e-12 </wgt>
<wgt id='1544'> +1.3412080e-12 </wgt>
<wgt id='1545'> +1.3412176e-12 </wgt>
<wgt id='1546'> +1.3431779e-12 </wgt>
<wgt id='1547'> +1.3415236e-12 </wgt>
<wgt id='1548'> +1.3436275e-12 </wgt>
<wgt id='1549'> +1.3415945e-12 </wgt>
<wgt id='1550'> +1.3425868e-12 </wgt>
<wgt id='1551'> +1.3428071e-12 </wgt>
<wgt id='1552'> +1.3445833e-12 </wgt>
<wgt id='1553'> +1.3427985e-12 </wgt>
<wgt id='1554'> +1.3416091e-12 </wgt>
<wgt id='1555'> +1.3451826e-12 </wgt>
<wgt id='1556'> +1.3462639e-12 </wgt>
<wgt id='1557'> +1.3424312e-12 </wgt>
<wgt id='1558'> +1.3427463e-12 </wgt>
<wgt id='1559'> +1.3408244e-12 </wgt>
<wgt id='1560'> +1.3424627e-12 </wgt>
<wgt id='1561'> +1.3427789e-12 </wgt>
<wgt id='1562'> +1.3423740e-12 </wgt>
<wgt id='1563'> +1.3426054e-12 </wgt>
<wgt id='1564'> +1.3414841e-12 </wgt>
<wgt id='1565'> +1.3429097e-12 </wgt>
<wgt id='1566'> +1.3427950e-12 </wgt>
<wgt id='1567'> +1.3422837e-12 </wgt>
<wgt id='1568'> +1.3423804e-12 </wgt>
<wgt id='1569'> +1.3459986e-12 </wgt>
<wgt id='1570'> +1.3434207e-12 </wgt>
<wgt id='1571'> +1.3437840e-12 </wgt>
<wgt id='1572'> +1.3432614e-12 </wgt>
<wgt id='1573'> +1.3426511e-12 </wgt>
<wgt id='1574'> +1.3436264e-12 </wgt>
<wgt id='1575'> +1.3421270e-12 </wgt>
<wgt id='1576'> +1.3431870e-12 </wgt>
<wgt id='1577'> +1.3440787e-12 </wgt>
<wgt id='1578'> +1.3438007e-12 </wgt>
<wgt id='1579'> +1.3418732e-12 </wgt>
<wgt id='1580'> +1.3422378e-12 </wgt>
<wgt id='1581'> +1.3431371e-12 </wgt>
<wgt id='1582'> +1.3437620e-12 </wgt>
<wgt id='1583'> +1.3419621e-12 </wgt>
<wgt id='1584'> +1.3425513e-12 </wgt>
<wgt id='1585'> +1.3429873e-12 </wgt>
<wgt id='1586'> +1.3427389e-12 </wgt>
<wgt id='1587'> +1.3430076e-12 </wgt>
<wgt id='1588'> +1.3412390e-12 </wgt>
<wgt id='1589'> +1.3442824e-12 </wgt>
<wgt id='1590'> +1.3427926e-12 </wgt>
<wgt id='1591'> +1.3428184e-12 </wgt>
<wgt id='1592'> +1.3425447e-12 </wgt>
<wgt id='1593'> +1.3439064e-12 </wgt>
<wgt id='1594'> +1.3423331e-12 </wgt>
<wgt id='1595'> +1.3422872e-12 </wgt>
<wgt id='1596'> +1.3417619e-12 </wgt>
<wgt id='1597'> +1.3424730e-12 </wgt>
<wgt id='1598'> +1.3429415e-12 </wgt>
<wgt id='1599'> +1.3435662e-12 </wgt>
<wgt id='1600'> +1.3416156e-12 </wgt>
<wgt id='1601'> +1.3433039e-12 </wgt>
<wgt id='1602'> +1.3425834e-12 </wgt>
<wgt id='1603'> +1.3439498e-12 </wgt>
<wgt id='1604'> +1.3431083e-12 </wgt>
<wgt id='1605'> +1.3435119e-12 </wgt>
<wgt id='1606'> +1.3426720e-12 </wgt>
<wgt id='1607'> +1.3430706e-12 </wgt>
<wgt id='1608'> +1.3433737e-12 </wgt>
<wgt id='1609'> +1.3431227e-12 </wgt>
<wgt id='1610'> +1.3307521e-12 </wgt>
<wgt id='1611'> +1.3557203e-12 </wgt>
<wgt id='1612'> +1.5436905e-12 </wgt>
<wgt id='1613'> +1.5151888e-12 </wgt>
<wgt id='1614'> +1.4952005e-12 </wgt>
<wgt id='1615'> +1.5366200e-12 </wgt>
<wgt id='1616'> +1.4704679e-12 </wgt>
<wgt id='1617'> +1.5522121e-12 </wgt>
<wgt id='1618'> +1.5261429e-12 </wgt>
<wgt id='1619'> +1.5013088e-12 </wgt>
<wgt id='1620'> +1.5238156e-12 </wgt>
<wgt id='1621'> +1.5543862e-12 </wgt>
<wgt id='1622'> +1.5596211e-12 </wgt>
<wgt id='1623'> +1.5419833e-12 </wgt>
<wgt id='1624'> +1.5621690e-12 </wgt>
<wgt id='1625'> +1.5388305e-12 </wgt>
<wgt id='1626'> +1.5403837e-12 </wgt>
<wgt id='1627'> +1.5539000e-12 </wgt>
<wgt id='1628'> +1.4560132e-12 </wgt>
<wgt id='1629'> +1.5747799e-12 </wgt>
<wgt id='1630'> +1.5199843e-12 </wgt>
<wgt id='1631'> +1.5337742e-12 </wgt>
<wgt id='1632'> +1.4735793e-12 </wgt>
<wgt id='1633'> +1.5053181e-12 </wgt>
<wgt id='1634'> +1.5440882e-12 </wgt>
<wgt id='1635'> +1.5660870e-12 </wgt>
<wgt id='1636'> +1.5570727e-12 </wgt>
<wgt id='1637'> +1.5714692e-12 </wgt>
<wgt id='1638'> +1.5404239e-12 </wgt>
<wgt id='1639'> +1.5396056e-12 </wgt>
<wgt id='1640'> +1.5335369e-12 </wgt>
<wgt id='1641'> +1.5484753e-12 </wgt>
<wgt id='1642'> +1.4925098e-12 </wgt>
<wgt id='1643'> +1.5261280e-12 </wgt>
<wgt id='1644'> +1.5859450e-12 </wgt>
<wgt id='1645'> +1.5182829e-12 </wgt>
<wgt id='1646'> +1.5658903e-12 </wgt>
<wgt id='1647'> +1.5700894e-12 </wgt>
<wgt id='1648'> +1.5509636e-12 </wgt>
<wgt id='1649'> +1.5827033e-12 </wgt>
<wgt id='1650'> +1.5269462e-12 </wgt>
<wgt id='1651'> +1.5396918e-12 </wgt>
<wgt id='1652'> +1.5358417e-12 </wgt>
<wgt id='1653'> +1.5364802e-12 </wgt>
<wgt id='1654'> +1.5330519e-12 </wgt>
<wgt id='1655'> +1.5601059e-12 </wgt>
<wgt id='1656'> +1.5574544e-12 </wgt>
<wgt id='1657'> +1.5304375e-12 </wgt>
<wgt id='1658'> +1.5404818e-12 </wgt>
<wgt id='1659'> +1.5621690e-12 </wgt>
<wgt id='1660'> +1.5501886e-12 </wgt>
<wgt id='1661'> +1.5808000e-12 </wgt>
<wgt id='1662'> +1.6005065e-12 </wgt>
<wgt id='1663'> +1.5509865e-12 </wgt>
<wgt id='1664'> +1.5357911e-12 </wgt>
<wgt id='1665'> +1.5243974e-12 </wgt>
<wgt id='1666'> +1.5633272e-12 </wgt>
<wgt id='1667'> +1.5497690e-12 </wgt>
<wgt id='1668'> +1.5467585e-12 </wgt>
<wgt id='1669'> +1.5542779e-12 </wgt>
<wgt id='1670'> +1.5372622e-12 </wgt>
<wgt id='1671'> +1.5195609e-12 </wgt>
<wgt id='1672'> +1.5762948e-12 </wgt>
<wgt id='1673'> +1.5350738e-12 </wgt>
<wgt id='1674'> +1.5217165e-12 </wgt>
<wgt id='1675'> +1.5331685e-12 </wgt>
<wgt id='1676'> +1.5376781e-12 </wgt>
<wgt id='1677'> +1.5720883e-12 </wgt>
<wgt id='1678'> +1.5269658e-12 </wgt>
<wgt id='1679'> +1.5494803e-12 </wgt>
<wgt id='1680'> +1.5608741e-12 </wgt>
<wgt id='1681'> +1.5688426e-12 </wgt>
<wgt id='1682'> +1.5398102e-12 </wgt>
<wgt id='1683'> +1.5509453e-12 </wgt>
<wgt id='1684'> +1.5955640e-12 </wgt>
<wgt id='1685'> +1.5312368e-12 </wgt>
<wgt id='1686'> +1.5531042e-12 </wgt>
<wgt id='1687'> +1.5696241e-12 </wgt>
<wgt id='1688'> +1.5049982e-12 </wgt>
<wgt id='1689'> +1.5943222e-12 </wgt>
<wgt id='1690'> +1.5322620e-12 </wgt>
<wgt id='1691'> +1.5101616e-12 </wgt>
<wgt id='1692'> +1.5464295e-12 </wgt>
<wgt id='1693'> +1.5564558e-12 </wgt>
<wgt id='1694'> +1.5636525e-12 </wgt>
<wgt id='1695'> +1.5647400e-12 </wgt>
<wgt id='1696'> +1.5299996e-12 </wgt>
<wgt id='1697'> +1.5210833e-12 </wgt>
<wgt id='1698'> +1.5397036e-12 </wgt>
<wgt id='1699'> +1.5485023e-12 </wgt>
<wgt id='1700'> +1.5311395e-12 </wgt>
<wgt id='1701'> +1.5899053e-12 </wgt>
<wgt id='1702'> +1.5019534e-12 </wgt>
<wgt id='1703'> +1.5258676e-12 </wgt>
<wgt id='1704'> +1.5495268e-12 </wgt>
<wgt id='1705'> +1.4884415e-12 </wgt>
<wgt id='1706'> +1.5647629e-12 </wgt>
<wgt id='1707'> +1.5390360e-12 </wgt>
<wgt id='1708'> +1.6006055e-12 </wgt>
<wgt id='1709'> +1.5825410e-12 </wgt>
<wgt id='1710'> +1.5414610e-12 </wgt>
<wgt id='1711'> +1.5452213e-12 </wgt>
<wgt id='1712'> +1.6047637e-12 </wgt>
<wgt id='1713'> +1.3347167e-12 </wgt>
<wgt id='1714'> +1.3177973e-12 </wgt>
<wgt id='1715'> +1.3019893e-12 </wgt>
<wgt id='1716'> +1.3641022e-12 </wgt>
<wgt id='1717'> +1.3404620e-12 </wgt>
<wgt id='1718'> +1.3817631e-12 </wgt>
<wgt id='1719'> +1.3570282e-12 </wgt>
<wgt id='1720'> +1.3050229e-12 </wgt>
<wgt id='1721'> +1.3078531e-12 </wgt>
<wgt id='1722'> +1.3265334e-12 </wgt>
<wgt id='1723'> +1.3755333e-12 </wgt>
<wgt id='1724'> +1.3509184e-12 </wgt>
<wgt id='1725'> +1.3474159e-12 </wgt>
<wgt id='1726'> +1.3479519e-12 </wgt>
<wgt id='1727'> +1.3657128e-12 </wgt>
<wgt id='1728'> +1.3180536e-12 </wgt>
<wgt id='1729'> +1.2862562e-12 </wgt>
<wgt id='1730'> +1.3104873e-12 </wgt>
<wgt id='1731'> +1.2757633e-12 </wgt>
<wgt id='1732'> +1.3330190e-12 </wgt>
<wgt id='1733'> +1.2807494e-12 </wgt>
<wgt id='1734'> +1.3877516e-12 </wgt>
<wgt id='1735'> +1.3239248e-12 </wgt>
<wgt id='1736'> +1.3697718e-12 </wgt>
<wgt id='1737'> +1.3655750e-12 </wgt>
<wgt id='1738'> +1.3348319e-12 </wgt>
<wgt id='1739'> +1.3339415e-12 </wgt>
<wgt id='1740'> +1.2643713e-12 </wgt>
<wgt id='1741'> +1.3622482e-12 </wgt>
<wgt id='1742'> +1.3146063e-12 </wgt>
<wgt id='1743'> +1.3212217e-12 </wgt>
<wgt id='1744'> +1.3589764e-12 </wgt>
<wgt id='1745'> +1.3482391e-12 </wgt>
<wgt id='1746'> +1.3224815e-12 </wgt>
<wgt id='1747'> +1.3860145e-12 </wgt>
<wgt id='1748'> +1.3329943e-12 </wgt>
<wgt id='1749'> +1.3319806e-12 </wgt>
<wgt id='1750'> +1.3092086e-12 </wgt>
<wgt id='1751'> +1.3135993e-12 </wgt>
<wgt id='1752'> +1.3147119e-12 </wgt>
<wgt id='1753'> +1.3416555e-12 </wgt>
<wgt id='1754'> +1.3461441e-12 </wgt>
<wgt id='1755'> +1.3494855e-12 </wgt>
<wgt id='1756'> +1.3595425e-12 </wgt>
<wgt id='1757'> +1.3526565e-12 </wgt>
<wgt id='1758'> +1.3744200e-12 </wgt>
<wgt id='1759'> +1.3590195e-12 </wgt>
<wgt id='1760'> +1.3268504e-12 </wgt>
<wgt id='1761'> +1.3296395e-12 </wgt>
<wgt id='1762'> +1.3151380e-12 </wgt>
<wgt id='1763'> +1.3518326e-12 </wgt>
<wgt id='1764'> +1.3712505e-12 </wgt>
<wgt id='1765'> +1.3378757e-12 </wgt>
<wgt id='1766'> +1.3691143e-12 </wgt>
<wgt id='1767'> +1.3351384e-12 </wgt>
<wgt id='1768'> +1.3539698e-12 </wgt>
<wgt id='1769'> +1.3325959e-12 </wgt>
<wgt id='1770'> +1.3259694e-12 </wgt>
<wgt id='1771'> +1.3775305e-12 </wgt>
<wgt id='1772'> +1.3141580e-12 </wgt>
<wgt id='1773'> +1.3399696e-12 </wgt>
<wgt id='1774'> +1.3247831e-12 </wgt>
<wgt id='1775'> +1.3332572e-12 </wgt>
<wgt id='1776'> +1.3815086e-12 </wgt>
<wgt id='1777'> +1.2748101e-12 </wgt>
<wgt id='1778'> +1.3404477e-12 </wgt>
<wgt id='1779'> +1.3301280e-12 </wgt>
<wgt id='1780'> +1.3294321e-12 </wgt>
<wgt id='1781'> +1.3572918e-12 </wgt>
<wgt id='1782'> +1.3247602e-12 </wgt>
<wgt id='1783'> +1.3393008e-12 </wgt>
<wgt id='1784'> +1.3384853e-12 </wgt>
<wgt id='1785'> +1.3478475e-12 </wgt>
<wgt id='1786'> +1.3208895e-12 </wgt>
<wgt id='1787'> +1.4093858e-12 </wgt>
<wgt id='1788'> +1.3200747e-12 </wgt>
<wgt id='1789'> +1.4116639e-12 </wgt>
<wgt id='1790'> +1.3431927e-12 </wgt>
<wgt id='1791'> +1.3317152e-12 </wgt>
<wgt id='1792'> +1.3147917e-12 </wgt>
<wgt id='1793'> +1.3219932e-12 </wgt>
<wgt id='1794'> +1.3595104e-12 </wgt>
<wgt id='1795'> +1.3447637e-12 </wgt>
<wgt id='1796'> +1.2954947e-12 </wgt>
<wgt id='1797'> +1.3334469e-12 </wgt>
<wgt id='1798'> +1.3237695e-12 </wgt>
<wgt id='1799'> +1.3189086e-12 </wgt>
<wgt id='1800'> +1.3570935e-12 </wgt>
<wgt id='1801'> +1.3349958e-12 </wgt>
<wgt id='1802'> +1.2988351e-12 </wgt>
<wgt id='1803'> +1.3367333e-12 </wgt>
<wgt id='1804'> +1.3383830e-12 </wgt>
<wgt id='1805'> +1.3026961e-12 </wgt>
<wgt id='1806'> +1.3022576e-12 </wgt>
<wgt id='1807'> +1.3270983e-12 </wgt>
<wgt id='1808'> +1.3078232e-12 </wgt>
<wgt id='1809'> +1.3171866e-12 </wgt>
<wgt id='1810'> +1.3026688e-12 </wgt>
<wgt id='1811'> +1.3492489e-12 </wgt>
<wgt id='1812'> +1.3145363e-12 </wgt>
<wgt id='1813'> +1.2639161e-12 </wgt>
<wgt id='1814'> +1.6357682e-12 </wgt>
<wgt id='1815'> +1.9624250e-12 </wgt>
<wgt id='1816'> +1.3347167e-12 </wgt>
<wgt id='1817'> +1.3177973e-12 </wgt>
<wgt id='1818'> +1.3019893e-12 </wgt>
<wgt id='1819'> +1.3641022e-12 </wgt>
<wgt id='1820'> +1.3404620e-12 </wgt>
<wgt id='1821'> +1.3817631e-12 </wgt>
<wgt id='1822'> +1.3570282e-12 </wgt>
<wgt id='1823'> +1.3050229e-12 </wgt>
<wgt id='1824'> +1.3078531e-12 </wgt>
<wgt id='1825'> +1.3265334e-12 </wgt>
<wgt id='1826'> +1.3755333e-12 </wgt>
<wgt id='1827'> +1.3509184e-12 </wgt>
<wgt id='1828'> +1.3474159e-12 </wgt>
<wgt id='1829'> +1.3479519e-12 </wgt>
<wgt id='1830'> +1.3657128e-12 </wgt>
<wgt id='1831'> +1.3180536e-12 </wgt>
<wgt id='1832'> +1.2862562e-12 </wgt>
<wgt id='1833'> +1.3104873e-12 </wgt>
<wgt id='1834'> +1.2757633e-12 </wgt>
<wgt id='1835'> +1.3330190e-12 </wgt>
<wgt id='1836'> +1.2807494e-12 </wgt>
<wgt id='1837'> +1.3877516e-12 </wgt>
<wgt id='1838'> +1.3239248e-12 </wgt>
<wgt id='1839'> +1.3697718e-12 </wgt>
<wgt id='1840'> +1.3655750e-12 </wgt>
<wgt id='1841'> +1.3348319e-12 </wgt>
<wgt id='1842'> +1.3339415e-12 </wgt>
<wgt id='1843'> +1.2643713e-12 </wgt>
<wgt id='1844'> +1.3622482e-12 </wgt>
<wgt id='1845'> +1.3146063e-12 </wgt>
<wgt id='1846'> +1.3212217e-12 </wgt>
<wgt id='1847'> +1.3589764e-12 </wgt>
<wgt id='1848'> +1.3482391e-12 </wgt>
<wgt id='1849'> +1.3224815e-12 </wgt>
<wgt id='1850'> +1.3860145e-12 </wgt>
<wgt id='1851'> +1.3329943e-12 </wgt>
<wgt id='1852'> +1.3319806e-12 </wgt>
<wgt id='1853'> +1.3092086e-12 </wgt>
<wgt id='1854'> +1.3135993e-12 </wgt>
<wgt id='1855'> +1.3147119e-12 </wgt>
<wgt id='1856'> +1.3416555e-12 </wgt>
<wgt id='1857'> +1.3461441e-12 </wgt>
<wgt id='1858'> +1.3494855e-12 </wgt>
<wgt id='1859'> +1.3595425e-12 </wgt>
<wgt id='1860'> +1.3526565e-12 </wgt>
<wgt id='1861'> +1.3744200e-12 </wgt>
<wgt id='1862'> +1.3590195e-12 </wgt>
<wgt id='1863'> +1.3268504e-12 </wgt>
<wgt id='1864'> +1.3296395e-12 </wgt>
<wgt id='1865'> +1.3151380e-12 </wgt>
<wgt id='1866'> +1.3518326e-12 </wgt>
<wgt id='1867'> +1.3712505e-12 </wgt>
<wgt id='1868'> +1.3378757e-12 </wgt>
<wgt id='1869'> +1.3691143e-12 </wgt>
<wgt id='1870'> +1.3351384e-12 </wgt>
<wgt id='1871'> +1.3539698e-12 </wgt>
<wgt id='1872'> +1.3325959e-12 </wgt>
<wgt id='1873'> +1.3259694e-12 </wgt>
<wgt id='1874'> +1.3775305e-12 </wgt>
<wgt id='1875'> +1.3141580e-12 </wgt>
<wgt id='1876'> +1.3399696e-12 </wgt>
<wgt id='1877'> +1.3247831e-12 </wgt>
<wgt id='1878'> +1.3332572e-12 </wgt>
<wgt id='1879'> +1.3815086e-12 </wgt>
<wgt id='1880'> +1.2748101e-12 </wgt>
<wgt id='1881'> +1.3404477e-12 </wgt>
<wgt id='1882'> +1.3301280e-12 </wgt>
<wgt id='1883'> +1.3294321e-12 </wgt>
<wgt id='1884'> +1.3572918e-12 </wgt>
<wgt id='1885'> +1.3247602e-12 </wgt>
<wgt id='1886'> +1.3393008e-12 </wgt>
<wgt id='1887'> +1.3384853e-12 </wgt>
<wgt id='1888'> +1.3478475e-12 </wgt>
<wgt id='1889'> +1.3208895e-12 </wgt>
<wgt id='1890'> +1.4093858e-12 </wgt>
<wgt id='1891'> +1.3200747e-12 </wgt>
<wgt id='1892'> +1.4116639e-12 </wgt>
<wgt id='1893'> +1.3431927e-12 </wgt>
<wgt id='1894'> +1.3317152e-12 </wgt>
<wgt id='1895'> +1.3147917e-12 </wgt>
<wgt id='1896'> +1.3219932e-12 </wgt>
<wgt id='1897'> +1.3595104e-12 </wgt>
<wgt id='1898'> +1.3447637e-12 </wgt>
<wgt id='1899'> +1.2954947e-12 </wgt>
<wgt id='1900'> +1.3334469e-12 </wgt>
<wgt id='1901'> +1.3237695e-12 </wgt>
<wgt id='1902'> +1.3189086e-12 </wgt>
<wgt id='1903'> +1.3570935e-12 </wgt>
<wgt id='1904'> +1.3349958e-12 </wgt>
<wgt id='1905'> +1.2988351e-12 </wgt>
<wgt id='1906'> +1.3367333e-12 </wgt>
<wgt id='1907'> +1.3383830e-12 </wgt>
<wgt id='1908'> +1.3026961e-12 </wgt>
<wgt id='1909'> +1.3022576e-12 </wgt>
<wgt id='1910'> +1.3270983e-12 </wgt>
<wgt id='1911'> +1.3078232e-12 </wgt>
<wgt id='1912'> +1.3171866e-12 </wgt>
<wgt id='1913'> +1.3026688e-12 </wgt>
<wgt id='1914'> +1.3492489e-12 </wgt>
<wgt id='1915'> +1.3145363e-12 </wgt>
<wgt id='1916'> +1.2639161e-12 </wgt>
<wgt id='1917'> +1.3266804e-12 </wgt>
<wgt id='1918'> +1.3484881e-12 </wgt>
<wgt id='1919'> +1.3135280e-12 </wgt>
</rwgt>
</event>
<event>
 9      1 +1.5607000e-12 2.71415400e+01 7.81860800e-03 1.48037300e-01
       21 -1    0    0  501  502 +0.0000000000e+00 +0.0000000000e+00 +7.1362617029e+01 7.1362617029e+01 0.0000000000e+00 0.0000e+00 1.0000e+00
        2 -1    0    0  502    0 -0.0000000000e+00 -0.0000000000e+00 -3.7442680747e+01 3.7442680747e+01 0.0000000000e+00 0.0000e+00 1.0000e+00
     1023  2    1    2    0    0 +1.9485387673e+00 +2.2534613187e+01 -3.0323628178e+01 4.0696258953e+01 1.5001915615e+01 0.0000e+00 0.0000e+00
  1000023  2    3    3    0    0 +2.6157757066e+00 +7.4315471950e+00 -5.1267921808e+00 1.0889743696e+01 5.4983946249e+00 0.0000e+00 0.0000e+00
        2  1    1    2  501    0 -1.9485387673e+00 -2.2534613187e+01 +6.4243564460e+01 6.8109038822e+01 0.0000000000e+00 0.0000e+00 1.0000e+00
  1000022  1    4    4    0    0 +2.0284880726e+00 +6.5069835257e+00 -4.8436141606e+00 9.7424943727e+00 5.0000000000e+00 0.0000e+00 1.0000e+00
      -11  1    4    4    0    0 +5.3922843958e-02 +4.3767150574e-02 +2.2719942539e-02 7.3073206307e-02 5.1100000000e-04 0.0000e+00 1.0000e+00
       11  1    4    4    0    0 +5.3336479008e-01 +8.8079651865e-01 -3.0589796273e-01 1.0741761174e+00 5.1100000000e-04 0.0000e+00 -1.0000e+00
  1000022  1    3    3    0    0 -6.6723693930e-01 +1.5103065992e+01 -2.5196835997e+01 2.9806515257e+01 5.0000000000e+00 0.0000e+00 1.0000e+00
<mgrwt>
<rscale>  1 0.27141538E+02</rscale>
<asrwt>0</asrwt>
<pdfrwt beam="1">  1       21 0.10978864E-01 0.27141538E+02</pdfrwt>
<pdfrwt beam="2">  1        2 0.57604125E-02 0.27141538E+02</pdfrwt>
<totfact> 0.10206168E+06</totfact>
</mgrwt>
<rwgt>
<wgt id='1001'> +1.5607000e-12 </wgt>
<wgt id='1002'> +1.5461335e-12 </wgt>
<wgt id='1003'> +1.5451188e-12 </wgt>
<wgt id='1004'> +1.5609851e-12 </wgt>
<wgt id='1005'> +1.4996234e-12 </wgt>
<wgt id='1006'> +1.3618111e-12 </wgt>
<wgt id='1007'> +1.3682546e-12 </wgt>
<wgt id='1008'> +1.3680834e-12 </wgt>
<wgt id='1009'> +1.3571892e-12 </wgt>
<wgt id='1010'> +1.3481234e-12 </wgt>
<wgt id='1011'> +1.8310923e-12 </wgt>
<wgt id='1012'> +1.7795476e-12 </wgt>
<wgt id='1013'> +1.7771342e-12 </wgt>
<wgt id='1014'> +1.8405546e-12 </wgt>
<wgt id='1015'> +1.6909358e-12 </wgt>
<wgt id='1016'> +1.7642431e-12 </wgt>
<wgt id='1017'> +1.7021287e-12 </wgt>
<wgt id='1018'> +1.6994152e-12 </wgt>
<wgt id='1019'> +1.7771342e-12 </wgt>
<wgt id='1020'> +1.6083237e-12 </wgt>
<wgt id='1021'> +1.5394155e-12 </wgt>
<wgt id='1022'> +1.5063029e-12 </wgt>
<wgt id='1023'> +1.5047010e-12 </wgt>
<wgt id='1024'> +1.5451188e-12 </wgt>
<wgt id='1025'> +1.4458423e-12 </wgt>
<wgt id='1026'> +2.0698994e-12 </wgt>
<wgt id='1027'> +1.9590928e-12 </wgt>
<wgt id='1028'> +1.9545999e-12 </wgt>
<wgt id='1029'> +2.0954156e-12 </wgt>
<wgt id='1030'> +1.8135035e-12 </wgt>
<wgt id='1031'> +1.3135127e-12 </wgt>
<wgt id='1032'> +1.3561683e-12 </wgt>
<wgt id='1033'> +1.3571892e-12 </wgt>
<wgt id='1034'> +1.2985283e-12 </wgt>
<wgt id='1035'> +1.3673613e-12 </wgt>
<wgt id='1036'> +1.1461243e-12 </wgt>
<wgt id='1037'> +1.2001444e-12 </wgt>
<wgt id='1038'> +1.2016862e-12 </wgt>
<wgt id='1039'> +1.1289977e-12 </wgt>
<wgt id='1040'> +1.2292231e-12 </wgt>
<wgt id='1041'> +1.5410796e-12 </wgt>
<wgt id='1042'> +1.5609041e-12 </wgt>
<wgt id='1043'> +1.5609851e-12 </wgt>
<wgt id='1044'> +1.5310922e-12 </wgt>
<wgt id='1045'> +1.5418005e-12 </wgt>
<wgt id='1046'> +1.5607000e-12 </wgt>
<wgt id='1047'> +1.5745800e-12 </wgt>
<wgt id='1048'> +1.5288250e-12 </wgt>
<wgt id='1049'> +1.5434044e-12 </wgt>
<wgt id='1050'> +1.5472871e-12 </wgt>
<wgt id='1051'> +1.5841231e-12 </wgt>
<wgt id='1052'> +1.5727450e-12 </wgt>
<wgt id='1053'> +1.5423251e-12 </wgt>
<wgt id='1054'> +1.5279463e-12 </wgt>
<wgt id='1055'> +1.5335149e-12 </wgt>
<wgt id='1056'> +1.5801442e-12 </wgt>
<wgt id='1057'> +1.5958461e-12 </wgt>
<wgt id='1058'> +1.5021679e-12 </wgt>
<wgt id='1059'> +1.5554736e-12 </wgt>
<wgt id='1060'> +1.5633294e-12 </wgt>
<wgt id='1061'> +1.5805213e-12 </wgt>
<wgt id='1062'> +1.5778709e-12 </wgt>
<wgt id='1063'> +1.5978094e-12 </wgt>
<wgt id='1064'> +1.5455201e-12 </wgt>
<wgt id='1065'> +1.5589425e-12 </wgt>
<wgt id='1066'> +1.5599295e-12 </wgt>
<wgt id='1067'> +1.5120307e-12 </wgt>
<wgt id='1068'> +1.5758734e-12 </wgt>
<wgt id='1069'> +1.5656226e-12 </wgt>
<wgt id='1070'> +1.5301450e-12 </wgt>
<wgt id='1071'> +1.5021107e-12 </wgt>
<wgt id='1072'> +1.5846636e-12 </wgt>
<wgt id='1073'> +1.5880279e-12 </wgt>
<wgt id='1074'> +1.5325460e-12 </wgt>
<wgt id='1075'> +1.5814041e-12 </wgt>
<wgt id='1076'> +1.5772959e-12 </wgt>
<wgt id='1077'> +1.5725476e-12 </wgt>
<wgt id='1078'> +1.5303039e-12 </wgt>
<wgt id='1079'> +1.5460996e-12 </wgt>
<wgt id='1080'> +1.5162586e-12 </wgt>
<wgt id='1081'> +1.6313727e-12 </wgt>
<wgt id='1082'> +1.5399576e-12 </wgt>
<wgt id='1083'> +1.5823510e-12 </wgt>
<wgt id='1084'> +1.5600590e-12 </wgt>
<wgt id='1085'> +1.5582456e-12 </wgt>
<wgt id='1086'> +1.5604776e-12 </wgt>
<wgt id='1087'> +1.5814711e-12 </wgt>
<wgt id='1088'> +1.5267475e-12 </wgt>
<wgt id='1089'> +1.5786123e-12 </wgt>
<wgt id='1090'> +1.5597128e-12 </wgt>
<wgt id='1091'> +1.5763555e-12 </wgt>
<wgt id='1092'> +1.5804520e-12 </wgt>
<wgt id='1093'> +1.5322386e-12 </wgt>
<wgt id='1094'> +1.5465712e-12 </wgt>
<wgt id='1095'> +1.5870914e-12 </wgt>
<wgt id='1096'> +1.6023518e-12 </wgt>
<wgt id='1097'> +1.5551485e-12 </wgt>
<wgt id='1098'> +1.5264594e-12 </wgt>
<wgt id='1099'> +1.5699210e-12 </wgt>
<wgt id='1100'> +1.5331211e-12 </wgt>
<wgt id='1101'> +1.5594828e-12 </wgt>
<wgt id='1102'> +1.5606651e-12 </wgt>
<wgt id='1103'> +1.5699449e-12 </wgt>
<wgt id='1104'> +1.5293216e-12 </wgt>
<wgt id='1105'> +1.6101970e-12 </wgt>
<wgt id='1106'> +1.5788077e-12 </wgt>
<wgt id='1107'> +1.5562353e-12 </wgt>
<wgt id='1108'> +1.5419550e-12 </wgt>
<wgt id='1109'> +1.6078091e-12 </wgt>
<wgt id='1110'> +1.5500759e-12 </wgt>
<wgt id='1111'> +1.5586809e-12 </wgt>
<wgt id='1112'> +1.5931413e-12 </wgt>
<wgt id='1113'> +1.5672804e-12 </wgt>
<wgt id='1114'> +1.5814161e-12 </wgt>
<wgt id='1115'> +1.5262015e-12 </wgt>
<wgt id='1116'> +1.5148879e-12 </wgt>
<wgt id='1117'> +1.5779377e-12 </wgt>
<wgt id='1118'> +1.6671400e-12 </wgt>
<wgt id='1119'> +1.5271096e-12 </wgt>
<wgt id='1120'> +1.5726088e-12 </wgt>
<wgt id='1121'> +1.5673665e-12 </wgt>
<wgt id='1122'> +1.6337380e-12 </wgt>
<wgt id='1123'> +1.5158344e-12 </wgt>
<wgt id='1124'> +1.5425856e-12 </wgt>
<wgt id='1125'> +1.5586560e-12 </wgt>
<wgt id='1126'> +1.5888398e-12 </wgt>
<wgt id='1127'> +1.5284717e-12 </wgt>
<wgt id='1128'> +1.5778709e-12 </wgt>
<wgt id='1129'> +1.5677156e-12 </wgt>
<wgt id='1130'> +1.5608007e-12 </wgt>
<wgt id='1131'> +1.5488669e-12 </wgt>
<wgt id='1132'> +1.5439397e-12 </wgt>
<wgt id='1133'> +1.5581983e-12 </wgt>
<wgt id='1134'> +1.5955266e-12 </wgt>
<wgt id='1135'> +1.5423968e-12 </wgt>
<wgt id='1136'> +1.5365141e-12 </wgt>
<wgt id='1137'> +1.5298364e-12 </wgt>
<wgt id='1138'> +1.5836116e-12 </wgt>
<wgt id='1139'> +1.5790998e-12 </wgt>
<wgt id='1140'> +1.5818103e-12 </wgt>
<wgt id='1141'> +1.5149791e-12 </wgt>
<wgt id='1142'> +1.5435950e-12 </wgt>
<wgt id='1143'> +1.5761780e-12 </wgt>
<wgt id='1144'> +1.5692628e-12 </wgt>
<wgt id='1145'> +1.5402497e-12 </wgt>
<wgt id='1146'> +1.5553804e-12 </wgt>
<wgt id='1147'> +1.2643388e-12 </wgt>
<wgt id='1148'> +1.2870888e-12 </wgt>
<wgt id='1149'> +1.3325202e-12 </wgt>
<wgt id='1150'> +1.2956867e-12 </wgt>
<wgt id='1151'> +1.2303583e-12 </wgt>
<wgt id='1152'> +1.5156155e-12 </wgt>
<wgt id='1153'> +1.5073946e-12 </wgt>
<wgt id='1154'> +1.5203639e-12 </wgt>
<wgt id='1155'> +1.5152188e-12 </wgt>
<wgt id='1156'> +1.5158297e-12 </wgt>
<wgt id='1157'> +1.5178993e-12 </wgt>
<wgt id='1158'> +1.5124960e-12 </wgt>
<wgt id='1159'> +1.5175876e-12 </wgt>
<wgt id='1160'> +1.5143730e-12 </wgt>
<wgt id='1161'> +1.5126398e-12 </wgt>
<wgt id='1162'> +1.5176411e-12 </wgt>
<wgt id='1163'> +1.5197376e-12 </wgt>
<wgt id='1164'> +1.5114963e-12 </wgt>
<wgt id='1165'> +1.5069104e-12 </wgt>
<wgt id='1166'> +1.5239256e-12 </wgt>
<wgt id='1167'> +1.5193479e-12 </wgt>
<wgt id='1168'> +1.5091937e-12 </wgt>
<wgt id='1169'> +1.5163764e-12 </wgt>
<wgt id='1170'> +1.5149904e-12 </wgt>
<wgt id='1171'> +1.5127345e-12 </wgt>
<wgt id='1172'> +1.5189195e-12 </wgt>
<wgt id='1173'> +1.5088667e-12 </wgt>
<wgt id='1174'> +1.5214402e-12 </wgt>
<wgt id='1175'> +1.5147240e-12 </wgt>
<wgt id='1176'> +1.5154471e-12 </wgt>
<wgt id='1177'> +1.5176075e-12 </wgt>
<wgt id='1178'> +1.5101506e-12 </wgt>
<wgt id='1179'> +1.5253479e-12 </wgt>
<wgt id='1180'> +1.5005927e-12 </wgt>
<wgt id='1181'> +1.5075242e-12 </wgt>
<wgt id='1182'> +1.5236009e-12 </wgt>
<wgt id='1183'> +1.5170713e-12 </wgt>
<wgt id='1184'> +1.5154914e-12 </wgt>
<wgt id='1185'> +1.5097375e-12 </wgt>
<wgt id='1186'> +1.5188790e-12 </wgt>
<wgt id='1187'> +1.5145135e-12 </wgt>
<wgt id='1188'> +1.5159864e-12 </wgt>
<wgt id='1189'> +1.5123753e-12 </wgt>
<wgt id='1190'> +1.5071997e-12 </wgt>
<wgt id='1191'> +1.5071797e-12 </wgt>
<wgt id='1192'> +1.5179724e-12 </wgt>
<wgt id='1193'> +1.3002660e-12 </wgt>
<wgt id='1194'> +1.3013668e-12 </wgt>
<wgt id='1195'> +1.2993437e-12 </wgt>
<wgt id='1196'> +1.3068053e-12 </wgt>
<wgt id='1197'> +1.2930048e-12 </wgt>
<wgt id='1198'> +1.3005058e-12 </wgt>
<wgt id='1199'> +1.2999052e-12 </wgt>
<wgt id='1200'> +1.3021600e-12 </wgt>
<wgt id='1201'> +1.2990198e-12 </wgt>
<wgt id='1202'> +1.2986117e-12 </wgt>
<wgt id='1203'> +1.3026365e-12 </wgt>
<wgt id='1204'> +1.2903948e-12 </wgt>
<wgt id='1205'> +1.3063676e-12 </wgt>
<wgt id='1206'> +1.3042458e-12 </wgt>
<wgt id='1207'> +1.2948705e-12 </wgt>
<wgt id='1208'> +1.2921263e-12 </wgt>
<wgt id='1209'> +1.3032021e-12 </wgt>
<wgt id='1210'> +1.3083454e-12 </wgt>
<wgt id='1211'> +1.2848421e-12 </wgt>
<wgt id='1212'> +1.2997405e-12 </wgt>
<wgt id='1213'> +1.3007113e-12 </wgt>
<wgt id='1214'> +1.2872533e-12 </wgt>
<wgt id='1215'> +1.3218912e-12 </wgt>
<wgt id='1216'> +1.3072239e-12 </wgt>
<wgt id='1217'> +1.2954373e-12 </wgt>
<wgt id='1218'> +1.3045075e-12 </wgt>
<wgt id='1219'> +1.2980391e-12 </wgt>
<wgt id='1220'> +1.3031359e-12 </wgt>
<wgt id='1221'> +1.2999695e-12 </wgt>
<wgt id='1222'> +1.2961183e-12 </wgt>
<wgt id='1223'> +1.3058775e-12 </wgt>
<wgt id='1224'> +1.3017314e-12 </wgt>
<wgt id='1225'> +1.2996972e-12 </wgt>
<wgt id='1226'> +1.2981961e-12 </wgt>
<wgt id='1227'> +1.3017177e-12 </wgt>
<wgt id='1228'> +1.2949851e-12 </wgt>
<wgt id='1229'> +1.3024280e-12 </wgt>
<wgt id='1230'> +1.2920880e-12 </wgt>
<wgt id='1231'> +1.2942292e-12 </wgt>
<wgt id='1232'> +1.2978770e-12 </wgt>
<wgt id='1233'> +1.3008958e-12 </wgt>
<wgt id='1234'> +1.3002660e-12 </wgt>
<wgt id='1235'> +1.2918351e-12 </wgt>
<wgt id='1236'> +1.2949016e-12 </wgt>
<wgt id='1237'> +1.2977030e-12 </wgt>
<wgt id='1238'> +1.3024461e-12 </wgt>
<wgt id='1239'> +1.3044236e-12 </wgt>
<wgt id='1240'> +1.3062988e-12 </wgt>
<wgt id='1241'> +1.2913146e-12 </wgt>
<wgt id='1242'> +1.2890256e-12 </wgt>
<wgt id='1243'> +1.2935980e-12 </wgt>
<wgt id='1244'> +1.2828813e-12 </wgt>
<wgt id='1245'> +1.2975345e-12 </wgt>
<wgt id='1246'> +1.2920972e-12 </wgt>
<wgt id='1247'> +1.2906593e-12 </wgt>
<wgt id='1248'> +1.2912176e-12 </wgt>
<wgt id='1249'> +1.2914130e-12 </wgt>
<wgt id='1250'> +1.2928046e-12 </wgt>
<wgt id='1251'> +1.2902648e-12 </wgt>
<wgt id='1252'> +1.2886396e-12 </wgt>
<wgt id='1253'> +1.2934130e-12 </wgt>
<wgt id='1254'> +1.2810109e-12 </wgt>
<wgt id='1255'> +1.2975105e-12 </wgt>
<wgt id='1256'> +1.2957023e-12 </wgt>
<wgt id='1257'> +1.2802132e-12 </wgt>
<wgt id='1258'> +1.3104563e-12 </wgt>
<wgt id='1259'> +1.2739668e-12 </wgt>
<wgt id='1260'> +1.2946218e-12 </wgt>
<wgt id='1261'> +1.2875533e-12 </wgt>
<wgt id='1262'> +1.2921159e-12 </wgt>
<wgt id='1263'> +1.2907295e-12 </wgt>
<wgt id='1264'> +1.2947043e-12 </wgt>
<wgt id='1265'> +1.2895208e-12 </wgt>
<wgt id='1266'> +1.2896697e-12 </wgt>
<wgt id='1267'> +1.2927675e-12 </wgt>
<wgt id='1268'> +1.2909696e-12 </wgt>
<wgt id='1269'> +1.2948749e-12 </wgt>
<wgt id='1270'> +1.2854082e-12 </wgt>
<wgt id='1271'> +1.2842883e-12 </wgt>
<wgt id='1272'> +1.2913482e-12 </wgt>
<wgt id='1273'> +1.2906420e-12 </wgt>
<wgt id='1274'> +1.2933747e-12 </wgt>
<wgt id='1275'> +1.2870493e-12 </wgt>
<wgt id='1276'> +1.2937989e-12 </wgt>
<wgt id='1277'> +1.2869665e-12 </wgt>
<wgt id='1278'> +1.2912894e-12 </wgt>
<wgt id='1279'> +1.2832655e-12 </wgt>
<wgt id='1280'> +1.2922800e-12 </wgt>
<wgt id='1281'> +1.2849704e-12 </wgt>
<wgt id='1282'> +1.2913146e-12 </wgt>
<wgt id='1283'> +1.2824393e-12 </wgt>
<wgt id='1284'> +1.2857319e-12 </wgt>
<wgt id='1285'> +1.2887808e-12 </wgt>
<wgt id='1286'> +1.2936751e-12 </wgt>
<wgt id='1287'> +1.2957448e-12 </wgt>
<wgt id='1288'> +1.2974831e-12 </wgt>
<wgt id='1289'> +1.3524641e-12 </wgt>
<wgt id='1290'> +1.3529304e-12 </wgt>
<wgt id='1291'> +1.3519657e-12 </wgt>
<wgt id='1292'> +1.3470760e-12 </wgt>
<wgt id='1293'> +1.3563479e-12 </wgt>
<wgt id='1294'> +1.3527578e-12 </wgt>
<wgt id='1295'> +1.3522013e-12 </wgt>
<wgt id='1296'> +1.3467047e-12 </wgt>
<wgt id='1297'> +1.3595197e-12 </wgt>
<wgt id='1298'> +1.3566189e-12 </wgt>
<wgt id='1299'> +1.3472391e-12 </wgt>
<wgt id='1300'> +1.3549225e-12 </wgt>
<wgt id='1301'> +1.3474970e-12 </wgt>
<wgt id='1302'> +1.3515690e-12 </wgt>
<wgt id='1303'> +1.3536971e-12 </wgt>
<wgt id='1304'> +1.3504900e-12 </wgt>
<wgt id='1305'> +1.3538005e-12 </wgt>
<wgt id='1306'> +1.3471871e-12 </wgt>
<wgt id='1307'> +1.3585393e-12 </wgt>
<wgt id='1308'> +1.3582759e-12 </wgt>
<wgt id='1309'> +1.3480211e-12 </wgt>
<wgt id='1310'> +1.3526289e-12 </wgt>
<wgt id='1311'> +1.3523863e-12 </wgt>
<wgt id='1312'> +1.3490152e-12 </wgt>
<wgt id='1313'> +1.3560220e-12 </wgt>
<wgt id='1314'> +1.3633984e-12 </wgt>
<wgt id='1315'> +1.3366025e-12 </wgt>
<wgt id='1316'> +1.3575377e-12 </wgt>
<wgt id='1317'> +1.3521719e-12 </wgt>
<wgt id='1318'> +1.3601098e-12 </wgt>
<wgt id='1319'> +1.3433431e-12 </wgt>
<wgt id='1320'> +1.3594663e-12 </wgt>
<wgt id='1321'> +1.3465402e-12 </wgt>
<wgt id='1322'> +1.3519262e-12 </wgt>
<wgt id='1323'> +1.3528088e-12 </wgt>
<wgt id='1324'> +1.3498699e-12 </wgt>
<wgt id='1325'> +1.3620378e-12 </wgt>
<wgt id='1326'> +1.3522183e-12 </wgt>
<wgt id='1327'> +1.3540947e-12 </wgt>
<wgt id='1328'> +1.3530060e-12 </wgt>
<wgt id='1329'> +1.3518266e-12 </wgt>
<wgt id='1330'> +1.3333532e-12 </wgt>
<wgt id='1331'> +1.3666869e-12 </wgt>
<wgt id='1332'> +1.3721230e-12 </wgt>
<wgt id='1333'> +1.3378635e-12 </wgt>
<wgt id='1334'> +1.3481952e-12 </wgt>
<wgt id='1335'> +1.3633193e-12 </wgt>
<wgt id='1336'> +1.3472435e-12 </wgt>
<wgt id='1337'> +1.3479044e-12 </wgt>
<wgt id='1338'> +1.3508535e-12 </wgt>
<wgt id='1339'> +1.3524616e-12 </wgt>
<wgt id='1340'> +1.3361791e-12 </wgt>
<wgt id='1341'> +1.3368679e-12 </wgt>
<wgt id='1342'> +1.3354578e-12 </wgt>
<wgt id='1343'> +1.3306563e-12 </wgt>
<wgt id='1344'> +1.3399259e-12 </wgt>
<wgt id='1345'> +1.3366032e-12 </wgt>
<wgt id='1346'> +1.3358314e-12 </wgt>
<wgt id='1347'> +1.3304247e-12 </wgt>
<wgt id='1348'> +1.3426063e-12 </wgt>
<wgt id='1349'> +1.3398972e-12 </wgt>
<wgt id='1350'> +1.3325281e-12 </wgt>
<wgt id='1351'> +1.3386873e-12 </wgt>
<wgt id='1352'> +1.3307398e-12 </wgt>
<wgt id='1353'> +1.3349173e-12 </wgt>
<wgt id='1354'> +1.3384672e-12 </wgt>
<wgt id='1355'> +1.3343089e-12 </wgt>
<wgt id='1356'> +1.3372323e-12 </wgt>
<wgt id='1357'> +1.3322456e-12 </wgt>
<wgt id='1358'> +1.3409908e-12 </wgt>
<wgt id='1359'> +1.3435473e-12 </wgt>
<wgt id='1360'> +1.3298418e-12 </wgt>
<wgt id='1361'> +1.3358174e-12 </wgt>
<wgt id='1362'> +1.3368029e-12 </wgt>
<wgt id='1363'> +1.3302137e-12 </wgt>
<wgt id='1364'> +1.3404062e-12 </wgt>
<wgt id='1365'> +1.3215776e-12 </wgt>
<wgt id='1366'> +1.3479697e-12 </wgt>
<wgt id='1367'> +1.3407431e-12 </wgt>
<wgt id='1368'> +1.3358748e-12 </wgt>
<wgt id='1369'> +1.3427194e-12 </wgt>
<wgt id='1370'> +1.3283848e-12 </wgt>
<wgt id='1371'> +1.3407044e-12 </wgt>
<wgt id='1372'> +1.3306106e-12 </wgt>
<wgt id='1373'> +1.3348040e-12 </wgt>
<wgt id='1374'> +1.3370119e-12 </wgt>
<wgt id='1375'> +1.3335909e-12 </wgt>
<wgt id='1376'> +1.3463221e-12 </wgt>
<wgt id='1377'> +1.3361264e-12 </wgt>
<wgt id='1378'> +1.3379790e-12 </wgt>
<wgt id='1379'> +1.3363135e-12 </wgt>
<wgt id='1380'> +1.3359402e-12 </wgt>
<wgt id='1381'> +1.3167672e-12 </wgt>
<wgt id='1382'> +1.3488901e-12 </wgt>
<wgt id='1383'> +1.3562269e-12 </wgt>
<wgt id='1384'> +1.3204019e-12 </wgt>
<wgt id='1385'> +1.3319770e-12 </wgt>
<wgt id='1386'> +1.3461953e-12 </wgt>
<wgt id='1387'> +1.3296558e-12 </wgt>
<wgt id='1388'> +1.3309885e-12 </wgt>
<wgt id='1389'> +1.3328047e-12 </wgt>
<wgt id='1390'> +1.3363955e-12 </wgt>
<wgt id='1391'> +1.3077802e-12 </wgt>
<wgt id='1392'> +1.2862415e-12 </wgt>
<wgt id='1393'> +1.2931124e-12 </wgt>
<wgt id='1394'> +1.3007552e-12 </wgt>
<wgt id='1395'> +1.3141109e-12 </wgt>
<wgt id='1396'> +1.3080520e-12 </wgt>
<wgt id='1397'> +1.2717247e-12 </wgt>
<wgt id='1398'> +1.2796273e-12 </wgt>
<wgt id='1399'> +1.2867155e-12 </wgt>
<wgt id='1400'> +1.2936180e-12 </wgt>
<wgt id='1401'> +1.3008923e-12 </wgt>
<wgt id='1402'> +1.3144757e-12 </wgt>
<wgt id='1403'> +1.3208979e-12 </wgt>
<wgt id='1404'> +1.3267785e-12 </wgt>
<wgt id='1405'> +1.3080520e-12 </wgt>
<wgt id='1406'> +1.3040878e-12 </wgt>
<wgt id='1407'> +1.3063297e-12 </wgt>
<wgt id='1408'> +1.3097156e-12 </wgt>
<wgt id='1409'> +1.3113921e-12 </wgt>
<wgt id='1410'> +1.3055299e-12 </wgt>
<wgt id='1411'> +1.3050601e-12 </wgt>
<wgt id='1412'> +1.3061605e-12 </wgt>
<wgt id='1413'> +1.3106598e-12 </wgt>
<wgt id='1414'> +1.3004541e-12 </wgt>
<wgt id='1415'> +1.2992440e-12 </wgt>
<wgt id='1416'> +1.3080607e-12 </wgt>
<wgt id='1417'> +1.2981301e-12 </wgt>
<wgt id='1418'> +1.3129421e-12 </wgt>
<wgt id='1419'> +1.3070928e-12 </wgt>
<wgt id='1420'> +1.3040503e-12 </wgt>
<wgt id='1421'> +1.2954532e-12 </wgt>
<wgt id='1422'> +1.3099049e-12 </wgt>
<wgt id='1423'> +1.3052429e-12 </wgt>
<wgt id='1424'> +1.3059053e-12 </wgt>
<wgt id='1425'> +1.3027039e-12 </wgt>
<wgt id='1426'> +1.3086135e-12 </wgt>
<wgt id='1427'> +1.3077701e-12 </wgt>
<wgt id='1428'> +1.3042090e-12 </wgt>
<wgt id='1429'> +1.2998189e-12 </wgt>
<wgt id='1430'> +1.3132917e-12 </wgt>
<wgt id='1431'> +1.3073906e-12 </wgt>
<wgt id='1432'> +1.3042159e-12 </wgt>
<wgt id='1433'> +1.3144495e-12 </wgt>
<wgt id='1434'> +1.2966458e-12 </wgt>
<wgt id='1435'> +1.3098876e-12 </wgt>
<wgt id='1436'> +1.2948426e-12 </wgt>
<wgt id='1437'> +1.3110551e-12 </wgt>
<wgt id='1438'> +1.3037343e-12 </wgt>
<wgt id='1439'> +1.2998864e-12 </wgt>
<wgt id='1440'> +1.3196536e-12 </wgt>
<wgt id='1441'> +1.3074244e-12 </wgt>
<wgt id='1442'> +1.3022977e-12 </wgt>
<wgt id='1443'> +1.3031020e-12 </wgt>
<wgt id='1444'> +1.3110167e-12 </wgt>
<wgt id='1445'> +1.3153571e-12 </wgt>
<wgt id='1446'> +1.3020525e-12 </wgt>
<wgt id='1447'> +1.3055853e-12 </wgt>
<wgt id='1448'> +1.3068607e-12 </wgt>
<wgt id='1449'> +1.3061785e-12 </wgt>
<wgt id='1450'> +1.3049230e-12 </wgt>
<wgt id='1451'> +1.3129724e-12 </wgt>
<wgt id='1452'> +1.2841248e-12 </wgt>
<wgt id='1453'> +1.3073346e-12 </wgt>
<wgt id='1454'> +1.2934446e-12 </wgt>
<wgt id='1455'> +1.2902383e-12 </wgt>
<wgt id='1456'> +1.3110467e-12 </wgt>
<wgt id='1457'> +1.3109600e-12 </wgt>
<wgt id='1458'> +1.3026344e-12 </wgt>
<wgt id='1459'> +1.3074977e-12 </wgt>
<wgt id='1460'> +1.2991252e-12 </wgt>
<wgt id='1461'> +1.3055299e-12 </wgt>
<wgt id='1462'> +1.2999153e-12 </wgt>
<wgt id='1463'> +1.3130899e-12 </wgt>
<wgt id='1464'> +1.3070508e-12 </wgt>
<wgt id='1465'> +1.2794668e-12 </wgt>
<wgt id='1466'> +1.2855890e-12 </wgt>
<wgt id='1467'> +1.2918702e-12 </wgt>
<wgt id='1468'> +1.2962236e-12 </wgt>
<wgt id='1469'> +1.3018747e-12 </wgt>
<wgt id='1470'> +1.3126672e-12 </wgt>
<wgt id='1471'> +1.3165004e-12 </wgt>
<wgt id='1472'> +1.3216854e-12 </wgt>
<wgt id='1473'> +1.3070508e-12 </wgt>
<wgt id='1474'> +1.3027861e-12 </wgt>
<wgt id='1475'> +1.3041802e-12 </wgt>
<wgt id='1476'> +1.3089375e-12 </wgt>
<wgt id='1477'> +1.3107424e-12 </wgt>
<wgt id='1478'> +1.2787958e-12 </wgt>
<wgt id='1479'> +1.2759826e-12 </wgt>
<wgt id='1480'> +1.2803691e-12 </wgt>
<wgt id='1481'> +1.2728780e-12 </wgt>
<wgt id='1482'> +1.2752696e-12 </wgt>
<wgt id='1483'> +1.2657293e-12 </wgt>
<wgt id='1484'> +1.2813177e-12 </wgt>
<wgt id='1485'> +1.2719937e-12 </wgt>
<wgt id='1486'> +1.2797319e-12 </wgt>
<wgt id='1487'> +1.2766029e-12 </wgt>
<wgt id='1488'> +1.2760163e-12 </wgt>
<wgt id='1489'> +1.3033467e-12 </wgt>
<wgt id='1490'> +1.2759243e-12 </wgt>
<wgt id='1491'> +1.2762455e-12 </wgt>
<wgt id='1492'> +1.2811803e-12 </wgt>
<wgt id='1493'> +1.2710372e-12 </wgt>
<wgt id='1494'> +1.2914583e-12 </wgt>
<wgt id='1495'> +1.2726217e-12 </wgt>
<wgt id='1496'> +1.2775477e-12 </wgt>
<wgt id='1497'> +1.2780319e-12 </wgt>
<wgt id='1498'> +1.2782535e-12 </wgt>
<wgt id='1499'> +1.2793529e-12 </wgt>
<wgt id='1500'> +1.2785173e-12 </wgt>
<wgt id='1501'> +1.2789437e-12 </wgt>
<wgt id='1502'> +1.2798695e-12 </wgt>
<wgt id='1503'> +1.2770809e-12 </wgt>
<wgt id='1504'> +1.2767666e-12 </wgt>
<wgt id='1505'> +1.2777663e-12 </wgt>
<wgt id='1506'> +1.2763996e-12 </wgt>
<wgt id='1507'> +1.2774202e-12 </wgt>
<wgt id='1508'> +1.2827691e-12 </wgt>
<wgt id='1509'> +1.3279191e-12 </wgt>
<wgt id='1510'> +1.3271718e-12 </wgt>
<wgt id='1511'> +1.3320047e-12 </wgt>
<wgt id='1512'> +1.3310715e-12 </wgt>
<wgt id='1513'> +1.3334893e-12 </wgt>
<wgt id='1514'> +1.3257843e-12 </wgt>
<wgt id='1515'> +1.3229770e-12 </wgt>
<wgt id='1516'> +1.3232973e-12 </wgt>
<wgt id='1517'> +1.3241923e-12 </wgt>
<wgt id='1518'> +1.3336297e-12 </wgt>
<wgt id='1519'> +1.3229082e-12 </wgt>
<wgt id='1520'> +1.3306851e-12 </wgt>
<wgt id='1521'> +1.3362533e-12 </wgt>
<wgt id='1522'> +1.3356777e-12 </wgt>
<wgt id='1523'> +1.3375369e-12 </wgt>
<wgt id='1524'> +1.3308390e-12 </wgt>
<wgt id='1525'> +1.3294637e-12 </wgt>
<wgt id='1526'> +1.3242278e-12 </wgt>
<wgt id='1527'> +1.3287192e-12 </wgt>
<wgt id='1528'> +1.3293992e-12 </wgt>
<wgt id='1529'> +1.3292720e-12 </wgt>
<wgt id='1530'> +1.3328726e-12 </wgt>
<wgt id='1531'> +1.3282527e-12 </wgt>
<wgt id='1532'> +1.3244079e-12 </wgt>
<wgt id='1533'> +1.3277938e-12 </wgt>
<wgt id='1534'> +1.3303537e-12 </wgt>
<wgt id='1535'> +1.3188045e-12 </wgt>
<wgt id='1536'> +1.3245742e-12 </wgt>
<wgt id='1537'> +1.3258340e-12 </wgt>
<wgt id='1538'> +1.3299478e-12 </wgt>
<wgt id='1539'> +1.3347740e-12 </wgt>
<wgt id='1540'> +1.3297325e-12 </wgt>
<wgt id='1541'> +1.3284294e-12 </wgt>
<wgt id='1542'> +1.3265730e-12 </wgt>
<wgt id='1543'> +1.3269547e-12 </wgt>
<wgt id='1544'> +1.3269186e-12 </wgt>
<wgt id='1545'> +1.3293492e-12 </wgt>
<wgt id='1546'> +1.3268062e-12 </wgt>
<wgt id='1547'> +1.3284990e-12 </wgt>
<wgt id='1548'> +1.3270673e-12 </wgt>
<wgt id='1549'> +1.3269611e-12 </wgt>
<wgt id='1550'> +1.3307475e-12 </wgt>
<wgt id='1551'> +1.3293519e-12 </wgt>
<wgt id='1552'> +1.3280491e-12 </wgt>
<wgt id='1553'> +1.3297356e-12 </wgt>
<wgt id='1554'> +1.3307243e-12 </wgt>
<wgt id='1555'> +1.3297926e-12 </wgt>
<wgt id='1556'> +1.3276419e-12 </wgt>
<wgt id='1557'> +1.3286286e-12 </wgt>
<wgt id='1558'> +1.3283591e-12 </wgt>
<wgt id='1559'> +1.3281557e-12 </wgt>
<wgt id='1560'> +1.3301054e-12 </wgt>
<wgt id='1561'> +1.3270491e-12 </wgt>
<wgt id='1562'> +1.3271891e-12 </wgt>
<wgt id='1563'> +1.3282362e-12 </wgt>
<wgt id='1564'> +1.3252535e-12 </wgt>
<wgt id='1565'> +1.3284816e-12 </wgt>
<wgt id='1566'> +1.3274164e-12 </wgt>
<wgt id='1567'> +1.3274898e-12 </wgt>
<wgt id='1568'> +1.3291040e-12 </wgt>
<wgt id='1569'> +1.3280942e-12 </wgt>
<wgt id='1570'> +1.3266310e-12 </wgt>
<wgt id='1571'> +1.3280420e-12 </wgt>
<wgt id='1572'> +1.3258713e-12 </wgt>
<wgt id='1573'> +1.3260876e-12 </wgt>
<wgt id='1574'> +1.3283478e-12 </wgt>
<wgt id='1575'> +1.3289071e-12 </wgt>
<wgt id='1576'> +1.3271024e-12 </wgt>
<wgt id='1577'> +1.3267622e-12 </wgt>
<wgt id='1578'> +1.3279891e-12 </wgt>
<wgt id='1579'> +1.3277766e-12 </wgt>
<wgt id='1580'> +1.3291761e-12 </wgt>
<wgt id='1581'> +1.3276634e-12 </wgt>
<wgt id='1582'> +1.3273304e-12 </wgt>
<wgt id='1583'> +1.3277515e-12 </wgt>
<wgt id='1584'> +1.3282600e-12 </wgt>
<wgt id='1585'> +1.3272290e-12 </wgt>
<wgt id='1586'> +1.3274739e-12 </wgt>
<wgt id='1587'> +1.3281515e-12 </wgt>
<wgt id='1588'> +1.3289018e-12 </wgt>
<wgt id='1589'> +1.3281458e-12 </wgt>
<wgt id='1590'> +1.3275643e-12 </wgt>
<wgt id='1591'> +1.3281642e-12 </wgt>
<wgt id='1592'> +1.3273025e-12 </wgt>
<wgt id='1593'> +1.3285757e-12 </wgt>
<wgt id='1594'> +1.3281277e-12 </wgt>
<wgt id='1595'> +1.3279802e-12 </wgt>
<wgt id='1596'> +1.3280251e-12 </wgt>
<wgt id='1597'> +1.3273702e-12 </wgt>
<wgt id='1598'> +1.3278702e-12 </wgt>
<wgt id='1599'> +1.3288331e-12 </wgt>
<wgt id='1600'> +1.3273579e-12 </wgt>
<wgt id='1601'> +1.3281391e-12 </wgt>
<wgt id='1602'> +1.3281591e-12 </wgt>
<wgt id='1603'> +1.3283747e-12 </wgt>
<wgt id='1604'> +1.3277898e-12 </wgt>
<wgt id='1605'> +1.3280078e-12 </wgt>
<wgt id='1606'> +1.3272347e-12 </wgt>
<wgt id='1607'> +1.3281472e-12 </wgt>
<wgt id='1608'> +1.3273994e-12 </wgt>
<wgt id='1609'> +1.3279591e-12 </wgt>
<wgt id='1610'> +1.3134633e-12 </wgt>
<wgt id='1611'> +1.3400878e-12 </wgt>
<wgt id='1612'> +1.5168798e-12 </wgt>
<wgt id='1613'> +1.5121273e-12 </wgt>
<wgt id='1614'> +1.5298203e-12 </wgt>
<wgt id='1615'> +1.4933031e-12 </wgt>
<wgt id='1616'> +1.5532211e-12 </wgt>
<wgt id='1617'> +1.5455564e-12 </wgt>
<wgt id='1618'> +1.5206083e-12 </wgt>
<wgt id='1619'> +1.5373581e-12 </wgt>
<wgt id='1620'> +1.4712185e-12 </wgt>
<wgt id='1621'> +1.5212906e-12 </wgt>
<wgt id='1622'> +1.5212685e-12 </wgt>
<wgt id='1623'> +1.5322665e-12 </wgt>
<wgt id='1624'> +1.4895504e-12 </wgt>
<wgt id='1625'> +1.5053160e-12 </wgt>
<wgt id='1626'> +1.4964791e-12 </wgt>
<wgt id='1627'> +1.5050052e-12 </wgt>
<wgt id='1628'> +1.5370905e-12 </wgt>
<wgt id='1629'> +1.5642572e-12 </wgt>
<wgt id='1630'> +1.5261035e-12 </wgt>
<wgt id='1631'> +1.4874626e-12 </wgt>
<wgt id='1632'> +1.4667596e-12 </wgt>
<wgt id='1633'> +1.4763763e-12 </wgt>
<wgt id='1634'> +1.5797928e-12 </wgt>
<wgt id='1635'> +1.5316350e-12 </wgt>
<wgt id='1636'> +1.5477129e-12 </wgt>
<wgt id='1637'> +1.4728083e-12 </wgt>
<wgt id='1638'> +1.5432108e-12 </wgt>
<wgt id='1639'> +1.5306311e-12 </wgt>
<wgt id='1640'> +1.5486444e-12 </wgt>
<wgt id='1641'> +1.4994962e-12 </wgt>
<wgt id='1642'> +1.5064960e-12 </wgt>
<wgt id='1643'> +1.5530830e-12 </wgt>
<wgt id='1644'> +1.4487912e-12 </wgt>
<wgt id='1645'> +1.5298170e-12 </wgt>
<wgt id='1646'> +1.4992769e-12 </wgt>
<wgt id='1647'> +1.5066729e-12 </wgt>
<wgt id='1648'> +1.5216413e-12 </wgt>
<wgt id='1649'> +1.5199688e-12 </wgt>
<wgt id='1650'> +1.5038817e-12 </wgt>
<wgt id='1651'> +1.4754823e-12 </wgt>
<wgt id='1652'> +1.5005245e-12 </wgt>
<wgt id='1653'> +1.5579509e-12 </wgt>
<wgt id='1654'> +1.5287218e-12 </wgt>
<wgt id='1655'> +1.4820344e-12 </wgt>
<wgt id='1656'> +1.4538733e-12 </wgt>
<wgt id='1657'> +1.5001987e-12 </wgt>
<wgt id='1658'> +1.4806501e-12 </wgt>
<wgt id='1659'> +1.4895504e-12 </wgt>
<wgt id='1660'> +1.5204767e-12 </wgt>
<wgt id='1661'> +1.4860530e-12 </wgt>
<wgt id='1662'> +1.5161759e-12 </wgt>
<wgt id='1663'> +1.5111518e-12 </wgt>
<wgt id='1664'> +1.5199924e-12 </wgt>
<wgt id='1665'> +1.4825103e-12 </wgt>
<wgt id='1666'> +1.5292631e-12 </wgt>
<wgt id='1667'> +1.4926659e-12 </wgt>
<wgt id='1668'> +1.5674684e-12 </wgt>
<wgt id='1669'> +1.4691271e-12 </wgt>
<wgt id='1670'> +1.5316378e-12 </wgt>
<wgt id='1671'> +1.4872244e-12 </wgt>
<wgt id='1672'> +1.5274280e-12 </wgt>
<wgt id='1673'> +1.4954302e-12 </wgt>
<wgt id='1674'> +1.4918043e-12 </wgt>
<wgt id='1675'> +1.5563335e-12 </wgt>
<wgt id='1676'> +1.5595330e-12 </wgt>
<wgt id='1677'> +1.5795246e-12 </wgt>
<wgt id='1678'> +1.5229149e-12 </wgt>
<wgt id='1679'> +1.5481002e-12 </wgt>
<wgt id='1680'> +1.5448365e-12 </wgt>
<wgt id='1681'> +1.5482926e-12 </wgt>
<wgt id='1682'> +1.5228983e-12 </wgt>
<wgt id='1683'> +1.4941261e-12 </wgt>
<wgt id='1684'> +1.5056444e-12 </wgt>
<wgt id='1685'> +1.5108013e-12 </wgt>
<wgt id='1686'> +1.5217513e-12 </wgt>
<wgt id='1687'> +1.5700815e-12 </wgt>
<wgt id='1688'> +1.5282430e-12 </wgt>
<wgt id='1689'> +1.4989627e-12 </wgt>
<wgt id='1690'> +1.5675492e-12 </wgt>
<wgt id='1691'> +1.5753082e-12 </wgt>
<wgt id='1692'> +1.5412503e-12 </wgt>
<wgt id='1693'> +1.5394783e-12 </wgt>
<wgt id='1694'> +1.4447905e-12 </wgt>
<wgt id='1695'> +1.5219552e-12 </wgt>
<wgt id='1696'> +1.5795610e-12 </wgt>
<wgt id='1697'> +1.5234701e-12 </wgt>
<wgt id='1698'> +1.5120513e-12 </wgt>
<wgt id='1699'> +1.5352438e-12 </wgt>
<wgt id='1700'> +1.5002941e-12 </wgt>
<wgt id='1701'> +1.4893979e-12 </wgt>
<wgt id='1702'> +1.5100208e-12 </wgt>
<wgt id='1703'> +1.5439483e-12 </wgt>
<wgt id='1704'> +1.4786509e-12 </wgt>
<wgt id='1705'> +1.4859997e-12 </wgt>
<wgt id='1706'> +1.5242078e-12 </wgt>
<wgt id='1707'> +1.5118509e-12 </wgt>
<wgt id='1708'> +1.4736682e-12 </wgt>
<wgt id='1709'> +1.5059215e-12 </wgt>
<wgt id='1710'> +1.4869740e-12 </wgt>
<wgt id='1711'> +1.5703781e-12 </wgt>
<wgt id='1712'> +1.5217467e-12 </wgt>
<wgt id='1713'> +1.2530496e-12 </wgt>
<wgt id='1714'> +1.2241650e-12 </wgt>
<wgt id='1715'> +1.2741335e-12 </wgt>
<wgt id='1716'> +1.2738321e-12 </wgt>
<wgt id='1717'> +1.2504861e-12 </wgt>
<wgt id='1718'> +1.2443278e-12 </wgt>
<wgt id='1719'> +1.2545975e-12 </wgt>
<wgt id='1720'> +1.2770036e-12 </wgt>
<wgt id='1721'> +1.2164614e-12 </wgt>
<wgt id='1722'> +1.2344367e-12 </wgt>
<wgt id='1723'> +1.1969731e-12 </wgt>
<wgt id='1724'> +1.2260897e-12 </wgt>
<wgt id='1725'> +1.2631295e-12 </wgt>
<wgt id='1726'> +1.3122173e-12 </wgt>
<wgt id='1727'> +1.2155746e-12 </wgt>
<wgt id='1728'> +1.2399195e-12 </wgt>
<wgt id='1729'> +1.2604295e-12 </wgt>
<wgt id='1730'> +1.2256664e-12 </wgt>
<wgt id='1731'> +1.2165052e-12 </wgt>
<wgt id='1732'> +1.2743476e-12 </wgt>
<wgt id='1733'> +1.2800391e-12 </wgt>
<wgt id='1734'> +1.2697944e-12 </wgt>
<wgt id='1735'> +1.2282353e-12 </wgt>
<wgt id='1736'> +1.3211218e-12 </wgt>
<wgt id='1737'> +1.2765730e-12 </wgt>
<wgt id='1738'> +1.2848396e-12 </wgt>
<wgt id='1739'> +1.2048041e-12 </wgt>
<wgt id='1740'> +1.2534331e-12 </wgt>
<wgt id='1741'> +1.2657636e-12 </wgt>
<wgt id='1742'> +1.2523823e-12 </wgt>
<wgt id='1743'> +1.2763058e-12 </wgt>
<wgt id='1744'> +1.2819636e-12 </wgt>
<wgt id='1745'> +1.1718327e-12 </wgt>
<wgt id='1746'> +1.2848215e-12 </wgt>
<wgt id='1747'> +1.2548294e-12 </wgt>
<wgt id='1748'> +1.2641645e-12 </wgt>
<wgt id='1749'> +1.2914872e-12 </wgt>
<wgt id='1750'> +1.2683441e-12 </wgt>
<wgt id='1751'> +1.2093022e-12 </wgt>
<wgt id='1752'> +1.2359776e-12 </wgt>
<wgt id='1753'> +1.2718086e-12 </wgt>
<wgt id='1754'> +1.2622488e-12 </wgt>
<wgt id='1755'> +1.2972506e-12 </wgt>
<wgt id='1756'> +1.2715144e-12 </wgt>
<wgt id='1757'> +1.2292343e-12 </wgt>
<wgt id='1758'> +1.2742775e-12 </wgt>
<wgt id='1759'> +1.2697684e-12 </wgt>
<wgt id='1760'> +1.2144288e-12 </wgt>
<wgt id='1761'> +1.2275668e-12 </wgt>
<wgt id='1762'> +1.2653693e-12 </wgt>
<wgt id='1763'> +1.2783162e-12 </wgt>
<wgt id='1764'> +1.2418663e-12 </wgt>
<wgt id='1765'> +1.2536978e-12 </wgt>
<wgt id='1766'> +1.2443529e-12 </wgt>
<wgt id='1767'> +1.2536476e-12 </wgt>
<wgt id='1768'> +1.2612112e-12 </wgt>
<wgt id='1769'> +1.2174265e-12 </wgt>
<wgt id='1770'> +1.2976213e-12 </wgt>
<wgt id='1771'> +1.2556048e-12 </wgt>
<wgt id='1772'> +1.2897837e-12 </wgt>
<wgt id='1773'> +1.2473547e-12 </wgt>
<wgt id='1774'> +1.2633902e-12 </wgt>
<wgt id='1775'> +1.2655773e-12 </wgt>
<wgt id='1776'> +1.2848222e-12 </wgt>
<wgt id='1777'> +1.1928013e-12 </wgt>
<wgt id='1778'> +1.2498906e-12 </wgt>
<wgt id='1779'> +1.2669847e-12 </wgt>
<wgt id='1780'> +1.2417271e-12 </wgt>
<wgt id='1781'> +1.2496327e-12 </wgt>
<wgt id='1782'> +1.2233157e-12 </wgt>
<wgt id='1783'> +1.2524903e-12 </wgt>
<wgt id='1784'> +1.2724324e-12 </wgt>
<wgt id='1785'> +1.2243450e-12 </wgt>
<wgt id='1786'> +1.1561456e-12 </wgt>
<wgt id='1787'> +1.2839837e-12 </wgt>
<wgt id='1788'> +1.2684573e-12 </wgt>
<wgt id='1789'> +1.1920933e-12 </wgt>
<wgt id='1790'> +1.2580954e-12 </wgt>
<wgt id='1791'> +1.2755480e-12 </wgt>
<wgt id='1792'> +1.2327115e-12 </wgt>
<wgt id='1793'> +1.2577721e-12 </wgt>
<wgt id='1794'> +1.2538886e-12 </wgt>
<wgt id='1795'> +1.2555663e-12 </wgt>
<wgt id='1796'> +1.2476539e-12 </wgt>
<wgt id='1797'> +1.2642074e-12 </wgt>
<wgt id='1798'> +1.2422639e-12 </wgt>
<wgt id='1799'> +1.2556173e-12 </wgt>
<wgt id='1800'> +1.2350217e-12 </wgt>
<wgt id='1801'> +1.2524496e-12 </wgt>
<wgt id='1802'> +1.2534627e-12 </wgt>
<wgt id='1803'> +1.2646217e-12 </wgt>
<wgt id='1804'> +1.2303498e-12 </wgt>
<wgt id='1805'> +1.2710477e-12 </wgt>
<wgt id='1806'> +1.2462199e-12 </wgt>
<wgt id='1807'> +1.2671148e-12 </wgt>
<wgt id='1808'> +1.2428831e-12 </wgt>
<wgt id='1809'> +1.2396597e-12 </wgt>
<wgt id='1810'> +1.2569248e-12 </wgt>
<wgt id='1811'> +1.3035730e-12 </wgt>
<wgt id='1812'> +1.2832125e-12 </wgt>
<wgt id='1813'> +1.2540384e-12 </wgt>
<wgt id='1814'> +1.3211656e-12 </wgt>
<wgt id='1815'> +1.4649478e-12 </wgt>
<wgt id='1816'> +1.2530496e-12 </wgt>
<wgt id='1817'> +1.2241650e-12 </wgt>
<wgt id='1818'> +1.2741335e-12 </wgt>
<wgt id='1819'> +1.2738321e-12 </wgt>
<wgt id='1820'> +1.2504861e-12 </wgt>
<wgt id='1821'> +1.2443278e-12 </wgt>
<wgt id='1822'> +1.2545975e-12 </wgt>
<wgt id='1823'> +1.2770036e-12 </wgt>
<wgt id='1824'> +1.2164614e-12 </wgt>
<wgt id='1825'> +1.2344367e-12 </wgt>
<wgt id='1826'> +1.1969731e-12 </wgt>
<wgt id='1827'> +1.2260897e-12 </wgt>
<wgt id='1828'> +1.2631295e-12 </wgt>
<wgt id='1829'> +1.3122173e-12 </wgt>
<wgt id='1830'> +1.2155746e-12 </wgt>
<wgt id='1831'> +1.2399195e-12 </wgt>
<wgt id='1832'> +1.2604295e-12 </wgt>
<wgt id='1833'> +1.2256664e-12 </wgt>
<wgt id='1834'> +1.2165052e-12 </wgt>
<wgt id='1835'> +1.2743476e-12 </wgt>
<wgt id='1836'> +1.2800391e-12 </wgt>
<wgt id='1837'> +1.2697944e-12 </wgt>
<wgt id='1838'> +1.2282353e-12 </wgt>
<wgt id='1839'> +1.3211218e-12 </wgt>
<wgt id='1840'> +1.2765730e-12 </wgt>
<wgt id='1841'> +1.2848396e-12 </wgt>
<wgt id='1842'> +1.2048041e-12 </wgt>
<wgt id='1843'> +1.2534331e-12 </wgt>
<wgt id='1844'> +1.2657636e-12 </wgt>
<wgt id='1845'> +1.2523823e-12 </wgt>
<wgt id='1846'> +1.2763058e-12 </wgt>
<wgt id='1847'> +1.2819636e-12 </wgt>
<wgt id='1848'> +1.1718327e-12 </wgt>
<wgt id='1849'> +1.2848215e-12 </wgt>
<wgt id='1850'> +1.2548294e-12 </wgt>
<wgt id='1851'> +1.2641645e-12 </wgt>
<wgt id='1852'> +1.2914872e-12 </wgt>
<wgt id='1853'> +1.2683441e-12 </wgt>
<wgt id='1854'> +1.2093022e-12 </wgt>
<wgt id='1855'> +1.2359776e-12 </wgt>
<wgt id='1856'> +1.2718086e-12 </wgt>
<wgt id='1857'> +1.2622488e-12 </wgt>
<wgt id='1858'> +1.2972506e-12 </wgt>
<wgt id='1859'> +1.2715144e-12 </wgt>
<wgt id='1860'> +1.2292343e-12 </wgt>
<wgt id='1861'> +1.2742775e-12 </wgt>
<wgt id='1862'> +1.2697684e-12 </wgt>
<wgt id='1863'> +1.2144288e-12 </wgt>
<wgt id='1864'> +1.2275668e-12 </wgt>
<wgt id='1865'> +1.2653693e-12 </wgt>
<wgt id='1866'> +1.2783162e-12 </wgt>
<wgt id='1867'> +1.2418663e-12 </wgt>
<wgt id='1868'> +1.2536978e-12 </wgt>
<wgt id='1869'> +1.2443529e-12 </wgt>
<wgt id='1870'> +1.2536476e-12 </wgt>
<wgt id='1871'> +1.2612112e-12 </wgt>
<wgt id='1872'> +1.2174265e-12 </wgt>
<wgt id='1873'> +1.2976213e-12 </wgt>
<wgt id='1874'> +1.2556048e-12 </wgt>
<wgt id='1875'> +1.2897837e-12 </wgt>
<wgt id='1876'> +1.2473547e-12 </wgt>
<wgt id='1877'> +1.2633902e-12 </wgt>
<wgt id='1878'> +1.2655773e-12 </wgt>
<wgt id='1879'> +1.2848222e-12 </wgt>
<wgt id='1880'> +1.1928013e-12 </wgt>
<wgt id='1881'> +1.2498906e-12 </wgt>
<wgt id='1882'> +1.2669847e-12 </wgt>
<wgt id='1883'> +1.2417271e-12 </wgt>
<wgt id='1884'> +1.2496327e-12 </wgt>
<wgt id='1885'> +1.2233157e-12 </wgt>
<wgt id='1886'> +1.2524903e-12 </wgt>
<wgt id='1887'> +1.2724324e-12 </wgt>
<wgt id='1888'> +1.2243450e-12 </wgt>
<wgt id='1889'> +1.1561456e-12 </wgt>
<wgt id='1890'> +1.2839837e-12 </wgt>
<wgt id='1891'> +1.2684573e-12 </wgt>
<wgt id='1892'> +1.1920933e-12 </wgt>
<wgt id='1893'> +1.2580954e-12 </wgt>
<wgt id='1894'> +1.2755480e-12 </wgt>
<wgt id='1895'> +1.2327115e-12 </wgt>
<wgt id='1896'> +1.2577721e-12 </wgt>
<wgt id='1897'> +1.2538886e-12 </wgt>
<wgt id='1898'> +1.2555663e-12 </wgt>
<wgt id='1899'> +1.2476539e-12 </wgt>
<wgt id='1900'> +1.2642074e-12 </wgt>
<wgt id='1901'> +1.2422639e-12 </wgt>
<wgt id='1902'> +1.2556173e-12 </wgt>
<wgt id='1903'> +1.2350217e-12 </wgt>
<wgt id='1904'> +1.2524496e-12 </wgt>
<wgt id='1905'> +1.2534627e-12 </wgt>
<wgt id='1906'> +1.2646217e-12 </wgt>
<wgt id='1907'> +1.2303498e-12 </wgt>
<wgt id='1908'> +1.2710477e-12 </wgt>
<wgt id='1909'> +1.2462199e-12 </wgt>
<wgt id='1910'> +1.2671148e-12 </wgt>
<wgt id='1911'> +1.2428831e-12 </wgt>
<wgt id='1912'> +1.2396597e-12 </wgt>
<wgt id='1913'> +1.2569248e-12 </wgt>
<wgt id='1914'> +1.3035730e-12 </wgt>
<wgt id='1915'> +1.2832125e-12 </wgt>
<wgt id='1916'> +1.2540384e-12 </wgt>
<wgt id='1917'> +1.2456044e-12 </wgt>
<wgt id='1918'> +1.2558888e-12 </wgt>
<wgt id='1919'> +1.2865408e-12 </wgt>
</rwgt>
</event>
<event>
 9      1 +1.5607000e-12 4.19203600e+01 7.81860800e-03 1.35595500e-01
        1 -1    0    0  502    0 +0.0000000000e+00 +0.0000000000e+00 +1.0001862662e+03 1.0001862662e+03 0.0000000000e+00 0.0000e+00 -1.0000e+00
       -1 -1    0    0    0  501 -0.0000000000e+00 -0.0000000000e+00 -1.6845098230e+00 1.6845098230e+00 0.0000000000e+00 0.0000e+00 1.0000e+00
     1023  2    1    2    0    0 +3.7859988626e+01 -9.9467206057e+00 +4.3693577368e+02 4.3894212254e+02 1.5000020976e+01 0.0000e+00 0.0000e+00
  1000023  2    3    3    0    0 +1.8323108857e+01 -2.1728008441e+00 +2.5529817518e+02 2.5602317686e+02 5.5001325518e+00 0.0000e+00 0.0000e+00
       21  1    1    2  502  501 -3.7859988626e+01 +9.9467206057e+00 +5.6156598271e+02 5.6292865350e+02 0.0000000000e+00 0.0000e+00 -1.0000e+00
  1000022  1    4    4    0    0 +1.6865286495e+01 -2.1336520669e+00 +2.3667987799e+02 2.3734227395e+02 5.0000000000e+00 0.0000e+00 1.0000e+00
      -11  1    4    4    0    0 +1.2139634848e+00 +1.3919967759e-01 +1.5442265579e+01 1.5490534218e+01 5.1100000000e-04 0.0000e+00 1.0000e+00
       11  1    4    4    0    0 +2.4385887795e-01 -1.7834845482e-01 +3.1760316133e+00 3.1903686924e+00 5.1100000000e-04 0.0000e+00 -1.0000e+00
  1000022  1    3    3    0    0 +1.9536879768e+01 -7.7739197616e+00 +1.8163759850e+02 1.8291894568e+02 5.0000000000e+00 0.0000e+00 1.0000e+00
<mgrwt>
<rscale>  1 0.41920360E+02</rscale>
<asrwt>0</asrwt>
<pdfrwt beam="1">  1        1 0.15387434E+00 0.41920360E+02</pdfrwt>
<pdfrwt beam="2">  1       -1 0.25915616E-03 0.41920360E+02</pdfrwt>
<totfact> 0.17592345E+05</totfact>
</mgrwt>
<rwgt>
<wgt id='1001'> +1.5607000e-12 </wgt>
<wgt id='1002'> +1.5316912e-12 </wgt>
<wgt id='1003'> +1.5308317e-12 </wgt>
<wgt id='1004'> +1.5624659e-12 </wgt>
<wgt id='1005'> +1.5294628e-12 </wgt>
<wgt id='1006'> +1.3774521e-12 </wgt>
<wgt id='1007'> +1.3701598e-12 </wgt>
<wgt id='1008'> +1.3698138e-12 </wgt>
<wgt id='1009'> +1.3774434e-12 </wgt>
<wgt id='1010'> +1.3692530e-12 </wgt>
<wgt id='1011'> +1.8027877e-12 </wgt>
<wgt id='1012'> +1.7381316e-12 </wgt>
<wgt id='1013'> +1.7364578e-12 </wgt>
<wgt id='1014'> +1.8075853e-12 </wgt>
<wgt id='1015'> +1.7338136e-12 </wgt>
<wgt id='1016'> +1.7316572e-12 </wgt>
<wgt id='1017'> +1.6676820e-12 </wgt>
<wgt id='1018'> +1.6660354e-12 </wgt>
<wgt id='1019'> +1.7364578e-12 </wgt>
<wgt id='1020'> +1.6634319e-12 </wgt>
<wgt id='1021'> +1.5283365e-12 </wgt>
<wgt id='1022'> +1.4918090e-12 </wgt>
<wgt id='1023'> +1.4907963e-12 </wgt>
<wgt id='1024'> +1.5308317e-12 </wgt>
<wgt id='1025'> +1.4891889e-12 </wgt>
<wgt id='1026'> +2.0002628e-12 </wgt>
<wgt id='1027'> +1.8924510e-12 </wgt>
<wgt id='1028'> +1.8898225e-12 </wgt>
<wgt id='1029'> +2.0088731e-12 </wgt>
<wgt id='1030'> +1.8856822e-12 </wgt>
<wgt id='1031'> +1.3666396e-12 </wgt>
<wgt id='1032'> +1.3774192e-12 </wgt>
<wgt id='1033'> +1.3774434e-12 </wgt>
<wgt id='1034'> +1.3649506e-12 </wgt>
<wgt id='1035'> +1.3774594e-12 </wgt>
<wgt id='1036'> +1.2061771e-12 </wgt>
<wgt id='1037'> +1.2321572e-12 </wgt>
<wgt id='1038'> +1.2325594e-12 </wgt>
<wgt id='1039'> +1.2033173e-12 </wgt>
<wgt id='1040'> +1.2331717e-12 </wgt>
<wgt id='1041'> +1.5786256e-12 </wgt>
<wgt id='1042'> +1.5630668e-12 </wgt>
<wgt id='1043'> +1.5624659e-12 </wgt>
<wgt id='1044'> +1.5790839e-12 </wgt>
<wgt id='1045'> +1.5615010e-12 </wgt>
<wgt id='1046'> +1.5607000e-12 </wgt>
<wgt id='1047'> +1.5442103e-12 </wgt>
<wgt id='1048'> +1.6055388e-12 </wgt>
<wgt id='1049'> +1.5055029e-12 </wgt>
<wgt id='1050'> +1.5235701e-12 </wgt>
<wgt id='1051'> +1.5431367e-12 </wgt>
<wgt id='1052'> +1.5973716e-12 </wgt>
<wgt id='1053'> +1.5868037e-12 </wgt>
<wgt id='1054'> +1.5443947e-12 </wgt>
<wgt id='1055'> +1.6049071e-12 </wgt>
<wgt id='1056'> +1.4744122e-12 </wgt>
<wgt id='1057'> +1.5119641e-12 </wgt>
<wgt id='1058'> +1.5436210e-12 </wgt>
<wgt id='1059'> +1.5378410e-12 </wgt>
<wgt id='1060'> +1.5397325e-12 </wgt>
<wgt id='1061'> +1.6129602e-12 </wgt>
<wgt id='1062'> +1.5431438e-12 </wgt>
<wgt id='1063'> +1.5399027e-12 </wgt>
<wgt id='1064'> +1.5783013e-12 </wgt>
<wgt id='1065'> +1.5835288e-12 </wgt>
<wgt id='1066'> +1.5722333e-12 </wgt>
<wgt id='1067'> +1.6073523e-12 </wgt>
<wgt id='1068'> +1.6468901e-12 </wgt>
<wgt id='1069'> +1.6176774e-12 </wgt>
<wgt id='1070'> +1.5260687e-12 </wgt>
<wgt id='1071'> +1.5877095e-12 </wgt>
<wgt id='1072'> +1.5275054e-12 </wgt>
<wgt id='1073'> +1.5562106e-12 </wgt>
<wgt id='1074'> +1.5849341e-12 </wgt>
<wgt id='1075'> +1.5194482e-12 </wgt>
<wgt id='1076'> +1.5946712e-12 </wgt>
<wgt id='1077'> +1.5362865e-12 </wgt>
<wgt id='1078'> +1.5794320e-12 </wgt>
<wgt id='1079'> +1.6360859e-12 </wgt>
<wgt id='1080'> +1.5528956e-12 </wgt>
<wgt id='1081'> +1.5464250e-12 </wgt>
<wgt id='1082'> +1.5971350e-12 </wgt>
<wgt id='1083'> +1.5316483e-12 </wgt>
<wgt id='1084'> +1.5444310e-12 </wgt>
<wgt id='1085'> +1.5936745e-12 </wgt>
<wgt id='1086'> +1.5749552e-12 </wgt>
<wgt id='1087'> +1.5410778e-12 </wgt>
<wgt id='1088'> +1.5856945e-12 </wgt>
<wgt id='1089'> +1.5645990e-12 </wgt>
<wgt id='1090'> +1.5440729e-12 </wgt>
<wgt id='1091'> +1.4488614e-12 </wgt>
<wgt id='1092'> +1.5694821e-12 </wgt>
<wgt id='1093'> +1.6366186e-12 </wgt>
<wgt id='1094'> +1.4720322e-12 </wgt>
<wgt id='1095'> +1.6343712e-12 </wgt>
<wgt id='1096'> +1.5537213e-12 </wgt>
<wgt id='1097'> +1.5317780e-12 </wgt>
<wgt id='1098'> +1.6044210e-12 </wgt>
<wgt id='1099'> +1.6007883e-12 </wgt>
<wgt id='1100'> +1.6093136e-12 </wgt>
<wgt id='1101'> +1.5188713e-12 </wgt>
<wgt id='1102'> +1.5446278e-12 </wgt>
<wgt id='1103'> +1.5788196e-12 </wgt>
<wgt id='1104'> +1.6191392e-12 </wgt>
<wgt id='1105'> +1.5488541e-12 </wgt>
<wgt id='1106'> +1.5360454e-12 </wgt>
<wgt id='1107'> +1.6282737e-12 </wgt>
<wgt id='1108'> +1.5849742e-12 </wgt>
<wgt id='1109'> +1.5593590e-12 </wgt>
<wgt id='1110'> +1.4957973e-12 </wgt>
<wgt id='1111'> +1.5758960e-12 </wgt>
<wgt id='1112'> +1.4668130e-12 </wgt>
<wgt id='1113'> +1.5321597e-12 </wgt>
<wgt id='1114'> +1.6024231e-12 </wgt>
<wgt id='1115'> +1.5898809e-12 </wgt>
<wgt id='1116'> +1.6068773e-12 </wgt>
<wgt id='1117'> +1.5989249e-12 </wgt>
<wgt id='1118'> +1.4872489e-12 </wgt>
<wgt id='1119'> +1.5389898e-12 </wgt>
<wgt id='1120'> +1.5624416e-12 </wgt>
<wgt id='1121'> +1.5278709e-12 </wgt>
<wgt id='1122'> +1.5335513e-12 </wgt>
<wgt id='1123'> +1.6082649e-12 </wgt>
<wgt id='1124'> +1.6180957e-12 </wgt>
<wgt id='1125'> +1.5730115e-12 </wgt>
<wgt id='1126'> +1.5036961e-12 </wgt>
<wgt id='1127'> +1.5934185e-12 </wgt>
<wgt id='1128'> +1.5431438e-12 </wgt>
<wgt id='1129'> +1.4632915e-12 </wgt>
<wgt id='1130'> +1.5458714e-12 </wgt>
<wgt id='1131'> +1.6146191e-12 </wgt>
<wgt id='1132'> +1.6047851e-12 </wgt>
<wgt id='1133'> +1.5934053e-12 </wgt>
<wgt id='1134'> +1.5783093e-12 </wgt>
<wgt id='1135'> +1.4162295e-12 </wgt>
<wgt id='1136'> +1.5670970e-12 </wgt>
<wgt id='1137'> +1.5901256e-12 </wgt>
<wgt id='1138'> +1.5653541e-12 </wgt>
<wgt id='1139'> +1.5299850e-12 </wgt>
<wgt id='1140'> +1.5867192e-12 </wgt>
<wgt id='1141'> +1.5371435e-12 </wgt>
<wgt id='1142'> +1.6189621e-12 </wgt>
<wgt id='1143'> +1.4560896e-12 </wgt>
<wgt id='1144'> +1.5457418e-12 </wgt>
<wgt id='1145'> +1.5658031e-12 </wgt>
<wgt id='1146'> +1.5547683e-12 </wgt>
<wgt id='1147'> +1.2980927e-12 </wgt>
<wgt id='1148'> +1.3219112e-12 </wgt>
<wgt id='1149'> +1.3188903e-12 </wgt>
<wgt id='1150'> +1.2633519e-12 </wgt>
<wgt id='1151'> +1.1124486e-12 </wgt>
<wgt id='1152'> +1.6348949e-12 </wgt>
<wgt id='1153'> +1.6294405e-12 </wgt>
<wgt id='1154'> +1.6380634e-12 </wgt>
<wgt id='1155'> +1.6405323e-12 </wgt>
<wgt id='1156'> +1.6320370e-12 </wgt>
<wgt id='1157'> +1.6385850e-12 </wgt>
<wgt id='1158'> +1.6299779e-12 </wgt>
<wgt id='1159'> +1.6388038e-12 </wgt>
<wgt id='1160'> +1.6323728e-12 </wgt>
<wgt id='1161'> +1.6537397e-12 </wgt>
<wgt id='1162'> +1.6218890e-12 </wgt>
<wgt id='1163'> +1.6332938e-12 </wgt>
<wgt id='1164'> +1.6365009e-12 </wgt>
<wgt id='1165'> +1.6316994e-12 </wgt>
<wgt id='1166'> +1.6382584e-12 </wgt>
<wgt id='1167'> +1.6553090e-12 </wgt>
<wgt id='1168'> +1.6110380e-12 </wgt>
<wgt id='1169'> +1.6508490e-12 </wgt>
<wgt id='1170'> +1.6214221e-12 </wgt>
<wgt id='1171'> +1.6261593e-12 </wgt>
<wgt id='1172'> +1.6453026e-12 </wgt>
<wgt id='1173'> +1.6201440e-12 </wgt>
<wgt id='1174'> +1.6493891e-12 </wgt>
<wgt id='1175'> +1.6285078e-12 </wgt>
<wgt id='1176'> +1.6398611e-12 </wgt>
<wgt id='1177'> +1.6364061e-12 </wgt>
<wgt id='1178'> +1.6262169e-12 </wgt>
<wgt id='1179'> +1.6347763e-12 </wgt>
<wgt id='1180'> +1.6301787e-12 </wgt>
<wgt id='1181'> +1.6335714e-12 </wgt>
<wgt id='1182'> +1.6285776e-12 </wgt>
<wgt id='1183'> +1.6259860e-12 </wgt>
<wgt id='1184'> +1.6353111e-12 </wgt>
<wgt id='1185'> +1.6243584e-12 </wgt>
<wgt id='1186'> +1.6391023e-12 </wgt>
<wgt id='1187'> +1.6387346e-12 </wgt>
<wgt id='1188'> +1.6335301e-12 </wgt>
<wgt id='1189'> +1.6298406e-12 </wgt>
<wgt id='1190'> +1.6144912e-12 </wgt>
<wgt id='1191'> +1.6405731e-12 </wgt>
<wgt id='1192'> +1.6428896e-12 </wgt>
<wgt id='1193'> +1.3126502e-12 </wgt>
<wgt id='1194'> +1.2960455e-12 </wgt>
<wgt id='1195'> +1.3263344e-12 </wgt>
<wgt id='1196'> +1.3165251e-12 </wgt>
<wgt id='1197'> +1.3083499e-12 </wgt>
<wgt id='1198'> +1.3119577e-12 </wgt>
<wgt id='1199'> +1.3137165e-12 </wgt>
<wgt id='1200'> +1.3187735e-12 </wgt>
<wgt id='1201'> +1.3086004e-12 </wgt>
<wgt id='1202'> +1.3120522e-12 </wgt>
<wgt id='1203'> +1.3134761e-12 </wgt>
<wgt id='1204'> +1.3093429e-12 </wgt>
<wgt id='1205'> +1.3146388e-12 </wgt>
<wgt id='1206'> +1.3042183e-12 </wgt>
<wgt id='1207'> +1.3240032e-12 </wgt>
<wgt id='1208'> +1.3130271e-12 </wgt>
<wgt id='1209'> +1.3126713e-12 </wgt>
<wgt id='1210'> +1.3106347e-12 </wgt>
<wgt id='1211'> +1.3120894e-12 </wgt>
<wgt id='1212'> +1.3041951e-12 </wgt>
<wgt id='1213'> +1.3194214e-12 </wgt>
<wgt id='1214'> +1.2899976e-12 </wgt>
<wgt id='1215'> +1.3474030e-12 </wgt>
<wgt id='1216'> +1.3165029e-12 </wgt>
<wgt id='1217'> +1.3088661e-12 </wgt>
<wgt id='1218'> +1.3076704e-12 </wgt>
<wgt id='1219'> +1.3144237e-12 </wgt>
<wgt id='1220'> +1.3084972e-12 </wgt>
<wgt id='1221'> +1.3005020e-12 </wgt>
<wgt id='1222'> +1.3281517e-12 </wgt>
<wgt id='1223'> +1.2876580e-12 </wgt>
<wgt id='1224'> +1.3111158e-12 </wgt>
<wgt id='1225'> +1.3131257e-12 </wgt>
<wgt id='1226'> +1.3065562e-12 </wgt>
<wgt id='1227'> +1.3164580e-12 </wgt>
<wgt id='1228'> +1.3112997e-12 </wgt>
<wgt id='1229'> +1.3106996e-12 </wgt>
<wgt id='1230'> +1.3173813e-12 </wgt>
<wgt id='1231'> +1.3214285e-12 </wgt>
<wgt id='1232'> +1.3202538e-12 </wgt>
<wgt id='1233'> +1.3098948e-12 </wgt>
<wgt id='1234'> +1.3126502e-12 </wgt>
<wgt id='1235'> +1.3057046e-12 </wgt>
<wgt id='1236'> +1.3084229e-12 </wgt>
<wgt id='1237'> +1.3108195e-12 </wgt>
<wgt id='1238'> +1.3147179e-12 </wgt>
<wgt id='1239'> +1.3162928e-12 </wgt>
<wgt id='1240'> +1.3178043e-12 </wgt>
<wgt id='1241'> +1.3547814e-12 </wgt>
<wgt id='1242'> +1.3381442e-12 </wgt>
<wgt id='1243'> +1.3712212e-12 </wgt>
<wgt id='1244'> +1.3545381e-12 </wgt>
<wgt id='1245'> +1.3548882e-12 </wgt>
<wgt id='1246'> +1.3582772e-12 </wgt>
<wgt id='1247'> +1.3517968e-12 </wgt>
<wgt id='1248'> +1.3546361e-12 </wgt>
<wgt id='1249'> +1.3550624e-12 </wgt>
<wgt id='1250'> +1.3583441e-12 </wgt>
<wgt id='1251'> +1.3522006e-12 </wgt>
<wgt id='1252'> +1.3670382e-12 </wgt>
<wgt id='1253'> +1.3451347e-12 </wgt>
<wgt id='1254'> +1.3608120e-12 </wgt>
<wgt id='1255'> +1.3510455e-12 </wgt>
<wgt id='1256'> +1.3538365e-12 </wgt>
<wgt id='1257'> +1.3575617e-12 </wgt>
<wgt id='1258'> +1.3704040e-12 </wgt>
<wgt id='1259'> +1.3395114e-12 </wgt>
<wgt id='1260'> +1.3664310e-12 </wgt>
<wgt id='1261'> +1.3379798e-12 </wgt>
<wgt id='1262'> +1.3495719e-12 </wgt>
<wgt id='1263'> +1.3565879e-12 </wgt>
<wgt id='1264'> +1.3483378e-12 </wgt>
<wgt id='1265'> +1.3575340e-12 </wgt>
<wgt id='1266'> +1.3360866e-12 </wgt>
<wgt id='1267'> +1.3707107e-12 </wgt>
<wgt id='1268'> +1.3556147e-12 </wgt>
<wgt id='1269'> +1.3366150e-12 </wgt>
<wgt id='1270'> +1.3649335e-12 </wgt>
<wgt id='1271'> +1.3553107e-12 </wgt>
<wgt id='1272'> +1.3497469e-12 </wgt>
<wgt id='1273'> +1.3560740e-12 </wgt>
<wgt id='1274'> +1.3570444e-12 </wgt>
<wgt id='1275'> +1.3513168e-12 </wgt>
<wgt id='1276'> +1.3510240e-12 </wgt>
<wgt id='1277'> +1.3536200e-12 </wgt>
<wgt id='1278'> +1.3633310e-12 </wgt>
<wgt id='1279'> +1.3634775e-12 </wgt>
<wgt id='1280'> +1.3521440e-12 </wgt>
<wgt id='1281'> +1.3651742e-12 </wgt>
<wgt id='1282'> +1.3547814e-12 </wgt>
<wgt id='1283'> +1.3465578e-12 </wgt>
<wgt id='1284'> +1.3498813e-12 </wgt>
<wgt id='1285'> +1.3526315e-12 </wgt>
<wgt id='1286'> +1.3569570e-12 </wgt>
<wgt id='1287'> +1.3584083e-12 </wgt>
<wgt id='1288'> +1.3595618e-12 </wgt>
<wgt id='1289'> +1.3689327e-12 </wgt>
<wgt id='1290'> +1.3774422e-12 </wgt>
<wgt id='1291'> +1.3598859e-12 </wgt>
<wgt id='1292'> +1.3669358e-12 </wgt>
<wgt id='1293'> +1.3704582e-12 </wgt>
<wgt id='1294'> +1.3571672e-12 </wgt>
<wgt id='1295'> +1.3802108e-12 </wgt>
<wgt id='1296'> +1.3690629e-12 </wgt>
<wgt id='1297'> +1.3687963e-12 </wgt>
<wgt id='1298'> +1.3763869e-12 </wgt>
<wgt id='1299'> +1.3598448e-12 </wgt>
<wgt id='1300'> +1.3684203e-12 </wgt>
<wgt id='1301'> +1.3698894e-12 </wgt>
<wgt id='1302'> +1.3730943e-12 </wgt>
<wgt id='1303'> +1.3632114e-12 </wgt>
<wgt id='1304'> +1.3738988e-12 </wgt>
<wgt id='1305'> +1.3654529e-12 </wgt>
<wgt id='1306'> +1.3716949e-12 </wgt>
<wgt id='1307'> +1.3660105e-12 </wgt>
<wgt id='1308'> +1.3729877e-12 </wgt>
<wgt id='1309'> +1.3658022e-12 </wgt>
<wgt id='1310'> +1.3801115e-12 </wgt>
<wgt id='1311'> +1.3572453e-12 </wgt>
<wgt id='1312'> +1.3792761e-12 </wgt>
<wgt id='1313'> +1.3593631e-12 </wgt>
<wgt id='1314'> +1.3508180e-12 </wgt>
<wgt id='1315'> +1.3842625e-12 </wgt>
<wgt id='1316'> +1.3677199e-12 </wgt>
<wgt id='1317'> +1.3667061e-12 </wgt>
<wgt id='1318'> +1.3778942e-12 </wgt>
<wgt id='1319'> +1.3563952e-12 </wgt>
<wgt id='1320'> +1.3941096e-12 </wgt>
<wgt id='1321'> +1.3473876e-12 </wgt>
<wgt id='1322'> +1.3656469e-12 </wgt>
<wgt id='1323'> +1.3725841e-12 </wgt>
<wgt id='1324'> +1.3684675e-12 </wgt>
<wgt id='1325'> +1.3743331e-12 </wgt>
<wgt id='1326'> +1.3690055e-12 </wgt>
<wgt id='1327'> +1.3696907e-12 </wgt>
<wgt id='1328'> +1.3657430e-12 </wgt>
<wgt id='1329'> +1.3712200e-12 </wgt>
<wgt id='1330'> +1.3367875e-12 </wgt>
<wgt id='1331'> +1.3922420e-12 </wgt>
<wgt id='1332'> +1.3791943e-12 </wgt>
<wgt id='1333'> +1.3632851e-12 </wgt>
<wgt id='1334'> +1.3610408e-12 </wgt>
<wgt id='1335'> +1.3892415e-12 </wgt>
<wgt id='1336'> +1.3734307e-12 </wgt>
<wgt id='1337'> +1.3724549e-12 </wgt>
<wgt id='1338'> +1.3704821e-12 </wgt>
<wgt id='1339'> +1.3636668e-12 </wgt>
<wgt id='1340'> +1.3284744e-12 </wgt>
<wgt id='1341'> +1.3367221e-12 </wgt>
<wgt id='1342'> +1.3196516e-12 </wgt>
<wgt id='1343'> +1.3264691e-12 </wgt>
<wgt id='1344'> +1.3298133e-12 </wgt>
<wgt id='1345'> +1.3162280e-12 </wgt>
<wgt id='1346'> +1.3398087e-12 </wgt>
<wgt id='1347'> +1.3290526e-12 </wgt>
<wgt id='1348'> +1.3277705e-12 </wgt>
<wgt id='1349'> +1.3356736e-12 </wgt>
<wgt id='1350'> +1.3215420e-12 </wgt>
<wgt id='1351'> +1.3286417e-12 </wgt>
<wgt id='1352'> +1.3280546e-12 </wgt>
<wgt id='1353'> +1.3337151e-12 </wgt>
<wgt id='1354'> +1.3191281e-12 </wgt>
<wgt id='1355'> +1.3330637e-12 </wgt>
<wgt id='1356'> +1.3258343e-12 </wgt>
<wgt id='1357'> +1.3333480e-12 </wgt>
<wgt id='1358'> +1.3229353e-12 </wgt>
<wgt id='1359'> +1.3324201e-12 </wgt>
<wgt id='1360'> +1.3250090e-12 </wgt>
<wgt id='1361'> +1.3382602e-12 </wgt>
<wgt id='1362'> +1.3156800e-12 </wgt>
<wgt id='1363'> +1.3446664e-12 </wgt>
<wgt id='1364'> +1.3186513e-12 </wgt>
<wgt id='1365'> +1.3338859e-12 </wgt>
<wgt id='1366'> +1.3147293e-12 </wgt>
<wgt id='1367'> +1.3273333e-12 </wgt>
<wgt id='1368'> +1.3262549e-12 </wgt>
<wgt id='1369'> +1.3351955e-12 </wgt>
<wgt id='1370'> +1.3191845e-12 </wgt>
<wgt id='1371'> +1.3470196e-12 </wgt>
<wgt id='1372'> +1.3054927e-12 </wgt>
<wgt id='1373'> +1.3197030e-12 </wgt>
<wgt id='1374'> +1.3361451e-12 </wgt>
<wgt id='1375'> +1.3281658e-12 </wgt>
<wgt id='1376'> +1.3334869e-12 </wgt>
<wgt id='1377'> +1.3299121e-12 </wgt>
<wgt id='1378'> +1.3298206e-12 </wgt>
<wgt id='1379'> +1.3252474e-12 </wgt>
<wgt id='1380'> +1.3311380e-12 </wgt>
<wgt id='1381'> +1.2947050e-12 </wgt>
<wgt id='1382'> +1.3510281e-12 </wgt>
<wgt id='1383'> +1.3422036e-12 </wgt>
<wgt id='1384'> +1.3193104e-12 </wgt>
<wgt id='1385'> +1.3198081e-12 </wgt>
<wgt id='1386'> +1.3491536e-12 </wgt>
<wgt id='1387'> +1.3308559e-12 </wgt>
<wgt id='1388'> +1.3308688e-12 </wgt>
<wgt id='1389'> +1.3295029e-12 </wgt>
<wgt id='1390'> +1.3225282e-12 </wgt>
<wgt id='1391'> +1.3175573e-12 </wgt>
<wgt id='1392'> +1.2605832e-12 </wgt>
<wgt id='1393'> +1.2797321e-12 </wgt>
<wgt id='1394'> +1.2981911e-12 </wgt>
<wgt id='1395'> +1.3349939e-12 </wgt>
<wgt id='1396'> +1.3171780e-12 </wgt>
<wgt id='1397'> +1.2891214e-12 </wgt>
<wgt id='1398'> +1.2944551e-12 </wgt>
<wgt id='1399'> +1.2997461e-12 </wgt>
<wgt id='1400'> +1.3049796e-12 </wgt>
<wgt id='1401'> +1.3110109e-12 </wgt>
<wgt id='1402'> +1.3221590e-12 </wgt>
<wgt id='1403'> +1.3281141e-12 </wgt>
<wgt id='1404'> +1.3334657e-12 </wgt>
<wgt id='1405'> +1.3171780e-12 </wgt>
<wgt id='1406'> +1.3141605e-12 </wgt>
<wgt id='1407'> +1.3158279e-12 </wgt>
<wgt id='1408'> +1.3185480e-12 </wgt>
<wgt id='1409'> +1.3190754e-12 </wgt>
<wgt id='1410'> +1.3544976e-12 </wgt>
<wgt id='1411'> +1.3635206e-12 </wgt>
<wgt id='1412'> +1.3429727e-12 </wgt>
<wgt id='1413'> +1.3512256e-12 </wgt>
<wgt id='1414'> +1.3578384e-12 </wgt>
<wgt id='1415'> +1.3491043e-12 </wgt>
<wgt id='1416'> +1.3567268e-12 </wgt>
<wgt id='1417'> +1.3470554e-12 </wgt>
<wgt id='1418'> +1.3619854e-12 </wgt>
<wgt id='1419'> +1.3583078e-12 </wgt>
<wgt id='1420'> +1.3509040e-12 </wgt>
<wgt id='1421'> +1.3486668e-12 </wgt>
<wgt id='1422'> +1.3569923e-12 </wgt>
<wgt id='1423'> +1.3557829e-12 </wgt>
<wgt id='1424'> +1.3529339e-12 </wgt>
<wgt id='1425'> +1.3593621e-12 </wgt>
<wgt id='1426'> +1.3492310e-12 </wgt>
<wgt id='1427'> +1.3511222e-12 </wgt>
<wgt id='1428'> +1.3561679e-12 </wgt>
<wgt id='1429'> +1.3479659e-12 </wgt>
<wgt id='1430'> +1.3634422e-12 </wgt>
<wgt id='1431'> +1.3498846e-12 </wgt>
<wgt id='1432'> +1.3574900e-12 </wgt>
<wgt id='1433'> +1.3307097e-12 </wgt>
<wgt id='1434'> +1.3744242e-12 </wgt>
<wgt id='1435'> +1.3476505e-12 </wgt>
<wgt id='1436'> +1.3725602e-12 </wgt>
<wgt id='1437'> +1.3568557e-12 </wgt>
<wgt id='1438'> +1.3516918e-12 </wgt>
<wgt id='1439'> +1.3468212e-12 </wgt>
<wgt id='1440'> +1.3684046e-12 </wgt>
<wgt id='1441'> +1.3638109e-12 </wgt>
<wgt id='1442'> +1.3343082e-12 </wgt>
<wgt id='1443'> +1.3535629e-12 </wgt>
<wgt id='1444'> +1.3577502e-12 </wgt>
<wgt id='1445'> +1.3642745e-12 </wgt>
<wgt id='1446'> +1.3510086e-12 </wgt>
<wgt id='1447'> +1.3543236e-12 </wgt>
<wgt id='1448'> +1.3485527e-12 </wgt>
<wgt id='1449'> +1.3511871e-12 </wgt>
<wgt id='1450'> +1.3556849e-12 </wgt>
<wgt id='1451'> +1.3729882e-12 </wgt>
<wgt id='1452'> +1.3185719e-12 </wgt>
<wgt id='1453'> +1.3534026e-12 </wgt>
<wgt id='1454'> +1.3459074e-12 </wgt>
<wgt id='1455'> +1.3515866e-12 </wgt>
<wgt id='1456'> +1.3713079e-12 </wgt>
<wgt id='1457'> +1.3717119e-12 </wgt>
<wgt id='1458'> +1.3489242e-12 </wgt>
<wgt id='1459'> +1.3634200e-12 </wgt>
<wgt id='1460'> +1.3613383e-12 </wgt>
<wgt id='1461'> +1.3544976e-12 </wgt>
<wgt id='1462'> +1.3379611e-12 </wgt>
<wgt id='1463'> +1.3726513e-12 </wgt>
<wgt id='1464'> +1.3547866e-12 </wgt>
<wgt id='1465'> +1.3227893e-12 </wgt>
<wgt id='1466'> +1.3293961e-12 </wgt>
<wgt id='1467'> +1.3359390e-12 </wgt>
<wgt id='1468'> +1.3428582e-12 </wgt>
<wgt id='1469'> +1.3487669e-12 </wgt>
<wgt id='1470'> +1.3609275e-12 </wgt>
<wgt id='1471'> +1.3661645e-12 </wgt>
<wgt id='1472'> +1.3718316e-12 </wgt>
<wgt id='1473'> +1.3547866e-12 </wgt>
<wgt id='1474'> +1.3511682e-12 </wgt>
<wgt id='1475'> +1.3529420e-12 </wgt>
<wgt id='1476'> +1.3562424e-12 </wgt>
<wgt id='1477'> +1.3577609e-12 </wgt>
<wgt id='1478'> +1.2692958e-12 </wgt>
<wgt id='1479'> +1.2684521e-12 </wgt>
<wgt id='1480'> +1.2990657e-12 </wgt>
<wgt id='1481'> +1.2808818e-12 </wgt>
<wgt id='1482'> +1.2688788e-12 </wgt>
<wgt id='1483'> +1.2574511e-12 </wgt>
<wgt id='1484'> +1.2623190e-12 </wgt>
<wgt id='1485'> +1.2617032e-12 </wgt>
<wgt id='1486'> +1.2686507e-12 </wgt>
<wgt id='1487'> +1.2656758e-12 </wgt>
<wgt id='1488'> +1.2661398e-12 </wgt>
<wgt id='1489'> +1.2792954e-12 </wgt>
<wgt id='1490'> +1.2628558e-12 </wgt>
<wgt id='1491'> +1.2745120e-12 </wgt>
<wgt id='1492'> +1.2722763e-12 </wgt>
<wgt id='1493'> +1.2476544e-12 </wgt>
<wgt id='1494'> +1.2708045e-12 </wgt>
<wgt id='1495'> +1.2656884e-12 </wgt>
<wgt id='1496'> +1.2904464e-12 </wgt>
<wgt id='1497'> +1.2689354e-12 </wgt>
<wgt id='1498'> +1.2701079e-12 </wgt>
<wgt id='1499'> +1.2714959e-12 </wgt>
<wgt id='1500'> +1.2658866e-12 </wgt>
<wgt id='1501'> +1.2748583e-12 </wgt>
<wgt id='1502'> +1.2704159e-12 </wgt>
<wgt id='1503'> +1.2576352e-12 </wgt>
<wgt id='1504'> +1.2647363e-12 </wgt>
<wgt id='1505'> +1.2790795e-12 </wgt>
<wgt id='1506'> +1.2692681e-12 </wgt>
<wgt id='1507'> +1.2685133e-12 </wgt>
<wgt id='1508'> +1.2712278e-12 </wgt>
<wgt id='1509'> +1.3785020e-12 </wgt>
<wgt id='1510'> +1.3789334e-12 </wgt>
<wgt id='1511'> +1.3676086e-12 </wgt>
<wgt id='1512'> +1.3738470e-12 </wgt>
<wgt id='1513'> +1.3858600e-12 </wgt>
<wgt id='1514'> +1.3764159e-12 </wgt>
<wgt id='1515'> +1.3725193e-12 </wgt>
<wgt id='1516'> +1.3781670e-12 </wgt>
<wgt id='1517'> +1.3682798e-12 </wgt>
<wgt id='1518'> +1.3718946e-12 </wgt>
<wgt id='1519'> +1.3767540e-12 </wgt>
<wgt id='1520'> +1.3696289e-12 </wgt>
<wgt id='1521'> +1.3806833e-12 </wgt>
<wgt id='1522'> +1.3772412e-12 </wgt>
<wgt id='1523'> +1.3671811e-12 </wgt>
<wgt id='1524'> +1.3885171e-12 </wgt>
<wgt id='1525'> +1.3768560e-12 </wgt>
<wgt id='1526'> +1.3723202e-12 </wgt>
<wgt id='1527'> +1.3792571e-12 </wgt>
<wgt id='1528'> +1.3704688e-12 </wgt>
<wgt id='1529'> +1.3767881e-12 </wgt>
<wgt id='1530'> +1.3793462e-12 </wgt>
<wgt id='1531'> +1.3800422e-12 </wgt>
<wgt id='1532'> +1.3760088e-12 </wgt>
<wgt id='1533'> +1.3912734e-12 </wgt>
<wgt id='1534'> +1.3794317e-12 </wgt>
<wgt id='1535'> +1.3780211e-12 </wgt>
<wgt id='1536'> +1.3860611e-12 </wgt>
<wgt id='1537'> +1.3835407e-12 </wgt>
<wgt id='1538'> +1.3575761e-12 </wgt>
<wgt id='1539'> +1.3702229e-12 </wgt>
<wgt id='1540'> +1.3752494e-12 </wgt>
<wgt id='1541'> +1.3728833e-12 </wgt>
<wgt id='1542'> +1.3769034e-12 </wgt>
<wgt id='1543'> +1.3795680e-12 </wgt>
<wgt id='1544'> +1.3792472e-12 </wgt>
<wgt id='1545'> +1.3781107e-12 </wgt>
<wgt id='1546'> +1.3828748e-12 </wgt>
<wgt id='1547'> +1.3779749e-12 </wgt>
<wgt id='1548'> +1.3802734e-12 </wgt>
<wgt id='1549'> +1.3779986e-12 </wgt>
<wgt id='1550'> +1.3789037e-12 </wgt>
<wgt id='1551'> +1.3778755e-12 </wgt>
<wgt id='1552'> +1.3793917e-12 </wgt>
<wgt id='1553'> +1.3811935e-12 </wgt>
<wgt id='1554'> +1.3749295e-12 </wgt>
<wgt id='1555'> +1.3776279e-12 </wgt>
<wgt id='1556'> +1.3809189e-12 </wgt>
<wgt id='1557'> +1.3744208e-12 </wgt>
<wgt id='1558'> +1.3822231e-12 </wgt>
<wgt id='1559'> +1.3836701e-12 </wgt>
<wgt id='1560'> +1.3854134e-12 </wgt>
<wgt id='1561'> +1.3763540e-12 </wgt>
<wgt id='1562'> +1.3788454e-12 </wgt>
<wgt id='1563'> +1.3816105e-12 </wgt>
<wgt id='1564'> +1.3777754e-12 </wgt>
<wgt id='1565'> +1.3765809e-12 </wgt>
<wgt id='1566'> +1.3757686e-12 </wgt>
<wgt id='1567'> +1.3786112e-12 </wgt>
<wgt id='1568'> +1.3768705e-12 </wgt>
<wgt id='1569'> +1.3757617e-12 </wgt>
<wgt id='1570'> +1.3781837e-12 </wgt>
<wgt id='1571'> +1.3739383e-12 </wgt>
<wgt id='1572'> +1.3789314e-12 </wgt>
<wgt id='1573'> +1.3812340e-12 </wgt>
<wgt id='1574'> +1.3769179e-12 </wgt>
<wgt id='1575'> +1.3806820e-12 </wgt>
<wgt id='1576'> +1.3773405e-12 </wgt>
<wgt id='1577'> +1.3774568e-12 </wgt>
<wgt id='1578'> +1.3788036e-12 </wgt>
<wgt id='1579'> +1.3779333e-12 </wgt>
<wgt id='1580'> +1.3760606e-12 </wgt>
<wgt id='1581'> +1.3783898e-12 </wgt>
<wgt id='1582'> +1.3799043e-12 </wgt>
<wgt id='1583'> +1.3796955e-12 </wgt>
<wgt id='1584'> +1.3790540e-12 </wgt>
<wgt id='1585'> +1.3793598e-12 </wgt>
<wgt id='1586'> +1.3779841e-12 </wgt>
<wgt id='1587'> +1.3782256e-12 </wgt>
<wgt id='1588'> +1.3826309e-12 </wgt>
<wgt id='1589'> +1.3766485e-12 </wgt>
<wgt id='1590'> +1.3773579e-12 </wgt>
<wgt id='1591'> +1.3764065e-12 </wgt>
<wgt id='1592'> +1.3785600e-12 </wgt>
<wgt id='1593'> +1.3770342e-12 </wgt>
<wgt id='1594'> +1.3792008e-12 </wgt>
<wgt id='1595'> +1.3792792e-12 </wgt>
<wgt id='1596'> +1.3782766e-12 </wgt>
<wgt id='1597'> +1.3797074e-12 </wgt>
<wgt id='1598'> +1.3781866e-12 </wgt>
<wgt id='1599'> +1.3771961e-12 </wgt>
<wgt id='1600'> +1.3800540e-12 </wgt>
<wgt id='1601'> +1.3809187e-12 </wgt>
<wgt id='1602'> +1.3778343e-12 </wgt>
<wgt id='1603'> +1.3791190e-12 </wgt>
<wgt id='1604'> +1.3780634e-12 </wgt>
<wgt id='1605'> +1.3788737e-12 </wgt>
<wgt id='1606'> +1.3793055e-12 </wgt>
<wgt id='1607'> +1.3774542e-12 </wgt>
<wgt id='1608'> +1.3783466e-12 </wgt>
<wgt id='1609'> +1.3795074e-12 </wgt>
<wgt id='1610'> +1.3413013e-12 </wgt>
<wgt id='1611'> +1.4117493e-12 </wgt>
<wgt id='1612'> +1.4971008e-12 </wgt>
<wgt id='1613'> +1.5108045e-12 </wgt>
<wgt id='1614'> +1.5327053e-12 </wgt>
<wgt id='1615'> +1.4681042e-12 </wgt>
<wgt id='1616'> +1.5003015e-12 </wgt>
<wgt id='1617'> +1.5461736e-12 </wgt>
<wgt id='1618'> +1.4656364e-12 </wgt>
<wgt id='1619'> +1.5140321e-12 </wgt>
<wgt id='1620'> +1.4945373e-12 </wgt>
<wgt id='1621'> +1.5399508e-12 </wgt>
<wgt id='1622'> +1.4847324e-12 </wgt>
<wgt id='1623'> +1.4439745e-12 </wgt>
<wgt id='1624'> +1.5155998e-12 </wgt>
<wgt id='1625'> +1.4689917e-12 </wgt>
<wgt id='1626'> +1.4443679e-12 </wgt>
<wgt id='1627'> +1.4571811e-12 </wgt>
<wgt id='1628'> +1.3895097e-12 </wgt>
<wgt id='1629'> +1.4702504e-12 </wgt>
<wgt id='1630'> +1.5048646e-12 </wgt>
<wgt id='1631'> +1.5388078e-12 </wgt>
<wgt id='1632'> +1.4314466e-12 </wgt>
<wgt id='1633'> +1.5065035e-12 </wgt>
<wgt id='1634'> +1.4420448e-12 </wgt>
<wgt id='1635'> +1.5462290e-12 </wgt>
<wgt id='1636'> +1.5521168e-12 </wgt>
<wgt id='1637'> +1.5363049e-12 </wgt>
<wgt id='1638'> +1.5012666e-12 </wgt>
<wgt id='1639'> +1.5391859e-12 </wgt>
<wgt id='1640'> +1.4390179e-12 </wgt>
<wgt id='1641'> +1.5344398e-12 </wgt>
<wgt id='1642'> +1.4081897e-12 </wgt>
<wgt id='1643'> +1.4629967e-12 </wgt>
<wgt id='1644'> +1.5265140e-12 </wgt>
<wgt id='1645'> +1.4770206e-12 </wgt>
<wgt id='1646'> +1.5434368e-12 </wgt>
<wgt id='1647'> +1.5348462e-12 </wgt>
<wgt id='1648'> +1.5263673e-12 </wgt>
<wgt id='1649'> +1.5747255e-12 </wgt>
<wgt id='1650'> +1.5531005e-12 </wgt>
<wgt id='1651'> +1.5677443e-12 </wgt>
<wgt id='1652'> +1.4806486e-12 </wgt>
<wgt id='1653'> +1.5363361e-12 </wgt>
<wgt id='1654'> +1.5802648e-12 </wgt>
<wgt id='1655'> +1.5129431e-12 </wgt>
<wgt id='1656'> +1.4524274e-12 </wgt>
<wgt id='1657'> +1.5446552e-12 </wgt>
<wgt id='1658'> +1.4903933e-12 </wgt>
<wgt id='1659'> +1.5155998e-12 </wgt>
<wgt id='1660'> +1.4840668e-12 </wgt>
<wgt id='1661'> +1.5025767e-12 </wgt>
<wgt id='1662'> +1.4854118e-12 </wgt>
<wgt id='1663'> +1.4876658e-12 </wgt>
<wgt id='1664'> +1.5344769e-12 </wgt>
<wgt id='1665'> +1.3525250e-12 </wgt>
<wgt id='1666'> +1.4930592e-12 </wgt>
<wgt id='1667'> +1.5332246e-12 </wgt>
<wgt id='1668'> +1.5663586e-12 </wgt>
<wgt id='1669'> +1.5645661e-12 </wgt>
<wgt id='1670'> +1.5154988e-12 </wgt>
<wgt id='1671'> +1.4024421e-12 </wgt>
<wgt id='1672'> +1.4408080e-12 </wgt>
<wgt id='1673'> +1.5917585e-12 </wgt>
<wgt id='1674'> +1.5164209e-12 </wgt>
<wgt id='1675'> +1.4671213e-12 </wgt>
<wgt id='1676'> +1.4607082e-12 </wgt>
<wgt id='1677'> +1.4398983e-12 </wgt>
<wgt id='1678'> +1.5098456e-12 </wgt>
<wgt id='1679'> +1.5761449e-12 </wgt>
<wgt id='1680'> +1.5639368e-12 </wgt>
<wgt id='1681'> +1.4940446e-12 </wgt>
<wgt id='1682'> +1.4791542e-12 </wgt>
<wgt id='1683'> +1.5300309e-12 </wgt>
<wgt id='1684'> +1.4542900e-12 </wgt>
<wgt id='1685'> +1.5130515e-12 </wgt>
<wgt id='1686'> +1.4376456e-12 </wgt>
<wgt id='1687'> +1.4806845e-12 </wgt>
<wgt id='1688'> +1.4084156e-12 </wgt>
<wgt id='1689'> +1.4828827e-12 </wgt>
<wgt id='1690'> +1.5124222e-12 </wgt>
<wgt id='1691'> +1.4623957e-12 </wgt>
<wgt id='1692'> +1.4464599e-12 </wgt>
<wgt id='1693'> +1.4494671e-12 </wgt>
<wgt id='1694'> +1.4303999e-12 </wgt>
<wgt id='1695'> +1.3869846e-12 </wgt>
<wgt id='1696'> +1.5125042e-12 </wgt>
<wgt id='1697'> +1.5660088e-12 </wgt>
<wgt id='1698'> +1.4699528e-12 </wgt>
<wgt id='1699'> +1.5343111e-12 </wgt>
<wgt id='1700'> +1.5033523e-12 </wgt>
<wgt id='1701'> +1.5461677e-12 </wgt>
<wgt id='1702'> +1.5305096e-12 </wgt>
<wgt id='1703'> +1.4210350e-12 </wgt>
<wgt id='1704'> +1.5061535e-12 </wgt>
<wgt id='1705'> +1.4258821e-12 </wgt>
<wgt id='1706'> +1.5485600e-12 </wgt>
<wgt id='1707'> +1.4833907e-12 </wgt>
<wgt id='1708'> +1.5627426e-12 </wgt>
<wgt id='1709'> +1.5315712e-12 </wgt>
<wgt id='1710'> +1.5381197e-12 </wgt>
<wgt id='1711'> +1.4485224e-12 </wgt>
<wgt id='1712'> +1.5192019e-12 </wgt>
<wgt id='1713'> +1.2703354e-12 </wgt>
<wgt id='1714'> +1.2616461e-12 </wgt>
<wgt id='1715'> +1.2848638e-12 </wgt>
<wgt id='1716'> +1.3024921e-12 </wgt>
<wgt id='1717'> +1.3199191e-12 </wgt>
<wgt id='1718'> +1.1502171e-12 </wgt>
<wgt id='1719'> +1.1984674e-12 </wgt>
<wgt id='1720'> +1.2642573e-12 </wgt>
<wgt id='1721'> +1.3250695e-12 </wgt>
<wgt id='1722'> +1.2293705e-12 </wgt>
<wgt id='1723'> +1.3637797e-12 </wgt>
<wgt id='1724'> +1.1503770e-12 </wgt>
<wgt id='1725'> +1.2133059e-12 </wgt>
<wgt id='1726'> +1.2148197e-12 </wgt>
<wgt id='1727'> +1.2716111e-12 </wgt>
<wgt id='1728'> +1.2666136e-12 </wgt>
<wgt id='1729'> +1.2509450e-12 </wgt>
<wgt id='1730'> +1.2243862e-12 </wgt>
<wgt id='1731'> +1.1444834e-12 </wgt>
<wgt id='1732'> +1.2997477e-12 </wgt>
<wgt id='1733'> +1.3131661e-12 </wgt>
<wgt id='1734'> +1.3317803e-12 </wgt>
<wgt id='1735'> +1.3047344e-12 </wgt>
<wgt id='1736'> +1.3206952e-12 </wgt>
<wgt id='1737'> +1.2548665e-12 </wgt>
<wgt id='1738'> +1.2515946e-12 </wgt>
<wgt id='1739'> +1.2582525e-12 </wgt>
<wgt id='1740'> +1.2124466e-12 </wgt>
<wgt id='1741'> +1.2649075e-12 </wgt>
<wgt id='1742'> +1.2840763e-12 </wgt>
<wgt id='1743'> +1.2800991e-12 </wgt>
<wgt id='1744'> +1.3356684e-12 </wgt>
<wgt id='1745'> +1.2876786e-12 </wgt>
<wgt id='1746'> +1.3480440e-12 </wgt>
<wgt id='1747'> +1.2807970e-12 </wgt>
<wgt id='1748'> +1.3103813e-12 </wgt>
<wgt id='1749'> +1.2787255e-12 </wgt>
<wgt id='1750'> +1.2449795e-12 </wgt>
<wgt id='1751'> +1.2163584e-12 </wgt>
<wgt id='1752'> +1.2905465e-12 </wgt>
<wgt id='1753'> +1.3068815e-12 </wgt>
<wgt id='1754'> +1.3072100e-12 </wgt>
<wgt id='1755'> +1.2943913e-12 </wgt>
<wgt id='1756'> +1.2849394e-12 </wgt>
<wgt id='1757'> +1.2950544e-12 </wgt>
<wgt id='1758'> +1.3425478e-12 </wgt>
<wgt id='1759'> +1.2379357e-12 </wgt>
<wgt id='1760'> +1.2997260e-12 </wgt>
<wgt id='1761'> +1.2710387e-12 </wgt>
<wgt id='1762'> +1.2033429e-12 </wgt>
<wgt id='1763'> +1.3002453e-12 </wgt>
<wgt id='1764'> +1.3161249e-12 </wgt>
<wgt id='1765'> +1.2667958e-12 </wgt>
<wgt id='1766'> +1.2272150e-12 </wgt>
<wgt id='1767'> +1.2317686e-12 </wgt>
<wgt id='1768'> +1.2657159e-12 </wgt>
<wgt id='1769'> +1.2136720e-12 </wgt>
<wgt id='1770'> +1.2395147e-12 </wgt>
<wgt id='1771'> +1.2849085e-12 </wgt>
<wgt id='1772'> +1.3026581e-12 </wgt>
<wgt id='1773'> +1.3128607e-12 </wgt>
<wgt id='1774'> +1.1982003e-12 </wgt>
<wgt id='1775'> +1.2741541e-12 </wgt>
<wgt id='1776'> +1.1856656e-12 </wgt>
<wgt id='1777'> +1.1648356e-12 </wgt>
<wgt id='1778'> +1.2977806e-12 </wgt>
<wgt id='1779'> +1.2251156e-12 </wgt>
<wgt id='1780'> +1.4956519e-12 </wgt>
<wgt id='1781'> +1.2806112e-12 </wgt>
<wgt id='1782'> +1.2978069e-12 </wgt>
<wgt id='1783'> +1.2732957e-12 </wgt>
<wgt id='1784'> +1.2688936e-12 </wgt>
<wgt id='1785'> +1.2006200e-12 </wgt>
<wgt id='1786'> +1.2804810e-12 </wgt>
<wgt id='1787'> +1.2887060e-12 </wgt>
<wgt id='1788'> +1.2675147e-12 </wgt>
<wgt id='1789'> +1.2846550e-12 </wgt>
<wgt id='1790'> +1.2481022e-12 </wgt>
<wgt id='1791'> +1.3007520e-12 </wgt>
<wgt id='1792'> +1.2704114e-12 </wgt>
<wgt id='1793'> +1.2641504e-12 </wgt>
<wgt id='1794'> +1.3184431e-12 </wgt>
<wgt id='1795'> +1.2775828e-12 </wgt>
<wgt id='1796'> +1.2980552e-12 </wgt>
<wgt id='1797'> +1.2892668e-12 </wgt>
<wgt id='1798'> +1.2509370e-12 </wgt>
<wgt id='1799'> +1.2895451e-12 </wgt>
<wgt id='1800'> +1.2894578e-12 </wgt>
<wgt id='1801'> +1.2586553e-12 </wgt>
<wgt id='1802'> +1.1990933e-12 </wgt>
<wgt id='1803'> +1.3010880e-12 </wgt>
<wgt id='1804'> +1.3425053e-12 </wgt>
<wgt id='1805'> +1.2917715e-12 </wgt>
<wgt id='1806'> +1.2427152e-12 </wgt>
<wgt id='1807'> +1.2948569e-12 </wgt>
<wgt id='1808'> +1.2441717e-12 </wgt>
<wgt id='1809'> +1.2967455e-12 </wgt>
<wgt id='1810'> +1.2098230e-12 </wgt>
<wgt id='1811'> +1.2905881e-12 </wgt>
<wgt id='1812'> +1.2647257e-12 </wgt>
<wgt id='1813'> +1.2147520e-12 </wgt>
<wgt id='1814'> +1.1651743e-12 </wgt>
<wgt id='1815'> +1.4817778e-12 </wgt>
<wgt id='1816'> +1.2703354e-12 </wgt>
<wgt id='1817'> +1.2616461e-12 </wgt>
<wgt id='1818'> +1.2848638e-12 </wgt>
<wgt id='1819'> +1.3024921e-12 </wgt>
<wgt id='1820'> +1.3199191e-12 </wgt>
<wgt id='1821'> +1.1502171e-12 </wgt>
<wgt id='1822'> +1.1984674e-12 </wgt>
<wgt id='1823'> +1.2642573e-12 </wgt>
<wgt id='1824'> +1.3250695e-12 </wgt>
<wgt id='1825'> +1.2293705e-12 </wgt>
<wgt id='1826'> +1.3637797e-12 </wgt>
<wgt id='1827'> +1.1503770e-12 </wgt>
<wgt id='1828'> +1.2133059e-12 </wgt>
<wgt id='1829'> +1.2148197e-12 </wgt>
<wgt id='1830'> +1.2716111e-12 </wgt>
<wgt id='1831'> +1.2666136e-12 </wgt>
<wgt id='1832'> +1.2509450e-12 </wgt>
<wgt id='1833'> +1.2243862e-12 </wgt>
<wgt id='1834'> +1.1444834e-12 </wgt>
<wgt id='1835'> +1.2997477e-12 </wgt>
<wgt id='1836'> +1.3131661e-12 </wgt>
<wgt id='1837'> +1.3317803e-12 </wgt>
<wgt id='1838'> +1.3047344e-12 </wgt>
<wgt id='1839'> +1.3206952e-12 </wgt>
<wgt id='1840'> +1.2548665e-12 </wgt>
<wgt id='1841'> +1.2515946e-12 </wgt>
<wgt id='1842'> +1.2582525e-12 </wgt>
<wgt id='1843'> +1.2124466e-12 </wgt>
<wgt id='1844'> +1.2649075e-12 </wgt>
<wgt id='1845'> +1.2840763e-12 </wgt>
<wgt id='1846'> +1.2800991e-12 </wgt>
<wgt id='1847'> +1.3356684e-12 </wgt>
<wgt id='1848'> +1.2876786e-12 </wgt>
<wgt id='1849'> +1.3480440e-12 </wgt>
<wgt id='1850'> +1.2807970e-12 </wgt>
<wgt id='1851'> +1.3103813e-12 </wgt>
<wgt id='1852'> +1.2787255e-12 </wgt>
<wgt id='1853'> +1.2449795e-12 </wgt>
<wgt id='1854'> +1.2163584e-12 </wgt>
<wgt id='1855'> +1.2905465e-12 </wgt>
<wgt id='1856'> +1.3068815e-12 </wgt>
<wgt id='1857'> +1.3072100e-12 </wgt>
<wgt id='1858'> +1.2943913e-12 </wgt>
<wgt id='1859'> +1.2849394e-12 </wgt>
<wgt id='1860'> +1.2950544e-12 </wgt>
<wgt id='1861'> +1.3425478e-12 </wgt>
<wgt id='1862'> +1.2379357e-12 </wgt>
<wgt id='1863'> +1.2997260e-12 </wgt>
<wgt id='1864'> +1.2710387e-12 </wgt>
<wgt id='1865'> +1.2033429e-12 </wgt>
<wgt id='1866'> +1.3002453e-12 </wgt>
<wgt id='1867'> +1.3161249e-12 </wgt>
<wgt id='1868'> +1.2667958e-12 </wgt>
<wgt id='1869'> +1.2272150e-12 </wgt>
<wgt id='1870'> +1.2317686e-12 </wgt>
<wgt id='1871'> +1.2657159e-12 </wgt>
<wgt id='1872'> +1.2136720e-12 </wgt>
<wgt id='1873'> +1.2395147e-12 </wgt>
<wgt id='1874'> +1.2849085e-12 </wgt>
<wgt id='1875'> +1.3026581e-12 </wgt>
<wgt id='1876'> +1.3128607e-12 </wgt>
<wgt id='1877'> +1.1982003e-12 </wgt>
<wgt id='1878'> +1.2741541e-12 </wgt>
<wgt id='1879'> +1.1856656e-12 </wgt>
<wgt id='1880'> +1.1648356e-12 </wgt>
<wgt id='1881'> +1.2977806e-12 </wgt>
<wgt id='1882'> +1.2251156e-12 </wgt>
<wgt id='1883'> +1.4956519e-12 </wgt>
<wgt id='1884'> +1.2806112e-12 </wgt>
<wgt id='1885'> +1.2978069e-12 </wgt>
<wgt id='1886'> +1.2732957e-12 </wgt>
<wgt id='1887'> +1.2688936e-12 </wgt>
<wgt id='1888'> +1.2006200e-12 </wgt>
<wgt id='1889'> +1.2804810e-12 </wgt>
<wgt id='1890'> +1.2887060e-12 </wgt>
<wgt id='1891'> +1.2675147e-12 </wgt>
<wgt id='1892'> +1.2846550e-12 </wgt>
<wgt id='1893'> +1.2481022e-12 </wgt>
<wgt id='1894'> +1.3007520e-12 </wgt>
<wgt id='1895'> +1.2704114e-12 </wgt>
<wgt id='1896'> +1.2641504e-12 </wgt>
<wgt id='1897'> +1.3184431e-12 </wgt>
<wgt id='1898'> +1.2775828e-12 </wgt>
<wgt id='1899'> +1.2980552e-12 </wgt>
<wgt id='1900'> +1.2892668e-12 </wgt>
<wgt id='1901'> +1.2509370e-12 </wgt>
<wgt id='1902'> +1.2895451e-12 </wgt>
<wgt id='1903'> +1.2894578e-12 </wgt>
<wgt id='1904'> +1.2586553e-12 </wgt>
<wgt id='1905'> +1.1990933e-12 </wgt>
<wgt id='1906'> +1.3010880e-12 </wgt>
<wgt id='1907'> +1.3425053e-12 </wgt>
<wgt id='1908'> +1.2917715e-12 </wgt>
<wgt id='1909'> +1.2427152e-12 </wgt>
<wgt id='1910'> +1.2948569e-12 </wgt>
<wgt id='1911'> +1.2441717e-12 </wgt>
<wgt id='1912'> +1.2967455e-12 </wgt>
<wgt id='1913'> +1.2098230e-12 </wgt>
<wgt id='1914'> +1.2905881e-12 </wgt>
<wgt id='1915'> +1.2647257e-12 </wgt>
<wgt id='1916'> +1.2147520e-12 </wgt>
<wgt id='1917'> +1.2569011e-12 </wgt>
<wgt id='1918'> +1.2920989e-12 </wgt>
<wgt id='1919'> +1.3069961e-12 </wgt>
</rwgt>
</event>
<event>
 9      1 +1.5607000e-12 3.04250600e+01 7.81860800e-03 1.44545700e-01
        2 -1    0    0  502    0 +0.0000000000e+00 +0.0000000000e+00 +3.5727190078e+01 3.5727190078e+01 0.0000000000e+00 0.0000e+00 1.0000e+00
       -2 -1    0    0    0  501 -0.0000000000e+00 -0.0000000000e+00 -3.9490620976e+01 3.9490620976e+01 0.0000000000e+00 0.0000e+00 -1.0000e+00
     1023  2    1    2    0    0 -1.5247953472e+01 +2.1638087619e+01 +2.2567569004e+01 3.7881120296e+01 1.4999239423e+01 0.0000e+00 0.0000e+00
  1000023  2    3    3    0    0 -1.5417809287e+01 +1.6511608034e+01 +1.7686652278e+01 2.9213191362e+01 5.5000761494e+00 0.0000e+00 0.0000e+00
       21  1    1    2  502  501 +1.5247953472e+01 -2.1638087619e+01 -2.6330999902e+01 3.7336690757e+01 0.0000000000e+00 0.0000e+00 -1.0000e+00
  1000022  1    4    4    0    0 -1.3275987396e+01 +1.4834281668e+01 +1.5752152604e+01 2.5873501224e+01 5.0000000000e+00 0.0000e+00 1.0000e+00
      -11  1    4    4    0    0 -9.2442570878e-01 +7.3404043990e-01 +7.7826964015e-01 1.4138890170e+00 5.1100000000e-04 0.0000e+00 -1.0000e+00
       11  1    4    4    0    0 -1.2173961824e+00 +9.4328592673e-01 +1.1562300338e+00 1.9258011207e+00 5.1100000000e-04 0.0000e+00 1.0000e+00
  1000022  1    3    3    0    0 +1.6985581495e-01 +5.1264795843e+00 +4.8809167259e+00 8.6679289344e+00 5.0000000000e+00 0.0000e+00 1.0000e+00
<mgrwt>
<rscale>  1 0.30425057E+02</rscale>
<asrwt>0</asrwt>
<pdfrwt beam="1">  1        2 0.54964908E-02 0.30425057E+02</pdfrwt>
<pdfrwt beam="2">  1       -2 0.60754801E-02 0.30425057E+02</pdfrwt>
<totfact> 0.17812409E+05</totfact>
</mgrwt>
<rwgt>
<wgt id='1001'> +1.5607000e-12 </wgt>
<wgt id='1002'> +1.5835363e-12 </wgt>
<wgt id='1003'> +1.5839790e-12 </wgt>
<wgt id='1004'> +1.5566781e-12 </wgt>
<wgt id='1005'> +1.5883613e-12 </wgt>
<wgt id='1006'> +1.3661644e-12 </wgt>
<wgt id='1007'> +1.4066969e-12 </wgt>
<wgt id='1008'> +1.4076891e-12 </wgt>
<wgt id='1009'> +1.3601060e-12 </wgt>
<wgt id='1010'> +1.4195877e-12 </wgt>
<wgt id='1011'> +1.8230170e-12 </wgt>
<wgt id='1012'> +1.8134154e-12 </wgt>
<wgt id='1013'> +1.8129068e-12 </wgt>
<wgt id='1014'> +1.8230150e-12 </wgt>
<wgt id='1015'> +1.8045409e-12 </wgt>
<wgt id='1016'> +1.8110795e-12 </wgt>
<wgt id='1017'> +1.7896101e-12 </wgt>
<wgt id='1018'> +1.7887853e-12 </wgt>
<wgt id='1019'> +1.8129068e-12 </wgt>
<wgt id='1020'> +1.7767237e-12 </wgt>
<wgt id='1021'> +1.5853350e-12 </wgt>
<wgt id='1022'> +1.5897577e-12 </wgt>
<wgt id='1023'> +1.5897013e-12 </wgt>
<wgt id='1024'> +1.5839790e-12 </wgt>
<wgt id='1025'> +1.5879354e-12 </wgt>
<wgt id='1026'> +2.1154795e-12 </wgt>
<wgt id='1027'> +2.0494046e-12 </wgt>
<wgt id='1028'> +2.0473131e-12 </wgt>
<wgt id='1029'> +2.1230826e-12 </wgt>
<wgt id='1030'> +2.0185398e-12 </wgt>
<wgt id='1031'> +1.2886953e-12 </wgt>
<wgt id='1032'> +1.3582611e-12 </wgt>
<wgt id='1033'> +1.3601060e-12 </wgt>
<wgt id='1034'> +1.2788725e-12 </wgt>
<wgt id='1035'> +1.3827324e-12 </wgt>
<wgt id='1036'> +1.1280640e-12 </wgt>
<wgt id='1037'> +1.2065791e-12 </wgt>
<wgt id='1038'> +1.2087322e-12 </wgt>
<wgt id='1039'> +1.1173808e-12 </wgt>
<wgt id='1040'> +1.2358082e-12 </wgt>
<wgt id='1041'> +1.5052947e-12 </wgt>
<wgt id='1042'> +1.5554375e-12 </wgt>
<wgt id='1043'> +1.5566781e-12 </wgt>
<wgt id='1044'> +1.4976788e-12 </wgt>
<wgt id='1045'> +1.5709254e-12 </wgt>
<wgt id='1046'> +1.5607000e-12 </wgt>
<wgt id='1047'> +1.6851894e-12 </wgt>
<wgt id='1048'> +1.5354789e-12 </wgt>
<wgt id='1049'> +1.5186628e-12 </wgt>
<wgt id='1050'> +1.5298996e-12 </wgt>
<wgt id='1051'> +1.5326633e-12 </wgt>
<wgt id='1052'> +1.6321826e-12 </wgt>
<wgt id='1053'> +1.5495842e-12 </wgt>
<wgt id='1054'> +1.5069049e-12 </wgt>
<wgt id='1055'> +1.4852464e-12 </wgt>
<wgt id='1056'> +1.5395776e-12 </wgt>
<wgt id='1057'> +1.5989311e-12 </wgt>
<wgt id='1058'> +1.4898067e-12 </wgt>
<wgt id='1059'> +1.5410331e-12 </wgt>
<wgt id='1060'> +1.6048589e-12 </wgt>
<wgt id='1061'> +1.5582023e-12 </wgt>
<wgt id='1062'> +1.5561001e-12 </wgt>
<wgt id='1063'> +1.5838306e-12 </wgt>
<wgt id='1064'> +1.5258885e-12 </wgt>
<wgt id='1065'> +1.5551043e-12 </wgt>
<wgt id='1066'> +1.4910201e-12 </wgt>
<wgt id='1067'> +1.5028841e-12 </wgt>
<wgt id='1068'> +1.5801722e-12 </wgt>
<wgt id='1069'> +1.5737304e-12 </wgt>
<wgt id='1070'> +1.5064992e-12 </wgt>
<wgt id='1071'> +1.4960307e-12 </wgt>
<wgt id='1072'> +1.6130676e-12 </wgt>
<wgt id='1073'> +1.5969350e-12 </wgt>
<wgt id='1074'> +1.5447768e-12 </wgt>
<wgt id='1075'> +1.5704328e-12 </wgt>
<wgt id='1076'> +1.5955168e-12 </wgt>
<wgt id='1077'> +1.6237696e-12 </wgt>
<wgt id='1078'> +1.5331356e-12 </wgt>
<wgt id='1079'> +1.5827048e-12 </wgt>
<wgt id='1080'> +1.5080563e-12 </wgt>
<wgt id='1081'> +1.6160253e-12 </wgt>
<wgt id='1082'> +1.5507526e-12 </wgt>
<wgt id='1083'> +1.5374363e-12 </wgt>
<wgt id='1084'> +1.5413638e-12 </wgt>
<wgt id='1085'> +1.5823366e-12 </wgt>
<wgt id='1086'> +1.6066248e-12 </wgt>
<wgt id='1087'> +1.5826660e-12 </wgt>
<wgt id='1088'> +1.5829844e-12 </wgt>
<wgt id='1089'> +1.5976300e-12 </wgt>
<wgt id='1090'> +1.6132064e-12 </wgt>
<wgt id='1091'> +1.5875533e-12 </wgt>
<wgt id='1092'> +1.6020808e-12 </wgt>
<wgt id='1093'> +1.5970835e-12 </wgt>
<wgt id='1094'> +1.5752365e-12 </wgt>
<wgt id='1095'> +1.6093936e-12 </wgt>
<wgt id='1096'> +1.5656132e-12 </wgt>
<wgt id='1097'> +1.5384563e-12 </wgt>
<wgt id='1098'> +1.5107742e-12 </wgt>
<wgt id='1099'> +1.5813746e-12 </wgt>
<wgt id='1100'> +1.5599689e-12 </wgt>
<wgt id='1101'> +1.6030019e-12 </wgt>
<wgt id='1102'> +1.5423353e-12 </wgt>
<wgt id='1103'> +1.5664904e-12 </wgt>
<wgt id='1104'> +1.5165999e-12 </wgt>
<wgt id='1105'> +1.5787209e-12 </wgt>
<wgt id='1106'> +1.6101135e-12 </wgt>
<wgt id='1107'> +1.5904298e-12 </wgt>
<wgt id='1108'> +1.5288400e-12 </wgt>
<wgt id='1109'> +1.5870663e-12 </wgt>
<wgt id='1110'> +1.5366796e-12 </wgt>
<wgt id='1111'> +1.5805364e-12 </wgt>
<wgt id='1112'> +1.6692928e-12 </wgt>
<wgt id='1113'> +1.6129713e-12 </wgt>
<wgt id='1114'> +1.5925045e-12 </wgt>
<wgt id='1115'> +1.5523161e-12 </wgt>
<wgt id='1116'> +1.5284170e-12 </wgt>
<wgt id='1117'> +1.5269442e-12 </wgt>
<wgt id='1118'> +1.6106870e-12 </wgt>
<wgt id='1119'> +1.4613660e-12 </wgt>
<wgt id='1120'> +1.5126224e-12 </wgt>
<wgt id='1121'> +1.5539599e-12 </wgt>
<wgt id='1122'> +1.6764931e-12 </wgt>
<wgt id='1123'> +1.4820294e-12 </wgt>
<wgt id='1124'> +1.5524386e-12 </wgt>
<wgt id='1125'> +1.5497308e-12 </wgt>
<wgt id='1126'> +1.6463191e-12 </wgt>
<wgt id='1127'> +1.5369241e-12 </wgt>
<wgt id='1128'> +1.5561001e-12 </wgt>
<wgt id='1129'> +1.6077293e-12 </wgt>
<wgt id='1130'> +1.5263409e-12 </wgt>
<wgt id='1131'> +1.5490165e-12 </wgt>
<wgt id='1132'> +1.6063248e-12 </wgt>
<wgt id='1133'> +1.4734073e-12 </wgt>
<wgt id='1134'> +1.6236356e-12 </wgt>
<wgt id='1135'> +1.4666817e-12 </wgt>
<wgt id='1136'> +1.5458483e-12 </wgt>
<wgt id='1137'> +1.5199802e-12 </wgt>
<wgt id='1138'> +1.5287833e-12 </wgt>
<wgt id='1139'> +1.5371151e-12 </wgt>
<wgt id='1140'> +1.5690924e-12 </wgt>
<wgt id='1141'> +1.4922381e-12 </wgt>
<wgt id='1142'> +1.5774388e-12 </wgt>
<wgt id='1143'> +1.6269896e-12 </wgt>
<wgt id='1144'> +1.5550741e-12 </wgt>
<wgt id='1145'> +1.5310876e-12 </wgt>
<wgt id='1146'> +1.5100906e-12 </wgt>
<wgt id='1147'> +1.1423161e-12 </wgt>
<wgt id='1148'> +1.1707189e-12 </wgt>
<wgt id='1149'> +1.2904449e-12 </wgt>
<wgt id='1150'> +1.1859422e-12 </wgt>
<wgt id='1151'> +1.0600342e-12 </wgt>
<wgt id='1152'> +1.3260256e-12 </wgt>
<wgt id='1153'> +1.3172169e-12 </wgt>
<wgt id='1154'> +1.3311375e-12 </wgt>
<wgt id='1155'> +1.3242761e-12 </wgt>
<wgt id='1156'> +1.3269238e-12 </wgt>
<wgt id='1157'> +1.3344835e-12 </wgt>
<wgt id='1158'> +1.3146389e-12 </wgt>
<wgt id='1159'> +1.3331682e-12 </wgt>
<wgt id='1160'> +1.3214990e-12 </wgt>
<wgt id='1161'> +1.3270351e-12 </wgt>
<wgt id='1162'> +1.3253391e-12 </wgt>
<wgt id='1163'> +1.3299716e-12 </wgt>
<wgt id='1164'> +1.3220851e-12 </wgt>
<wgt id='1165'> +1.3211961e-12 </wgt>
<wgt id='1166'> +1.3307225e-12 </wgt>
<wgt id='1167'> +1.3281308e-12 </wgt>
<wgt id='1168'> +1.3225784e-12 </wgt>
<wgt id='1169'> +1.3252599e-12 </wgt>
<wgt id='1170'> +1.3266078e-12 </wgt>
<wgt id='1171'> +1.3216281e-12 </wgt>
<wgt id='1172'> +1.3310816e-12 </wgt>
<wgt id='1173'> +1.3176450e-12 </wgt>
<wgt id='1174'> +1.3332938e-12 </wgt>
<wgt id='1175'> +1.3245677e-12 </wgt>
<wgt id='1176'> +1.3265660e-12 </wgt>
<wgt id='1177'> +1.3279936e-12 </wgt>
<wgt id='1178'> +1.3206368e-12 </wgt>
<wgt id='1179'> +1.3298365e-12 </wgt>
<wgt id='1180'> +1.3168619e-12 </wgt>
<wgt id='1181'> +1.3194891e-12 </wgt>
<wgt id='1182'> +1.3325585e-12 </wgt>
<wgt id='1183'> +1.3263891e-12 </wgt>
<wgt id='1184'> +1.3259933e-12 </wgt>
<wgt id='1185'> +1.3120773e-12 </wgt>
<wgt id='1186'> +1.3336849e-12 </wgt>
<wgt id='1187'> +1.3249046e-12 </wgt>
<wgt id='1188'> +1.3264134e-12 </wgt>
<wgt id='1189'> +1.3209575e-12 </wgt>
<wgt id='1190'> +1.3199872e-12 </wgt>
<wgt id='1191'> +1.3262219e-12 </wgt>
<wgt id='1192'> +1.3243129e-12 </wgt>
<wgt id='1193'> +1.1994710e-12 </wgt>
<wgt id='1194'> +1.1993009e-12 </wgt>
<wgt id='1195'> +1.1995724e-12 </wgt>
<wgt id='1196'> +1.2095938e-12 </wgt>
<wgt id='1197'> +1.1882077e-12 </wgt>
<wgt id='1198'> +1.1972924e-12 </wgt>
<wgt id='1199'> +1.2026926e-12 </wgt>
<wgt id='1200'> +1.2015393e-12 </wgt>
<wgt id='1201'> +1.1980752e-12 </wgt>
<wgt id='1202'> +1.1993958e-12 </wgt>
<wgt id='1203'> +1.1995733e-12 </wgt>
<wgt id='1204'> +1.1984526e-12 </wgt>
<wgt id='1205'> +1.2001077e-12 </wgt>
<wgt id='1206'> +1.2021301e-12 </wgt>
<wgt id='1207'> +1.1958320e-12 </wgt>
<wgt id='1208'> +1.1917513e-12 </wgt>
<wgt id='1209'> +1.2022487e-12 </wgt>
<wgt id='1210'> +1.2053972e-12 </wgt>
<wgt id='1211'> +1.1862658e-12 </wgt>
<wgt id='1212'> +1.2017806e-12 </wgt>
<wgt id='1213'> +1.1972075e-12 </wgt>
<wgt id='1214'> +1.1814112e-12 </wgt>
<wgt id='1215'> +1.2302852e-12 </wgt>
<wgt id='1216'> +1.2048071e-12 </wgt>
<wgt id='1217'> +1.1953188e-12 </wgt>
<wgt id='1218'> +1.2005232e-12 </wgt>
<wgt id='1219'> +1.1987180e-12 </wgt>
<wgt id='1220'> +1.2028947e-12 </wgt>
<wgt id='1221'> +1.1987493e-12 </wgt>
<wgt id='1222'> +1.1984434e-12 </wgt>
<wgt id='1223'> +1.1971208e-12 </wgt>
<wgt id='1224'> +1.2011164e-12 </wgt>
<wgt id='1225'> +1.1988290e-12 </wgt>
<wgt id='1226'> +1.1933126e-12 </wgt>
<wgt id='1227'> +1.2035284e-12 </wgt>
<wgt id='1228'> +1.1981809e-12 </wgt>
<wgt id='1229'> +1.1992549e-12 </wgt>
<wgt id='1230'> +1.1884146e-12 </wgt>
<wgt id='1231'> +1.1992643e-12 </wgt>
<wgt id='1232'> +1.2012155e-12 </wgt>
<wgt id='1233'> +1.1989499e-12 </wgt>
<wgt id='1234'> +1.1994710e-12 </wgt>
<wgt id='1235'> +1.1897854e-12 </wgt>
<wgt id='1236'> +1.1933880e-12 </wgt>
<wgt id='1237'> +1.1965851e-12 </wgt>
<wgt id='1238'> +1.2019638e-12 </wgt>
<wgt id='1239'> +1.2042146e-12 </wgt>
<wgt id='1240'> +1.2062825e-12 </wgt>
<wgt id='1241'> +1.2381509e-12 </wgt>
<wgt id='1242'> +1.2346966e-12 </wgt>
<wgt id='1243'> +1.2416241e-12 </wgt>
<wgt id='1244'> +1.2292849e-12 </wgt>
<wgt id='1245'> +1.2447198e-12 </wgt>
<wgt id='1246'> +1.2376576e-12 </wgt>
<wgt id='1247'> +1.2385898e-12 </wgt>
<wgt id='1248'> +1.2381005e-12 </wgt>
<wgt id='1249'> +1.2382199e-12 </wgt>
<wgt id='1250'> +1.2455016e-12 </wgt>
<wgt id='1251'> +1.2330194e-12 </wgt>
<wgt id='1252'> +1.2358091e-12 </wgt>
<wgt id='1253'> +1.2399952e-12 </wgt>
<wgt id='1254'> +1.2373071e-12 </wgt>
<wgt id='1255'> +1.2386681e-12 </wgt>
<wgt id='1256'> +1.2413322e-12 </wgt>
<wgt id='1257'> +1.2302462e-12 </wgt>
<wgt id='1258'> +1.2627872e-12 </wgt>
<wgt id='1259'> +1.2163823e-12 </wgt>
<wgt id='1260'> +1.2405195e-12 </wgt>
<wgt id='1261'> +1.2355403e-12 </wgt>
<wgt id='1262'> +1.2361052e-12 </wgt>
<wgt id='1263'> +1.2386395e-12 </wgt>
<wgt id='1264'> +1.2352466e-12 </wgt>
<wgt id='1265'> +1.2393702e-12 </wgt>
<wgt id='1266'> +1.2349658e-12 </wgt>
<wgt id='1267'> +1.2399680e-12 </wgt>
<wgt id='1268'> +1.2385428e-12 </wgt>
<wgt id='1269'> +1.2403120e-12 </wgt>
<wgt id='1270'> +1.2335666e-12 </wgt>
<wgt id='1271'> +1.2303954e-12 </wgt>
<wgt id='1272'> +1.2369222e-12 </wgt>
<wgt id='1273'> +1.2378456e-12 </wgt>
<wgt id='1274'> +1.2422816e-12 </wgt>
<wgt id='1275'> +1.2306893e-12 </wgt>
<wgt id='1276'> +1.2383602e-12 </wgt>
<wgt id='1277'> +1.2360237e-12 </wgt>
<wgt id='1278'> +1.2381775e-12 </wgt>
<wgt id='1279'> +1.2328138e-12 </wgt>
<wgt id='1280'> +1.2377371e-12 </wgt>
<wgt id='1281'> +1.2393511e-12 </wgt>
<wgt id='1282'> +1.2381509e-12 </wgt>
<wgt id='1283'> +1.2274554e-12 </wgt>
<wgt id='1284'> +1.2315283e-12 </wgt>
<wgt id='1285'> +1.2351004e-12 </wgt>
<wgt id='1286'> +1.2408691e-12 </wgt>
<wgt id='1287'> +1.2431859e-12 </wgt>
<wgt id='1288'> +1.2450075e-12 </wgt>
<wgt id='1289'> +1.2080693e-12 </wgt>
<wgt id='1290'> +1.2083148e-12 </wgt>
<wgt id='1291'> +1.2077590e-12 </wgt>
<wgt id='1292'> +1.1965007e-12 </wgt>
<wgt id='1293'> +1.2164183e-12 </wgt>
<wgt id='1294'> +1.2050465e-12 </wgt>
<wgt id='1295'> +1.2109787e-12 </wgt>
<wgt id='1296'> +1.2044489e-12 </wgt>
<wgt id='1297'> +1.2124050e-12 </wgt>
<wgt id='1298'> +1.2096554e-12 </wgt>
<wgt id='1299'> +1.2059048e-12 </wgt>
<wgt id='1300'> +1.2093656e-12 </wgt>
<wgt id='1301'> +1.2053703e-12 </wgt>
<wgt id='1302'> +1.2066833e-12 </wgt>
<wgt id='1303'> +1.2099485e-12 </wgt>
<wgt id='1304'> +1.2086613e-12 </wgt>
<wgt id='1305'> +1.2075917e-12 </wgt>
<wgt id='1306'> +1.2092496e-12 </wgt>
<wgt id='1307'> +1.2069080e-12 </wgt>
<wgt id='1308'> +1.2186761e-12 </wgt>
<wgt id='1309'> +1.1999732e-12 </wgt>
<wgt id='1310'> +1.2119896e-12 </wgt>
<wgt id='1311'> +1.2040444e-12 </wgt>
<wgt id='1312'> +1.2124351e-12 </wgt>
<wgt id='1313'> +1.2038421e-12 </wgt>
<wgt id='1314'> +1.2071934e-12 </wgt>
<wgt id='1315'> +1.2057792e-12 </wgt>
<wgt id='1316'> +1.2135141e-12 </wgt>
<wgt id='1317'> +1.2073756e-12 </wgt>
<wgt id='1318'> +1.2123588e-12 </wgt>
<wgt id='1319'> +1.2024216e-12 </wgt>
<wgt id='1320'> +1.2204124e-12 </wgt>
<wgt id='1321'> +1.1981421e-12 </wgt>
<wgt id='1322'> +1.2049588e-12 </wgt>
<wgt id='1323'> +1.2115564e-12 </wgt>
<wgt id='1324'> +1.2056976e-12 </wgt>
<wgt id='1325'> +1.2169976e-12 </wgt>
<wgt id='1326'> +1.2034973e-12 </wgt>
<wgt id='1327'> +1.2130853e-12 </wgt>
<wgt id='1328'> +1.2097387e-12 </wgt>
<wgt id='1329'> +1.2062569e-12 </wgt>
<wgt id='1330'> +1.1727979e-12 </wgt>
<wgt id='1331'> +1.2329549e-12 </wgt>
<wgt id='1332'> +1.2267774e-12 </wgt>
<wgt id='1333'> +1.1885054e-12 </wgt>
<wgt id='1334'> +1.2000470e-12 </wgt>
<wgt id='1335'> +1.2281055e-12 </wgt>
<wgt id='1336'> +1.2058814e-12 </wgt>
<wgt id='1337'> +1.2007757e-12 </wgt>
<wgt id='1338'> +1.2059634e-12 </wgt>
<wgt id='1339'> +1.2078263e-12 </wgt>
<wgt id='1340'> +1.1726473e-12 </wgt>
<wgt id='1341'> +1.1732236e-12 </wgt>
<wgt id='1342'> +1.1720535e-12 </wgt>
<wgt id='1343'> +1.1609619e-12 </wgt>
<wgt id='1344'> +1.1805701e-12 </wgt>
<wgt id='1345'> +1.1699205e-12 </wgt>
<wgt id='1346'> +1.1752575e-12 </wgt>
<wgt id='1347'> +1.1692525e-12 </wgt>
<wgt id='1348'> +1.1764045e-12 </wgt>
<wgt id='1349'> +1.1737612e-12 </wgt>
<wgt id='1350'> +1.1714926e-12 </wgt>
<wgt id='1351'> +1.1738938e-12 </wgt>
<wgt id='1352'> +1.1699307e-12 </wgt>
<wgt id='1353'> +1.1712330e-12 </wgt>
<wgt id='1354'> +1.1752180e-12 </wgt>
<wgt id='1355'> +1.1738068e-12 </wgt>
<wgt id='1356'> +1.1720053e-12 </wgt>
<wgt id='1357'> +1.1771586e-12 </wgt>
<wgt id='1358'> +1.1676308e-12 </wgt>
<wgt id='1359'> +1.1833407e-12 </wgt>
<wgt id='1360'> +1.1634665e-12 </wgt>
<wgt id='1361'> +1.1759900e-12 </wgt>
<wgt id='1362'> +1.1684428e-12 </wgt>
<wgt id='1363'> +1.1784732e-12 </wgt>
<wgt id='1364'> +1.1690044e-12 </wgt>
<wgt id='1365'> +1.1670140e-12 </wgt>
<wgt id='1366'> +1.1746300e-12 </wgt>
<wgt id='1367'> +1.1777755e-12 </wgt>
<wgt id='1368'> +1.1717721e-12 </wgt>
<wgt id='1369'> +1.1761628e-12 </wgt>
<wgt id='1370'> +1.1681649e-12 </wgt>
<wgt id='1371'> +1.1804747e-12 </wgt>
<wgt id='1372'> +1.1633469e-12 </wgt>
<wgt id='1373'> +1.1666713e-12 </wgt>
<wgt id='1374'> +1.1776946e-12 </wgt>
<wgt id='1375'> +1.1704957e-12 </wgt>
<wgt id='1376'> +1.1814561e-12 </wgt>
<wgt id='1377'> +1.1688503e-12 </wgt>
<wgt id='1378'> +1.1771478e-12 </wgt>
<wgt id='1379'> +1.1737491e-12 </wgt>
<wgt id='1380'> +1.1712663e-12 </wgt>
<wgt id='1381'> +1.1362769e-12 </wgt>
<wgt id='1382'> +1.1956043e-12 </wgt>
<wgt id='1383'> +1.1929580e-12 </wgt>
<wgt id='1384'> +1.1503215e-12 </wgt>
<wgt id='1385'> +1.1646368e-12 </wgt>
<wgt id='1386'> +1.1915294e-12 </wgt>
<wgt id='1387'> +1.1698534e-12 </wgt>
<wgt id='1388'> +1.1638450e-12 </wgt>
<wgt id='1389'> +1.1687776e-12 </wgt>
<wgt id='1390'> +1.1726421e-12 </wgt>
<wgt id='1391'> +1.1666292e-12 </wgt>
<wgt id='1392'> +1.1174056e-12 </wgt>
<wgt id='1393'> +1.1333819e-12 </wgt>
<wgt id='1394'> +1.1503574e-12 </wgt>
<wgt id='1395'> +1.1834272e-12 </wgt>
<wgt id='1396'> +1.1678385e-12 </wgt>
<wgt id='1397'> +1.1211276e-12 </wgt>
<wgt id='1398'> +1.1319575e-12 </wgt>
<wgt id='1399'> +1.1406193e-12 </wgt>
<wgt id='1400'> +1.1490527e-12 </wgt>
<wgt id='1401'> +1.1586145e-12 </wgt>
<wgt id='1402'> +1.1754507e-12 </wgt>
<wgt id='1403'> +1.1827153e-12 </wgt>
<wgt id='1404'> +1.1888710e-12 </wgt>
<wgt id='1405'> +1.1678385e-12 </wgt>
<wgt id='1406'> +1.1647245e-12 </wgt>
<wgt id='1407'> +1.1667214e-12 </wgt>
<wgt id='1408'> +1.1690813e-12 </wgt>
<wgt id='1409'> +1.1709279e-12 </wgt>
<wgt id='1410'> +1.2348808e-12 </wgt>
<wgt id='1411'> +1.2341798e-12 </wgt>
<wgt id='1412'> +1.2357669e-12 </wgt>
<wgt id='1413'> +1.2407954e-12 </wgt>
<wgt id='1414'> +1.2290018e-12 </wgt>
<wgt id='1415'> +1.2186040e-12 </wgt>
<wgt id='1416'> +1.2414445e-12 </wgt>
<wgt id='1417'> +1.2276198e-12 </wgt>
<wgt id='1418'> +1.2420676e-12 </wgt>
<wgt id='1419'> +1.2346479e-12 </wgt>
<wgt id='1420'> +1.2350851e-12 </wgt>
<wgt id='1421'> +1.2312252e-12 </wgt>
<wgt id='1422'> +1.2364341e-12 </wgt>
<wgt id='1423'> +1.2341119e-12 </wgt>
<wgt id='1424'> +1.2357574e-12 </wgt>
<wgt id='1425'> +1.2330630e-12 </wgt>
<wgt id='1426'> +1.2368425e-12 </wgt>
<wgt id='1427'> +1.2466080e-12 </wgt>
<wgt id='1428'> +1.2282793e-12 </wgt>
<wgt id='1429'> +1.2272733e-12 </wgt>
<wgt id='1430'> +1.2451737e-12 </wgt>
<wgt id='1431'> +1.2391634e-12 </wgt>
<wgt id='1432'> +1.2318271e-12 </wgt>
<wgt id='1433'> +1.2320848e-12 </wgt>
<wgt id='1434'> +1.2370535e-12 </wgt>
<wgt id='1435'> +1.2336592e-12 </wgt>
<wgt id='1436'> +1.2378728e-12 </wgt>
<wgt id='1437'> +1.2385973e-12 </wgt>
<wgt id='1438'> +1.2347450e-12 </wgt>
<wgt id='1439'> +1.2305813e-12 </wgt>
<wgt id='1440'> +1.2447760e-12 </wgt>
<wgt id='1441'> +1.2390098e-12 </wgt>
<wgt id='1442'> +1.2270910e-12 </wgt>
<wgt id='1443'> +1.2330174e-12 </wgt>
<wgt id='1444'> +1.2389854e-12 </wgt>
<wgt id='1445'> +1.2476444e-12 </wgt>
<wgt id='1446'> +1.2300391e-12 </wgt>
<wgt id='1447'> +1.2351834e-12 </wgt>
<wgt id='1448'> +1.2359532e-12 </wgt>
<wgt id='1449'> +1.2371279e-12 </wgt>
<wgt id='1450'> +1.2330397e-12 </wgt>
<wgt id='1451'> +1.2547322e-12 </wgt>
<wgt id='1452'> +1.1868819e-12 </wgt>
<wgt id='1453'> +1.2378527e-12 </wgt>
<wgt id='1454'> +1.2138589e-12 </wgt>
<wgt id='1455'> +1.2136477e-12 </wgt>
<wgt id='1456'> +1.2456762e-12 </wgt>
<wgt id='1457'> +1.2493085e-12 </wgt>
<wgt id='1458'> +1.2282151e-12 </wgt>
<wgt id='1459'> +1.2378941e-12 </wgt>
<wgt id='1460'> +1.2275718e-12 </wgt>
<wgt id='1461'> +1.2348808e-12 </wgt>
<wgt id='1462'> +1.2155833e-12 </wgt>
<wgt id='1463'> +1.2590599e-12 </wgt>
<wgt id='1464'> +1.2366178e-12 </wgt>
<wgt id='1465'> +1.1989905e-12 </wgt>
<wgt id='1466'> +1.2084631e-12 </wgt>
<wgt id='1467'> +1.2177091e-12 </wgt>
<wgt id='1468'> +1.2219940e-12 </wgt>
<wgt id='1469'> +1.2304896e-12 </wgt>
<wgt id='1470'> +1.2425844e-12 </wgt>
<wgt id='1471'> +1.2465093e-12 </wgt>
<wgt id='1472'> +1.2523346e-12 </wgt>
<wgt id='1473'> +1.2366178e-12 </wgt>
<wgt id='1474'> +1.2324117e-12 </wgt>
<wgt id='1475'> +1.2326115e-12 </wgt>
<wgt id='1476'> +1.2386660e-12 </wgt>
<wgt id='1477'> +1.2409999e-12 </wgt>
<wgt id='1478'> +1.1495720e-12 </wgt>
<wgt id='1479'> +1.1473504e-12 </wgt>
<wgt id='1480'> +1.1561729e-12 </wgt>
<wgt id='1481'> +1.1536398e-12 </wgt>
<wgt id='1482'> +1.1441005e-12 </wgt>
<wgt id='1483'> +1.1182256e-12 </wgt>
<wgt id='1484'> +1.1477516e-12 </wgt>
<wgt id='1485'> +1.1430323e-12 </wgt>
<wgt id='1486'> +1.1512380e-12 </wgt>
<wgt id='1487'> +1.1577124e-12 </wgt>
<wgt id='1488'> +1.1480989e-12 </wgt>
<wgt id='1489'> +1.1589763e-12 </wgt>
<wgt id='1490'> +1.1430334e-12 </wgt>
<wgt id='1491'> +1.1480316e-12 </wgt>
<wgt id='1492'> +1.1529664e-12 </wgt>
<wgt id='1493'> +1.1393788e-12 </wgt>
<wgt id='1494'> +1.1720528e-12 </wgt>
<wgt id='1495'> +1.1326750e-12 </wgt>
<wgt id='1496'> +1.1463628e-12 </wgt>
<wgt id='1497'> +1.1448285e-12 </wgt>
<wgt id='1498'> +1.1488336e-12 </wgt>
<wgt id='1499'> +1.1485813e-12 </wgt>
<wgt id='1500'> +1.1518593e-12 </wgt>
<wgt id='1501'> +1.1479516e-12 </wgt>
<wgt id='1502'> +1.1481997e-12 </wgt>
<wgt id='1503'> +1.1477772e-12 </wgt>
<wgt id='1504'> +1.1395311e-12 </wgt>
<wgt id='1505'> +1.1487596e-12 </wgt>
<wgt id='1506'> +1.1467402e-12 </wgt>
<wgt id='1507'> +1.1490916e-12 </wgt>
<wgt id='1508'> +1.1521743e-12 </wgt>
<wgt id='1509'> +1.3317632e-12 </wgt>
<wgt id='1510'> +1.3318565e-12 </wgt>
<wgt id='1511'> +1.3332662e-12 </wgt>
<wgt id='1512'> +1.3309718e-12 </wgt>
<wgt id='1513'> +1.3425611e-12 </wgt>
<wgt id='1514'> +1.3320722e-12 </wgt>
<wgt id='1515'> +1.3268603e-12 </wgt>
<wgt id='1516'> +1.3305494e-12 </wgt>
<wgt id='1517'> +1.3274283e-12 </wgt>
<wgt id='1518'> +1.3426707e-12 </wgt>
<wgt id='1519'> +1.3229830e-12 </wgt>
<wgt id='1520'> +1.3262606e-12 </wgt>
<wgt id='1521'> +1.3394639e-12 </wgt>
<wgt id='1522'> +1.3288831e-12 </wgt>
<wgt id='1523'> +1.3483355e-12 </wgt>
<wgt id='1524'> +1.3354708e-12 </wgt>
<wgt id='1525'> +1.3429478e-12 </wgt>
<wgt id='1526'> +1.3253419e-12 </wgt>
<wgt id='1527'> +1.3263070e-12 </wgt>
<wgt id='1528'> +1.3366070e-12 </wgt>
<wgt id='1529'> +1.3332293e-12 </wgt>
<wgt id='1530'> +1.3445786e-12 </wgt>
<wgt id='1531'> +1.3346966e-12 </wgt>
<wgt id='1532'> +1.3236646e-12 </wgt>
<wgt id='1533'> +1.3278267e-12 </wgt>
<wgt id='1534'> +1.3391952e-12 </wgt>
<wgt id='1535'> +1.3157471e-12 </wgt>
<wgt id='1536'> +1.3272102e-12 </wgt>
<wgt id='1537'> +1.3316723e-12 </wgt>
<wgt id='1538'> +1.3289387e-12 </wgt>
<wgt id='1539'> +1.3304010e-12 </wgt>
<wgt id='1540'> +1.3351276e-12 </wgt>
<wgt id='1541'> +1.3332500e-12 </wgt>
<wgt id='1542'> +1.3337566e-12 </wgt>
<wgt id='1543'> +1.3297548e-12 </wgt>
<wgt id='1544'> +1.3257353e-12 </wgt>
<wgt id='1545'> +1.3336584e-12 </wgt>
<wgt id='1546'> +1.3314007e-12 </wgt>
<wgt id='1547'> +1.3326724e-12 </wgt>
<wgt id='1548'> +1.3300655e-12 </wgt>
<wgt id='1549'> +1.3279617e-12 </wgt>
<wgt id='1550'> +1.3376034e-12 </wgt>
<wgt id='1551'> +1.3299610e-12 </wgt>
<wgt id='1552'> +1.3313069e-12 </wgt>
<wgt id='1553'> +1.3337796e-12 </wgt>
<wgt id='1554'> +1.3386366e-12 </wgt>
<wgt id='1555'> +1.3374796e-12 </wgt>
<wgt id='1556'> +1.3309709e-12 </wgt>
<wgt id='1557'> +1.3335615e-12 </wgt>
<wgt id='1558'> +1.3289271e-12 </wgt>
<wgt id='1559'> +1.3292674e-12 </wgt>
<wgt id='1560'> +1.3339793e-12 </wgt>
<wgt id='1561'> +1.3287431e-12 </wgt>
<wgt id='1562'> +1.3314266e-12 </wgt>
<wgt id='1563'> +1.3322079e-12 </wgt>
<wgt id='1564'> +1.3287027e-12 </wgt>
<wgt id='1565'> +1.3328171e-12 </wgt>
<wgt id='1566'> +1.3319315e-12 </wgt>
<wgt id='1567'> +1.3314272e-12 </wgt>
<wgt id='1568'> +1.3308444e-12 </wgt>
<wgt id='1569'> +1.3323235e-12 </wgt>
<wgt id='1570'> +1.3294824e-12 </wgt>
<wgt id='1571'> +1.3322519e-12 </wgt>
<wgt id='1572'> +1.3295553e-12 </wgt>
<wgt id='1573'> +1.3323156e-12 </wgt>
<wgt id='1574'> +1.3312506e-12 </wgt>
<wgt id='1575'> +1.3320683e-12 </wgt>
<wgt id='1576'> +1.3310767e-12 </wgt>
<wgt id='1577'> +1.3318413e-12 </wgt>
<wgt id='1578'> +1.3320093e-12 </wgt>
<wgt id='1579'> +1.3315868e-12 </wgt>
<wgt id='1580'> +1.3333900e-12 </wgt>
<wgt id='1581'> +1.3312113e-12 </wgt>
<wgt id='1582'> +1.3310950e-12 </wgt>
<wgt id='1583'> +1.3320554e-12 </wgt>
<wgt id='1584'> +1.3311476e-12 </wgt>
<wgt id='1585'> +1.3308519e-12 </wgt>
<wgt id='1586'> +1.3311220e-12 </wgt>
<wgt id='1587'> +1.3313509e-12 </wgt>
<wgt id='1588'> +1.3335146e-12 </wgt>
<wgt id='1589'> +1.3315270e-12 </wgt>
<wgt id='1590'> +1.3309251e-12 </wgt>
<wgt id='1591'> +1.3314755e-12 </wgt>
<wgt id='1592'> +1.3299354e-12 </wgt>
<wgt id='1593'> +1.3327659e-12 </wgt>
<wgt id='1594'> +1.3324190e-12 </wgt>
<wgt id='1595'> +1.3323640e-12 </wgt>
<wgt id='1596'> +1.3316937e-12 </wgt>
<wgt id='1597'> +1.3315987e-12 </wgt>
<wgt id='1598'> +1.3320769e-12 </wgt>
<wgt id='1599'> +1.3329531e-12 </wgt>
<wgt id='1600'> +1.3324101e-12 </wgt>
<wgt id='1601'> +1.3317746e-12 </wgt>
<wgt id='1602'> +1.3316550e-12 </wgt>
<wgt id='1603'> +1.3318807e-12 </wgt>
<wgt id='1604'> +1.3320145e-12 </wgt>
<wgt id='1605'> +1.3317494e-12 </wgt>
<wgt id='1606'> +1.3320102e-12 </wgt>
<wgt id='1607'> +1.3323683e-12 </wgt>
<wgt id='1608'> +1.3313659e-12 </wgt>
<wgt id='1609'> +1.3317572e-12 </wgt>
<wgt id='1610'> +1.3012280e-12 </wgt>
<wgt id='1611'> +1.3677261e-12 </wgt>
<wgt id='1612'> +1.4841929e-12 </wgt>
<wgt id='1613'> +1.4351808e-12 </wgt>
<wgt id='1614'> +1.4876198e-12 </wgt>
<wgt id='1615'> +1.4743076e-12 </wgt>
<wgt id='1616'> +1.5222559e-12 </wgt>
<wgt id='1617'> +1.5718465e-12 </wgt>
<wgt id='1618'> +1.5651744e-12 </wgt>
<wgt id='1619'> +1.5120864e-12 </wgt>
<wgt id='1620'> +1.4166496e-12 </wgt>
<wgt id='1621'> +1.4940018e-12 </wgt>
<wgt id='1622'> +1.5111519e-12 </wgt>
<wgt id='1623'> +1.4938746e-12 </wgt>
<wgt id='1624'> +1.4677403e-12 </wgt>
<wgt id='1625'> +1.4442775e-12 </wgt>
<wgt id='1626'> +1.4462119e-12 </wgt>
<wgt id='1627'> +1.4540352e-12 </wgt>
<wgt id='1628'> +1.4872710e-12 </wgt>
<wgt id='1629'> +1.5706846e-12 </wgt>
<wgt id='1630'> +1.4874322e-12 </wgt>
<wgt id='1631'> +1.4529191e-12 </wgt>
<wgt id='1632'> +1.3216793e-12 </wgt>
<wgt id='1633'> +1.4198587e-12 </wgt>
<wgt id='1634'> +1.5505065e-12 </wgt>
<wgt id='1635'> +1.5043035e-12 </wgt>
<wgt id='1636'> +1.5588259e-12 </wgt>
<wgt id='1637'> +1.4610903e-12 </wgt>
<wgt id='1638'> +1.4751363e-12 </wgt>
<wgt id='1639'> +1.4752422e-12 </wgt>
<wgt id='1640'> +1.4498785e-12 </wgt>
<wgt id='1641'> +1.4622021e-12 </wgt>
<wgt id='1642'> +1.4497481e-12 </wgt>
<wgt id='1643'> +1.5234682e-12 </wgt>
<wgt id='1644'> +1.4041170e-12 </wgt>
<wgt id='1645'> +1.4671776e-12 </wgt>
<wgt id='1646'> +1.4277238e-12 </wgt>
<wgt id='1647'> +1.4339768e-12 </wgt>
<wgt id='1648'> +1.5027120e-12 </wgt>
<wgt id='1649'> +1.6003864e-12 </wgt>
<wgt id='1650'> +1.4651245e-12 </wgt>
<wgt id='1651'> +1.4591468e-12 </wgt>
<wgt id='1652'> +1.4230470e-12 </wgt>
<wgt id='1653'> +1.5751756e-12 </wgt>
<wgt id='1654'> +1.5058063e-12 </wgt>
<wgt id='1655'> +1.4642802e-12 </wgt>
<wgt id='1656'> +1.3850620e-12 </wgt>
<wgt id='1657'> +1.4618981e-12 </wgt>
<wgt id='1658'> +1.4241404e-12 </wgt>
<wgt id='1659'> +1.4677403e-12 </wgt>
<wgt id='1660'> +1.5593037e-12 </wgt>
<wgt id='1661'> +1.4900665e-12 </wgt>
<wgt id='1662'> +1.4980994e-12 </wgt>
<wgt id='1663'> +1.5055524e-12 </wgt>
<wgt id='1664'> +1.4232290e-12 </wgt>
<wgt id='1665'> +1.3747110e-12 </wgt>
<wgt id='1666'> +1.5246583e-12 </wgt>
<wgt id='1667'> +1.4706476e-12 </wgt>
<wgt id='1668'> +1.5595137e-12 </wgt>
<wgt id='1669'> +1.4058486e-12 </wgt>
<wgt id='1670'> +1.5060526e-12 </wgt>
<wgt id='1671'> +1.4221222e-12 </wgt>
<wgt id='1672'> +1.4762461e-12 </wgt>
<wgt id='1673'> +1.5361784e-12 </wgt>
<wgt id='1674'> +1.4417782e-12 </wgt>
<wgt id='1675'> +1.4842302e-12 </wgt>
<wgt id='1676'> +1.5522155e-12 </wgt>
<wgt id='1677'> +1.5864584e-12 </wgt>
<wgt id='1678'> +1.4684382e-12 </wgt>
<wgt id='1679'> +1.5346105e-12 </wgt>
<wgt id='1680'> +1.5033080e-12 </wgt>
<wgt id='1681'> +1.5011237e-12 </wgt>
<wgt id='1682'> +1.5062241e-12 </wgt>
<wgt id='1683'> +1.4504858e-12 </wgt>
<wgt id='1684'> +1.4698086e-12 </wgt>
<wgt id='1685'> +1.4480187e-12 </wgt>
<wgt id='1686'> +1.4776394e-12 </wgt>
<wgt id='1687'> +1.5444173e-12 </wgt>
<wgt id='1688'> +1.4730714e-12 </wgt>
<wgt id='1689'> +1.4659840e-12 </wgt>
<wgt id='1690'> +1.4983015e-12 </wgt>
<wgt id='1691'> +1.5034345e-12 </wgt>
<wgt id='1692'> +1.5418519e-12 </wgt>
<wgt id='1693'> +1.5194734e-12 </wgt>
<wgt id='1694'> +1.4601087e-12 </wgt>
<wgt id='1695'> +1.4972169e-12 </wgt>
<wgt id='1696'> +1.5063610e-12 </wgt>
<wgt id='1697'> +1.5484862e-12 </wgt>
<wgt id='1698'> +1.4697201e-12 </wgt>
<wgt id='1699'> +1.5421412e-12 </wgt>
<wgt id='1700'> +1.4511289e-12 </wgt>
<wgt id='1701'> +1.4926290e-12 </wgt>
<wgt id='1702'> +1.5186292e-12 </wgt>
<wgt id='1703'> +1.5301419e-12 </wgt>
<wgt id='1704'> +1.4251138e-12 </wgt>
<wgt id='1705'> +1.4023783e-12 </wgt>
<wgt id='1706'> +1.5120452e-12 </wgt>
<wgt id='1707'> +1.5028995e-12 </wgt>
<wgt id='1708'> +1.4692415e-12 </wgt>
<wgt id='1709'> +1.4618337e-12 </wgt>
<wgt id='1710'> +1.4753031e-12 </wgt>
<wgt id='1711'> +1.5584160e-12 </wgt>
<wgt id='1712'> +1.4898295e-12 </wgt>
<wgt id='1713'> +1.1295467e-12 </wgt>
<wgt id='1714'> +1.1167523e-12 </wgt>
<wgt id='1715'> +1.1462122e-12 </wgt>
<wgt id='1716'> +1.2274339e-12 </wgt>
<wgt id='1717'> +1.1676799e-12 </wgt>
<wgt id='1718'> +1.1666471e-12 </wgt>
<wgt id='1719'> +1.1408130e-12 </wgt>
<wgt id='1720'> +1.1389183e-12 </wgt>
<wgt id='1721'> +1.0941613e-12 </wgt>
<wgt id='1722'> +1.1225027e-12 </wgt>
<wgt id='1723'> +1.0502436e-12 </wgt>
<wgt id='1724'> +1.0545678e-12 </wgt>
<wgt id='1725'> +1.1361109e-12 </wgt>
<wgt id='1726'> +1.1929298e-12 </wgt>
<wgt id='1727'> +1.1177453e-12 </wgt>
<wgt id='1728'> +1.1176923e-12 </wgt>
<wgt id='1729'> +1.1171742e-12 </wgt>
<wgt id='1730'> +1.1068667e-12 </wgt>
<wgt id='1731'> +1.0833426e-12 </wgt>
<wgt id='1732'> +1.1322625e-12 </wgt>
<wgt id='1733'> +1.1546305e-12 </wgt>
<wgt id='1734'> +1.1756095e-12 </wgt>
<wgt id='1735'> +1.0854095e-12 </wgt>
<wgt id='1736'> +1.1702156e-12 </wgt>
<wgt id='1737'> +1.2025057e-12 </wgt>
<wgt id='1738'> +1.1498293e-12 </wgt>
<wgt id='1739'> +1.1224733e-12 </wgt>
<wgt id='1740'> +1.1394702e-12 </wgt>
<wgt id='1741'> +1.1350306e-12 </wgt>
<wgt id='1742'> +1.1532099e-12 </wgt>
<wgt id='1743'> +1.1543980e-12 </wgt>
<wgt id='1744'> +1.1893280e-12 </wgt>
<wgt id='1745'> +1.0456699e-12 </wgt>
<wgt id='1746'> +1.1310807e-12 </wgt>
<wgt id='1747'> +1.1356459e-12 </wgt>
<wgt id='1748'> +1.1547904e-12 </wgt>
<wgt id='1749'> +1.1464374e-12 </wgt>
<wgt id='1750'> +1.1272500e-12 </wgt>
<wgt id='1751'> +1.0299090e-12 </wgt>
<wgt id='1752'> +1.1494650e-12 </wgt>
<wgt id='1753'> +1.1445184e-12 </wgt>
<wgt id='1754'> +1.1444401e-12 </wgt>
<wgt id='1755'> +1.1515257e-12 </wgt>
<wgt id='1756'> +1.1423610e-12 </wgt>
<wgt id='1757'> +1.1023110e-12 </wgt>
<wgt id='1758'> +1.1414830e-12 </wgt>
<wgt id='1759'> +1.1483880e-12 </wgt>
<wgt id='1760'> +1.0768743e-12 </wgt>
<wgt id='1761'> +1.1216665e-12 </wgt>
<wgt id='1762'> +1.1420017e-12 </wgt>
<wgt id='1763'> +1.1793261e-12 </wgt>
<wgt id='1764'> +1.1133582e-12 </wgt>
<wgt id='1765'> +1.1372660e-12 </wgt>
<wgt id='1766'> +1.1056735e-12 </wgt>
<wgt id='1767'> +1.1471998e-12 </wgt>
<wgt id='1768'> +1.1424003e-12 </wgt>
<wgt id='1769'> +1.1083939e-12 </wgt>
<wgt id='1770'> +1.1732385e-12 </wgt>
<wgt id='1771'> +1.1563976e-12 </wgt>
<wgt id='1772'> +1.1703812e-12 </wgt>
<wgt id='1773'> +1.1254620e-12 </wgt>
<wgt id='1774'> +1.1328306e-12 </wgt>
<wgt id='1775'> +1.1429372e-12 </wgt>
<wgt id='1776'> +1.1404103e-12 </wgt>
<wgt id='1777'> +1.0207545e-12 </wgt>
<wgt id='1778'> +1.1338164e-12 </wgt>
<wgt id='1779'> +1.1531654e-12 </wgt>
<wgt id='1780'> +1.0795727e-12 </wgt>
<wgt id='1781'> +1.1385928e-12 </wgt>
<wgt id='1782'> +1.0820035e-12 </wgt>
<wgt id='1783'> +1.1189693e-12 </wgt>
<wgt id='1784'> +1.1209228e-12 </wgt>
<wgt id='1785'> +1.0836307e-12 </wgt>
<wgt id='1786'> +1.0050771e-12 </wgt>
<wgt id='1787'> +1.2036179e-12 </wgt>
<wgt id='1788'> +1.1435560e-12 </wgt>
<wgt id='1789'> +1.0680959e-12 </wgt>
<wgt id='1790'> +1.1214306e-12 </wgt>
<wgt id='1791'> +1.1101075e-12 </wgt>
<wgt id='1792'> +1.0827700e-12 </wgt>
<wgt id='1793'> +1.1479283e-12 </wgt>
<wgt id='1794'> +1.1418452e-12 </wgt>
<wgt id='1795'> +1.1646335e-12 </wgt>
<wgt id='1796'> +1.1184086e-12 </wgt>
<wgt id='1797'> +1.1480514e-12 </wgt>
<wgt id='1798'> +1.1422398e-12 </wgt>
<wgt id='1799'> +1.1186363e-12 </wgt>
<wgt id='1800'> +1.1233269e-12 </wgt>
<wgt id='1801'> +1.1440140e-12 </wgt>
<wgt id='1802'> +1.1064552e-12 </wgt>
<wgt id='1803'> +1.1569966e-12 </wgt>
<wgt id='1804'> +1.1308737e-12 </wgt>
<wgt id='1805'> +1.1137014e-12 </wgt>
<wgt id='1806'> +1.1339059e-12 </wgt>
<wgt id='1807'> +1.1149040e-12 </wgt>
<wgt id='1808'> +1.1375195e-12 </wgt>
<wgt id='1809'> +1.0934245e-12 </wgt>
<wgt id='1810'> +1.1314433e-12 </wgt>
<wgt id='1811'> +1.1699105e-12 </wgt>
<wgt id='1812'> +1.1596330e-12 </wgt>
<wgt id='1813'> +1.1437535e-12 </wgt>
<wgt id='1814'> +1.1049672e-12 </wgt>
<wgt id='1815'> +1.3069577e-12 </wgt>
<wgt id='1816'> +1.1295467e-12 </wgt>
<wgt id='1817'> +1.1167523e-12 </wgt>
<wgt id='1818'> +1.1462122e-12 </wgt>
<wgt id='1819'> +1.2274339e-12 </wgt>
<wgt id='1820'> +1.1676799e-12 </wgt>
<wgt id='1821'> +1.1666471e-12 </wgt>
<wgt id='1822'> +1.1408130e-12 </wgt>
<wgt id='1823'> +1.1389183e-12 </wgt>
<wgt id='1824'> +1.0941613e-12 </wgt>
<wgt id='1825'> +1.1225027e-12 </wgt>
<wgt id='1826'> +1.0502436e-12 </wgt>
<wgt id='1827'> +1.0545678e-12 </wgt>
<wgt id='1828'> +1.1361109e-12 </wgt>
<wgt id='1829'> +1.1929298e-12 </wgt>
<wgt id='1830'> +1.1177453e-12 </wgt>
<wgt id='1831'> +1.1176923e-12 </wgt>
<wgt id='1832'> +1.1171742e-12 </wgt>
<wgt id='1833'> +1.1068667e-12 </wgt>
<wgt id='1834'> +1.0833426e-12 </wgt>
<wgt id='1835'> +1.1322625e-12 </wgt>
<wgt id='1836'> +1.1546305e-12 </wgt>
<wgt id='1837'> +1.1756095e-12 </wgt>
<wgt id='1838'> +1.0854095e-12 </wgt>
<wgt id='1839'> +1.1702156e-12 </wgt>
<wgt id='1840'> +1.2025057e-12 </wgt>
<wgt id='1841'> +1.1498293e-12 </wgt>
<wgt id='1842'> +1.1224733e-12 </wgt>
<wgt id='1843'> +1.1394702e-12 </wgt>
<wgt id='1844'> +1.1350306e-12 </wgt>
<wgt id='1845'> +1.1532099e-12 </wgt>
<wgt id='1846'> +1.1543980e-12 </wgt>
<wgt id='1847'> +1.1893280e-12 </wgt>
<wgt id='1848'> +1.0456699e-12 </wgt>
<wgt id='1849'> +1.1310807e-12 </wgt>
<wgt id='1850'> +1.1356459e-12 </wgt>
<wgt id='1851'> +1.1547904e-12 </wgt>
<wgt id='1852'> +1.1464374e-12 </wgt>
<wgt id='1853'> +1.1272500e-12 </wgt>
<wgt id='1854'> +1.0299090e-12 </wgt>
<wgt id='1855'> +1.1494650e-12 </wgt>
<wgt id='1856'> +1.1445184e-12 </wgt>
<wgt id='1857'> +1.1444401e-12 </wgt>
<wgt id='1858'> +1.1515257e-12 </wgt>
<wgt id='1859'> +1.1423610e-12 </wgt>
<wgt id='1860'> +1.1023110e-12 </wgt>
<wgt id='1861'> +1.1414830e-12 </wgt>
<wgt id='1862'> +1.1483880e-12 </wgt>
<wgt id='1863'> +1.0768743e-12 </wgt>
<wgt id='1864'> +1.1216665e-12 </wgt>
<wgt id='1865'> +1.1420017e-12 </wgt>
<wgt id='1866'> +1.1793261e-12 </wgt>
<wgt id='1867'> +1.1133582e-12 </wgt>
<wgt id='1868'> +1.1372660e-12 </wgt>
<wgt id='1869'> +1.1056735e-12 </wgt>
<wgt id='1870'> +1.1471998e-12 </wgt>
<wgt id='1871'> +1.1424003e-12 </wgt>
<wgt id='1872'> +1.1083939e-12 </wgt>
<wgt id='1873'> +1.1732385e-12 </wgt>
<wgt id='1874'> +1.1563976e-12 </wgt>
<wgt id='1875'> +1.1703812e-12 </wgt>
<wgt id='1876'> +1.1254620e-12 </wgt>
<wgt id='1877'> +1.1328306e-12 </wgt>
<wgt id='1878'> +1.1429372e-12 </wgt>
<wgt id='1879'> +1.1404103e-12 </wgt>
<wgt id='1880'> +1.0207545e-12 </wgt>
<wgt id='1881'> +1.1338164e-12 </wgt>
<wgt id='1882'> +1.1531654e-12 </wgt>
<wgt id='1883'> +1.0795727e-12 </wgt>
<wgt id='1884'> +1.1385928e-12 </wgt>
<wgt id='1885'> +1.0820035e-12 </wgt>
<wgt id='1886'> +1.1189693e-12 </wgt>
<wgt id='1887'> +1.1209228e-12 </wgt>
<wgt id='1888'> +1.0836307e-12 </wgt>
<wgt id='1889'> +1.0050771e-12 </wgt>
<wgt id='1890'> +1.2036179e-12 </wgt>
<wgt id='1891'> +1.1435560e-12 </wgt>
<wgt id='1892'> +1.0680959e-12 </wgt>
<wgt id='1893'> +1.1214306e-12 </wgt>
<wgt id='1894'> +1.1101075e-12 </wgt>
<wgt id='1895'> +1.0827700e-12 </wgt>
<wgt id='1896'> +1.1479283e-12 </wgt>
<wgt id='1897'> +1.1418452e-12 </wgt>
<wgt id='1898'> +1.1646335e-12 </wgt>
<wgt id='1899'> +1.1184086e-12 </wgt>
<wgt id='1900'> +1.1480514e-12 </wgt>
<wgt id='1901'> +1.1422398e-12 </wgt>
<wgt id='1902'> +1.1186363e-12 </wgt>
<wgt id='1903'> +1.1233269e-12 </wgt>
<wgt id='1904'> +1.1440140e-12 </wgt>
<wgt id='1905'> +1.1064552e-12 </wgt>
<wgt id='1906'> +1.1569966e-12 </wgt>
<wgt id='1907'> +1.1308737e-12 </wgt>
<wgt id='1908'> +1.1137014e-12 </wgt>
<wgt id='1909'> +1.1339059e-12 </wgt>
<wgt id='1910'> +1.1149040e-12 </wgt>
<wgt id='1911'> +1.1375195e-12 </wgt>
<wgt id='1912'> +1.0934245e-12 </wgt>
<wgt id='1913'> +1.1314433e-12 </wgt>
<wgt id='1914'> +1.1699105e-12 </wgt>
<wgt id='1915'> +1.1596330e-12 </wgt>
<wgt id='1916'> +1.1437535e-12 </wgt>
<wgt id='1917'> +1.1188618e-12 </wgt>
<wgt id='1918'> +1.1437602e-12 </wgt>
<wgt id='1919'> +1.2102785e-12 </wgt>
</rwgt>
</event>
<event>
 9      1 +1.5607000e-12 8.65925800e+01 7.81860800e-03 1.19026300e-01
       21 -1    0    0  501  502 +0.0000000000e+00 +0.0000000000e+00 +1.2066130677e+03 1.2066130677e+03 0.0000000000e+00 0.0000e+00 1.0000e+00
       -1 -1    0    0    0  501 -0.0000000000e+00 -0.0000000000e+00 -1.5535790986e+00 1.5535790986e+00 0.0000000000e+00 0.0000e+00 1.0000e+00
     1023  2    1    2    0    0 +4.1852380584e+01 -5.6816537894e-03 +6.6921974578e+02 6.7069492496e+02 1.4999747607e+01 0.0000e+00 0.0000e+00
  1000023  2    3    3    0    0 +1.2138100989e+01 -2.8584128122e+00 +1.6164227792e+02 1.6221585718e+02 5.5003900248e+00 0.0000e+00 0.0000e+00
       -1  1    1    2    0  502 -4.1852380584e+01 +5.6816537894e-03 +5.3583974286e+02 5.3747172188e+02 0.0000000000e+00 0.0000e+00 1.0000e+00
  1000022  1    4    4    0    0 +1.0147206377e+01 -2.5148754778e+00 +1.3555360237e+02 1.3604804119e+02 5.0000000000e+00 0.0000e+00 1.0000e+00
      -13  1    4    4    0    0 +1.2804623567e+00 -1.8676454396e-01 +1.6800855913e+01 1.6850946464e+01 1.0570000000e-01 0.0000e+00 -1.0000e+00
       13  1    4    4    0    0 +7.1043225580e-01 -1.5677279039e-01 +9.2878196335e+00 9.3168695243e+00 1.0570000000e-01 0.0000e+00 1.0000e+00
  1000022  1    3    3    0    0 +2.9714279594e+01 +2.8527311584e+00 +5.0757746787e+02 5.0847906778e+02 5.0000000000e+00 0.0000e+00 1.0000e+00
<mgrwt>
<rscale>  1 0.86592583E+02</rscale>
<asrwt>0</asrwt>
<pdfrwt beam="1">  1       21 0.18563203E+00 0.86592583E+02</pdfrwt>
<pdfrwt beam="2">  1       -1 0.23901313E-03 0.86592583E+02</pdfrwt>
<totfact> 0.18522656E+05</totfact>
</mgrwt>
<rwgt>
<wgt id='1001'> +1.5607000e-12 </wgt>
<wgt id='1002'> +1.5660805e-12 </wgt>
<wgt id='1003'> +1.5625861e-12 </wgt>
<wgt id='1004'> +1.7013266e-12 </wgt>
<wgt id='1005'> +1.5607000e-12 </wgt>
<wgt id='1006'> +1.3986038e-12 </wgt>
<wgt id='1007'> +1.4026940e-12 </wgt>
<wgt id='1008'> +1.4000385e-12 </wgt>
<wgt id='1009'> +1.5023703e-12 </wgt>
<wgt id='1010'> +1.3986038e-12 </wgt>
<wgt id='1011'> +1.7669671e-12 </wgt>
<wgt id='1012'> +1.7742468e-12 </wgt>
<wgt id='1013'> +1.7695166e-12 </wgt>
<wgt id='1014'> +1.9638104e-12 </wgt>
<wgt id='1015'> +1.7669671e-12 </wgt>
<wgt id='1016'> +1.6016162e-12 </wgt>
<wgt id='1017'> +1.6078668e-12 </wgt>
<wgt id='1018'> +1.6038054e-12 </wgt>
<wgt id='1019'> +1.7695166e-12 </wgt>
<wgt id='1020'> +1.6016163e-12 </wgt>
<wgt id='1021'> +1.4352705e-12 </wgt>
<wgt id='1022'> +1.4401207e-12 </wgt>
<wgt id='1023'> +1.4369700e-12 </wgt>
<wgt id='1024'> +1.5625861e-12 </wgt>
<wgt id='1025'> +1.4352705e-12 </wgt>
<wgt id='1026'> +1.8132910e-12 </wgt>
<wgt id='1027'> +1.8215874e-12 </wgt>
<wgt id='1028'> +1.8161945e-12 </wgt>
<wgt id='1029'> +2.0425208e-12 </wgt>
<wgt id='1030'> +1.8132910e-12 </wgt>
<wgt id='1031'> +1.5008994e-12 </wgt>
<wgt id='1032'> +1.5050905e-12 </wgt>
<wgt id='1033'> +1.5023703e-12 </wgt>
<wgt id='1034'> +1.6034566e-12 </wgt>
<wgt id='1035'> +1.5008994e-12 </wgt>
<wgt id='1036'> +1.3450142e-12 </wgt>
<wgt id='1037'> +1.3480669e-12 </wgt>
<wgt id='1038'> +1.3460867e-12 </wgt>
<wgt id='1039'> +1.4159455e-12 </wgt>
<wgt id='1040'> +1.3450142e-12 </wgt>
<wgt id='1041'> +1.6992631e-12 </wgt>
<wgt id='1042'> +1.7051499e-12 </wgt>
<wgt id='1043'> +1.7013266e-12 </wgt>
<wgt id='1044'> +1.8508409e-12 </wgt>
<wgt id='1045'> +1.6992631e-12 </wgt>
<wgt id='1046'> +1.5607000e-12 </wgt>
<wgt id='1047'> +1.6197593e-12 </wgt>
<wgt id='1048'> +1.5685377e-12 </wgt>
<wgt id='1049'> +1.4968732e-12 </wgt>
<wgt id='1050'> +1.5859975e-12 </wgt>
<wgt id='1051'> +1.5332102e-12 </wgt>
<wgt id='1052'> +1.5869000e-12 </wgt>
<wgt id='1053'> +1.5410415e-12 </wgt>
<wgt id='1054'> +1.4822436e-12 </wgt>
<wgt id='1055'> +1.5193100e-12 </wgt>
<wgt id='1056'> +1.6763539e-12 </wgt>
<wgt id='1057'> +1.5816290e-12 </wgt>
<wgt id='1058'> +1.5361455e-12 </wgt>
<wgt id='1059'> +1.5952386e-12 </wgt>
<wgt id='1060'> +1.5413599e-12 </wgt>
<wgt id='1061'> +1.5395783e-12 </wgt>
<wgt id='1062'> +1.5333421e-12 </wgt>
<wgt id='1063'> +1.5381341e-12 </wgt>
<wgt id='1064'> +1.5072648e-12 </wgt>
<wgt id='1065'> +1.5474046e-12 </wgt>
<wgt id='1066'> +1.5508262e-12 </wgt>
<wgt id='1067'> +1.5812967e-12 </wgt>
<wgt id='1068'> +1.5501119e-12 </wgt>
<wgt id='1069'> +1.5502705e-12 </wgt>
<wgt id='1070'> +1.5518132e-12 </wgt>
<wgt id='1071'> +1.5099781e-12 </wgt>
<wgt id='1072'> +1.4986092e-12 </wgt>
<wgt id='1073'> +1.6739305e-12 </wgt>
<wgt id='1074'> +1.5086825e-12 </wgt>
<wgt id='1075'> +1.5573044e-12 </wgt>
<wgt id='1076'> +1.5919639e-12 </wgt>
<wgt id='1077'> +1.5674637e-12 </wgt>
<wgt id='1078'> +1.5911215e-12 </wgt>
<wgt id='1079'> +1.5382014e-12 </wgt>
<wgt id='1080'> +1.5686419e-12 </wgt>
<wgt id='1081'> +1.5823662e-12 </wgt>
<wgt id='1082'> +1.5671307e-12 </wgt>
<wgt id='1083'> +1.5143416e-12 </wgt>
<wgt id='1084'> +1.5622617e-12 </wgt>
<wgt id='1085'> +1.6365033e-12 </wgt>
<wgt id='1086'> +1.5481460e-12 </wgt>
<wgt id='1087'> +1.5357328e-12 </wgt>
<wgt id='1088'> +1.5798845e-12 </wgt>
<wgt id='1089'> +1.5953851e-12 </wgt>
<wgt id='1090'> +1.6018562e-12 </wgt>
<wgt id='1091'> +1.5146293e-12 </wgt>
<wgt id='1092'> +1.5574687e-12 </wgt>
<wgt id='1093'> +1.6358842e-12 </wgt>
<wgt id='1094'> +1.5416433e-12 </wgt>
<wgt id='1095'> +1.6408280e-12 </wgt>
<wgt id='1096'> +1.5965834e-12 </wgt>
<wgt id='1097'> +1.5581359e-12 </wgt>
<wgt id='1098'> +1.5452175e-12 </wgt>
<wgt id='1099'> +1.6132845e-12 </wgt>
<wgt id='1100'> +1.5764651e-12 </wgt>
<wgt id='1101'> +1.5050416e-12 </wgt>
<wgt id='1102'> +1.5390974e-12 </wgt>
<wgt id='1103'> +1.5344654e-12 </wgt>
<wgt id='1104'> +1.5835330e-12 </wgt>
<wgt id='1105'> +1.4863052e-12 </wgt>
<wgt id='1106'> +1.5014024e-12 </wgt>
<wgt id='1107'> +1.6335149e-12 </wgt>
<wgt id='1108'> +1.5613661e-12 </wgt>
<wgt id='1109'> +1.5788726e-12 </wgt>
<wgt id='1110'> +1.5225237e-12 </wgt>
<wgt id='1111'> +1.5229117e-12 </wgt>
<wgt id='1112'> +1.5128297e-12 </wgt>
<wgt id='1113'> +1.5437609e-12 </wgt>
<wgt id='1114'> +1.5635724e-12 </wgt>
<wgt id='1115'> +1.5893833e-12 </wgt>
<wgt id='1116'> +1.6636538e-12 </wgt>
<wgt id='1117'> +1.5604423e-12 </wgt>
<wgt id='1118'> +1.5682839e-12 </wgt>
<wgt id='1119'> +1.5057635e-12 </wgt>
<wgt id='1120'> +1.5452988e-12 </wgt>
<wgt id='1121'> +1.5409305e-12 </wgt>
<wgt id='1122'> +1.5800805e-12 </wgt>
<wgt id='1123'> +1.6111459e-12 </wgt>
<wgt id='1124'> +1.5654458e-12 </wgt>
<wgt id='1125'> +1.5285985e-12 </wgt>
<wgt id='1126'> +1.6300408e-12 </wgt>
<wgt id='1127'> +1.6029508e-12 </wgt>
<wgt id='1128'> +1.5333421e-12 </wgt>
<wgt id='1129'> +1.5862154e-12 </wgt>
<wgt id='1130'> +1.5158687e-12 </wgt>
<wgt id='1131'> +1.5783709e-12 </wgt>
<wgt id='1132'> +1.6577083e-12 </wgt>
<wgt id='1133'> +1.5250183e-12 </wgt>
<wgt id='1134'> +1.5991315e-12 </wgt>
<wgt id='1135'> +1.5301340e-12 </wgt>
<wgt id='1136'> +1.5179379e-12 </wgt>
<wgt id='1137'> +1.5134469e-12 </wgt>
<wgt id='1138'> +1.5930514e-12 </wgt>
<wgt id='1139'> +1.5490530e-12 </wgt>
<wgt id='1140'> +1.5972940e-12 </wgt>
<wgt id='1141'> +1.5517773e-12 </wgt>
<wgt id='1142'> +1.5644149e-12 </wgt>
<wgt id='1143'> +1.6056311e-12 </wgt>
<wgt id='1144'> +1.5444712e-12 </wgt>
<wgt id='1145'> +1.4896683e-12 </wgt>
<wgt id='1146'> +1.5157343e-12 </wgt>
<wgt id='1147'> +1.4393197e-12 </wgt>
<wgt id='1148'> +1.4561971e-12 </wgt>
<wgt id='1149'> +1.5536737e-12 </wgt>
<wgt id='1150'> +1.4698110e-12 </wgt>
<wgt id='1151'> +1.6105306e-12 </wgt>
<wgt id='1152'> +1.9367173e-12 </wgt>
<wgt id='1153'> +1.9312303e-12 </wgt>
<wgt id='1154'> +1.9398688e-12 </wgt>
<wgt id='1155'> +1.9368606e-12 </wgt>
<wgt id='1156'> +1.9365930e-12 </wgt>
<wgt id='1157'> +1.9361381e-12 </wgt>
<wgt id='1158'> +1.9374321e-12 </wgt>
<wgt id='1159'> +1.9362178e-12 </wgt>
<wgt id='1160'> +1.9370110e-12 </wgt>
<wgt id='1161'> +1.9319645e-12 </wgt>
<wgt id='1162'> +1.9399290e-12 </wgt>
<wgt id='1163'> +1.9432967e-12 </wgt>
<wgt id='1164'> +1.9300961e-12 </wgt>
<wgt id='1165'> +1.9300405e-12 </wgt>
<wgt id='1166'> +1.9430348e-12 </wgt>
<wgt id='1167'> +1.9252780e-12 </wgt>
<wgt id='1168'> +1.9491157e-12 </wgt>
<wgt id='1169'> +1.9296745e-12 </wgt>
<wgt id='1170'> +1.9422674e-12 </wgt>
<wgt id='1171'> +1.9483131e-12 </wgt>
<wgt id='1172'> +1.9223252e-12 </wgt>
<wgt id='1173'> +1.9695005e-12 </wgt>
<wgt id='1174'> +1.9028624e-12 </wgt>
<wgt id='1175'> +1.9310378e-12 </wgt>
<wgt id='1176'> +1.9406371e-12 </wgt>
<wgt id='1177'> +1.9374591e-12 </wgt>
<wgt id='1178'> +1.9362619e-12 </wgt>
<wgt id='1179'> +1.9166837e-12 </wgt>
<wgt id='1180'> +1.9509078e-12 </wgt>
<wgt id='1181'> +1.9423567e-12 </wgt>
<wgt id='1182'> +1.9328905e-12 </wgt>
<wgt id='1183'> +1.9392237e-12 </wgt>
<wgt id='1184'> +1.9365578e-12 </wgt>
<wgt id='1185'> +1.9423786e-12 </wgt>
<wgt id='1186'> +1.9341282e-12 </wgt>
<wgt id='1187'> +1.9362162e-12 </wgt>
<wgt id='1188'> +1.9368248e-12 </wgt>
<wgt id='1189'> +1.9452712e-12 </wgt>
<wgt id='1190'> +1.8989066e-12 </wgt>
<wgt id='1191'> +1.9480647e-12 </wgt>
<wgt id='1192'> +1.9346373e-12 </wgt>
<wgt id='1193'> +1.5333790e-12 </wgt>
<wgt id='1194'> +1.5188220e-12 </wgt>
<wgt id='1195'> +1.5452566e-12 </wgt>
<wgt id='1196'> +1.5342462e-12 </wgt>
<wgt id='1197'> +1.5324030e-12 </wgt>
<wgt id='1198'> +1.5339598e-12 </wgt>
<wgt id='1199'> +1.5325238e-12 </wgt>
<wgt id='1200'> +1.5348481e-12 </wgt>
<wgt id='1201'> +1.5323862e-12 </wgt>
<wgt id='1202'> +1.5302941e-12 </wgt>
<wgt id='1203'> +1.5377745e-12 </wgt>
<wgt id='1204'> +1.5151245e-12 </wgt>
<wgt id='1205'> +1.5446318e-12 </wgt>
<wgt id='1206'> +1.5370165e-12 </wgt>
<wgt id='1207'> +1.5283806e-12 </wgt>
<wgt id='1208'> +1.5289582e-12 </wgt>
<wgt id='1209'> +1.5350802e-12 </wgt>
<wgt id='1210'> +1.5055436e-12 </wgt>
<wgt id='1211'> +1.5651250e-12 </wgt>
<wgt id='1212'> +1.5378121e-12 </wgt>
<wgt id='1213'> +1.5296681e-12 </wgt>
<wgt id='1214'> +1.5597541e-12 </wgt>
<wgt id='1215'> +1.4830276e-12 </wgt>
<wgt id='1216'> +1.5099878e-12 </wgt>
<wgt id='1217'> +1.5473827e-12 </wgt>
<wgt id='1218'> +1.5221256e-12 </wgt>
<wgt id='1219'> +1.5384505e-12 </wgt>
<wgt id='1220'> +1.5346053e-12 </wgt>
<wgt id='1221'> +1.5403997e-12 </wgt>
<wgt id='1222'> +1.5356145e-12 </wgt>
<wgt id='1223'> +1.5349779e-12 </wgt>
<wgt id='1224'> +1.5291485e-12 </wgt>
<wgt id='1225'> +1.5350633e-12 </wgt>
<wgt id='1226'> +1.5328838e-12 </wgt>
<wgt id='1227'> +1.5339955e-12 </wgt>
<wgt id='1228'> +1.5434917e-12 </wgt>
<wgt id='1229'> +1.5273518e-12 </wgt>
<wgt id='1230'> +1.5279575e-12 </wgt>
<wgt id='1231'> +1.5661682e-12 </wgt>
<wgt id='1232'> +1.5380152e-12 </wgt>
<wgt id='1233'> +1.5322398e-12 </wgt>
<wgt id='1234'> +1.5333790e-12 </wgt>
<wgt id='1235'> +1.5289581e-12 </wgt>
<wgt id='1236'> +1.5306173e-12 </wgt>
<wgt id='1237'> +1.5319404e-12 </wgt>
<wgt id='1238'> +1.5344159e-12 </wgt>
<wgt id='1239'> +1.5351872e-12 </wgt>
<wgt id='1240'> +1.5360664e-12 </wgt>
<wgt id='1241'> +1.4919308e-12 </wgt>
<wgt id='1242'> +1.4789709e-12 </wgt>
<wgt id='1243'> +1.5046603e-12 </wgt>
<wgt id='1244'> +1.4915755e-12 </wgt>
<wgt id='1245'> +1.4922555e-12 </wgt>
<wgt id='1246'> +1.4919396e-12 </wgt>
<wgt id='1247'> +1.4919581e-12 </wgt>
<wgt id='1248'> +1.4918275e-12 </wgt>
<wgt id='1249'> +1.4921036e-12 </wgt>
<wgt id='1250'> +1.4916862e-12 </wgt>
<wgt id='1251'> +1.4921589e-12 </wgt>
<wgt id='1252'> +1.4916108e-12 </wgt>
<wgt id='1253'> +1.4922351e-12 </wgt>
<wgt id='1254'> +1.4807172e-12 </wgt>
<wgt id='1255'> +1.4986968e-12 </wgt>
<wgt id='1256'> +1.4942473e-12 </wgt>
<wgt id='1257'> +1.4862075e-12 </wgt>
<wgt id='1258'> +1.4482166e-12 </wgt>
<wgt id='1259'> +1.5268264e-12 </wgt>
<wgt id='1260'> +1.4836033e-12 </wgt>
<wgt id='1261'> +1.5028545e-12 </wgt>
<wgt id='1262'> +1.4827679e-12 </wgt>
<wgt id='1263'> +1.4958642e-12 </wgt>
<wgt id='1264'> +1.4858498e-12 </wgt>
<wgt id='1265'> +1.4953189e-12 </wgt>
<wgt id='1266'> +1.5074881e-12 </wgt>
<wgt id='1267'> +1.4806130e-12 </wgt>
<wgt id='1268'> +1.4909937e-12 </wgt>
<wgt id='1269'> +1.4987104e-12 </wgt>
<wgt id='1270'> +1.4911665e-12 </wgt>
<wgt id='1271'> +1.5033468e-12 </wgt>
<wgt id='1272'> +1.4872229e-12 </wgt>
<wgt id='1273'> +1.4945048e-12 </wgt>
<wgt id='1274'> +1.4900001e-12 </wgt>
<wgt id='1275'> +1.4958719e-12 </wgt>
<wgt id='1276'> +1.4829824e-12 </wgt>
<wgt id='1277'> +1.5010220e-12 </wgt>
<wgt id='1278'> +1.5071305e-12 </wgt>
<wgt id='1279'> +1.5083488e-12 </wgt>
<wgt id='1280'> +1.4912439e-12 </wgt>
<wgt id='1281'> +1.5040867e-12 </wgt>
<wgt id='1282'> +1.4919308e-12 </wgt>
<wgt id='1283'> +1.4869397e-12 </wgt>
<wgt id='1284'> +1.4888824e-12 </wgt>
<wgt id='1285'> +1.4904180e-12 </wgt>
<wgt id='1286'> +1.4929269e-12 </wgt>
<wgt id='1287'> +1.4935763e-12 </wgt>
<wgt id='1288'> +1.4941360e-12 </wgt>
<wgt id='1289'> +1.5470732e-12 </wgt>
<wgt id='1290'> +1.5569948e-12 </wgt>
<wgt id='1291'> +1.5363828e-12 </wgt>
<wgt id='1292'> +1.5450594e-12 </wgt>
<wgt id='1293'> +1.5484916e-12 </wgt>
<wgt id='1294'> +1.5405142e-12 </wgt>
<wgt id='1295'> +1.5531737e-12 </wgt>
<wgt id='1296'> +1.5473647e-12 </wgt>
<wgt id='1297'> +1.5466414e-12 </wgt>
<wgt id='1298'> +1.5565769e-12 </wgt>
<wgt id='1299'> +1.5352287e-12 </wgt>
<wgt id='1300'> +1.5504212e-12 </wgt>
<wgt id='1301'> +1.5402378e-12 </wgt>
<wgt id='1302'> +1.5457739e-12 </wgt>
<wgt id='1303'> +1.5487992e-12 </wgt>
<wgt id='1304'> +1.5468439e-12 </wgt>
<wgt id='1305'> +1.5471595e-12 </wgt>
<wgt id='1306'> +1.5414140e-12 </wgt>
<wgt id='1307'> +1.5535027e-12 </wgt>
<wgt id='1308'> +1.5529582e-12 </wgt>
<wgt id='1309'> +1.5425036e-12 </wgt>
<wgt id='1310'> +1.5436122e-12 </wgt>
<wgt id='1311'> +1.5508287e-12 </wgt>
<wgt id='1312'> +1.5387493e-12 </wgt>
<wgt id='1313'> +1.5557495e-12 </wgt>
<wgt id='1314'> +1.5206262e-12 </wgt>
<wgt id='1315'> +1.5723940e-12 </wgt>
<wgt id='1316'> +1.5518626e-12 </wgt>
<wgt id='1317'> +1.5494332e-12 </wgt>
<wgt id='1318'> +1.5257514e-12 </wgt>
<wgt id='1319'> +1.5705907e-12 </wgt>
<wgt id='1320'> +1.5102431e-12 </wgt>
<wgt id='1321'> +1.5732944e-12 </wgt>
<wgt id='1322'> +1.5495786e-12 </wgt>
<wgt id='1323'> +1.5435140e-12 </wgt>
<wgt id='1324'> +1.5524744e-12 </wgt>
<wgt id='1325'> +1.5407111e-12 </wgt>
<wgt id='1326'> +1.5459796e-12 </wgt>
<wgt id='1327'> +1.5503492e-12 </wgt>
<wgt id='1328'> +1.5404418e-12 </wgt>
<wgt id='1329'> +1.5532867e-12 </wgt>
<wgt id='1330'> +1.5147690e-12 </wgt>
<wgt id='1331'> +1.5728534e-12 </wgt>
<wgt id='1332'> +1.5706650e-12 </wgt>
<wgt id='1333'> +1.5422686e-12 </wgt>
<wgt id='1334'> +1.5416073e-12 </wgt>
<wgt id='1335'> +1.5608891e-12 </wgt>
<wgt id='1336'> +1.5462386e-12 </wgt>
<wgt id='1337'> +1.5725233e-12 </wgt>
<wgt id='1338'> +1.5437030e-12 </wgt>
<wgt id='1339'> +1.5495820e-12 </wgt>
<wgt id='1340'> +1.4983491e-12 </wgt>
<wgt id='1341'> +1.5080683e-12 </wgt>
<wgt id='1342'> +1.4879413e-12 </wgt>
<wgt id='1343'> +1.4964275e-12 </wgt>
<wgt id='1344'> +1.4996656e-12 </wgt>
<wgt id='1345'> +1.4913161e-12 </wgt>
<wgt id='1346'> +1.5046867e-12 </wgt>
<wgt id='1347'> +1.4988401e-12 </wgt>
<wgt id='1348'> +1.4977922e-12 </wgt>
<wgt id='1349'> +1.5070986e-12 </wgt>
<wgt id='1350'> +1.4898649e-12 </wgt>
<wgt id='1351'> +1.5018321e-12 </wgt>
<wgt id='1352'> +1.4906769e-12 </wgt>
<wgt id='1353'> +1.4968120e-12 </wgt>
<wgt id='1354'> +1.5011357e-12 </wgt>
<wgt id='1355'> +1.4985107e-12 </wgt>
<wgt id='1356'> +1.4982159e-12 </wgt>
<wgt id='1357'> +1.4948944e-12 </wgt>
<wgt id='1358'> +1.5025441e-12 </wgt>
<wgt id='1359'> +1.5057732e-12 </wgt>
<wgt id='1360'> +1.4919304e-12 </wgt>
<wgt id='1361'> +1.4958035e-12 </wgt>
<wgt id='1362'> +1.5018856e-12 </wgt>
<wgt id='1363'> +1.4916052e-12 </wgt>
<wgt id='1364'> +1.5034453e-12 </wgt>
<wgt id='1365'> +1.5268972e-12 </wgt>
<wgt id='1366'> +1.4618034e-12 </wgt>
<wgt id='1367'> +1.5033307e-12 </wgt>
<wgt id='1368'> +1.4992874e-12 </wgt>
<wgt id='1369'> +1.4826010e-12 </wgt>
<wgt id='1370'> +1.5166191e-12 </wgt>
<wgt id='1371'> +1.4735984e-12 </wgt>
<wgt id='1372'> +1.5252790e-12 </wgt>
<wgt id='1373'> +1.5061508e-12 </wgt>
<wgt id='1374'> +1.4904224e-12 </wgt>
<wgt id='1375'> +1.5032245e-12 </wgt>
<wgt id='1376'> +1.4915151e-12 </wgt>
<wgt id='1377'> +1.4983578e-12 </wgt>
<wgt id='1378'> +1.5006353e-12 </wgt>
<wgt id='1379'> +1.4924053e-12 </wgt>
<wgt id='1380'> +1.5049595e-12 </wgt>
<wgt id='1381'> +1.4647177e-12 </wgt>
<wgt id='1382'> +1.5229936e-12 </wgt>
<wgt id='1383'> +1.5213071e-12 </wgt>
<wgt id='1384'> +1.4908355e-12 </wgt>
<wgt id='1385'> +1.4920316e-12 </wgt>
<wgt id='1386'> +1.5132980e-12 </wgt>
<wgt id='1387'> +1.4967188e-12 </wgt>
<wgt id='1388'> +1.5238460e-12 </wgt>
<wgt id='1389'> +1.4930449e-12 </wgt>
<wgt id='1390'> +1.5027890e-12 </wgt>
<wgt id='1391'> +1.4798577e-12 </wgt>
<wgt id='1392'> +1.4141989e-12 </wgt>
<wgt id='1393'> +1.4345260e-12 </wgt>
<wgt id='1394'> +1.4573482e-12 </wgt>
<wgt id='1395'> +1.5055004e-12 </wgt>
<wgt id='1396'> +1.4807961e-12 </wgt>
<wgt id='1397'> +1.4616933e-12 </wgt>
<wgt id='1398'> +1.4657384e-12 </wgt>
<wgt id='1399'> +1.4696674e-12 </wgt>
<wgt id='1400'> +1.4733663e-12 </wgt>
<wgt id='1401'> +1.4771276e-12 </wgt>
<wgt id='1402'> +1.4832244e-12 </wgt>
<wgt id='1403'> +1.4864001e-12 </wgt>
<wgt id='1404'> +1.4886881e-12 </wgt>
<wgt id='1405'> +1.4807961e-12 </wgt>
<wgt id='1406'> +1.4775854e-12 </wgt>
<wgt id='1407'> +1.4792780e-12 </wgt>
<wgt id='1408'> +1.4824364e-12 </wgt>
<wgt id='1409'> +1.4838532e-12 </wgt>
<wgt id='1410'> +1.4819481e-12 </wgt>
<wgt id='1411'> +1.4915072e-12 </wgt>
<wgt id='1412'> +1.4697089e-12 </wgt>
<wgt id='1413'> +1.4821895e-12 </wgt>
<wgt id='1414'> +1.4816636e-12 </wgt>
<wgt id='1415'> +1.4776083e-12 </wgt>
<wgt id='1416'> +1.4837246e-12 </wgt>
<wgt id='1417'> +1.4772097e-12 </wgt>
<wgt id='1418'> +1.4866782e-12 </wgt>
<wgt id='1419'> +1.4851336e-12 </wgt>
<wgt id='1420'> +1.4788662e-12 </wgt>
<wgt id='1421'> +1.4679706e-12 </wgt>
<wgt id='1422'> +1.4879623e-12 </wgt>
<wgt id='1423'> +1.4810951e-12 </wgt>
<wgt id='1424'> +1.4829784e-12 </wgt>
<wgt id='1425'> +1.4784185e-12 </wgt>
<wgt id='1426'> +1.4857651e-12 </wgt>
<wgt id='1427'> +1.4684119e-12 </wgt>
<wgt id='1428'> +1.4893325e-12 </wgt>
<wgt id='1429'> +1.4761734e-12 </wgt>
<wgt id='1430'> +1.4898744e-12 </wgt>
<wgt id='1431'> +1.4899880e-12 </wgt>
<wgt id='1432'> +1.4762217e-12 </wgt>
<wgt id='1433'> +1.4708694e-12 </wgt>
<wgt id='1434'> +1.4895149e-12 </wgt>
<wgt id='1435'> +1.4803331e-12 </wgt>
<wgt id='1436'> +1.4864439e-12 </wgt>
<wgt id='1437'> +1.4840968e-12 </wgt>
<wgt id='1438'> +1.4874510e-12 </wgt>
<wgt id='1439'> +1.4957070e-12 </wgt>
<wgt id='1440'> +1.4407671e-12 </wgt>
<wgt id='1441'> +1.4715530e-12 </wgt>
<wgt id='1442'> +1.5047146e-12 </wgt>
<wgt id='1443'> +1.4872277e-12 </wgt>
<wgt id='1444'> +1.4749680e-12 </wgt>
<wgt id='1445'> +1.4702003e-12 </wgt>
<wgt id='1446'> +1.4898571e-12 </wgt>
<wgt id='1447'> +1.4821357e-12 </wgt>
<wgt id='1448'> +1.4869013e-12 </wgt>
<wgt id='1449'> +1.4738129e-12 </wgt>
<wgt id='1450'> +1.4878125e-12 </wgt>
<wgt id='1451'> +1.5053896e-12 </wgt>
<wgt id='1452'> +1.4451646e-12 </wgt>
<wgt id='1453'> +1.4842206e-12 </wgt>
<wgt id='1454'> +1.4683168e-12 </wgt>
<wgt id='1455'> +1.4869055e-12 </wgt>
<wgt id='1456'> +1.4946404e-12 </wgt>
<wgt id='1457'> +1.4913972e-12 </wgt>
<wgt id='1458'> +1.4800511e-12 </wgt>
<wgt id='1459'> +1.5021158e-12 </wgt>
<wgt id='1460'> +1.4832052e-12 </wgt>
<wgt id='1461'> +1.4819481e-12 </wgt>
<wgt id='1462'> +1.4560231e-12 </wgt>
<wgt id='1463'> +1.5184361e-12 </wgt>
<wgt id='1464'> +1.4872005e-12 </wgt>
<wgt id='1465'> +1.4753616e-12 </wgt>
<wgt id='1466'> +1.4775072e-12 </wgt>
<wgt id='1467'> +1.4802735e-12 </wgt>
<wgt id='1468'> +1.4842468e-12 </wgt>
<wgt id='1469'> +1.4852908e-12 </wgt>
<wgt id='1470'> +1.4881987e-12 </wgt>
<wgt id='1471'> +1.4890440e-12 </wgt>
<wgt id='1472'> +1.4901292e-12 </wgt>
<wgt id='1473'> +1.4872005e-12 </wgt>
<wgt id='1474'> +1.4826523e-12 </wgt>
<wgt id='1475'> +1.4848689e-12 </wgt>
<wgt id='1476'> +1.4892850e-12 </wgt>
<wgt id='1477'> +1.4915526e-12 </wgt>
<wgt id='1478'> +1.4500280e-12 </wgt>
<wgt id='1479'> +1.4508737e-12 </wgt>
<wgt id='1480'> +1.4618119e-12 </wgt>
<wgt id='1481'> +1.4591161e-12 </wgt>
<wgt id='1482'> +1.4456617e-12 </wgt>
<wgt id='1483'> +1.4229401e-12 </wgt>
<wgt id='1484'> +1.4653472e-12 </wgt>
<wgt id='1485'> +1.4396463e-12 </wgt>
<wgt id='1486'> +1.4498244e-12 </wgt>
<wgt id='1487'> +1.4705632e-12 </wgt>
<wgt id='1488'> +1.4530057e-12 </wgt>
<wgt id='1489'> +1.4296906e-12 </wgt>
<wgt id='1490'> +1.4460333e-12 </wgt>
<wgt id='1491'> +1.4275401e-12 </wgt>
<wgt id='1492'> +1.4541134e-12 </wgt>
<wgt id='1493'> +1.4383868e-12 </wgt>
<wgt id='1494'> +1.4613369e-12 </wgt>
<wgt id='1495'> +1.4520181e-12 </wgt>
<wgt id='1496'> +1.4399204e-12 </wgt>
<wgt id='1497'> +1.4462622e-12 </wgt>
<wgt id='1498'> +1.4428752e-12 </wgt>
<wgt id='1499'> +1.4477360e-12 </wgt>
<wgt id='1500'> +1.4531858e-12 </wgt>
<wgt id='1501'> +1.4453135e-12 </wgt>
<wgt id='1502'> +1.4469413e-12 </wgt>
<wgt id='1503'> +1.4375575e-12 </wgt>
<wgt id='1504'> +1.4449310e-12 </wgt>
<wgt id='1505'> +1.4447096e-12 </wgt>
<wgt id='1506'> +1.4442313e-12 </wgt>
<wgt id='1507'> +1.4525838e-12 </wgt>
<wgt id='1508'> +1.4318620e-12 </wgt>
<wgt id='1509'> +1.3837344e-12 </wgt>
<wgt id='1510'> +1.3845985e-12 </wgt>
<wgt id='1511'> +1.3710324e-12 </wgt>
<wgt id='1512'> +1.3736550e-12 </wgt>
<wgt id='1513'> +1.3947394e-12 </wgt>
<wgt id='1514'> +1.3844991e-12 </wgt>
<wgt id='1515'> +1.3739181e-12 </wgt>
<wgt id='1516'> +1.3865885e-12 </wgt>
<wgt id='1517'> +1.3752571e-12 </wgt>
<wgt id='1518'> +1.3812188e-12 </wgt>
<wgt id='1519'> +1.3775967e-12 </wgt>
<wgt id='1520'> +1.3759419e-12 </wgt>
<wgt id='1521'> +1.3875710e-12 </wgt>
<wgt id='1522'> +1.3778779e-12 </wgt>
<wgt id='1523'> +1.3721808e-12 </wgt>
<wgt id='1524'> +1.3888610e-12 </wgt>
<wgt id='1525'> +1.3859638e-12 </wgt>
<wgt id='1526'> +1.3787491e-12 </wgt>
<wgt id='1527'> +1.3800159e-12 </wgt>
<wgt id='1528'> +1.3813597e-12 </wgt>
<wgt id='1529'> +1.3833844e-12 </wgt>
<wgt id='1530'> +1.3873254e-12 </wgt>
<wgt id='1531'> +1.3819387e-12 </wgt>
<wgt id='1532'> +1.3880514e-12 </wgt>
<wgt id='1533'> +1.3859403e-12 </wgt>
<wgt id='1534'> +1.3837165e-12 </wgt>
<wgt id='1535'> +1.3848814e-12 </wgt>
<wgt id='1536'> +1.3806442e-12 </wgt>
<wgt id='1537'> +1.3816439e-12 </wgt>
<wgt id='1538'> +1.3932112e-12 </wgt>
<wgt id='1539'> +1.3876095e-12 </wgt>
<wgt id='1540'> +1.3838473e-12 </wgt>
<wgt id='1541'> +1.3884213e-12 </wgt>
<wgt id='1542'> +1.3856018e-12 </wgt>
<wgt id='1543'> +1.3781416e-12 </wgt>
<wgt id='1544'> +1.3841785e-12 </wgt>
<wgt id='1545'> +1.3846012e-12 </wgt>
<wgt id='1546'> +1.3777964e-12 </wgt>
<wgt id='1547'> +1.3830949e-12 </wgt>
<wgt id='1548'> +1.3922216e-12 </wgt>
<wgt id='1549'> +1.3929545e-12 </wgt>
<wgt id='1550'> +1.3897427e-12 </wgt>
<wgt id='1551'> +1.3762091e-12 </wgt>
<wgt id='1552'> +1.3778937e-12 </wgt>
<wgt id='1553'> +1.3809345e-12 </wgt>
<wgt id='1554'> +1.3829379e-12 </wgt>
<wgt id='1555'> +1.3865564e-12 </wgt>
<wgt id='1556'> +1.3888851e-12 </wgt>
<wgt id='1557'> +1.3760025e-12 </wgt>
<wgt id='1558'> +1.3799324e-12 </wgt>
<wgt id='1559'> +1.3836614e-12 </wgt>
<wgt id='1560'> +1.3865203e-12 </wgt>
<wgt id='1561'> +1.3853125e-12 </wgt>
<wgt id='1562'> +1.3868641e-12 </wgt>
<wgt id='1563'> +1.3857139e-12 </wgt>
<wgt id='1564'> +1.3842939e-12 </wgt>
<wgt id='1565'> +1.3824938e-12 </wgt>
<wgt id='1566'> +1.3850200e-12 </wgt>
<wgt id='1567'> +1.3826196e-12 </wgt>
<wgt id='1568'> +1.3828614e-12 </wgt>
<wgt id='1569'> +1.3827092e-12 </wgt>
<wgt id='1570'> +1.3820827e-12 </wgt>
<wgt id='1571'> +1.3836042e-12 </wgt>
<wgt id='1572'> +1.3844983e-12 </wgt>
<wgt id='1573'> +1.3836532e-12 </wgt>
<wgt id='1574'> +1.3852951e-12 </wgt>
<wgt id='1575'> +1.3858941e-12 </wgt>
<wgt id='1576'> +1.3832972e-12 </wgt>
<wgt id='1577'> +1.3843828e-12 </wgt>
<wgt id='1578'> +1.3842217e-12 </wgt>
<wgt id='1579'> +1.3805857e-12 </wgt>
<wgt id='1580'> +1.3817468e-12 </wgt>
<wgt id='1581'> +1.3837453e-12 </wgt>
<wgt id='1582'> +1.3813210e-12 </wgt>
<wgt id='1583'> +1.3816575e-12 </wgt>
<wgt id='1584'> +1.3829927e-12 </wgt>
<wgt id='1585'> +1.3839265e-12 </wgt>
<wgt id='1586'> +1.3810558e-12 </wgt>
<wgt id='1587'> +1.3842519e-12 </wgt>
<wgt id='1588'> +1.3841216e-12 </wgt>
<wgt id='1589'> +1.3837189e-12 </wgt>
<wgt id='1590'> +1.3839602e-12 </wgt>
<wgt id='1591'> +1.3847565e-12 </wgt>
<wgt id='1592'> +1.3832941e-12 </wgt>
<wgt id='1593'> +1.3836689e-12 </wgt>
<wgt id='1594'> +1.3835457e-12 </wgt>
<wgt id='1595'> +1.3841902e-12 </wgt>
<wgt id='1596'> +1.3833340e-12 </wgt>
<wgt id='1597'> +1.3843800e-12 </wgt>
<wgt id='1598'> +1.3843969e-12 </wgt>
<wgt id='1599'> +1.3842042e-12 </wgt>
<wgt id='1600'> +1.3832925e-12 </wgt>
<wgt id='1601'> +1.3832599e-12 </wgt>
<wgt id='1602'> +1.3843969e-12 </wgt>
<wgt id='1603'> +1.3829203e-12 </wgt>
<wgt id='1604'> +1.3836944e-12 </wgt>
<wgt id='1605'> +1.3833408e-12 </wgt>
<wgt id='1606'> +1.3849333e-12 </wgt>
<wgt id='1607'> +1.3831959e-12 </wgt>
<wgt id='1608'> +1.3846383e-12 </wgt>
<wgt id='1609'> +1.3831855e-12 </wgt>
<wgt id='1610'> +1.3560622e-12 </wgt>
<wgt id='1611'> +1.4190870e-12 </wgt>
<wgt id='1612'> +1.5841843e-12 </wgt>
<wgt id='1613'> +1.5469395e-12 </wgt>
<wgt id='1614'> +1.6536565e-12 </wgt>
<wgt id='1615'> +1.5876761e-12 </wgt>
<wgt id='1616'> +1.6146101e-12 </wgt>
<wgt id='1617'> +1.5919428e-12 </wgt>
<wgt id='1618'> +1.6571133e-12 </wgt>
<wgt id='1619'> +1.5341738e-12 </wgt>
<wgt id='1620'> +1.5728750e-12 </wgt>
<wgt id='1621'> +1.5960418e-12 </wgt>
<wgt id='1622'> +1.5934799e-12 </wgt>
<wgt id='1623'> +1.5149345e-12 </wgt>
<wgt id='1624'> +1.6084653e-12 </wgt>
<wgt id='1625'> +1.5178598e-12 </wgt>
<wgt id='1626'> +1.5165192e-12 </wgt>
<wgt id='1627'> +1.6131620e-12 </wgt>
<wgt id='1628'> +1.6656150e-12 </wgt>
<wgt id='1629'> +1.5546173e-12 </wgt>
<wgt id='1630'> +1.5586739e-12 </wgt>
<wgt id='1631'> +1.6457183e-12 </wgt>
<wgt id='1632'> +1.5612375e-12 </wgt>
<wgt id='1633'> +1.5695544e-12 </wgt>
<wgt id='1634'> +1.4862714e-12 </wgt>
<wgt id='1635'> +1.6152449e-12 </wgt>
<wgt id='1636'> +1.6908408e-12 </wgt>
<wgt id='1637'> +1.5815310e-12 </wgt>
<wgt id='1638'> +1.5812335e-12 </wgt>
<wgt id='1639'> +1.5762874e-12 </wgt>
<wgt id='1640'> +1.5769333e-12 </wgt>
<wgt id='1641'> +1.6068207e-12 </wgt>
<wgt id='1642'> +1.5989797e-12 </wgt>
<wgt id='1643'> +1.5561984e-12 </wgt>
<wgt id='1644'> +1.5403968e-12 </wgt>
<wgt id='1645'> +1.5496639e-12 </wgt>
<wgt id='1646'> +1.5099560e-12 </wgt>
<wgt id='1647'> +1.5821670e-12 </wgt>
<wgt id='1648'> +1.6381835e-12 </wgt>
<wgt id='1649'> +1.7739612e-12 </wgt>
<wgt id='1650'> +1.6035534e-12 </wgt>
<wgt id='1651'> +1.6344307e-12 </wgt>
<wgt id='1652'> +1.5375635e-12 </wgt>
<wgt id='1653'> +1.7096478e-12 </wgt>
<wgt id='1654'> +1.6721315e-12 </wgt>
<wgt id='1655'> +1.5451797e-12 </wgt>
<wgt id='1656'> +1.5456105e-12 </wgt>
<wgt id='1657'> +1.6423724e-12 </wgt>
<wgt id='1658'> +1.6191087e-12 </wgt>
<wgt id='1659'> +1.6084653e-12 </wgt>
<wgt id='1660'> +1.6219920e-12 </wgt>
<wgt id='1661'> +1.5283161e-12 </wgt>
<wgt id='1662'> +1.5588049e-12 </wgt>
<wgt id='1663'> +1.5291560e-12 </wgt>
<wgt id='1664'> +1.5607340e-12 </wgt>
<wgt id='1665'> +1.5952727e-12 </wgt>
<wgt id='1666'> +1.5485686e-12 </wgt>
<wgt id='1667'> +1.5500502e-12 </wgt>
<wgt id='1668'> +1.6244375e-12 </wgt>
<wgt id='1669'> +1.5901968e-12 </wgt>
<wgt id='1670'> +1.5670447e-12 </wgt>
<wgt id='1671'> +1.5667150e-12 </wgt>
<wgt id='1672'> +1.5702941e-12 </wgt>
<wgt id='1673'> +1.6316037e-12 </wgt>
<wgt id='1674'> +1.5861788e-12 </wgt>
<wgt id='1675'> +1.5457193e-12 </wgt>
<wgt id='1676'> +1.5607827e-12 </wgt>
<wgt id='1677'> +1.5604759e-12 </wgt>
<wgt id='1678'> +1.5745362e-12 </wgt>
<wgt id='1679'> +1.6033302e-12 </wgt>
<wgt id='1680'> +1.6399569e-12 </wgt>
<wgt id='1681'> +1.5624844e-12 </wgt>
<wgt id='1682'> +1.5636828e-12 </wgt>
<wgt id='1683'> +1.6322822e-12 </wgt>
<wgt id='1684'> +1.5408492e-12 </wgt>
<wgt id='1685'> +1.5818012e-12 </wgt>
<wgt id='1686'> +1.5522852e-12 </wgt>
<wgt id='1687'> +1.5717811e-12 </wgt>
<wgt id='1688'> +1.6309074e-12 </wgt>
<wgt id='1689'> +1.6121837e-12 </wgt>
<wgt id='1690'> +1.5272243e-12 </wgt>
<wgt id='1691'> +1.5650501e-12 </wgt>
<wgt id='1692'> +1.5691553e-12 </wgt>
<wgt id='1693'> +1.5397233e-12 </wgt>
<wgt id='1694'> +1.5349019e-12 </wgt>
<wgt id='1695'> +1.5292965e-12 </wgt>
<wgt id='1696'> +1.5391715e-12 </wgt>
<wgt id='1697'> +1.6532613e-12 </wgt>
<wgt id='1698'> +1.5832781e-12 </wgt>
<wgt id='1699'> +1.5980607e-12 </wgt>
<wgt id='1700'> +1.5814913e-12 </wgt>
<wgt id='1701'> +1.5849238e-12 </wgt>
<wgt id='1702'> +1.5669793e-12 </wgt>
<wgt id='1703'> +1.5363460e-12 </wgt>
<wgt id='1704'> +1.6369595e-12 </wgt>
<wgt id='1705'> +1.5492821e-12 </wgt>
<wgt id='1706'> +1.6680533e-12 </wgt>
<wgt id='1707'> +1.5943292e-12 </wgt>
<wgt id='1708'> +1.6021107e-12 </wgt>
<wgt id='1709'> +1.5699527e-12 </wgt>
<wgt id='1710'> +1.5651800e-12 </wgt>
<wgt id='1711'> +1.5548421e-12 </wgt>
<wgt id='1712'> +1.5611753e-12 </wgt>
<wgt id='1713'> +1.4414988e-12 </wgt>
<wgt id='1714'> +1.4443127e-12 </wgt>
<wgt id='1715'> +1.4709014e-12 </wgt>
<wgt id='1716'> +1.4300938e-12 </wgt>
<wgt id='1717'> +1.3966425e-12 </wgt>
<wgt id='1718'> +1.3564525e-12 </wgt>
<wgt id='1719'> +1.3938310e-12 </wgt>
<wgt id='1720'> +1.4344934e-12 </wgt>
<wgt id='1721'> +1.4856354e-12 </wgt>
<wgt id='1722'> +1.3524670e-12 </wgt>
<wgt id='1723'> +1.5099179e-12 </wgt>
<wgt id='1724'> +1.3439713e-12 </wgt>
<wgt id='1725'> +1.4034727e-12 </wgt>
<wgt id='1726'> +1.5116866e-12 </wgt>
<wgt id='1727'> +1.5210500e-12 </wgt>
<wgt id='1728'> +1.4919806e-12 </wgt>
<wgt id='1729'> +1.4071857e-12 </wgt>
<wgt id='1730'> +1.5266097e-12 </wgt>
<wgt id='1731'> +1.4480303e-12 </wgt>
<wgt id='1732'> +1.4426413e-12 </wgt>
<wgt id='1733'> +1.3991409e-12 </wgt>
<wgt id='1734'> +1.4645944e-12 </wgt>
<wgt id='1735'> +1.4127718e-12 </wgt>
<wgt id='1736'> +1.4303427e-12 </wgt>
<wgt id='1737'> +1.3635442e-12 </wgt>
<wgt id='1738'> +1.4489234e-12 </wgt>
<wgt id='1739'> +1.4037663e-12 </wgt>
<wgt id='1740'> +1.5028115e-12 </wgt>
<wgt id='1741'> +1.5142345e-12 </wgt>
<wgt id='1742'> +1.4752502e-12 </wgt>
<wgt id='1743'> +1.3872780e-12 </wgt>
<wgt id='1744'> +1.4606912e-12 </wgt>
<wgt id='1745'> +1.4204867e-12 </wgt>
<wgt id='1746'> +1.4670044e-12 </wgt>
<wgt id='1747'> +1.3534991e-12 </wgt>
<wgt id='1748'> +1.4521631e-12 </wgt>
<wgt id='1749'> +1.4529120e-12 </wgt>
<wgt id='1750'> +1.5062976e-12 </wgt>
<wgt id='1751'> +1.4091998e-12 </wgt>
<wgt id='1752'> +1.4401556e-12 </wgt>
<wgt id='1753'> +1.4323033e-12 </wgt>
<wgt id='1754'> +1.4477978e-12 </wgt>
<wgt id='1755'> +1.4173991e-12 </wgt>
<wgt id='1756'> +1.3799072e-12 </wgt>
<wgt id='1757'> +1.4109146e-12 </wgt>
<wgt id='1758'> +1.4958378e-12 </wgt>
<wgt id='1759'> +1.3888288e-12 </wgt>
<wgt id='1760'> +1.4795343e-12 </wgt>
<wgt id='1761'> +1.4702077e-12 </wgt>
<wgt id='1762'> +1.4216208e-12 </wgt>
<wgt id='1763'> +1.4861804e-12 </wgt>
<wgt id='1764'> +1.4545539e-12 </wgt>
<wgt id='1765'> +1.4401537e-12 </wgt>
<wgt id='1766'> +1.3011059e-12 </wgt>
<wgt id='1767'> +1.4337076e-12 </wgt>
<wgt id='1768'> +1.4477743e-12 </wgt>
<wgt id='1769'> +1.5117826e-12 </wgt>
<wgt id='1770'> +1.4714381e-12 </wgt>
<wgt id='1771'> +1.4967428e-12 </wgt>
<wgt id='1772'> +1.4692546e-12 </wgt>
<wgt id='1773'> +1.4572406e-12 </wgt>
<wgt id='1774'> +1.4672688e-12 </wgt>
<wgt id='1775'> +1.4311783e-12 </wgt>
<wgt id='1776'> +1.3586094e-12 </wgt>
<wgt id='1777'> +1.5157031e-12 </wgt>
<wgt id='1778'> +1.3171356e-12 </wgt>
<wgt id='1779'> +1.4269478e-12 </wgt>
<wgt id='1780'> +1.5236143e-12 </wgt>
<wgt id='1781'> +1.4626122e-12 </wgt>
<wgt id='1782'> +1.4406941e-12 </wgt>
<wgt id='1783'> +1.4795729e-12 </wgt>
<wgt id='1784'> +1.3920023e-12 </wgt>
<wgt id='1785'> +1.3522453e-12 </wgt>
<wgt id='1786'> +1.4494977e-12 </wgt>
<wgt id='1787'> +1.3969159e-12 </wgt>
<wgt id='1788'> +1.4810443e-12 </wgt>
<wgt id='1789'> +1.3384721e-12 </wgt>
<wgt id='1790'> +1.4000027e-12 </wgt>
<wgt id='1791'> +1.4448858e-12 </wgt>
<wgt id='1792'> +1.4508425e-12 </wgt>
<wgt id='1793'> +1.4414400e-12 </wgt>
<wgt id='1794'> +1.4166746e-12 </wgt>
<wgt id='1795'> +1.4278312e-12 </wgt>
<wgt id='1796'> +1.4177544e-12 </wgt>
<wgt id='1797'> +1.4881248e-12 </wgt>
<wgt id='1798'> +1.4851342e-12 </wgt>
<wgt id='1799'> +1.4840409e-12 </wgt>
<wgt id='1800'> +1.4683740e-12 </wgt>
<wgt id='1801'> +1.4651283e-12 </wgt>
<wgt id='1802'> +1.4285317e-12 </wgt>
<wgt id='1803'> +1.4562624e-12 </wgt>
<wgt id='1804'> +1.4870103e-12 </wgt>
<wgt id='1805'> +1.3886070e-12 </wgt>
<wgt id='1806'> +1.4830704e-12 </wgt>
<wgt id='1807'> +1.4025801e-12 </wgt>
<wgt id='1808'> +1.5978940e-12 </wgt>
<wgt id='1809'> +1.3753568e-12 </wgt>
<wgt id='1810'> +1.4166426e-12 </wgt>
<wgt id='1811'> +1.4174254e-12 </wgt>
<wgt id='1812'> +1.4911932e-12 </wgt>
<wgt id='1813'> +1.5195218e-12 </wgt>
<wgt id='1814'> +1.4134096e-12 </wgt>
<wgt id='1815'> +1.5017092e-12 </wgt>
<wgt id='1816'> +1.4414988e-12 </wgt>
<wgt id='1817'> +1.4443127e-12 </wgt>
<wgt id='1818'> +1.4709014e-12 </wgt>
<wgt id='1819'> +1.4300938e-12 </wgt>
<wgt id='1820'> +1.3966425e-12 </wgt>
<wgt id='1821'> +1.3564525e-12 </wgt>
<wgt id='1822'> +1.3938310e-12 </wgt>
<wgt id='1823'> +1.4344934e-12 </wgt>
<wgt id='1824'> +1.4856354e-12 </wgt>
<wgt id='1825'> +1.3524670e-12 </wgt>
<wgt id='1826'> +1.5099179e-12 </wgt>
<wgt id='1827'> +1.3439713e-12 </wgt>
<wgt id='1828'> +1.4034727e-12 </wgt>
<wgt id='1829'> +1.5116866e-12 </wgt>
<wgt id='1830'> +1.5210500e-12 </wgt>
<wgt id='1831'> +1.4919806e-12 </wgt>
<wgt id='1832'> +1.4071857e-12 </wgt>
<wgt id='1833'> +1.5266097e-12 </wgt>
<wgt id='1834'> +1.4480303e-12 </wgt>
<wgt id='1835'> +1.4426413e-12 </wgt>
<wgt id='1836'> +1.3991409e-12 </wgt>
<wgt id='1837'> +1.4645944e-12 </wgt>
<wgt id='1838'> +1.4127718e-12 </wgt>
<wgt id='1839'> +1.4303427e-12 </wgt>
<wgt id='1840'> +1.3635442e-12 </wgt>
<wgt id='1841'> +1.4489234e-12 </wgt>
<wgt id='1842'> +1.4037663e-12 </wgt>
<wgt id='1843'> +1.5028115e-12 </wgt>
<wgt id='1844'> +1.5142345e-12 </wgt>
<wgt id='1845'> +1.4752502e-12 </wgt>
<wgt id='1846'> +1.3872780e-12 </wgt>
<wgt id='1847'> +1.4606912e-12 </wgt>
<wgt id='1848'> +1.4204867e-12 </wgt>
<wgt id='1849'> +1.4670044e-12 </wgt>
<wgt id='1850'> +1.3534991e-12 </wgt>
<wgt id='1851'> +1.4521631e-12 </wgt>
<wgt id='1852'> +1.4529120e-12 </wgt>
<wgt id='1853'> +1.5062976e-12 </wgt>
<wgt id='1854'> +1.4091998e-12 </wgt>
<wgt id='1855'> +1.4401556e-12 </wgt>
<wgt id='1856'> +1.4323033e-12 </wgt>
<wgt id='1857'> +1.4477978e-12 </wgt>
<wgt id='1858'> +1.4173991e-12 </wgt>
<wgt id='1859'> +1.3799072e-12 </wgt>
<wgt id='1860'> +1.4109146e-12 </wgt>
<wgt id='1861'> +1.4958378e-12 </wgt>
<wgt id='1862'> +1.3888288e-12 </wgt>
<wgt id='1863'> +1.4795343e-12 </wgt>
<wgt id='1864'> +1.4702077e-12 </wgt>
<wgt id='1865'> +1.4216208e-12 </wgt>
<wgt id='1866'> +1.4861804e-12 </wgt>
<wgt id='1867'> +1.4545539e-12 </wgt>
<wgt id='1868'> +1.4401537e-12 </wgt>
<wgt id='1869'> +1.3011059e-12 </wgt>
<wgt id='1870'> +1.4337076e-12 </wgt>
<wgt id='1871'> +1.4477743e-12 </wgt>
<wgt id='1872'> +1.5117826e-12 </wgt>
<wgt id='1873'> +1.4714381e-12 </wgt>
<wgt id='1874'> +1.4967428e-12 </wgt>
<wgt id='1875'> +1.4692546e-12 </wgt>
<wgt id='1876'> +1.4572406e-12 </wgt>
<wgt id='1877'> +1.4672688e-12 </wgt>
<wgt id='1878'> +1.4311783e-12 </wgt>
<wgt id='1879'> +1.3586094e-12 </wgt>
<wgt id='1880'> +1.5157031e-12 </wgt>
<wgt id='1881'> +1.3171356e-12 </wgt>
<wgt id='1882'> +1.4269478e-12 </wgt>
<wgt id='1883'> +1.5236143e-12 </wgt>
<wgt id='1884'> +1.4626122e-12 </wgt>
<wgt id='1885'> +1.4406941e-12 </wgt>
<wgt id='1886'> +1.4795729e-12 </wgt>
<wgt id='1887'> +1.3920023e-12 </wgt>
<wgt id='1888'> +1.3522453e-12 </wgt>
<wgt id='1889'> +1.4494977e-12 </wgt>
<wgt id='1890'> +1.3969159e-12 </wgt>
<wgt id='1891'> +1.4810443e-12 </wgt>
<wgt id='1892'> +1.3384721e-12 </wgt>
<wgt id='1893'> +1.4000027e-12 </wgt>
<wgt id='1894'> +1.4448858e-12 </wgt>
<wgt id='1895'> +1.4508425e-12 </wgt>
<wgt id='1896'> +1.4414400e-12 </wgt>
<wgt id='1897'> +1.4166746e-12 </wgt>
<wgt id='1898'> +1.4278312e-12 </wgt>
<wgt id='1899'> +1.4177544e-12 </wgt>
<wgt id='1900'> +1.4881248e-12 </wgt>
<wgt id='1901'> +1.4851342e-12 </wgt>
<wgt id='1902'> +1.4840409e-12 </wgt>
<wgt id='1903'> +1.4683740e-12 </wgt>
<wgt id='1904'> +1.4651283e-12 </wgt>
<wgt id='1905'> +1.4285317e-12 </wgt>
<wgt id='1906'> +1.4562624e-12 </wgt>
<wgt id='1907'> +1.4870103e-12 </wgt>
<wgt id='1908'> +1.3886070e-12 </wgt>
<wgt id='1909'> +1.4830704e-12 </wgt>
<wgt id='1910'> +1.4025801e-12 </wgt>
<wgt id='1911'> +1.5978940e-12 </wgt>
<wgt id='1912'> +1.3753568e-12 </wgt>
<wgt id='1913'> +1.4166426e-12 </wgt>
<wgt id='1914'> +1.4174254e-12 </wgt>
<wgt id='1915'> +1.4911932e-12 </wgt>
<wgt id='1916'> +1.5195218e-12 </wgt>
<wgt id='1917'> +1.4278870e-12 </wgt>
<wgt id='1918'> +1.4700558e-12 </wgt>
<wgt id='1919'> +1.4375707e-12 </wgt>
</rwgt>
</event>
<event>
 9      1 +1.5607000e-12 4.32679500e+01 7.81860800e-03 1.34774100e-01
       -2 -1    0    0    0  501 -0.0000000000e+00 +0.0000000000e+00 +2.6885717529e+01 2.6885717529e+01 0.0000000000e+00 0.0000e+00 1.0000e+00
        2 -1    0    0  502    0 +0.0000000000e+00 -0.0000000000e+00 -7.6408800779e+01 7.6408800779e+01 0.0000000000e+00 0.0000e+00 -1.0000e+00
     1023  2    1    2    0    0 -3.9611591365e+01 -8.8343806977e+00 -5.8273329875e+00 4.3658597557e+01 1.4999695936e+01 0.0000e+00 0.0000e+00
  1000023  2    3    3    0    0 -6.5228616854e+00 +4.0916612498e-01 -1.4860924406e+00 8.6706916591e+00 5.5006619257e+00 0.0000e+00 0.0000e+00
       21  1    1    2  502  501 +3.9611591365e+01 +8.8343806977e+00 -4.3695750263e+01 5.9635920751e+01 0.0000000000e+00 0.0000e+00 -1.0000e+00
  1000022  1    4    4    0    0 -5.4477677630e+00 +8.9343736982e-02 -1.3136476393e+00 7.5107806534e+00 5.0000000000e+00 0.0000e+00 1.0000e+00
      -13  1    4    4    0    0 -3.3142236723e-01 +7.4985862256e-02 -2.9901565359e-02 3.5711378949e-01 1.0570000000e-01 0.0000e+00 1.0000e+00
       13  1    4    4    0    0 -7.4367155510e-01 +2.4483652575e-01 -1.4254323589e-01 8.0279721618e-01 1.0570000000e-01 0.0000e+00 -1.0000e+00
  1000022  1    3    3    0    0 -3.3088729679e+01 -9.2435468227e+00 -4.3412405469e+00 3.4987905898e+01 5.0000000000e+00 0.0000e+00 1.0000e+00
<mgrwt>
<rscale>  1 0.43267948E+02</rscale>
<asrwt>0</asrwt>
<pdfrwt beam="1">  1        2 0.11755200E-01 0.43267948E+02</pdfrwt>
<pdfrwt beam="2">  1       -2 0.41362643E-02 0.43267948E+02</pdfrwt>
<totfact> 0.13007736E+05</totfact>
</mgrwt>
<rwgt>
<wgt id='1001'> +1.5607000e-12 </wgt>
<wgt id='1002'> +1.5576332e-12 </wgt>
<wgt id='1003'> +1.5576147e-12 </wgt>
<wgt id='1004'> +1.5604336e-12 </wgt>
<wgt id='1005'> +1.5562986e-12 </wgt>
<wgt id='1006'> +1.3784901e-12 </wgt>
<wgt id='1007'> +1.3949908e-12 </wgt>
<wgt id='1008'> +1.3950050e-12 </wgt>
<wgt id='1009'> +1.3772180e-12 </wgt>
<wgt id='1010'> +1.3958305e-12 </wgt>
<wgt id='1011'> +1.8009553e-12 </wgt>
<wgt id='1012'> +1.7649003e-12 </wgt>
<wgt id='1013'> +1.7648291e-12 </wgt>
<wgt id='1014'> +1.8024782e-12 </wgt>
<wgt id='1015'> +1.7600984e-12 </wgt>
<wgt id='1016'> +1.7629249e-12 </wgt>
<wgt id='1017'> +1.7206236e-12 </wgt>
<wgt id='1018'> +1.7205433e-12 </wgt>
<wgt id='1019'> +1.7648291e-12 </wgt>
<wgt id='1020'> +1.7152323e-12 </wgt>
<wgt id='1021'> +1.5571055e-12 </wgt>
<wgt id='1022'> +1.5409624e-12 </wgt>
<wgt id='1023'> +1.5409244e-12 </wgt>
<wgt id='1024'> +1.5576147e-12 </wgt>
<wgt id='1025'> +1.5383767e-12 </wgt>
<wgt id='1026'> +2.0343108e-12 </wgt>
<wgt id='1027'> +1.9495791e-12 </wgt>
<wgt id='1028'> +1.9494326e-12 </wgt>
<wgt id='1029'> +2.0385782e-12 </wgt>
<wgt id='1030'> +1.9398447e-12 </wgt>
<wgt id='1031'> +1.3368659e-12 </wgt>
<wgt id='1032'> +1.3771692e-12 </wgt>
<wgt id='1033'> +1.3772180e-12 </wgt>
<wgt id='1034'> +1.3342092e-12 </wgt>
<wgt id='1035'> +1.3802654e-12 </wgt>
<wgt id='1036'> +1.1807884e-12 </wgt>
<wgt id='1037'> +1.2333702e-12 </wgt>
<wgt id='1038'> +1.2334411e-12 </wgt>
<wgt id='1039'> +1.1775553e-12 </wgt>
<wgt id='1040'> +1.2379479e-12 </wgt>
<wgt id='1041'> +1.5426640e-12 </wgt>
<wgt id='1042'> +1.5604228e-12 </wgt>
<wgt id='1043'> +1.5604336e-12 </wgt>
<wgt id='1044'> +1.5411633e-12 </wgt>
<wgt id='1045'> +1.5610134e-12 </wgt>
<wgt id='1046'> +1.5607000e-12 </wgt>
<wgt id='1047'> +1.6768087e-12 </wgt>
<wgt id='1048'> +1.5313212e-12 </wgt>
<wgt id='1049'> +1.5060912e-12 </wgt>
<wgt id='1050'> +1.5276652e-12 </wgt>
<wgt id='1051'> +1.5422861e-12 </wgt>
<wgt id='1052'> +1.6025516e-12 </wgt>
<wgt id='1053'> +1.5487785e-12 </wgt>
<wgt id='1054'> +1.5221062e-12 </wgt>
<wgt id='1055'> +1.4883192e-12 </wgt>
<wgt id='1056'> +1.5461579e-12 </wgt>
<wgt id='1057'> +1.5937468e-12 </wgt>
<wgt id='1058'> +1.4950906e-12 </wgt>
<wgt id='1059'> +1.5485333e-12 </wgt>
<wgt id='1060'> +1.5980754e-12 </wgt>
<wgt id='1061'> +1.5585711e-12 </wgt>
<wgt id='1062'> +1.5675524e-12 </wgt>
<wgt id='1063'> +1.5923240e-12 </wgt>
<wgt id='1064'> +1.5357915e-12 </wgt>
<wgt id='1065'> +1.5597602e-12 </wgt>
<wgt id='1066'> +1.5006468e-12 </wgt>
<wgt id='1067'> +1.5108608e-12 </wgt>
<wgt id='1068'> +1.5727589e-12 </wgt>
<wgt id='1069'> +1.5802442e-12 </wgt>
<wgt id='1070'> +1.5171679e-12 </wgt>
<wgt id='1071'> +1.4910246e-12 </wgt>
<wgt id='1072'> +1.6214122e-12 </wgt>
<wgt id='1073'> +1.5980196e-12 </wgt>
<wgt id='1074'> +1.5479492e-12 </wgt>
<wgt id='1075'> +1.5921046e-12 </wgt>
<wgt id='1076'> +1.5763239e-12 </wgt>
<wgt id='1077'> +1.6083645e-12 </wgt>
<wgt id='1078'> +1.5152898e-12 </wgt>
<wgt id='1079'> +1.5635847e-12 </wgt>
<wgt id='1080'> +1.5343583e-12 </wgt>
<wgt id='1081'> +1.6048533e-12 </wgt>
<wgt id='1082'> +1.5445029e-12 </wgt>
<wgt id='1083'> +1.5504038e-12 </wgt>
<wgt id='1084'> +1.5350450e-12 </wgt>
<wgt id='1085'> +1.5611506e-12 </wgt>
<wgt id='1086'> +1.5975957e-12 </wgt>
<wgt id='1087'> +1.5806798e-12 </wgt>
<wgt id='1088'> +1.5789758e-12 </wgt>
<wgt id='1089'> +1.5935411e-12 </wgt>
<wgt id='1090'> +1.6000634e-12 </wgt>
<wgt id='1091'> +1.5895172e-12 </wgt>
<wgt id='1092'> +1.6057670e-12 </wgt>
<wgt id='1093'> +1.5721173e-12 </wgt>
<wgt id='1094'> +1.5741509e-12 </wgt>
<wgt id='1095'> +1.6063544e-12 </wgt>
<wgt id='1096'> +1.5910687e-12 </wgt>
<wgt id='1097'> +1.5555628e-12 </wgt>
<wgt id='1098'> +1.5140153e-12 </wgt>
<wgt id='1099'> +1.5815521e-12 </wgt>
<wgt id='1100'> +1.5770505e-12 </wgt>
<wgt id='1101'> +1.6173197e-12 </wgt>
<wgt id='1102'> +1.5395827e-12 </wgt>
<wgt id='1103'> +1.5743718e-12 </wgt>
<wgt id='1104'> +1.5146455e-12 </wgt>
<wgt id='1105'> +1.5708237e-12 </wgt>
<wgt id='1106'> +1.6128347e-12 </wgt>
<wgt id='1107'> +1.5674008e-12 </wgt>
<wgt id='1108'> +1.5393322e-12 </wgt>
<wgt id='1109'> +1.5982538e-12 </wgt>
<wgt id='1110'> +1.5437877e-12 </wgt>
<wgt id='1111'> +1.5759309e-12 </wgt>
<wgt id='1112'> +1.6497664e-12 </wgt>
<wgt id='1113'> +1.6280400e-12 </wgt>
<wgt id='1114'> +1.5814314e-12 </wgt>
<wgt id='1115'> +1.5550379e-12 </wgt>
<wgt id='1116'> +1.5478287e-12 </wgt>
<wgt id='1117'> +1.5302041e-12 </wgt>
<wgt id='1118'> +1.6115661e-12 </wgt>
<wgt id='1119'> +1.4544077e-12 </wgt>
<wgt id='1120'> +1.5049694e-12 </wgt>
<wgt id='1121'> +1.5441009e-12 </wgt>
<wgt id='1122'> +1.6450720e-12 </wgt>
<wgt id='1123'> +1.4819707e-12 </wgt>
<wgt id='1124'> +1.5502374e-12 </wgt>
<wgt id='1125'> +1.5479932e-12 </wgt>
<wgt id='1126'> +1.6349463e-12 </wgt>
<wgt id='1127'> +1.5369714e-12 </wgt>
<wgt id='1128'> +1.5675524e-12 </wgt>
<wgt id='1129'> +1.6028971e-12 </wgt>
<wgt id='1130'> +1.5335012e-12 </wgt>
<wgt id='1131'> +1.5353425e-12 </wgt>
<wgt id='1132'> +1.6003963e-12 </wgt>
<wgt id='1133'> +1.4966808e-12 </wgt>
<wgt id='1134'> +1.6083006e-12 </wgt>
<wgt id='1135'> +1.4834158e-12 </wgt>
<wgt id='1136'> +1.5481900e-12 </wgt>
<wgt id='1137'> +1.5380703e-12 </wgt>
<wgt id='1138'> +1.5435690e-12 </wgt>
<wgt id='1139'> +1.5424625e-12 </wgt>
<wgt id='1140'> +1.5728381e-12 </wgt>
<wgt id='1141'> +1.5064538e-12 </wgt>
<wgt id='1142'> +1.5548516e-12 </wgt>
<wgt id='1143'> +1.6130592e-12 </wgt>
<wgt id='1144'> +1.5483021e-12 </wgt>
<wgt id='1145'> +1.5280387e-12 </wgt>
<wgt id='1146'> +1.5199903e-12 </wgt>
<wgt id='1147'> +1.1935817e-12 </wgt>
<wgt id='1148'> +1.2201178e-12 </wgt>
<wgt id='1149'> +1.3230487e-12 </wgt>
<wgt id='1150'> +1.2323617e-12 </wgt>
<wgt id='1151'> +1.1039806e-12 </wgt>
<wgt id='1152'> +1.3480778e-12 </wgt>
<wgt id='1153'> +1.3404249e-12 </wgt>
<wgt id='1154'> +1.3524845e-12 </wgt>
<wgt id='1155'> +1.3460830e-12 </wgt>
<wgt id='1156'> +1.3491095e-12 </wgt>
<wgt id='1157'> +1.3557271e-12 </wgt>
<wgt id='1158'> +1.3377827e-12 </wgt>
<wgt id='1159'> +1.3545444e-12 </wgt>
<wgt id='1160'> +1.3439358e-12 </wgt>
<wgt id='1161'> +1.3489339e-12 </wgt>
<wgt id='1162'> +1.3474730e-12 </wgt>
<wgt id='1163'> +1.3516441e-12 </wgt>
<wgt id='1164'> +1.3445323e-12 </wgt>
<wgt id='1165'> +1.3452587e-12 </wgt>
<wgt id='1166'> +1.3507366e-12 </wgt>
<wgt id='1167'> +1.3499538e-12 </wgt>
<wgt id='1168'> +1.3448018e-12 </wgt>
<wgt id='1169'> +1.3472316e-12 </wgt>
<wgt id='1170'> +1.3487223e-12 </wgt>
<wgt id='1171'> +1.3430834e-12 </wgt>
<wgt id='1172'> +1.3538620e-12 </wgt>
<wgt id='1173'> +1.3395831e-12 </wgt>
<wgt id='1174'> +1.3554894e-12 </wgt>
<wgt id='1175'> +1.3464720e-12 </wgt>
<wgt id='1176'> +1.3487046e-12 </wgt>
<wgt id='1177'> +1.3489083e-12 </wgt>
<wgt id='1178'> +1.3458712e-12 </wgt>
<wgt id='1179'> +1.3515887e-12 </wgt>
<wgt id='1180'> +1.3394225e-12 </wgt>
<wgt id='1181'> +1.3430890e-12 </wgt>
<wgt id='1182'> +1.3528726e-12 </wgt>
<wgt id='1183'> +1.3466983e-12 </wgt>
<wgt id='1184'> +1.3481960e-12 </wgt>
<wgt id='1185'> +1.3359044e-12 </wgt>
<wgt id='1186'> +1.3548679e-12 </wgt>
<wgt id='1187'> +1.3474530e-12 </wgt>
<wgt id='1188'> +1.3483004e-12 </wgt>
<wgt id='1189'> +1.3441044e-12 </wgt>
<wgt id='1190'> +1.3418792e-12 </wgt>
<wgt id='1191'> +1.3475444e-12 </wgt>
<wgt id='1192'> +1.3465987e-12 </wgt>
<wgt id='1193'> +1.2304543e-12 </wgt>
<wgt id='1194'> +1.2304764e-12 </wgt>
<wgt id='1195'> +1.2304231e-12 </wgt>
<wgt id='1196'> +1.2398563e-12 </wgt>
<wgt id='1197'> +1.2200293e-12 </wgt>
<wgt id='1198'> +1.2282275e-12 </wgt>
<wgt id='1199'> +1.2337715e-12 </wgt>
<wgt id='1200'> +1.2320123e-12 </wgt>
<wgt id='1201'> +1.2294393e-12 </wgt>
<wgt id='1202'> +1.2305008e-12 </wgt>
<wgt id='1203'> +1.2304172e-12 </wgt>
<wgt id='1204'> +1.2301944e-12 </wgt>
<wgt id='1205'> +1.2306208e-12 </wgt>
<wgt id='1206'> +1.2328436e-12 </wgt>
<wgt id='1207'> +1.2272251e-12 </wgt>
<wgt id='1208'> +1.2245701e-12 </wgt>
<wgt id='1209'> +1.2325579e-12 </wgt>
<wgt id='1210'> +1.2361054e-12 </wgt>
<wgt id='1211'> +1.2182408e-12 </wgt>
<wgt id='1212'> +1.2327465e-12 </wgt>
<wgt id='1213'> +1.2282296e-12 </wgt>
<wgt id='1214'> +1.2137585e-12 </wgt>
<wgt id='1215'> +1.2589729e-12 </wgt>
<wgt id='1216'> +1.2342707e-12 </wgt>
<wgt id='1217'> +1.2273306e-12 </wgt>
<wgt id='1218'> +1.2312910e-12 </wgt>
<wgt id='1219'> +1.2298394e-12 </wgt>
<wgt id='1220'> +1.2334181e-12 </wgt>
<wgt id='1221'> +1.2299336e-12 </wgt>
<wgt id='1222'> +1.2305895e-12 </wgt>
<wgt id='1223'> +1.2263147e-12 </wgt>
<wgt id='1224'> +1.2325479e-12 </wgt>
<wgt id='1225'> +1.2296411e-12 </wgt>
<wgt id='1226'> +1.2251032e-12 </wgt>
<wgt id='1227'> +1.2340302e-12 </wgt>
<wgt id='1228'> +1.2247041e-12 </wgt>
<wgt id='1229'> +1.2324844e-12 </wgt>
<wgt id='1230'> +1.2202138e-12 </wgt>
<wgt id='1231'> +1.2303502e-12 </wgt>
<wgt id='1232'> +1.2306727e-12 </wgt>
<wgt id='1233'> +1.2303335e-12 </wgt>
<wgt id='1234'> +1.2304543e-12 </wgt>
<wgt id='1235'> +1.2211988e-12 </wgt>
<wgt id='1236'> +1.2246200e-12 </wgt>
<wgt id='1237'> +1.2277392e-12 </wgt>
<wgt id='1238'> +1.2328693e-12 </wgt>
<wgt id='1239'> +1.2350462e-12 </wgt>
<wgt id='1240'> +1.2370409e-12 </wgt>
<wgt id='1241'> +1.2523500e-12 </wgt>
<wgt id='1242'> +1.2495572e-12 </wgt>
<wgt id='1243'> +1.2550978e-12 </wgt>
<wgt id='1244'> +1.2442788e-12 </wgt>
<wgt id='1245'> +1.2582507e-12 </wgt>
<wgt id='1246'> +1.2515174e-12 </wgt>
<wgt id='1247'> +1.2530529e-12 </wgt>
<wgt id='1248'> +1.2522750e-12 </wgt>
<wgt id='1249'> +1.2523828e-12 </wgt>
<wgt id='1250'> +1.2592451e-12 </wgt>
<wgt id='1251'> +1.2474888e-12 </wgt>
<wgt id='1252'> +1.2501585e-12 </wgt>
<wgt id='1253'> +1.2540491e-12 </wgt>
<wgt id='1254'> +1.2518389e-12 </wgt>
<wgt id='1255'> +1.2526425e-12 </wgt>
<wgt id='1256'> +1.2547022e-12 </wgt>
<wgt id='1257'> +1.2463286e-12 </wgt>
<wgt id='1258'> +1.2748352e-12 </wgt>
<wgt id='1259'> +1.2325923e-12 </wgt>
<wgt id='1260'> +1.2542811e-12 </wgt>
<wgt id='1261'> +1.2502101e-12 </wgt>
<wgt id='1262'> +1.2492779e-12 </wgt>
<wgt id='1263'> +1.2532312e-12 </wgt>
<wgt id='1264'> +1.2497854e-12 </wgt>
<wgt id='1265'> +1.2533709e-12 </wgt>
<wgt id='1266'> +1.2481067e-12 </wgt>
<wgt id='1267'> +1.2549785e-12 </wgt>
<wgt id='1268'> +1.2533341e-12 </wgt>
<wgt id='1269'> +1.2533212e-12 </wgt>
<wgt id='1270'> +1.2482324e-12 </wgt>
<wgt id='1271'> +1.2460393e-12 </wgt>
<wgt id='1272'> +1.2510850e-12 </wgt>
<wgt id='1273'> +1.2521434e-12 </wgt>
<wgt id='1274'> +1.2559879e-12 </wgt>
<wgt id='1275'> +1.2458047e-12 </wgt>
<wgt id='1276'> +1.2560043e-12 </wgt>
<wgt id='1277'> +1.2460771e-12 </wgt>
<wgt id='1278'> +1.2529320e-12 </wgt>
<wgt id='1279'> +1.2466334e-12 </wgt>
<wgt id='1280'> +1.2523863e-12 </wgt>
<wgt id='1281'> +1.2507131e-12 </wgt>
<wgt id='1282'> +1.2523500e-12 </wgt>
<wgt id='1283'> +1.2423109e-12 </wgt>
<wgt id='1284'> +1.2461359e-12 </wgt>
<wgt id='1285'> +1.2494807e-12 </wgt>
<wgt id='1286'> +1.2548537e-12 </wgt>
<wgt id='1287'> +1.2570713e-12 </wgt>
<wgt id='1288'> +1.2587467e-12 </wgt>
<wgt id='1289'> +1.2694773e-12 </wgt>
<wgt id='1290'> +1.2688824e-12 </wgt>
<wgt id='1291'> +1.2701133e-12 </wgt>
<wgt id='1292'> +1.2593411e-12 </wgt>
<wgt id='1293'> +1.2768066e-12 </wgt>
<wgt id='1294'> +1.2659350e-12 </wgt>
<wgt id='1295'> +1.2729589e-12 </wgt>
<wgt id='1296'> +1.2659343e-12 </wgt>
<wgt id='1297'> +1.2737824e-12 </wgt>
<wgt id='1298'> +1.2702935e-12 </wgt>
<wgt id='1299'> +1.2683471e-12 </wgt>
<wgt id='1300'> +1.2705714e-12 </wgt>
<wgt id='1301'> +1.2672944e-12 </wgt>
<wgt id='1302'> +1.2680117e-12 </wgt>
<wgt id='1303'> +1.2715072e-12 </wgt>
<wgt id='1304'> +1.2698537e-12 </wgt>
<wgt id='1305'> +1.2691977e-12 </wgt>
<wgt id='1306'> +1.2705531e-12 </wgt>
<wgt id='1307'> +1.2684179e-12 </wgt>
<wgt id='1308'> +1.2771420e-12 </wgt>
<wgt id='1309'> +1.2636473e-12 </wgt>
<wgt id='1310'> +1.2721486e-12 </wgt>
<wgt id='1311'> +1.2667863e-12 </wgt>
<wgt id='1312'> +1.2749418e-12 </wgt>
<wgt id='1313'> +1.2640360e-12 </wgt>
<wgt id='1314'> +1.2675699e-12 </wgt>
<wgt id='1315'> +1.2687001e-12 </wgt>
<wgt id='1316'> +1.2757862e-12 </wgt>
<wgt id='1317'> +1.2677837e-12 </wgt>
<wgt id='1318'> +1.2749030e-12 </wgt>
<wgt id='1319'> +1.2626212e-12 </wgt>
<wgt id='1320'> +1.2788475e-12 </wgt>
<wgt id='1321'> +1.2619867e-12 </wgt>
<wgt id='1322'> +1.2669918e-12 </wgt>
<wgt id='1323'> +1.2722813e-12 </wgt>
<wgt id='1324'> +1.2648664e-12 </wgt>
<wgt id='1325'> +1.2837556e-12 </wgt>
<wgt id='1326'> +1.2652987e-12 </wgt>
<wgt id='1327'> +1.2741403e-12 </wgt>
<wgt id='1328'> +1.2713177e-12 </wgt>
<wgt id='1329'> +1.2675685e-12 </wgt>
<wgt id='1330'> +1.2406658e-12 </wgt>
<wgt id='1331'> +1.2901761e-12 </wgt>
<wgt id='1332'> +1.2854556e-12 </wgt>
<wgt id='1333'> +1.2528067e-12 </wgt>
<wgt id='1334'> +1.2626010e-12 </wgt>
<wgt id='1335'> +1.2870267e-12 </wgt>
<wgt id='1336'> +1.2672778e-12 </wgt>
<wgt id='1337'> +1.2631304e-12 </wgt>
<wgt id='1338'> +1.2670855e-12 </wgt>
<wgt id='1339'> +1.2693892e-12 </wgt>
<wgt id='1340'> +1.2323471e-12 </wgt>
<wgt id='1341'> +1.2319909e-12 </wgt>
<wgt id='1342'> +1.2327127e-12 </wgt>
<wgt id='1343'> +1.2220498e-12 </wgt>
<wgt id='1344'> +1.2392888e-12 </wgt>
<wgt id='1345'> +1.2290509e-12 </wgt>
<wgt id='1346'> +1.2354402e-12 </wgt>
<wgt id='1347'> +1.2290351e-12 </wgt>
<wgt id='1348'> +1.2359602e-12 </wgt>
<wgt id='1349'> +1.2327274e-12 </wgt>
<wgt id='1350'> +1.2318886e-12 </wgt>
<wgt id='1351'> +1.2333121e-12 </wgt>
<wgt id='1352'> +1.2302194e-12 </wgt>
<wgt id='1353'> +1.2307303e-12 </wgt>
<wgt id='1354'> +1.2352106e-12 </wgt>
<wgt id='1355'> +1.2331662e-12 </wgt>
<wgt id='1356'> +1.2318481e-12 </wgt>
<wgt id='1357'> +1.2359773e-12 </wgt>
<wgt id='1358'> +1.2282409e-12 </wgt>
<wgt id='1359'> +1.2400850e-12 </wgt>
<wgt id='1360'> +1.2256403e-12 </wgt>
<wgt id='1361'> +1.2346582e-12 </wgt>
<wgt id='1362'> +1.2294420e-12 </wgt>
<wgt id='1363'> +1.2399669e-12 </wgt>
<wgt id='1364'> +1.2273342e-12 </wgt>
<wgt id='1365'> +1.2278894e-12 </wgt>
<wgt id='1366'> +1.2334019e-12 </wgt>
<wgt id='1367'> +1.2382667e-12 </wgt>
<wgt id='1368'> +1.2306438e-12 </wgt>
<wgt id='1369'> +1.2369385e-12 </wgt>
<wgt id='1370'> +1.2265690e-12 </wgt>
<wgt id='1371'> +1.2381230e-12 </wgt>
<wgt id='1372'> +1.2254628e-12 </wgt>
<wgt id='1373'> +1.2275127e-12 </wgt>
<wgt id='1374'> +1.2363637e-12 </wgt>
<wgt id='1375'> +1.2280811e-12 </wgt>
<wgt id='1376'> +1.2465966e-12 </wgt>
<wgt id='1377'> +1.2286338e-12 </wgt>
<wgt id='1378'> +1.2366696e-12 </wgt>
<wgt id='1379'> +1.2335862e-12 </wgt>
<wgt id='1380'> +1.2308072e-12 </wgt>
<wgt id='1381'> +1.2024224e-12 </wgt>
<wgt id='1382'> +1.2514452e-12 </wgt>
<wgt id='1383'> +1.2494560e-12 </wgt>
<wgt id='1384'> +1.2138556e-12 </wgt>
<wgt id='1385'> +1.2254497e-12 </wgt>
<wgt id='1386'> +1.2487331e-12 </wgt>
<wgt id='1387'> +1.2295149e-12 </wgt>
<wgt id='1388'> +1.2245966e-12 </wgt>
<wgt id='1389'> +1.2283517e-12 </wgt>
<wgt id='1390'> +1.2323671e-12 </wgt>
<wgt id='1391'> +1.2214558e-12 </wgt>
<wgt id='1392'> +1.1702397e-12 </wgt>
<wgt id='1393'> +1.1867662e-12 </wgt>
<wgt id='1394'> +1.2046503e-12 </wgt>
<wgt id='1395'> +1.2388486e-12 </wgt>
<wgt id='1396'> +1.2226469e-12 </wgt>
<wgt id='1397'> +1.1811150e-12 </wgt>
<wgt id='1398'> +1.1907720e-12 </wgt>
<wgt id='1399'> +1.1984386e-12 </wgt>
<wgt id='1400'> +1.2059414e-12 </wgt>
<wgt id='1401'> +1.2144613e-12 </wgt>
<wgt id='1402'> +1.2293882e-12 </wgt>
<wgt id='1403'> +1.2358125e-12 </wgt>
<wgt id='1404'> +1.2412581e-12 </wgt>
<wgt id='1405'> +1.2226469e-12 </wgt>
<wgt id='1406'> +1.2193752e-12 </wgt>
<wgt id='1407'> +1.2214119e-12 </wgt>
<wgt id='1408'> +1.2239753e-12 </wgt>
<wgt id='1409'> +1.2258897e-12 </wgt>
<wgt id='1410'> +1.2732070e-12 </wgt>
<wgt id='1411'> +1.2718102e-12 </wgt>
<wgt id='1412'> +1.2750271e-12 </wgt>
<wgt id='1413'> +1.2775688e-12 </wgt>
<wgt id='1414'> +1.2688614e-12 </wgt>
<wgt id='1415'> +1.2589732e-12 </wgt>
<wgt id='1416'> +1.2789825e-12 </wgt>
<wgt id='1417'> +1.2660587e-12 </wgt>
<wgt id='1418'> +1.2803421e-12 </wgt>
<wgt id='1419'> +1.2727537e-12 </wgt>
<wgt id='1420'> +1.2736562e-12 </wgt>
<wgt id='1421'> +1.2705641e-12 </wgt>
<wgt id='1422'> +1.2743559e-12 </wgt>
<wgt id='1423'> +1.2725401e-12 </wgt>
<wgt id='1424'> +1.2740080e-12 </wgt>
<wgt id='1425'> +1.2712205e-12 </wgt>
<wgt id='1426'> +1.2753609e-12 </wgt>
<wgt id='1427'> +1.2812510e-12 </wgt>
<wgt id='1428'> +1.2686417e-12 </wgt>
<wgt id='1429'> +1.2680622e-12 </wgt>
<wgt id='1430'> +1.2801394e-12 </wgt>
<wgt id='1431'> +1.2760497e-12 </wgt>
<wgt id='1432'> +1.2711894e-12 </wgt>
<wgt id='1433'> +1.2711188e-12 </wgt>
<wgt id='1434'> +1.2747699e-12 </wgt>
<wgt id='1435'> +1.2710138e-12 </wgt>
<wgt id='1436'> +1.2783520e-12 </wgt>
<wgt id='1437'> +1.2777678e-12 </wgt>
<wgt id='1438'> +1.2720376e-12 </wgt>
<wgt id='1439'> +1.2690172e-12 </wgt>
<wgt id='1440'> +1.2830937e-12 </wgt>
<wgt id='1441'> +1.2755469e-12 </wgt>
<wgt id='1442'> +1.2692038e-12 </wgt>
<wgt id='1443'> +1.2700053e-12 </wgt>
<wgt id='1444'> +1.2799517e-12 </wgt>
<wgt id='1445'> +1.2897920e-12 </wgt>
<wgt id='1446'> +1.2667476e-12 </wgt>
<wgt id='1447'> +1.2726746e-12 </wgt>
<wgt id='1448'> +1.2753696e-12 </wgt>
<wgt id='1449'> +1.2754286e-12 </wgt>
<wgt id='1450'> +1.2713991e-12 </wgt>
<wgt id='1451'> +1.2887780e-12 </wgt>
<wgt id='1452'> +1.2347508e-12 </wgt>
<wgt id='1453'> +1.2757852e-12 </wgt>
<wgt id='1454'> +1.2546855e-12 </wgt>
<wgt id='1455'> +1.2551381e-12 </wgt>
<wgt id='1456'> +1.2824047e-12 </wgt>
<wgt id='1457'> +1.2852851e-12 </wgt>
<wgt id='1458'> +1.2675606e-12 </wgt>
<wgt id='1459'> +1.2755051e-12 </wgt>
<wgt id='1460'> +1.2668289e-12 </wgt>
<wgt id='1461'> +1.2732070e-12 </wgt>
<wgt id='1462'> +1.2530771e-12 </wgt>
<wgt id='1463'> +1.2956747e-12 </wgt>
<wgt id='1464'> +1.2742225e-12 </wgt>
<wgt id='1465'> +1.2404093e-12 </wgt>
<wgt id='1466'> +1.2488327e-12 </wgt>
<wgt id='1467'> +1.2572384e-12 </wgt>
<wgt id='1468'> +1.2611440e-12 </wgt>
<wgt id='1469'> +1.2686142e-12 </wgt>
<wgt id='1470'> +1.2796338e-12 </wgt>
<wgt id='1471'> +1.2831294e-12 </wgt>
<wgt id='1472'> +1.2883639e-12 </wgt>
<wgt id='1473'> +1.2742225e-12 </wgt>
<wgt id='1474'> +1.2700340e-12 </wgt>
<wgt id='1475'> +1.2704224e-12 </wgt>
<wgt id='1476'> +1.2762129e-12 </wgt>
<wgt id='1477'> +1.2784802e-12 </wgt>
<wgt id='1478'> +1.1963391e-12 </wgt>
<wgt id='1479'> +1.1937614e-12 </wgt>
<wgt id='1480'> +1.1991988e-12 </wgt>
<wgt id='1481'> +1.1995308e-12 </wgt>
<wgt id='1482'> +1.1907826e-12 </wgt>
<wgt id='1483'> +1.1685781e-12 </wgt>
<wgt id='1484'> +1.1939723e-12 </wgt>
<wgt id='1485'> +1.1877455e-12 </wgt>
<wgt id='1486'> +1.1975445e-12 </wgt>
<wgt id='1487'> +1.2031210e-12 </wgt>
<wgt id='1488'> +1.1951743e-12 </wgt>
<wgt id='1489'> +1.2058871e-12 </wgt>
<wgt id='1490'> +1.1900771e-12 </wgt>
<wgt id='1491'> +1.1941360e-12 </wgt>
<wgt id='1492'> +1.2012427e-12 </wgt>
<wgt id='1493'> +1.1870501e-12 </wgt>
<wgt id='1494'> +1.2162340e-12 </wgt>
<wgt id='1495'> +1.1756466e-12 </wgt>
<wgt id='1496'> +1.1932577e-12 </wgt>
<wgt id='1497'> +1.1930570e-12 </wgt>
<wgt id='1498'> +1.1960932e-12 </wgt>
<wgt id='1499'> +1.1953368e-12 </wgt>
<wgt id='1500'> +1.1979093e-12 </wgt>
<wgt id='1501'> +1.1953178e-12 </wgt>
<wgt id='1502'> +1.1965212e-12 </wgt>
<wgt id='1503'> +1.1951187e-12 </wgt>
<wgt id='1504'> +1.1887550e-12 </wgt>
<wgt id='1505'> +1.1955275e-12 </wgt>
<wgt id='1506'> +1.1936990e-12 </wgt>
<wgt id='1507'> +1.1962329e-12 </wgt>
<wgt id='1508'> +1.1993052e-12 </wgt>
<wgt id='1509'> +1.3603848e-12 </wgt>
<wgt id='1510'> +1.3605438e-12 </wgt>
<wgt id='1511'> +1.3629465e-12 </wgt>
<wgt id='1512'> +1.3607901e-12 </wgt>
<wgt id='1513'> +1.3688776e-12 </wgt>
<wgt id='1514'> +1.3608668e-12 </wgt>
<wgt id='1515'> +1.3568206e-12 </wgt>
<wgt id='1516'> +1.3587236e-12 </wgt>
<wgt id='1517'> +1.3569043e-12 </wgt>
<wgt id='1518'> +1.3704582e-12 </wgt>
<wgt id='1519'> +1.3527242e-12 </wgt>
<wgt id='1520'> +1.3566092e-12 </wgt>
<wgt id='1521'> +1.3668891e-12 </wgt>
<wgt id='1522'> +1.3581555e-12 </wgt>
<wgt id='1523'> +1.3754440e-12 </wgt>
<wgt id='1524'> +1.3640595e-12 </wgt>
<wgt id='1525'> +1.3711282e-12 </wgt>
<wgt id='1526'> +1.3557475e-12 </wgt>
<wgt id='1527'> +1.3551046e-12 </wgt>
<wgt id='1528'> +1.3656235e-12 </wgt>
<wgt id='1529'> +1.3614990e-12 </wgt>
<wgt id='1530'> +1.3725591e-12 </wgt>
<wgt id='1531'> +1.3633210e-12 </wgt>
<wgt id='1532'> +1.3516888e-12 </wgt>
<wgt id='1533'> +1.3569931e-12 </wgt>
<wgt id='1534'> +1.3676276e-12 </wgt>
<wgt id='1535'> +1.3438786e-12 </wgt>
<wgt id='1536'> +1.3554862e-12 </wgt>
<wgt id='1537'> +1.3592754e-12 </wgt>
<wgt id='1538'> +1.3576507e-12 </wgt>
<wgt id='1539'> +1.3649217e-12 </wgt>
<wgt id='1540'> +1.3636392e-12 </wgt>
<wgt id='1541'> +1.3608521e-12 </wgt>
<wgt id='1542'> +1.3605888e-12 </wgt>
<wgt id='1543'> +1.3594633e-12 </wgt>
<wgt id='1544'> +1.3559771e-12 </wgt>
<wgt id='1545'> +1.3606403e-12 </wgt>
<wgt id='1546'> +1.3579394e-12 </wgt>
<wgt id='1547'> +1.3610086e-12 </wgt>
<wgt id='1548'> +1.3581928e-12 </wgt>
<wgt id='1549'> +1.3570512e-12 </wgt>
<wgt id='1550'> +1.3646175e-12 </wgt>
<wgt id='1551'> +1.3599739e-12 </wgt>
<wgt id='1552'> +1.3607444e-12 </wgt>
<wgt id='1553'> +1.3609052e-12 </wgt>
<wgt id='1554'> +1.3655492e-12 </wgt>
<wgt id='1555'> +1.3653265e-12 </wgt>
<wgt id='1556'> +1.3600052e-12 </wgt>
<wgt id='1557'> +1.3635080e-12 </wgt>
<wgt id='1558'> +1.3562393e-12 </wgt>
<wgt id='1559'> +1.3576306e-12 </wgt>
<wgt id='1560'> +1.3628128e-12 </wgt>
<wgt id='1561'> +1.3572128e-12 </wgt>
<wgt id='1562'> +1.3600836e-12 </wgt>
<wgt id='1563'> +1.3614434e-12 </wgt>
<wgt id='1564'> +1.3600355e-12 </wgt>
<wgt id='1565'> +1.3610324e-12 </wgt>
<wgt id='1566'> +1.3608075e-12 </wgt>
<wgt id='1567'> +1.3621682e-12 </wgt>
<wgt id='1568'> +1.3572621e-12 </wgt>
<wgt id='1569'> +1.3594512e-12 </wgt>
<wgt id='1570'> +1.3593739e-12 </wgt>
<wgt id='1571'> +1.3605261e-12 </wgt>
<wgt id='1572'> +1.3595521e-12 </wgt>
<wgt id='1573'> +1.3609491e-12 </wgt>
<wgt id='1574'> +1.3595579e-12 </wgt>
<wgt id='1575'> +1.3606272e-12 </wgt>
<wgt id='1576'> +1.3609697e-12 </wgt>
<wgt id='1577'> +1.3616944e-12 </wgt>
<wgt id='1578'> +1.3601098e-12 </wgt>
<wgt id='1579'> +1.3602865e-12 </wgt>
<wgt id='1580'> +1.3606561e-12 </wgt>
<wgt id='1581'> +1.3612172e-12 </wgt>
<wgt id='1582'> +1.3591381e-12 </wgt>
<wgt id='1583'> +1.3613940e-12 </wgt>
<wgt id='1584'> +1.3603524e-12 </wgt>
<wgt id='1585'> +1.3597118e-12 </wgt>
<wgt id='1586'> +1.3607426e-12 </wgt>
<wgt id='1587'> +1.3603310e-12 </wgt>
<wgt id='1588'> +1.3606888e-12 </wgt>
<wgt id='1589'> +1.3613210e-12 </wgt>
<wgt id='1590'> +1.3602986e-12 </wgt>
<wgt id='1591'> +1.3608890e-12 </wgt>
<wgt id='1592'> +1.3589101e-12 </wgt>
<wgt id='1593'> +1.3598671e-12 </wgt>
<wgt id='1594'> +1.3606955e-12 </wgt>
<wgt id='1595'> +1.3608513e-12 </wgt>
<wgt id='1596'> +1.3610295e-12 </wgt>
<wgt id='1597'> +1.3598072e-12 </wgt>
<wgt id='1598'> +1.3604937e-12 </wgt>
<wgt id='1599'> +1.3611721e-12 </wgt>
<wgt id='1600'> +1.3609390e-12 </wgt>
<wgt id='1601'> +1.3597745e-12 </wgt>
<wgt id='1602'> +1.3594462e-12 </wgt>
<wgt id='1603'> +1.3606103e-12 </wgt>
<wgt id='1604'> +1.3613323e-12 </wgt>
<wgt id='1605'> +1.3608206e-12 </wgt>
<wgt id='1606'> +1.3606963e-12 </wgt>
<wgt id='1607'> +1.3604900e-12 </wgt>
<wgt id='1608'> +1.3606938e-12 </wgt>
<wgt id='1609'> +1.3603176e-12 </wgt>
<wgt id='1610'> +1.3267656e-12 </wgt>
<wgt id='1611'> +1.3962387e-12 </wgt>
<wgt id='1612'> +1.4983020e-12 </wgt>
<wgt id='1613'> +1.4552529e-12 </wgt>
<wgt id='1614'> +1.4957431e-12 </wgt>
<wgt id='1615'> +1.4775098e-12 </wgt>
<wgt id='1616'> +1.5266810e-12 </wgt>
<wgt id='1617'> +1.5630090e-12 </wgt>
<wgt id='1618'> +1.5684540e-12 </wgt>
<wgt id='1619'> +1.5329639e-12 </wgt>
<wgt id='1620'> +1.4246868e-12 </wgt>
<wgt id='1621'> +1.5091304e-12 </wgt>
<wgt id='1622'> +1.5148009e-12 </wgt>
<wgt id='1623'> +1.5043658e-12 </wgt>
<wgt id='1624'> +1.4816769e-12 </wgt>
<wgt id='1625'> +1.4656277e-12 </wgt>
<wgt id='1626'> +1.4576251e-12 </wgt>
<wgt id='1627'> +1.4648779e-12 </wgt>
<wgt id='1628'> +1.4806940e-12 </wgt>
<wgt id='1629'> +1.5666091e-12 </wgt>
<wgt id='1630'> +1.4889202e-12 </wgt>
<wgt id='1631'> +1.4710232e-12 </wgt>
<wgt id='1632'> +1.3729193e-12 </wgt>
<wgt id='1633'> +1.4376968e-12 </wgt>
<wgt id='1634'> +1.5557361e-12 </wgt>
<wgt id='1635'> +1.5320245e-12 </wgt>
<wgt id='1636'> +1.5607378e-12 </wgt>
<wgt id='1637'> +1.4826699e-12 </wgt>
<wgt id='1638'> +1.5011555e-12 </wgt>
<wgt id='1639'> +1.4868259e-12 </wgt>
<wgt id='1640'> +1.4825709e-12 </wgt>
<wgt id='1641'> +1.4855767e-12 </wgt>
<wgt id='1642'> +1.4720449e-12 </wgt>
<wgt id='1643'> +1.5070283e-12 </wgt>
<wgt id='1644'> +1.4381155e-12 </wgt>
<wgt id='1645'> +1.4940242e-12 </wgt>
<wgt id='1646'> +1.4492067e-12 </wgt>
<wgt id='1647'> +1.4593450e-12 </wgt>
<wgt id='1648'> +1.5295092e-12 </wgt>
<wgt id='1649'> +1.5832577e-12 </wgt>
<wgt id='1650'> +1.4762594e-12 </wgt>
<wgt id='1651'> +1.4614835e-12 </wgt>
<wgt id='1652'> +1.4312195e-12 </wgt>
<wgt id='1653'> +1.5666160e-12 </wgt>
<wgt id='1654'> +1.5145028e-12 </wgt>
<wgt id='1655'> +1.4696526e-12 </wgt>
<wgt id='1656'> +1.4197146e-12 </wgt>
<wgt id='1657'> +1.4606214e-12 </wgt>
<wgt id='1658'> +1.4264050e-12 </wgt>
<wgt id='1659'> +1.4816769e-12 </wgt>
<wgt id='1660'> +1.5930790e-12 </wgt>
<wgt id='1661'> +1.4994019e-12 </wgt>
<wgt id='1662'> +1.5178690e-12 </wgt>
<wgt id='1663'> +1.5246693e-12 </wgt>
<wgt id='1664'> +1.4496576e-12 </wgt>
<wgt id='1665'> +1.3985226e-12 </wgt>
<wgt id='1666'> +1.5229833e-12 </wgt>
<wgt id='1667'> +1.4706518e-12 </wgt>
<wgt id='1668'> +1.5595714e-12 </wgt>
<wgt id='1669'> +1.4411853e-12 </wgt>
<wgt id='1670'> +1.5367765e-12 </wgt>
<wgt id='1671'> +1.4827838e-12 </wgt>
<wgt id='1672'> +1.5026452e-12 </wgt>
<wgt id='1673'> +1.5460645e-12 </wgt>
<wgt id='1674'> +1.4404105e-12 </wgt>
<wgt id='1675'> +1.5208740e-12 </wgt>
<wgt id='1676'> +1.5568994e-12 </wgt>
<wgt id='1677'> +1.6055879e-12 </wgt>
<wgt id='1678'> +1.4840240e-12 </wgt>
<wgt id='1679'> +1.5209416e-12 </wgt>
<wgt id='1680'> +1.5305908e-12 </wgt>
<wgt id='1681'> +1.5168086e-12 </wgt>
<wgt id='1682'> +1.5417137e-12 </wgt>
<wgt id='1683'> +1.4607563e-12 </wgt>
<wgt id='1684'> +1.4693593e-12 </wgt>
<wgt id='1685'> +1.4614756e-12 </wgt>
<wgt id='1686'> +1.4961060e-12 </wgt>
<wgt id='1687'> +1.5510331e-12 </wgt>
<wgt id='1688'> +1.4823215e-12 </wgt>
<wgt id='1689'> +1.4984090e-12 </wgt>
<wgt id='1690'> +1.5273229e-12 </wgt>
<wgt id='1691'> +1.5217353e-12 </wgt>
<wgt id='1692'> +1.5785220e-12 </wgt>
<wgt id='1693'> +1.5456974e-12 </wgt>
<wgt id='1694'> +1.4746169e-12 </wgt>
<wgt id='1695'> +1.5315136e-12 </wgt>
<wgt id='1696'> +1.5299111e-12 </wgt>
<wgt id='1697'> +1.5524859e-12 </wgt>
<wgt id='1698'> +1.4816729e-12 </wgt>
<wgt id='1699'> +1.5442499e-12 </wgt>
<wgt id='1700'> +1.4739746e-12 </wgt>
<wgt id='1701'> +1.5195713e-12 </wgt>
<wgt id='1702'> +1.5156488e-12 </wgt>
<wgt id='1703'> +1.5360357e-12 </wgt>
<wgt id='1704'> +1.4421438e-12 </wgt>
<wgt id='1705'> +1.4150210e-12 </wgt>
<wgt id='1706'> +1.5223523e-12 </wgt>
<wgt id='1707'> +1.5074706e-12 </wgt>
<wgt id='1708'> +1.4696838e-12 </wgt>
<wgt id='1709'> +1.4781996e-12 </wgt>
<wgt id='1710'> +1.4831627e-12 </wgt>
<wgt id='1711'> +1.5416143e-12 </wgt>
<wgt id='1712'> +1.4903389e-12 </wgt>
<wgt id='1713'> +1.1694103e-12 </wgt>
<wgt id='1714'> +1.1558200e-12 </wgt>
<wgt id='1715'> +1.1861472e-12 </wgt>
<wgt id='1716'> +1.2275564e-12 </wgt>
<wgt id='1717'> +1.1973422e-12 </wgt>
<wgt id='1718'> +1.1991013e-12 </wgt>
<wgt id='1719'> +1.1736612e-12 </wgt>
<wgt id='1720'> +1.1740217e-12 </wgt>
<wgt id='1721'> +1.1222487e-12 </wgt>
<wgt id='1722'> +1.1525414e-12 </wgt>
<wgt id='1723'> +1.1026463e-12 </wgt>
<wgt id='1724'> +1.1474319e-12 </wgt>
<wgt id='1725'> +1.1698810e-12 </wgt>
<wgt id='1726'> +1.2110320e-12 </wgt>
<wgt id='1727'> +1.1657208e-12 </wgt>
<wgt id='1728'> +1.1614881e-12 </wgt>
<wgt id='1729'> +1.1475929e-12 </wgt>
<wgt id='1730'> +1.1564289e-12 </wgt>
<wgt id='1731'> +1.1202763e-12 </wgt>
<wgt id='1732'> +1.1787638e-12 </wgt>
<wgt id='1733'> +1.1806406e-12 </wgt>
<wgt id='1734'> +1.2088325e-12 </wgt>
<wgt id='1735'> +1.1312018e-12 </wgt>
<wgt id='1736'> +1.2111899e-12 </wgt>
<wgt id='1737'> +1.2310761e-12 </wgt>
<wgt id='1738'> +1.1868614e-12 </wgt>
<wgt id='1739'> +1.1613388e-12 </wgt>
<wgt id='1740'> +1.1698274e-12 </wgt>
<wgt id='1741'> +1.1905158e-12 </wgt>
<wgt id='1742'> +1.1817731e-12 </wgt>
<wgt id='1743'> +1.1846529e-12 </wgt>
<wgt id='1744'> +1.2127302e-12 </wgt>
<wgt id='1745'> +1.1015840e-12 </wgt>
<wgt id='1746'> +1.1745458e-12 </wgt>
<wgt id='1747'> +1.1701826e-12 </wgt>
<wgt id='1748'> +1.1771233e-12 </wgt>
<wgt id='1749'> +1.1839459e-12 </wgt>
<wgt id='1750'> +1.1617843e-12 </wgt>
<wgt id='1751'> +1.0787161e-12 </wgt>
<wgt id='1752'> +1.1882365e-12 </wgt>
<wgt id='1753'> +1.1810996e-12 </wgt>
<wgt id='1754'> +1.1964585e-12 </wgt>
<wgt id='1755'> +1.1982320e-12 </wgt>
<wgt id='1756'> +1.1797668e-12 </wgt>
<wgt id='1757'> +1.1383803e-12 </wgt>
<wgt id='1758'> +1.1778212e-12 </wgt>
<wgt id='1759'> +1.1853005e-12 </wgt>
<wgt id='1760'> +1.1309455e-12 </wgt>
<wgt id='1761'> +1.1619563e-12 </wgt>
<wgt id='1762'> +1.1681398e-12 </wgt>
<wgt id='1763'> +1.2070394e-12 </wgt>
<wgt id='1764'> +1.1660843e-12 </wgt>
<wgt id='1765'> +1.1672401e-12 </wgt>
<wgt id='1766'> +1.1575062e-12 </wgt>
<wgt id='1767'> +1.1850723e-12 </wgt>
<wgt id='1768'> +1.1811869e-12 </wgt>
<wgt id='1769'> +1.1441929e-12 </wgt>
<wgt id='1770'> +1.2008574e-12 </wgt>
<wgt id='1771'> +1.1943747e-12 </wgt>
<wgt id='1772'> +1.1990653e-12 </wgt>
<wgt id='1773'> +1.1638685e-12 </wgt>
<wgt id='1774'> +1.1691949e-12 </wgt>
<wgt id='1775'> +1.1813687e-12 </wgt>
<wgt id='1776'> +1.2025583e-12 </wgt>
<wgt id='1777'> +1.0726569e-12 </wgt>
<wgt id='1778'> +1.1739277e-12 </wgt>
<wgt id='1779'> +1.1895227e-12 </wgt>
<wgt id='1780'> +1.1293567e-12 </wgt>
<wgt id='1781'> +1.1743067e-12 </wgt>
<wgt id='1782'> +1.1410008e-12 </wgt>
<wgt id='1783'> +1.1536881e-12 </wgt>
<wgt id='1784'> +1.1705731e-12 </wgt>
<wgt id='1785'> +1.1350423e-12 </wgt>
<wgt id='1786'> +1.0773112e-12 </wgt>
<wgt id='1787'> +1.2292420e-12 </wgt>
<wgt id='1788'> +1.1888459e-12 </wgt>
<wgt id='1789'> +1.1427970e-12 </wgt>
<wgt id='1790'> +1.1613795e-12 </wgt>
<wgt id='1791'> +1.1570861e-12 </wgt>
<wgt id='1792'> +1.1400191e-12 </wgt>
<wgt id='1793'> +1.1799522e-12 </wgt>
<wgt id='1794'> +1.1832461e-12 </wgt>
<wgt id='1795'> +1.1995627e-12 </wgt>
<wgt id='1796'> +1.1540818e-12 </wgt>
<wgt id='1797'> +1.1796390e-12 </wgt>
<wgt id='1798'> +1.1847970e-12 </wgt>
<wgt id='1799'> +1.1649396e-12 </wgt>
<wgt id='1800'> +1.1773697e-12 </wgt>
<wgt id='1801'> +1.1813069e-12 </wgt>
<wgt id='1802'> +1.1497012e-12 </wgt>
<wgt id='1803'> +1.1978573e-12 </wgt>
<wgt id='1804'> +1.1660081e-12 </wgt>
<wgt id='1805'> +1.1426033e-12 </wgt>
<wgt id='1806'> +1.1632382e-12 </wgt>
<wgt id='1807'> +1.1745097e-12 </wgt>
<wgt id='1808'> +1.1619441e-12 </wgt>
<wgt id='1809'> +1.1455942e-12 </wgt>
<wgt id='1810'> +1.1692360e-12 </wgt>
<wgt id='1811'> +1.2087233e-12 </wgt>
<wgt id='1812'> +1.1882410e-12 </wgt>
<wgt id='1813'> +1.1668045e-12 </wgt>
<wgt id='1814'> +1.1264226e-12 </wgt>
<wgt id='1815'> +1.3326612e-12 </wgt>
<wgt id='1816'> +1.1694103e-12 </wgt>
<wgt id='1817'> +1.1558200e-12 </wgt>
<wgt id='1818'> +1.1861472e-12 </wgt>
<wgt id='1819'> +1.2275564e-12 </wgt>
<wgt id='1820'> +1.1973422e-12 </wgt>
<wgt id='1821'> +1.1991013e-12 </wgt>
<wgt id='1822'> +1.1736612e-12 </wgt>
<wgt id='1823'> +1.1740217e-12 </wgt>
<wgt id='1824'> +1.1222487e-12 </wgt>
<wgt id='1825'> +1.1525414e-12 </wgt>
<wgt id='1826'> +1.1026463e-12 </wgt>
<wgt id='1827'> +1.1474319e-12 </wgt>
<wgt id='1828'> +1.1698810e-12 </wgt>
<wgt id='1829'> +1.2110320e-12 </wgt>
<wgt id='1830'> +1.1657208e-12 </wgt>
<wgt id='1831'> +1.1614881e-12 </wgt>
<wgt id='1832'> +1.1475929e-12 </wgt>
<wgt id='1833'> +1.1564289e-12 </wgt>
<wgt id='1834'> +1.1202763e-12 </wgt>
<wgt id='1835'> +1.1787638e-12 </wgt>
<wgt id='1836'> +1.1806406e-12 </wgt>
<wgt id='1837'> +1.2088325e-12 </wgt>
<wgt id='1838'> +1.1312018e-12 </wgt>
<wgt id='1839'> +1.2111899e-12 </wgt>
<wgt id='1840'> +1.2310761e-12 </wgt>
<wgt id='1841'> +1.1868614e-12 </wgt>
<wgt id='1842'> +1.1613388e-12 </wgt>
<wgt id='1843'> +1.1698274e-12 </wgt>
<wgt id='1844'> +1.1905158e-12 </wgt>
<wgt id='1845'> +1.1817731e-12 </wgt>
<wgt id='1846'> +1.1846529e-12 </wgt>
<wgt id='1847'> +1.2127302e-12 </wgt>
<wgt id='1848'> +1.1015840e-12 </wgt>
<wgt id='1849'> +1.1745458e-12 </wgt>
<wgt id='1850'> +1.1701826e-12 </wgt>
<wgt id='1851'> +1.1771233e-12 </wgt>
<wgt id='1852'> +1.1839459e-12 </wgt>
<wgt id='1853'> +1.1617843e-12 </wgt>
<wgt id='1854'> +1.0787161e-12 </wgt>
<wgt id='1855'> +1.1882365e-12 </wgt>
<wgt id='1856'> +1.1810996e-12 </wgt>
<wgt id='1857'> +1.1964585e-12 </wgt>
<wgt id='1858'> +1.1982320e-12 </wgt>
<wgt id='1859'> +1.1797668e-12 </wgt>
<wgt id='1860'> +1.1383803e-12 </wgt>
<wgt id='1861'> +1.1778212e-12 </wgt>
<wgt id='1862'> +1.1853005e-12 </wgt>
<wgt id='1863'> +1.1309455e-12 </wgt>
<wgt id='1864'> +1.1619563e-12 </wgt>
<wgt id='1865'> +1.1681398e-12 </wgt>
<wgt id='1866'> +1.2070394e-12 </wgt>
<wgt id='1867'> +1.1660843e-12 </wgt>
<wgt id='1868'> +1.1672401e-12 </wgt>
<wgt id='1869'> +1.1575062e-12 </wgt>
<wgt id='1870'> +1.1850723e-12 </wgt>
<wgt id='1871'> +1.1811869e-12 </wgt>
<wgt id='1872'> +1.1441929e-12 </wgt>
<wgt id='1873'> +1.2008574e-12 </wgt>
<wgt id='1874'> +1.1943747e-12 </wgt>
<wgt id='1875'> +1.1990653e-12 </wgt>
<wgt id='1876'> +1.1638685e-12 </wgt>
<wgt id='1877'> +1.1691949e-12 </wgt>
<wgt id='1878'> +1.1813687e-12 </wgt>
<wgt id='1879'> +1.2025583e-12 </wgt>
<wgt id='1880'> +1.0726569e-12 </wgt>
<wgt id='1881'> +1.1739277e-12 </wgt>
<wgt id='1882'> +1.1895227e-12 </wgt>
<wgt id='1883'> +1.1293567e-12 </wgt>
<wgt id='1884'> +1.1743067e-12 </wgt>
<wgt id='1885'> +1.1410008e-12 </wgt>
<wgt id='1886'> +1.1536881e-12 </wgt>
<wgt id='1887'> +1.1705731e-12 </wgt>
<wgt id='1888'> +1.1350423e-12 </wgt>
<wgt id='1889'> +1.0773112e-12 </wgt>
<wgt id='1890'> +1.2292420e-12 </wgt>
<wgt id='1891'> +1.1888459e-12 </wgt>
<wgt id='1892'> +1.1427970e-12 </wgt>
<wgt id='1893'> +1.1613795e-12 </wgt>
<wgt id='1894'> +1.1570861e-12 </wgt>
<wgt id='1895'> +1.1400191e-12 </wgt>
<wgt id='1896'> +1.1799522e-12 </wgt>
<wgt id='1897'> +1.1832461e-12 </wgt>
<wgt id='1898'> +1.1995627e-12 </wgt>
<wgt id='1899'> +1.1540818e-12 </wgt>
<wgt id='1900'> +1.1796390e-12 </wgt>
<wgt id='1901'> +1.1847970e-12 </wgt>
<wgt id='1902'> +1.1649396e-12 </wgt>
<wgt id='1903'> +1.1773697e-12 </wgt>
<wgt id='1904'> +1.1813069e-12 </wgt>
<wgt id='1905'> +1.1497012e-12 </wgt>
<wgt id='1906'> +1.1978573e-12 </wgt>
<wgt id='1907'> +1.1660081e-12 </wgt>
<wgt id='1908'> +1.1426033e-12 </wgt>
<wgt id='1909'> +1.1632382e-12 </wgt>
<wgt id='1910'> +1.1745097e-12 </wgt>
<wgt id='1911'> +1.1619441e-12 </wgt>
<wgt id='1912'> +1.1455942e-12 </wgt>
<wgt id='1913'> +1.1692360e-12 </wgt>
<wgt id='1914'> +1.2087233e-12 </wgt>
<wgt id='1915'> +1.1882410e-12 </wgt>
<wgt id='1916'> +1.1668045e-12 </wgt>
<wgt id='1917'> +1.1559132e-12 </wgt>
<wgt id='1918'> +1.1821386e-12 </wgt>
<wgt id='1919'> +1.2377652e-12 </wgt>
</rwgt>
</event>
<event>
 9      1 +1.5607000e-12 3.42337900e+01 7.81860800e-03 1.41112600e-01
       21 -1    0    0  501  502 +0.0000000000e+00 +0.0000000000e+00 +6.2588844992e+00 6.2588844992e+00 0.0000000000e+00 0.0000e+00 -1.0000e+00
       -2 -1    0    0    0  501 -0.0000000000e+00 -0.0000000000e+00 -2.9541453494e+02 2.9541453494e+02 0.0000000000e+00 0.0000e+00 -1.0000e+00
     1023  2    1    2    0    0 +6.3659660772e+00 -3.0106654650e+01 -2.4764873384e+02 2.5000369615e+02 1.5000551373e+01 0.0000e+00 0.0000e+00
  1000023  2    3    3    0    0 +5.9468545392e+00 -2.7031012614e+01 -1.9605445198e+02 1.9807484918e+02 5.5006374296e+00 0.0000e+00 0.0000e+00
       -2  1    1    2    0  502 -6.3659660772e+00 +3.0106654650e+01 -4.1506916601e+01 5.1669723282e+01 0.0000000000e+00 0.0000e+00 -1.0000e+00
  1000022  1    4    4    0    0 +5.7167945537e+00 -2.6643404372e+01 -1.9407075696e+02 1.9603829076e+02 5.0000000000e+00 0.0000e+00 -1.0000e+00
      -11  1    4    4    0    0 +1.4013440212e-01 -1.8018641062e-01 -1.1689669092e+00 1.1910452087e+00 5.1100000000e-04 0.0000e+00 1.0000e+00
       11  1    4    4    0    0 +8.9925583399e-02 -2.0742183129e-01 -8.1472811308e-01 8.4551320865e-01 5.1100000000e-04 0.0000e+00 -1.0000e+00
  1000022  1    3    3    0    0 +4.1911153800e-01 -3.0756420357e+00 -5.1594281852e+01 5.1928846976e+01 5.0000000000e+00 0.0000e+00 -1.0000e+00
<mgrwt>
<rscale>  1 0.34233795E+02</rscale>
<asrwt>0</asrwt>
<pdfrwt beam="1">  1       21 0.96290557E-03 0.34233795E+02</pdfrwt>
<pdfrwt beam="2">  1       -2 0.45448377E-01 0.34233795E+02</pdfrwt>
<totfact> 0.13416728E+06</totfact>
</mgrwt>
<rwgt>
<wgt id='1001'> +1.5607000e-12 </wgt>
<wgt id='1002'> +1.5830795e-12 </wgt>
<wgt id='1003'> +1.5836529e-12 </wgt>
<wgt id='1004'> +1.5568540e-12 </wgt>
<wgt id='1005'> +1.5837002e-12 </wgt>
<wgt id='1006'> +1.3704904e-12 </wgt>
<wgt id='1007'> +1.4092576e-12 </wgt>
<wgt id='1008'> +1.4112415e-12 </wgt>
<wgt id='1009'> +1.3651376e-12 </wgt>
<wgt id='1010'> +1.4190351e-12 </wgt>
<wgt id='1011'> +1.8151828e-12 </wgt>
<wgt id='1012'> +1.8078939e-12 </wgt>
<wgt id='1013'> +1.8060570e-12 </wgt>
<wgt id='1014'> +1.8142769e-12 </wgt>
<wgt id='1015'> +1.7932989e-12 </wgt>
<wgt id='1016'> +1.8039163e-12 </wgt>
<wgt id='1017'> +1.7717791e-12 </wgt>
<wgt id='1018'> +1.7683996e-12 </wgt>
<wgt id='1019'> +1.8060570e-12 </wgt>
<wgt id='1020'> +1.7479051e-12 </wgt>
<wgt id='1021'> +1.5840649e-12 </wgt>
<wgt id='1022'> +1.5772379e-12 </wgt>
<wgt id='1023'> +1.5758749e-12 </wgt>
<wgt id='1024'> +1.5836529e-12 </wgt>
<wgt id='1025'> +1.5661668e-12 </wgt>
<wgt id='1026'> +2.0980572e-12 </wgt>
<wgt id='1027'> +2.0233909e-12 </wgt>
<wgt id='1028'> +2.0167491e-12 </wgt>
<wgt id='1029'> +2.1046852e-12 </wgt>
<wgt id='1030'> +1.9792359e-12 </wgt>
<wgt id='1031'> +1.2744423e-12 </wgt>
<wgt id='1032'> +1.3598236e-12 </wgt>
<wgt id='1033'> +1.3651376e-12 </wgt>
<wgt id='1034'> +1.2638038e-12 </wgt>
<wgt id='1035'> +1.3892492e-12 </wgt>
<wgt id='1036'> +1.1191203e-12 </wgt>
<wgt id='1037'> +1.2105151e-12 </wgt>
<wgt id='1038'> +1.2165158e-12 </wgt>
<wgt id='1039'> +1.1081746e-12 </wgt>
<wgt id='1040'> +1.2448021e-12 </wgt>
<wgt id='1041'> +1.4822489e-12 </wgt>
<wgt id='1042'> +1.5529333e-12 </wgt>
<wgt id='1043'> +1.5568540e-12 </wgt>
<wgt id='1044'> +1.4727714e-12 </wgt>
<wgt id='1045'> +1.5731128e-12 </wgt>
<wgt id='1046'> +1.5607000e-12 </wgt>
<wgt id='1047'> +1.7528487e-12 </wgt>
<wgt id='1048'> +1.5717111e-12 </wgt>
<wgt id='1049'> +1.6182903e-12 </wgt>
<wgt id='1050'> +1.6092924e-12 </wgt>
<wgt id='1051'> +1.4979839e-12 </wgt>
<wgt id='1052'> +1.5357472e-12 </wgt>
<wgt id='1053'> +1.5322897e-12 </wgt>
<wgt id='1054'> +1.5402620e-12 </wgt>
<wgt id='1055'> +1.5504140e-12 </wgt>
<wgt id='1056'> +1.5268541e-12 </wgt>
<wgt id='1057'> +1.5828670e-12 </wgt>
<wgt id='1058'> +1.5162425e-12 </wgt>
<wgt id='1059'> +1.5254972e-12 </wgt>
<wgt id='1060'> +1.5849799e-12 </wgt>
<wgt id='1061'> +1.5413664e-12 </wgt>
<wgt id='1062'> +1.5052267e-12 </wgt>
<wgt id='1063'> +1.6052340e-12 </wgt>
<wgt id='1064'> +1.5630775e-12 </wgt>
<wgt id='1065'> +1.5564188e-12 </wgt>
<wgt id='1066'> +1.4727103e-12 </wgt>
<wgt id='1067'> +1.5763326e-12 </wgt>
<wgt id='1068'> +1.6788193e-12 </wgt>
<wgt id='1069'> +1.5919142e-12 </wgt>
<wgt id='1070'> +1.5619977e-12 </wgt>
<wgt id='1071'> +1.5229876e-12 </wgt>
<wgt id='1072'> +1.5613063e-12 </wgt>
<wgt id='1073'> +1.7202011e-12 </wgt>
<wgt id='1074'> +1.5748161e-12 </wgt>
<wgt id='1075'> +1.5101294e-12 </wgt>
<wgt id='1076'> +1.5576303e-12 </wgt>
<wgt id='1077'> +1.6481203e-12 </wgt>
<wgt id='1078'> +1.5416901e-12 </wgt>
<wgt id='1079'> +1.5623998e-12 </wgt>
<wgt id='1080'> +1.5713174e-12 </wgt>
<wgt id='1081'> +1.5719907e-12 </wgt>
<wgt id='1082'> +1.5976109e-12 </wgt>
<wgt id='1083'> +1.5840464e-12 </wgt>
<wgt id='1084'> +1.5025102e-12 </wgt>
<wgt id='1085'> +1.5629187e-12 </wgt>
<wgt id='1086'> +1.5417729e-12 </wgt>
<wgt id='1087'> +1.5708165e-12 </wgt>
<wgt id='1088'> +1.5664240e-12 </wgt>
<wgt id='1089'> +1.6389193e-12 </wgt>
<wgt id='1090'> +1.5745004e-12 </wgt>
<wgt id='1091'> +1.5108930e-12 </wgt>
<wgt id='1092'> +1.5690710e-12 </wgt>
<wgt id='1093'> +1.5666629e-12 </wgt>
<wgt id='1094'> +1.5483373e-12 </wgt>
<wgt id='1095'> +1.5467790e-12 </wgt>
<wgt id='1096'> +1.5538650e-12 </wgt>
<wgt id='1097'> +1.5390706e-12 </wgt>
<wgt id='1098'> +1.5205329e-12 </wgt>
<wgt id='1099'> +1.5326225e-12 </wgt>
<wgt id='1100'> +1.6097202e-12 </wgt>
<wgt id='1101'> +1.6426165e-12 </wgt>
<wgt id='1102'> +1.5982699e-12 </wgt>
<wgt id='1103'> +1.6514510e-12 </wgt>
<wgt id='1104'> +1.5728592e-12 </wgt>
<wgt id='1105'> +1.5027982e-12 </wgt>
<wgt id='1106'> +1.6115108e-12 </wgt>
<wgt id='1107'> +1.6219372e-12 </wgt>
<wgt id='1108'> +1.5319884e-12 </wgt>
<wgt id='1109'> +1.5730399e-12 </wgt>
<wgt id='1110'> +1.5189475e-12 </wgt>
<wgt id='1111'> +1.5464601e-12 </wgt>
<wgt id='1112'> +1.4696577e-12 </wgt>
<wgt id='1113'> +1.5947395e-12 </wgt>
<wgt id='1114'> +1.5527122e-12 </wgt>
<wgt id='1115'> +1.5586307e-12 </wgt>
<wgt id='1116'> +1.5855475e-12 </wgt>
<wgt id='1117'> +1.5402381e-12 </wgt>
<wgt id='1118'> +1.4540720e-12 </wgt>
<wgt id='1119'> +1.4210747e-12 </wgt>
<wgt id='1120'> +1.4793718e-12 </wgt>
<wgt id='1121'> +1.4875693e-12 </wgt>
<wgt id='1122'> +1.5965312e-12 </wgt>
<wgt id='1123'> +1.5983584e-12 </wgt>
<wgt id='1124'> +1.5400330e-12 </wgt>
<wgt id='1125'> +1.4894232e-12 </wgt>
<wgt id='1126'> +1.5996130e-12 </wgt>
<wgt id='1127'> +1.6477890e-12 </wgt>
<wgt id='1128'> +1.5052267e-12 </wgt>
<wgt id='1129'> +1.5095237e-12 </wgt>
<wgt id='1130'> +1.5508737e-12 </wgt>
<wgt id='1131'> +1.5621956e-12 </wgt>
<wgt id='1132'> +1.6666182e-12 </wgt>
<wgt id='1133'> +1.5511379e-12 </wgt>
<wgt id='1134'> +1.6389012e-12 </wgt>
<wgt id='1135'> +1.4082398e-12 </wgt>
<wgt id='1136'> +1.5269000e-12 </wgt>
<wgt id='1137'> +1.5578493e-12 </wgt>
<wgt id='1138'> +1.4192305e-12 </wgt>
<wgt id='1139'> +1.5165295e-12 </wgt>
<wgt id='1140'> +1.5262164e-12 </wgt>
<wgt id='1141'> +1.6246937e-12 </wgt>
<wgt id='1142'> +1.5593495e-12 </wgt>
<wgt id='1143'> +1.6271132e-12 </wgt>
<wgt id='1144'> +1.5872241e-12 </wgt>
<wgt id='1145'> +1.5695490e-12 </wgt>
<wgt id='1146'> +1.5950621e-12 </wgt>
<wgt id='1147'> +1.2745869e-12 </wgt>
<wgt id='1148'> +1.2978527e-12 </wgt>
<wgt id='1149'> +1.2920085e-12 </wgt>
<wgt id='1150'> +1.3433300e-12 </wgt>
<wgt id='1151'> +1.5572783e-12 </wgt>
<wgt id='1152'> +1.9982546e-12 </wgt>
<wgt id='1153'> +1.9860683e-12 </wgt>
<wgt id='1154'> +2.0055111e-12 </wgt>
<wgt id='1155'> +1.9873640e-12 </wgt>
<wgt id='1156'> +2.0038334e-12 </wgt>
<wgt id='1157'> +2.0057407e-12 </wgt>
<wgt id='1158'> +1.9882164e-12 </wgt>
<wgt id='1159'> +2.0052902e-12 </wgt>
<wgt id='1160'> +1.9938965e-12 </wgt>
<wgt id='1161'> +2.0006093e-12 </wgt>
<wgt id='1162'> +1.9966414e-12 </wgt>
<wgt id='1163'> +2.0006579e-12 </wgt>
<wgt id='1164'> +1.9960270e-12 </wgt>
<wgt id='1165'> +1.9893711e-12 </wgt>
<wgt id='1166'> +2.0070056e-12 </wgt>
<wgt id='1167'> +1.9954880e-12 </wgt>
<wgt id='1168'> +1.9992411e-12 </wgt>
<wgt id='1169'> +2.0024322e-12 </wgt>
<wgt id='1170'> +1.9951601e-12 </wgt>
<wgt id='1171'> +1.9859233e-12 </wgt>
<wgt id='1172'> +2.0141910e-12 </wgt>
<wgt id='1173'> +1.9806881e-12 </wgt>
<wgt id='1174'> +2.0152347e-12 </wgt>
<wgt id='1175'> +2.0139671e-12 </wgt>
<wgt id='1176'> +1.9846111e-12 </wgt>
<wgt id='1177'> +2.0056270e-12 </wgt>
<wgt id='1178'> +1.9754765e-12 </wgt>
<wgt id='1179'> +1.9971197e-12 </wgt>
<wgt id='1180'> +1.9887758e-12 </wgt>
<wgt id='1181'> +1.9903473e-12 </wgt>
<wgt id='1182'> +2.0062477e-12 </wgt>
<wgt id='1183'> +2.0045975e-12 </wgt>
<wgt id='1184'> +1.9972115e-12 </wgt>
<wgt id='1185'> +1.9996287e-12 </wgt>
<wgt id='1186'> +1.9997441e-12 </wgt>
<wgt id='1187'> +1.9990527e-12 </wgt>
<wgt id='1188'> +1.9981144e-12 </wgt>
<wgt id='1189'> +2.0010616e-12 </wgt>
<wgt id='1190'> +1.9755624e-12 </wgt>
<wgt id='1191'> +1.9841863e-12 </wgt>
<wgt id='1192'> +2.0076548e-12 </wgt>
<wgt id='1193'> +1.3812866e-12 </wgt>
<wgt id='1194'> +1.3764520e-12 </wgt>
<wgt id='1195'> +1.3852212e-12 </wgt>
<wgt id='1196'> +1.3935638e-12 </wgt>
<wgt id='1197'> +1.3675797e-12 </wgt>
<wgt id='1198'> +1.3777194e-12 </wgt>
<wgt id='1199'> +1.3866027e-12 </wgt>
<wgt id='1200'> +1.3758693e-12 </wgt>
<wgt id='1201'> +1.3849147e-12 </wgt>
<wgt id='1202'> +1.3811949e-12 </wgt>
<wgt id='1203'> +1.3813765e-12 </wgt>
<wgt id='1204'> +1.3813256e-12 </wgt>
<wgt id='1205'> +1.3811140e-12 </wgt>
<wgt id='1206'> +1.3828875e-12 </wgt>
<wgt id='1207'> +1.3791340e-12 </wgt>
<wgt id='1208'> +1.3717041e-12 </wgt>
<wgt id='1209'> +1.3847720e-12 </wgt>
<wgt id='1210'> +1.3766842e-12 </wgt>
<wgt id='1211'> +1.3789290e-12 </wgt>
<wgt id='1212'> +1.3826837e-12 </wgt>
<wgt id='1213'> +1.3799603e-12 </wgt>
<wgt id='1214'> +1.3640870e-12 </wgt>
<wgt id='1215'> +1.4092384e-12 </wgt>
<wgt id='1216'> +1.3796797e-12 </wgt>
<wgt id='1217'> +1.3826777e-12 </wgt>
<wgt id='1218'> +1.3933388e-12 </wgt>
<wgt id='1219'> +1.3753443e-12 </wgt>
<wgt id='1220'> +1.3927146e-12 </wgt>
<wgt id='1221'> +1.3743135e-12 </wgt>
<wgt id='1222'> +1.3924812e-12 </wgt>
<wgt id='1223'> +1.3582496e-12 </wgt>
<wgt id='1224'> +1.3830059e-12 </wgt>
<wgt id='1225'> +1.3805823e-12 </wgt>
<wgt id='1226'> +1.3762522e-12 </wgt>
<wgt id='1227'> +1.3851830e-12 </wgt>
<wgt id='1228'> +1.3929688e-12 </wgt>
<wgt id='1229'> +1.3731730e-12 </wgt>
<wgt id='1230'> +1.3912296e-12 </wgt>
<wgt id='1231'> +1.3698966e-12 </wgt>
<wgt id='1232'> +1.3877625e-12 </wgt>
<wgt id='1233'> +1.3794658e-12 </wgt>
<wgt id='1234'> +1.3812866e-12 </wgt>
<wgt id='1235'> +1.3746951e-12 </wgt>
<wgt id='1236'> +1.3771826e-12 </wgt>
<wgt id='1237'> +1.3793348e-12 </wgt>
<wgt id='1238'> +1.3832724e-12 </wgt>
<wgt id='1239'> +1.3847476e-12 </wgt>
<wgt id='1240'> +1.3861445e-12 </wgt>
<wgt id='1241'> +1.3253773e-12 </wgt>
<wgt id='1242'> +1.3174171e-12 </wgt>
<wgt id='1243'> +1.3332602e-12 </wgt>
<wgt id='1244'> +1.3170189e-12 </wgt>
<wgt id='1245'> +1.3315769e-12 </wgt>
<wgt id='1246'> +1.3179023e-12 </wgt>
<wgt id='1247'> +1.3317712e-12 </wgt>
<wgt id='1248'> +1.3252830e-12 </wgt>
<wgt id='1249'> +1.3255053e-12 </wgt>
<wgt id='1250'> +1.3326738e-12 </wgt>
<wgt id='1251'> +1.3202370e-12 </wgt>
<wgt id='1252'> +1.3241177e-12 </wgt>
<wgt id='1253'> +1.3264590e-12 </wgt>
<wgt id='1254'> +1.3265997e-12 </wgt>
<wgt id='1255'> +1.3245597e-12 </wgt>
<wgt id='1256'> +1.3288917e-12 </wgt>
<wgt id='1257'> +1.3166504e-12 </wgt>
<wgt id='1258'> +1.3419179e-12 </wgt>
<wgt id='1259'> +1.3102175e-12 </wgt>
<wgt id='1260'> +1.3290857e-12 </wgt>
<wgt id='1261'> +1.3213330e-12 </wgt>
<wgt id='1262'> +1.3188739e-12 </wgt>
<wgt id='1263'> +1.3285289e-12 </wgt>
<wgt id='1264'> +1.3376539e-12 </wgt>
<wgt id='1265'> +1.3194315e-12 </wgt>
<wgt id='1266'> +1.3073673e-12 </wgt>
<wgt id='1267'> +1.3394818e-12 </wgt>
<wgt id='1268'> +1.3292783e-12 </wgt>
<wgt id='1269'> +1.3233637e-12 </wgt>
<wgt id='1270'> +1.3215443e-12 </wgt>
<wgt id='1271'> +1.3238638e-12 </wgt>
<wgt id='1272'> +1.3247101e-12 </wgt>
<wgt id='1273'> +1.3253915e-12 </wgt>
<wgt id='1274'> +1.3281468e-12 </wgt>
<wgt id='1275'> +1.3214547e-12 </wgt>
<wgt id='1276'> +1.3123765e-12 </wgt>
<wgt id='1277'> +1.3361026e-12 </wgt>
<wgt id='1278'> +1.3192030e-12 </wgt>
<wgt id='1279'> +1.3327772e-12 </wgt>
<wgt id='1280'> +1.3225921e-12 </wgt>
<wgt id='1281'> +1.3408090e-12 </wgt>
<wgt id='1282'> +1.3253773e-12 </wgt>
<wgt id='1283'> +1.3191241e-12 </wgt>
<wgt id='1284'> +1.3215529e-12 </wgt>
<wgt id='1285'> +1.3236968e-12 </wgt>
<wgt id='1286'> +1.3272291e-12 </wgt>
<wgt id='1287'> +1.3284624e-12 </wgt>
<wgt id='1288'> +1.3296037e-12 </wgt>
<wgt id='1289'> +1.4162443e-12 </wgt>
<wgt id='1290'> +1.4099485e-12 </wgt>
<wgt id='1291'> +1.4231129e-12 </wgt>
<wgt id='1292'> +1.4148210e-12 </wgt>
<wgt id='1293'> +1.4173561e-12 </wgt>
<wgt id='1294'> +1.4019313e-12 </wgt>
<wgt id='1295'> +1.4303422e-12 </wgt>
<wgt id='1296'> +1.4148654e-12 </wgt>
<wgt id='1297'> +1.4180184e-12 </wgt>
<wgt id='1298'> +1.4117684e-12 </wgt>
<wgt id='1299'> +1.4219803e-12 </wgt>
<wgt id='1300'> +1.4162490e-12 </wgt>
<wgt id='1301'> +1.4164432e-12 </wgt>
<wgt id='1302'> +1.4111087e-12 </wgt>
<wgt id='1303'> +1.4235771e-12 </wgt>
<wgt id='1304'> +1.4159081e-12 </wgt>
<wgt id='1305'> +1.4165314e-12 </wgt>
<wgt id='1306'> +1.4069834e-12 </wgt>
<wgt id='1307'> +1.4269107e-12 </wgt>
<wgt id='1308'> +1.4005556e-12 </wgt>
<wgt id='1309'> +1.4283809e-12 </wgt>
<wgt id='1310'> +1.4235072e-12 </wgt>
<wgt id='1311'> +1.4089077e-12 </wgt>
<wgt id='1312'> +1.4054436e-12 </wgt>
<wgt id='1313'> +1.4274168e-12 </wgt>
<wgt id='1314'> +1.4048798e-12 </wgt>
<wgt id='1315'> +1.4238853e-12 </wgt>
<wgt id='1316'> +1.4210044e-12 </wgt>
<wgt id='1317'> +1.4181406e-12 </wgt>
<wgt id='1318'> +1.4268931e-12 </wgt>
<wgt id='1319'> +1.4037135e-12 </wgt>
<wgt id='1320'> +1.4468832e-12 </wgt>
<wgt id='1321'> +1.3937879e-12 </wgt>
<wgt id='1322'> +1.4102406e-12 </wgt>
<wgt id='1323'> +1.4256505e-12 </wgt>
<wgt id='1324'> +1.4189757e-12 </wgt>
<wgt id='1325'> +1.4147973e-12 </wgt>
<wgt id='1326'> +1.4149316e-12 </wgt>
<wgt id='1327'> +1.4196947e-12 </wgt>
<wgt id='1328'> +1.4136137e-12 </wgt>
<wgt id='1329'> +1.4183692e-12 </wgt>
<wgt id='1330'> +1.4030753e-12 </wgt>
<wgt id='1331'> +1.4435558e-12 </wgt>
<wgt id='1332'> +1.4294768e-12 </wgt>
<wgt id='1333'> +1.4097044e-12 </wgt>
<wgt id='1334'> +1.4093407e-12 </wgt>
<wgt id='1335'> +1.4370815e-12 </wgt>
<wgt id='1336'> +1.4191421e-12 </wgt>
<wgt id='1337'> +1.4118214e-12 </wgt>
<wgt id='1338'> +1.4144314e-12 </wgt>
<wgt id='1339'> +1.4150852e-12 </wgt>
<wgt id='1340'> +1.3977926e-12 </wgt>
<wgt id='1341'> +1.3913491e-12 </wgt>
<wgt id='1342'> +1.4048070e-12 </wgt>
<wgt id='1343'> +1.3962231e-12 </wgt>
<wgt id='1344'> +1.3988068e-12 </wgt>
<wgt id='1345'> +1.3832875e-12 </wgt>
<wgt id='1346'> +1.4114498e-12 </wgt>
<wgt id='1347'> +1.3970759e-12 </wgt>
<wgt id='1348'> +1.3985354e-12 </wgt>
<wgt id='1349'> +1.3933456e-12 </wgt>
<wgt id='1350'> +1.4020621e-12 </wgt>
<wgt id='1351'> +1.3971041e-12 </wgt>
<wgt id='1352'> +1.3993918e-12 </wgt>
<wgt id='1353'> +1.3918214e-12 </wgt>
<wgt id='1354'> +1.4085283e-12 </wgt>
<wgt id='1355'> +1.3986251e-12 </wgt>
<wgt id='1356'> +1.3973591e-12 </wgt>
<wgt id='1357'> +1.3839329e-12 </wgt>
<wgt id='1358'> +1.4141612e-12 </wgt>
<wgt id='1359'> +1.3855509e-12 </wgt>
<wgt id='1360'> +1.4084064e-12 </wgt>
<wgt id='1361'> +1.4037346e-12 </wgt>
<wgt id='1362'> +1.3902311e-12 </wgt>
<wgt id='1363'> +1.3847692e-12 </wgt>
<wgt id='1364'> +1.4070651e-12 </wgt>
<wgt id='1365'> +1.4013353e-12 </wgt>
<wgt id='1366'> +1.3867076e-12 </wgt>
<wgt id='1367'> +1.4032759e-12 </wgt>
<wgt id='1368'> +1.3981247e-12 </wgt>
<wgt id='1369'> +1.4059007e-12 </wgt>
<wgt id='1370'> +1.3882404e-12 </wgt>
<wgt id='1371'> +1.4192890e-12 </wgt>
<wgt id='1372'> +1.3746684e-12 </wgt>
<wgt id='1373'> +1.3847935e-12 </wgt>
<wgt id='1374'> +1.4120379e-12 </wgt>
<wgt id='1375'> +1.3998289e-12 </wgt>
<wgt id='1376'> +1.3970782e-12 </wgt>
<wgt id='1377'> +1.3971086e-12 </wgt>
<wgt id='1378'> +1.4009017e-12 </wgt>
<wgt id='1379'> +1.3950075e-12 </wgt>
<wgt id='1380'> +1.4003022e-12 </wgt>
<wgt id='1381'> +1.3852553e-12 </wgt>
<wgt id='1382'> +1.4223622e-12 </wgt>
<wgt id='1383'> +1.4146717e-12 </wgt>
<wgt id='1384'> +1.3913831e-12 </wgt>
<wgt id='1385'> +1.3908778e-12 </wgt>
<wgt id='1386'> +1.4173664e-12 </wgt>
<wgt id='1387'> +1.3992122e-12 </wgt>
<wgt id='1388'> +1.3939147e-12 </wgt>
<wgt id='1389'> +1.3948414e-12 </wgt>
<wgt id='1390'> +1.3966234e-12 </wgt>
<wgt id='1391'> +1.3659143e-12 </wgt>
<wgt id='1392'> +1.3389204e-12 </wgt>
<wgt id='1393'> +1.3492750e-12 </wgt>
<wgt id='1394'> +1.3584057e-12 </wgt>
<wgt id='1395'> +1.3768099e-12 </wgt>
<wgt id='1396'> +1.3676796e-12 </wgt>
<wgt id='1397'> +1.3215241e-12 </wgt>
<wgt id='1398'> +1.3311522e-12 </wgt>
<wgt id='1399'> +1.3402360e-12 </wgt>
<wgt id='1400'> +1.3491513e-12 </wgt>
<wgt id='1401'> +1.3584605e-12 </wgt>
<wgt id='1402'> +1.3770465e-12 </wgt>
<wgt id='1403'> +1.3861710e-12 </wgt>
<wgt id='1404'> +1.3952089e-12 </wgt>
<wgt id='1405'> +1.3676796e-12 </wgt>
<wgt id='1406'> +1.3649021e-12 </wgt>
<wgt id='1407'> +1.3664969e-12 </wgt>
<wgt id='1408'> +1.3686892e-12 </wgt>
<wgt id='1409'> +1.3705929e-12 </wgt>
<wgt id='1410'> +1.3077743e-12 </wgt>
<wgt id='1411'> +1.3032093e-12 </wgt>
<wgt id='1412'> +1.3135674e-12 </wgt>
<wgt id='1413'> +1.3009122e-12 </wgt>
<wgt id='1414'> +1.3146555e-12 </wgt>
<wgt id='1415'> +1.3041134e-12 </wgt>
<wgt id='1416'> +1.3092641e-12 </wgt>
<wgt id='1417'> +1.2978009e-12 </wgt>
<wgt id='1418'> +1.3178699e-12 </wgt>
<wgt id='1419'> +1.3047248e-12 </wgt>
<wgt id='1420'> +1.3107202e-12 </wgt>
<wgt id='1421'> +1.3097715e-12 </wgt>
<wgt id='1422'> +1.3068736e-12 </wgt>
<wgt id='1423'> +1.3061943e-12 </wgt>
<wgt id='1424'> +1.3096429e-12 </wgt>
<wgt id='1425'> +1.2993020e-12 </wgt>
<wgt id='1426'> +1.3169520e-12 </wgt>
<wgt id='1427'> +1.2772495e-12 </wgt>
<wgt id='1428'> +1.3246812e-12 </wgt>
<wgt id='1429'> +1.3107060e-12 </wgt>
<wgt id='1430'> +1.3038574e-12 </wgt>
<wgt id='1431'> +1.2971299e-12 </wgt>
<wgt id='1432'> +1.3151803e-12 </wgt>
<wgt id='1433'> +1.2907354e-12 </wgt>
<wgt id='1434'> +1.3224427e-12 </wgt>
<wgt id='1435'> +1.3107288e-12 </wgt>
<wgt id='1436'> +1.3007461e-12 </wgt>
<wgt id='1437'> +1.3125815e-12 </wgt>
<wgt id='1438'> +1.3090267e-12 </wgt>
<wgt id='1439'> +1.3001870e-12 </wgt>
<wgt id='1440'> +1.3253379e-12 </wgt>
<wgt id='1441'> +1.3204074e-12 </wgt>
<wgt id='1442'> +1.2834936e-12 </wgt>
<wgt id='1443'> +1.3117564e-12 </wgt>
<wgt id='1444'> +1.3033379e-12 </wgt>
<wgt id='1445'> +1.3132880e-12 </wgt>
<wgt id='1446'> +1.3069171e-12 </wgt>
<wgt id='1447'> +1.3075679e-12 </wgt>
<wgt id='1448'> +1.3109956e-12 </wgt>
<wgt id='1449'> +1.3056466e-12 </wgt>
<wgt id='1450'> +1.3086658e-12 </wgt>
<wgt id='1451'> +1.3240434e-12 </wgt>
<wgt id='1452'> +1.2843354e-12 </wgt>
<wgt id='1453'> +1.3090512e-12 </wgt>
<wgt id='1454'> +1.2942861e-12 </wgt>
<wgt id='1455'> +1.3071431e-12 </wgt>
<wgt id='1456'> +1.3133819e-12 </wgt>
<wgt id='1457'> +1.3229865e-12 </wgt>
<wgt id='1458'> +1.3012873e-12 </wgt>
<wgt id='1459'> +1.3096850e-12 </wgt>
<wgt id='1460'> +1.3076369e-12 </wgt>
<wgt id='1461'> +1.3077743e-12 </wgt>
<wgt id='1462'> +1.3032801e-12 </wgt>
<wgt id='1463'> +1.3152134e-12 </wgt>
<wgt id='1464'> +1.3093740e-12 </wgt>
<wgt id='1465'> +1.2645523e-12 </wgt>
<wgt id='1466'> +1.2747043e-12 </wgt>
<wgt id='1467'> +1.2843344e-12 </wgt>
<wgt id='1468'> +1.2919122e-12 </wgt>
<wgt id='1469'> +1.3011262e-12 </wgt>
<wgt id='1470'> +1.3176250e-12 </wgt>
<wgt id='1471'> +1.3234367e-12 </wgt>
<wgt id='1472'> +1.3313813e-12 </wgt>
<wgt id='1473'> +1.3093740e-12 </wgt>
<wgt id='1474'> +1.3068305e-12 </wgt>
<wgt id='1475'> +1.3076069e-12 </wgt>
<wgt id='1476'> +1.3104483e-12 </wgt>
<wgt id='1477'> +1.3114513e-12 </wgt>
<wgt id='1478'> +1.3337474e-12 </wgt>
<wgt id='1479'> +1.3322345e-12 </wgt>
<wgt id='1480'> +1.3393718e-12 </wgt>
<wgt id='1481'> +1.3396441e-12 </wgt>
<wgt id='1482'> +1.3356982e-12 </wgt>
<wgt id='1483'> +1.3142664e-12 </wgt>
<wgt id='1484'> +1.3368589e-12 </wgt>
<wgt id='1485'> +1.3402750e-12 </wgt>
<wgt id='1486'> +1.3339739e-12 </wgt>
<wgt id='1487'> +1.3148641e-12 </wgt>
<wgt id='1488'> +1.3318103e-12 </wgt>
<wgt id='1489'> +1.3374753e-12 </wgt>
<wgt id='1490'> +1.3290864e-12 </wgt>
<wgt id='1491'> +1.3405884e-12 </wgt>
<wgt id='1492'> +1.3330179e-12 </wgt>
<wgt id='1493'> +1.3107174e-12 </wgt>
<wgt id='1494'> +1.3315595e-12 </wgt>
<wgt id='1495'> +1.3355909e-12 </wgt>
<wgt id='1496'> +1.3367801e-12 </wgt>
<wgt id='1497'> +1.3051824e-12 </wgt>
<wgt id='1498'> +1.3322279e-12 </wgt>
<wgt id='1499'> +1.3356098e-12 </wgt>
<wgt id='1500'> +1.3331448e-12 </wgt>
<wgt id='1501'> +1.3347393e-12 </wgt>
<wgt id='1502'> +1.3382644e-12 </wgt>
<wgt id='1503'> +1.3372983e-12 </wgt>
<wgt id='1504'> +1.3317501e-12 </wgt>
<wgt id='1505'> +1.3332453e-12 </wgt>
<wgt id='1506'> +1.3348549e-12 </wgt>
<wgt id='1507'> +1.3316987e-12 </wgt>
<wgt id='1508'> +1.3425510e-12 </wgt>
<wgt id='1509'> +1.3406440e-12 </wgt>
<wgt id='1510'> +1.3388362e-12 </wgt>
<wgt id='1511'> +1.3393971e-12 </wgt>
<wgt id='1512'> +1.3346968e-12 </wgt>
<wgt id='1513'> +1.3451303e-12 </wgt>
<wgt id='1514'> +1.3458128e-12 </wgt>
<wgt id='1515'> +1.3414447e-12 </wgt>
<wgt id='1516'> +1.3497051e-12 </wgt>
<wgt id='1517'> +1.3509099e-12 </wgt>
<wgt id='1518'> +1.3455302e-12 </wgt>
<wgt id='1519'> +1.3323472e-12 </wgt>
<wgt id='1520'> +1.3393436e-12 </wgt>
<wgt id='1521'> +1.3475868e-12 </wgt>
<wgt id='1522'> +1.3366806e-12 </wgt>
<wgt id='1523'> +1.3456188e-12 </wgt>
<wgt id='1524'> +1.3423067e-12 </wgt>
<wgt id='1525'> +1.3470466e-12 </wgt>
<wgt id='1526'> +1.3358754e-12 </wgt>
<wgt id='1527'> +1.3364550e-12 </wgt>
<wgt id='1528'> +1.3425697e-12 </wgt>
<wgt id='1529'> +1.3394023e-12 </wgt>
<wgt id='1530'> +1.3461214e-12 </wgt>
<wgt id='1531'> +1.3411845e-12 </wgt>
<wgt id='1532'> +1.3382732e-12 </wgt>
<wgt id='1533'> +1.3408524e-12 </wgt>
<wgt id='1534'> +1.3409147e-12 </wgt>
<wgt id='1535'> +1.3317005e-12 </wgt>
<wgt id='1536'> +1.3382765e-12 </wgt>
<wgt id='1537'> +1.3450532e-12 </wgt>
<wgt id='1538'> +1.3394413e-12 </wgt>
<wgt id='1539'> +1.3278773e-12 </wgt>
<wgt id='1540'> +1.3487878e-12 </wgt>
<wgt id='1541'> +1.3501019e-12 </wgt>
<wgt id='1542'> +1.3424965e-12 </wgt>
<wgt id='1543'> +1.3326300e-12 </wgt>
<wgt id='1544'> +1.3599322e-12 </wgt>
<wgt id='1545'> +1.3479640e-12 </wgt>
<wgt id='1546'> +1.3342137e-12 </wgt>
<wgt id='1547'> +1.3480756e-12 </wgt>
<wgt id='1548'> +1.3364292e-12 </wgt>
<wgt id='1549'> +1.3421334e-12 </wgt>
<wgt id='1550'> +1.3413090e-12 </wgt>
<wgt id='1551'> +1.3440066e-12 </wgt>
<wgt id='1552'> +1.3378322e-12 </wgt>
<wgt id='1553'> +1.3445956e-12 </wgt>
<wgt id='1554'> +1.3367970e-12 </wgt>
<wgt id='1555'> +1.3401519e-12 </wgt>
<wgt id='1556'> +1.3361088e-12 </wgt>
<wgt id='1557'> +1.3447087e-12 </wgt>
<wgt id='1558'> +1.3430470e-12 </wgt>
<wgt id='1559'> +1.3417388e-12 </wgt>
<wgt id='1560'> +1.3441606e-12 </wgt>
<wgt id='1561'> +1.3374063e-12 </wgt>
<wgt id='1562'> +1.3404387e-12 </wgt>
<wgt id='1563'> +1.3434450e-12 </wgt>
<wgt id='1564'> +1.3403853e-12 </wgt>
<wgt id='1565'> +1.3409704e-12 </wgt>
<wgt id='1566'> +1.3414027e-12 </wgt>
<wgt id='1567'> +1.3474390e-12 </wgt>
<wgt id='1568'> +1.3405366e-12 </wgt>
<wgt id='1569'> +1.3380451e-12 </wgt>
<wgt id='1570'> +1.3417584e-12 </wgt>
<wgt id='1571'> +1.3391442e-12 </wgt>
<wgt id='1572'> +1.3373442e-12 </wgt>
<wgt id='1573'> +1.3326081e-12 </wgt>
<wgt id='1574'> +1.3436928e-12 </wgt>
<wgt id='1575'> +1.3428118e-12 </wgt>
<wgt id='1576'> +1.3413157e-12 </wgt>
<wgt id='1577'> +1.3423062e-12 </wgt>
<wgt id='1578'> +1.3428188e-12 </wgt>
<wgt id='1579'> +1.3389715e-12 </wgt>
<wgt id='1580'> +1.3380155e-12 </wgt>
<wgt id='1581'> +1.3387443e-12 </wgt>
<wgt id='1582'> +1.3423042e-12 </wgt>
<wgt id='1583'> +1.3421204e-12 </wgt>
<wgt id='1584'> +1.3428523e-12 </wgt>
<wgt id='1585'> +1.3395844e-12 </wgt>
<wgt id='1586'> +1.3396904e-12 </wgt>
<wgt id='1587'> +1.3421881e-12 </wgt>
<wgt id='1588'> +1.3377365e-12 </wgt>
<wgt id='1589'> +1.3429447e-12 </wgt>
<wgt id='1590'> +1.3428850e-12 </wgt>
<wgt id='1591'> +1.3419976e-12 </wgt>
<wgt id='1592'> +1.3408932e-12 </wgt>
<wgt id='1593'> +1.3408396e-12 </wgt>
<wgt id='1594'> +1.3403563e-12 </wgt>
<wgt id='1595'> +1.3427899e-12 </wgt>
<wgt id='1596'> +1.3380888e-12 </wgt>
<wgt id='1597'> +1.3405087e-12 </wgt>
<wgt id='1598'> +1.3406739e-12 </wgt>
<wgt id='1599'> +1.3364462e-12 </wgt>
<wgt id='1600'> +1.3370651e-12 </wgt>
<wgt id='1601'> +1.3400468e-12 </wgt>
<wgt id='1602'> +1.3403875e-12 </wgt>
<wgt id='1603'> +1.3416335e-12 </wgt>
<wgt id='1604'> +1.3395358e-12 </wgt>
<wgt id='1605'> +1.3414915e-12 </wgt>
<wgt id='1606'> +1.3418556e-12 </wgt>
<wgt id='1607'> +1.3389373e-12 </wgt>
<wgt id='1608'> +1.3426267e-12 </wgt>
<wgt id='1609'> +1.3430851e-12 </wgt>
<wgt id='1610'> +1.3445490e-12 </wgt>
<wgt id='1611'> +1.3395617e-12 </wgt>
<wgt id='1612'> +1.5928170e-12 </wgt>
<wgt id='1613'> +1.6565775e-12 </wgt>
<wgt id='1614'> +1.6265032e-12 </wgt>
<wgt id='1615'> +1.5850217e-12 </wgt>
<wgt id='1616'> +1.5791100e-12 </wgt>
<wgt id='1617'> +1.6176057e-12 </wgt>
<wgt id='1618'> +1.6905640e-12 </wgt>
<wgt id='1619'> +1.5702435e-12 </wgt>
<wgt id='1620'> +1.5163328e-12 </wgt>
<wgt id='1621'> +1.6350681e-12 </wgt>
<wgt id='1622'> +1.5567041e-12 </wgt>
<wgt id='1623'> +1.6437959e-12 </wgt>
<wgt id='1624'> +1.5856522e-12 </wgt>
<wgt id='1625'> +1.6319175e-12 </wgt>
<wgt id='1626'> +1.5517332e-12 </wgt>
<wgt id='1627'> +1.6165389e-12 </wgt>
<wgt id='1628'> +1.6985449e-12 </wgt>
<wgt id='1629'> +1.6160201e-12 </wgt>
<wgt id='1630'> +1.5398523e-12 </wgt>
<wgt id='1631'> +1.5945339e-12 </wgt>
<wgt id='1632'> +1.5162651e-12 </wgt>
<wgt id='1633'> +1.5170249e-12 </wgt>
<wgt id='1634'> +1.6406192e-12 </wgt>
<wgt id='1635'> +1.5599010e-12 </wgt>
<wgt id='1636'> +1.6204949e-12 </wgt>
<wgt id='1637'> +1.5614253e-12 </wgt>
<wgt id='1638'> +1.6121437e-12 </wgt>
<wgt id='1639'> +1.5203277e-12 </wgt>
<wgt id='1640'> +1.5447844e-12 </wgt>
<wgt id='1641'> +1.5868105e-12 </wgt>
<wgt id='1642'> +1.5290444e-12 </wgt>
<wgt id='1643'> +1.6744060e-12 </wgt>
<wgt id='1644'> +1.5302343e-12 </wgt>
<wgt id='1645'> +1.6058612e-12 </wgt>
<wgt id='1646'> +1.5647344e-12 </wgt>
<wgt id='1647'> +1.6101815e-12 </wgt>
<wgt id='1648'> +1.5970249e-12 </wgt>
<wgt id='1649'> +1.6851874e-12 </wgt>
<wgt id='1650'> +1.5836670e-12 </wgt>
<wgt id='1651'> +1.5198274e-12 </wgt>
<wgt id='1652'> +1.5851978e-12 </wgt>
<wgt id='1653'> +1.6288861e-12 </wgt>
<wgt id='1654'> +1.6703111e-12 </wgt>
<wgt id='1655'> +1.6205320e-12 </wgt>
<wgt id='1656'> +1.6169808e-12 </wgt>
<wgt id='1657'> +1.6012605e-12 </wgt>
<wgt id='1658'> +1.5204040e-12 </wgt>
<wgt id='1659'> +1.5856522e-12 </wgt>
<wgt id='1660'> +1.6488932e-12 </wgt>
<wgt id='1661'> +1.6421473e-12 </wgt>
<wgt id='1662'> +1.5651458e-12 </wgt>
<wgt id='1663'> +1.5463610e-12 </wgt>
<wgt id='1664'> +1.6223471e-12 </wgt>
<wgt id='1665'> +1.5522026e-12 </wgt>
<wgt id='1666'> +1.5978284e-12 </wgt>
<wgt id='1667'> +1.6050207e-12 </wgt>
<wgt id='1668'> +1.5975898e-12 </wgt>
<wgt id='1669'> +1.6221153e-12 </wgt>
<wgt id='1670'> +1.5885417e-12 </wgt>
<wgt id='1671'> +1.5932970e-12 </wgt>
<wgt id='1672'> +1.6170360e-12 </wgt>
<wgt id='1673'> +1.5396173e-12 </wgt>
<wgt id='1674'> +1.5928609e-12 </wgt>
<wgt id='1675'> +1.6616043e-12 </wgt>
<wgt id='1676'> +1.6512979e-12 </wgt>
<wgt id='1677'> +1.5482463e-12 </wgt>
<wgt id='1678'> +1.5317517e-12 </wgt>
<wgt id='1679'> +1.5501931e-12 </wgt>
<wgt id='1680'> +1.7016230e-12 </wgt>
<wgt id='1681'> +1.6044675e-12 </wgt>
<wgt id='1682'> +1.5957794e-12 </wgt>
<wgt id='1683'> +1.5532947e-12 </wgt>
<wgt id='1684'> +1.5734271e-12 </wgt>
<wgt id='1685'> +1.6130205e-12 </wgt>
<wgt id='1686'> +1.6322201e-12 </wgt>
<wgt id='1687'> +1.5930293e-12 </wgt>
<wgt id='1688'> +1.5648162e-12 </wgt>
<wgt id='1689'> +1.5046837e-12 </wgt>
<wgt id='1690'> +1.5733152e-12 </wgt>
<wgt id='1691'> +1.6230674e-12 </wgt>
<wgt id='1692'> +1.5888130e-12 </wgt>
<wgt id='1693'> +1.5302756e-12 </wgt>
<wgt id='1694'> +1.6377927e-12 </wgt>
<wgt id='1695'> +1.5634267e-12 </wgt>
<wgt id='1696'> +1.5555695e-12 </wgt>
<wgt id='1697'> +1.5778083e-12 </wgt>
<wgt id='1698'> +1.5816704e-12 </wgt>
<wgt id='1699'> +1.5889425e-12 </wgt>
<wgt id='1700'> +1.6163996e-12 </wgt>
<wgt id='1701'> +1.5535652e-12 </wgt>
<wgt id='1702'> +1.6408225e-12 </wgt>
<wgt id='1703'> +1.5821817e-12 </wgt>
<wgt id='1704'> +1.6394435e-12 </wgt>
<wgt id='1705'> +1.4860577e-12 </wgt>
<wgt id='1706'> +1.6205019e-12 </wgt>
<wgt id='1707'> +1.5791354e-12 </wgt>
<wgt id='1708'> +1.5892730e-12 </wgt>
<wgt id='1709'> +1.6211504e-12 </wgt>
<wgt id='1710'> +1.5558021e-12 </wgt>
<wgt id='1711'> +1.6099430e-12 </wgt>
<wgt id='1712'> +1.6339421e-12 </wgt>
<wgt id='1713'> +1.3150651e-12 </wgt>
<wgt id='1714'> +1.2074615e-12 </wgt>
<wgt id='1715'> +1.2642915e-12 </wgt>
<wgt id='1716'> +1.3036994e-12 </wgt>
<wgt id='1717'> +1.3140433e-12 </wgt>
<wgt id='1718'> +1.3546159e-12 </wgt>
<wgt id='1719'> +1.2797867e-12 </wgt>
<wgt id='1720'> +1.3701329e-12 </wgt>
<wgt id='1721'> +1.3148951e-12 </wgt>
<wgt id='1722'> +1.3228406e-12 </wgt>
<wgt id='1723'> +1.3728278e-12 </wgt>
<wgt id='1724'> +1.2947115e-12 </wgt>
<wgt id='1725'> +1.3095458e-12 </wgt>
<wgt id='1726'> +1.3689331e-12 </wgt>
<wgt id='1727'> +1.3291722e-12 </wgt>
<wgt id='1728'> +1.3008949e-12 </wgt>
<wgt id='1729'> +1.3161407e-12 </wgt>
<wgt id='1730'> +1.3016394e-12 </wgt>
<wgt id='1731'> +1.2628709e-12 </wgt>
<wgt id='1732'> +1.3250467e-12 </wgt>
<wgt id='1733'> +1.3704986e-12 </wgt>
<wgt id='1734'> +1.3424968e-12 </wgt>
<wgt id='1735'> +1.3533311e-12 </wgt>
<wgt id='1736'> +1.3725695e-12 </wgt>
<wgt id='1737'> +1.4008102e-12 </wgt>
<wgt id='1738'> +1.3279300e-12 </wgt>
<wgt id='1739'> +1.3434338e-12 </wgt>
<wgt id='1740'> +1.2944072e-12 </wgt>
<wgt id='1741'> +1.3242393e-12 </wgt>
<wgt id='1742'> +1.3095884e-12 </wgt>
<wgt id='1743'> +1.3625633e-12 </wgt>
<wgt id='1744'> +1.3864629e-12 </wgt>
<wgt id='1745'> +1.3277217e-12 </wgt>
<wgt id='1746'> +1.3412245e-12 </wgt>
<wgt id='1747'> +1.3271723e-12 </wgt>
<wgt id='1748'> +1.3406508e-12 </wgt>
<wgt id='1749'> +1.3086817e-12 </wgt>
<wgt id='1750'> +1.3440010e-12 </wgt>
<wgt id='1751'> +1.3236923e-12 </wgt>
<wgt id='1752'> +1.2873622e-12 </wgt>
<wgt id='1753'> +1.3341214e-12 </wgt>
<wgt id='1754'> +1.2307084e-12 </wgt>
<wgt id='1755'> +1.3040069e-12 </wgt>
<wgt id='1756'> +1.3639410e-12 </wgt>
<wgt id='1757'> +1.3128345e-12 </wgt>
<wgt id='1758'> +1.3547566e-12 </wgt>
<wgt id='1759'> +1.2511294e-12 </wgt>
<wgt id='1760'> +1.2832627e-12 </wgt>
<wgt id='1761'> +1.3071193e-12 </wgt>
<wgt id='1762'> +1.3442472e-12 </wgt>
<wgt id='1763'> +1.3023124e-12 </wgt>
<wgt id='1764'> +1.3007079e-12 </wgt>
<wgt id='1765'> +1.3213814e-12 </wgt>
<wgt id='1766'> +1.3893826e-12 </wgt>
<wgt id='1767'> +1.3262431e-12 </wgt>
<wgt id='1768'> +1.3326118e-12 </wgt>
<wgt id='1769'> +1.2715504e-12 </wgt>
<wgt id='1770'> +1.2282730e-12 </wgt>
<wgt id='1771'> +1.2991584e-12 </wgt>
<wgt id='1772'> +1.3487825e-12 </wgt>
<wgt id='1773'> +1.3404659e-12 </wgt>
<wgt id='1774'> +1.2984788e-12 </wgt>
<wgt id='1775'> +1.3043281e-12 </wgt>
<wgt id='1776'> +1.2980314e-12 </wgt>
<wgt id='1777'> +1.2383661e-12 </wgt>
<wgt id='1778'> +1.2943742e-12 </wgt>
<wgt id='1779'> +1.3709093e-12 </wgt>
<wgt id='1780'> +1.3231670e-12 </wgt>
<wgt id='1781'> +1.3296717e-12 </wgt>
<wgt id='1782'> +1.3478189e-12 </wgt>
<wgt id='1783'> +1.3605535e-12 </wgt>
<wgt id='1784'> +1.3081979e-12 </wgt>
<wgt id='1785'> +1.3238807e-12 </wgt>
<wgt id='1786'> +1.2311809e-12 </wgt>
<wgt id='1787'> +1.3377244e-12 </wgt>
<wgt id='1788'> +1.2624596e-12 </wgt>
<wgt id='1789'> +1.3548923e-12 </wgt>
<wgt id='1790'> +1.3440333e-12 </wgt>
<wgt id='1791'> +1.3034073e-12 </wgt>
<wgt id='1792'> +1.2877333e-12 </wgt>
<wgt id='1793'> +1.3638336e-12 </wgt>
<wgt id='1794'> +1.3143159e-12 </wgt>
<wgt id='1795'> +1.3381544e-12 </wgt>
<wgt id='1796'> +1.2659507e-12 </wgt>
<wgt id='1797'> +1.3029853e-12 </wgt>
<wgt id='1798'> +1.2950847e-12 </wgt>
<wgt id='1799'> +1.2686004e-12 </wgt>
<wgt id='1800'> +1.2804833e-12 </wgt>
<wgt id='1801'> +1.2666231e-12 </wgt>
<wgt id='1802'> +1.2636112e-12 </wgt>
<wgt id='1803'> +1.3434244e-12 </wgt>
<wgt id='1804'> +1.3116863e-12 </wgt>
<wgt id='1805'> +1.3701480e-12 </wgt>
<wgt id='1806'> +1.2935378e-12 </wgt>
<wgt id='1807'> +1.2729221e-12 </wgt>
<wgt id='1808'> +1.2968835e-12 </wgt>
<wgt id='1809'> +1.3073746e-12 </wgt>
<wgt id='1810'> +1.3106456e-12 </wgt>
<wgt id='1811'> +1.3248213e-12 </wgt>
<wgt id='1812'> +1.2794691e-12 </wgt>
<wgt id='1813'> +1.2740618e-12 </wgt>
<wgt id='1814'> +1.6572296e-12 </wgt>
<wgt id='1815'> +1.9155787e-12 </wgt>
<wgt id='1816'> +1.3150651e-12 </wgt>
<wgt id='1817'> +1.2074615e-12 </wgt>
<wgt id='1818'> +1.2642915e-12 </wgt>
<wgt id='1819'> +1.3036994e-12 </wgt>
<wgt id='1820'> +1.3140433e-12 </wgt>
<wgt id='1821'> +1.3546159e-12 </wgt>
<wgt id='1822'> +1.2797867e-12 </wgt>
<wgt id='1823'> +1.3701329e-12 </wgt>
<wgt id='1824'> +1.3148951e-12 </wgt>
<wgt id='1825'> +1.3228406e-12 </wgt>
<wgt id='1826'> +1.3728278e-12 </wgt>
<wgt id='1827'> +1.2947115e-12 </wgt>
<wgt id='1828'> +1.3095458e-12 </wgt>
<wgt id='1829'> +1.3689331e-12 </wgt>
<wgt id='1830'> +1.3291722e-12 </wgt>
<wgt id='1831'> +1.3008949e-12 </wgt>
<wgt id='1832'> +1.3161407e-12 </wgt>
<wgt id='1833'> +1.3016394e-12 </wgt>
<wgt id='1834'> +1.2628709e-12 </wgt>
<wgt id='1835'> +1.3250467e-12 </wgt>
<wgt id='1836'> +1.3704986e-12 </wgt>
<wgt id='1837'> +1.3424968e-12 </wgt>
<wgt id='1838'> +1.3533311e-12 </wgt>
<wgt id='1839'> +1.3725695e-12 </wgt>
<wgt id='1840'> +1.4008102e-12 </wgt>
<wgt id='1841'> +1.3279300e-12 </wgt>
<wgt id='1842'> +1.3434338e-12 </wgt>
<wgt id='1843'> +1.2944072e-12 </wgt>
<wgt id='1844'> +1.3242393e-12 </wgt>
<wgt id='1845'> +1.3095884e-12 </wgt>
<wgt id='1846'> +1.3625633e-12 </wgt>
<wgt id='1847'> +1.3864629e-12 </wgt>
<wgt id='1848'> +1.3277217e-12 </wgt>
<wgt id='1849'> +1.3412245e-12 </wgt>
<wgt id='1850'> +1.3271723e-12 </wgt>
<wgt id='1851'> +1.3406508e-12 </wgt>
<wgt id='1852'> +1.3086817e-12 </wgt>
<wgt id='1853'> +1.3440010e-12 </wgt>
<wgt id='1854'> +1.3236923e-12 </wgt>
<wgt id='1855'> +1.2873622e-12 </wgt>
<wgt id='1856'> +1.3341214e-12 </wgt>
<wgt id='1857'> +1.2307084e-12 </wgt>
<wgt id='1858'> +1.3040069e-12 </wgt>
<wgt id='1859'> +1.3639410e-12 </wgt>
<wgt id='1860'> +1.3128345e-12 </wgt>
<wgt id='1861'> +1.3547566e-12 </wgt>
<wgt id='1862'> +1.2511294e-12 </wgt>
<wgt id='1863'> +1.2832627e-12 </wgt>
<wgt id='1864'> +1.3071193e-12 </wgt>
<wgt id='1865'> +1.3442472e-12 </wgt>
<wgt id='1866'> +1.3023124e-12 </wgt>
<wgt id='1867'> +1.3007079e-12 </wgt>
<wgt id='1868'> +1.3213814e-12 </wgt>
<wgt id='1869'> +1.3893826e-12 </wgt>
<wgt id='1870'> +1.3262431e-12 </wgt>
<wgt id='1871'> +1.3326118e-12 </wgt>
<wgt id='1872'> +1.2715504e-12 </wgt>
<wgt id='1873'> +1.2282730e-12 </wgt>
<wgt id='1874'> +1.2991584e-12 </wgt>
<wgt id='1875'> +1.3487825e-12 </wgt>
<wgt id='1876'> +1.3404659e-12 </wgt>
<wgt id='1877'> +1.2984788e-12 </wgt>
<wgt id='1878'> +1.3043281e-12 </wgt>
<wgt id='1879'> +1.2980314e-12 </wgt>
<wgt id='1880'> +1.2383661e-12 </wgt>
<wgt id='1881'> +1.2943742e-12 </wgt>
<wgt id='1882'> +1.3709093e-12 </wgt>
<wgt id='1883'> +1.3231670e-12 </wgt>
<wgt id='1884'> +1.3296717e-12 </wgt>
<wgt id='1885'> +1.3478189e-12 </wgt>
<wgt id='1886'> +1.3605535e-12 </wgt>
<wgt id='1887'> +1.3081979e-12 </wgt>
<wgt id='1888'> +1.3238807e-12 </wgt>
<wgt id='1889'> +1.2311809e-12 </wgt>
<wgt id='1890'> +1.3377244e-12 </wgt>
<wgt id='1891'> +1.2624596e-12 </wgt>
<wgt id='1892'> +1.3548923e-12 </wgt>
<wgt id='1893'> +1.3440333e-12 </wgt>
<wgt id='1894'> +1.3034073e-12 </wgt>
<wgt id='1895'> +1.2877333e-12 </wgt>
<wgt id='1896'> +1.3638336e-12 </wgt>
<wgt id='1897'> +1.3143159e-12 </wgt>
<wgt id='1898'> +1.3381544e-12 </wgt>
<wgt id='1899'> +1.2659507e-12 </wgt>
<wgt id='1900'> +1.3029853e-12 </wgt>
<wgt id='1901'> +1.2950847e-12 </wgt>
<wgt id='1902'> +1.2686004e-12 </wgt>
<wgt id='1903'> +1.2804833e-12 </wgt>
<wgt id='1904'> +1.2666231e-12 </wgt>
<wgt id='1905'> +1.2636112e-12 </wgt>
<wgt id='1906'> +1.3434244e-12 </wgt>
<wgt id='1907'> +1.3116863e-12 </wgt>
<wgt id='1908'> +1.3701480e-12 </wgt>
<wgt id='1909'> +1.2935378e-12 </wgt>
<wgt id='1910'> +1.2729221e-12 </wgt>
<wgt id='1911'> +1.2968835e-12 </wgt>
<wgt id='1912'> +1.3073746e-12 </wgt>
<wgt id='1913'> +1.3106456e-12 </wgt>
<wgt id='1914'> +1.3248213e-12 </wgt>
<wgt id='1915'> +1.2794691e-12 </wgt>
<wgt id='1916'> +1.2740618e-12 </wgt>
<wgt id='1917'> +1.3060647e-12 </wgt>
<wgt id='1918'> +1.3191733e-12 </wgt>
<wgt id='1919'> +1.2827112e-12 </wgt>
</rwgt>
</event>
<event>
 9      1 +1.5607000e-12 5.40256600e+01 7.81860800e-03 1.29284500e-01
       21 -1    0    0  501  502 +0.0000000000e+00 +0.0000000000e+00 +7.8866329600e+02 7.8866329600e+02 0.0000000000e+00 0.0000e+00 1.0000e+00
       -4 -1    0    0    0  501 -0.0000000000e+00 -0.0000000000e+00 -4.1307244509e+00 4.3679840303e+00 1.4200000000e+00 0.0000e+00 1.0000e+00
     1023  2    1    2    0    0 -2.3597460488e+01 +4.6226889352e+01 +2.3883340032e+02 2.4486764814e+02 1.5000218643e+01 0.0000e+00 0.0000e+00
  1000023  2    3    3    0    0 -1.6066688618e+01 +2.8326861519e+01 +1.6973059374e+02 1.7291404227e+02 5.4992723083e+00 0.0000e+00 0.0000e+00
       -4  1    1    2    0  502 +2.3597460488e+01 -4.6226889352e+01 +5.4569917123e+02 5.4816363189e+02 1.4200000000e+00 0.0000e+00 1.0000e+00
  1000022  1    4    4    0    0 -1.3405176981e+01 +2.3465786282e+01 +1.4184758012e+02 1.4448556288e+02 5.0000000000e+00 0.0000e+00 1.0000e+00
      -11  1    4    4    0    0 -1.2221852340e+00 +2.1941023472e+00 +1.2557573227e+01 1.2806266727e+01 5.1100000000e-04 0.0000e+00 -1.0000e+00
       11  1    4    4    0    0 -1.4393264030e+00 +2.6669728899e+00 +1.5325440389e+01 1.5622212656e+01 5.1100000000e-04 0.0000e+00 1.0000e+00
  1000022  1    3    3    0    0 -7.5307718702e+00 +1.7900027833e+01 +6.9102806580e+01 7.1953605877e+01 5.0000000000e+00 0.0000e+00 1.0000e+00
<mgrwt>
<rscale>  1 0.54025661E+02</rscale>
<asrwt>0</asrwt>
<pdfrwt beam="1">  1       21 0.12133270E+00 0.54025661E+02</pdfrwt>
<pdfrwt beam="2">  1       -4 0.65384577E-03 0.54025661E+02</pdfrwt>
<totfact> 0.12653808E+05</totfact>
</mgrwt>
<rwgt>
<wgt id='1001'> +1.5607000e-12 </wgt>
<wgt id='1002'> +1.4842858e-12 </wgt>
<wgt id='1003'> +1.4830519e-12 </wgt>
<wgt id='1004'> +1.5637545e-12 </wgt>
<wgt id='1005'> +1.4709714e-12 </wgt>
<wgt id='1006'> +1.3854641e-12 </wgt>
<wgt id='1007'> +1.3344619e-12 </wgt>
<wgt id='1008'> +1.3335832e-12 </wgt>
<wgt id='1009'> +1.3873062e-12 </wgt>
<wgt id='1010'> +1.3249255e-12 </wgt>
<wgt id='1011'> +1.7888815e-12 </wgt>
<wgt id='1012'> +1.6734386e-12 </wgt>
<wgt id='1013'> +1.6716779e-12 </wgt>
<wgt id='1014'> +1.7938806e-12 </wgt>
<wgt id='1015'> +1.6545628e-12 </wgt>
<wgt id='1016'> +1.6666548e-12 </wgt>
<wgt id='1017'> +1.5545873e-12 </wgt>
<wgt id='1018'> +1.5529173e-12 </wgt>
<wgt id='1019'> +1.6716779e-12 </wgt>
<wgt id='1020'> +1.5367047e-12 </wgt>
<wgt id='1021'> +1.4795223e-12 </wgt>
<wgt id='1022'> +1.3976671e-12 </wgt>
<wgt id='1023'> +1.3964073e-12 </wgt>
<wgt id='1024'> +1.4830519e-12 </wgt>
<wgt id='1025'> +1.3841325e-12 </wgt>
<wgt id='1026'> +1.9103274e-12 </wgt>
<wgt id='1027'> +1.7526991e-12 </wgt>
<wgt id='1028'> +1.7504293e-12 </wgt>
<wgt id='1029'> +1.9176863e-12 </wgt>
<wgt id='1030'> +1.7285003e-12 </wgt>
<wgt id='1031'> +1.4153754e-12 </wgt>
<wgt id='1032'> +1.3879410e-12 </wgt>
<wgt id='1033'> +1.3873062e-12 </wgt>
<wgt id='1034'> +1.4157497e-12 </wgt>
<wgt id='1035'> +1.3808331e-12 </wgt>
<wgt id='1036'> +1.2564566e-12 </wgt>
<wgt id='1037'> +1.2478421e-12 </wgt>
<wgt id='1038'> +1.2474872e-12 </wgt>
<wgt id='1039'> +1.2560017e-12 </wgt>
<wgt id='1040'> +1.2437366e-12 </wgt>
<wgt id='1041'> +1.6223098e-12 </wgt>
<wgt id='1042'> +1.5648159e-12 </wgt>
<wgt id='1043'> +1.5637545e-12 </wgt>
<wgt id='1044'> +1.6240950e-12 </wgt>
<wgt id='1045'> +1.5531744e-12 </wgt>
<wgt id='1046'> +1.5607000e-12 </wgt>
<wgt id='1047'> +1.5622454e-12 </wgt>
<wgt id='1048'> +1.5879838e-12 </wgt>
<wgt id='1049'> +1.5551628e-12 </wgt>
<wgt id='1050'> +1.5691274e-12 </wgt>
<wgt id='1051'> +1.5568680e-12 </wgt>
<wgt id='1052'> +1.5233886e-12 </wgt>
<wgt id='1053'> +1.5632606e-12 </wgt>
<wgt id='1054'> +1.5678031e-12 </wgt>
<wgt id='1055'> +1.5480747e-12 </wgt>
<wgt id='1056'> +1.5974132e-12 </wgt>
<wgt id='1057'> +1.5435964e-12 </wgt>
<wgt id='1058'> +1.5387507e-12 </wgt>
<wgt id='1059'> +1.5288085e-12 </wgt>
<wgt id='1060'> +1.5732536e-12 </wgt>
<wgt id='1061'> +1.4941680e-12 </wgt>
<wgt id='1062'> +1.5481690e-12 </wgt>
<wgt id='1063'> +1.5752123e-12 </wgt>
<wgt id='1064'> +1.5581496e-12 </wgt>
<wgt id='1065'> +1.5421218e-12 </wgt>
<wgt id='1066'> +1.5507733e-12 </wgt>
<wgt id='1067'> +1.5380347e-12 </wgt>
<wgt id='1068'> +1.5585340e-12 </wgt>
<wgt id='1069'> +1.5805499e-12 </wgt>
<wgt id='1070'> +1.5923150e-12 </wgt>
<wgt id='1071'> +1.5456598e-12 </wgt>
<wgt id='1072'> +1.5357214e-12 </wgt>
<wgt id='1073'> +1.5775994e-12 </wgt>
<wgt id='1074'> +1.5346243e-12 </wgt>
<wgt id='1075'> +1.5354637e-12 </wgt>
<wgt id='1076'> +1.5490950e-12 </wgt>
<wgt id='1077'> +1.5801754e-12 </wgt>
<wgt id='1078'> +1.5214599e-12 </wgt>
<wgt id='1079'> +1.5280182e-12 </wgt>
<wgt id='1080'> +1.5998343e-12 </wgt>
<wgt id='1081'> +1.5300735e-12 </wgt>
<wgt id='1082'> +1.5300220e-12 </wgt>
<wgt id='1083'> +1.5183557e-12 </wgt>
<wgt id='1084'> +1.5456959e-12 </wgt>
<wgt id='1085'> +1.5132384e-12 </wgt>
<wgt id='1086'> +1.5826404e-12 </wgt>
<wgt id='1087'> +1.5367724e-12 </wgt>
<wgt id='1088'> +1.5827315e-12 </wgt>
<wgt id='1089'> +1.5755778e-12 </wgt>
<wgt id='1090'> +1.5777360e-12 </wgt>
<wgt id='1091'> +1.5614082e-12 </wgt>
<wgt id='1092'> +1.5598894e-12 </wgt>
<wgt id='1093'> +1.5978745e-12 </wgt>
<wgt id='1094'> +1.6375392e-12 </wgt>
<wgt id='1095'> +1.5238859e-12 </wgt>
<wgt id='1096'> +1.5517811e-12 </wgt>
<wgt id='1097'> +1.5390735e-12 </wgt>
<wgt id='1098'> +1.5774988e-12 </wgt>
<wgt id='1099'> +1.5629896e-12 </wgt>
<wgt id='1100'> +1.5422066e-12 </wgt>
<wgt id='1101'> +1.5741109e-12 </wgt>
<wgt id='1102'> +1.5623275e-12 </wgt>
<wgt id='1103'> +1.5543633e-12 </wgt>
<wgt id='1104'> +1.5968138e-12 </wgt>
<wgt id='1105'> +1.4919441e-12 </wgt>
<wgt id='1106'> +1.5491092e-12 </wgt>
<wgt id='1107'> +1.5670457e-12 </wgt>
<wgt id='1108'> +1.5784796e-12 </wgt>
<wgt id='1109'> +1.5320934e-12 </wgt>
<wgt id='1110'> +1.6000546e-12 </wgt>
<wgt id='1111'> +1.5188312e-12 </wgt>
<wgt id='1112'> +1.5751446e-12 </wgt>
<wgt id='1113'> +1.5734018e-12 </wgt>
<wgt id='1114'> +1.5629992e-12 </wgt>
<wgt id='1115'> +1.5666236e-12 </wgt>
<wgt id='1116'> +1.6676183e-12 </wgt>
<wgt id='1117'> +1.5442651e-12 </wgt>
<wgt id='1118'> +1.5395021e-12 </wgt>
<wgt id='1119'> +1.5758637e-12 </wgt>
<wgt id='1120'> +1.5177072e-12 </wgt>
<wgt id='1121'> +1.5500078e-12 </wgt>
<wgt id='1122'> +1.5243598e-12 </wgt>
<wgt id='1123'> +1.6362151e-12 </wgt>
<wgt id='1124'> +1.5070230e-12 </wgt>
<wgt id='1125'> +1.5380574e-12 </wgt>
<wgt id='1126'> +1.6299598e-12 </wgt>
<wgt id='1127'> +1.6202320e-12 </wgt>
<wgt id='1128'> +1.5481690e-12 </wgt>
<wgt id='1129'> +1.5694459e-12 </wgt>
<wgt id='1130'> +1.5534669e-12 </wgt>
<wgt id='1131'> +1.5529633e-12 </wgt>
<wgt id='1132'> +1.6255043e-12 </wgt>
<wgt id='1133'> +1.5048726e-12 </wgt>
<wgt id='1134'> +1.5746210e-12 </wgt>
<wgt id='1135'> +1.5954534e-12 </wgt>
<wgt id='1136'> +1.5769488e-12 </wgt>
<wgt id='1137'> +1.5484664e-12 </wgt>
<wgt id='1138'> +1.5290809e-12 </wgt>
<wgt id='1139'> +1.5560130e-12 </wgt>
<wgt id='1140'> +1.5943758e-12 </wgt>
<wgt id='1141'> +1.5539429e-12 </wgt>
<wgt id='1142'> +1.5541505e-12 </wgt>
<wgt id='1143'> +1.6444486e-12 </wgt>
<wgt id='1144'> +1.5791125e-12 </wgt>
<wgt id='1145'> +1.5744645e-12 </wgt>
<wgt id='1146'> +1.5676843e-12 </wgt>
<wgt id='1147'> +1.3246011e-12 </wgt>
<wgt id='1148'> +1.3491018e-12 </wgt>
<wgt id='1149'> +1.3782262e-12 </wgt>
<wgt id='1150'> +1.3767919e-12 </wgt>
<wgt id='1151'> +1.2499451e-12 </wgt>
<wgt id='1152'> +1.6368161e-12 </wgt>
<wgt id='1153'> +1.6316240e-12 </wgt>
<wgt id='1154'> +1.6399650e-12 </wgt>
<wgt id='1155'> +1.6375761e-12 </wgt>
<wgt id='1156'> +1.6364819e-12 </wgt>
<wgt id='1157'> +1.6327708e-12 </wgt>
<wgt id='1158'> +1.6422571e-12 </wgt>
<wgt id='1159'> +1.6335093e-12 </wgt>
<wgt id='1160'> +1.6390434e-12 </wgt>
<wgt id='1161'> +1.6298048e-12 </wgt>
<wgt id='1162'> +1.6416656e-12 </wgt>
<wgt id='1163'> +1.6422789e-12 </wgt>
<wgt id='1164'> +1.6314048e-12 </wgt>
<wgt id='1165'> +1.6263047e-12 </wgt>
<wgt id='1166'> +1.6470463e-12 </wgt>
<wgt id='1167'> +1.6364340e-12 </wgt>
<wgt id='1168'> +1.6350983e-12 </wgt>
<wgt id='1169'> +1.6358650e-12 </wgt>
<wgt id='1170'> +1.6376180e-12 </wgt>
<wgt id='1171'> +1.6406729e-12 </wgt>
<wgt id='1172'> +1.6320042e-12 </wgt>
<wgt id='1173'> +1.6467221e-12 </wgt>
<wgt id='1174'> +1.6259230e-12 </wgt>
<wgt id='1175'> +1.6347441e-12 </wgt>
<wgt id='1176'> +1.6377569e-12 </wgt>
<wgt id='1177'> +1.6376483e-12 </wgt>
<wgt id='1178'> +1.6354021e-12 </wgt>
<wgt id='1179'> +1.6368668e-12 </wgt>
<wgt id='1180'> +1.6314916e-12 </wgt>
<wgt id='1181'> +1.6357171e-12 </wgt>
<wgt id='1182'> +1.6386837e-12 </wgt>
<wgt id='1183'> +1.6378957e-12 </wgt>
<wgt id='1184'> +1.6368397e-12 </wgt>
<wgt id='1185'> +1.6427301e-12 </wgt>
<wgt id='1186'> +1.6340845e-12 </wgt>
<wgt id='1187'> +1.6364494e-12 </wgt>
<wgt id='1188'> +1.6369599e-12 </wgt>
<wgt id='1189'> +1.6448544e-12 </wgt>
<wgt id='1190'> +1.6071113e-12 </wgt>
<wgt id='1191'> +1.6304229e-12 </wgt>
<wgt id='1192'> +1.6428813e-12 </wgt>
<wgt id='1193'> +1.4114793e-12 </wgt>
<wgt id='1194'> +1.4049822e-12 </wgt>
<wgt id='1195'> +1.4167769e-12 </wgt>
<wgt id='1196'> +1.4117946e-12 </wgt>
<wgt id='1197'> +1.4112062e-12 </wgt>
<wgt id='1198'> +1.4137810e-12 </wgt>
<wgt id='1199'> +1.4080887e-12 </wgt>
<wgt id='1200'> +1.4129114e-12 </wgt>
<wgt id='1201'> +1.4105764e-12 </wgt>
<wgt id='1202'> +1.4074970e-12 </wgt>
<wgt id='1203'> +1.4171504e-12 </wgt>
<wgt id='1204'> +1.3883756e-12 </wgt>
<wgt id='1205'> +1.4257993e-12 </wgt>
<wgt id='1206'> +1.4165245e-12 </wgt>
<wgt id='1207'> +1.4046386e-12 </wgt>
<wgt id='1208'> +1.4060623e-12 </wgt>
<wgt id='1209'> +1.4135558e-12 </wgt>
<wgt id='1210'> +1.3886910e-12 </wgt>
<wgt id='1211'> +1.4312275e-12 </wgt>
<wgt id='1212'> +1.4132458e-12 </wgt>
<wgt id='1213'> +1.4098551e-12 </wgt>
<wgt id='1214'> +1.4204119e-12 </wgt>
<wgt id='1215'> +1.3919458e-12 </wgt>
<wgt id='1216'> +1.4012751e-12 </wgt>
<wgt id='1217'> +1.4172252e-12 </wgt>
<wgt id='1218'> +1.4094474e-12 </wgt>
<wgt id='1219'> +1.4121773e-12 </wgt>
<wgt id='1220'> +1.4145718e-12 </wgt>
<wgt id='1221'> +1.4138388e-12 </wgt>
<wgt id='1222'> +1.4167620e-12 </wgt>
<wgt id='1223'> +1.4077614e-12 </wgt>
<wgt id='1224'> +1.4095550e-12 </wgt>
<wgt id='1225'> +1.4122684e-12 </wgt>
<wgt id='1226'> +1.4117355e-12 </wgt>
<wgt id='1227'> +1.4115905e-12 </wgt>
<wgt id='1228'> +1.4150510e-12 </wgt>
<wgt id='1229'> +1.4091239e-12 </wgt>
<wgt id='1230'> +1.4238278e-12 </wgt>
<wgt id='1231'> +1.4112561e-12 </wgt>
<wgt id='1232'> +1.4133188e-12 </wgt>
<wgt id='1233'> +1.4110567e-12 </wgt>
<wgt id='1234'> +1.4114793e-12 </wgt>
<wgt id='1235'> +1.4041464e-12 </wgt>
<wgt id='1236'> +1.4067644e-12 </wgt>
<wgt id='1237'> +1.4090252e-12 </wgt>
<wgt id='1238'> +1.4131132e-12 </wgt>
<wgt id='1239'> +1.4145082e-12 </wgt>
<wgt id='1240'> +1.4160909e-12 </wgt>
<wgt id='1241'> +1.3398007e-12 </wgt>
<wgt id='1242'> +1.3309204e-12 </wgt>
<wgt id='1243'> +1.3485055e-12 </wgt>
<wgt id='1244'> +1.3372549e-12 </wgt>
<wgt id='1245'> +1.3416344e-12 </wgt>
<wgt id='1246'> +1.3406817e-12 </wgt>
<wgt id='1247'> +1.3390672e-12 </wgt>
<wgt id='1248'> +1.3396117e-12 </wgt>
<wgt id='1249'> +1.3398904e-12 </wgt>
<wgt id='1250'> +1.3363595e-12 </wgt>
<wgt id='1251'> +1.3422108e-12 </wgt>
<wgt id='1252'> +1.3384835e-12 </wgt>
<wgt id='1253'> +1.3408030e-12 </wgt>
<wgt id='1254'> +1.3224310e-12 </wgt>
<wgt id='1255'> +1.3502157e-12 </wgt>
<wgt id='1256'> +1.3433380e-12 </wgt>
<wgt id='1257'> +1.3307898e-12 </wgt>
<wgt id='1258'> +1.3175739e-12 </wgt>
<wgt id='1259'> +1.3560286e-12 </wgt>
<wgt id='1260'> +1.3374683e-12 </wgt>
<wgt id='1261'> +1.3430386e-12 </wgt>
<wgt id='1262'> +1.3360124e-12 </wgt>
<wgt id='1263'> +1.3413345e-12 </wgt>
<wgt id='1264'> +1.3429471e-12 </wgt>
<wgt id='1265'> +1.3384652e-12 </wgt>
<wgt id='1266'> +1.3437734e-12 </wgt>
<wgt id='1267'> +1.3381196e-12 </wgt>
<wgt id='1268'> +1.3406657e-12 </wgt>
<wgt id='1269'> +1.3427233e-12 </wgt>
<wgt id='1270'> +1.3417308e-12 </wgt>
<wgt id='1271'> +1.3399076e-12 </wgt>
<wgt id='1272'> +1.3394144e-12 </wgt>
<wgt id='1273'> +1.3402156e-12 </wgt>
<wgt id='1274'> +1.3394048e-12 </wgt>
<wgt id='1275'> +1.3403024e-12 </wgt>
<wgt id='1276'> +1.3352488e-12 </wgt>
<wgt id='1277'> +1.3439753e-12 </wgt>
<wgt id='1278'> +1.3350263e-12 </wgt>
<wgt id='1279'> +1.3589766e-12 </wgt>
<wgt id='1280'> +1.3384973e-12 </wgt>
<wgt id='1281'> +1.3510478e-12 </wgt>
<wgt id='1282'> +1.3398007e-12 </wgt>
<wgt id='1283'> +1.3328928e-12 </wgt>
<wgt id='1284'> +1.3356525e-12 </wgt>
<wgt id='1285'> +1.3377765e-12 </wgt>
<wgt id='1286'> +1.3415072e-12 </wgt>
<wgt id='1287'> +1.3425314e-12 </wgt>
<wgt id='1288'> +1.3435663e-12 </wgt>
<wgt id='1289'> +1.4410814e-12 </wgt>
<wgt id='1290'> +1.4447881e-12 </wgt>
<wgt id='1291'> +1.4369842e-12 </wgt>
<wgt id='1292'> +1.4422775e-12 </wgt>
<wgt id='1293'> +1.4401773e-12 </wgt>
<wgt id='1294'> +1.4378737e-12 </wgt>
<wgt id='1295'> +1.4439655e-12 </wgt>
<wgt id='1296'> +1.4395660e-12 </wgt>
<wgt id='1297'> +1.4428149e-12 </wgt>
<wgt id='1298'> +1.4521351e-12 </wgt>
<wgt id='1299'> +1.4272848e-12 </wgt>
<wgt id='1300'> +1.4453036e-12 </wgt>
<wgt id='1301'> +1.4325422e-12 </wgt>
<wgt id='1302'> +1.4394589e-12 </wgt>
<wgt id='1303'> +1.4432832e-12 </wgt>
<wgt id='1304'> +1.4379300e-12 </wgt>
<wgt id='1305'> +1.4432023e-12 </wgt>
<wgt id='1306'> +1.4314017e-12 </wgt>
<wgt id='1307'> +1.4519231e-12 </wgt>
<wgt id='1308'> +1.4377651e-12 </wgt>
<wgt id='1309'> +1.4435581e-12 </wgt>
<wgt id='1310'> +1.4372441e-12 </wgt>
<wgt id='1311'> +1.4451300e-12 </wgt>
<wgt id='1312'> +1.4299460e-12 </wgt>
<wgt id='1313'> +1.4524544e-12 </wgt>
<wgt id='1314'> +1.4221298e-12 </wgt>
<wgt id='1315'> +1.4565509e-12 </wgt>
<wgt id='1316'> +1.4456810e-12 </wgt>
<wgt id='1317'> +1.4426004e-12 </wgt>
<wgt id='1318'> +1.4349650e-12 </wgt>
<wgt id='1319'> +1.4473810e-12 </wgt>
<wgt id='1320'> +1.4248382e-12 </wgt>
<wgt id='1321'> +1.4517204e-12 </wgt>
<wgt id='1322'> +1.4436124e-12 </wgt>
<wgt id='1323'> +1.4374474e-12 </wgt>
<wgt id='1324'> +1.4444022e-12 </wgt>
<wgt id='1325'> +1.4378275e-12 </wgt>
<wgt id='1326'> +1.4432685e-12 </wgt>
<wgt id='1327'> +1.4416418e-12 </wgt>
<wgt id='1328'> +1.4361090e-12 </wgt>
<wgt id='1329'> +1.4457335e-12 </wgt>
<wgt id='1330'> +1.4339355e-12 </wgt>
<wgt id='1331'> +1.4502319e-12 </wgt>
<wgt id='1332'> +1.4678892e-12 </wgt>
<wgt id='1333'> +1.4355007e-12 </wgt>
<wgt id='1334'> +1.4389146e-12 </wgt>
<wgt id='1335'> +1.4473122e-12 </wgt>
<wgt id='1336'> +1.4476524e-12 </wgt>
<wgt id='1337'> +1.4432890e-12 </wgt>
<wgt id='1338'> +1.4420656e-12 </wgt>
<wgt id='1339'> +1.4409130e-12 </wgt>
<wgt id='1340'> +1.4036344e-12 </wgt>
<wgt id='1341'> +1.4073949e-12 </wgt>
<wgt id='1342'> +1.3996158e-12 </wgt>
<wgt id='1343'> +1.4049934e-12 </wgt>
<wgt id='1344'> +1.4027558e-12 </wgt>
<wgt id='1345'> +1.4003021e-12 </wgt>
<wgt id='1346'> +1.4065818e-12 </wgt>
<wgt id='1347'> +1.4021147e-12 </wgt>
<wgt id='1348'> +1.4052903e-12 </wgt>
<wgt id='1349'> +1.4138974e-12 </wgt>
<wgt id='1350'> +1.3936140e-12 </wgt>
<wgt id='1351'> +1.4079681e-12 </wgt>
<wgt id='1352'> +1.3941780e-12 </wgt>
<wgt id='1353'> +1.4013004e-12 </wgt>
<wgt id='1354'> +1.4077526e-12 </wgt>
<wgt id='1355'> +1.4005992e-12 </wgt>
<wgt id='1356'> +1.4053284e-12 </wgt>
<wgt id='1357'> +1.3930091e-12 </wgt>
<wgt id='1358'> +1.4161301e-12 </wgt>
<wgt id='1359'> +1.4027619e-12 </wgt>
<wgt id='1360'> +1.4044039e-12 </wgt>
<wgt id='1361'> +1.4003162e-12 </wgt>
<wgt id='1362'> +1.4080590e-12 </wgt>
<wgt id='1363'> +1.3918756e-12 </wgt>
<wgt id='1364'> +1.4120319e-12 </wgt>
<wgt id='1365'> +1.4226656e-12 </wgt>
<wgt id='1366'> +1.3760131e-12 </wgt>
<wgt id='1367'> +1.4085242e-12 </wgt>
<wgt id='1368'> +1.4040754e-12 </wgt>
<wgt id='1369'> +1.3994930e-12 </wgt>
<wgt id='1370'> +1.4082675e-12 </wgt>
<wgt id='1371'> +1.3938529e-12 </wgt>
<wgt id='1372'> +1.4135173e-12 </wgt>
<wgt id='1373'> +1.4088398e-12 </wgt>
<wgt id='1374'> +1.3981230e-12 </wgt>
<wgt id='1375'> +1.4065083e-12 </wgt>
<wgt id='1376'> +1.4004606e-12 </wgt>
<wgt id='1377'> +1.4062480e-12 </wgt>
<wgt id='1378'> +1.4039947e-12 </wgt>
<wgt id='1379'> +1.3990993e-12 </wgt>
<wgt id='1380'> +1.4085885e-12 </wgt>
<wgt id='1381'> +1.3974238e-12 </wgt>
<wgt id='1382'> +1.4112828e-12 </wgt>
<wgt id='1383'> +1.4285396e-12 </wgt>
<wgt id='1384'> +1.3982003e-12 </wgt>
<wgt id='1385'> +1.4013496e-12 </wgt>
<wgt id='1386'> +1.4097899e-12 </wgt>
<wgt id='1387'> +1.4091827e-12 </wgt>
<wgt id='1388'> +1.4079824e-12 </wgt>
<wgt id='1389'> +1.4044090e-12 </wgt>
<wgt id='1390'> +1.4040687e-12 </wgt>
<wgt id='1391'> +1.3837366e-12 </wgt>
<wgt id='1392'> +1.3311247e-12 </wgt>
<wgt id='1393'> +1.3489695e-12 </wgt>
<wgt id='1394'> +1.3663697e-12 </wgt>
<wgt id='1395'> +1.4036215e-12 </wgt>
<wgt id='1396'> +1.3844607e-12 </wgt>
<wgt id='1397'> +1.4064508e-12 </wgt>
<wgt id='1398'> +1.4018629e-12 </wgt>
<wgt id='1399'> +1.3976497e-12 </wgt>
<wgt id='1400'> +1.3935817e-12 </wgt>
<wgt id='1401'> +1.3890322e-12 </wgt>
<wgt id='1402'> +1.3800163e-12 </wgt>
<wgt id='1403'> +1.3758483e-12 </wgt>
<wgt id='1404'> +1.3716860e-12 </wgt>
<wgt id='1405'> +1.3844607e-12 </wgt>
<wgt id='1406'> +1.3788589e-12 </wgt>
<wgt id='1407'> +1.3816627e-12 </wgt>
<wgt id='1408'> +1.3871832e-12 </wgt>
<wgt id='1409'> +1.3893313e-12 </wgt>
<wgt id='1410'> +1.3021652e-12 </wgt>
<wgt id='1411'> +1.3062997e-12 </wgt>
<wgt id='1412'> +1.2967311e-12 </wgt>
<wgt id='1413'> +1.3028336e-12 </wgt>
<wgt id='1414'> +1.3013234e-12 </wgt>
<wgt id='1415'> +1.3034978e-12 </wgt>
<wgt id='1416'> +1.3015636e-12 </wgt>
<wgt id='1417'> +1.2975913e-12 </wgt>
<wgt id='1418'> +1.3066566e-12 </wgt>
<wgt id='1419'> +1.3067151e-12 </wgt>
<wgt id='1420'> +1.2976712e-12 </wgt>
<wgt id='1421'> +1.2823919e-12 </wgt>
<wgt id='1422'> +1.3106517e-12 </wgt>
<wgt id='1423'> +1.3016298e-12 </wgt>
<wgt id='1424'> +1.3026912e-12 </wgt>
<wgt id='1425'> +1.2964386e-12 </wgt>
<wgt id='1426'> +1.3081624e-12 </wgt>
<wgt id='1427'> +1.2816653e-12 </wgt>
<wgt id='1428'> +1.3132288e-12 </wgt>
<wgt id='1429'> +1.2995962e-12 </wgt>
<wgt id='1430'> +1.3056158e-12 </wgt>
<wgt id='1431'> +1.3050822e-12 </wgt>
<wgt id='1432'> +1.2999212e-12 </wgt>
<wgt id='1433'> +1.2962982e-12 </wgt>
<wgt id='1434'> +1.3052047e-12 </wgt>
<wgt id='1435'> +1.3028629e-12 </wgt>
<wgt id='1436'> +1.3006763e-12 </wgt>
<wgt id='1437'> +1.3059515e-12 </wgt>
<wgt id='1438'> +1.3042024e-12 </wgt>
<wgt id='1439'> +1.3066962e-12 </wgt>
<wgt id='1440'> +1.2863556e-12 </wgt>
<wgt id='1441'> +1.2981960e-12 </wgt>
<wgt id='1442'> +1.3108965e-12 </wgt>
<wgt id='1443'> +1.3041230e-12 </wgt>
<wgt id='1444'> +1.3002272e-12 </wgt>
<wgt id='1445'> +1.2966419e-12 </wgt>
<wgt id='1446'> +1.3062535e-12 </wgt>
<wgt id='1447'> +1.3023706e-12 </wgt>
<wgt id='1448'> +1.3051379e-12 </wgt>
<wgt id='1449'> +1.2968706e-12 </wgt>
<wgt id='1450'> +1.3058991e-12 </wgt>
<wgt id='1451'> +1.3070211e-12 </wgt>
<wgt id='1452'> +1.2977566e-12 </wgt>
<wgt id='1453'> +1.3031336e-12 </wgt>
<wgt id='1454'> +1.2965684e-12 </wgt>
<wgt id='1455'> +1.2992430e-12 </wgt>
<wgt id='1456'> +1.3131288e-12 </wgt>
<wgt id='1457'> +1.3083963e-12 </wgt>
<wgt id='1458'> +1.3005954e-12 </wgt>
<wgt id='1459'> +1.3070677e-12 </wgt>
<wgt id='1460'> +1.3079604e-12 </wgt>
<wgt id='1461'> +1.3021652e-12 </wgt>
<wgt id='1462'> +1.2855477e-12 </wgt>
<wgt id='1463'> +1.3195482e-12 </wgt>
<wgt id='1464'> +1.3024373e-12 </wgt>
<wgt id='1465'> +1.3347109e-12 </wgt>
<wgt id='1466'> +1.3270456e-12 </wgt>
<wgt id='1467'> +1.3201394e-12 </wgt>
<wgt id='1468'> +1.3157339e-12 </wgt>
<wgt id='1469'> +1.3084447e-12 </wgt>
<wgt id='1470'> +1.2963703e-12 </wgt>
<wgt id='1471'> +1.2895681e-12 </wgt>
<wgt id='1472'> +1.2838081e-12 </wgt>
<wgt id='1473'> +1.3024373e-12 </wgt>
<wgt id='1474'> +1.2965006e-12 </wgt>
<wgt id='1475'> +1.2999883e-12 </wgt>
<wgt id='1476'> +1.3049802e-12 </wgt>
<wgt id='1477'> +1.3072281e-12 </wgt>
<wgt id='1478'> +1.3750326e-12 </wgt>
<wgt id='1479'> +1.3761929e-12 </wgt>
<wgt id='1480'> +1.3710164e-12 </wgt>
<wgt id='1481'> +1.3781919e-12 </wgt>
<wgt id='1482'> +1.3801142e-12 </wgt>
<wgt id='1483'> +1.3545036e-12 </wgt>
<wgt id='1484'> +1.3828589e-12 </wgt>
<wgt id='1485'> +1.3894641e-12 </wgt>
<wgt id='1486'> +1.3747588e-12 </wgt>
<wgt id='1487'> +1.3886740e-12 </wgt>
<wgt id='1488'> +1.3706243e-12 </wgt>
<wgt id='1489'> +1.3573474e-12 </wgt>
<wgt id='1490'> +1.3769627e-12 </wgt>
<wgt id='1491'> +1.3617648e-12 </wgt>
<wgt id='1492'> +1.3723498e-12 </wgt>
<wgt id='1493'> +1.3607704e-12 </wgt>
<wgt id='1494'> +1.3781522e-12 </wgt>
<wgt id='1495'> +1.3874452e-12 </wgt>
<wgt id='1496'> +1.3706150e-12 </wgt>
<wgt id='1497'> +1.3783880e-12 </wgt>
<wgt id='1498'> +1.3703833e-12 </wgt>
<wgt id='1499'> +1.3787544e-12 </wgt>
<wgt id='1500'> +1.3749819e-12 </wgt>
<wgt id='1501'> +1.3713380e-12 </wgt>
<wgt id='1502'> +1.3755196e-12 </wgt>
<wgt id='1503'> +1.3796653e-12 </wgt>
<wgt id='1504'> +1.3749333e-12 </wgt>
<wgt id='1505'> +1.3717677e-12 </wgt>
<wgt id='1506'> +1.3753847e-12 </wgt>
<wgt id='1507'> +1.3754525e-12 </wgt>
<wgt id='1508'> +1.3831846e-12 </wgt>
<wgt id='1509'> +1.3279434e-12 </wgt>
<wgt id='1510'> +1.3275211e-12 </wgt>
<wgt id='1511'> +1.3225088e-12 </wgt>
<wgt id='1512'> +1.3183515e-12 </wgt>
<wgt id='1513'> +1.3321309e-12 </wgt>
<wgt id='1514'> +1.3341456e-12 </wgt>
<wgt id='1515'> +1.3301211e-12 </wgt>
<wgt id='1516'> +1.3407578e-12 </wgt>
<wgt id='1517'> +1.3371972e-12 </wgt>
<wgt id='1518'> +1.3264805e-12 </wgt>
<wgt id='1519'> +1.3215032e-12 </wgt>
<wgt id='1520'> +1.3269147e-12 </wgt>
<wgt id='1521'> +1.3254656e-12 </wgt>
<wgt id='1522'> +1.3229439e-12 </wgt>
<wgt id='1523'> +1.3255625e-12 </wgt>
<wgt id='1524'> +1.3256224e-12 </wgt>
<wgt id='1525'> +1.3292492e-12 </wgt>
<wgt id='1526'> +1.3296486e-12 </wgt>
<wgt id='1527'> +1.3225743e-12 </wgt>
<wgt id='1528'> +1.3256861e-12 </wgt>
<wgt id='1529'> +1.3198051e-12 </wgt>
<wgt id='1530'> +1.3260810e-12 </wgt>
<wgt id='1531'> +1.3200225e-12 </wgt>
<wgt id='1532'> +1.3260927e-12 </wgt>
<wgt id='1533'> +1.3226512e-12 </wgt>
<wgt id='1534'> +1.3190719e-12 </wgt>
<wgt id='1535'> +1.3306058e-12 </wgt>
<wgt id='1536'> +1.3278538e-12 </wgt>
<wgt id='1537'> +1.3274853e-12 </wgt>
<wgt id='1538'> +1.3388395e-12 </wgt>
<wgt id='1539'> +1.3298546e-12 </wgt>
<wgt id='1540'> +1.3268974e-12 </wgt>
<wgt id='1541'> +1.3328598e-12 </wgt>
<wgt id='1542'> +1.3292827e-12 </wgt>
<wgt id='1543'> +1.3264957e-12 </wgt>
<wgt id='1544'> +1.3264448e-12 </wgt>
<wgt id='1545'> +1.3240804e-12 </wgt>
<wgt id='1546'> +1.3278975e-12 </wgt>
<wgt id='1547'> +1.3280780e-12 </wgt>
<wgt id='1548'> +1.3309907e-12 </wgt>
<wgt id='1549'> +1.3276064e-12 </wgt>
<wgt id='1550'> +1.3244442e-12 </wgt>
<wgt id='1551'> +1.3211124e-12 </wgt>
<wgt id='1552'> +1.3317643e-12 </wgt>
<wgt id='1553'> +1.3304600e-12 </wgt>
<wgt id='1554'> +1.3269087e-12 </wgt>
<wgt id='1555'> +1.3316319e-12 </wgt>
<wgt id='1556'> +1.3306514e-12 </wgt>
<wgt id='1557'> +1.3275648e-12 </wgt>
<wgt id='1558'> +1.3279311e-12 </wgt>
<wgt id='1559'> +1.3294168e-12 </wgt>
<wgt id='1560'> +1.3295377e-12 </wgt>
<wgt id='1561'> +1.3254932e-12 </wgt>
<wgt id='1562'> +1.3270385e-12 </wgt>
<wgt id='1563'> +1.3288947e-12 </wgt>
<wgt id='1564'> +1.3287520e-12 </wgt>
<wgt id='1565'> +1.3281827e-12 </wgt>
<wgt id='1566'> +1.3261129e-12 </wgt>
<wgt id='1567'> +1.3277655e-12 </wgt>
<wgt id='1568'> +1.3274748e-12 </wgt>
<wgt id='1569'> +1.3290845e-12 </wgt>
<wgt id='1570'> +1.3276076e-12 </wgt>
<wgt id='1571'> +1.3273379e-12 </wgt>
<wgt id='1572'> +1.3273758e-12 </wgt>
<wgt id='1573'> +1.3270385e-12 </wgt>
<wgt id='1574'> +1.3275379e-12 </wgt>
<wgt id='1575'> +1.3271675e-12 </wgt>
<wgt id='1576'> +1.3280733e-12 </wgt>
<wgt id='1577'> +1.3286590e-12 </wgt>
<wgt id='1578'> +1.3283331e-12 </wgt>
<wgt id='1579'> +1.3282442e-12 </wgt>
<wgt id='1580'> +1.3274734e-12 </wgt>
<wgt id='1581'> +1.3281061e-12 </wgt>
<wgt id='1582'> +1.3280410e-12 </wgt>
<wgt id='1583'> +1.3283097e-12 </wgt>
<wgt id='1584'> +1.3277635e-12 </wgt>
<wgt id='1585'> +1.3283062e-12 </wgt>
<wgt id='1586'> +1.3281867e-12 </wgt>
<wgt id='1587'> +1.3280415e-12 </wgt>
<wgt id='1588'> +1.3278756e-12 </wgt>
<wgt id='1589'> +1.3280992e-12 </wgt>
<wgt id='1590'> +1.3283755e-12 </wgt>
<wgt id='1591'> +1.3278924e-12 </wgt>
<wgt id='1592'> +1.3281400e-12 </wgt>
<wgt id='1593'> +1.3284443e-12 </wgt>
<wgt id='1594'> +1.3274763e-12 </wgt>
<wgt id='1595'> +1.3277873e-12 </wgt>
<wgt id='1596'> +1.3273376e-12 </wgt>
<wgt id='1597'> +1.3277935e-12 </wgt>
<wgt id='1598'> +1.3278522e-12 </wgt>
<wgt id='1599'> +1.3273323e-12 </wgt>
<wgt id='1600'> +1.3275554e-12 </wgt>
<wgt id='1601'> +1.3280675e-12 </wgt>
<wgt id='1602'> +1.3281692e-12 </wgt>
<wgt id='1603'> +1.3283381e-12 </wgt>
<wgt id='1604'> +1.3282384e-12 </wgt>
<wgt id='1605'> +1.3281162e-12 </wgt>
<wgt id='1606'> +1.3275545e-12 </wgt>
<wgt id='1607'> +1.3285031e-12 </wgt>
<wgt id='1608'> +1.3275970e-12 </wgt>
<wgt id='1609'> +1.3281325e-12 </wgt>
<wgt id='1610'> +1.2989331e-12 </wgt>
<wgt id='1611'> +1.3725632e-12 </wgt>
<wgt id='1612'> +1.5357784e-12 </wgt>
<wgt id='1613'> +1.5114661e-12 </wgt>
<wgt id='1614'> +1.5927661e-12 </wgt>
<wgt id='1615'> +1.5564721e-12 </wgt>
<wgt id='1616'> +1.4958200e-12 </wgt>
<wgt id='1617'> +1.5255817e-12 </wgt>
<wgt id='1618'> +1.5645257e-12 </wgt>
<wgt id='1619'> +1.4994082e-12 </wgt>
<wgt id='1620'> +1.5170491e-12 </wgt>
<wgt id='1621'> +1.5367546e-12 </wgt>
<wgt id='1622'> +1.5194023e-12 </wgt>
<wgt id='1623'> +1.4958949e-12 </wgt>
<wgt id='1624'> +1.5497875e-12 </wgt>
<wgt id='1625'> +1.5342541e-12 </wgt>
<wgt id='1626'> +1.5421478e-12 </wgt>
<wgt id='1627'> +1.5263979e-12 </wgt>
<wgt id='1628'> +1.6202678e-12 </wgt>
<wgt id='1629'> +1.5070181e-12 </wgt>
<wgt id='1630'> +1.5096494e-12 </wgt>
<wgt id='1631'> +1.6302139e-12 </wgt>
<wgt id='1632'> +1.5342174e-12 </wgt>
<wgt id='1633'> +1.5892701e-12 </wgt>
<wgt id='1634'> +1.4982641e-12 </wgt>
<wgt id='1635'> +1.5509809e-12 </wgt>
<wgt id='1636'> +1.5362750e-12 </wgt>
<wgt id='1637'> +1.5307866e-12 </wgt>
<wgt id='1638'> +1.5075024e-12 </wgt>
<wgt id='1639'> +1.5024546e-12 </wgt>
<wgt id='1640'> +1.5500174e-12 </wgt>
<wgt id='1641'> +1.5242519e-12 </wgt>
<wgt id='1642'> +1.5780217e-12 </wgt>
<wgt id='1643'> +1.5453922e-12 </wgt>
<wgt id='1644'> +1.5427659e-12 </wgt>
<wgt id='1645'> +1.5318414e-12 </wgt>
<wgt id='1646'> +1.5054771e-12 </wgt>
<wgt id='1647'> +1.5023136e-12 </wgt>
<wgt id='1648'> +1.5944183e-12 </wgt>
<wgt id='1649'> +1.6295651e-12 </wgt>
<wgt id='1650'> +1.5589438e-12 </wgt>
<wgt id='1651'> +1.5040809e-12 </wgt>
<wgt id='1652'> +1.5365450e-12 </wgt>
<wgt id='1653'> +1.6144244e-12 </wgt>
<wgt id='1654'> +1.4900875e-12 </wgt>
<wgt id='1655'> +1.5630052e-12 </wgt>
<wgt id='1656'> +1.6048705e-12 </wgt>
<wgt id='1657'> +1.4992480e-12 </wgt>
<wgt id='1658'> +1.5429473e-12 </wgt>
<wgt id='1659'> +1.5497875e-12 </wgt>
<wgt id='1660'> +1.5478827e-12 </wgt>
<wgt id='1661'> +1.5189362e-12 </wgt>
<wgt id='1662'> +1.5422885e-12 </wgt>
<wgt id='1663'> +1.4857750e-12 </wgt>
<wgt id='1664'> +1.5582970e-12 </wgt>
<wgt id='1665'> +1.4664256e-12 </wgt>
<wgt id='1666'> +1.5224549e-12 </wgt>
<wgt id='1667'> +1.5205953e-12 </wgt>
<wgt id='1668'> +1.4906523e-12 </wgt>
<wgt id='1669'> +1.5396569e-12 </wgt>
<wgt id='1670'> +1.5256305e-12 </wgt>
<wgt id='1671'> +1.5628339e-12 </wgt>
<wgt id='1672'> +1.5837922e-12 </wgt>
<wgt id='1673'> +1.5354611e-12 </wgt>
<wgt id='1674'> +1.5395712e-12 </wgt>
<wgt id='1675'> +1.5483605e-12 </wgt>
<wgt id='1676'> +1.5415232e-12 </wgt>
<wgt id='1677'> +1.5413206e-12 </wgt>
<wgt id='1678'> +1.5254516e-12 </wgt>
<wgt id='1679'> +1.4815390e-12 </wgt>
<wgt id='1680'> +1.5785362e-12 </wgt>
<wgt id='1681'> +1.4884554e-12 </wgt>
<wgt id='1682'> +1.5043074e-12 </wgt>
<wgt id='1683'> +1.5339189e-12 </wgt>
<wgt id='1684'> +1.5123616e-12 </wgt>
<wgt id='1685'> +1.5564761e-12 </wgt>
<wgt id='1686'> +1.5361515e-12 </wgt>
<wgt id='1687'> +1.5117218e-12 </wgt>
<wgt id='1688'> +1.6042255e-12 </wgt>
<wgt id='1689'> +1.5657914e-12 </wgt>
<wgt id='1690'> +1.4885857e-12 </wgt>
<wgt id='1691'> +1.5145778e-12 </wgt>
<wgt id='1692'> +1.5208813e-12 </wgt>
<wgt id='1693'> +1.4876436e-12 </wgt>
<wgt id='1694'> +1.5648301e-12 </wgt>
<wgt id='1695'> +1.6101047e-12 </wgt>
<wgt id='1696'> +1.4993011e-12 </wgt>
<wgt id='1697'> +1.5201735e-12 </wgt>
<wgt id='1698'> +1.5318085e-12 </wgt>
<wgt id='1699'> +1.5104746e-12 </wgt>
<wgt id='1700'> +1.5239055e-12 </wgt>
<wgt id='1701'> +1.5505951e-12 </wgt>
<wgt id='1702'> +1.5035385e-12 </wgt>
<wgt id='1703'> +1.5686015e-12 </wgt>
<wgt id='1704'> +1.5957828e-12 </wgt>
<wgt id='1705'> +1.5188943e-12 </wgt>
<wgt id='1706'> +1.5729642e-12 </wgt>
<wgt id='1707'> +1.5102863e-12 </wgt>
<wgt id='1708'> +1.5199318e-12 </wgt>
<wgt id='1709'> +1.5305539e-12 </wgt>
<wgt id='1710'> +1.4935478e-12 </wgt>
<wgt id='1711'> +1.4848229e-12 </wgt>
<wgt id='1712'> +1.5357234e-12 </wgt>
<wgt id='1713'> +1.4085667e-12 </wgt>
<wgt id='1714'> +1.3972358e-12 </wgt>
<wgt id='1715'> +1.4190322e-12 </wgt>
<wgt id='1716'> +1.4609900e-12 </wgt>
<wgt id='1717'> +1.3411692e-12 </wgt>
<wgt id='1718'> +1.4474873e-12 </wgt>
<wgt id='1719'> +1.3994939e-12 </wgt>
<wgt id='1720'> +1.4035563e-12 </wgt>
<wgt id='1721'> +1.4200708e-12 </wgt>
<wgt id='1722'> +1.4028370e-12 </wgt>
<wgt id='1723'> +1.4723741e-12 </wgt>
<wgt id='1724'> +1.4095134e-12 </wgt>
<wgt id='1725'> +1.3969884e-12 </wgt>
<wgt id='1726'> +1.3754906e-12 </wgt>
<wgt id='1727'> +1.4743452e-12 </wgt>
<wgt id='1728'> +1.4128032e-12 </wgt>
<wgt id='1729'> +1.4123820e-12 </wgt>
<wgt id='1730'> +1.4446629e-12 </wgt>
<wgt id='1731'> +1.4130350e-12 </wgt>
<wgt id='1732'> +1.3899899e-12 </wgt>
<wgt id='1733'> +1.4209546e-12 </wgt>
<wgt id='1734'> +1.3949631e-12 </wgt>
<wgt id='1735'> +1.4238125e-12 </wgt>
<wgt id='1736'> +1.4085611e-12 </wgt>
<wgt id='1737'> +1.4276683e-12 </wgt>
<wgt id='1738'> +1.4012675e-12 </wgt>
<wgt id='1739'> +1.3716983e-12 </wgt>
<wgt id='1740'> +1.4025636e-12 </wgt>
<wgt id='1741'> +1.4458026e-12 </wgt>
<wgt id='1742'> +1.4471904e-12 </wgt>
<wgt id='1743'> +1.4103069e-12 </wgt>
<wgt id='1744'> +1.4134081e-12 </wgt>
<wgt id='1745'> +1.3819358e-12 </wgt>
<wgt id='1746'> +1.3852227e-12 </wgt>
<wgt id='1747'> +1.4031703e-12 </wgt>
<wgt id='1748'> +1.4142306e-12 </wgt>
<wgt id='1749'> +1.3873965e-12 </wgt>
<wgt id='1750'> +1.4252816e-12 </wgt>
<wgt id='1751'> +1.3955301e-12 </wgt>
<wgt id='1752'> +1.3725393e-12 </wgt>
<wgt id='1753'> +1.4035274e-12 </wgt>
<wgt id='1754'> +1.3820605e-12 </wgt>
<wgt id='1755'> +1.3770824e-12 </wgt>
<wgt id='1756'> +1.3935700e-12 </wgt>
<wgt id='1757'> +1.4375813e-12 </wgt>
<wgt id='1758'> +1.4772647e-12 </wgt>
<wgt id='1759'> +1.4051873e-12 </wgt>
<wgt id='1760'> +1.4062808e-12 </wgt>
<wgt id='1761'> +1.4071151e-12 </wgt>
<wgt id='1762'> +1.4309512e-12 </wgt>
<wgt id='1763'> +1.4180093e-12 </wgt>
<wgt id='1764'> +1.4181711e-12 </wgt>
<wgt id='1765'> +1.4246119e-12 </wgt>
<wgt id='1766'> +1.4306939e-12 </wgt>
<wgt id='1767'> +1.3597429e-12 </wgt>
<wgt id='1768'> +1.4008137e-12 </wgt>
<wgt id='1769'> +1.4499924e-12 </wgt>
<wgt id='1770'> +1.3684520e-12 </wgt>
<wgt id='1771'> +1.4361007e-12 </wgt>
<wgt id='1772'> +1.4434631e-12 </wgt>
<wgt id='1773'> +1.4041833e-12 </wgt>
<wgt id='1774'> +1.4032406e-12 </wgt>
<wgt id='1775'> +1.4496270e-12 </wgt>
<wgt id='1776'> +1.3768238e-12 </wgt>
<wgt id='1777'> +1.4439696e-12 </wgt>
<wgt id='1778'> +1.3241906e-12 </wgt>
<wgt id='1779'> +1.4320992e-12 </wgt>
<wgt id='1780'> +1.4212642e-12 </wgt>
<wgt id='1781'> +1.3983505e-12 </wgt>
<wgt id='1782'> +1.3672062e-12 </wgt>
<wgt id='1783'> +1.4110944e-12 </wgt>
<wgt id='1784'> +1.3866518e-12 </wgt>
<wgt id='1785'> +1.3963646e-12 </wgt>
<wgt id='1786'> +1.3883516e-12 </wgt>
<wgt id='1787'> +1.4399227e-12 </wgt>
<wgt id='1788'> +1.4106336e-12 </wgt>
<wgt id='1789'> +1.4185211e-12 </wgt>
<wgt id='1790'> +1.3873068e-12 </wgt>
<wgt id='1791'> +1.3638294e-12 </wgt>
<wgt id='1792'> +1.3877587e-12 </wgt>
<wgt id='1793'> +1.3915149e-12 </wgt>
<wgt id='1794'> +1.4032520e-12 </wgt>
<wgt id='1795'> +1.4016876e-12 </wgt>
<wgt id='1796'> +1.4000235e-12 </wgt>
<wgt id='1797'> +1.4279175e-12 </wgt>
<wgt id='1798'> +1.4418970e-12 </wgt>
<wgt id='1799'> +1.4208502e-12 </wgt>
<wgt id='1800'> +1.4441647e-12 </wgt>
<wgt id='1801'> +1.3979935e-12 </wgt>
<wgt id='1802'> +1.3757311e-12 </wgt>
<wgt id='1803'> +1.4087327e-12 </wgt>
<wgt id='1804'> +1.3978153e-12 </wgt>
<wgt id='1805'> +1.3741837e-12 </wgt>
<wgt id='1806'> +1.4157900e-12 </wgt>
<wgt id='1807'> +1.4402552e-12 </wgt>
<wgt id='1808'> +1.4788396e-12 </wgt>
<wgt id='1809'> +1.3543794e-12 </wgt>
<wgt id='1810'> +1.3924865e-12 </wgt>
<wgt id='1811'> +1.3777711e-12 </wgt>
<wgt id='1812'> +1.3865891e-12 </wgt>
<wgt id='1813'> +1.4093955e-12 </wgt>
<wgt id='1814'> +1.2583541e-12 </wgt>
<wgt id='1815'> +1.3523810e-12 </wgt>
<wgt id='1816'> +1.4085667e-12 </wgt>
<wgt id='1817'> +1.3972358e-12 </wgt>
<wgt id='1818'> +1.4190322e-12 </wgt>
<wgt id='1819'> +1.4609900e-12 </wgt>
<wgt id='1820'> +1.3411692e-12 </wgt>
<wgt id='1821'> +1.4474873e-12 </wgt>
<wgt id='1822'> +1.3994939e-12 </wgt>
<wgt id='1823'> +1.4035563e-12 </wgt>
<wgt id='1824'> +1.4200708e-12 </wgt>
<wgt id='1825'> +1.4028370e-12 </wgt>
<wgt id='1826'> +1.4723741e-12 </wgt>
<wgt id='1827'> +1.4095134e-12 </wgt>
<wgt id='1828'> +1.3969884e-12 </wgt>
<wgt id='1829'> +1.3754906e-12 </wgt>
<wgt id='1830'> +1.4743452e-12 </wgt>
<wgt id='1831'> +1.4128032e-12 </wgt>
<wgt id='1832'> +1.4123820e-12 </wgt>
<wgt id='1833'> +1.4446629e-12 </wgt>
<wgt id='1834'> +1.4130350e-12 </wgt>
<wgt id='1835'> +1.3899899e-12 </wgt>
<wgt id='1836'> +1.4209546e-12 </wgt>
<wgt id='1837'> +1.3949631e-12 </wgt>
<wgt id='1838'> +1.4238125e-12 </wgt>
<wgt id='1839'> +1.4085611e-12 </wgt>
<wgt id='1840'> +1.4276683e-12 </wgt>
<wgt id='1841'> +1.4012675e-12 </wgt>
<wgt id='1842'> +1.3716983e-12 </wgt>
<wgt id='1843'> +1.4025636e-12 </wgt>
<wgt id='1844'> +1.4458026e-12 </wgt>
<wgt id='1845'> +1.4471904e-12 </wgt>
<wgt id='1846'> +1.4103069e-12 </wgt>
<wgt id='1847'> +1.4134081e-12 </wgt>
<wgt id='1848'> +1.3819358e-12 </wgt>
<wgt id='1849'> +1.3852227e-12 </wgt>
<wgt id='1850'> +1.4031703e-12 </wgt>
<wgt id='1851'> +1.4142306e-12 </wgt>
<wgt id='1852'> +1.3873965e-12 </wgt>
<wgt id='1853'> +1.4252816e-12 </wgt>
<wgt id='1854'> +1.3955301e-12 </wgt>
<wgt id='1855'> +1.3725393e-12 </wgt>
<wgt id='1856'> +1.4035274e-12 </wgt>
<wgt id='1857'> +1.3820605e-12 </wgt>
<wgt id='1858'> +1.3770824e-12 </wgt>
<wgt id='1859'> +1.3935700e-12 </wgt>
<wgt id='1860'> +1.4375813e-12 </wgt>
<wgt id='1861'> +1.4772647e-12 </wgt>
<wgt id='1862'> +1.4051873e-12 </wgt>
<wgt id='1863'> +1.4062808e-12 </wgt>
<wgt id='1864'> +1.4071151e-12 </wgt>
<wgt id='1865'> +1.4309512e-12 </wgt>
<wgt id='1866'> +1.4180093e-12 </wgt>
<wgt id='1867'> +1.4181711e-12 </wgt>
<wgt id='1868'> +1.4246119e-12 </wgt>
<wgt id='1869'> +1.4306939e-12 </wgt>
<wgt id='1870'> +1.3597429e-12 </wgt>
<wgt id='1871'> +1.4008137e-12 </wgt>
<wgt id='1872'> +1.4499924e-12 </wgt>
<wgt id='1873'> +1.3684520e-12 </wgt>
<wgt id='1874'> +1.4361007e-12 </wgt>
<wgt id='1875'> +1.4434631e-12 </wgt>
<wgt id='1876'> +1.4041833e-12 </wgt>
<wgt id='1877'> +1.4032406e-12 </wgt>
<wgt id='1878'> +1.4496270e-12 </wgt>
<wgt id='1879'> +1.3768238e-12 </wgt>
<wgt id='1880'> +1.4439696e-12 </wgt>
<wgt id='1881'> +1.3241906e-12 </wgt>
<wgt id='1882'> +1.4320992e-12 </wgt>
<wgt id='1883'> +1.4212642e-12 </wgt>
<wgt id='1884'> +1.3983505e-12 </wgt>
<wgt id='1885'> +1.3672062e-12 </wgt>
<wgt id='1886'> +1.4110944e-12 </wgt>
<wgt id='1887'> +1.3866518e-12 </wgt>
<wgt id='1888'> +1.3963646e-12 </wgt>
<wgt id='1889'> +1.3883516e-12 </wgt>
<wgt id='1890'> +1.4399227e-12 </wgt>
<wgt id='1891'> +1.4106336e-12 </wgt>
<wgt id='1892'> +1.4185211e-12 </wgt>
<wgt id='1893'> +1.3873068e-12 </wgt>
<wgt id='1894'> +1.3638294e-12 </wgt>
<wgt id='1895'> +1.3877587e-12 </wgt>
<wgt id='1896'> +1.3915149e-12 </wgt>
<wgt id='1897'> +1.4032520e-12 </wgt>
<wgt id='1898'> +1.4016876e-12 </wgt>
<wgt id='1899'> +1.4000235e-12 </wgt>
<wgt id='1900'> +1.4279175e-12 </wgt>
<wgt id='1901'> +1.4418970e-12 </wgt>
<wgt id='1902'> +1.4208502e-12 </wgt>
<wgt id='1903'> +1.4441647e-12 </wgt>
<wgt id='1904'> +1.3979935e-12 </wgt>
<wgt id='1905'> +1.3757311e-12 </wgt>
<wgt id='1906'> +1.4087327e-12 </wgt>
<wgt id='1907'> +1.3978153e-12 </wgt>
<wgt id='1908'> +1.3741837e-12 </wgt>
<wgt id='1909'> +1.4157900e-12 </wgt>
<wgt id='1910'> +1.4402552e-12 </wgt>
<wgt id='1911'> +1.4788396e-12 </wgt>
<wgt id='1912'> +1.3543794e-12 </wgt>
<wgt id='1913'> +1.3924865e-12 </wgt>
<wgt id='1914'> +1.3777711e-12 </wgt>
<wgt id='1915'> +1.3865891e-12 </wgt>
<wgt id='1916'> +1.4093955e-12 </wgt>
<wgt id='1917'> +1.3902475e-12 </wgt>
<wgt id='1918'> +1.4261324e-12 </wgt>
<wgt id='1919'> +1.3455025e-12 </wgt>
</rwgt>
</event>
<event>
 9      1 +1.5607000e-12 4.67292400e+01 7.81860800e-03 1.32817500e-01
       -1 -1    0    0    0  501 -0.0000000000e+00 +0.0000000000e+00 +1.0535456436e+02 1.0535456436e+02 0.0000000000e+00 0.0000e+00 -1.0000e+00
       21 -1    0    0  501  502 +0.0000000000e+00 -0.0000000000e+00 -5.1816035399e+00 5.1816035399e+00 0.0000000000e+00 0.0000e+00 1.0000e+00
     1023  2    1    2    0    0 -2.0226497309e+01 -5.4843086981e+00 +5.5000749500e+01 6.0739405848e+01 1.5000138063e+01 0.0000e+00 0.0000e+00
  1000023  2    3    3    0    0 -4.7389560522e+00 -6.0980116160e+00 +1.9655513089e+01 2.1822490472e+01 5.4989494872e+00 0.0000e+00 0.0000e+00
       -1  1    1    2    0  502 +2.0226497309e+01 +5.4843086981e+00 +4.5172211317e+01 4.9796762049e+01 0.0000000000e+00 0.0000e+00 -1.0000e+00
  1000022  1    4    4    0    0 -4.4172728500e+00 -5.6178529517e+00 +1.9060647442e+01 2.0961413409e+01 5.0000000000e+00 0.0000e+00 -1.0000e+00
      -11  1    4    4    0    0 -2.2662986589e-01 -4.6773545432e-01 +5.4468549811e-01 7.5287456081e-01 5.1100000000e-04 0.0000e+00 1.0000e+00
       11  1    4    4    0    0 -9.5053336271e-02 -1.2423209949e-02 +5.0180149438e-02 1.0820250182e-01 5.1100000000e-04 0.0000e+00 -1.0000e+00
  1000022  1    3    3    0    0 -1.5487541257e+01 +6.1370291789e-01 +3.5345236411e+01 3.8916915376e+01 5.0000000000e+00 0.0000e+00 1.0000e+00
<mgrwt>
<rscale>  1 0.46729245E+02</rscale>
<asrwt>0</asrwt>
<pdfrwt beam="1">  1       21 0.79716986E-03 0.46729245E+02</pdfrwt>
<pdfrwt beam="2">  1       -1 0.16208393E-01 0.46729245E+02</pdfrwt>
<totfact> 0.11545564E+07</totfact>
</mgrwt>
<rwgt>
<wgt id='1001'> +1.5607000e-12 </wgt>
<wgt id='1002'> +1.5539034e-12 </wgt>
<wgt id='1003'> +1.5602516e-12 </wgt>
<wgt id='1004'> +1.4340815e-12 </wgt>
<wgt id='1005'> +1.5607000e-12 </wgt>
<wgt id='1006'> +1.3809645e-12 </wgt>
<wgt id='1007'> +1.3734360e-12 </wgt>
<wgt id='1008'> +1.3804660e-12 </wgt>
<wgt id='1009'> +1.2456446e-12 </wgt>
<wgt id='1010'> +1.3809645e-12 </wgt>
<wgt id='1011'> +1.7966226e-12 </wgt>
<wgt id='1012'> +1.7914352e-12 </wgt>
<wgt id='1013'> +1.7962811e-12 </wgt>
<wgt id='1014'> +1.6932422e-12 </wgt>
<wgt id='1015'> +1.7966226e-12 </wgt>
<wgt id='1016'> +1.8491147e-12 </wgt>
<wgt id='1017'> +1.8467590e-12 </wgt>
<wgt id='1018'> +1.8489626e-12 </wgt>
<wgt id='1019'> +1.7962811e-12 </wgt>
<wgt id='1020'> +1.8491147e-12 </wgt>
<wgt id='1021'> +1.6361644e-12 </wgt>
<wgt id='1022'> +1.6322798e-12 </wgt>
<wgt id='1023'> +1.6359093e-12 </wgt>
<wgt id='1024'> +1.5602516e-12 </wgt>
<wgt id='1025'> +1.6361644e-12 </wgt>
<wgt id='1026'> +2.1286354e-12 </wgt>
<wgt id='1027'> +2.1290571e-12 </wgt>
<wgt id='1028'> +2.1286674e-12 </wgt>
<wgt id='1029'> +2.1208969e-12 </wgt>
<wgt id='1030'> +2.1286354e-12 </wgt>
<wgt id='1031'> +1.2463859e-12 </wgt>
<wgt id='1032'> +1.2351685e-12 </wgt>
<wgt id='1033'> +1.2456446e-12 </wgt>
<wgt id='1034'> +1.0475373e-12 </wgt>
<wgt id='1035'> +1.2463859e-12 </wgt>
<wgt id='1036'> +1.1028479e-12 </wgt>
<wgt id='1037'> +1.0917183e-12 </wgt>
<wgt id='1038'> +1.1021108e-12 </wgt>
<wgt id='1039'> +9.0989193e-13 </wgt>
<wgt id='1040'> +1.1028479e-12 </wgt>
<wgt id='1041'> +1.4347954e-12 </wgt>
<wgt id='1042'> +1.4239780e-12 </wgt>
<wgt id='1043'> +1.4340815e-12 </wgt>
<wgt id='1044'> +1.2368435e-12 </wgt>
<wgt id='1045'> +1.4347954e-12 </wgt>
<wgt id='1046'> +1.5607000e-12 </wgt>
<wgt id='1047'> +1.6877767e-12 </wgt>
<wgt id='1048'> +1.5963500e-12 </wgt>
<wgt id='1049'> +1.5148394e-12 </wgt>
<wgt id='1050'> +1.5626517e-12 </wgt>
<wgt id='1051'> +1.5170620e-12 </wgt>
<wgt id='1052'> +1.6084276e-12 </wgt>
<wgt id='1053'> +1.5998090e-12 </wgt>
<wgt id='1054'> +1.5012974e-12 </wgt>
<wgt id='1055'> +1.5263294e-12 </wgt>
<wgt id='1056'> +1.5458326e-12 </wgt>
<wgt id='1057'> +1.5397978e-12 </wgt>
<wgt id='1058'> +1.5047092e-12 </wgt>
<wgt id='1059'> +1.5456609e-12 </wgt>
<wgt id='1060'> +1.5560200e-12 </wgt>
<wgt id='1061'> +1.5537561e-12 </wgt>
<wgt id='1062'> +1.5588087e-12 </wgt>
<wgt id='1063'> +1.5702139e-12 </wgt>
<wgt id='1064'> +1.5429380e-12 </wgt>
<wgt id='1065'> +1.5830217e-12 </wgt>
<wgt id='1066'> +1.4909539e-12 </wgt>
<wgt id='1067'> +1.5407567e-12 </wgt>
<wgt id='1068'> +1.6103940e-12 </wgt>
<wgt id='1069'> +1.6119229e-12 </wgt>
<wgt id='1070'> +1.5061389e-12 </wgt>
<wgt id='1071'> +1.5542821e-12 </wgt>
<wgt id='1072'> +1.5698779e-12 </wgt>
<wgt id='1073'> +1.6661895e-12 </wgt>
<wgt id='1074'> +1.5297793e-12 </wgt>
<wgt id='1075'> +1.5414542e-12 </wgt>
<wgt id='1076'> +1.5989239e-12 </wgt>
<wgt id='1077'> +1.5923039e-12 </wgt>
<wgt id='1078'> +1.5511408e-12 </wgt>
<wgt id='1079'> +1.6365152e-12 </wgt>
<wgt id='1080'> +1.4640072e-12 </wgt>
<wgt id='1081'> +1.5444038e-12 </wgt>
<wgt id='1082'> +1.5589290e-12 </wgt>
<wgt id='1083'> +1.5521262e-12 </wgt>
<wgt id='1084'> +1.5349916e-12 </wgt>
<wgt id='1085'> +1.5272429e-12 </wgt>
<wgt id='1086'> +1.5956111e-12 </wgt>
<wgt id='1087'> +1.5668115e-12 </wgt>
<wgt id='1088'> +1.5868407e-12 </wgt>
<wgt id='1089'> +1.5903953e-12 </wgt>
<wgt id='1090'> +1.5793848e-12 </wgt>
<wgt id='1091'> +1.5390419e-12 </wgt>
<wgt id='1092'> +1.5901105e-12 </wgt>
<wgt id='1093'> +1.5740999e-12 </wgt>
<wgt id='1094'> +1.5307877e-12 </wgt>
<wgt id='1095'> +1.5825378e-12 </wgt>
<wgt id='1096'> +1.5865623e-12 </wgt>
<wgt id='1097'> +1.5036154e-12 </wgt>
<wgt id='1098'> +1.5660455e-12 </wgt>
<wgt id='1099'> +1.5303193e-12 </wgt>
<wgt id='1100'> +1.6064590e-12 </wgt>
<wgt id='1101'> +1.5924069e-12 </wgt>
<wgt id='1102'> +1.5733020e-12 </wgt>
<wgt id='1103'> +1.6190778e-12 </wgt>
<wgt id='1104'> +1.5697261e-12 </wgt>
<wgt id='1105'> +1.5246618e-12 </wgt>
<wgt id='1106'> +1.6033514e-12 </wgt>
<wgt id='1107'> +1.6180858e-12 </wgt>
<wgt id='1108'> +1.5714880e-12 </wgt>
<wgt id='1109'> +1.5235225e-12 </wgt>
<wgt id='1110'> +1.5022394e-12 </wgt>
<wgt id='1111'> +1.6042971e-12 </wgt>
<wgt id='1112'> +1.5577257e-12 </wgt>
<wgt id='1113'> +1.6311642e-12 </wgt>
<wgt id='1114'> +1.6080372e-12 </wgt>
<wgt id='1115'> +1.5664768e-12 </wgt>
<wgt id='1116'> +1.5479959e-12 </wgt>
<wgt id='1117'> +1.5547611e-12 </wgt>
<wgt id='1118'> +1.5242203e-12 </wgt>
<wgt id='1119'> +1.5261080e-12 </wgt>
<wgt id='1120'> +1.5215696e-12 </wgt>
<wgt id='1121'> +1.5019344e-12 </wgt>
<wgt id='1122'> +1.6094868e-12 </wgt>
<wgt id='1123'> +1.5913484e-12 </wgt>
<wgt id='1124'> +1.5618275e-12 </wgt>
<wgt id='1125'> +1.5252454e-12 </wgt>
<wgt id='1126'> +1.5193304e-12 </wgt>
<wgt id='1127'> +1.5943662e-12 </wgt>
<wgt id='1128'> +1.5588087e-12 </wgt>
<wgt id='1129'> +1.5483600e-12 </wgt>
<wgt id='1130'> +1.5205823e-12 </wgt>
<wgt id='1131'> +1.5760507e-12 </wgt>
<wgt id='1132'> +1.5935446e-12 </wgt>
<wgt id='1133'> +1.5104843e-12 </wgt>
<wgt id='1134'> +1.5757235e-12 </wgt>
<wgt id='1135'> +1.4287739e-12 </wgt>
<wgt id='1136'> +1.5252722e-12 </wgt>
<wgt id='1137'> +1.5568709e-12 </wgt>
<wgt id='1138'> +1.4725993e-12 </wgt>
<wgt id='1139'> +1.5180425e-12 </wgt>
<wgt id='1140'> +1.5773803e-12 </wgt>
<wgt id='1141'> +1.6036034e-12 </wgt>
<wgt id='1142'> +1.5708739e-12 </wgt>
<wgt id='1143'> +1.5990039e-12 </wgt>
<wgt id='1144'> +1.5641598e-12 </wgt>
<wgt id='1145'> +1.6017122e-12 </wgt>
<wgt id='1146'> +1.5965617e-12 </wgt>
<wgt id='1147'> +1.2212195e-12 </wgt>
<wgt id='1148'> +1.2509038e-12 </wgt>
<wgt id='1149'> +1.2287659e-12 </wgt>
<wgt id='1150'> +1.2633134e-12 </wgt>
<wgt id='1151'> +1.4371070e-12 </wgt>
<wgt id='1152'> +1.7826689e-12 </wgt>
<wgt id='1153'> +1.7730416e-12 </wgt>
<wgt id='1154'> +1.7882666e-12 </wgt>
<wgt id='1155'> +1.7840260e-12 </wgt>
<wgt id='1156'> +1.7819893e-12 </wgt>
<wgt id='1157'> +1.7897130e-12 </wgt>
<wgt id='1158'> +1.7731477e-12 </wgt>
<wgt id='1159'> +1.7882332e-12 </wgt>
<wgt id='1160'> +1.7791553e-12 </wgt>
<wgt id='1161'> +1.7782196e-12 </wgt>
<wgt id='1162'> +1.7857062e-12 </wgt>
<wgt id='1163'> +1.7864778e-12 </wgt>
<wgt id='1164'> +1.7789010e-12 </wgt>
<wgt id='1165'> +1.7754671e-12 </wgt>
<wgt id='1166'> +1.7896678e-12 </wgt>
<wgt id='1167'> +1.7893874e-12 </wgt>
<wgt id='1168'> +1.7727237e-12 </wgt>
<wgt id='1169'> +1.7823908e-12 </wgt>
<wgt id='1170'> +1.7829026e-12 </wgt>
<wgt id='1171'> +1.7797003e-12 </wgt>
<wgt id='1172'> +1.7864428e-12 </wgt>
<wgt id='1173'> +1.7597836e-12 </wgt>
<wgt id='1174'> +1.8055449e-12 </wgt>
<wgt id='1175'> +1.7860639e-12 </wgt>
<wgt id='1176'> +1.7788767e-12 </wgt>
<wgt id='1177'> +1.7833882e-12 </wgt>
<wgt id='1178'> +1.7809786e-12 </wgt>
<wgt id='1179'> +1.7840189e-12 </wgt>
<wgt id='1180'> +1.7726739e-12 </wgt>
<wgt id='1181'> +1.7770424e-12 </wgt>
<wgt id='1182'> +1.7880627e-12 </wgt>
<wgt id='1183'> +1.7839085e-12 </wgt>
<wgt id='1184'> +1.7826838e-12 </wgt>
<wgt id='1185'> +1.7738620e-12 </wgt>
<wgt id='1186'> +1.7882212e-12 </wgt>
<wgt id='1187'> +1.7826166e-12 </wgt>
<wgt id='1188'> +1.7827214e-12 </wgt>
<wgt id='1189'> +1.7794424e-12 </wgt>
<wgt id='1190'> +1.7658504e-12 </wgt>
<wgt id='1191'> +1.7750778e-12 </wgt>
<wgt id='1192'> +1.7877579e-12 </wgt>
<wgt id='1193'> +1.2658101e-12 </wgt>
<wgt id='1194'> +1.2609358e-12 </wgt>
<wgt id='1195'> +1.2697311e-12 </wgt>
<wgt id='1196'> +1.2730318e-12 </wgt>
<wgt id='1197'> +1.2576965e-12 </wgt>
<wgt id='1198'> +1.2650568e-12 </wgt>
<wgt id='1199'> +1.2668480e-12 </wgt>
<wgt id='1200'> +1.2699815e-12 </wgt>
<wgt id='1201'> +1.2629978e-12 </wgt>
<wgt id='1202'> +1.2649411e-12 </wgt>
<wgt id='1203'> +1.2669658e-12 </wgt>
<wgt id='1204'> +1.2599425e-12 </wgt>
<wgt id='1205'> +1.2693293e-12 </wgt>
<wgt id='1206'> +1.2700157e-12 </wgt>
<wgt id='1207'> +1.2600311e-12 </wgt>
<wgt id='1208'> +1.2598406e-12 </wgt>
<wgt id='1209'> +1.2680018e-12 </wgt>
<wgt id='1210'> +1.2665026e-12 </wgt>
<wgt id='1211'> +1.2572341e-12 </wgt>
<wgt id='1212'> +1.2681741e-12 </wgt>
<wgt id='1213'> +1.2635134e-12 </wgt>
<wgt id='1214'> +1.2516705e-12 </wgt>
<wgt id='1215'> +1.2877787e-12 </wgt>
<wgt id='1216'> +1.2776237e-12 </wgt>
<wgt id='1217'> +1.2583528e-12 </wgt>
<wgt id='1218'> +1.2706288e-12 </wgt>
<wgt id='1219'> +1.2632160e-12 </wgt>
<wgt id='1220'> +1.2705684e-12 </wgt>
<wgt id='1221'> +1.2654275e-12 </wgt>
<wgt id='1222'> +1.2759376e-12 </wgt>
<wgt id='1223'> +1.2480705e-12 </wgt>
<wgt id='1224'> +1.2673426e-12 </wgt>
<wgt id='1225'> +1.2652374e-12 </wgt>
<wgt id='1226'> +1.2601847e-12 </wgt>
<wgt id='1227'> +1.2696596e-12 </wgt>
<wgt id='1228'> +1.2664030e-12 </wgt>
<wgt id='1229'> +1.2647221e-12 </wgt>
<wgt id='1230'> +1.2654285e-12 </wgt>
<wgt id='1231'> +1.2604004e-12 </wgt>
<wgt id='1232'> +1.2687979e-12 </wgt>
<wgt id='1233'> +1.2649340e-12 </wgt>
<wgt id='1234'> +1.2658101e-12 </wgt>
<wgt id='1235'> +1.2578288e-12 </wgt>
<wgt id='1236'> +1.2608725e-12 </wgt>
<wgt id='1237'> +1.2635147e-12 </wgt>
<wgt id='1238'> +1.2681040e-12 </wgt>
<wgt id='1239'> +1.2699555e-12 </wgt>
<wgt id='1240'> +1.2716870e-12 </wgt>
<wgt id='1241'> +1.2348780e-12 </wgt>
<wgt id='1242'> +1.2265597e-12 </wgt>
<wgt id='1243'> +1.2430794e-12 </wgt>
<wgt id='1244'> +1.2288077e-12 </wgt>
<wgt id='1245'> +1.2393369e-12 </wgt>
<wgt id='1246'> +1.2366203e-12 </wgt>
<wgt id='1247'> +1.2334188e-12 </wgt>
<wgt id='1248'> +1.2348564e-12 </wgt>
<wgt id='1249'> +1.2348978e-12 </wgt>
<wgt id='1250'> +1.2390183e-12 </wgt>
<wgt id='1251'> +1.2319139e-12 </wgt>
<wgt id='1252'> +1.2315741e-12 </wgt>
<wgt id='1253'> +1.2374456e-12 </wgt>
<wgt id='1254'> +1.2291688e-12 </wgt>
<wgt id='1255'> +1.2382593e-12 </wgt>
<wgt id='1256'> +1.2378361e-12 </wgt>
<wgt id='1257'> +1.2275322e-12 </wgt>
<wgt id='1258'> +1.2541501e-12 </wgt>
<wgt id='1259'> +1.2170484e-12 </wgt>
<wgt id='1260'> +1.2371511e-12 </wgt>
<wgt id='1261'> +1.2325083e-12 </wgt>
<wgt id='1262'> +1.2408490e-12 </wgt>
<wgt id='1263'> +1.2325323e-12 </wgt>
<wgt id='1264'> +1.2400604e-12 </wgt>
<wgt id='1265'> +1.2323567e-12 </wgt>
<wgt id='1266'> +1.2214970e-12 </wgt>
<wgt id='1267'> +1.2463998e-12 </wgt>
<wgt id='1268'> +1.2402797e-12 </wgt>
<wgt id='1269'> +1.2311924e-12 </wgt>
<wgt id='1270'> +1.2298058e-12 </wgt>
<wgt id='1271'> +1.2322963e-12 </wgt>
<wgt id='1272'> +1.2313065e-12 </wgt>
<wgt id='1273'> +1.2357234e-12 </wgt>
<wgt id='1274'> +1.2376729e-12 </wgt>
<wgt id='1275'> +1.2299446e-12 </wgt>
<wgt id='1276'> +1.2322936e-12 </wgt>
<wgt id='1277'> +1.2362181e-12 </wgt>
<wgt id='1278'> +1.2338511e-12 </wgt>
<wgt id='1279'> +1.2360000e-12 </wgt>
<wgt id='1280'> +1.2336550e-12 </wgt>
<wgt id='1281'> +1.2420912e-12 </wgt>
<wgt id='1282'> +1.2348780e-12 </wgt>
<wgt id='1283'> +1.2266268e-12 </wgt>
<wgt id='1284'> +1.2298974e-12 </wgt>
<wgt id='1285'> +1.2325929e-12 </wgt>
<wgt id='1286'> +1.2371724e-12 </wgt>
<wgt id='1287'> +1.2389120e-12 </wgt>
<wgt id='1288'> +1.2403524e-12 </wgt>
<wgt id='1289'> +1.2852067e-12 </wgt>
<wgt id='1290'> +1.2827895e-12 </wgt>
<wgt id='1291'> +1.2877985e-12 </wgt>
<wgt id='1292'> +1.2797879e-12 </wgt>
<wgt id='1293'> +1.2891327e-12 </wgt>
<wgt id='1294'> +1.2750258e-12 </wgt>
<wgt id='1295'> +1.2951853e-12 </wgt>
<wgt id='1296'> +1.2851081e-12 </wgt>
<wgt id='1297'> +1.2852432e-12 </wgt>
<wgt id='1298'> +1.2889636e-12 </wgt>
<wgt id='1299'> +1.2804917e-12 </wgt>
<wgt id='1300'> +1.2868620e-12 </wgt>
<wgt id='1301'> +1.2818764e-12 </wgt>
<wgt id='1302'> +1.2847449e-12 </wgt>
<wgt id='1303'> +1.2858276e-12 </wgt>
<wgt id='1304'> +1.2800403e-12 </wgt>
<wgt id='1305'> +1.2887817e-12 </wgt>
<wgt id='1306'> +1.2841332e-12 </wgt>
<wgt id='1307'> +1.2865106e-12 </wgt>
<wgt id='1308'> +1.2791818e-12 </wgt>
<wgt id='1309'> +1.2898682e-12 </wgt>
<wgt id='1310'> +1.2863391e-12 </wgt>
<wgt id='1311'> +1.2842158e-12 </wgt>
<wgt id='1312'> +1.2836046e-12 </wgt>
<wgt id='1313'> +1.2871796e-12 </wgt>
<wgt id='1314'> +1.2756818e-12 </wgt>
<wgt id='1315'> +1.2908749e-12 </wgt>
<wgt id='1316'> +1.2903329e-12 </wgt>
<wgt id='1317'> +1.2867904e-12 </wgt>
<wgt id='1318'> +1.2917650e-12 </wgt>
<wgt id='1319'> +1.2770207e-12 </wgt>
<wgt id='1320'> +1.3124006e-12 </wgt>
<wgt id='1321'> +1.2643923e-12 </wgt>
<wgt id='1322'> +1.2882912e-12 </wgt>
<wgt id='1323'> +1.2812831e-12 </wgt>
<wgt id='1324'> +1.2854719e-12 </wgt>
<wgt id='1325'> +1.2889796e-12 </wgt>
<wgt id='1326'> +1.2843527e-12 </wgt>
<wgt id='1327'> +1.2881509e-12 </wgt>
<wgt id='1328'> +1.2847226e-12 </wgt>
<wgt id='1329'> +1.2854799e-12 </wgt>
<wgt id='1330'> +1.2707633e-12 </wgt>
<wgt id='1331'> +1.3021041e-12 </wgt>
<wgt id='1332'> +1.3079988e-12 </wgt>
<wgt id='1333'> +1.2722555e-12 </wgt>
<wgt id='1334'> +1.2783100e-12 </wgt>
<wgt id='1335'> +1.3040244e-12 </wgt>
<wgt id='1336'> +1.2836122e-12 </wgt>
<wgt id='1337'> +1.2837193e-12 </wgt>
<wgt id='1338'> +1.2901674e-12 </wgt>
<wgt id='1339'> +1.2837112e-12 </wgt>
<wgt id='1340'> +1.2644719e-12 </wgt>
<wgt id='1341'> +1.2621414e-12 </wgt>
<wgt id='1342'> +1.2669741e-12 </wgt>
<wgt id='1343'> +1.2589649e-12 </wgt>
<wgt id='1344'> +1.2682292e-12 </wgt>
<wgt id='1345'> +1.2542561e-12 </wgt>
<wgt id='1346'> +1.2740651e-12 </wgt>
<wgt id='1347'> +1.2647938e-12 </wgt>
<wgt id='1348'> +1.2640691e-12 </wgt>
<wgt id='1349'> +1.2680887e-12 </wgt>
<wgt id='1350'> +1.2609178e-12 </wgt>
<wgt id='1351'> +1.2660781e-12 </wgt>
<wgt id='1352'> +1.2610200e-12 </wgt>
<wgt id='1353'> +1.2635085e-12 </wgt>
<wgt id='1354'> +1.2662257e-12 </wgt>
<wgt id='1355'> +1.2591249e-12 </wgt>
<wgt id='1356'> +1.2674892e-12 </wgt>
<wgt id='1357'> +1.2619974e-12 </wgt>
<wgt id='1358'> +1.2675086e-12 </wgt>
<wgt id='1359'> +1.2593718e-12 </wgt>
<wgt id='1360'> +1.2689380e-12 </wgt>
<wgt id='1361'> +1.2656025e-12 </wgt>
<wgt id='1362'> +1.2632039e-12 </wgt>
<wgt id='1363'> +1.2636878e-12 </wgt>
<wgt id='1364'> +1.2655858e-12 </wgt>
<wgt id='1365'> +1.2655329e-12 </wgt>
<wgt id='1366'> +1.2563170e-12 </wgt>
<wgt id='1367'> +1.2696788e-12 </wgt>
<wgt id='1368'> +1.2650304e-12 </wgt>
<wgt id='1369'> +1.2689718e-12 </wgt>
<wgt id='1370'> +1.2590058e-12 </wgt>
<wgt id='1371'> +1.2858846e-12 </wgt>
<wgt id='1372'> +1.2405943e-12 </wgt>
<wgt id='1373'> +1.2652178e-12 </wgt>
<wgt id='1374'> +1.2637322e-12 </wgt>
<wgt id='1375'> +1.2643681e-12 </wgt>
<wgt id='1376'> +1.2688704e-12 </wgt>
<wgt id='1377'> +1.2644977e-12 </wgt>
<wgt id='1378'> +1.2669809e-12 </wgt>
<wgt id='1379'> +1.2638114e-12 </wgt>
<wgt id='1380'> +1.2649981e-12 </wgt>
<wgt id='1381'> +1.2504463e-12 </wgt>
<wgt id='1382'> +1.2793104e-12 </wgt>
<wgt id='1383'> +1.2883687e-12 </wgt>
<wgt id='1384'> +1.2510210e-12 </wgt>
<wgt id='1385'> +1.2577810e-12 </wgt>
<wgt id='1386'> +1.2818414e-12 </wgt>
<wgt id='1387'> +1.2612167e-12 </wgt>
<wgt id='1388'> +1.2650770e-12 </wgt>
<wgt id='1389'> +1.2687953e-12 </wgt>
<wgt id='1390'> +1.2633991e-12 </wgt>
<wgt id='1391'> +1.2356857e-12 </wgt>
<wgt id='1392'> +1.2054870e-12 </wgt>
<wgt id='1393'> +1.2168166e-12 </wgt>
<wgt id='1394'> +1.2271396e-12 </wgt>
<wgt id='1395'> +1.2481846e-12 </wgt>
<wgt id='1396'> +1.2377977e-12 </wgt>
<wgt id='1397'> +1.1953193e-12 </wgt>
<wgt id='1398'> +1.2042045e-12 </wgt>
<wgt id='1399'> +1.2120781e-12 </wgt>
<wgt id='1400'> +1.2201688e-12 </wgt>
<wgt id='1401'> +1.2290348e-12 </wgt>
<wgt id='1402'> +1.2465913e-12 </wgt>
<wgt id='1403'> +1.2551264e-12 </wgt>
<wgt id='1404'> +1.2633536e-12 </wgt>
<wgt id='1405'> +1.2377977e-12 </wgt>
<wgt id='1406'> +1.2337973e-12 </wgt>
<wgt id='1407'> +1.2360786e-12 </wgt>
<wgt id='1408'> +1.2394636e-12 </wgt>
<wgt id='1409'> +1.2417743e-12 </wgt>
<wgt id='1410'> +1.1985965e-12 </wgt>
<wgt id='1411'> +1.1973044e-12 </wgt>
<wgt id='1412'> +1.2002386e-12 </wgt>
<wgt id='1413'> +1.1970585e-12 </wgt>
<wgt id='1414'> +1.2001391e-12 </wgt>
<wgt id='1415'> +1.1899328e-12 </wgt>
<wgt id='1416'> +1.2020977e-12 </wgt>
<wgt id='1417'> +1.1919843e-12 </wgt>
<wgt id='1418'> +1.2051654e-12 </wgt>
<wgt id='1419'> +1.1998282e-12 </wgt>
<wgt id='1420'> +1.1974363e-12 </wgt>
<wgt id='1421'> +1.1889352e-12 </wgt>
<wgt id='1422'> +1.2027591e-12 </wgt>
<wgt id='1423'> +1.1999966e-12 </wgt>
<wgt id='1424'> +1.1968606e-12 </wgt>
<wgt id='1425'> +1.1932593e-12 </wgt>
<wgt id='1426'> +1.2043317e-12 </wgt>
<wgt id='1427'> +1.1842306e-12 </wgt>
<wgt id='1428'> +1.2063662e-12 </wgt>
<wgt id='1429'> +1.2007605e-12 </wgt>
<wgt id='1430'> +1.1958149e-12 </wgt>
<wgt id='1431'> +1.1983306e-12 </wgt>
<wgt id='1432'> +1.1987275e-12 </wgt>
<wgt id='1433'> +1.1889998e-12 </wgt>
<wgt id='1434'> +1.2062093e-12 </wgt>
<wgt id='1435'> +1.1974201e-12 </wgt>
<wgt id='1436'> +1.2018001e-12 </wgt>
<wgt id='1437'> +1.2037767e-12 </wgt>
<wgt id='1438'> +1.1996231e-12 </wgt>
<wgt id='1439'> +1.1924976e-12 </wgt>
<wgt id='1440'> +1.2117909e-12 </wgt>
<wgt id='1441'> +1.2077970e-12 </wgt>
<wgt id='1442'> +1.1807439e-12 </wgt>
<wgt id='1443'> +1.1944583e-12 </wgt>
<wgt id='1444'> +1.2087988e-12 </wgt>
<wgt id='1445'> +1.2021523e-12 </wgt>
<wgt id='1446'> +1.1985548e-12 </wgt>
<wgt id='1447'> +1.1980608e-12 </wgt>
<wgt id='1448'> +1.2022028e-12 </wgt>
<wgt id='1449'> +1.1989496e-12 </wgt>
<wgt id='1450'> +1.1980407e-12 </wgt>
<wgt id='1451'> +1.2089370e-12 </wgt>
<wgt id='1452'> +1.1792171e-12 </wgt>
<wgt id='1453'> +1.1994708e-12 </wgt>
<wgt id='1454'> +1.1973619e-12 </wgt>
<wgt id='1455'> +1.1934789e-12 </wgt>
<wgt id='1456'> +1.2044645e-12 </wgt>
<wgt id='1457'> +1.2092986e-12 </wgt>
<wgt id='1458'> +1.1941271e-12 </wgt>
<wgt id='1459'> +1.2041206e-12 </wgt>
<wgt id='1460'> +1.1955421e-12 </wgt>
<wgt id='1461'> +1.1985965e-12 </wgt>
<wgt id='1462'> +1.1921735e-12 </wgt>
<wgt id='1463'> +1.2085547e-12 </wgt>
<wgt id='1464'> +1.1996158e-12 </wgt>
<wgt id='1465'> +1.1605411e-12 </wgt>
<wgt id='1466'> +1.1691002e-12 </wgt>
<wgt id='1467'> +1.1775114e-12 </wgt>
<wgt id='1468'> +1.1842907e-12 </wgt>
<wgt id='1469'> +1.1924343e-12 </wgt>
<wgt id='1470'> +1.2070081e-12 </wgt>
<wgt id='1471'> +1.2122987e-12 </wgt>
<wgt id='1472'> +1.2194337e-12 </wgt>
<wgt id='1473'> +1.1996158e-12 </wgt>
<wgt id='1474'> +1.1954566e-12 </wgt>
<wgt id='1475'> +1.1968936e-12 </wgt>
<wgt id='1476'> +1.2013855e-12 </wgt>
<wgt id='1477'> +1.2030622e-12 </wgt>
<wgt id='1478'> +1.2370301e-12 </wgt>
<wgt id='1479'> +1.2369710e-12 </wgt>
<wgt id='1480'> +1.2418939e-12 </wgt>
<wgt id='1481'> +1.2423799e-12 </wgt>
<wgt id='1482'> +1.2394601e-12 </wgt>
<wgt id='1483'> +1.2116356e-12 </wgt>
<wgt id='1484'> +1.2360116e-12 </wgt>
<wgt id='1485'> +1.2526986e-12 </wgt>
<wgt id='1486'> +1.2366296e-12 </wgt>
<wgt id='1487'> +1.2422054e-12 </wgt>
<wgt id='1488'> +1.2344428e-12 </wgt>
<wgt id='1489'> +1.2423383e-12 </wgt>
<wgt id='1490'> +1.2321024e-12 </wgt>
<wgt id='1491'> +1.2459193e-12 </wgt>
<wgt id='1492'> +1.2353473e-12 </wgt>
<wgt id='1493'> +1.2126539e-12 </wgt>
<wgt id='1494'> +1.2403924e-12 </wgt>
<wgt id='1495'> +1.2344218e-12 </wgt>
<wgt id='1496'> +1.2391922e-12 </wgt>
<wgt id='1497'> +1.2284312e-12 </wgt>
<wgt id='1498'> +1.2369407e-12 </wgt>
<wgt id='1499'> +1.2398269e-12 </wgt>
<wgt id='1500'> +1.2379387e-12 </wgt>
<wgt id='1501'> +1.2366260e-12 </wgt>
<wgt id='1502'> +1.2392520e-12 </wgt>
<wgt id='1503'> +1.2410565e-12 </wgt>
<wgt id='1504'> +1.2181793e-12 </wgt>
<wgt id='1505'> +1.2408324e-12 </wgt>
<wgt id='1506'> +1.2377430e-12 </wgt>
<wgt id='1507'> +1.2366348e-12 </wgt>
<wgt id='1508'> +1.2430472e-12 </wgt>
<wgt id='1509'> +1.2963384e-12 </wgt>
<wgt id='1510'> +1.2958968e-12 </wgt>
<wgt id='1511'> +1.2934128e-12 </wgt>
<wgt id='1512'> +1.2908425e-12 </wgt>
<wgt id='1513'> +1.2996064e-12 </wgt>
<wgt id='1514'> +1.3007275e-12 </wgt>
<wgt id='1515'> +1.2958968e-12 </wgt>
<wgt id='1516'> +1.3033669e-12 </wgt>
<wgt id='1517'> +1.2998690e-12 </wgt>
<wgt id='1518'> +1.2999064e-12 </wgt>
<wgt id='1519'> +1.2883387e-12 </wgt>
<wgt id='1520'> +1.2912963e-12 </wgt>
<wgt id='1521'> +1.3038225e-12 </wgt>
<wgt id='1522'> +1.2930745e-12 </wgt>
<wgt id='1523'> +1.3055172e-12 </wgt>
<wgt id='1524'> +1.3037729e-12 </wgt>
<wgt id='1525'> +1.3062810e-12 </wgt>
<wgt id='1526'> +1.2908355e-12 </wgt>
<wgt id='1527'> +1.2926587e-12 </wgt>
<wgt id='1528'> +1.2938411e-12 </wgt>
<wgt id='1529'> +1.2970785e-12 </wgt>
<wgt id='1530'> +1.3024383e-12 </wgt>
<wgt id='1531'> +1.2990194e-12 </wgt>
<wgt id='1532'> +1.2859742e-12 </wgt>
<wgt id='1533'> +1.2998883e-12 </wgt>
<wgt id='1534'> +1.2980343e-12 </wgt>
<wgt id='1535'> +1.2922002e-12 </wgt>
<wgt id='1536'> +1.3003379e-12 </wgt>
<wgt id='1537'> +1.2978620e-12 </wgt>
<wgt id='1538'> +1.2926100e-12 </wgt>
<wgt id='1539'> +1.2836495e-12 </wgt>
<wgt id='1540'> +1.3010723e-12 </wgt>
<wgt id='1541'> +1.2970737e-12 </wgt>
<wgt id='1542'> +1.3054564e-12 </wgt>
<wgt id='1543'> +1.2983120e-12 </wgt>
<wgt id='1544'> +1.3007652e-12 </wgt>
<wgt id='1545'> +1.2953885e-12 </wgt>
<wgt id='1546'> +1.2900822e-12 </wgt>
<wgt id='1547'> +1.2981471e-12 </wgt>
<wgt id='1548'> +1.2932565e-12 </wgt>
<wgt id='1549'> +1.2976171e-12 </wgt>
<wgt id='1550'> +1.2939181e-12 </wgt>
<wgt id='1551'> +1.2954912e-12 </wgt>
<wgt id='1552'> +1.2946933e-12 </wgt>
<wgt id='1553'> +1.2973616e-12 </wgt>
<wgt id='1554'> +1.2965132e-12 </wgt>
<wgt id='1555'> +1.2944237e-12 </wgt>
<wgt id='1556'> +1.2938997e-12 </wgt>
<wgt id='1557'> +1.2974547e-12 </wgt>
<wgt id='1558'> +1.2984013e-12 </wgt>
<wgt id='1559'> +1.2994406e-12 </wgt>
<wgt id='1560'> +1.2957953e-12 </wgt>
<wgt id='1561'> +1.2965798e-12 </wgt>
<wgt id='1562'> +1.2961352e-12 </wgt>
<wgt id='1563'> +1.2953714e-12 </wgt>
<wgt id='1564'> +1.2960128e-12 </wgt>
<wgt id='1565'> +1.2958214e-12 </wgt>
<wgt id='1566'> +1.2963953e-12 </wgt>
<wgt id='1567'> +1.2960974e-12 </wgt>
<wgt id='1568'> +1.2964404e-12 </wgt>
<wgt id='1569'> +1.2965254e-12 </wgt>
<wgt id='1570'> +1.2943800e-12 </wgt>
<wgt id='1571'> +1.2974302e-12 </wgt>
<wgt id='1572'> +1.2968693e-12 </wgt>
<wgt id='1573'> +1.2967798e-12 </wgt>
<wgt id='1574'> +1.2973723e-12 </wgt>
<wgt id='1575'> +1.2946487e-12 </wgt>
<wgt id='1576'> +1.2961780e-12 </wgt>
<wgt id='1577'> +1.2966587e-12 </wgt>
<wgt id='1578'> +1.2937867e-12 </wgt>
<wgt id='1579'> +1.2974831e-12 </wgt>
<wgt id='1580'> +1.2918325e-12 </wgt>
<wgt id='1581'> +1.2979877e-12 </wgt>
<wgt id='1582'> +1.2952230e-12 </wgt>
<wgt id='1583'> +1.2973626e-12 </wgt>
<wgt id='1584'> +1.2940012e-12 </wgt>
<wgt id='1585'> +1.2950431e-12 </wgt>
<wgt id='1586'> +1.2941398e-12 </wgt>
<wgt id='1587'> +1.2954844e-12 </wgt>
<wgt id='1588'> +1.2957366e-12 </wgt>
<wgt id='1589'> +1.2955550e-12 </wgt>
<wgt id='1590'> +1.2968990e-12 </wgt>
<wgt id='1591'> +1.2949631e-12 </wgt>
<wgt id='1592'> +1.2963578e-12 </wgt>
<wgt id='1593'> +1.2965939e-12 </wgt>
<wgt id='1594'> +1.2961396e-12 </wgt>
<wgt id='1595'> +1.2954564e-12 </wgt>
<wgt id='1596'> +1.2965159e-12 </wgt>
<wgt id='1597'> +1.2958237e-12 </wgt>
<wgt id='1598'> +1.2967601e-12 </wgt>
<wgt id='1599'> +1.2969027e-12 </wgt>
<wgt id='1600'> +1.2961796e-12 </wgt>
<wgt id='1601'> +1.2962441e-12 </wgt>
<wgt id='1602'> +1.2964187e-12 </wgt>
<wgt id='1603'> +1.2962660e-12 </wgt>
<wgt id='1604'> +1.2976506e-12 </wgt>
<wgt id='1605'> +1.2965800e-12 </wgt>
<wgt id='1606'> +1.2955144e-12 </wgt>
<wgt id='1607'> +1.2967332e-12 </wgt>
<wgt id='1608'> +1.2971023e-12 </wgt>
<wgt id='1609'> +1.2968857e-12 </wgt>
<wgt id='1610'> +1.2976356e-12 </wgt>
<wgt id='1611'> +1.3063309e-12 </wgt>
<wgt id='1612'> +1.5306143e-12 </wgt>
<wgt id='1613'> +1.5570893e-12 </wgt>
<wgt id='1614'> +1.5288635e-12 </wgt>
<wgt id='1615'> +1.5119413e-12 </wgt>
<wgt id='1616'> +1.5256887e-12 </wgt>
<wgt id='1617'> +1.5858716e-12 </wgt>
<wgt id='1618'> +1.5897661e-12 </wgt>
<wgt id='1619'> +1.5207736e-12 </wgt>
<wgt id='1620'> +1.5029066e-12 </wgt>
<wgt id='1621'> +1.5498312e-12 </wgt>
<wgt id='1622'> +1.5202199e-12 </wgt>
<wgt id='1623'> +1.4728021e-12 </wgt>
<wgt id='1624'> +1.5434558e-12 </wgt>
<wgt id='1625'> +1.5751818e-12 </wgt>
<wgt id='1626'> +1.4715655e-12 </wgt>
<wgt id='1627'> +1.5078356e-12 </wgt>
<wgt id='1628'> +1.5759591e-12 </wgt>
<wgt id='1629'> +1.5793685e-12 </wgt>
<wgt id='1630'> +1.5269885e-12 </wgt>
<wgt id='1631'> +1.5669527e-12 </wgt>
<wgt id='1632'> +1.5017844e-12 </wgt>
<wgt id='1633'> +1.4802534e-12 </wgt>
<wgt id='1634'> +1.4999382e-12 </wgt>
<wgt id='1635'> +1.5330734e-12 </wgt>
<wgt id='1636'> +1.6034530e-12 </wgt>
<wgt id='1637'> +1.5248658e-12 </wgt>
<wgt id='1638'> +1.4816240e-12 </wgt>
<wgt id='1639'> +1.5290579e-12 </wgt>
<wgt id='1640'> +1.4773148e-12 </wgt>
<wgt id='1641'> +1.5331407e-12 </wgt>
<wgt id='1642'> +1.4729010e-12 </wgt>
<wgt id='1643'> +1.6092050e-12 </wgt>
<wgt id='1644'> +1.4854890e-12 </wgt>
<wgt id='1645'> +1.5174770e-12 </wgt>
<wgt id='1646'> +1.5031451e-12 </wgt>
<wgt id='1647'> +1.5313387e-12 </wgt>
<wgt id='1648'> +1.5468774e-12 </wgt>
<wgt id='1649'> +1.6304869e-12 </wgt>
<wgt id='1650'> +1.5110277e-12 </wgt>
<wgt id='1651'> +1.5158053e-12 </wgt>
<wgt id='1652'> +1.5042028e-12 </wgt>
<wgt id='1653'> +1.5718757e-12 </wgt>
<wgt id='1654'> +1.5653796e-12 </wgt>
<wgt id='1655'> +1.5624695e-12 </wgt>
<wgt id='1656'> +1.5009632e-12 </wgt>
<wgt id='1657'> +1.5382120e-12 </wgt>
<wgt id='1658'> +1.4714914e-12 </wgt>
<wgt id='1659'> +1.5434558e-12 </wgt>
<wgt id='1660'> +1.5928266e-12 </wgt>
<wgt id='1661'> +1.5055823e-12 </wgt>
<wgt id='1662'> +1.4875442e-12 </wgt>
<wgt id='1663'> +1.5114270e-12 </wgt>
<wgt id='1664'> +1.5254699e-12 </wgt>
<wgt id='1665'> +1.3831381e-12 </wgt>
<wgt id='1666'> +1.4998178e-12 </wgt>
<wgt id='1667'> +1.5825294e-12 </wgt>
<wgt id='1668'> +1.5450933e-12 </wgt>
<wgt id='1669'> +1.5647354e-12 </wgt>
<wgt id='1670'> +1.5230180e-12 </wgt>
<wgt id='1671'> +1.4692518e-12 </wgt>
<wgt id='1672'> +1.5285502e-12 </wgt>
<wgt id='1673'> +1.5450639e-12 </wgt>
<wgt id='1674'> +1.5214240e-12 </wgt>
<wgt id='1675'> +1.5508550e-12 </wgt>
<wgt id='1676'> +1.5866124e-12 </wgt>
<wgt id='1677'> +1.5348399e-12 </wgt>
<wgt id='1678'> +1.4758088e-12 </wgt>
<wgt id='1679'> +1.5533806e-12 </wgt>
<wgt id='1680'> +1.5526007e-12 </wgt>
<wgt id='1681'> +1.5202356e-12 </wgt>
<wgt id='1682'> +1.5146291e-12 </wgt>
<wgt id='1683'> +1.5122424e-12 </wgt>
<wgt id='1684'> +1.5143130e-12 </wgt>
<wgt id='1685'> +1.5272444e-12 </wgt>
<wgt id='1686'> +1.5313809e-12 </wgt>
<wgt id='1687'> +1.5650332e-12 </wgt>
<wgt id='1688'> +1.4804077e-12 </wgt>
<wgt id='1689'> +1.5098840e-12 </wgt>
<wgt id='1690'> +1.4982879e-12 </wgt>
<wgt id='1691'> +1.5123920e-12 </wgt>
<wgt id='1692'> +1.5388394e-12 </wgt>
<wgt id='1693'> +1.5491832e-12 </wgt>
<wgt id='1694'> +1.5626519e-12 </wgt>
<wgt id='1695'> +1.4880105e-12 </wgt>
<wgt id='1696'> +1.5218555e-12 </wgt>
<wgt id='1697'> +1.5559070e-12 </wgt>
<wgt id='1698'> +1.5001105e-12 </wgt>
<wgt id='1699'> +1.6035711e-12 </wgt>
<wgt id='1700'> +1.4987923e-12 </wgt>
<wgt id='1701'> +1.5368273e-12 </wgt>
<wgt id='1702'> +1.5804031e-12 </wgt>
<wgt id='1703'> +1.5442442e-12 </wgt>
<wgt id='1704'> +1.5707685e-12 </wgt>
<wgt id='1705'> +1.4616770e-12 </wgt>
<wgt id='1706'> +1.6047780e-12 </wgt>
<wgt id='1707'> +1.5143055e-12 </wgt>
<wgt id='1708'> +1.6068570e-12 </wgt>
<wgt id='1709'> +1.5225269e-12 </wgt>
<wgt id='1710'> +1.5369586e-12 </wgt>
<wgt id='1711'> +1.5142173e-12 </wgt>
<wgt id='1712'> +1.5575056e-12 </wgt>
<wgt id='1713'> +1.2354700e-12 </wgt>
<wgt id='1714'> +1.1681839e-12 </wgt>
<wgt id='1715'> +1.2194960e-12 </wgt>
<wgt id='1716'> +1.2852262e-12 </wgt>
<wgt id='1717'> +1.2574488e-12 </wgt>
<wgt id='1718'> +1.2482749e-12 </wgt>
<wgt id='1719'> +1.1936230e-12 </wgt>
<wgt id='1720'> +1.2432280e-12 </wgt>
<wgt id='1721'> +1.2447665e-12 </wgt>
<wgt id='1722'> +1.2492501e-12 </wgt>
<wgt id='1723'> +1.2335231e-12 </wgt>
<wgt id='1724'> +1.1985596e-12 </wgt>
<wgt id='1725'> +1.2506613e-12 </wgt>
<wgt id='1726'> +1.2655167e-12 </wgt>
<wgt id='1727'> +1.2552928e-12 </wgt>
<wgt id='1728'> +1.2175260e-12 </wgt>
<wgt id='1729'> +1.2192112e-12 </wgt>
<wgt id='1730'> +1.1953622e-12 </wgt>
<wgt id='1731'> +1.1834444e-12 </wgt>
<wgt id='1732'> +1.2064445e-12 </wgt>
<wgt id='1733'> +1.2648967e-12 </wgt>
<wgt id='1734'> +1.2862949e-12 </wgt>
<wgt id='1735'> +1.2479513e-12 </wgt>
<wgt id='1736'> +1.2703767e-12 </wgt>
<wgt id='1737'> +1.2917620e-12 </wgt>
<wgt id='1738'> +1.2557613e-12 </wgt>
<wgt id='1739'> +1.2266027e-12 </wgt>
<wgt id='1740'> +1.1864380e-12 </wgt>
<wgt id='1741'> +1.2651682e-12 </wgt>
<wgt id='1742'> +1.2185870e-12 </wgt>
<wgt id='1743'> +1.2776511e-12 </wgt>
<wgt id='1744'> +1.2970475e-12 </wgt>
<wgt id='1745'> +1.2225059e-12 </wgt>
<wgt id='1746'> +1.2449526e-12 </wgt>
<wgt id='1747'> +1.2595388e-12 </wgt>
<wgt id='1748'> +1.2698202e-12 </wgt>
<wgt id='1749'> +1.2216267e-12 </wgt>
<wgt id='1750'> +1.2423509e-12 </wgt>
<wgt id='1751'> +1.1769196e-12 </wgt>
<wgt id='1752'> +1.1933308e-12 </wgt>
<wgt id='1753'> +1.2635809e-12 </wgt>
<wgt id='1754'> +1.2103879e-12 </wgt>
<wgt id='1755'> +1.2044307e-12 </wgt>
<wgt id='1756'> +1.2587313e-12 </wgt>
<wgt id='1757'> +1.2403557e-12 </wgt>
<wgt id='1758'> +1.2621190e-12 </wgt>
<wgt id='1759'> +1.1965787e-12 </wgt>
<wgt id='1760'> +1.1917672e-12 </wgt>
<wgt id='1761'> +1.2215495e-12 </wgt>
<wgt id='1762'> +1.2620552e-12 </wgt>
<wgt id='1763'> +1.2557845e-12 </wgt>
<wgt id='1764'> +1.2627272e-12 </wgt>
<wgt id='1765'> +1.2362338e-12 </wgt>
<wgt id='1766'> +1.2402852e-12 </wgt>
<wgt id='1767'> +1.2285398e-12 </wgt>
<wgt id='1768'> +1.2472328e-12 </wgt>
<wgt id='1769'> +1.2054895e-12 </wgt>
<wgt id='1770'> +1.2454301e-12 </wgt>
<wgt id='1771'> +1.2537491e-12 </wgt>
<wgt id='1772'> +1.2431712e-12 </wgt>
<wgt id='1773'> +1.2540030e-12 </wgt>
<wgt id='1774'> +1.2322494e-12 </wgt>
<wgt id='1775'> +1.2466374e-12 </wgt>
<wgt id='1776'> +1.2340245e-12 </wgt>
<wgt id='1777'> +1.1996636e-12 </wgt>
<wgt id='1778'> +1.2465184e-12 </wgt>
<wgt id='1779'> +1.2677792e-12 </wgt>
<wgt id='1780'> +1.2187257e-12 </wgt>
<wgt id='1781'> +1.2295174e-12 </wgt>
<wgt id='1782'> +1.2133727e-12 </wgt>
<wgt id='1783'> +1.2577437e-12 </wgt>
<wgt id='1784'> +1.2191068e-12 </wgt>
<wgt id='1785'> +1.2055384e-12 </wgt>
<wgt id='1786'> +1.2031186e-12 </wgt>
<wgt id='1787'> +1.2790808e-12 </wgt>
<wgt id='1788'> +1.1997214e-12 </wgt>
<wgt id='1789'> +1.2815801e-12 </wgt>
<wgt id='1790'> +1.2592110e-12 </wgt>
<wgt id='1791'> +1.2304198e-12 </wgt>
<wgt id='1792'> +1.2115627e-12 </wgt>
<wgt id='1793'> +1.2697456e-12 </wgt>
<wgt id='1794'> +1.2556029e-12 </wgt>
<wgt id='1795'> +1.2669605e-12 </wgt>
<wgt id='1796'> +1.1951585e-12 </wgt>
<wgt id='1797'> +1.2554900e-12 </wgt>
<wgt id='1798'> +1.2310455e-12 </wgt>
<wgt id='1799'> +1.2364583e-12 </wgt>
<wgt id='1800'> +1.2528059e-12 </wgt>
<wgt id='1801'> +1.2159282e-12 </wgt>
<wgt id='1802'> +1.2175593e-12 </wgt>
<wgt id='1803'> +1.2656366e-12 </wgt>
<wgt id='1804'> +1.2484718e-12 </wgt>
<wgt id='1805'> +1.2622773e-12 </wgt>
<wgt id='1806'> +1.2189787e-12 </wgt>
<wgt id='1807'> +1.2009575e-12 </wgt>
<wgt id='1808'> +1.1956431e-12 </wgt>
<wgt id='1809'> +1.1966110e-12 </wgt>
<wgt id='1810'> +1.2192899e-12 </wgt>
<wgt id='1811'> +1.2514031e-12 </wgt>
<wgt id='1812'> +1.2410763e-12 </wgt>
<wgt id='1813'> +1.1809331e-12 </wgt>
<wgt id='1814'> +1.5481553e-12 </wgt>
<wgt id='1815'> +1.7922862e-12 </wgt>
<wgt id='1816'> +1.2354700e-12 </wgt>
<wgt id='1817'> +1.1681839e-12 </wgt>
<wgt id='1818'> +1.2194960e-12 </wgt>
<wgt id='1819'> +1.2852262e-12 </wgt>
<wgt id='1820'> +1.2574488e-12 </wgt>
<wgt id='1821'> +1.2482749e-12 </wgt>
<wgt id='1822'> +1.1936230e-12 </wgt>
<wgt id='1823'> +1.2432280e-12 </wgt>
<wgt id='1824'> +1.2447665e-12 </wgt>
<wgt id='1825'> +1.2492501e-12 </wgt>
<wgt id='1826'> +1.2335231e-12 </wgt>
<wgt id='1827'> +1.1985596e-12 </wgt>
<wgt id='1828'> +1.2506613e-12 </wgt>
<wgt id='1829'> +1.2655167e-12 </wgt>
<wgt id='1830'> +1.2552928e-12 </wgt>
<wgt id='1831'> +1.2175260e-12 </wgt>
<wgt id='1832'> +1.2192112e-12 </wgt>
<wgt id='1833'> +1.1953622e-12 </wgt>
<wgt id='1834'> +1.1834444e-12 </wgt>
<wgt id='1835'> +1.2064445e-12 </wgt>
<wgt id='1836'> +1.2648967e-12 </wgt>
<wgt id='1837'> +1.2862949e-12 </wgt>
<wgt id='1838'> +1.2479513e-12 </wgt>
<wgt id='1839'> +1.2703767e-12 </wgt>
<wgt id='1840'> +1.2917620e-12 </wgt>
<wgt id='1841'> +1.2557613e-12 </wgt>
<wgt id='1842'> +1.2266027e-12 </wgt>
<wgt id='1843'> +1.1864380e-12 </wgt>
<wgt id='1844'> +1.2651682e-12 </wgt>
<wgt id='1845'> +1.2185870e-12 </wgt>
<wgt id='1846'> +1.2776511e-12 </wgt>
<wgt id='1847'> +1.2970475e-12 </wgt>
<wgt id='1848'> +1.2225059e-12 </wgt>
<wgt id='1849'> +1.2449526e-12 </wgt>
<wgt id='1850'> +1.2595388e-12 </wgt>
<wgt id='1851'> +1.2698202e-12 </wgt>
<wgt id='1852'> +1.2216267e-12 </wgt>
<wgt id='1853'> +1.2423509e-12 </wgt>
<wgt id='1854'> +1.1769196e-12 </wgt>
<wgt id='1855'> +1.1933308e-12 </wgt>
<wgt id='1856'> +1.2635809e-12 </wgt>
<wgt id='1857'> +1.2103879e-12 </wgt>
<wgt id='1858'> +1.2044307e-12 </wgt>
<wgt id='1859'> +1.2587313e-12 </wgt>
<wgt id='1860'> +1.2403557e-12 </wgt>
<wgt id='1861'> +1.2621190e-12 </wgt>
<wgt id='1862'> +1.1965787e-12 </wgt>
<wgt id='1863'> +1.1917672e-12 </wgt>
<wgt id='1864'> +1.2215495e-12 </wgt>
<wgt id='1865'> +1.2620552e-12 </wgt>
<wgt id='1866'> +1.2557845e-12 </wgt>
<wgt id='1867'> +1.2627272e-12 </wgt>
<wgt id='1868'> +1.2362338e-12 </wgt>
<wgt id='1869'> +1.2402852e-12 </wgt>
<wgt id='1870'> +1.2285398e-12 </wgt>
<wgt id='1871'> +1.2472328e-12 </wgt>
<wgt id='1872'> +1.2054895e-12 </wgt>
<wgt id='1873'> +1.2454301e-12 </wgt>
<wgt id='1874'> +1.2537491e-12 </wgt>
<wgt id='1875'> +1.2431712e-12 </wgt>
<wgt id='1876'> +1.2540030e-12 </wgt>
<wgt id='1877'> +1.2322494e-12 </wgt>
<wgt id='1878'> +1.2466374e-12 </wgt>
<wgt id='1879'> +1.2340245e-12 </wgt>
<wgt id='1880'> +1.1996636e-12 </wgt>
<wgt id='1881'> +1.2465184e-12 </wgt>
<wgt id='1882'> +1.2677792e-12 </wgt>
<wgt id='1883'> +1.2187257e-12 </wgt>
<wgt id='1884'> +1.2295174e-12 </wgt>
<wgt id='1885'> +1.2133727e-12 </wgt>
<wgt id='1886'> +1.2577437e-12 </wgt>
<wgt id='1887'> +1.2191068e-12 </wgt>
<wgt id='1888'> +1.2055384e-12 </wgt>
<wgt id='1889'> +1.2031186e-12 </wgt>
<wgt id='1890'> +1.2790808e-12 </wgt>
<wgt id='1891'> +1.1997214e-12 </wgt>
<wgt id='1892'> +1.2815801e-12 </wgt>
<wgt id='1893'> +1.2592110e-12 </wgt>
<wgt id='1894'> +1.2304198e-12 </wgt>
<wgt id='1895'> +1.2115627e-12 </wgt>
<wgt id='1896'> +1.2697456e-12 </wgt>
<wgt id='1897'> +1.2556029e-12 </wgt>
<wgt id='1898'> +1.2669605e-12 </wgt>
<wgt id='1899'> +1.1951585e-12 </wgt>
<wgt id='1900'> +1.2554900e-12 </wgt>
<wgt id='1901'> +1.2310455e-12 </wgt>
<wgt id='1902'> +1.2364583e-12 </wgt>
<wgt id='1903'> +1.2528059e-12 </wgt>
<wgt id='1904'> +1.2159282e-12 </wgt>
<wgt id='1905'> +1.2175593e-12 </wgt>
<wgt id='1906'> +1.2656366e-12 </wgt>
<wgt id='1907'> +1.2484718e-12 </wgt>
<wgt id='1908'> +1.2622773e-12 </wgt>
<wgt id='1909'> +1.2189787e-12 </wgt>
<wgt id='1910'> +1.2009575e-12 </wgt>
<wgt id='1911'> +1.1956431e-12 </wgt>
<wgt id='1912'> +1.1966110e-12 </wgt>
<wgt id='1913'> +1.2192899e-12 </wgt>
<wgt id='1914'> +1.2514031e-12 </wgt>
<wgt id='1915'> +1.2410763e-12 </wgt>
<wgt id='1916'> +1.1809331e-12 </wgt>
<wgt id='1917'> +1.2284705e-12 </wgt>
<wgt id='1918'> +1.2445279e-12 </wgt>
<wgt id='1919'> +1.2364043e-12 </wgt>
</rwgt>
</event>
<event>
 9      1 +1.5607000e-12 2.97375100e+01 7.81860800e-03 1.45230900e-01
       21 -1    0    0  501  502 +0.0000000000e+00 +0.0000000000e+00 +9.3951819711e-01 9.3951819711e-01 0.0000000000e+00 0.0000e+00 -1.0000e+00
        2 -1    0    0  502    0 -0.0000000000e+00 -0.0000000000e+00 -9.0607904835e+02 9.0607904835e+02 0.0000000000e+00 0.0000e+00 -1.0000e+00
     1023  2    1    2    0    0 +2.2463722952e+01 -1.2437103667e+01 -6.2424336853e+02 6.2495128023e+02 1.5000636971e+01 0.0000e+00 0.0000e+00
  1000023  2    3    3    0    0 +5.9699933612e+00 -9.0347924622e+00 -2.6759130956e+02 2.6786682243e+02 5.5006643791e+00 0.0000e+00 0.0000e+00
        2  1    1    2  501    0 -2.2463722952e+01 +1.2437103667e+01 -2.8089616163e+02 2.8206728633e+02 0.0000000000e+00 0.0000e+00 -1.0000e+00
  1000022  1    4    4    0    0 +5.9420237632e+00 -8.6855332792e+00 -2.6263273423e+02 2.6289104059e+02 5.0000000000e+00 0.0000e+00 -1.0000e+00
      -13  1    4    4    0    0 -9.6052861130e-03 -1.9397844168e-01 -2.8069756291e+00 2.8156712468e+00 1.0570000000e-01 0.0000e+00 -1.0000e+00
       13  1    4    4    0    0 +3.7574884107e-02 -1.5528074128e-01 -2.1515997066e+00 2.1601105917e+00 1.0570000000e-01 0.0000e+00 1.0000e+00
  1000022  1    3    3    0    0 +1.6493729590e+01 -3.4023112051e+00 -3.5665205896e+02 3.5708445780e+02 5.0000000000e+00 0.0000e+00 -1.0000e+00
<mgrwt>
<rscale>  1 0.29737510E+02</rscale>
<asrwt>0</asrwt>
<pdfrwt beam="1">  1       21 0.14454062E-03 0.29737510E+02</pdfrwt>
<pdfrwt beam="2">  1        2 0.13939739E+00 0.29737510E+02</pdfrwt>
<totfact> 0.16227580E+07</totfact>
</mgrwt>
<rwgt>
<wgt id='1001'> +1.5607000e-12 </wgt>
<wgt id='1002'> +1.6461443e-12 </wgt>
<wgt id='1003'> +1.6500105e-12 </wgt>
<wgt id='1004'> +1.5466073e-12 </wgt>
<wgt id='1005'> +1.6556317e-12 </wgt>
<wgt id='1006'> +1.3653072e-12 </wgt>
<wgt id='1007'> +1.4609434e-12 </wgt>
<wgt id='1008'> +1.4654908e-12 </wgt>
<wgt id='1009'> +1.3502377e-12 </wgt>
<wgt id='1010'> +1.4721685e-12 </wgt>
<wgt id='1011'> +1.8245935e-12 </wgt>
<wgt id='1012'> +1.8874565e-12 </wgt>
<wgt id='1013'> +1.8899771e-12 </wgt>
<wgt id='1014'> +1.8132111e-12 </wgt>
<wgt id='1015'> +1.8935685e-12 </wgt>
<wgt id='1016'> +1.8947699e-12 </wgt>
<wgt id='1017'> +1.9164964e-12 </wgt>
<wgt id='1018'> +1.9170045e-12 </wgt>
<wgt id='1019'> +1.8899771e-12 </wgt>
<wgt id='1020'> +1.9176486e-12 </wgt>
<wgt id='1021'> +1.6575530e-12 </wgt>
<wgt id='1022'> +1.7008792e-12 </wgt>
<wgt id='1023'> +1.7026269e-12 </wgt>
<wgt id='1024'> +1.6500105e-12 </wgt>
<wgt id='1025'> +1.7051508e-12 </wgt>
<wgt id='1026'> +2.2151502e-12 </wgt>
<wgt id='1027'> +2.1974401e-12 </wgt>
<wgt id='1028'> +2.1958009e-12 </wgt>
<wgt id='1029'> +2.2157709e-12 </wgt>
<wgt id='1030'> +2.1932407e-12 </wgt>
<wgt id='1031'> +1.1910389e-12 </wgt>
<wgt id='1032'> +1.3427249e-12 </wgt>
<wgt id='1033'> +1.3502377e-12 </wgt>
<wgt id='1034'> +1.1679861e-12 </wgt>
<wgt id='1035'> +1.3614263e-12 </wgt>
<wgt id='1036'> +1.0419261e-12 </wgt>
<wgt id='1037'> +1.1916604e-12 </wgt>
<wgt id='1038'> +1.1992413e-12 </wgt>
<wgt id='1039'> +1.0196893e-12 </wgt>
<wgt id='1040'> +1.2105644e-12 </wgt>
<wgt id='1041'> +1.3924277e-12 </wgt>
<wgt id='1042'> +1.5395581e-12 </wgt>
<wgt id='1043'> +1.5466073e-12 </wgt>
<wgt id='1044'> +1.3693233e-12 </wgt>
<wgt id='1045'> +1.5570817e-12 </wgt>
<wgt id='1046'> +1.5607000e-12 </wgt>
<wgt id='1047'> +1.5653630e-12 </wgt>
<wgt id='1048'> +1.6393921e-12 </wgt>
<wgt id='1049'> +1.5153475e-12 </wgt>
<wgt id='1050'> +1.5328462e-12 </wgt>
<wgt id='1051'> +1.5195053e-12 </wgt>
<wgt id='1052'> +1.5298529e-12 </wgt>
<wgt id='1053'> +1.6363294e-12 </wgt>
<wgt id='1054'> +1.5967075e-12 </wgt>
<wgt id='1055'> +1.5335722e-12 </wgt>
<wgt id='1056'> +1.4704481e-12 </wgt>
<wgt id='1057'> +1.5456621e-12 </wgt>
<wgt id='1058'> +1.5176268e-12 </wgt>
<wgt id='1059'> +1.5723483e-12 </wgt>
<wgt id='1060'> +1.5784735e-12 </wgt>
<wgt id='1061'> +1.5929385e-12 </wgt>
<wgt id='1062'> +1.5323328e-12 </wgt>
<wgt id='1063'> +1.4791041e-12 </wgt>
<wgt id='1064'> +1.5547556e-12 </wgt>
<wgt id='1065'> +1.6055006e-12 </wgt>
<wgt id='1066'> +1.5646122e-12 </wgt>
<wgt id='1067'> +1.6011751e-12 </wgt>
<wgt id='1068'> +1.6212826e-12 </wgt>
<wgt id='1069'> +1.6344116e-12 </wgt>
<wgt id='1070'> +1.5497044e-12 </wgt>
<wgt id='1071'> +1.5725030e-12 </wgt>
<wgt id='1072'> +1.5682336e-12 </wgt>
<wgt id='1073'> +1.5326914e-12 </wgt>
<wgt id='1074'> +1.5697983e-12 </wgt>
<wgt id='1075'> +1.5292370e-12 </wgt>
<wgt id='1076'> +1.5733445e-12 </wgt>
<wgt id='1077'> +1.5799683e-12 </wgt>
<wgt id='1078'> +1.5504058e-12 </wgt>
<wgt id='1079'> +1.5765504e-12 </wgt>
<wgt id='1080'> +1.5401106e-12 </wgt>
<wgt id='1081'> +1.5142767e-12 </wgt>
<wgt id='1082'> +1.5723463e-12 </wgt>
<wgt id='1083'> +1.5417460e-12 </wgt>
<wgt id='1084'> +1.5509469e-12 </wgt>
<wgt id='1085'> +1.6012185e-12 </wgt>
<wgt id='1086'> +1.6289362e-12 </wgt>
<wgt id='1087'> +1.5385360e-12 </wgt>
<wgt id='1088'> +1.5538581e-12 </wgt>
<wgt id='1089'> +1.5241456e-12 </wgt>
<wgt id='1090'> +1.5627377e-12 </wgt>
<wgt id='1091'> +1.5832772e-12 </wgt>
<wgt id='1092'> +1.5393074e-12 </wgt>
<wgt id='1093'> +1.6064295e-12 </wgt>
<wgt id='1094'> +1.5900329e-12 </wgt>
<wgt id='1095'> +1.6109163e-12 </wgt>
<wgt id='1096'> +1.4969258e-12 </wgt>
<wgt id='1097'> +1.5790269e-12 </wgt>
<wgt id='1098'> +1.5954120e-12 </wgt>
<wgt id='1099'> +1.5576593e-12 </wgt>
<wgt id='1100'> +1.5997262e-12 </wgt>
<wgt id='1101'> +1.5665019e-12 </wgt>
<wgt id='1102'> +1.5094905e-12 </wgt>
<wgt id='1103'> +1.5148654e-12 </wgt>
<wgt id='1104'> +1.5664665e-12 </wgt>
<wgt id='1105'> +1.4987315e-12 </wgt>
<wgt id='1106'> +1.5439312e-12 </wgt>
<wgt id='1107'> +1.6231982e-12 </wgt>
<wgt id='1108'> +1.5426581e-12 </wgt>
<wgt id='1109'> +1.5514208e-12 </wgt>
<wgt id='1110'> +1.5564081e-12 </wgt>
<wgt id='1111'> +1.5705803e-12 </wgt>
<wgt id='1112'> +1.5937912e-12 </wgt>
<wgt id='1113'> +1.6503051e-12 </wgt>
<wgt id='1114'> +1.5959011e-12 </wgt>
<wgt id='1115'> +1.6030459e-12 </wgt>
<wgt id='1116'> +1.6515648e-12 </wgt>
<wgt id='1117'> +1.5548667e-12 </wgt>
<wgt id='1118'> +1.5749154e-12 </wgt>
<wgt id='1119'> +1.5124596e-12 </wgt>
<wgt id='1120'> +1.5608256e-12 </wgt>
<wgt id='1121'> +1.5182677e-12 </wgt>
<wgt id='1122'> +1.5347242e-12 </wgt>
<wgt id='1123'> +1.5938265e-12 </wgt>
<wgt id='1124'> +1.6174697e-12 </wgt>
<wgt id='1125'> +1.4883302e-12 </wgt>
<wgt id='1126'> +1.5308850e-12 </wgt>
<wgt id='1127'> +1.5615703e-12 </wgt>
<wgt id='1128'> +1.5323328e-12 </wgt>
<wgt id='1129'> +1.5384138e-12 </wgt>
<wgt id='1130'> +1.5453815e-12 </wgt>
<wgt id='1131'> +1.5939202e-12 </wgt>
<wgt id='1132'> +1.5742216e-12 </wgt>
<wgt id='1133'> +1.5501422e-12 </wgt>
<wgt id='1134'> +1.5288110e-12 </wgt>
<wgt id='1135'> +1.5010826e-12 </wgt>
<wgt id='1136'> +1.5183299e-12 </wgt>
<wgt id='1137'> +1.5604486e-12 </wgt>
<wgt id='1138'> +1.5448039e-12 </wgt>
<wgt id='1139'> +1.5560315e-12 </wgt>
<wgt id='1140'> +1.5787804e-12 </wgt>
<wgt id='1141'> +1.5441500e-12 </wgt>
<wgt id='1142'> +1.6074190e-12 </wgt>
<wgt id='1143'> +1.4833118e-12 </wgt>
<wgt id='1144'> +1.5628244e-12 </wgt>
<wgt id='1145'> +1.5722532e-12 </wgt>
<wgt id='1146'> +1.5579596e-12 </wgt>
<wgt id='1147'> +1.4307519e-12 </wgt>
<wgt id='1148'> +1.4585358e-12 </wgt>
<wgt id='1149'> +1.3703979e-12 </wgt>
<wgt id='1150'> +1.4442809e-12 </wgt>
<wgt id='1151'> +1.7490520e-12 </wgt>
<wgt id='1152'> +2.4934122e-12 </wgt>
<wgt id='1153'> +2.4987221e-12 </wgt>
<wgt id='1154'> +2.4902605e-12 </wgt>
<wgt id='1155'> +2.4875509e-12 </wgt>
<wgt id='1156'> +2.4964163e-12 </wgt>
<wgt id='1157'> +2.4982751e-12 </wgt>
<wgt id='1158'> +2.4868999e-12 </wgt>
<wgt id='1159'> +2.4972478e-12 </wgt>
<wgt id='1160'> +2.4909069e-12 </wgt>
<wgt id='1161'> +2.4877790e-12 </wgt>
<wgt id='1162'> +2.4973517e-12 </wgt>
<wgt id='1163'> +2.4921255e-12 </wgt>
<wgt id='1164'> +2.4947400e-12 </wgt>
<wgt id='1165'> +2.4968495e-12 </wgt>
<wgt id='1166'> +2.4900795e-12 </wgt>
<wgt id='1167'> +2.5307384e-12 </wgt>
<wgt id='1168'> +2.4493980e-12 </wgt>
<wgt id='1169'> +2.5048800e-12 </wgt>
<wgt id='1170'> +2.4849494e-12 </wgt>
<wgt id='1171'> +2.4856715e-12 </wgt>
<wgt id='1172'> +2.5034405e-12 </wgt>
<wgt id='1173'> +2.4616757e-12 </wgt>
<wgt id='1174'> +2.5268760e-12 </wgt>
<wgt id='1175'> +2.4978999e-12 </wgt>
<wgt id='1176'> +2.4895698e-12 </wgt>
<wgt id='1177'> +2.4888424e-12 </wgt>
<wgt id='1178'> +2.5045870e-12 </wgt>
<wgt id='1179'> +2.4857437e-12 </wgt>
<wgt id='1180'> +2.4956078e-12 </wgt>
<wgt id='1181'> +2.4985795e-12 </wgt>
<wgt id='1182'> +2.4869362e-12 </wgt>
<wgt id='1183'> +2.4927623e-12 </wgt>
<wgt id='1184'> +2.4933638e-12 </wgt>
<wgt id='1185'> +2.4862453e-12 </wgt>
<wgt id='1186'> +2.4964809e-12 </wgt>
<wgt id='1187'> +2.4978085e-12 </wgt>
<wgt id='1188'> +2.4918645e-12 </wgt>
<wgt id='1189'> +2.4844954e-12 </wgt>
<wgt id='1190'> +2.4656382e-12 </wgt>
<wgt id='1191'> +2.4967098e-12 </wgt>
<wgt id='1192'> +2.5079063e-12 </wgt>
<wgt id='1193'> +1.4324803e-12 </wgt>
<wgt id='1194'> +1.4095326e-12 </wgt>
<wgt id='1195'> +1.4513271e-12 </wgt>
<wgt id='1196'> +1.4288417e-12 </wgt>
<wgt id='1197'> +1.4365552e-12 </wgt>
<wgt id='1198'> +1.4314566e-12 </wgt>
<wgt id='1199'> +1.4340655e-12 </wgt>
<wgt id='1200'> +1.4288074e-12 </wgt>
<wgt id='1201'> +1.4349829e-12 </wgt>
<wgt id='1202'> +1.4315911e-12 </wgt>
<wgt id='1203'> +1.4337313e-12 </wgt>
<wgt id='1204'> +1.4267688e-12 </wgt>
<wgt id='1205'> +1.4357541e-12 </wgt>
<wgt id='1206'> +1.4356189e-12 </wgt>
<wgt id='1207'> +1.4281624e-12 </wgt>
<wgt id='1208'> +1.4423305e-12 </wgt>
<wgt id='1209'> +1.4290463e-12 </wgt>
<wgt id='1210'> +1.4421642e-12 </wgt>
<wgt id='1211'> +1.4246579e-12 </wgt>
<wgt id='1212'> +1.4305540e-12 </wgt>
<wgt id='1213'> +1.4351947e-12 </wgt>
<wgt id='1214'> +1.4218186e-12 </wgt>
<wgt id='1215'> +1.4434284e-12 </wgt>
<wgt id='1216'> +1.4416584e-12 </wgt>
<wgt id='1217'> +1.4260425e-12 </wgt>
<wgt id='1218'> +1.4368841e-12 </wgt>
<wgt id='1219'> +1.4299626e-12 </wgt>
<wgt id='1220'> +1.4423859e-12 </wgt>
<wgt id='1221'> +1.4306616e-12 </wgt>
<wgt id='1222'> +1.4584573e-12 </wgt>
<wgt id='1223'> +1.3970693e-12 </wgt>
<wgt id='1224'> +1.4360484e-12 </wgt>
<wgt id='1225'> +1.4310982e-12 </wgt>
<wgt id='1226'> +1.4298196e-12 </wgt>
<wgt id='1227'> +1.4345508e-12 </wgt>
<wgt id='1228'> +1.4291411e-12 </wgt>
<wgt id='1229'> +1.4336285e-12 </wgt>
<wgt id='1230'> +1.4345129e-12 </wgt>
<wgt id='1231'> +1.4474475e-12 </wgt>
<wgt id='1232'> +1.4361318e-12 </wgt>
<wgt id='1233'> +1.4315606e-12 </wgt>
<wgt id='1234'> +1.4324803e-12 </wgt>
<wgt id='1235'> +1.4255747e-12 </wgt>
<wgt id='1236'> +1.4283058e-12 </wgt>
<wgt id='1237'> +1.4306968e-12 </wgt>
<wgt id='1238'> +1.4345596e-12 </wgt>
<wgt id='1239'> +1.4360944e-12 </wgt>
<wgt id='1240'> +1.4377346e-12 </wgt>
<wgt id='1241'> +1.3446577e-12 </wgt>
<wgt id='1242'> +1.3239941e-12 </wgt>
<wgt id='1243'> +1.3650651e-12 </wgt>
<wgt id='1244'> +1.3531412e-12 </wgt>
<wgt id='1245'> +1.3383759e-12 </wgt>
<wgt id='1246'> +1.3402313e-12 </wgt>
<wgt id='1247'> +1.3484410e-12 </wgt>
<wgt id='1248'> +1.3446927e-12 </wgt>
<wgt id='1249'> +1.3446399e-12 </wgt>
<wgt id='1250'> +1.3453455e-12 </wgt>
<wgt id='1251'> +1.3442001e-12 </wgt>
<wgt id='1252'> +1.3419751e-12 </wgt>
<wgt id='1253'> +1.3467323e-12 </wgt>
<wgt id='1254'> +1.3407502e-12 </wgt>
<wgt id='1255'> +1.3468883e-12 </wgt>
<wgt id='1256'> +1.3408761e-12 </wgt>
<wgt id='1257'> +1.3542614e-12 </wgt>
<wgt id='1258'> +1.3498645e-12 </wgt>
<wgt id='1259'> +1.3364731e-12 </wgt>
<wgt id='1260'> +1.3464297e-12 </wgt>
<wgt id='1261'> +1.3431043e-12 </wgt>
<wgt id='1262'> +1.3471864e-12 </wgt>
<wgt id='1263'> +1.3437656e-12 </wgt>
<wgt id='1264'> +1.3499053e-12 </wgt>
<wgt id='1265'> +1.3425487e-12 </wgt>
<wgt id='1266'> +1.3199076e-12 </wgt>
<wgt id='1267'> +1.3683543e-12 </wgt>
<wgt id='1268'> +1.3542994e-12 </wgt>
<wgt id='1269'> +1.3361437e-12 </wgt>
<wgt id='1270'> +1.3609500e-12 </wgt>
<wgt id='1271'> +1.3490631e-12 </wgt>
<wgt id='1272'> +1.3503871e-12 </wgt>
<wgt id='1273'> +1.3443942e-12 </wgt>
<wgt id='1274'> +1.3469466e-12 </wgt>
<wgt id='1275'> +1.3417760e-12 </wgt>
<wgt id='1276'> +1.3471096e-12 </wgt>
<wgt id='1277'> +1.3414653e-12 </wgt>
<wgt id='1278'> +1.3650734e-12 </wgt>
<wgt id='1279'> +1.3487948e-12 </wgt>
<wgt id='1280'> +1.3449277e-12 </wgt>
<wgt id='1281'> +1.3505253e-12 </wgt>
<wgt id='1282'> +1.3446577e-12 </wgt>
<wgt id='1283'> +1.3385719e-12 </wgt>
<wgt id='1284'> +1.3411614e-12 </wgt>
<wgt id='1285'> +1.3431214e-12 </wgt>
<wgt id='1286'> +1.3463614e-12 </wgt>
<wgt id='1287'> +1.3474049e-12 </wgt>
<wgt id='1288'> +1.3482413e-12 </wgt>
<wgt id='1289'> +1.4758313e-12 </wgt>
<wgt id='1290'> +1.4814022e-12 </wgt>
<wgt id='1291'> +1.4698448e-12 </wgt>
<wgt id='1292'> +1.4773386e-12 </wgt>
<wgt id='1293'> +1.4747332e-12 </wgt>
<wgt id='1294'> +1.4545253e-12 </wgt>
<wgt id='1295'> +1.4962689e-12 </wgt>
<wgt id='1296'> +1.4864340e-12 </wgt>
<wgt id='1297'> +1.4625625e-12 </wgt>
<wgt id='1298'> +1.4855568e-12 </wgt>
<wgt id='1299'> +1.4635598e-12 </wgt>
<wgt id='1300'> +1.4794538e-12 </wgt>
<wgt id='1301'> +1.4684900e-12 </wgt>
<wgt id='1302'> +1.4711644e-12 </wgt>
<wgt id='1303'> +1.4822776e-12 </wgt>
<wgt id='1304'> +1.4744879e-12 </wgt>
<wgt id='1305'> +1.4766969e-12 </wgt>
<wgt id='1306'> +1.4798657e-12 </wgt>
<wgt id='1307'> +1.4710699e-12 </wgt>
<wgt id='1308'> +1.4690184e-12 </wgt>
<wgt id='1309'> +1.4810161e-12 </wgt>
<wgt id='1310'> +1.4788568e-12 </wgt>
<wgt id='1311'> +1.4729167e-12 </wgt>
<wgt id='1312'> +1.4859310e-12 </wgt>
<wgt id='1313'> +1.4666888e-12 </wgt>
<wgt id='1314'> +1.4578363e-12 </wgt>
<wgt id='1315'> +1.4936831e-12 </wgt>
<wgt id='1316'> +1.4836969e-12 </wgt>
<wgt id='1317'> +1.4784538e-12 </wgt>
<wgt id='1318'> +1.4842799e-12 </wgt>
<wgt id='1319'> +1.4640003e-12 </wgt>
<wgt id='1320'> +1.4946537e-12 </wgt>
<wgt id='1321'> +1.4582043e-12 </wgt>
<wgt id='1322'> +1.4757592e-12 </wgt>
<wgt id='1323'> +1.4760465e-12 </wgt>
<wgt id='1324'> +1.4738044e-12 </wgt>
<wgt id='1325'> +1.4800375e-12 </wgt>
<wgt id='1326'> +1.4746222e-12 </wgt>
<wgt id='1327'> +1.4802697e-12 </wgt>
<wgt id='1328'> +1.4751009e-12 </wgt>
<wgt id='1329'> +1.4758171e-12 </wgt>
<wgt id='1330'> +1.4826941e-12 </wgt>
<wgt id='1331'> +1.4689513e-12 </wgt>
<wgt id='1332'> +1.4881288e-12 </wgt>
<wgt id='1333'> +1.4841395e-12 </wgt>
<wgt id='1334'> +1.4740993e-12 </wgt>
<wgt id='1335'> +1.4809687e-12 </wgt>
<wgt id='1336'> +1.4806957e-12 </wgt>
<wgt id='1337'> +1.4864871e-12 </wgt>
<wgt id='1338'> +1.4771273e-12 </wgt>
<wgt id='1339'> +1.4781089e-12 </wgt>
<wgt id='1340'> +1.4416919e-12 </wgt>
<wgt id='1341'> +1.4470119e-12 </wgt>
<wgt id='1342'> +1.4359982e-12 </wgt>
<wgt id='1343'> +1.4433810e-12 </wgt>
<wgt id='1344'> +1.4405725e-12 </wgt>
<wgt id='1345'> +1.4196413e-12 </wgt>
<wgt id='1346'> +1.4620624e-12 </wgt>
<wgt id='1347'> +1.4531819e-12 </wgt>
<wgt id='1348'> +1.4288037e-12 </wgt>
<wgt id='1349'> +1.4509422e-12 </wgt>
<wgt id='1350'> +1.4325777e-12 </wgt>
<wgt id='1351'> +1.4452263e-12 </wgt>
<wgt id='1352'> +1.4339830e-12 </wgt>
<wgt id='1353'> +1.4360088e-12 </wgt>
<wgt id='1354'> +1.4518527e-12 </wgt>
<wgt id='1355'> +1.4414960e-12 </wgt>
<wgt id='1356'> +1.4417747e-12 </wgt>
<wgt id='1357'> +1.4446770e-12 </wgt>
<wgt id='1358'> +1.4379502e-12 </wgt>
<wgt id='1359'> +1.4343560e-12 </wgt>
<wgt id='1360'> +1.4480604e-12 </wgt>
<wgt id='1361'> +1.4451011e-12 </wgt>
<wgt id='1362'> +1.4375035e-12 </wgt>
<wgt id='1363'> +1.4584576e-12 </wgt>
<wgt id='1364'> +1.4316018e-12 </wgt>
<wgt id='1365'> +1.4499399e-12 </wgt>
<wgt id='1366'> +1.4277704e-12 </wgt>
<wgt id='1367'> +1.4495886e-12 </wgt>
<wgt id='1368'> +1.4425688e-12 </wgt>
<wgt id='1369'> +1.4481795e-12 </wgt>
<wgt id='1370'> +1.4330217e-12 </wgt>
<wgt id='1371'> +1.4570177e-12 </wgt>
<wgt id='1372'> +1.4220365e-12 </wgt>
<wgt id='1373'> +1.4380212e-12 </wgt>
<wgt id='1374'> +1.4449578e-12 </wgt>
<wgt id='1375'> +1.4396031e-12 </wgt>
<wgt id='1376'> +1.4461809e-12 </wgt>
<wgt id='1377'> +1.4408631e-12 </wgt>
<wgt id='1378'> +1.4460660e-12 </wgt>
<wgt id='1379'> +1.4412638e-12 </wgt>
<wgt id='1380'> +1.4414242e-12 </wgt>
<wgt id='1381'> +1.4486542e-12 </wgt>
<wgt id='1382'> +1.4353359e-12 </wgt>
<wgt id='1383'> +1.4514181e-12 </wgt>
<wgt id='1384'> +1.4506064e-12 </wgt>
<wgt id='1385'> +1.4402069e-12 </wgt>
<wgt id='1386'> +1.4456344e-12 </wgt>
<wgt id='1387'> +1.4472750e-12 </wgt>
<wgt id='1388'> +1.4524850e-12 </wgt>
<wgt id='1389'> +1.4434098e-12 </wgt>
<wgt id='1390'> +1.4451128e-12 </wgt>
<wgt id='1391'> +1.4255708e-12 </wgt>
<wgt id='1392'> +1.3768751e-12 </wgt>
<wgt id='1393'> +1.3937711e-12 </wgt>
<wgt id='1394'> +1.4100138e-12 </wgt>
<wgt id='1395'> +1.4424173e-12 </wgt>
<wgt id='1396'> +1.4261679e-12 </wgt>
<wgt id='1397'> +1.4029622e-12 </wgt>
<wgt id='1398'> +1.4060840e-12 </wgt>
<wgt id='1399'> +1.4098572e-12 </wgt>
<wgt id='1400'> +1.4146769e-12 </wgt>
<wgt id='1401'> +1.4203360e-12 </wgt>
<wgt id='1402'> +1.4318830e-12 </wgt>
<wgt id='1403'> +1.4381115e-12 </wgt>
<wgt id='1404'> +1.4444759e-12 </wgt>
<wgt id='1405'> +1.4261679e-12 </wgt>
<wgt id='1406'> +1.4221300e-12 </wgt>
<wgt id='1407'> +1.4241867e-12 </wgt>
<wgt id='1408'> +1.4279928e-12 </wgt>
<wgt id='1409'> +1.4292109e-12 </wgt>
<wgt id='1410'> +1.3156244e-12 </wgt>
<wgt id='1411'> +1.3255301e-12 </wgt>
<wgt id='1412'> +1.3029313e-12 </wgt>
<wgt id='1413'> +1.3028032e-12 </wgt>
<wgt id='1414'> +1.3283990e-12 </wgt>
<wgt id='1415'> +1.3112111e-12 </wgt>
<wgt id='1416'> +1.3174207e-12 </wgt>
<wgt id='1417'> +1.3155662e-12 </wgt>
<wgt id='1418'> +1.3156035e-12 </wgt>
<wgt id='1419'> +1.3179595e-12 </wgt>
<wgt id='1420'> +1.3133480e-12 </wgt>
<wgt id='1421'> +1.3003238e-12 </wgt>
<wgt id='1422'> +1.3220685e-12 </wgt>
<wgt id='1423'> +1.3142307e-12 </wgt>
<wgt id='1424'> +1.3173364e-12 </wgt>
<wgt id='1425'> +1.3068071e-12 </wgt>
<wgt id='1426'> +1.3251241e-12 </wgt>
<wgt id='1427'> +1.3013914e-12 </wgt>
<wgt id='1428'> +1.3231769e-12 </wgt>
<wgt id='1429'> +1.3190594e-12 </wgt>
<wgt id='1430'> +1.3111630e-12 </wgt>
<wgt id='1431'> +1.3165578e-12 </wgt>
<wgt id='1432'> +1.3149852e-12 </wgt>
<wgt id='1433'> +1.2961039e-12 </wgt>
<wgt id='1434'> +1.3318389e-12 </wgt>
<wgt id='1435'> +1.3078770e-12 </wgt>
<wgt id='1436'> +1.3360203e-12 </wgt>
<wgt id='1437'> +1.3226183e-12 </wgt>
<wgt id='1438'> +1.3212805e-12 </wgt>
<wgt id='1439'> +1.3092837e-12 </wgt>
<wgt id='1440'> +1.3242115e-12 </wgt>
<wgt id='1441'> +1.3219064e-12 </wgt>
<wgt id='1442'> +1.3018159e-12 </wgt>
<wgt id='1443'> +1.3120092e-12 </wgt>
<wgt id='1444'> +1.3246276e-12 </wgt>
<wgt id='1445'> +1.3261590e-12 </wgt>
<wgt id='1446'> +1.3120689e-12 </wgt>
<wgt id='1447'> +1.3175756e-12 </wgt>
<wgt id='1448'> +1.3190566e-12 </wgt>
<wgt id='1449'> +1.3154945e-12 </wgt>
<wgt id='1450'> +1.3147300e-12 </wgt>
<wgt id='1451'> +1.3146861e-12 </wgt>
<wgt id='1452'> +1.3227780e-12 </wgt>
<wgt id='1453'> +1.3159959e-12 </wgt>
<wgt id='1454'> +1.3185309e-12 </wgt>
<wgt id='1455'> +1.3289675e-12 </wgt>
<wgt id='1456'> +1.3278586e-12 </wgt>
<wgt id='1457'> +1.3248330e-12 </wgt>
<wgt id='1458'> +1.3142598e-12 </wgt>
<wgt id='1459'> +1.3234881e-12 </wgt>
<wgt id='1460'> +1.3313051e-12 </wgt>
<wgt id='1461'> +1.3156244e-12 </wgt>
<wgt id='1462'> +1.3045900e-12 </wgt>
<wgt id='1463'> +1.3220352e-12 </wgt>
<wgt id='1464'> +1.3131516e-12 </wgt>
<wgt id='1465'> +1.2861787e-12 </wgt>
<wgt id='1466'> +1.2902019e-12 </wgt>
<wgt id='1467'> +1.2950726e-12 </wgt>
<wgt id='1468'> +1.3034474e-12 </wgt>
<wgt id='1469'> +1.3073526e-12 </wgt>
<wgt id='1470'> +1.3193250e-12 </wgt>
<wgt id='1471'> +1.3251426e-12 </wgt>
<wgt id='1472'> +1.3310590e-12 </wgt>
<wgt id='1473'> +1.3131516e-12 </wgt>
<wgt id='1474'> +1.3101814e-12 </wgt>
<wgt id='1475'> +1.3125574e-12 </wgt>
<wgt id='1476'> +1.3140399e-12 </wgt>
<wgt id='1477'> +1.3148744e-12 </wgt>
<wgt id='1478'> +1.3960703e-12 </wgt>
<wgt id='1479'> +1.3970183e-12 </wgt>
<wgt id='1480'> +1.3818994e-12 </wgt>
<wgt id='1481'> +1.4297884e-12 </wgt>
<wgt id='1482'> +1.3987007e-12 </wgt>
<wgt id='1483'> +1.3802386e-12 </wgt>
<wgt id='1484'> +1.3848389e-12 </wgt>
<wgt id='1485'> +1.4078556e-12 </wgt>
<wgt id='1486'> +1.3955416e-12 </wgt>
<wgt id='1487'> +1.4087217e-12 </wgt>
<wgt id='1488'> +1.3933987e-12 </wgt>
<wgt id='1489'> +1.3964428e-12 </wgt>
<wgt id='1490'> +1.3923952e-12 </wgt>
<wgt id='1491'> +1.4027940e-12 </wgt>
<wgt id='1492'> +1.3962858e-12 </wgt>
<wgt id='1493'> +1.3755082e-12 </wgt>
<wgt id='1494'> +1.3916202e-12 </wgt>
<wgt id='1495'> +1.3866848e-12 </wgt>
<wgt id='1496'> +1.3970628e-12 </wgt>
<wgt id='1497'> +1.3959174e-12 </wgt>
<wgt id='1498'> +1.3965149e-12 </wgt>
<wgt id='1499'> +1.3992611e-12 </wgt>
<wgt id='1500'> +1.3981795e-12 </wgt>
<wgt id='1501'> +1.3972088e-12 </wgt>
<wgt id='1502'> +1.3947502e-12 </wgt>
<wgt id='1503'> +1.4015092e-12 </wgt>
<wgt id='1504'> +1.3899211e-12 </wgt>
<wgt id='1505'> +1.4010039e-12 </wgt>
<wgt id='1506'> +1.3979650e-12 </wgt>
<wgt id='1507'> +1.3965186e-12 </wgt>
<wgt id='1508'> +1.3987985e-12 </wgt>
<wgt id='1509'> +1.3262168e-12 </wgt>
<wgt id='1510'> +1.3330790e-12 </wgt>
<wgt id='1511'> +1.3010588e-12 </wgt>
<wgt id='1512'> +1.3125713e-12 </wgt>
<wgt id='1513'> +1.3245445e-12 </wgt>
<wgt id='1514'> +1.3308096e-12 </wgt>
<wgt id='1515'> +1.3295426e-12 </wgt>
<wgt id='1516'> +1.3278729e-12 </wgt>
<wgt id='1517'> +1.3263895e-12 </wgt>
<wgt id='1518'> +1.3256944e-12 </wgt>
<wgt id='1519'> +1.3281677e-12 </wgt>
<wgt id='1520'> +1.3279679e-12 </wgt>
<wgt id='1521'> +1.3257127e-12 </wgt>
<wgt id='1522'> +1.3285182e-12 </wgt>
<wgt id='1523'> +1.3288117e-12 </wgt>
<wgt id='1524'> +1.3244559e-12 </wgt>
<wgt id='1525'> +1.3262889e-12 </wgt>
<wgt id='1526'> +1.3273449e-12 </wgt>
<wgt id='1527'> +1.3259840e-12 </wgt>
<wgt id='1528'> +1.3271718e-12 </wgt>
<wgt id='1529'> +1.3276484e-12 </wgt>
<wgt id='1530'> +1.3267814e-12 </wgt>
<wgt id='1531'> +1.3281913e-12 </wgt>
<wgt id='1532'> +1.3226242e-12 </wgt>
<wgt id='1533'> +1.3263998e-12 </wgt>
<wgt id='1534'> +1.3265967e-12 </wgt>
<wgt id='1535'> +1.3222307e-12 </wgt>
<wgt id='1536'> +1.3301443e-12 </wgt>
<wgt id='1537'> +1.3291989e-12 </wgt>
<wgt id='1538'> +1.3128254e-12 </wgt>
<wgt id='1539'> +1.3239416e-12 </wgt>
<wgt id='1540'> +1.3251002e-12 </wgt>
<wgt id='1541'> +1.3235819e-12 </wgt>
<wgt id='1542'> +1.3243906e-12 </wgt>
<wgt id='1543'> +1.3269819e-12 </wgt>
<wgt id='1544'> +1.3243149e-12 </wgt>
<wgt id='1545'> +1.3249863e-12 </wgt>
<wgt id='1546'> +1.3271072e-12 </wgt>
<wgt id='1547'> +1.3250277e-12 </wgt>
<wgt id='1548'> +1.3270509e-12 </wgt>
<wgt id='1549'> +1.3250745e-12 </wgt>
<wgt id='1550'> +1.3263686e-12 </wgt>
<wgt id='1551'> +1.3258661e-12 </wgt>
<wgt id='1552'> +1.3279288e-12 </wgt>
<wgt id='1553'> +1.3264074e-12 </wgt>
<wgt id='1554'> +1.3253985e-12 </wgt>
<wgt id='1555'> +1.3279833e-12 </wgt>
<wgt id='1556'> +1.3292808e-12 </wgt>
<wgt id='1557'> +1.3259124e-12 </wgt>
<wgt id='1558'> +1.3262265e-12 </wgt>
<wgt id='1559'> +1.3248497e-12 </wgt>
<wgt id='1560'> +1.3264252e-12 </wgt>
<wgt id='1561'> +1.3265357e-12 </wgt>
<wgt id='1562'> +1.3260388e-12 </wgt>
<wgt id='1563'> +1.3265392e-12 </wgt>
<wgt id='1564'> +1.3249308e-12 </wgt>
<wgt id='1565'> +1.3261522e-12 </wgt>
<wgt id='1566'> +1.3262105e-12 </wgt>
<wgt id='1567'> +1.3249455e-12 </wgt>
<wgt id='1568'> +1.3262440e-12 </wgt>
<wgt id='1569'> +1.3292137e-12 </wgt>
<wgt id='1570'> +1.3268470e-12 </wgt>
<wgt id='1571'> +1.3267614e-12 </wgt>
<wgt id='1572'> +1.3261096e-12 </wgt>
<wgt id='1573'> +1.3256792e-12 </wgt>
<wgt id='1574'> +1.3268403e-12 </wgt>
<wgt id='1575'> +1.3261492e-12 </wgt>
<wgt id='1576'> +1.3269486e-12 </wgt>
<wgt id='1577'> +1.3281236e-12 </wgt>
<wgt id='1578'> +1.3264598e-12 </wgt>
<wgt id='1579'> +1.3254741e-12 </wgt>
<wgt id='1580'> +1.3261386e-12 </wgt>
<wgt id='1581'> +1.3264237e-12 </wgt>
<wgt id='1582'> +1.3267832e-12 </wgt>
<wgt id='1583'> +1.3253901e-12 </wgt>
<wgt id='1584'> +1.3251753e-12 </wgt>
<wgt id='1585'> +1.3259613e-12 </wgt>
<wgt id='1586'> +1.3262245e-12 </wgt>
<wgt id='1587'> +1.3270277e-12 </wgt>
<wgt id='1588'> +1.3248445e-12 </wgt>
<wgt id='1589'> +1.3274713e-12 </wgt>
<wgt id='1590'> +1.3267569e-12 </wgt>
<wgt id='1591'> +1.3265242e-12 </wgt>
<wgt id='1592'> +1.3267704e-12 </wgt>
<wgt id='1593'> +1.3268277e-12 </wgt>
<wgt id='1594'> +1.3260647e-12 </wgt>
<wgt id='1595'> +1.3253139e-12 </wgt>
<wgt id='1596'> +1.3256308e-12 </wgt>
<wgt id='1597'> +1.3252755e-12 </wgt>
<wgt id='1598'> +1.3267465e-12 </wgt>
<wgt id='1599'> +1.3269038e-12 </wgt>
<wgt id='1600'> +1.3252429e-12 </wgt>
<wgt id='1601'> +1.3265680e-12 </wgt>
<wgt id='1602'> +1.3256570e-12 </wgt>
<wgt id='1603'> +1.3269589e-12 </wgt>
<wgt id='1604'> +1.3262097e-12 </wgt>
<wgt id='1605'> +1.3268677e-12 </wgt>
<wgt id='1606'> +1.3264725e-12 </wgt>
<wgt id='1607'> +1.3265565e-12 </wgt>
<wgt id='1608'> +1.3265394e-12 </wgt>
<wgt id='1609'> +1.3263930e-12 </wgt>
<wgt id='1610'> +1.3111877e-12 </wgt>
<wgt id='1611'> +1.3383539e-12 </wgt>
<wgt id='1612'> +1.5482077e-12 </wgt>
<wgt id='1613'> +1.5122329e-12 </wgt>
<wgt id='1614'> +1.4553604e-12 </wgt>
<wgt id='1615'> +1.5181976e-12 </wgt>
<wgt id='1616'> +1.4836506e-12 </wgt>
<wgt id='1617'> +1.4822642e-12 </wgt>
<wgt id='1618'> +1.5586326e-12 </wgt>
<wgt id='1619'> +1.5182207e-12 </wgt>
<wgt id='1620'> +1.5238477e-12 </wgt>
<wgt id='1621'> +1.5450774e-12 </wgt>
<wgt id='1622'> +1.5545271e-12 </wgt>
<wgt id='1623'> +1.5780931e-12 </wgt>
<wgt id='1624'> +1.6100549e-12 </wgt>
<wgt id='1625'> +1.4589111e-12 </wgt>
<wgt id='1626'> +1.5300480e-12 </wgt>
<wgt id='1627'> +1.5839080e-12 </wgt>
<wgt id='1628'> +1.4584659e-12 </wgt>
<wgt id='1629'> +1.5799864e-12 </wgt>
<wgt id='1630'> +1.4891081e-12 </wgt>
<wgt id='1631'> +1.4946906e-12 </wgt>
<wgt id='1632'> +1.4768066e-12 </wgt>
<wgt id='1633'> +1.4524546e-12 </wgt>
<wgt id='1634'> +1.5386909e-12 </wgt>
<wgt id='1635'> +1.5585229e-12 </wgt>
<wgt id='1636'> +1.5397169e-12 </wgt>
<wgt id='1637'> +1.5912519e-12 </wgt>
<wgt id='1638'> +1.5585658e-12 </wgt>
<wgt id='1639'> +1.5231512e-12 </wgt>
<wgt id='1640'> +1.5353402e-12 </wgt>
<wgt id='1641'> +1.5548193e-12 </wgt>
<wgt id='1642'> +1.4758866e-12 </wgt>
<wgt id='1643'> +1.5140432e-12 </wgt>
<wgt id='1644'> +1.5761579e-12 </wgt>
<wgt id='1645'> +1.4954092e-12 </wgt>
<wgt id='1646'> +1.5591572e-12 </wgt>
<wgt id='1647'> +1.6070955e-12 </wgt>
<wgt id='1648'> +1.5417095e-12 </wgt>
<wgt id='1649'> +1.6530695e-12 </wgt>
<wgt id='1650'> +1.5020162e-12 </wgt>
<wgt id='1651'> +1.5978734e-12 </wgt>
<wgt id='1652'> +1.5283815e-12 </wgt>
<wgt id='1653'> +1.5461349e-12 </wgt>
<wgt id='1654'> +1.5696688e-12 </wgt>
<wgt id='1655'> +1.6111209e-12 </wgt>
<wgt id='1656'> +1.5193159e-12 </wgt>
<wgt id='1657'> +1.5756037e-12 </wgt>
<wgt id='1658'> +1.5240255e-12 </wgt>
<wgt id='1659'> +1.6100549e-12 </wgt>
<wgt id='1660'> +1.5686521e-12 </wgt>
<wgt id='1661'> +1.5935326e-12 </wgt>
<wgt id='1662'> +1.6263128e-12 </wgt>
<wgt id='1663'> +1.5357353e-12 </wgt>
<wgt id='1664'> +1.5217936e-12 </wgt>
<wgt id='1665'> +1.5290794e-12 </wgt>
<wgt id='1666'> +1.5779559e-12 </wgt>
<wgt id='1667'> +1.5728076e-12 </wgt>
<wgt id='1668'> +1.5944264e-12 </wgt>
<wgt id='1669'> +1.5643858e-12 </wgt>
<wgt id='1670'> +1.5039570e-12 </wgt>
<wgt id='1671'> +1.5083266e-12 </wgt>
<wgt id='1672'> +1.5770969e-12 </wgt>
<wgt id='1673'> +1.5640801e-12 </wgt>
<wgt id='1674'> +1.5398668e-12 </wgt>
<wgt id='1675'> +1.5231242e-12 </wgt>
<wgt id='1676'> +1.5171959e-12 </wgt>
<wgt id='1677'> +1.5248061e-12 </wgt>
<wgt id='1678'> +1.5286527e-12 </wgt>
<wgt id='1679'> +1.5645513e-12 </wgt>
<wgt id='1680'> +1.5860400e-12 </wgt>
<wgt id='1681'> +1.5870300e-12 </wgt>
<wgt id='1682'> +1.5301534e-12 </wgt>
<wgt id='1683'> +1.5793292e-12 </wgt>
<wgt id='1684'> +1.6323747e-12 </wgt>
<wgt id='1685'> +1.5420721e-12 </wgt>
<wgt id='1686'> +1.5315863e-12 </wgt>
<wgt id='1687'> +1.5873277e-12 </wgt>
<wgt id='1688'> +1.5202902e-12 </wgt>
<wgt id='1689'> +1.6338356e-12 </wgt>
<wgt id='1690'> +1.5493807e-12 </wgt>
<wgt id='1691'> +1.4482951e-12 </wgt>
<wgt id='1692'> +1.5361384e-12 </wgt>
<wgt id='1693'> +1.5628241e-12 </wgt>
<wgt id='1694'> +1.5291033e-12 </wgt>
<wgt id='1695'> +1.5548294e-12 </wgt>
<wgt id='1696'> +1.5283587e-12 </wgt>
<wgt id='1697'> +1.5445570e-12 </wgt>
<wgt id='1698'> +1.5740355e-12 </wgt>
<wgt id='1699'> +1.5883073e-12 </wgt>
<wgt id='1700'> +1.5083757e-12 </wgt>
<wgt id='1701'> +1.6243729e-12 </wgt>
<wgt id='1702'> +1.4997023e-12 </wgt>
<wgt id='1703'> +1.5204141e-12 </wgt>
<wgt id='1704'> +1.4988080e-12 </wgt>
<wgt id='1705'> +1.4808944e-12 </wgt>
<wgt id='1706'> +1.5979618e-12 </wgt>
<wgt id='1707'> +1.5877705e-12 </wgt>
<wgt id='1708'> +1.6556553e-12 </wgt>
<wgt id='1709'> +1.6225892e-12 </wgt>
<wgt id='1710'> +1.5505323e-12 </wgt>
<wgt id='1711'> +1.5706593e-12 </wgt>
<wgt id='1712'> +1.6458050e-12 </wgt>
<wgt id='1713'> +1.3570695e-12 </wgt>
<wgt id='1714'> +1.3461573e-12 </wgt>
<wgt id='1715'> +1.3017888e-12 </wgt>
<wgt id='1716'> +1.3905649e-12 </wgt>
<wgt id='1717'> +1.3719456e-12 </wgt>
<wgt id='1718'> +1.3938689e-12 </wgt>
<wgt id='1719'> +1.3825897e-12 </wgt>
<wgt id='1720'> +1.2984913e-12 </wgt>
<wgt id='1721'> +1.3332306e-12 </wgt>
<wgt id='1722'> +1.3494560e-12 </wgt>
<wgt id='1723'> +1.4161602e-12 </wgt>
<wgt id='1724'> +1.3373779e-12 </wgt>
<wgt id='1725'> +1.3788076e-12 </wgt>
<wgt id='1726'> +1.3595445e-12 </wgt>
<wgt id='1727'> +1.4216990e-12 </wgt>
<wgt id='1728'> +1.3363784e-12 </wgt>
<wgt id='1729'> +1.2828143e-12 </wgt>
<wgt id='1730'> +1.3298059e-12 </wgt>
<wgt id='1731'> +1.2922078e-12 </wgt>
<wgt id='1732'> +1.3635144e-12 </wgt>
<wgt id='1733'> +1.2878227e-12 </wgt>
<wgt id='1734'> +1.4371332e-12 </wgt>
<wgt id='1735'> +1.3117435e-12 </wgt>
<wgt id='1736'> +1.3735086e-12 </wgt>
<wgt id='1737'> +1.4148736e-12 </wgt>
<wgt id='1738'> +1.3452204e-12 </wgt>
<wgt id='1739'> +1.3732846e-12 </wgt>
<wgt id='1740'> +1.2776490e-12 </wgt>
<wgt id='1741'> +1.4157951e-12 </wgt>
<wgt id='1742'> +1.3455728e-12 </wgt>
<wgt id='1743'> +1.3219024e-12 </wgt>
<wgt id='1744'> +1.3854341e-12 </wgt>
<wgt id='1745'> +1.3788169e-12 </wgt>
<wgt id='1746'> +1.3409636e-12 </wgt>
<wgt id='1747'> +1.4208742e-12 </wgt>
<wgt id='1748'> +1.3677064e-12 </wgt>
<wgt id='1749'> +1.3589411e-12 </wgt>
<wgt id='1750'> +1.3294504e-12 </wgt>
<wgt id='1751'> +1.3480732e-12 </wgt>
<wgt id='1752'> +1.3386119e-12 </wgt>
<wgt id='1753'> +1.3637164e-12 </wgt>
<wgt id='1754'> +1.3719172e-12 </wgt>
<wgt id='1755'> +1.3671411e-12 </wgt>
<wgt id='1756'> +1.3807727e-12 </wgt>
<wgt id='1757'> +1.3859089e-12 </wgt>
<wgt id='1758'> +1.4146846e-12 </wgt>
<wgt id='1759'> +1.3904718e-12 </wgt>
<wgt id='1760'> +1.3602879e-12 </wgt>
<wgt id='1761'> +1.3552982e-12 </wgt>
<wgt id='1762'> +1.3442722e-12 </wgt>
<wgt id='1763'> +1.3847930e-12 </wgt>
<wgt id='1764'> +1.4230179e-12 </wgt>
<wgt id='1765'> +1.3569490e-12 </wgt>
<wgt id='1766'> +1.3925913e-12 </wgt>
<wgt id='1767'> +1.3343949e-12 </wgt>
<wgt id='1768'> +1.3880113e-12 </wgt>
<wgt id='1769'> +1.3591952e-12 </wgt>
<wgt id='1770'> +1.3478776e-12 </wgt>
<wgt id='1771'> +1.4248522e-12 </wgt>
<wgt id='1772'> +1.3399766e-12 </wgt>
<wgt id='1773'> +1.3698924e-12 </wgt>
<wgt id='1774'> +1.3484781e-12 </wgt>
<wgt id='1775'> +1.3592126e-12 </wgt>
<wgt id='1776'> +1.4140091e-12 </wgt>
<wgt id='1777'> +1.2976053e-12 </wgt>
<wgt id='1778'> +1.3814203e-12 </wgt>
<wgt id='1779'> +1.3347418e-12 </wgt>
<wgt id='1780'> +1.3520247e-12 </wgt>
<wgt id='1781'> +1.3918576e-12 </wgt>
<wgt id='1782'> +1.3552273e-12 </wgt>
<wgt id='1783'> +1.3663500e-12 </wgt>
<wgt id='1784'> +1.3385629e-12 </wgt>
<wgt id='1785'> +1.3686143e-12 </wgt>
<wgt id='1786'> +1.3371044e-12 </wgt>
<wgt id='1787'> +1.4595916e-12 </wgt>
<wgt id='1788'> +1.3345619e-12 </wgt>
<wgt id='1789'> +1.4442713e-12 </wgt>
<wgt id='1790'> +1.3459906e-12 </wgt>
<wgt id='1791'> +1.3239636e-12 </wgt>
<wgt id='1792'> +1.3360017e-12 </wgt>
<wgt id='1793'> +1.3303430e-12 </wgt>
<wgt id='1794'> +1.3804445e-12 </wgt>
<wgt id='1795'> +1.3660560e-12 </wgt>
<wgt id='1796'> +1.3169177e-12 </wgt>
<wgt id='1797'> +1.3559477e-12 </wgt>
<wgt id='1798'> +1.3559311e-12 </wgt>
<wgt id='1799'> +1.3332348e-12 </wgt>
<wgt id='1800'> +1.3795908e-12 </wgt>
<wgt id='1801'> +1.3520743e-12 </wgt>
<wgt id='1802'> +1.3051649e-12 </wgt>
<wgt id='1803'> +1.3650265e-12 </wgt>
<wgt id='1804'> +1.3807838e-12 </wgt>
<wgt id='1805'> +1.3134888e-12 </wgt>
<wgt id='1806'> +1.3254768e-12 </wgt>
<wgt id='1807'> +1.3123535e-12 </wgt>
<wgt id='1808'> +1.3313327e-12 </wgt>
<wgt id='1809'> +1.3253543e-12 </wgt>
<wgt id='1810'> +1.3236103e-12 </wgt>
<wgt id='1811'> +1.3638329e-12 </wgt>
<wgt id='1812'> +1.3271649e-12 </wgt>
<wgt id='1813'> +1.2683405e-12 </wgt>
<wgt id='1814'> +1.7672968e-12 </wgt>
<wgt id='1815'> +2.1796329e-12 </wgt>
<wgt id='1816'> +1.3570695e-12 </wgt>
<wgt id='1817'> +1.3461573e-12 </wgt>
<wgt id='1818'> +1.3017888e-12 </wgt>
<wgt id='1819'> +1.3905649e-12 </wgt>
<wgt id='1820'> +1.3719456e-12 </wgt>
<wgt id='1821'> +1.3938689e-12 </wgt>
<wgt id='1822'> +1.3825897e-12 </wgt>
<wgt id='1823'> +1.2984913e-12 </wgt>
<wgt id='1824'> +1.3332306e-12 </wgt>
<wgt id='1825'> +1.3494560e-12 </wgt>
<wgt id='1826'> +1.4161602e-12 </wgt>
<wgt id='1827'> +1.3373779e-12 </wgt>
<wgt id='1828'> +1.3788076e-12 </wgt>
<wgt id='1829'> +1.3595445e-12 </wgt>
<wgt id='1830'> +1.4216990e-12 </wgt>
<wgt id='1831'> +1.3363784e-12 </wgt>
<wgt id='1832'> +1.2828143e-12 </wgt>
<wgt id='1833'> +1.3298059e-12 </wgt>
<wgt id='1834'> +1.2922078e-12 </wgt>
<wgt id='1835'> +1.3635144e-12 </wgt>
<wgt id='1836'> +1.2878227e-12 </wgt>
<wgt id='1837'> +1.4371332e-12 </wgt>
<wgt id='1838'> +1.3117435e-12 </wgt>
<wgt id='1839'> +1.3735086e-12 </wgt>
<wgt id='1840'> +1.4148736e-12 </wgt>
<wgt id='1841'> +1.3452204e-12 </wgt>
<wgt id='1842'> +1.3732846e-12 </wgt>
<wgt id='1843'> +1.2776490e-12 </wgt>
<wgt id='1844'> +1.4157951e-12 </wgt>
<wgt id='1845'> +1.3455728e-12 </wgt>
<wgt id='1846'> +1.3219024e-12 </wgt>
<wgt id='1847'> +1.3854341e-12 </wgt>
<wgt id='1848'> +1.3788169e-12 </wgt>
<wgt id='1849'> +1.3409636e-12 </wgt>
<wgt id='1850'> +1.4208742e-12 </wgt>
<wgt id='1851'> +1.3677064e-12 </wgt>
<wgt id='1852'> +1.3589411e-12 </wgt>
<wgt id='1853'> +1.3294504e-12 </wgt>
<wgt id='1854'> +1.3480732e-12 </wgt>
<wgt id='1855'> +1.3386119e-12 </wgt>
<wgt id='1856'> +1.3637164e-12 </wgt>
<wgt id='1857'> +1.3719172e-12 </wgt>
<wgt id='1858'> +1.3671411e-12 </wgt>
<wgt id='1859'> +1.3807727e-12 </wgt>
<wgt id='1860'> +1.3859089e-12 </wgt>
<wgt id='1861'> +1.4146846e-12 </wgt>
<wgt id='1862'> +1.3904718e-12 </wgt>
<wgt id='1863'> +1.3602879e-12 </wgt>
<wgt id='1864'> +1.3552982e-12 </wgt>
<wgt id='1865'> +1.3442722e-12 </wgt>
<wgt id='1866'> +1.3847930e-12 </wgt>
<wgt id='1867'> +1.4230179e-12 </wgt>
<wgt id='1868'> +1.3569490e-12 </wgt>
<wgt id='1869'> +1.3925913e-12 </wgt>
<wgt id='1870'> +1.3343949e-12 </wgt>
<wgt id='1871'> +1.3880113e-12 </wgt>
<wgt id='1872'> +1.3591952e-12 </wgt>
<wgt id='1873'> +1.3478776e-12 </wgt>
<wgt id='1874'> +1.4248522e-12 </wgt>
<wgt id='1875'> +1.3399766e-12 </wgt>
<wgt id='1876'> +1.3698924e-12 </wgt>
<wgt id='1877'> +1.3484781e-12 </wgt>
<wgt id='1878'> +1.3592126e-12 </wgt>
<wgt id='1879'> +1.4140091e-12 </wgt>
<wgt id='1880'> +1.2976053e-12 </wgt>
<wgt id='1881'> +1.3814203e-12 </wgt>
<wgt id='1882'> +1.3347418e-12 </wgt>
<wgt id='1883'> +1.3520247e-12 </wgt>
<wgt id='1884'> +1.3918576e-12 </wgt>
<wgt id='1885'> +1.3552273e-12 </wgt>
<wgt id='1886'> +1.3663500e-12 </wgt>
<wgt id='1887'> +1.3385629e-12 </wgt>
<wgt id='1888'> +1.3686143e-12 </wgt>
<wgt id='1889'> +1.3371044e-12 </wgt>
<wgt id='1890'> +1.4595916e-12 </wgt>
<wgt id='1891'> +1.3345619e-12 </wgt>
<wgt id='1892'> +1.4442713e-12 </wgt>
<wgt id='1893'> +1.3459906e-12 </wgt>
<wgt id='1894'> +1.3239636e-12 </wgt>
<wgt id='1895'> +1.3360017e-12 </wgt>
<wgt id='1896'> +1.3303430e-12 </wgt>
<wgt id='1897'> +1.3804445e-12 </wgt>
<wgt id='1898'> +1.3660560e-12 </wgt>
<wgt id='1899'> +1.3169177e-12 </wgt>
<wgt id='1900'> +1.3559477e-12 </wgt>
<wgt id='1901'> +1.3559311e-12 </wgt>
<wgt id='1902'> +1.3332348e-12 </wgt>
<wgt id='1903'> +1.3795908e-12 </wgt>
<wgt id='1904'> +1.3520743e-12 </wgt>
<wgt id='1905'> +1.3051649e-12 </wgt>
<wgt id='1906'> +1.3650265e-12 </wgt>
<wgt id='1907'> +1.3807838e-12 </wgt>
<wgt id='1908'> +1.3134888e-12 </wgt>
<wgt id='1909'> +1.3254768e-12 </wgt>
<wgt id='1910'> +1.3123535e-12 </wgt>
<wgt id='1911'> +1.3313327e-12 </wgt>
<wgt id='1912'> +1.3253543e-12 </wgt>
<wgt id='1913'> +1.3236103e-12 </wgt>
<wgt id='1914'> +1.3638329e-12 </wgt>
<wgt id='1915'> +1.3271649e-12 </wgt>
<wgt id='1916'> +1.2683405e-12 </wgt>
<wgt id='1917'> +1.3513646e-12 </wgt>
<wgt id='1918'> +1.3766584e-12 </wgt>
<wgt id='1919'> +1.2997256e-12 </wgt>
</rwgt>
</event>
<event>
 9      1 +1.5607000e-12 5.09229400e+01 7.81860800e-03 1.30700600e-01
       21 -1    0    0  501  502 +0.0000000000e+00 +0.0000000000e+00 +5.7475240432e+00 5.7475240432e+00 0.0000000000e+00 0.0000e+00 -1.0000e+00
        2 -1    0    0  502    0 -0.0000000000e+00 -0.0000000000e+00 -1.1279405435e+02 1.1279405435e+02 0.0000000000e+00 0.0000e+00 1.0000e+00
     1023  2    1    2    0    0 +1.9276097556e+01 +7.6678206465e+00 -8.2615515518e+01 8.6491026228e+01 1.5000360105e+01 0.0000e+00 0.0000e+00
  1000023  2    3    3    0    0 +1.5654372756e+00 +4.3086009311e-01 -2.1770356391e+01 2.2513104453e+01 5.5004745613e+00 0.0000e+00 0.0000e+00
        2  1    1    2  501    0 -1.9276097556e+01 -7.6678206465e+00 -2.4431014788e+01 3.2050552164e+01 0.0000000000e+00 0.0000e+00 1.0000e+00
  1000022  1    4    4    0    0 +1.8044726265e+00 +6.8720143400e-01 -2.0628957743e+01 2.1313898395e+01 5.0000000000e+00 0.0000e+00 -1.0000e+00
      -11  1    4    4    0    0 -2.2218478347e-01 -1.7302491859e-01 -9.1600529056e-01 9.5831605116e-01 5.1100000000e-04 0.0000e+00 1.0000e+00
       11  1    4    4    0    0 -1.6850567410e-02 -8.3316422303e-02 -2.2539335835e-01 2.4089000593e-01 5.1100000000e-04 0.0000e+00 -1.0000e+00
  1000022  1    3    3    0    0 +1.7710660280e+01 +7.2369605534e+00 -6.0845159126e+01 6.3977921775e+01 5.0000000000e+00 0.0000e+00 -1.0000e+00
<mgrwt>
<rscale>  1 0.50922943E+02</rscale>
<asrwt>0</asrwt>
<pdfrwt beam="1">  1       21 0.88423452E-03 0.50922943E+02</pdfrwt>
<pdfrwt beam="2">  1        2 0.17352930E-01 0.50922943E+02</pdfrwt>
<totfact> 0.14519647E+07</totfact>
</mgrwt>
<rwgt>
<wgt id='1001'> +1.5607000e-12 </wgt>
<wgt id='1002'> +1.5373015e-12 </wgt>
<wgt id='1003'> +1.5489663e-12 </wgt>
<wgt id='1004'> +1.4344348e-12 </wgt>
<wgt id='1005'> +1.5607000e-12 </wgt>
<wgt id='1006'> +1.3836621e-12 </wgt>
<wgt id='1007'> +1.3570853e-12 </wgt>
<wgt id='1008'> +1.3702527e-12 </wgt>
<wgt id='1009'> +1.2456767e-12 </wgt>
<wgt id='1010'> +1.3836621e-12 </wgt>
<wgt id='1011'> +1.7919905e-12 </wgt>
<wgt id='1012'> +1.7752582e-12 </wgt>
<wgt id='1013'> +1.7836820e-12 </wgt>
<wgt id='1014'> +1.6941887e-12 </wgt>
<wgt id='1015'> +1.7919905e-12 </wgt>
<wgt id='1016'> +1.8294022e-12 </wgt>
<wgt id='1017'> +1.8227721e-12 </wgt>
<wgt id='1018'> +1.8262560e-12 </wgt>
<wgt id='1019'> +1.7836820e-12 </wgt>
<wgt id='1020'> +1.8294022e-12 </wgt>
<wgt id='1021'> +1.6218841e-12 </wgt>
<wgt id='1022'> +1.6090905e-12 </wgt>
<wgt id='1023'> +1.6155498e-12 </wgt>
<wgt id='1024'> +1.5489663e-12 </wgt>
<wgt id='1025'> +1.6218841e-12 </wgt>
<wgt id='1026'> +2.1005135e-12 </wgt>
<wgt id='1027'> +2.1049164e-12 </wgt>
<wgt id='1028'> +2.1029895e-12 </wgt>
<wgt id='1029'> +2.1066791e-12 </wgt>
<wgt id='1030'> +2.1005135e-12 </wgt>
<wgt id='1031'> +1.2660618e-12 </wgt>
<wgt id='1032'> +1.2256145e-12 </wgt>
<wgt id='1033'> +1.2456767e-12 </wgt>
<wgt id='1034'> +1.0589918e-12 </wgt>
<wgt id='1035'> +1.2660618e-12 </wgt>
<wgt id='1036'> +1.1224462e-12 </wgt>
<wgt id='1037'> +1.0819370e-12 </wgt>
<wgt id='1038'> +1.1019555e-12 </wgt>
<wgt id='1039'> +9.1963849e-13 </wgt>
<wgt id='1040'> +1.1224462e-12 </wgt>
<wgt id='1041'> +1.4536880e-12 </wgt>
<wgt id='1042'> +1.4153256e-12 </wgt>
<wgt id='1043'> +1.4344348e-12 </wgt>
<wgt id='1044'> +1.2507588e-12 </wgt>
<wgt id='1045'> +1.4536880e-12 </wgt>
<wgt id='1046'> +1.5607000e-12 </wgt>
<wgt id='1047'> +1.6065435e-12 </wgt>
<wgt id='1048'> +1.5547578e-12 </wgt>
<wgt id='1049'> +1.5146837e-12 </wgt>
<wgt id='1050'> +1.5321883e-12 </wgt>
<wgt id='1051'> +1.5446763e-12 </wgt>
<wgt id='1052'> +1.5358312e-12 </wgt>
<wgt id='1053'> +1.5681298e-12 </wgt>
<wgt id='1054'> +1.5563985e-12 </wgt>
<wgt id='1055'> +1.5176746e-12 </wgt>
<wgt id='1056'> +1.5444089e-12 </wgt>
<wgt id='1057'> +1.5685566e-12 </wgt>
<wgt id='1058'> +1.5158274e-12 </wgt>
<wgt id='1059'> +1.5710061e-12 </wgt>
<wgt id='1060'> +1.5648101e-12 </wgt>
<wgt id='1061'> +1.5647155e-12 </wgt>
<wgt id='1062'> +1.5750998e-12 </wgt>
<wgt id='1063'> +1.5709401e-12 </wgt>
<wgt id='1064'> +1.5544046e-12 </wgt>
<wgt id='1065'> +1.5703430e-12 </wgt>
<wgt id='1066'> +1.5396583e-12 </wgt>
<wgt id='1067'> +1.5366047e-12 </wgt>
<wgt id='1068'> +1.5862895e-12 </wgt>
<wgt id='1069'> +1.5913420e-12 </wgt>
<wgt id='1070'> +1.5566758e-12 </wgt>
<wgt id='1071'> +1.5185018e-12 </wgt>
<wgt id='1072'> +1.6013054e-12 </wgt>
<wgt id='1073'> +1.5780172e-12 </wgt>
<wgt id='1074'> +1.5445616e-12 </wgt>
<wgt id='1075'> +1.5769113e-12 </wgt>
<wgt id='1076'> +1.5427645e-12 </wgt>
<wgt id='1077'> +1.5753711e-12 </wgt>
<wgt id='1078'> +1.5181037e-12 </wgt>
<wgt id='1079'> +1.5272528e-12 </wgt>
<wgt id='1080'> +1.5458632e-12 </wgt>
<wgt id='1081'> +1.5755393e-12 </wgt>
<wgt id='1082'> +1.5382941e-12 </wgt>
<wgt id='1083'> +1.5757662e-12 </wgt>
<wgt id='1084'> +1.5214901e-12 </wgt>
<wgt id='1085'> +1.5451860e-12 </wgt>
<wgt id='1086'> +1.5746052e-12 </wgt>
<wgt id='1087'> +1.5438120e-12 </wgt>
<wgt id='1088'> +1.5722375e-12 </wgt>
<wgt id='1089'> +1.5707291e-12 </wgt>
<wgt id='1090'> +1.5487431e-12 </wgt>
<wgt id='1091'> +1.5822702e-12 </wgt>
<wgt id='1092'> +1.5968263e-12 </wgt>
<wgt id='1093'> +1.5449483e-12 </wgt>
<wgt id='1094'> +1.5866414e-12 </wgt>
<wgt id='1095'> +1.5796843e-12 </wgt>
<wgt id='1096'> +1.6020796e-12 </wgt>
<wgt id='1097'> +1.5655695e-12 </wgt>
<wgt id='1098'> +1.5507731e-12 </wgt>
<wgt id='1099'> +1.5486718e-12 </wgt>
<wgt id='1100'> +1.5949882e-12 </wgt>
<wgt id='1101'> +1.6023344e-12 </wgt>
<wgt id='1102'> +1.5547422e-12 </wgt>
<wgt id='1103'> +1.6083077e-12 </wgt>
<wgt id='1104'> +1.5326901e-12 </wgt>
<wgt id='1105'> +1.5227294e-12 </wgt>
<wgt id='1106'> +1.5895829e-12 </wgt>
<wgt id='1107'> +1.5694094e-12 </wgt>
<wgt id='1108'> +1.5646100e-12 </wgt>
<wgt id='1109'> +1.5892029e-12 </wgt>
<wgt id='1110'> +1.5510073e-12 </wgt>
<wgt id='1111'> +1.5616041e-12 </wgt>
<wgt id='1112'> +1.5639565e-12 </wgt>
<wgt id='1113'> +1.6168288e-12 </wgt>
<wgt id='1114'> +1.5699100e-12 </wgt>
<wgt id='1115'> +1.5569232e-12 </wgt>
<wgt id='1116'> +1.5905555e-12 </wgt>
<wgt id='1117'> +1.5356455e-12 </wgt>
<wgt id='1118'> +1.6475304e-12 </wgt>
<wgt id='1119'> +1.4957550e-12 </wgt>
<wgt id='1120'> +1.5262057e-12 </wgt>
<wgt id='1121'> +1.5359720e-12 </wgt>
<wgt id='1122'> +1.5628898e-12 </wgt>
<wgt id='1123'> +1.5427052e-12 </wgt>
<wgt id='1124'> +1.5379939e-12 </wgt>
<wgt id='1125'> +1.5329630e-12 </wgt>
<wgt id='1126'> +1.5695037e-12 </wgt>
<wgt id='1127'> +1.5700589e-12 </wgt>
<wgt id='1128'> +1.5750998e-12 </wgt>
<wgt id='1129'> +1.5696830e-12 </wgt>
<wgt id='1130'> +1.5572396e-12 </wgt>
<wgt id='1131'> +1.5519845e-12 </wgt>
<wgt id='1132'> +1.5868643e-12 </wgt>
<wgt id='1133'> +1.5486840e-12 </wgt>
<wgt id='1134'> +1.5668849e-12 </wgt>
<wgt id='1135'> +1.5290440e-12 </wgt>
<wgt id='1136'> +1.5473871e-12 </wgt>
<wgt id='1137'> +1.5564430e-12 </wgt>
<wgt id='1138'> +1.5557643e-12 </wgt>
<wgt id='1139'> +1.5623558e-12 </wgt>
<wgt id='1140'> +1.5911061e-12 </wgt>
<wgt id='1141'> +1.5762809e-12 </wgt>
<wgt id='1142'> +1.5364718e-12 </wgt>
<wgt id='1143'> +1.5783058e-12 </wgt>
<wgt id='1144'> +1.5447918e-12 </wgt>
<wgt id='1145'> +1.5727371e-12 </wgt>
<wgt id='1146'> +1.5708798e-12 </wgt>
<wgt id='1147'> +1.3110473e-12 </wgt>
<wgt id='1148'> +1.3402920e-12 </wgt>
<wgt id='1149'> +1.3168030e-12 </wgt>
<wgt id='1150'> +1.3326831e-12 </wgt>
<wgt id='1151'> +1.4863030e-12 </wgt>
<wgt id='1152'> +1.8695822e-12 </wgt>
<wgt id='1153'> +1.8615105e-12 </wgt>
<wgt id='1154'> +1.8741854e-12 </wgt>
<wgt id='1155'> +1.8677307e-12 </wgt>
<wgt id='1156'> +1.8705106e-12 </wgt>
<wgt id='1157'> +1.8725346e-12 </wgt>
<wgt id='1158'> +1.8654865e-12 </wgt>
<wgt id='1159'> +1.8721292e-12 </wgt>
<wgt id='1160'> +1.8679273e-12 </wgt>
<wgt id='1161'> +1.8659277e-12 </wgt>
<wgt id='1162'> +1.8720274e-12 </wgt>
<wgt id='1163'> +1.8726484e-12 </wgt>
<wgt id='1164'> +1.8664882e-12 </wgt>
<wgt id='1165'> +1.8618362e-12 </wgt>
<wgt id='1166'> +1.8769092e-12 </wgt>
<wgt id='1167'> +1.8802667e-12 </wgt>
<wgt id='1168'> +1.8550874e-12 </wgt>
<wgt id='1169'> +1.8719234e-12 </wgt>
<wgt id='1170'> +1.8677998e-12 </wgt>
<wgt id='1171'> +1.8622440e-12 </wgt>
<wgt id='1172'> +1.8783205e-12 </wgt>
<wgt id='1173'> +1.8552652e-12 </wgt>
<wgt id='1174'> +1.8830278e-12 </wgt>
<wgt id='1175'> +1.8722673e-12 </wgt>
<wgt id='1176'> +1.8664458e-12 </wgt>
<wgt id='1177'> +1.8694671e-12 </wgt>
<wgt id='1178'> +1.8698459e-12 </wgt>
<wgt id='1179'> +1.8720177e-12 </wgt>
<wgt id='1180'> +1.8601674e-12 </wgt>
<wgt id='1181'> +1.8668844e-12 </wgt>
<wgt id='1182'> +1.8718099e-12 </wgt>
<wgt id='1183'> +1.8661738e-12 </wgt>
<wgt id='1184'> +1.8698417e-12 </wgt>
<wgt id='1185'> +1.8644343e-12 </wgt>
<wgt id='1186'> +1.8728355e-12 </wgt>
<wgt id='1187'> +1.8699113e-12 </wgt>
<wgt id='1188'> +1.8694746e-12 </wgt>
<wgt id='1189'> +1.8657585e-12 </wgt>
<wgt id='1190'> +1.8550801e-12 </wgt>
<wgt id='1191'> +1.8650621e-12 </wgt>
<wgt id='1192'> +1.8727565e-12 </wgt>
<wgt id='1193'> +1.3117072e-12 </wgt>
<wgt id='1194'> +1.3068275e-12 </wgt>
<wgt id='1195'> +1.3156379e-12 </wgt>
<wgt id='1196'> +1.3169526e-12 </wgt>
<wgt id='1197'> +1.3058275e-12 </wgt>
<wgt id='1198'> +1.3117671e-12 </wgt>
<wgt id='1199'> +1.3115534e-12 </wgt>
<wgt id='1200'> +1.3121298e-12 </wgt>
<wgt id='1201'> +1.3114115e-12 </wgt>
<wgt id='1202'> +1.3101709e-12 </wgt>
<wgt id='1203'> +1.3138719e-12 </wgt>
<wgt id='1204'> +1.3025793e-12 </wgt>
<wgt id='1205'> +1.3172447e-12 </wgt>
<wgt id='1206'> +1.3153176e-12 </wgt>
<wgt id='1207'> +1.3067060e-12 </wgt>
<wgt id='1208'> +1.3071446e-12 </wgt>
<wgt id='1209'> +1.3133357e-12 </wgt>
<wgt id='1210'> +1.3108401e-12 </wgt>
<wgt id='1211'> +1.3053365e-12 </wgt>
<wgt id='1212'> +1.3127905e-12 </wgt>
<wgt id='1213'> +1.3106553e-12 </wgt>
<wgt id='1214'> +1.2977404e-12 </wgt>
<wgt id='1215'> +1.3332852e-12 </wgt>
<wgt id='1216'> +1.3141406e-12 </wgt>
<wgt id='1217'> +1.3093368e-12 </wgt>
<wgt id='1218'> +1.3165620e-12 </wgt>
<wgt id='1219'> +1.3090694e-12 </wgt>
<wgt id='1220'> +1.3172356e-12 </wgt>
<wgt id='1221'> +1.3101639e-12 </wgt>
<wgt id='1222'> +1.3202703e-12 </wgt>
<wgt id='1223'> +1.2976315e-12 </wgt>
<wgt id='1224'> +1.3138997e-12 </wgt>
<wgt id='1225'> +1.3108016e-12 </wgt>
<wgt id='1226'> +1.3089388e-12 </wgt>
<wgt id='1227'> +1.3136527e-12 </wgt>
<wgt id='1228'> +1.3017902e-12 </wgt>
<wgt id='1229'> +1.3157533e-12 </wgt>
<wgt id='1230'> +1.3082473e-12 </wgt>
<wgt id='1231'> +1.3111903e-12 </wgt>
<wgt id='1232'> +1.3095305e-12 </wgt>
<wgt id='1233'> +1.3121935e-12 </wgt>
<wgt id='1234'> +1.3117072e-12 </wgt>
<wgt id='1235'> +1.3032549e-12 </wgt>
<wgt id='1236'> +1.3063792e-12 </wgt>
<wgt id='1237'> +1.3092027e-12 </wgt>
<wgt id='1238'> +1.3139150e-12 </wgt>
<wgt id='1239'> +1.3158221e-12 </wgt>
<wgt id='1240'> +1.3177177e-12 </wgt>
<wgt id='1241'> +1.2725391e-12 </wgt>
<wgt id='1242'> +1.2644741e-12 </wgt>
<wgt id='1243'> +1.2805266e-12 </wgt>
<wgt id='1244'> +1.2673338e-12 </wgt>
<wgt id='1245'> +1.2763415e-12 </wgt>
<wgt id='1246'> +1.2719101e-12 </wgt>
<wgt id='1247'> +1.2730940e-12 </wgt>
<wgt id='1248'> +1.2724793e-12 </wgt>
<wgt id='1249'> +1.2726029e-12 </wgt>
<wgt id='1250'> +1.2738965e-12 </wgt>
<wgt id='1251'> +1.2715755e-12 </wgt>
<wgt id='1252'> +1.2701855e-12 </wgt>
<wgt id='1253'> +1.2743800e-12 </wgt>
<wgt id='1254'> +1.2647648e-12 </wgt>
<wgt id='1255'> +1.2771834e-12 </wgt>
<wgt id='1256'> +1.2751464e-12 </wgt>
<wgt id='1257'> +1.2658994e-12 </wgt>
<wgt id='1258'> +1.2885932e-12 </wgt>
<wgt id='1259'> +1.2572092e-12 </wgt>
<wgt id='1260'> +1.2752539e-12 </wgt>
<wgt id='1261'> +1.2696449e-12 </wgt>
<wgt id='1262'> +1.2703319e-12 </wgt>
<wgt id='1263'> +1.2731741e-12 </wgt>
<wgt id='1264'> +1.2788511e-12 </wgt>
<wgt id='1265'> +1.2694595e-12 </wgt>
<wgt id='1266'> +1.2613022e-12 </wgt>
<wgt id='1267'> +1.2825440e-12 </wgt>
<wgt id='1268'> +1.2759935e-12 </wgt>
<wgt id='1269'> +1.2711631e-12 </wgt>
<wgt id='1270'> +1.2673320e-12 </wgt>
<wgt id='1271'> +1.2703095e-12 </wgt>
<wgt id='1272'> +1.2710000e-12 </wgt>
<wgt id='1273'> +1.2727594e-12 </wgt>
<wgt id='1274'> +1.2741338e-12 </wgt>
<wgt id='1275'> +1.2694913e-12 </wgt>
<wgt id='1276'> +1.2785722e-12 </wgt>
<wgt id='1277'> +1.2634645e-12 </wgt>
<wgt id='1278'> +1.2747312e-12 </wgt>
<wgt id='1279'> +1.2727360e-12 </wgt>
<wgt id='1280'> +1.2732383e-12 </wgt>
<wgt id='1281'> +1.2697845e-12 </wgt>
<wgt id='1282'> +1.2725391e-12 </wgt>
<wgt id='1283'> +1.2643189e-12 </wgt>
<wgt id='1284'> +1.2675751e-12 </wgt>
<wgt id='1285'> +1.2702906e-12 </wgt>
<wgt id='1286'> +1.2748245e-12 </wgt>
<wgt id='1287'> +1.2766101e-12 </wgt>
<wgt id='1288'> +1.2780599e-12 </wgt>
<wgt id='1289'> +1.3926669e-12 </wgt>
<wgt id='1290'> +1.3917159e-12 </wgt>
<wgt id='1291'> +1.3937182e-12 </wgt>
<wgt id='1292'> +1.3893699e-12 </wgt>
<wgt id='1293'> +1.3950562e-12 </wgt>
<wgt id='1294'> +1.3841153e-12 </wgt>
<wgt id='1295'> +1.4010222e-12 </wgt>
<wgt id='1296'> +1.3906107e-12 </wgt>
<wgt id='1297'> +1.3951518e-12 </wgt>
<wgt id='1298'> +1.3978901e-12 </wgt>
<wgt id='1299'> +1.3861798e-12 </wgt>
<wgt id='1300'> +1.3952018e-12 </wgt>
<wgt id='1301'> +1.3876285e-12 </wgt>
<wgt id='1302'> +1.3906726e-12 </wgt>
<wgt id='1303'> +1.3954479e-12 </wgt>
<wgt id='1304'> +1.3903206e-12 </wgt>
<wgt id='1305'> +1.3942753e-12 </wgt>
<wgt id='1306'> +1.3875650e-12 </wgt>
<wgt id='1307'> +1.3984366e-12 </wgt>
<wgt id='1308'> +1.3886926e-12 </wgt>
<wgt id='1309'> +1.3957304e-12 </wgt>
<wgt id='1310'> +1.3918811e-12 </wgt>
<wgt id='1311'> +1.3936776e-12 </wgt>
<wgt id='1312'> +1.3913728e-12 </wgt>
<wgt id='1313'> +1.3939799e-12 </wgt>
<wgt id='1314'> +1.3843047e-12 </wgt>
<wgt id='1315'> +1.3968462e-12 </wgt>
<wgt id='1316'> +1.4001806e-12 </wgt>
<wgt id='1317'> +1.3918901e-12 </wgt>
<wgt id='1318'> +1.4019078e-12 </wgt>
<wgt id='1319'> +1.3812963e-12 </wgt>
<wgt id='1320'> +1.4022290e-12 </wgt>
<wgt id='1321'> +1.3846415e-12 </wgt>
<wgt id='1322'> +1.3921799e-12 </wgt>
<wgt id='1323'> +1.3930511e-12 </wgt>
<wgt id='1324'> +1.3877979e-12 </wgt>
<wgt id='1325'> +1.4092716e-12 </wgt>
<wgt id='1326'> +1.3927841e-12 </wgt>
<wgt id='1327'> +1.3946889e-12 </wgt>
<wgt id='1328'> +1.3930377e-12 </wgt>
<wgt id='1329'> +1.3921570e-12 </wgt>
<wgt id='1330'> +1.3915586e-12 </wgt>
<wgt id='1331'> +1.3947215e-12 </wgt>
<wgt id='1332'> +1.4107005e-12 </wgt>
<wgt id='1333'> +1.3850844e-12 </wgt>
<wgt id='1334'> +1.3902596e-12 </wgt>
<wgt id='1335'> +1.4000389e-12 </wgt>
<wgt id='1336'> +1.3900092e-12 </wgt>
<wgt id='1337'> +1.3943191e-12 </wgt>
<wgt id='1338'> +1.3902310e-12 </wgt>
<wgt id='1339'> +1.3931017e-12 </wgt>
<wgt id='1340'> +1.3674699e-12 </wgt>
<wgt id='1341'> +1.3665673e-12 </wgt>
<wgt id='1342'> +1.3684521e-12 </wgt>
<wgt id='1343'> +1.3641251e-12 </wgt>
<wgt id='1344'> +1.3697487e-12 </wgt>
<wgt id='1345'> +1.3587802e-12 </wgt>
<wgt id='1346'> +1.3756306e-12 </wgt>
<wgt id='1347'> +1.3658825e-12 </wgt>
<wgt id='1348'> +1.3692016e-12 </wgt>
<wgt id='1349'> +1.3723279e-12 </wgt>
<wgt id='1350'> +1.3627115e-12 </wgt>
<wgt id='1351'> +1.3699054e-12 </wgt>
<wgt id='1352'> +1.3621911e-12 </wgt>
<wgt id='1353'> +1.3648398e-12 </wgt>
<wgt id='1354'> +1.3721960e-12 </wgt>
<wgt id='1355'> +1.3654410e-12 </wgt>
<wgt id='1356'> +1.3686030e-12 </wgt>
<wgt id='1357'> +1.3614589e-12 </wgt>
<wgt id='1358'> +1.3745501e-12 </wgt>
<wgt id='1359'> +1.3649618e-12 </wgt>
<wgt id='1360'> +1.3696892e-12 </wgt>
<wgt id='1361'> +1.3667804e-12 </wgt>
<wgt id='1362'> +1.3685468e-12 </wgt>
<wgt id='1363'> +1.3676609e-12 </wgt>
<wgt id='1364'> +1.3675564e-12 </wgt>
<wgt id='1365'> +1.3686353e-12 </wgt>
<wgt id='1366'> +1.3592763e-12 </wgt>
<wgt id='1367'> +1.3748609e-12 </wgt>
<wgt id='1368'> +1.3661782e-12 </wgt>
<wgt id='1369'> +1.3754615e-12 </wgt>
<wgt id='1370'> +1.3577294e-12 </wgt>
<wgt id='1371'> +1.3749265e-12 </wgt>
<wgt id='1372'> +1.3585986e-12 </wgt>
<wgt id='1373'> +1.3650150e-12 </wgt>
<wgt id='1374'> +1.3694046e-12 </wgt>
<wgt id='1375'> +1.3625836e-12 </wgt>
<wgt id='1376'> +1.3850361e-12 </wgt>
<wgt id='1377'> +1.3674009e-12 </wgt>
<wgt id='1378'> +1.3698509e-12 </wgt>
<wgt id='1379'> +1.3676910e-12 </wgt>
<wgt id='1380'> +1.3670353e-12 </wgt>
<wgt id='1381'> +1.3667958e-12 </wgt>
<wgt id='1382'> +1.3684224e-12 </wgt>
<wgt id='1383'> +1.3840878e-12 </wgt>
<wgt id='1384'> +1.3613770e-12 </wgt>
<wgt id='1385'> +1.3654276e-12 </wgt>
<wgt id='1386'> +1.3733336e-12 </wgt>
<wgt id='1387'> +1.3635179e-12 </wgt>
<wgt id='1388'> +1.3692863e-12 </wgt>
<wgt id='1389'> +1.3636158e-12 </wgt>
<wgt id='1390'> +1.3682596e-12 </wgt>
<wgt id='1391'> +1.3379532e-12 </wgt>
<wgt id='1392'> +1.3033797e-12 </wgt>
<wgt id='1393'> +1.3149033e-12 </wgt>
<wgt id='1394'> +1.3273976e-12 </wgt>
<wgt id='1395'> +1.3505838e-12 </wgt>
<wgt id='1396'> +1.3392388e-12 </wgt>
<wgt id='1397'> +1.3055076e-12 </wgt>
<wgt id='1398'> +1.3122134e-12 </wgt>
<wgt id='1399'> +1.3182951e-12 </wgt>
<wgt id='1400'> +1.3248799e-12 </wgt>
<wgt id='1401'> +1.3320795e-12 </wgt>
<wgt id='1402'> +1.3463087e-12 </wgt>
<wgt id='1403'> +1.3534307e-12 </wgt>
<wgt id='1404'> +1.3604185e-12 </wgt>
<wgt id='1405'> +1.3392388e-12 </wgt>
<wgt id='1406'> +1.3344443e-12 </wgt>
<wgt id='1407'> +1.3370442e-12 </wgt>
<wgt id='1408'> +1.3412850e-12 </wgt>
<wgt id='1409'> +1.3435031e-12 </wgt>
<wgt id='1410'> +1.2882017e-12 </wgt>
<wgt id='1411'> +1.2881241e-12 </wgt>
<wgt id='1412'> +1.2883097e-12 </wgt>
<wgt id='1413'> +1.2871320e-12 </wgt>
<wgt id='1414'> +1.2892805e-12 </wgt>
<wgt id='1415'> +1.2826811e-12 </wgt>
<wgt id='1416'> +1.2904504e-12 </wgt>
<wgt id='1417'> +1.2803448e-12 </wgt>
<wgt id='1418'> +1.2960456e-12 </wgt>
<wgt id='1419'> +1.2901172e-12 </wgt>
<wgt id='1420'> +1.2863700e-12 </wgt>
<wgt id='1421'> +1.2761014e-12 </wgt>
<wgt id='1422'> +1.2934273e-12 </wgt>
<wgt id='1423'> +1.2878940e-12 </wgt>
<wgt id='1424'> +1.2885964e-12 </wgt>
<wgt id='1425'> +1.2826766e-12 </wgt>
<wgt id='1426'> +1.2941632e-12 </wgt>
<wgt id='1427'> +1.2728254e-12 </wgt>
<wgt id='1428'> +1.2965336e-12 </wgt>
<wgt id='1429'> +1.2876993e-12 </wgt>
<wgt id='1430'> +1.2889900e-12 </wgt>
<wgt id='1431'> +1.2883293e-12 </wgt>
<wgt id='1432'> +1.2880341e-12 </wgt>
<wgt id='1433'> +1.2836850e-12 </wgt>
<wgt id='1434'> +1.2908906e-12 </wgt>
<wgt id='1435'> +1.2869359e-12 </wgt>
<wgt id='1436'> +1.2911866e-12 </wgt>
<wgt id='1437'> +1.2952263e-12 </wgt>
<wgt id='1438'> +1.2873706e-12 </wgt>
<wgt id='1439'> +1.2831656e-12 </wgt>
<wgt id='1440'> +1.2985476e-12 </wgt>
<wgt id='1441'> +1.2903926e-12 </wgt>
<wgt id='1442'> +1.2848283e-12 </wgt>
<wgt id='1443'> +1.2844284e-12 </wgt>
<wgt id='1444'> +1.2971409e-12 </wgt>
<wgt id='1445'> +1.3044559e-12 </wgt>
<wgt id='1446'> +1.2827361e-12 </wgt>
<wgt id='1447'> +1.2873533e-12 </wgt>
<wgt id='1448'> +1.2922309e-12 </wgt>
<wgt id='1449'> +1.2889920e-12 </wgt>
<wgt id='1450'> +1.2873687e-12 </wgt>
<wgt id='1451'> +1.2888090e-12 </wgt>
<wgt id='1452'> +1.2859174e-12 </wgt>
<wgt id='1453'> +1.2890297e-12 </wgt>
<wgt id='1454'> +1.2814513e-12 </wgt>
<wgt id='1455'> +1.2870865e-12 </wgt>
<wgt id='1456'> +1.2912057e-12 </wgt>
<wgt id='1457'> +1.2911366e-12 </wgt>
<wgt id='1458'> +1.2871773e-12 </wgt>
<wgt id='1459'> +1.2924048e-12 </wgt>
<wgt id='1460'> +1.2871216e-12 </wgt>
<wgt id='1461'> +1.2882017e-12 </wgt>
<wgt id='1462'> +1.2785630e-12 </wgt>
<wgt id='1463'> +1.2963238e-12 </wgt>
<wgt id='1464'> +1.2881387e-12 </wgt>
<wgt id='1465'> +1.2574443e-12 </wgt>
<wgt id='1466'> +1.2633988e-12 </wgt>
<wgt id='1467'> +1.2700691e-12 </wgt>
<wgt id='1468'> +1.2762029e-12 </wgt>
<wgt id='1469'> +1.2819415e-12 </wgt>
<wgt id='1470'> +1.2947103e-12 </wgt>
<wgt id='1471'> +1.2999349e-12 </wgt>
<wgt id='1472'> +1.3061854e-12 </wgt>
<wgt id='1473'> +1.2881387e-12 </wgt>
<wgt id='1474'> +1.2835011e-12 </wgt>
<wgt id='1475'> +1.2855485e-12 </wgt>
<wgt id='1476'> +1.2900841e-12 </wgt>
<wgt id='1477'> +1.2918583e-12 </wgt>
<wgt id='1478'> +1.2996767e-12 </wgt>
<wgt id='1479'> +1.2970566e-12 </wgt>
<wgt id='1480'> +1.2906085e-12 </wgt>
<wgt id='1481'> +1.3042722e-12 </wgt>
<wgt id='1482'> +1.2968919e-12 </wgt>
<wgt id='1483'> +1.2876449e-12 </wgt>
<wgt id='1484'> +1.2996362e-12 </wgt>
<wgt id='1485'> +1.2957234e-12 </wgt>
<wgt id='1486'> +1.2997227e-12 </wgt>
<wgt id='1487'> +1.3009345e-12 </wgt>
<wgt id='1488'> +1.2980097e-12 </wgt>
<wgt id='1489'> +1.3092351e-12 </wgt>
<wgt id='1490'> +1.2945838e-12 </wgt>
<wgt id='1491'> +1.3008485e-12 </wgt>
<wgt id='1492'> +1.3036047e-12 </wgt>
<wgt id='1493'> +1.2814972e-12 </wgt>
<wgt id='1494'> +1.3030719e-12 </wgt>
<wgt id='1495'> +1.2857546e-12 </wgt>
<wgt id='1496'> +1.2983765e-12 </wgt>
<wgt id='1497'> +1.2994702e-12 </wgt>
<wgt id='1498'> +1.3004546e-12 </wgt>
<wgt id='1499'> +1.3002510e-12 </wgt>
<wgt id='1500'> +1.2985096e-12 </wgt>
<wgt id='1501'> +1.3006282e-12 </wgt>
<wgt id='1502'> +1.3038641e-12 </wgt>
<wgt id='1503'> +1.3012750e-12 </wgt>
<wgt id='1504'> +1.2976578e-12 </wgt>
<wgt id='1505'> +1.2998333e-12 </wgt>
<wgt id='1506'> +1.2985278e-12 </wgt>
<wgt id='1507'> +1.2989236e-12 </wgt>
<wgt id='1508'> +1.3041477e-12 </wgt>
<wgt id='1509'> +1.3106874e-12 </wgt>
<wgt id='1510'> +1.3106042e-12 </wgt>
<wgt id='1511'> +1.3097517e-12 </wgt>
<wgt id='1512'> +1.3074781e-12 </wgt>
<wgt id='1513'> +1.3108038e-12 </wgt>
<wgt id='1514'> +1.3147578e-12 </wgt>
<wgt id='1515'> +1.3123658e-12 </wgt>
<wgt id='1516'> +1.3153982e-12 </wgt>
<wgt id='1517'> +1.3156659e-12 </wgt>
<wgt id='1518'> +1.3118965e-12 </wgt>
<wgt id='1519'> +1.3055936e-12 </wgt>
<wgt id='1520'> +1.3120663e-12 </wgt>
<wgt id='1521'> +1.3145403e-12 </wgt>
<wgt id='1522'> +1.3102519e-12 </wgt>
<wgt id='1523'> +1.3171078e-12 </wgt>
<wgt id='1524'> +1.3130201e-12 </wgt>
<wgt id='1525'> +1.3155649e-12 </wgt>
<wgt id='1526'> +1.3089539e-12 </wgt>
<wgt id='1527'> +1.3085720e-12 </wgt>
<wgt id='1528'> +1.3122338e-12 </wgt>
<wgt id='1529'> +1.3103969e-12 </wgt>
<wgt id='1530'> +1.3158574e-12 </wgt>
<wgt id='1531'> +1.3121640e-12 </wgt>
<wgt id='1532'> +1.3047991e-12 </wgt>
<wgt id='1533'> +1.3107774e-12 </wgt>
<wgt id='1534'> +1.3138133e-12 </wgt>
<wgt id='1535'> +1.3024388e-12 </wgt>
<wgt id='1536'> +1.3084282e-12 </wgt>
<wgt id='1537'> +1.3078028e-12 </wgt>
<wgt id='1538'> +1.3103366e-12 </wgt>
<wgt id='1539'> +1.3201484e-12 </wgt>
<wgt id='1540'> +1.3131155e-12 </wgt>
<wgt id='1541'> +1.3105373e-12 </wgt>
<wgt id='1542'> +1.3083969e-12 </wgt>
<wgt id='1543'> +1.3111628e-12 </wgt>
<wgt id='1544'> +1.3109118e-12 </wgt>
<wgt id='1545'> +1.3092297e-12 </wgt>
<wgt id='1546'> +1.3072894e-12 </wgt>
<wgt id='1547'> +1.3110321e-12 </wgt>
<wgt id='1548'> +1.3096642e-12 </wgt>
<wgt id='1549'> +1.3099095e-12 </wgt>
<wgt id='1550'> +1.3111774e-12 </wgt>
<wgt id='1551'> +1.3125209e-12 </wgt>
<wgt id='1552'> +1.3114726e-12 </wgt>
<wgt id='1553'> +1.3097592e-12 </wgt>
<wgt id='1554'> +1.3122915e-12 </wgt>
<wgt id='1555'> +1.3117397e-12 </wgt>
<wgt id='1556'> +1.3102001e-12 </wgt>
<wgt id='1557'> +1.3136285e-12 </wgt>
<wgt id='1558'> +1.3081449e-12 </wgt>
<wgt id='1559'> +1.3104510e-12 </wgt>
<wgt id='1560'> +1.3128694e-12 </wgt>
<wgt id='1561'> +1.3097864e-12 </wgt>
<wgt id='1562'> +1.3114060e-12 </wgt>
<wgt id='1563'> +1.3117513e-12 </wgt>
<wgt id='1564'> +1.3120199e-12 </wgt>
<wgt id='1565'> +1.3097868e-12 </wgt>
<wgt id='1566'> +1.3113436e-12 </wgt>
<wgt id='1567'> +1.3122989e-12 </wgt>
<wgt id='1568'> +1.3089627e-12 </wgt>
<wgt id='1569'> +1.3103599e-12 </wgt>
<wgt id='1570'> +1.3106245e-12 </wgt>
<wgt id='1571'> +1.3104203e-12 </wgt>
<wgt id='1572'> +1.3100496e-12 </wgt>
<wgt id='1573'> +1.3099057e-12 </wgt>
<wgt id='1574'> +1.3101648e-12 </wgt>
<wgt id='1575'> +1.3110201e-12 </wgt>
<wgt id='1576'> +1.3107911e-12 </wgt>
<wgt id='1577'> +1.3118198e-12 </wgt>
<wgt id='1578'> +1.3112309e-12 </wgt>
<wgt id='1579'> +1.3101705e-12 </wgt>
<wgt id='1580'> +1.3099468e-12 </wgt>
<wgt id='1581'> +1.3121825e-12 </wgt>
<wgt id='1582'> +1.3112972e-12 </wgt>
<wgt id='1583'> +1.3110015e-12 </wgt>
<wgt id='1584'> +1.3113330e-12 </wgt>
<wgt id='1585'> +1.3106441e-12 </wgt>
<wgt id='1586'> +1.3110664e-12 </wgt>
<wgt id='1587'> +1.3116823e-12 </wgt>
<wgt id='1588'> +1.3104215e-12 </wgt>
<wgt id='1589'> +1.3113878e-12 </wgt>
<wgt id='1590'> +1.3106877e-12 </wgt>
<wgt id='1591'> +1.3106904e-12 </wgt>
<wgt id='1592'> +1.3106833e-12 </wgt>
<wgt id='1593'> +1.3094028e-12 </wgt>
<wgt id='1594'> +1.3104746e-12 </wgt>
<wgt id='1595'> +1.3108569e-12 </wgt>
<wgt id='1596'> +1.3105834e-12 </wgt>
<wgt id='1597'> +1.3102797e-12 </wgt>
<wgt id='1598'> +1.3105800e-12 </wgt>
<wgt id='1599'> +1.3106097e-12 </wgt>
<wgt id='1600'> +1.3115162e-12 </wgt>
<wgt id='1601'> +1.3097893e-12 </wgt>
<wgt id='1602'> +1.3102144e-12 </wgt>
<wgt id='1603'> +1.3100426e-12 </wgt>
<wgt id='1604'> +1.3108694e-12 </wgt>
<wgt id='1605'> +1.3109522e-12 </wgt>
<wgt id='1606'> +1.3106521e-12 </wgt>
<wgt id='1607'> +1.3112270e-12 </wgt>
<wgt id='1608'> +1.3108342e-12 </wgt>
<wgt id='1609'> +1.3103954e-12 </wgt>
<wgt id='1610'> +1.2973274e-12 </wgt>
<wgt id='1611'> +1.3242169e-12 </wgt>
<wgt id='1612'> +1.5362839e-12 </wgt>
<wgt id='1613'> +1.5063575e-12 </wgt>
<wgt id='1614'> +1.5213707e-12 </wgt>
<wgt id='1615'> +1.5392324e-12 </wgt>
<wgt id='1616'> +1.5127433e-12 </wgt>
<wgt id='1617'> +1.5438286e-12 </wgt>
<wgt id='1618'> +1.5718489e-12 </wgt>
<wgt id='1619'> +1.5294522e-12 </wgt>
<wgt id='1620'> +1.4749106e-12 </wgt>
<wgt id='1621'> +1.5663417e-12 </wgt>
<wgt id='1622'> +1.5360458e-12 </wgt>
<wgt id='1623'> +1.5207588e-12 </wgt>
<wgt id='1624'> +1.5262994e-12 </wgt>
<wgt id='1625'> +1.5406542e-12 </wgt>
<wgt id='1626'> +1.5148949e-12 </wgt>
<wgt id='1627'> +1.5253689e-12 </wgt>
<wgt id='1628'> +1.5298858e-12 </wgt>
<wgt id='1629'> +1.5739636e-12 </wgt>
<wgt id='1630'> +1.5138220e-12 </wgt>
<wgt id='1631'> +1.5432138e-12 </wgt>
<wgt id='1632'> +1.5103567e-12 </wgt>
<wgt id='1633'> +1.5037647e-12 </wgt>
<wgt id='1634'> +1.5602977e-12 </wgt>
<wgt id='1635'> +1.5618438e-12 </wgt>
<wgt id='1636'> +1.5813825e-12 </wgt>
<wgt id='1637'> +1.5294383e-12 </wgt>
<wgt id='1638'> +1.5621003e-12 </wgt>
<wgt id='1639'> +1.5116278e-12 </wgt>
<wgt id='1640'> +1.5580372e-12 </wgt>
<wgt id='1641'> +1.5266414e-12 </wgt>
<wgt id='1642'> +1.5398972e-12 </wgt>
<wgt id='1643'> +1.5143419e-12 </wgt>
<wgt id='1644'> +1.5441074e-12 </wgt>
<wgt id='1645'> +1.5604663e-12 </wgt>
<wgt id='1646'> +1.5156466e-12 </wgt>
<wgt id='1647'> +1.5265798e-12 </wgt>
<wgt id='1648'> +1.5800758e-12 </wgt>
<wgt id='1649'> +1.5685842e-12 </wgt>
<wgt id='1650'> +1.5216917e-12 </wgt>
<wgt id='1651'> +1.5010964e-12 </wgt>
<wgt id='1652'> +1.4990599e-12 </wgt>
<wgt id='1653'> +1.5482405e-12 </wgt>
<wgt id='1654'> +1.5476367e-12 </wgt>
<wgt id='1655'> +1.5185023e-12 </wgt>
<wgt id='1656'> +1.5239386e-12 </wgt>
<wgt id='1657'> +1.5016179e-12 </wgt>
<wgt id='1658'> +1.5261856e-12 </wgt>
<wgt id='1659'> +1.5262994e-12 </wgt>
<wgt id='1660'> +1.5888515e-12 </wgt>
<wgt id='1661'> +1.5365219e-12 </wgt>
<wgt id='1662'> +1.5455702e-12 </wgt>
<wgt id='1663'> +1.5285140e-12 </wgt>
<wgt id='1664'> +1.5432105e-12 </wgt>
<wgt id='1665'> +1.5059849e-12 </wgt>
<wgt id='1666'> +1.5205429e-12 </wgt>
<wgt id='1667'> +1.5114545e-12 </wgt>
<wgt id='1668'> +1.5541944e-12 </wgt>
<wgt id='1669'> +1.5590826e-12 </wgt>
<wgt id='1670'> +1.5637539e-12 </wgt>
<wgt id='1671'> +1.5626590e-12 </wgt>
<wgt id='1672'> +1.5792285e-12 </wgt>
<wgt id='1673'> +1.5149942e-12 </wgt>
<wgt id='1674'> +1.4715879e-12 </wgt>
<wgt id='1675'> +1.5719818e-12 </wgt>
<wgt id='1676'> +1.5634088e-12 </wgt>
<wgt id='1677'> +1.5931410e-12 </wgt>
<wgt id='1678'> +1.5243414e-12 </wgt>
<wgt id='1679'> +1.5137534e-12 </wgt>
<wgt id='1680'> +1.5535035e-12 </wgt>
<wgt id='1681'> +1.5469723e-12 </wgt>
<wgt id='1682'> +1.5492882e-12 </wgt>
<wgt id='1683'> +1.4951901e-12 </wgt>
<wgt id='1684'> +1.5363429e-12 </wgt>
<wgt id='1685'> +1.5193146e-12 </wgt>
<wgt id='1686'> +1.5406156e-12 </wgt>
<wgt id='1687'> +1.5596734e-12 </wgt>
<wgt id='1688'> +1.5308888e-12 </wgt>
<wgt id='1689'> +1.5501132e-12 </wgt>
<wgt id='1690'> +1.5596343e-12 </wgt>
<wgt id='1691'> +1.5620081e-12 </wgt>
<wgt id='1692'> +1.5798242e-12 </wgt>
<wgt id='1693'> +1.5526150e-12 </wgt>
<wgt id='1694'> +1.5460895e-12 </wgt>
<wgt id='1695'> +1.5940100e-12 </wgt>
<wgt id='1696'> +1.5575909e-12 </wgt>
<wgt id='1697'> +1.5221504e-12 </wgt>
<wgt id='1698'> +1.5222737e-12 </wgt>
<wgt id='1699'> +1.5341471e-12 </wgt>
<wgt id='1700'> +1.5212520e-12 </wgt>
<wgt id='1701'> +1.5408690e-12 </wgt>
<wgt id='1702'> +1.5126143e-12 </wgt>
<wgt id='1703'> +1.5552468e-12 </wgt>
<wgt id='1704'> +1.5311694e-12 </wgt>
<wgt id='1705'> +1.4710065e-12 </wgt>
<wgt id='1706'> +1.5541192e-12 </wgt>
<wgt id='1707'> +1.5119537e-12 </wgt>
<wgt id='1708'> +1.5216920e-12 </wgt>
<wgt id='1709'> +1.5381166e-12 </wgt>
<wgt id='1710'> +1.4989669e-12 </wgt>
<wgt id='1711'> +1.5109968e-12 </wgt>
<wgt id='1712'> +1.5357055e-12 </wgt>
<wgt id='1713'> +1.2566526e-12 </wgt>
<wgt id='1714'> +1.2237988e-12 </wgt>
<wgt id='1715'> +1.2511674e-12 </wgt>
<wgt id='1716'> +1.2557426e-12 </wgt>
<wgt id='1717'> +1.2480399e-12 </wgt>
<wgt id='1718'> +1.2653799e-12 </wgt>
<wgt id='1719'> +1.2548859e-12 </wgt>
<wgt id='1720'> +1.2549833e-12 </wgt>
<wgt id='1721'> +1.2189978e-12 </wgt>
<wgt id='1722'> +1.2383224e-12 </wgt>
<wgt id='1723'> +1.2499724e-12 </wgt>
<wgt id='1724'> +1.3229226e-12 </wgt>
<wgt id='1725'> +1.2496199e-12 </wgt>
<wgt id='1726'> +1.2626508e-12 </wgt>
<wgt id='1727'> +1.2811681e-12 </wgt>
<wgt id='1728'> +1.2538725e-12 </wgt>
<wgt id='1729'> +1.2219451e-12 </wgt>
<wgt id='1730'> +1.2569373e-12 </wgt>
<wgt id='1731'> +1.2054995e-12 </wgt>
<wgt id='1732'> +1.2727692e-12 </wgt>
<wgt id='1733'> +1.2376332e-12 </wgt>
<wgt id='1734'> +1.2851219e-12 </wgt>
<wgt id='1735'> +1.2547932e-12 </wgt>
<wgt id='1736'> +1.2965815e-12 </wgt>
<wgt id='1737'> +1.2886450e-12 </wgt>
<wgt id='1738'> +1.2712935e-12 </wgt>
<wgt id='1739'> +1.2244837e-12 </wgt>
<wgt id='1740'> +1.2176898e-12 </wgt>
<wgt id='1741'> +1.3037666e-12 </wgt>
<wgt id='1742'> +1.2474207e-12 </wgt>
<wgt id='1743'> +1.2531852e-12 </wgt>
<wgt id='1744'> +1.2771313e-12 </wgt>
<wgt id='1745'> +1.2387359e-12 </wgt>
<wgt id='1746'> +1.2580378e-12 </wgt>
<wgt id='1747'> +1.2642270e-12 </wgt>
<wgt id='1748'> +1.2396900e-12 </wgt>
<wgt id='1749'> +1.2514463e-12 </wgt>
<wgt id='1750'> +1.2498750e-12 </wgt>
<wgt id='1751'> +1.2275589e-12 </wgt>
<wgt id='1752'> +1.2441091e-12 </wgt>
<wgt id='1753'> +1.2687156e-12 </wgt>
<wgt id='1754'> +1.2769998e-12 </wgt>
<wgt id='1755'> +1.2792511e-12 </wgt>
<wgt id='1756'> +1.2740777e-12 </wgt>
<wgt id='1757'> +1.2457774e-12 </wgt>
<wgt id='1758'> +1.2789232e-12 </wgt>
<wgt id='1759'> +1.2617715e-12 </wgt>
<wgt id='1760'> +1.2360683e-12 </wgt>
<wgt id='1761'> +1.2460517e-12 </wgt>
<wgt id='1762'> +1.2305414e-12 </wgt>
<wgt id='1763'> +1.2673745e-12 </wgt>
<wgt id='1764'> +1.2794571e-12 </wgt>
<wgt id='1765'> +1.2414599e-12 </wgt>
<wgt id='1766'> +1.2656349e-12 </wgt>
<wgt id='1767'> +1.2649340e-12 </wgt>
<wgt id='1768'> +1.2641987e-12 </wgt>
<wgt id='1769'> +1.2424720e-12 </wgt>
<wgt id='1770'> +1.2425092e-12 </wgt>
<wgt id='1771'> +1.2783588e-12 </wgt>
<wgt id='1772'> +1.2616096e-12 </wgt>
<wgt id='1773'> +1.2497546e-12 </wgt>
<wgt id='1774'> +1.2369806e-12 </wgt>
<wgt id='1775'> +1.2658332e-12 </wgt>
<wgt id='1776'> +1.2968227e-12 </wgt>
<wgt id='1777'> +1.2150379e-12 </wgt>
<wgt id='1778'> +1.2463622e-12 </wgt>
<wgt id='1779'> +1.2745896e-12 </wgt>
<wgt id='1780'> +1.2648927e-12 </wgt>
<wgt id='1781'> +1.2546704e-12 </wgt>
<wgt id='1782'> +1.2571234e-12 </wgt>
<wgt id='1783'> +1.2556092e-12 </wgt>
<wgt id='1784'> +1.2654259e-12 </wgt>
<wgt id='1785'> +1.2620739e-12 </wgt>
<wgt id='1786'> +1.2393603e-12 </wgt>
<wgt id='1787'> +1.2956032e-12 </wgt>
<wgt id='1788'> +1.2706484e-12 </wgt>
<wgt id='1789'> +1.2923945e-12 </wgt>
<wgt id='1790'> +1.2760958e-12 </wgt>
<wgt id='1791'> +1.2618542e-12 </wgt>
<wgt id='1792'> +1.2459364e-12 </wgt>
<wgt id='1793'> +1.2518341e-12 </wgt>
<wgt id='1794'> +1.2732727e-12 </wgt>
<wgt id='1795'> +1.2589621e-12 </wgt>
<wgt id='1796'> +1.2401338e-12 </wgt>
<wgt id='1797'> +1.2556346e-12 </wgt>
<wgt id='1798'> +1.2672347e-12 </wgt>
<wgt id='1799'> +1.2714725e-12 </wgt>
<wgt id='1800'> +1.2807175e-12 </wgt>
<wgt id='1801'> +1.2519456e-12 </wgt>
<wgt id='1802'> +1.2486795e-12 </wgt>
<wgt id='1803'> +1.2830166e-12 </wgt>
<wgt id='1804'> +1.2429208e-12 </wgt>
<wgt id='1805'> +1.2245617e-12 </wgt>
<wgt id='1806'> +1.2306067e-12 </wgt>
<wgt id='1807'> +1.2817542e-12 </wgt>
<wgt id='1808'> +1.2442845e-12 </wgt>
<wgt id='1809'> +1.2502575e-12 </wgt>
<wgt id='1810'> +1.2385650e-12 </wgt>
<wgt id='1811'> +1.2686457e-12 </wgt>
<wgt id='1812'> +1.2402201e-12 </wgt>
<wgt id='1813'> +1.2112659e-12 </wgt>
<wgt id='1814'> +1.5030228e-12 </wgt>
<wgt id='1815'> +1.7470777e-12 </wgt>
<wgt id='1816'> +1.2566526e-12 </wgt>
<wgt id='1817'> +1.2237988e-12 </wgt>
<wgt id='1818'> +1.2511674e-12 </wgt>
<wgt id='1819'> +1.2557426e-12 </wgt>
<wgt id='1820'> +1.2480399e-12 </wgt>
<wgt id='1821'> +1.2653799e-12 </wgt>
<wgt id='1822'> +1.2548859e-12 </wgt>
<wgt id='1823'> +1.2549833e-12 </wgt>
<wgt id='1824'> +1.2189978e-12 </wgt>
<wgt id='1825'> +1.2383224e-12 </wgt>
<wgt id='1826'> +1.2499724e-12 </wgt>
<wgt id='1827'> +1.3229226e-12 </wgt>
<wgt id='1828'> +1.2496199e-12 </wgt>
<wgt id='1829'> +1.2626508e-12 </wgt>
<wgt id='1830'> +1.2811681e-12 </wgt>
<wgt id='1831'> +1.2538725e-12 </wgt>
<wgt id='1832'> +1.2219451e-12 </wgt>
<wgt id='1833'> +1.2569373e-12 </wgt>
<wgt id='1834'> +1.2054995e-12 </wgt>
<wgt id='1835'> +1.2727692e-12 </wgt>
<wgt id='1836'> +1.2376332e-12 </wgt>
<wgt id='1837'> +1.2851219e-12 </wgt>
<wgt id='1838'> +1.2547932e-12 </wgt>
<wgt id='1839'> +1.2965815e-12 </wgt>
<wgt id='1840'> +1.2886450e-12 </wgt>
<wgt id='1841'> +1.2712935e-12 </wgt>
<wgt id='1842'> +1.2244837e-12 </wgt>
<wgt id='1843'> +1.2176898e-12 </wgt>
<wgt id='1844'> +1.3037666e-12 </wgt>
<wgt id='1845'> +1.2474207e-12 </wgt>
<wgt id='1846'> +1.2531852e-12 </wgt>
<wgt id='1847'> +1.2771313e-12 </wgt>
<wgt id='1848'> +1.2387359e-12 </wgt>
<wgt id='1849'> +1.2580378e-12 </wgt>
<wgt id='1850'> +1.2642270e-12 </wgt>
<wgt id='1851'> +1.2396900e-12 </wgt>
<wgt id='1852'> +1.2514463e-12 </wgt>
<wgt id='1853'> +1.2498750e-12 </wgt>
<wgt id='1854'> +1.2275589e-12 </wgt>
<wgt id='1855'> +1.2441091e-12 </wgt>
<wgt id='1856'> +1.2687156e-12 </wgt>
<wgt id='1857'> +1.2769998e-12 </wgt>
<wgt id='1858'> +1.2792511e-12 </wgt>
<wgt id='1859'> +1.2740777e-12 </wgt>
<wgt id='1860'> +1.2457774e-12 </wgt>
<wgt id='1861'> +1.2789232e-12 </wgt>
<wgt id='1862'> +1.2617715e-12 </wgt>
<wgt id='1863'> +1.2360683e-12 </wgt>
<wgt id='1864'> +1.2460517e-12 </wgt>
<wgt id='1865'> +1.2305414e-12 </wgt>
<wgt id='1866'> +1.2673745e-12 </wgt>
<wgt id='1867'> +1.2794571e-12 </wgt>
<wgt id='1868'> +1.2414599e-12 </wgt>
<wgt id='1869'> +1.2656349e-12 </wgt>
<wgt id='1870'> +1.2649340e-12 </wgt>
<wgt id='1871'> +1.2641987e-12 </wgt>
<wgt id='1872'> +1.2424720e-12 </wgt>
<wgt id='1873'> +1.2425092e-12 </wgt>
<wgt id='1874'> +1.2783588e-12 </wgt>
<wgt id='1875'> +1.2616096e-12 </wgt>
<wgt id='1876'> +1.2497546e-12 </wgt>
<wgt id='1877'> +1.2369806e-12 </wgt>
<wgt id='1878'> +1.2658332e-12 </wgt>
<wgt id='1879'> +1.2968227e-12 </wgt>
<wgt id='1880'> +1.2150379e-12 </wgt>
<wgt id='1881'> +1.2463622e-12 </wgt>
<wgt id='1882'> +1.2745896e-12 </wgt>
<wgt id='1883'> +1.2648927e-12 </wgt>
<wgt id='1884'> +1.2546704e-12 </wgt>
<wgt id='1885'> +1.2571234e-12 </wgt>
<wgt id='1886'> +1.2556092e-12 </wgt>
<wgt id='1887'> +1.2654259e-12 </wgt>
<wgt id='1888'> +1.2620739e-12 </wgt>
<wgt id='1889'> +1.2393603e-12 </wgt>
<wgt id='1890'> +1.2956032e-12 </wgt>
<wgt id='1891'> +1.2706484e-12 </wgt>
<wgt id='1892'> +1.2923945e-12 </wgt>
<wgt id='1893'> +1.2760958e-12 </wgt>
<wgt id='1894'> +1.2618542e-12 </wgt>
<wgt id='1895'> +1.2459364e-12 </wgt>
<wgt id='1896'> +1.2518341e-12 </wgt>
<wgt id='1897'> +1.2732727e-12 </wgt>
<wgt id='1898'> +1.2589621e-12 </wgt>
<wgt id='1899'> +1.2401338e-12 </wgt>
<wgt id='1900'> +1.2556346e-12 </wgt>
<wgt id='1901'> +1.2672347e-12 </wgt>
<wgt id='1902'> +1.2714725e-12 </wgt>
<wgt id='1903'> +1.2807175e-12 </wgt>
<wgt id='1904'> +1.2519456e-12 </wgt>
<wgt id='1905'> +1.2486795e-12 </wgt>
<wgt id='1906'> +1.2830166e-12 </wgt>
<wgt id='1907'> +1.2429208e-12 </wgt>
<wgt id='1908'> +1.2245617e-12 </wgt>
<wgt id='1909'> +1.2306067e-12 </wgt>
<wgt id='1910'> +1.2817542e-12 </wgt>
<wgt id='1911'> +1.2442845e-12 </wgt>
<wgt id='1912'> +1.2502575e-12 </wgt>
<wgt id='1913'> +1.2385650e-12 </wgt>
<wgt id='1914'> +1.2686457e-12 </wgt>
<wgt id='1915'> +1.2402201e-12 </wgt>
<wgt id='1916'> +1.2112659e-12 </wgt>
<wgt id='1917'> +1.2450737e-12 </wgt>
<wgt id='1918'> +1.2639697e-12 </wgt>
<wgt id='1919'> +1.2600247e-12 </wgt>
</rwgt>
</event>
<event>
 9      1 +1.5607000e-12 3.08807200e+01 7.81860800e-03 1.44103500e-01
       21 -1    0    0  501  502 +0.0000000000e+00 +0.0000000000e+00 +1.9498179017e+02 1.9498179017e+02 0.0000000000e+00 0.0000e+00 -1.0000e+00
       -4 -1    0    0    0  501 -0.0000000000e+00 -0.0000000000e+00 -7.2718090715e+00 7.4091569812e+00 1.4200000000e+00 0.0000e+00 -1.0000e+00
     1023  2    1    2    0    0 -2.2673569628e+01 -1.4645857248e+01 +3.2448671430e+01 4.4794365417e+01 1.5000900017e+01 0.0000e+00 0.0000e+00
  1000023  2    3    3    0    0 -1.9561482443e+01 -1.1491209558e+01 +2.0328397601e+01 3.0954642646e+01 5.4996963402e+00 0.0000e+00 0.0000e+00
       -4  1    1    2    0  502 +2.2673569628e+01 +1.4645857248e+01 +1.5526130967e+02 1.5759658173e+02 1.4200000000e+00 0.0000e+00 -1.0000e+00
  1000022  1    4    4    0    0 -1.8658499186e+01 -1.0810093884e+01 +1.9136136497e+01 2.9260714989e+01 5.0000000000e+00 0.0000e+00 -1.0000e+00
      -13  1    4    4    0    0 -8.0732120781e-01 -4.6099081436e-01 +9.9452946785e-01 1.3654821185e+00 1.0570000000e-01 0.0000e+00 1.0000e+00
       13  1    4    4    0    0 -9.5662048736e-02 -2.2012485934e-01 +1.9773163657e-01 3.2844553791e-01 1.0570000000e-01 0.0000e+00 -1.0000e+00
  1000022  1    3    3    0    0 -3.1120871856e+00 -3.1546476902e+00 +1.2120273829e+01 1.3839722771e+01 5.0000000000e+00 0.0000e+00 -1.0000e+00
<mgrwt>
<rscale>  1 0.30880720E+02</rscale>
<asrwt>0</asrwt>
<pdfrwt beam="1">  1       21 0.29997195E-01 0.30880720E+02</pdfrwt>
<pdfrwt beam="2">  1       -4 0.11297030E-02 0.30880720E+02</pdfrwt>
<totfact> 0.10951850E+06</totfact>
</mgrwt>
<rwgt>
<wgt id='1001'> +1.5607000e-12 </wgt>
<wgt id='1002'> +1.6003429e-12 </wgt>
<wgt id='1003'> +1.6018517e-12 </wgt>
<wgt id='1004'> +1.5519519e-12 </wgt>
<wgt id='1005'> +1.6087386e-12 </wgt>
<wgt id='1006'> +1.3667198e-12 </wgt>
<wgt id='1007'> +1.4211041e-12 </wgt>
<wgt id='1008'> +1.4236602e-12 </wgt>
<wgt id='1009'> +1.3560861e-12 </wgt>
<wgt id='1010'> +1.4380032e-12 </wgt>
<wgt id='1011'> +1.8220010e-12 </wgt>
<wgt id='1012'> +1.8335526e-12 </wgt>
<wgt id='1013'> +1.8332145e-12 </wgt>
<wgt id='1014'> +1.8172763e-12 </wgt>
<wgt id='1015'> +1.8273542e-12 </wgt>
<wgt id='1016'> +1.8321525e-12 </wgt>
<wgt id='1017'> +1.8122932e-12 </wgt>
<wgt id='1018'> +1.8102771e-12 </wgt>
<wgt id='1019'> +1.8332145e-12 </wgt>
<wgt id='1020'> +1.7942122e-12 </wgt>
<wgt id='1021'> +1.6044334e-12 </wgt>
<wgt id='1022'> +1.6093159e-12 </wgt>
<wgt id='1023'> +1.6089002e-12 </wgt>
<wgt id='1024'> +1.6018517e-12 </wgt>
<wgt id='1025'> +1.6037924e-12 </wgt>
<wgt id='1026'> +2.1389015e-12 </wgt>
<wgt id='1027'> +2.0763893e-12 </wgt>
<wgt id='1028'> +2.0717437e-12 </wgt>
<wgt id='1029'> +2.1466240e-12 </wgt>
<wgt id='1030'> +2.0380322e-12 </wgt>
<wgt id='1031'> +1.2427080e-12 </wgt>
<wgt id='1032'> +1.3504371e-12 </wgt>
<wgt id='1033'> +1.3560861e-12 </wgt>
<wgt id='1034'> +1.2231162e-12 </wgt>
<wgt id='1035'> +1.3900820e-12 </wgt>
<wgt id='1036'> +1.0882513e-12 </wgt>
<wgt id='1037'> +1.1991878e-12 </wgt>
<wgt id='1038'> +1.2052339e-12 </wgt>
<wgt id='1039'> +1.0687515e-12 </wgt>
<wgt id='1040'> +1.2425525e-12 </wgt>
<wgt id='1041'> +1.4507691e-12 </wgt>
<wgt id='1042'> +1.5472293e-12 </wgt>
<wgt id='1043'> +1.5519519e-12 </wgt>
<wgt id='1044'> +1.4322223e-12 </wgt>
<wgt id='1045'> +1.5789837e-12 </wgt>
<wgt id='1046'> +1.5607000e-12 </wgt>
<wgt id='1047'> +1.5306931e-12 </wgt>
<wgt id='1048'> +1.5881907e-12 </wgt>
<wgt id='1049'> +1.5715203e-12 </wgt>
<wgt id='1050'> +1.5555621e-12 </wgt>
<wgt id='1051'> +1.5431261e-12 </wgt>
<wgt id='1052'> +1.5066405e-12 </wgt>
<wgt id='1053'> +1.5805101e-12 </wgt>
<wgt id='1054'> +1.5802958e-12 </wgt>
<wgt id='1055'> +1.6000652e-12 </wgt>
<wgt id='1056'> +1.5847678e-12 </wgt>
<wgt id='1057'> +1.5607848e-12 </wgt>
<wgt id='1058'> +1.5423681e-12 </wgt>
<wgt id='1059'> +1.5530133e-12 </wgt>
<wgt id='1060'> +1.5458832e-12 </wgt>
<wgt id='1061'> +1.5886532e-12 </wgt>
<wgt id='1062'> +1.5860672e-12 </wgt>
<wgt id='1063'> +1.6001718e-12 </wgt>
<wgt id='1064'> +1.5579150e-12 </wgt>
<wgt id='1065'> +1.5467525e-12 </wgt>
<wgt id='1066'> +1.5799254e-12 </wgt>
<wgt id='1067'> +1.5691142e-12 </wgt>
<wgt id='1068'> +1.5815243e-12 </wgt>
<wgt id='1069'> +1.5803223e-12 </wgt>
<wgt id='1070'> +1.5610481e-12 </wgt>
<wgt id='1071'> +1.5488006e-12 </wgt>
<wgt id='1072'> +1.5792154e-12 </wgt>
<wgt id='1073'> +1.5591524e-12 </wgt>
<wgt id='1074'> +1.5322688e-12 </wgt>
<wgt id='1075'> +1.5525438e-12 </wgt>
<wgt id='1076'> +1.5848756e-12 </wgt>
<wgt id='1077'> +1.6025160e-12 </wgt>
<wgt id='1078'> +1.5705378e-12 </wgt>
<wgt id='1079'> +1.5201674e-12 </wgt>
<wgt id='1080'> +1.5321612e-12 </wgt>
<wgt id='1081'> +1.5807722e-12 </wgt>
<wgt id='1082'> +1.5379769e-12 </wgt>
<wgt id='1083'> +1.5816503e-12 </wgt>
<wgt id='1084'> +1.5385786e-12 </wgt>
<wgt id='1085'> +1.5566520e-12 </wgt>
<wgt id='1086'> +1.5555075e-12 </wgt>
<wgt id='1087'> +1.5329294e-12 </wgt>
<wgt id='1088'> +1.5062699e-12 </wgt>
<wgt id='1089'> +1.5353079e-12 </wgt>
<wgt id='1090'> +1.5103318e-12 </wgt>
<wgt id='1091'> +1.5466043e-12 </wgt>
<wgt id='1092'> +1.5618615e-12 </wgt>
<wgt id='1093'> +1.5119723e-12 </wgt>
<wgt id='1094'> +1.5677099e-12 </wgt>
<wgt id='1095'> +1.5701179e-12 </wgt>
<wgt id='1096'> +1.5727533e-12 </wgt>
<wgt id='1097'> +1.5455717e-12 </wgt>
<wgt id='1098'> +1.5875725e-12 </wgt>
<wgt id='1099'> +1.5442000e-12 </wgt>
<wgt id='1100'> +1.5678046e-12 </wgt>
<wgt id='1101'> +1.5297886e-12 </wgt>
<wgt id='1102'> +1.5487731e-12 </wgt>
<wgt id='1103'> +1.5786788e-12 </wgt>
<wgt id='1104'> +1.5525965e-12 </wgt>
<wgt id='1105'> +1.5651000e-12 </wgt>
<wgt id='1106'> +1.5809740e-12 </wgt>
<wgt id='1107'> +1.5762162e-12 </wgt>
<wgt id='1108'> +1.5704132e-12 </wgt>
<wgt id='1109'> +1.5062034e-12 </wgt>
<wgt id='1110'> +1.5517518e-12 </wgt>
<wgt id='1111'> +1.5457138e-12 </wgt>
<wgt id='1112'> +1.5360323e-12 </wgt>
<wgt id='1113'> +1.5167263e-12 </wgt>
<wgt id='1114'> +1.6095251e-12 </wgt>
<wgt id='1115'> +1.5437792e-12 </wgt>
<wgt id='1116'> +1.5937613e-12 </wgt>
<wgt id='1117'> +1.6014066e-12 </wgt>
<wgt id='1118'> +1.5863287e-12 </wgt>
<wgt id='1119'> +1.6050547e-12 </wgt>
<wgt id='1120'> +1.5961946e-12 </wgt>
<wgt id='1121'> +1.5609598e-12 </wgt>
<wgt id='1122'> +1.5234497e-12 </wgt>
<wgt id='1123'> +1.5901524e-12 </wgt>
<wgt id='1124'> +1.5610718e-12 </wgt>
<wgt id='1125'> +1.5515187e-12 </wgt>
<wgt id='1126'> +1.5369730e-12 </wgt>
<wgt id='1127'> +1.5403013e-12 </wgt>
<wgt id='1128'> +1.5860672e-12 </wgt>
<wgt id='1129'> +1.5338970e-12 </wgt>
<wgt id='1130'> +1.5874087e-12 </wgt>
<wgt id='1131'> +1.6218324e-12 </wgt>
<wgt id='1132'> +1.5114233e-12 </wgt>
<wgt id='1133'> +1.5313980e-12 </wgt>
<wgt id='1134'> +1.5544972e-12 </wgt>
<wgt id='1135'> +1.5970238e-12 </wgt>
<wgt id='1136'> +1.5328625e-12 </wgt>
<wgt id='1137'> +1.5216348e-12 </wgt>
<wgt id='1138'> +1.5559899e-12 </wgt>
<wgt id='1139'> +1.5754882e-12 </wgt>
<wgt id='1140'> +1.5636679e-12 </wgt>
<wgt id='1141'> +1.5538836e-12 </wgt>
<wgt id='1142'> +1.5445027e-12 </wgt>
<wgt id='1143'> +1.5412408e-12 </wgt>
<wgt id='1144'> +1.5972689e-12 </wgt>
<wgt id='1145'> +1.6041200e-12 </wgt>
<wgt id='1146'> +1.6033984e-12 </wgt>
<wgt id='1147'> +1.2256225e-12 </wgt>
<wgt id='1148'> +1.2594269e-12 </wgt>
<wgt id='1149'> +1.2302600e-12 </wgt>
<wgt id='1150'> +1.2442361e-12 </wgt>
<wgt id='1151'> +9.5153631e-13 </wgt>
<wgt id='1152'> +1.3935543e-12 </wgt>
<wgt id='1153'> +1.3875794e-12 </wgt>
<wgt id='1154'> +1.3969989e-12 </wgt>
<wgt id='1155'> +1.3941879e-12 </wgt>
<wgt id='1156'> +1.3932314e-12 </wgt>
<wgt id='1157'> +1.3905449e-12 </wgt>
<wgt id='1158'> +1.3975355e-12 </wgt>
<wgt id='1159'> +1.3910698e-12 </wgt>
<wgt id='1160'> +1.3951395e-12 </wgt>
<wgt id='1161'> +1.3862580e-12 </wgt>
<wgt id='1162'> +1.3985682e-12 </wgt>
<wgt id='1163'> +1.3973819e-12 </wgt>
<wgt id='1164'> +1.3897425e-12 </wgt>
<wgt id='1165'> +1.3798793e-12 </wgt>
<wgt id='1166'> +1.4068532e-12 </wgt>
<wgt id='1167'> +1.4064304e-12 </wgt>
<wgt id='1168'> +1.3761800e-12 </wgt>
<wgt id='1169'> +1.3981732e-12 </wgt>
<wgt id='1170'> +1.3900193e-12 </wgt>
<wgt id='1171'> +1.3913944e-12 </wgt>
<wgt id='1172'> +1.3961791e-12 </wgt>
<wgt id='1173'> +1.3847499e-12 </wgt>
<wgt id='1174'> +1.4019042e-12 </wgt>
<wgt id='1175'> +1.3958275e-12 </wgt>
<wgt id='1176'> +1.3908195e-12 </wgt>
<wgt id='1177'> +1.3940408e-12 </wgt>
<wgt id='1178'> +1.3925280e-12 </wgt>
<wgt id='1179'> +1.4028383e-12 </wgt>
<wgt id='1180'> +1.3793117e-12 </wgt>
<wgt id='1181'> +1.3891559e-12 </wgt>
<wgt id='1182'> +1.3977091e-12 </wgt>
<wgt id='1183'> +1.3930940e-12 </wgt>
<wgt id='1184'> +1.3936187e-12 </wgt>
<wgt id='1185'> +1.3936938e-12 </wgt>
<wgt id='1186'> +1.3935084e-12 </wgt>
<wgt id='1187'> +1.3928851e-12 </wgt>
<wgt id='1188'> +1.3937459e-12 </wgt>
<wgt id='1189'> +1.3917216e-12 </wgt>
<wgt id='1190'> +1.3757624e-12 </wgt>
<wgt id='1191'> +1.3838539e-12 </wgt>
<wgt id='1192'> +1.4012077e-12 </wgt>
<wgt id='1193'> +1.2736989e-12 </wgt>
<wgt id='1194'> +1.2695115e-12 </wgt>
<wgt id='1195'> +1.2770976e-12 </wgt>
<wgt id='1196'> +1.2754463e-12 </wgt>
<wgt id='1197'> +1.2717977e-12 </wgt>
<wgt id='1198'> +1.2763323e-12 </wgt>
<wgt id='1199'> +1.2697831e-12 </wgt>
<wgt id='1200'> +1.2751771e-12 </wgt>
<wgt id='1201'> +1.2727318e-12 </wgt>
<wgt id='1202'> +1.2699581e-12 </wgt>
<wgt id='1203'> +1.2790586e-12 </wgt>
<wgt id='1204'> +1.2519027e-12 </wgt>
<wgt id='1205'> +1.2872169e-12 </wgt>
<wgt id='1206'> +1.2796094e-12 </wgt>
<wgt id='1207'> +1.2656960e-12 </wgt>
<wgt id='1208'> +1.2664141e-12 </wgt>
<wgt id='1209'> +1.2763784e-12 </wgt>
<wgt id='1210'> +1.2712226e-12 </wgt>
<wgt id='1211'> +1.2675047e-12 </wgt>
<wgt id='1212'> +1.2719719e-12 </wgt>
<wgt id='1213'> +1.2753460e-12 </wgt>
<wgt id='1214'> +1.2640080e-12 </wgt>
<wgt id='1215'> +1.2872260e-12 </wgt>
<wgt id='1216'> +1.2796475e-12 </wgt>
<wgt id='1217'> +1.2694168e-12 </wgt>
<wgt id='1218'> +1.2805693e-12 </wgt>
<wgt id='1219'> +1.2701451e-12 </wgt>
<wgt id='1220'> +1.2789705e-12 </wgt>
<wgt id='1221'> +1.2729000e-12 </wgt>
<wgt id='1222'> +1.2765778e-12 </wgt>
<wgt id='1223'> +1.2725961e-12 </wgt>
<wgt id='1224'> +1.2749177e-12 </wgt>
<wgt id='1225'> +1.2732188e-12 </wgt>
<wgt id='1226'> +1.2737303e-12 </wgt>
<wgt id='1227'> +1.2738073e-12 </wgt>
<wgt id='1228'> +1.2697962e-12 </wgt>
<wgt id='1229'> +1.2753950e-12 </wgt>
<wgt id='1230'> +1.2814112e-12 </wgt>
<wgt id='1231'> +1.2591487e-12 </wgt>
<wgt id='1232'> +1.2713767e-12 </wgt>
<wgt id='1233'> +1.2743505e-12 </wgt>
<wgt id='1234'> +1.2736989e-12 </wgt>
<wgt id='1235'> +1.2638531e-12 </wgt>
<wgt id='1236'> +1.2675793e-12 </wgt>
<wgt id='1237'> +1.2708935e-12 </wgt>
<wgt id='1238'> +1.2767528e-12 </wgt>
<wgt id='1239'> +1.2790589e-12 </wgt>
<wgt id='1240'> +1.2812804e-12 </wgt>
<wgt id='1241'> +1.2148768e-12 </wgt>
<wgt id='1242'> +1.2067736e-12 </wgt>
<wgt id='1243'> +1.2229238e-12 </wgt>
<wgt id='1244'> +1.2100395e-12 </wgt>
<wgt id='1245'> +1.2185099e-12 </wgt>
<wgt id='1246'> +1.2161985e-12 </wgt>
<wgt id='1247'> +1.2138191e-12 </wgt>
<wgt id='1248'> +1.2147986e-12 </wgt>
<wgt id='1249'> +1.2150305e-12 </wgt>
<wgt id='1250'> +1.2110504e-12 </wgt>
<wgt id='1251'> +1.2176216e-12 </wgt>
<wgt id='1252'> +1.2120687e-12 </wgt>
<wgt id='1253'> +1.2171156e-12 </wgt>
<wgt id='1254'> +1.1956309e-12 </wgt>
<wgt id='1255'> +1.2265197e-12 </wgt>
<wgt id='1256'> +1.2197942e-12 </wgt>
<wgt id='1257'> +1.2025545e-12 </wgt>
<wgt id='1258'> +1.2252897e-12 </wgt>
<wgt id='1259'> +1.2038423e-12 </wgt>
<wgt id='1260'> +1.2190159e-12 </wgt>
<wgt id='1261'> +1.2103161e-12 </wgt>
<wgt id='1262'> +1.2174125e-12 </wgt>
<wgt id='1263'> +1.2136923e-12 </wgt>
<wgt id='1264'> +1.2255348e-12 </wgt>
<wgt id='1265'> +1.2098527e-12 </wgt>
<wgt id='1266'> +1.2090920e-12 </wgt>
<wgt id='1267'> +1.2215772e-12 </wgt>
<wgt id='1268'> +1.2160725e-12 </wgt>
<wgt id='1269'> +1.2175883e-12 </wgt>
<wgt id='1270'> +1.2090973e-12 </wgt>
<wgt id='1271'> +1.2120895e-12 </wgt>
<wgt id='1272'> +1.2150750e-12 </wgt>
<wgt id='1273'> +1.2146226e-12 </wgt>
<wgt id='1274'> +1.2152661e-12 </wgt>
<wgt id='1275'> +1.2134697e-12 </wgt>
<wgt id='1276'> +1.2156053e-12 </wgt>
<wgt id='1277'> +1.2132867e-12 </wgt>
<wgt id='1278'> +1.2116857e-12 </wgt>
<wgt id='1279'> +1.2171822e-12 </wgt>
<wgt id='1280'> +1.2154310e-12 </wgt>
<wgt id='1281'> +1.2135713e-12 </wgt>
<wgt id='1282'> +1.2148768e-12 </wgt>
<wgt id='1283'> +1.2050192e-12 </wgt>
<wgt id='1284'> +1.2088989e-12 </wgt>
<wgt id='1285'> +1.2122319e-12 </wgt>
<wgt id='1286'> +1.2178570e-12 </wgt>
<wgt id='1287'> +1.2200193e-12 </wgt>
<wgt id='1288'> +1.2219265e-12 </wgt>
<wgt id='1289'> +1.3123159e-12 </wgt>
<wgt id='1290'> +1.3147846e-12 </wgt>
<wgt id='1291'> +1.3096992e-12 </wgt>
<wgt id='1292'> +1.3134112e-12 </wgt>
<wgt id='1293'> +1.3115453e-12 </wgt>
<wgt id='1294'> +1.3102411e-12 </wgt>
<wgt id='1295'> +1.3143118e-12 </wgt>
<wgt id='1296'> +1.3084857e-12 </wgt>
<wgt id='1297'> +1.3170074e-12 </wgt>
<wgt id='1298'> +1.3221023e-12 </wgt>
<wgt id='1299'> +1.3001665e-12 </wgt>
<wgt id='1300'> +1.3168353e-12 </wgt>
<wgt id='1301'> +1.3032947e-12 </wgt>
<wgt id='1302'> +1.3108366e-12 </wgt>
<wgt id='1303'> +1.3143843e-12 </wgt>
<wgt id='1304'> +1.3076396e-12 </wgt>
<wgt id='1305'> +1.3155542e-12 </wgt>
<wgt id='1306'> +1.3027422e-12 </wgt>
<wgt id='1307'> +1.3231698e-12 </wgt>
<wgt id='1308'> +1.3113938e-12 </wgt>
<wgt id='1309'> +1.3130529e-12 </wgt>
<wgt id='1310'> +1.3089905e-12 </wgt>
<wgt id='1311'> +1.3160043e-12 </wgt>
<wgt id='1312'> +1.3036853e-12 </wgt>
<wgt id='1313'> +1.3212788e-12 </wgt>
<wgt id='1314'> +1.3144148e-12 </wgt>
<wgt id='1315'> +1.3032398e-12 </wgt>
<wgt id='1316'> +1.3185259e-12 </wgt>
<wgt id='1317'> +1.3132610e-12 </wgt>
<wgt id='1318'> +1.3231550e-12 </wgt>
<wgt id='1319'> +1.2993796e-12 </wgt>
<wgt id='1320'> +1.3184353e-12 </wgt>
<wgt id='1321'> +1.3061522e-12 </wgt>
<wgt id='1322'> +1.3137486e-12 </wgt>
<wgt id='1323'> +1.3102882e-12 </wgt>
<wgt id='1324'> +1.3116997e-12 </wgt>
<wgt id='1325'> +1.3182341e-12 </wgt>
<wgt id='1326'> +1.3154247e-12 </wgt>
<wgt id='1327'> +1.3121623e-12 </wgt>
<wgt id='1328'> +1.3109630e-12 </wgt>
<wgt id='1329'> +1.3134930e-12 </wgt>
<wgt id='1330'> +1.3108856e-12 </wgt>
<wgt id='1331'> +1.3145668e-12 </wgt>
<wgt id='1332'> +1.3396920e-12 </wgt>
<wgt id='1333'> +1.3030941e-12 </wgt>
<wgt id='1334'> +1.3107030e-12 </wgt>
<wgt id='1335'> +1.3170584e-12 </wgt>
<wgt id='1336'> +1.3132748e-12 </wgt>
<wgt id='1337'> +1.3062573e-12 </wgt>
<wgt id='1338'> +1.3128718e-12 </wgt>
<wgt id='1339'> +1.3119646e-12 </wgt>
<wgt id='1340'> +1.2837545e-12 </wgt>
<wgt id='1341'> +1.2862277e-12 </wgt>
<wgt id='1342'> +1.2810704e-12 </wgt>
<wgt id='1343'> +1.2848997e-12 </wgt>
<wgt id='1344'> +1.2829629e-12 </wgt>
<wgt id='1345'> +1.2815460e-12 </wgt>
<wgt id='1346'> +1.2857383e-12 </wgt>
<wgt id='1347'> +1.2799538e-12 </wgt>
<wgt id='1348'> +1.2879408e-12 </wgt>
<wgt id='1349'> +1.2927961e-12 </wgt>
<wgt id='1350'> +1.2749014e-12 </wgt>
<wgt id='1351'> +1.2882640e-12 </wgt>
<wgt id='1352'> +1.2739103e-12 </wgt>
<wgt id='1353'> +1.2814188e-12 </wgt>
<wgt id='1354'> +1.2879075e-12 </wgt>
<wgt id='1355'> +1.2790318e-12 </wgt>
<wgt id='1356'> +1.2863875e-12 </wgt>
<wgt id='1357'> +1.2735294e-12 </wgt>
<wgt id='1358'> +1.2958253e-12 </wgt>
<wgt id='1359'> +1.2851306e-12 </wgt>
<wgt id='1360'> +1.2825392e-12 </wgt>
<wgt id='1361'> +1.2804628e-12 </wgt>
<wgt id='1362'> +1.2882415e-12 </wgt>
<wgt id='1363'> +1.2725119e-12 </wgt>
<wgt id='1364'> +1.2918828e-12 </wgt>
<wgt id='1365'> +1.2767563e-12 </wgt>
<wgt id='1366'> +1.2832018e-12 </wgt>
<wgt id='1367'> +1.2894912e-12 </wgt>
<wgt id='1368'> +1.2841140e-12 </wgt>
<wgt id='1369'> +1.2929860e-12 </wgt>
<wgt id='1370'> +1.2727720e-12 </wgt>
<wgt id='1371'> +1.2893710e-12 </wgt>
<wgt id='1372'> +1.2762885e-12 </wgt>
<wgt id='1373'> +1.2847872e-12 </wgt>
<wgt id='1374'> +1.2823068e-12 </wgt>
<wgt id='1375'> +1.2829432e-12 </wgt>
<wgt id='1376'> +1.2900190e-12 </wgt>
<wgt id='1377'> +1.2867396e-12 </wgt>
<wgt id='1378'> +1.2840863e-12 </wgt>
<wgt id='1379'> +1.2823570e-12 </wgt>
<wgt id='1380'> +1.2851489e-12 </wgt>
<wgt id='1381'> +1.2835030e-12 </wgt>
<wgt id='1382'> +1.2845048e-12 </wgt>
<wgt id='1383'> +1.3092222e-12 </wgt>
<wgt id='1384'> +1.2750626e-12 </wgt>
<wgt id='1385'> +1.2824229e-12 </wgt>
<wgt id='1386'> +1.2873641e-12 </wgt>
<wgt id='1387'> +1.2844658e-12 </wgt>
<wgt id='1388'> +1.2769018e-12 </wgt>
<wgt id='1389'> +1.2841702e-12 </wgt>
<wgt id='1390'> +1.2831320e-12 </wgt>
<wgt id='1391'> +1.2670910e-12 </wgt>
<wgt id='1392'> +1.2268431e-12 </wgt>
<wgt id='1393'> +1.2405660e-12 </wgt>
<wgt id='1394'> +1.2543661e-12 </wgt>
<wgt id='1395'> +1.2801980e-12 </wgt>
<wgt id='1396'> +1.2671780e-12 </wgt>
<wgt id='1397'> +1.2940384e-12 </wgt>
<wgt id='1398'> +1.2880741e-12 </wgt>
<wgt id='1399'> +1.2825757e-12 </wgt>
<wgt id='1400'> +1.2774552e-12 </wgt>
<wgt id='1401'> +1.2723188e-12 </wgt>
<wgt id='1402'> +1.2626460e-12 </wgt>
<wgt id='1403'> +1.2582845e-12 </wgt>
<wgt id='1404'> +1.2540864e-12 </wgt>
<wgt id='1405'> +1.2671780e-12 </wgt>
<wgt id='1406'> +1.2600366e-12 </wgt>
<wgt id='1407'> +1.2637186e-12 </wgt>
<wgt id='1408'> +1.2704180e-12 </wgt>
<wgt id='1409'> +1.2731181e-12 </wgt>
<wgt id='1410'> +1.1888076e-12 </wgt>
<wgt id='1411'> +1.1914174e-12 </wgt>
<wgt id='1412'> +1.1854610e-12 </wgt>
<wgt id='1413'> +1.1905623e-12 </wgt>
<wgt id='1414'> +1.1870449e-12 </wgt>
<wgt id='1415'> +1.1906788e-12 </wgt>
<wgt id='1416'> +1.1880433e-12 </wgt>
<wgt id='1417'> +1.1820437e-12 </wgt>
<wgt id='1418'> +1.1955511e-12 </wgt>
<wgt id='1419'> +1.1929187e-12 </wgt>
<wgt id='1420'> +1.1848145e-12 </wgt>
<wgt id='1421'> +1.1681003e-12 </wgt>
<wgt id='1422'> +1.1977584e-12 </wgt>
<wgt id='1423'> +1.1886967e-12 </wgt>
<wgt id='1424'> +1.1889315e-12 </wgt>
<wgt id='1425'> +1.1825613e-12 </wgt>
<wgt id='1426'> +1.1955196e-12 </wgt>
<wgt id='1427'> +1.1742381e-12 </wgt>
<wgt id='1428'> +1.1966478e-12 </wgt>
<wgt id='1429'> +1.1856163e-12 </wgt>
<wgt id='1430'> +1.1932190e-12 </wgt>
<wgt id='1431'> +1.1911673e-12 </wgt>
<wgt id='1432'> +1.1870535e-12 </wgt>
<wgt id='1433'> +1.1933396e-12 </wgt>
<wgt id='1434'> +1.1825304e-12 </wgt>
<wgt id='1435'> +1.1926756e-12 </wgt>
<wgt id='1436'> +1.1796626e-12 </wgt>
<wgt id='1437'> +1.1960380e-12 </wgt>
<wgt id='1438'> +1.1882376e-12 </wgt>
<wgt id='1439'> +1.1829648e-12 </wgt>
<wgt id='1440'> +1.2011969e-12 </wgt>
<wgt id='1441'> +1.1904126e-12 </wgt>
<wgt id='1442'> +1.1860451e-12 </wgt>
<wgt id='1443'> +1.1871360e-12 </wgt>
<wgt id='1444'> +1.1937955e-12 </wgt>
<wgt id='1445'> +1.1943587e-12 </wgt>
<wgt id='1446'> +1.1878555e-12 </wgt>
<wgt id='1447'> +1.1895869e-12 </wgt>
<wgt id='1448'> +1.1905522e-12 </wgt>
<wgt id='1449'> +1.1876867e-12 </wgt>
<wgt id='1450'> +1.1894229e-12 </wgt>
<wgt id='1451'> +1.1869833e-12 </wgt>
<wgt id='1452'> +1.1915676e-12 </wgt>
<wgt id='1453'> +1.1897478e-12 </wgt>
<wgt id='1454'> +1.1832897e-12 </wgt>
<wgt id='1455'> +1.1831570e-12 </wgt>
<wgt id='1456'> +1.1942943e-12 </wgt>
<wgt id='1457'> +1.1911790e-12 </wgt>
<wgt id='1458'> +1.1880980e-12 </wgt>
<wgt id='1459'> +1.1917539e-12 </wgt>
<wgt id='1460'> +1.1895481e-12 </wgt>
<wgt id='1461'> +1.1888076e-12 </wgt>
<wgt id='1462'> +1.1815942e-12 </wgt>
<wgt id='1463'> +1.1953187e-12 </wgt>
<wgt id='1464'> +1.1888928e-12 </wgt>
<wgt id='1465'> +1.2198301e-12 </wgt>
<wgt id='1466'> +1.2124068e-12 </wgt>
<wgt id='1467'> +1.2056839e-12 </wgt>
<wgt id='1468'> +1.2011872e-12 </wgt>
<wgt id='1469'> +1.1943275e-12 </wgt>
<wgt id='1470'> +1.1842730e-12 </wgt>
<wgt id='1471'> +1.1783810e-12 </wgt>
<wgt id='1472'> +1.1733870e-12 </wgt>
<wgt id='1473'> +1.1888928e-12 </wgt>
<wgt id='1474'> +1.1821742e-12 </wgt>
<wgt id='1475'> +1.1860690e-12 </wgt>
<wgt id='1476'> +1.1916450e-12 </wgt>
<wgt id='1477'> +1.1939814e-12 </wgt>
<wgt id='1478'> +1.2522596e-12 </wgt>
<wgt id='1479'> +1.2529274e-12 </wgt>
<wgt id='1480'> +1.2515989e-12 </wgt>
<wgt id='1481'> +1.2463348e-12 </wgt>
<wgt id='1482'> +1.2584953e-12 </wgt>
<wgt id='1483'> +1.2430158e-12 </wgt>
<wgt id='1484'> +1.2525585e-12 </wgt>
<wgt id='1485'> +1.2698895e-12 </wgt>
<wgt id='1486'> +1.2519881e-12 </wgt>
<wgt id='1487'> +1.2551151e-12 </wgt>
<wgt id='1488'> +1.2475922e-12 </wgt>
<wgt id='1489'> +1.2717938e-12 </wgt>
<wgt id='1490'> +1.2541387e-12 </wgt>
<wgt id='1491'> +1.2567358e-12 </wgt>
<wgt id='1492'> +1.2491610e-12 </wgt>
<wgt id='1493'> +1.2405428e-12 </wgt>
<wgt id='1494'> +1.2543928e-12 </wgt>
<wgt id='1495'> +1.2630169e-12 </wgt>
<wgt id='1496'> +1.2515061e-12 </wgt>
<wgt id='1497'> +1.2576727e-12 </wgt>
<wgt id='1498'> +1.2503872e-12 </wgt>
<wgt id='1499'> +1.2559226e-12 </wgt>
<wgt id='1500'> +1.2511947e-12 </wgt>
<wgt id='1501'> +1.2515816e-12 </wgt>
<wgt id='1502'> +1.2533783e-12 </wgt>
<wgt id='1503'> +1.2558906e-12 </wgt>
<wgt id='1504'> +1.2537708e-12 </wgt>
<wgt id='1505'> +1.2522330e-12 </wgt>
<wgt id='1506'> +1.2545255e-12 </wgt>
<wgt id='1507'> +1.2514046e-12 </wgt>
<wgt id='1508'> +1.2616587e-12 </wgt>
<wgt id='1509'> +1.2464067e-12 </wgt>
<wgt id='1510'> +1.2441084e-12 </wgt>
<wgt id='1511'> +1.2463864e-12 </wgt>
<wgt id='1512'> +1.2443750e-12 </wgt>
<wgt id='1513'> +1.2485207e-12 </wgt>
<wgt id='1514'> +1.2480838e-12 </wgt>
<wgt id='1515'> +1.2473705e-12 </wgt>
<wgt id='1516'> +1.2498030e-12 </wgt>
<wgt id='1517'> +1.2515583e-12 </wgt>
<wgt id='1518'> +1.2457824e-12 </wgt>
<wgt id='1519'> +1.2411883e-12 </wgt>
<wgt id='1520'> +1.2521755e-12 </wgt>
<wgt id='1521'> +1.2511824e-12 </wgt>
<wgt id='1522'> +1.2532467e-12 </wgt>
<wgt id='1523'> +1.2536766e-12 </wgt>
<wgt id='1524'> +1.2500121e-12 </wgt>
<wgt id='1525'> +1.2469465e-12 </wgt>
<wgt id='1526'> +1.2492114e-12 </wgt>
<wgt id='1527'> +1.2501109e-12 </wgt>
<wgt id='1528'> +1.2428369e-12 </wgt>
<wgt id='1529'> +1.2512003e-12 </wgt>
<wgt id='1530'> +1.2370829e-12 </wgt>
<wgt id='1531'> +1.2499843e-12 </wgt>
<wgt id='1532'> +1.2472679e-12 </wgt>
<wgt id='1533'> +1.2443188e-12 </wgt>
<wgt id='1534'> +1.2461648e-12 </wgt>
<wgt id='1535'> +1.2539694e-12 </wgt>
<wgt id='1536'> +1.2491803e-12 </wgt>
<wgt id='1537'> +1.2453141e-12 </wgt>
<wgt id='1538'> +1.2455849e-12 </wgt>
<wgt id='1539'> +1.2466434e-12 </wgt>
<wgt id='1540'> +1.2455461e-12 </wgt>
<wgt id='1541'> +1.2465832e-12 </wgt>
<wgt id='1542'> +1.2449425e-12 </wgt>
<wgt id='1543'> +1.2467087e-12 </wgt>
<wgt id='1544'> +1.2480668e-12 </wgt>
<wgt id='1545'> +1.2452309e-12 </wgt>
<wgt id='1546'> +1.2451539e-12 </wgt>
<wgt id='1547'> +1.2463020e-12 </wgt>
<wgt id='1548'> +1.2480044e-12 </wgt>
<wgt id='1549'> +1.2466649e-12 </wgt>
<wgt id='1550'> +1.2450459e-12 </wgt>
<wgt id='1551'> +1.2466024e-12 </wgt>
<wgt id='1552'> +1.2465845e-12 </wgt>
<wgt id='1553'> +1.2462206e-12 </wgt>
<wgt id='1554'> +1.2453072e-12 </wgt>
<wgt id='1555'> +1.2471891e-12 </wgt>
<wgt id='1556'> +1.2465961e-12 </wgt>
<wgt id='1557'> +1.2470672e-12 </wgt>
<wgt id='1558'> +1.2462916e-12 </wgt>
<wgt id='1559'> +1.2457608e-12 </wgt>
<wgt id='1560'> +1.2465031e-12 </wgt>
<wgt id='1561'> +1.2454753e-12 </wgt>
<wgt id='1562'> +1.2460588e-12 </wgt>
<wgt id='1563'> +1.2470514e-12 </wgt>
<wgt id='1564'> +1.2462446e-12 </wgt>
<wgt id='1565'> +1.2464417e-12 </wgt>
<wgt id='1566'> +1.2462614e-12 </wgt>
<wgt id='1567'> +1.2461410e-12 </wgt>
<wgt id='1568'> +1.2455957e-12 </wgt>
<wgt id='1569'> +1.2462547e-12 </wgt>
<wgt id='1570'> +1.2466182e-12 </wgt>
<wgt id='1571'> +1.2469337e-12 </wgt>
<wgt id='1572'> +1.2457277e-12 </wgt>
<wgt id='1573'> +1.2469467e-12 </wgt>
<wgt id='1574'> +1.2465233e-12 </wgt>
<wgt id='1575'> +1.2467269e-12 </wgt>
<wgt id='1576'> +1.2463988e-12 </wgt>
<wgt id='1577'> +1.2467360e-12 </wgt>
<wgt id='1578'> +1.2459532e-12 </wgt>
<wgt id='1579'> +1.2461748e-12 </wgt>
<wgt id='1580'> +1.2465889e-12 </wgt>
<wgt id='1581'> +1.2467956e-12 </wgt>
<wgt id='1582'> +1.2466488e-12 </wgt>
<wgt id='1583'> +1.2460827e-12 </wgt>
<wgt id='1584'> +1.2468901e-12 </wgt>
<wgt id='1585'> +1.2461354e-12 </wgt>
<wgt id='1586'> +1.2473637e-12 </wgt>
<wgt id='1587'> +1.2468587e-12 </wgt>
<wgt id='1588'> +1.2460041e-12 </wgt>
<wgt id='1589'> +1.2463402e-12 </wgt>
<wgt id='1590'> +1.2461661e-12 </wgt>
<wgt id='1591'> +1.2459706e-12 </wgt>
<wgt id='1592'> +1.2466520e-12 </wgt>
<wgt id='1593'> +1.2472647e-12 </wgt>
<wgt id='1594'> +1.2461687e-12 </wgt>
<wgt id='1595'> +1.2467442e-12 </wgt>
<wgt id='1596'> +1.2462157e-12 </wgt>
<wgt id='1597'> +1.2462056e-12 </wgt>
<wgt id='1598'> +1.2468912e-12 </wgt>
<wgt id='1599'> +1.2462069e-12 </wgt>
<wgt id='1600'> +1.2462166e-12 </wgt>
<wgt id='1601'> +1.2469642e-12 </wgt>
<wgt id='1602'> +1.2467118e-12 </wgt>
<wgt id='1603'> +1.2467355e-12 </wgt>
<wgt id='1604'> +1.2465008e-12 </wgt>
<wgt id='1605'> +1.2469095e-12 </wgt>
<wgt id='1606'> +1.2454987e-12 </wgt>
<wgt id='1607'> +1.2469296e-12 </wgt>
<wgt id='1608'> +1.2463917e-12 </wgt>
<wgt id='1609'> +1.2465043e-12 </wgt>
<wgt id='1610'> +1.2160640e-12 </wgt>
<wgt id='1611'> +1.2777450e-12 </wgt>
<wgt id='1612'> +1.4767121e-12 </wgt>
<wgt id='1613'> +1.4884279e-12 </wgt>
<wgt id='1614'> +1.4821341e-12 </wgt>
<wgt id='1615'> +1.4807524e-12 </wgt>
<wgt id='1616'> +1.4707599e-12 </wgt>
<wgt id='1617'> +1.4378300e-12 </wgt>
<wgt id='1618'> +1.4123091e-12 </wgt>
<wgt id='1619'> +1.4714810e-12 </wgt>
<wgt id='1620'> +1.4937105e-12 </wgt>
<wgt id='1621'> +1.4953828e-12 </wgt>
<wgt id='1622'> +1.4977058e-12 </wgt>
<wgt id='1623'> +1.4875292e-12 </wgt>
<wgt id='1624'> +1.4748455e-12 </wgt>
<wgt id='1625'> +1.4901467e-12 </wgt>
<wgt id='1626'> +1.4890721e-12 </wgt>
<wgt id='1627'> +1.4836177e-12 </wgt>
<wgt id='1628'> +1.5194296e-12 </wgt>
<wgt id='1629'> +1.5446449e-12 </wgt>
<wgt id='1630'> +1.4845868e-12 </wgt>
<wgt id='1631'> +1.4785703e-12 </wgt>
<wgt id='1632'> +1.5017037e-12 </wgt>
<wgt id='1633'> +1.4600748e-12 </wgt>
<wgt id='1634'> +1.4839451e-12 </wgt>
<wgt id='1635'> +1.4540303e-12 </wgt>
<wgt id='1636'> +1.4566792e-12 </wgt>
<wgt id='1637'> +1.4219520e-12 </wgt>
<wgt id='1638'> +1.4804423e-12 </wgt>
<wgt id='1639'> +1.4996568e-12 </wgt>
<wgt id='1640'> +1.4866515e-12 </wgt>
<wgt id='1641'> +1.4554180e-12 </wgt>
<wgt id='1642'> +1.4836159e-12 </wgt>
<wgt id='1643'> +1.4985611e-12 </wgt>
<wgt id='1644'> +1.4439301e-12 </wgt>
<wgt id='1645'> +1.4989287e-12 </wgt>
<wgt id='1646'> +1.5145471e-12 </wgt>
<wgt id='1647'> +1.4915296e-12 </wgt>
<wgt id='1648'> +1.5134690e-12 </wgt>
<wgt id='1649'> +1.4329350e-12 </wgt>
<wgt id='1650'> +1.4775524e-12 </wgt>
<wgt id='1651'> +1.4519705e-12 </wgt>
<wgt id='1652'> +1.4973095e-12 </wgt>
<wgt id='1653'> +1.4377513e-12 </wgt>
<wgt id='1654'> +1.4368017e-12 </wgt>
<wgt id='1655'> +1.4599440e-12 </wgt>
<wgt id='1656'> +1.4807153e-12 </wgt>
<wgt id='1657'> +1.4448982e-12 </wgt>
<wgt id='1658'> +1.4996868e-12 </wgt>
<wgt id='1659'> +1.4748455e-12 </wgt>
<wgt id='1660'> +1.4623324e-12 </wgt>
<wgt id='1661'> +1.4557689e-12 </wgt>
<wgt id='1662'> +1.4775041e-12 </wgt>
<wgt id='1663'> +1.4684123e-12 </wgt>
<wgt id='1664'> +1.5259886e-12 </wgt>
<wgt id='1665'> +1.4782255e-12 </wgt>
<wgt id='1666'> +1.4446563e-12 </wgt>
<wgt id='1667'> +1.4833986e-12 </wgt>
<wgt id='1668'> +1.4590833e-12 </wgt>
<wgt id='1669'> +1.4777378e-12 </wgt>
<wgt id='1670'> +1.4790625e-12 </wgt>
<wgt id='1671'> +1.4909939e-12 </wgt>
<wgt id='1672'> +1.5072407e-12 </wgt>
<wgt id='1673'> +1.4432501e-12 </wgt>
<wgt id='1674'> +1.4773565e-12 </wgt>
<wgt id='1675'> +1.4951966e-12 </wgt>
<wgt id='1676'> +1.4595481e-12 </wgt>
<wgt id='1677'> +1.4743057e-12 </wgt>
<wgt id='1678'> +1.4695142e-12 </wgt>
<wgt id='1679'> +1.4939176e-12 </wgt>
<wgt id='1680'> +1.4942336e-12 </wgt>
<wgt id='1681'> +1.4916533e-12 </wgt>
<wgt id='1682'> +1.4680009e-12 </wgt>
<wgt id='1683'> +1.4644934e-12 </wgt>
<wgt id='1684'> +1.4565498e-12 </wgt>
<wgt id='1685'> +1.4746052e-12 </wgt>
<wgt id='1686'> +1.4798020e-12 </wgt>
<wgt id='1687'> +1.4920838e-12 </wgt>
<wgt id='1688'> +1.4600176e-12 </wgt>
<wgt id='1689'> +1.4828298e-12 </wgt>
<wgt id='1690'> +1.4641986e-12 </wgt>
<wgt id='1691'> +1.5080656e-12 </wgt>
<wgt id='1692'> +1.4980546e-12 </wgt>
<wgt id='1693'> +1.4774463e-12 </wgt>
<wgt id='1694'> +1.4447835e-12 </wgt>
<wgt id='1695'> +1.5390155e-12 </wgt>
<wgt id='1696'> +1.4878640e-12 </wgt>
<wgt id='1697'> +1.4665804e-12 </wgt>
<wgt id='1698'> +1.4524707e-12 </wgt>
<wgt id='1699'> +1.4597133e-12 </wgt>
<wgt id='1700'> +1.4706602e-12 </wgt>
<wgt id='1701'> +1.4895295e-12 </wgt>
<wgt id='1702'> +1.4412205e-12 </wgt>
<wgt id='1703'> +1.5104396e-12 </wgt>
<wgt id='1704'> +1.4712715e-12 </wgt>
<wgt id='1705'> +1.4960923e-12 </wgt>
<wgt id='1706'> +1.4712645e-12 </wgt>
<wgt id='1707'> +1.4519086e-12 </wgt>
<wgt id='1708'> +1.4681225e-12 </wgt>
<wgt id='1709'> +1.4799350e-12 </wgt>
<wgt id='1710'> +1.4469634e-12 </wgt>
<wgt id='1711'> +1.4645917e-12 </wgt>
<wgt id='1712'> +1.4959587e-12 </wgt>
<wgt id='1713'> +1.2827301e-12 </wgt>
<wgt id='1714'> +1.2495666e-12 </wgt>
<wgt id='1715'> +1.2638667e-12 </wgt>
<wgt id='1716'> +1.2836413e-12 </wgt>
<wgt id='1717'> +1.2649951e-12 </wgt>
<wgt id='1718'> +1.2692770e-12 </wgt>
<wgt id='1719'> +1.3096911e-12 </wgt>
<wgt id='1720'> +1.2888930e-12 </wgt>
<wgt id='1721'> +1.2924601e-12 </wgt>
<wgt id='1722'> +1.2806525e-12 </wgt>
<wgt id='1723'> +1.2415038e-12 </wgt>
<wgt id='1724'> +1.2586989e-12 </wgt>
<wgt id='1725'> +1.3064071e-12 </wgt>
<wgt id='1726'> +1.3106805e-12 </wgt>
<wgt id='1727'> +1.2566291e-12 </wgt>
<wgt id='1728'> +1.2931610e-12 </wgt>
<wgt id='1729'> +1.2809714e-12 </wgt>
<wgt id='1730'> +1.2616509e-12 </wgt>
<wgt id='1731'> +1.2570141e-12 </wgt>
<wgt id='1732'> +1.3050339e-12 </wgt>
<wgt id='1733'> +1.2943085e-12 </wgt>
<wgt id='1734'> +1.3038459e-12 </wgt>
<wgt id='1735'> +1.2775515e-12 </wgt>
<wgt id='1736'> +1.3784599e-12 </wgt>
<wgt id='1737'> +1.2955171e-12 </wgt>
<wgt id='1738'> +1.2965524e-12 </wgt>
<wgt id='1739'> +1.2655634e-12 </wgt>
<wgt id='1740'> +1.2342385e-12 </wgt>
<wgt id='1741'> +1.2832254e-12 </wgt>
<wgt id='1742'> +1.2753122e-12 </wgt>
<wgt id='1743'> +1.3102082e-12 </wgt>
<wgt id='1744'> +1.2977799e-12 </wgt>
<wgt id='1745'> +1.2358066e-12 </wgt>
<wgt id='1746'> +1.2806097e-12 </wgt>
<wgt id='1747'> +1.3043095e-12 </wgt>
<wgt id='1748'> +1.2733370e-12 </wgt>
<wgt id='1749'> +1.3005868e-12 </wgt>
<wgt id='1750'> +1.3075599e-12 </wgt>
<wgt id='1751'> +1.2856345e-12 </wgt>
<wgt id='1752'> +1.2454096e-12 </wgt>
<wgt id='1753'> +1.3074524e-12 </wgt>
<wgt id='1754'> +1.2823961e-12 </wgt>
<wgt id='1755'> +1.2819804e-12 </wgt>
<wgt id='1756'> +1.3042666e-12 </wgt>
<wgt id='1757'> +1.2831310e-12 </wgt>
<wgt id='1758'> +1.2941072e-12 </wgt>
<wgt id='1759'> +1.3013681e-12 </wgt>
<wgt id='1760'> +1.2623684e-12 </wgt>
<wgt id='1761'> +1.2666460e-12 </wgt>
<wgt id='1762'> +1.2677640e-12 </wgt>
<wgt id='1763'> +1.2862285e-12 </wgt>
<wgt id='1764'> +1.2917652e-12 </wgt>
<wgt id='1765'> +1.2697593e-12 </wgt>
<wgt id='1766'> +1.3050193e-12 </wgt>
<wgt id='1767'> +1.2896514e-12 </wgt>
<wgt id='1768'> +1.2765425e-12 </wgt>
<wgt id='1769'> +1.2607817e-12 </wgt>
<wgt id='1770'> +1.3063170e-12 </wgt>
<wgt id='1771'> +1.2837023e-12 </wgt>
<wgt id='1772'> +1.2955638e-12 </wgt>
<wgt id='1773'> +1.2777978e-12 </wgt>
<wgt id='1774'> +1.2829158e-12 </wgt>
<wgt id='1775'> +1.2859207e-12 </wgt>
<wgt id='1776'> +1.3059591e-12 </wgt>
<wgt id='1777'> +1.2457738e-12 </wgt>
<wgt id='1778'> +1.2596702e-12 </wgt>
<wgt id='1779'> +1.3062395e-12 </wgt>
<wgt id='1780'> +1.3266308e-12 </wgt>
<wgt id='1781'> +1.2657957e-12 </wgt>
<wgt id='1782'> +1.2355115e-12 </wgt>
<wgt id='1783'> +1.2922837e-12 </wgt>
<wgt id='1784'> +1.2926707e-12 </wgt>
<wgt id='1785'> +1.2842021e-12 </wgt>
<wgt id='1786'> +1.1958476e-12 </wgt>
<wgt id='1787'> +1.3069166e-12 </wgt>
<wgt id='1788'> +1.2679335e-12 </wgt>
<wgt id='1789'> +1.2804216e-12 </wgt>
<wgt id='1790'> +1.3078244e-12 </wgt>
<wgt id='1791'> +1.3178057e-12 </wgt>
<wgt id='1792'> +1.2609768e-12 </wgt>
<wgt id='1793'> +1.2891930e-12 </wgt>
<wgt id='1794'> +1.2859852e-12 </wgt>
<wgt id='1795'> +1.2700114e-12 </wgt>
<wgt id='1796'> +1.2927913e-12 </wgt>
<wgt id='1797'> +1.2848523e-12 </wgt>
<wgt id='1798'> +1.2538845e-12 </wgt>
<wgt id='1799'> +1.2784024e-12 </wgt>
<wgt id='1800'> +1.2764766e-12 </wgt>
<wgt id='1801'> +1.2704790e-12 </wgt>
<wgt id='1802'> +1.3072658e-12 </wgt>
<wgt id='1803'> +1.2820097e-12 </wgt>
<wgt id='1804'> +1.2713378e-12 </wgt>
<wgt id='1805'> +1.2866158e-12 </wgt>
<wgt id='1806'> +1.2679175e-12 </wgt>
<wgt id='1807'> +1.3060756e-12 </wgt>
<wgt id='1808'> +1.2723770e-12 </wgt>
<wgt id='1809'> +1.2799909e-12 </wgt>
<wgt id='1810'> +1.2686490e-12 </wgt>
<wgt id='1811'> +1.3152577e-12 </wgt>
<wgt id='1812'> +1.3024814e-12 </wgt>
<wgt id='1813'> +1.2733659e-12 </wgt>
<wgt id='1814'> +1.0900231e-12 </wgt>
<wgt id='1815'> +1.2379512e-12 </wgt>
<wgt id='1816'> +1.2827301e-12 </wgt>
<wgt id='1817'> +1.2495666e-12 </wgt>
<wgt id='1818'> +1.2638667e-12 </wgt>
<wgt id='1819'> +1.2836413e-12 </wgt>
<wgt id='1820'> +1.2649951e-12 </wgt>
<wgt id='1821'> +1.2692770e-12 </wgt>
<wgt id='1822'> +1.3096911e-12 </wgt>
<wgt id='1823'> +1.2888930e-12 </wgt>
<wgt id='1824'> +1.2924601e-12 </wgt>
<wgt id='1825'> +1.2806525e-12 </wgt>
<wgt id='1826'> +1.2415038e-12 </wgt>
<wgt id='1827'> +1.2586989e-12 </wgt>
<wgt id='1828'> +1.3064071e-12 </wgt>
<wgt id='1829'> +1.3106805e-12 </wgt>
<wgt id='1830'> +1.2566291e-12 </wgt>
<wgt id='1831'> +1.2931610e-12 </wgt>
<wgt id='1832'> +1.2809714e-12 </wgt>
<wgt id='1833'> +1.2616509e-12 </wgt>
<wgt id='1834'> +1.2570141e-12 </wgt>
<wgt id='1835'> +1.3050339e-12 </wgt>
<wgt id='1836'> +1.2943085e-12 </wgt>
<wgt id='1837'> +1.3038459e-12 </wgt>
<wgt id='1838'> +1.2775515e-12 </wgt>
<wgt id='1839'> +1.3784599e-12 </wgt>
<wgt id='1840'> +1.2955171e-12 </wgt>
<wgt id='1841'> +1.2965524e-12 </wgt>
<wgt id='1842'> +1.2655634e-12 </wgt>
<wgt id='1843'> +1.2342385e-12 </wgt>
<wgt id='1844'> +1.2832254e-12 </wgt>
<wgt id='1845'> +1.2753122e-12 </wgt>
<wgt id='1846'> +1.3102082e-12 </wgt>
<wgt id='1847'> +1.2977799e-12 </wgt>
<wgt id='1848'> +1.2358066e-12 </wgt>
<wgt id='1849'> +1.2806097e-12 </wgt>
<wgt id='1850'> +1.3043095e-12 </wgt>
<wgt id='1851'> +1.2733370e-12 </wgt>
<wgt id='1852'> +1.3005868e-12 </wgt>
<wgt id='1853'> +1.3075599e-12 </wgt>
<wgt id='1854'> +1.2856345e-12 </wgt>
<wgt id='1855'> +1.2454096e-12 </wgt>
<wgt id='1856'> +1.3074524e-12 </wgt>
<wgt id='1857'> +1.2823961e-12 </wgt>
<wgt id='1858'> +1.2819804e-12 </wgt>
<wgt id='1859'> +1.3042666e-12 </wgt>
<wgt id='1860'> +1.2831310e-12 </wgt>
<wgt id='1861'> +1.2941072e-12 </wgt>
<wgt id='1862'> +1.3013681e-12 </wgt>
<wgt id='1863'> +1.2623684e-12 </wgt>
<wgt id='1864'> +1.2666460e-12 </wgt>
<wgt id='1865'> +1.2677640e-12 </wgt>
<wgt id='1866'> +1.2862285e-12 </wgt>
<wgt id='1867'> +1.2917652e-12 </wgt>
<wgt id='1868'> +1.2697593e-12 </wgt>
<wgt id='1869'> +1.3050193e-12 </wgt>
<wgt id='1870'> +1.2896514e-12 </wgt>
<wgt id='1871'> +1.2765425e-12 </wgt>
<wgt id='1872'> +1.2607817e-12 </wgt>
<wgt id='1873'> +1.3063170e-12 </wgt>
<wgt id='1874'> +1.2837023e-12 </wgt>
<wgt id='1875'> +1.2955638e-12 </wgt>
<wgt id='1876'> +1.2777978e-12 </wgt>
<wgt id='1877'> +1.2829158e-12 </wgt>
<wgt id='1878'> +1.2859207e-12 </wgt>
<wgt id='1879'> +1.3059591e-12 </wgt>
<wgt id='1880'> +1.2457738e-12 </wgt>
<wgt id='1881'> +1.2596702e-12 </wgt>
<wgt id='1882'> +1.3062395e-12 </wgt>
<wgt id='1883'> +1.3266308e-12 </wgt>
<wgt id='1884'> +1.2657957e-12 </wgt>
<wgt id='1885'> +1.2355115e-12 </wgt>
<wgt id='1886'> +1.2922837e-12 </wgt>
<wgt id='1887'> +1.2926707e-12 </wgt>
<wgt id='1888'> +1.2842021e-12 </wgt>
<wgt id='1889'> +1.1958476e-12 </wgt>
<wgt id='1890'> +1.3069166e-12 </wgt>
<wgt id='1891'> +1.2679335e-12 </wgt>
<wgt id='1892'> +1.2804216e-12 </wgt>
<wgt id='1893'> +1.3078244e-12 </wgt>
<wgt id='1894'> +1.3178057e-12 </wgt>
<wgt id='1895'> +1.2609768e-12 </wgt>
<wgt id='1896'> +1.2891930e-12 </wgt>
<wgt id='1897'> +1.2859852e-12 </wgt>
<wgt id='1898'> +1.2700114e-12 </wgt>
<wgt id='1899'> +1.2927913e-12 </wgt>
<wgt id='1900'> +1.2848523e-12 </wgt>
<wgt id='1901'> +1.2538845e-12 </wgt>
<wgt id='1902'> +1.2784024e-12 </wgt>
<wgt id='1903'> +1.2764766e-12 </wgt>
<wgt id='1904'> +1.2704790e-12 </wgt>
<wgt id='1905'> +1.3072658e-12 </wgt>
<wgt id='1906'> +1.2820097e-12 </wgt>
<wgt id='1907'> +1.2713378e-12 </wgt>
<wgt id='1908'> +1.2866158e-12 </wgt>
<wgt id='1909'> +1.2679175e-12 </wgt>
<wgt id='1910'> +1.3060756e-12 </wgt>
<wgt id='1911'> +1.2723770e-12 </wgt>
<wgt id='1912'> +1.2799909e-12 </wgt>
<wgt id='1913'> +1.2686490e-12 </wgt>
<wgt id='1914'> +1.3152577e-12 </wgt>
<wgt id='1915'> +1.3024814e-12 </wgt>
<wgt id='1916'> +1.2733659e-12 </wgt>
<wgt id='1917'> +1.2676524e-12 </wgt>
<wgt id='1918'> +1.2974485e-12 </wgt>
<wgt id='1919'> +1.2418866e-12 </wgt>
</rwgt>
</event>
<event>
 9      1 +1.5607000e-12 6.71540700e+01 7.81860800e-03 1.24336300e-01
       21 -1    0    0  501  502 +0.0000000000e+00 +0.0000000000e+00 +7.9455049453e+01 7.9455049453e+01 0.0000000000e+00 0.0000e+00 1.0000e+00
        4 -1    0    0  502    0 -0.0000000000e+00 -0.0000000000e+00 -1.4147483333e+01 1.4218568306e+01 1.4200000000e+00 0.0000e+00 1.0000e+00
     1023  2    1    2    0    0 +1.7974005802e+00 +2.0243708117e+01 -8.0440747738e-04 2.5261352571e+01 1.5003251844e+01 0.0000e+00 0.0000e+00
  1000023  2    3    3    0    0 +3.2381980755e+00 +3.1418454252e+00 -1.6703941476e+00 7.3076026880e+00 5.5003382609e+00 0.0000e+00 0.0000e+00
        4  1    1    2  501    0 -1.7974005802e+00 -2.0243708117e+01 +6.5308370527e+01 6.8412265187e+01 1.4200000000e+00 0.0000e+00 1.0000e+00
  1000022  1    4    4    0    0 +2.8197134780e+00 +3.2794466631e+00 -1.7486773389e+00 6.8383789709e+00 5.0000000000e+00 0.0000e+00 1.0000e+00
      -11  1    4    4    0    0 +2.0951668736e-01 -1.0298574834e-01 -2.2711762216e-02 2.3456212804e-01 5.1100000000e-04 0.0000e+00 1.0000e+00
       11  1    4    4    0    0 +2.0896791019e-01 -3.4615489577e-02 +1.0099495351e-01 2.3466158903e-01 5.1100000000e-04 0.0000e+00 -1.0000e+00
  1000022  1    3    3    0    0 -1.4407974953e+00 +1.7101862692e+01 +1.6695897401e+00 1.7953749883e+01 5.0000000000e+00 0.0000e+00 1.0000e+00
<mgrwt>
<rscale>  1 0.67154065E+02</rscale>
<asrwt>0</asrwt>
<pdfrwt beam="1">  1       21 0.12223854E-01 0.67154065E+02</pdfrwt>
<pdfrwt beam="2">  1        4 0.21829801E-02 0.67154065E+02</pdfrwt>
<totfact> 0.24492741E+06</totfact>
</mgrwt>
<rwgt>
<wgt id='1001'> +1.5607000e-12 </wgt>
<wgt id='1002'> +1.5187212e-12 </wgt>
<wgt id='1003'> +1.5196168e-12 </wgt>
<wgt id='1004'> +1.4016845e-12 </wgt>
<wgt id='1005'> +1.5607000e-12 </wgt>
<wgt id='1006'> +1.3917846e-12 </wgt>
<wgt id='1007'> +1.3426340e-12 </wgt>
<wgt id='1008'> +1.3436488e-12 </wgt>
<wgt id='1009'> +1.2164622e-12 </wgt>
<wgt id='1010'> +1.3917846e-12 </wgt>
<wgt id='1011'> +1.7782086e-12 </wgt>
<wgt id='1012'> +1.7503574e-12 </wgt>
<wgt id='1013'> +1.7509984e-12 </wgt>
<wgt id='1014'> +1.6569981e-12 </wgt>
<wgt id='1015'> +1.7782086e-12 </wgt>
<wgt id='1016'> +1.7949343e-12 </wgt>
<wgt id='1017'> +1.7893782e-12 </wgt>
<wgt id='1018'> +1.7895687e-12 </wgt>
<wgt id='1019'> +1.7509984e-12 </wgt>
<wgt id='1020'> +1.7949343e-12 </wgt>
<wgt id='1021'> +1.6006677e-12 </wgt>
<wgt id='1022'> +1.5819098e-12 </wgt>
<wgt id='1023'> +1.5823409e-12 </wgt>
<wgt id='1024'> +1.5196168e-12 </wgt>
<wgt id='1025'> +1.6006677e-12 </wgt>
<wgt id='1026'> +2.0450872e-12 </wgt>
<wgt id='1027'> +2.0622951e-12 </wgt>
<wgt id='1028'> +2.0620540e-12 </wgt>
<wgt id='1029'> +2.0699386e-12 </wgt>
<wgt id='1030'> +2.0450872e-12 </wgt>
<wgt id='1031'> +1.2962143e-12 </wgt>
<wgt id='1032'> +1.2148232e-12 </wgt>
<wgt id='1033'> +1.2164622e-12 </wgt>
<wgt id='1034'> +1.0168879e-12 </wgt>
<wgt id='1035'> +1.2962143e-12 </wgt>
<wgt id='1036'> +1.1559243e-12 </wgt>
<wgt id='1037'> +1.0739713e-12 </wgt>
<wgt id='1038'> +1.0755988e-12 </wgt>
<wgt id='1039'> +8.8251366e-13 </wgt>
<wgt id='1040'> +1.1559243e-12 </wgt>
<wgt id='1041'> +1.4768625e-12 </wgt>
<wgt id='1042'> +1.4001087e-12 </wgt>
<wgt id='1043'> +1.4016845e-12 </wgt>
<wgt id='1044'> +1.2021117e-12 </wgt>
<wgt id='1045'> +1.4768625e-12 </wgt>
<wgt id='1046'> +1.5607000e-12 </wgt>
<wgt id='1047'> +1.5127405e-12 </wgt>
<wgt id='1048'> +1.5719555e-12 </wgt>
<wgt id='1049'> +1.5579505e-12 </wgt>
<wgt id='1050'> +1.5560407e-12 </wgt>
<wgt id='1051'> +1.5748523e-12 </wgt>
<wgt id='1052'> +1.5121605e-12 </wgt>
<wgt id='1053'> +1.5712801e-12 </wgt>
<wgt id='1054'> +1.5834476e-12 </wgt>
<wgt id='1055'> +1.5969230e-12 </wgt>
<wgt id='1056'> +1.5904667e-12 </wgt>
<wgt id='1057'> +1.5598166e-12 </wgt>
<wgt id='1058'> +1.5290202e-12 </wgt>
<wgt id='1059'> +1.5575734e-12 </wgt>
<wgt id='1060'> +1.5392581e-12 </wgt>
<wgt id='1061'> +1.5942954e-12 </wgt>
<wgt id='1062'> +1.5830547e-12 </wgt>
<wgt id='1063'> +1.6082912e-12 </wgt>
<wgt id='1064'> +1.5460228e-12 </wgt>
<wgt id='1065'> +1.5619914e-12 </wgt>
<wgt id='1066'> +1.6068143e-12 </wgt>
<wgt id='1067'> +1.5662938e-12 </wgt>
<wgt id='1068'> +1.5889546e-12 </wgt>
<wgt id='1069'> +1.5714439e-12 </wgt>
<wgt id='1070'> +1.5644377e-12 </wgt>
<wgt id='1071'> +1.5609386e-12 </wgt>
<wgt id='1072'> +1.5963467e-12 </wgt>
<wgt id='1073'> +1.5675642e-12 </wgt>
<wgt id='1074'> +1.5219889e-12 </wgt>
<wgt id='1075'> +1.5639480e-12 </wgt>
<wgt id='1076'> +1.5693499e-12 </wgt>
<wgt id='1077'> +1.5670057e-12 </wgt>
<wgt id='1078'> +1.5514391e-12 </wgt>
<wgt id='1079'> +1.5248991e-12 </wgt>
<wgt id='1080'> +1.5274076e-12 </wgt>
<wgt id='1081'> +1.5926419e-12 </wgt>
<wgt id='1082'> +1.5531371e-12 </wgt>
<wgt id='1083'> +1.5977112e-12 </wgt>
<wgt id='1084'> +1.5630376e-12 </wgt>
<wgt id='1085'> +1.5359166e-12 </wgt>
<wgt id='1086'> +1.5459773e-12 </wgt>
<wgt id='1087'> +1.5542375e-12 </wgt>
<wgt id='1088'> +1.4855236e-12 </wgt>
<wgt id='1089'> +1.5356274e-12 </wgt>
<wgt id='1090'> +1.5039809e-12 </wgt>
<wgt id='1091'> +1.5507628e-12 </wgt>
<wgt id='1092'> +1.5613834e-12 </wgt>
<wgt id='1093'> +1.4864751e-12 </wgt>
<wgt id='1094'> +1.5580468e-12 </wgt>
<wgt id='1095'> +1.5535071e-12 </wgt>
<wgt id='1096'> +1.5790547e-12 </wgt>
<wgt id='1097'> +1.5300460e-12 </wgt>
<wgt id='1098'> +1.5934607e-12 </wgt>
<wgt id='1099'> +1.5507186e-12 </wgt>
<wgt id='1100'> +1.5292147e-12 </wgt>
<wgt id='1101'> +1.5439869e-12 </wgt>
<wgt id='1102'> +1.5499805e-12 </wgt>
<wgt id='1103'> +1.5650297e-12 </wgt>
<wgt id='1104'> +1.5725735e-12 </wgt>
<wgt id='1105'> +1.6039059e-12 </wgt>
<wgt id='1106'> +1.5836622e-12 </wgt>
<wgt id='1107'> +1.5520739e-12 </wgt>
<wgt id='1108'> +1.5724740e-12 </wgt>
<wgt id='1109'> +1.5556164e-12 </wgt>
<wgt id='1110'> +1.5520368e-12 </wgt>
<wgt id='1111'> +1.5563785e-12 </wgt>
<wgt id='1112'> +1.5239628e-12 </wgt>
<wgt id='1113'> +1.4938938e-12 </wgt>
<wgt id='1114'> +1.6100810e-12 </wgt>
<wgt id='1115'> +1.5412840e-12 </wgt>
<wgt id='1116'> +1.5594054e-12 </wgt>
<wgt id='1117'> +1.6106784e-12 </wgt>
<wgt id='1118'> +1.5876570e-12 </wgt>
<wgt id='1119'> +1.6111436e-12 </wgt>
<wgt id='1120'> +1.6124092e-12 </wgt>
<wgt id='1121'> +1.5601685e-12 </wgt>
<wgt id='1122'> +1.5354235e-12 </wgt>
<wgt id='1123'> +1.5927120e-12 </wgt>
<wgt id='1124'> +1.5452517e-12 </wgt>
<wgt id='1125'> +1.5701473e-12 </wgt>
<wgt id='1126'> +1.5152542e-12 </wgt>
<wgt id='1127'> +1.5287518e-12 </wgt>
<wgt id='1128'> +1.5830547e-12 </wgt>
<wgt id='1129'> +1.5253978e-12 </wgt>
<wgt id='1130'> +1.5884987e-12 </wgt>
<wgt id='1131'> +1.5801090e-12 </wgt>
<wgt id='1132'> +1.4856908e-12 </wgt>
<wgt id='1133'> +1.5320464e-12 </wgt>
<wgt id='1134'> +1.5462969e-12 </wgt>
<wgt id='1135'> +1.6298520e-12 </wgt>
<wgt id='1136'> +1.5283295e-12 </wgt>
<wgt id='1137'> +1.5337073e-12 </wgt>
<wgt id='1138'> +1.5843034e-12 </wgt>
<wgt id='1139'> +1.5889491e-12 </wgt>
<wgt id='1140'> +1.5637003e-12 </wgt>
<wgt id='1141'> +1.5603206e-12 </wgt>
<wgt id='1142'> +1.5397503e-12 </wgt>
<wgt id='1143'> +1.5326614e-12 </wgt>
<wgt id='1144'> +1.6107967e-12 </wgt>
<wgt id='1145'> +1.6061579e-12 </wgt>
<wgt id='1146'> +1.6356075e-12 </wgt>
<wgt id='1147'> +1.2635130e-12 </wgt>
<wgt id='1148'> +1.2979242e-12 </wgt>
<wgt id='1149'> +1.2575604e-12 </wgt>
<wgt id='1150'> +1.2791188e-12 </wgt>
<wgt id='1151'> +1.0185270e-12 </wgt>
<wgt id='1152'> +1.4305862e-12 </wgt>
<wgt id='1153'> +1.4245191e-12 </wgt>
<wgt id='1154'> +1.4340998e-12 </wgt>
<wgt id='1155'> +1.4312272e-12 </wgt>
<wgt id='1156'> +1.4302692e-12 </wgt>
<wgt id='1157'> +1.4277079e-12 </wgt>
<wgt id='1158'> +1.4344185e-12 </wgt>
<wgt id='1159'> +1.4281813e-12 </wgt>
<wgt id='1160'> +1.4321234e-12 </wgt>
<wgt id='1161'> +1.4233448e-12 </wgt>
<wgt id='1162'> +1.4355554e-12 </wgt>
<wgt id='1163'> +1.4342369e-12 </wgt>
<wgt id='1164'> +1.4269600e-12 </wgt>
<wgt id='1165'> +1.4173629e-12 </wgt>
<wgt id='1166'> +1.4433970e-12 </wgt>
<wgt id='1167'> +1.4429527e-12 </wgt>
<wgt id='1168'> +1.4135611e-12 </wgt>
<wgt id='1169'> +1.4352085e-12 </wgt>
<wgt id='1170'> +1.4270485e-12 </wgt>
<wgt id='1171'> +1.4279514e-12 </wgt>
<wgt id='1172'> +1.4338064e-12 </wgt>
<wgt id='1173'> +1.4207399e-12 </wgt>
<wgt id='1174'> +1.4400629e-12 </wgt>
<wgt id='1175'> +1.4325471e-12 </wgt>
<wgt id='1176'> +1.4280032e-12 </wgt>
<wgt id='1177'> +1.4310870e-12 </wgt>
<wgt id='1178'> +1.4293487e-12 </wgt>
<wgt id='1179'> +1.4406698e-12 </wgt>
<wgt id='1180'> +1.4150203e-12 </wgt>
<wgt id='1181'> +1.4259041e-12 </wgt>
<wgt id='1182'> +1.4349235e-12 </wgt>
<wgt id='1183'> +1.4299178e-12 </wgt>
<wgt id='1184'> +1.4306839e-12 </wgt>
<wgt id='1185'> +1.4304340e-12 </wgt>
<wgt id='1186'> +1.4306216e-12 </wgt>
<wgt id='1187'> +1.4299342e-12 </wgt>
<wgt id='1188'> +1.4308087e-12 </wgt>
<wgt id='1189'> +1.4264829e-12 </wgt>
<wgt id='1190'> +1.4181678e-12 </wgt>
<wgt id='1191'> +1.4214275e-12 </wgt>
<wgt id='1192'> +1.4346611e-12 </wgt>
<wgt id='1193'> +1.3050643e-12 </wgt>
<wgt id='1194'> +1.3042468e-12 </wgt>
<wgt id='1195'> +1.3056860e-12 </wgt>
<wgt id='1196'> +1.3074536e-12 </wgt>
<wgt id='1197'> +1.3024302e-12 </wgt>
<wgt id='1198'> +1.3076121e-12 </wgt>
<wgt id='1199'> +1.3012715e-12 </wgt>
<wgt id='1200'> +1.3066245e-12 </wgt>
<wgt id='1201'> +1.3040331e-12 </wgt>
<wgt id='1202'> +1.3015764e-12 </wgt>
<wgt id='1203'> +1.3100380e-12 </wgt>
<wgt id='1204'> +1.2847613e-12 </wgt>
<wgt id='1205'> +1.3176388e-12 </wgt>
<wgt id='1206'> +1.3110003e-12 </wgt>
<wgt id='1207'> +1.2969967e-12 </wgt>
<wgt id='1208'> +1.2971962e-12 </wgt>
<wgt id='1209'> +1.3079409e-12 </wgt>
<wgt id='1210'> +1.3079127e-12 </wgt>
<wgt id='1211'> +1.2931262e-12 </wgt>
<wgt id='1212'> +1.3028124e-12 </wgt>
<wgt id='1213'> +1.3071381e-12 </wgt>
<wgt id='1214'> +1.2932128e-12 </wgt>
<wgt id='1215'> +1.3235606e-12 </wgt>
<wgt id='1216'> +1.3136827e-12 </wgt>
<wgt id='1217'> +1.2992885e-12 </wgt>
<wgt id='1218'> +1.3125747e-12 </wgt>
<wgt id='1219'> +1.3012218e-12 </wgt>
<wgt id='1220'> +1.3097427e-12 </wgt>
<wgt id='1221'> +1.3040912e-12 </wgt>
<wgt id='1222'> +1.3040885e-12 </wgt>
<wgt id='1223'> +1.3093941e-12 </wgt>
<wgt id='1224'> +1.3065546e-12 </wgt>
<wgt id='1225'> +1.3044713e-12 </wgt>
<wgt id='1226'> +1.3057631e-12 </wgt>
<wgt id='1227'> +1.3047385e-12 </wgt>
<wgt id='1228'> +1.3000584e-12 </wgt>
<wgt id='1229'> +1.3074519e-12 </wgt>
<wgt id='1230'> +1.3029647e-12 </wgt>
<wgt id='1231'> +1.2947803e-12 </wgt>
<wgt id='1232'> +1.3014326e-12 </wgt>
<wgt id='1233'> +1.3060835e-12 </wgt>
<wgt id='1234'> +1.3050643e-12 </wgt>
<wgt id='1235'> +1.2941542e-12 </wgt>
<wgt id='1236'> +1.2981916e-12 </wgt>
<wgt id='1237'> +1.3018688e-12 </wgt>
<wgt id='1238'> +1.3081982e-12 </wgt>
<wgt id='1239'> +1.3108027e-12 </wgt>
<wgt id='1240'> +1.3132511e-12 </wgt>
<wgt id='1241'> +1.2373570e-12 </wgt>
<wgt id='1242'> +1.2319910e-12 </wgt>
<wgt id='1243'> +1.2427230e-12 </wgt>
<wgt id='1244'> +1.2313884e-12 </wgt>
<wgt id='1245'> +1.2417988e-12 </wgt>
<wgt id='1246'> +1.2388653e-12 </wgt>
<wgt id='1247'> +1.2361290e-12 </wgt>
<wgt id='1248'> +1.2372765e-12 </wgt>
<wgt id='1249'> +1.2374958e-12 </wgt>
<wgt id='1250'> +1.2336296e-12 </wgt>
<wgt id='1251'> +1.2400182e-12 </wgt>
<wgt id='1252'> +1.2341755e-12 </wgt>
<wgt id='1253'> +1.2398568e-12 </wgt>
<wgt id='1254'> +1.2181613e-12 </wgt>
<wgt id='1255'> +1.2489719e-12 </wgt>
<wgt id='1256'> +1.2425696e-12 </wgt>
<wgt id='1257'> +1.2243109e-12 </wgt>
<wgt id='1258'> +1.2524713e-12 </wgt>
<wgt id='1259'> +1.2223278e-12 </wgt>
<wgt id='1260'> +1.2421577e-12 </wgt>
<wgt id='1261'> +1.2319210e-12 </wgt>
<wgt id='1262'> +1.2407567e-12 </wgt>
<wgt id='1263'> +1.2358026e-12 </wgt>
<wgt id='1264'> +1.2478691e-12 </wgt>
<wgt id='1265'> +1.2323116e-12 </wgt>
<wgt id='1266'> +1.2321115e-12 </wgt>
<wgt id='1267'> +1.2433611e-12 </wgt>
<wgt id='1268'> +1.2379020e-12 </wgt>
<wgt id='1269'> +1.2407737e-12 </wgt>
<wgt id='1270'> +1.2286600e-12 </wgt>
<wgt id='1271'> +1.2310436e-12 </wgt>
<wgt id='1272'> +1.2378263e-12 </wgt>
<wgt id='1273'> +1.2366037e-12 </wgt>
<wgt id='1274'> +1.2377863e-12 </wgt>
<wgt id='1275'> +1.2354640e-12 </wgt>
<wgt id='1276'> +1.2390659e-12 </wgt>
<wgt id='1277'> +1.2348390e-12 </wgt>
<wgt id='1278'> +1.2354031e-12 </wgt>
<wgt id='1279'> +1.2348592e-12 </wgt>
<wgt id='1280'> +1.2384254e-12 </wgt>
<wgt id='1281'> +1.2323248e-12 </wgt>
<wgt id='1282'> +1.2373570e-12 </wgt>
<wgt id='1283'> +1.2266801e-12 </wgt>
<wgt id='1284'> +1.2307664e-12 </wgt>
<wgt id='1285'> +1.2344238e-12 </wgt>
<wgt id='1286'> +1.2404848e-12 </wgt>
<wgt id='1287'> +1.2429339e-12 </wgt>
<wgt id='1288'> +1.2450709e-12 </wgt>
<wgt id='1289'> +1.3570658e-12 </wgt>
<wgt id='1290'> +1.3584313e-12 </wgt>
<wgt id='1291'> +1.3556193e-12 </wgt>
<wgt id='1292'> +1.3577867e-12 </wgt>
<wgt id='1293'> +1.3565581e-12 </wgt>
<wgt id='1294'> +1.3577249e-12 </wgt>
<wgt id='1295'> +1.3564298e-12 </wgt>
<wgt id='1296'> +1.3517670e-12 </wgt>
<wgt id='1297'> +1.3636181e-12 </wgt>
<wgt id='1298'> +1.3649932e-12 </wgt>
<wgt id='1299'> +1.3472252e-12 </wgt>
<wgt id='1300'> +1.3611985e-12 </wgt>
<wgt id='1301'> +1.3488321e-12 </wgt>
<wgt id='1302'> +1.3558067e-12 </wgt>
<wgt id='1303'> +1.3588268e-12 </wgt>
<wgt id='1304'> +1.3520996e-12 </wgt>
<wgt id='1305'> +1.3604854e-12 </wgt>
<wgt id='1306'> +1.3478593e-12 </wgt>
<wgt id='1307'> +1.3675006e-12 </wgt>
<wgt id='1308'> +1.3570567e-12 </wgt>
<wgt id='1309'> +1.3570811e-12 </wgt>
<wgt id='1310'> +1.3536484e-12 </wgt>
<wgt id='1311'> +1.3608313e-12 </wgt>
<wgt id='1312'> +1.3491456e-12 </wgt>
<wgt id='1313'> +1.3652470e-12 </wgt>
<wgt id='1314'> +1.3674471e-12 </wgt>
<wgt id='1315'> +1.3398585e-12 </wgt>
<wgt id='1316'> +1.3629498e-12 </wgt>
<wgt id='1317'> +1.3575644e-12 </wgt>
<wgt id='1318'> +1.3709050e-12 </wgt>
<wgt id='1319'> +1.3410203e-12 </wgt>
<wgt id='1320'> +1.3651629e-12 </wgt>
<wgt id='1321'> +1.3498063e-12 </wgt>
<wgt id='1322'> +1.3585728e-12 </wgt>
<wgt id='1323'> +1.3549345e-12 </wgt>
<wgt id='1324'> +1.3556709e-12 </wgt>
<wgt id='1325'> +1.3642104e-12 </wgt>
<wgt id='1326'> +1.3604301e-12 </wgt>
<wgt id='1327'> +1.3564100e-12 </wgt>
<wgt id='1328'> +1.3562144e-12 </wgt>
<wgt id='1329'> +1.3577795e-12 </wgt>
<wgt id='1330'> +1.3554280e-12 </wgt>
<wgt id='1331'> +1.3594546e-12 </wgt>
<wgt id='1332'> +1.3826410e-12 </wgt>
<wgt id='1333'> +1.3464721e-12 </wgt>
<wgt id='1334'> +1.3552573e-12 </wgt>
<wgt id='1335'> +1.3621214e-12 </wgt>
<wgt id='1336'> +1.3504477e-12 </wgt>
<wgt id='1337'> +1.3572354e-12 </wgt>
<wgt id='1338'> +1.3551252e-12 </wgt>
<wgt id='1339'> +1.3578298e-12 </wgt>
<wgt id='1340'> +1.3305079e-12 </wgt>
<wgt id='1341'> +1.3319370e-12 </wgt>
<wgt id='1342'> +1.3289485e-12 </wgt>
<wgt id='1343'> +1.3312681e-12 </wgt>
<wgt id='1344'> +1.3299812e-12 </wgt>
<wgt id='1345'> +1.3310933e-12 </wgt>
<wgt id='1346'> +1.3299525e-12 </wgt>
<wgt id='1347'> +1.3251760e-12 </wgt>
<wgt id='1348'> +1.3364314e-12 </wgt>
<wgt id='1349'> +1.3378232e-12 </wgt>
<wgt id='1350'> +1.3233485e-12 </wgt>
<wgt id='1351'> +1.3346123e-12 </wgt>
<wgt id='1352'> +1.3215308e-12 </wgt>
<wgt id='1353'> +1.3284069e-12 </wgt>
<wgt id='1354'> +1.3342486e-12 </wgt>
<wgt id='1355'> +1.3254430e-12 </wgt>
<wgt id='1356'> +1.3333542e-12 </wgt>
<wgt id='1357'> +1.3207031e-12 </wgt>
<wgt id='1358'> +1.3420925e-12 </wgt>
<wgt id='1359'> +1.3326825e-12 </wgt>
<wgt id='1360'> +1.3286287e-12 </wgt>
<wgt id='1361'> +1.3269863e-12 </wgt>
<wgt id='1362'> +1.3352486e-12 </wgt>
<wgt id='1363'> +1.3190446e-12 </wgt>
<wgt id='1364'> +1.3386852e-12 </wgt>
<wgt id='1365'> +1.3155934e-12 </wgt>
<wgt id='1366'> +1.3401346e-12 </wgt>
<wgt id='1367'> +1.3357367e-12 </wgt>
<wgt id='1368'> +1.3307638e-12 </wgt>
<wgt id='1369'> +1.3421511e-12 </wgt>
<wgt id='1370'> +1.3168422e-12 </wgt>
<wgt id='1371'> +1.3372066e-12 </wgt>
<wgt id='1372'> +1.3221500e-12 </wgt>
<wgt id='1373'> +1.3316975e-12 </wgt>
<wgt id='1374'> +1.3289667e-12 </wgt>
<wgt id='1375'> +1.3290005e-12 </wgt>
<wgt id='1376'> +1.3380530e-12 </wgt>
<wgt id='1377'> +1.3336089e-12 </wgt>
<wgt id='1378'> +1.3304848e-12 </wgt>
<wgt id='1379'> +1.3294977e-12 </wgt>
<wgt id='1380'> +1.3314988e-12 </wgt>
<wgt id='1381'> +1.3300667e-12 </wgt>
<wgt id='1382'> +1.3313855e-12 </wgt>
<wgt id='1383'> +1.3544775e-12 </wgt>
<wgt id='1384'> +1.3205487e-12 </wgt>
<wgt id='1385'> +1.3290532e-12 </wgt>
<wgt id='1386'> +1.3343171e-12 </wgt>
<wgt id='1387'> +1.3222531e-12 </wgt>
<wgt id='1388'> +1.3307928e-12 </wgt>
<wgt id='1389'> +1.3266117e-12 </wgt>
<wgt id='1390'> +1.3317543e-12 </wgt>
<wgt id='1391'> +1.3006682e-12 </wgt>
<wgt id='1392'> +1.2637247e-12 </wgt>
<wgt id='1393'> +1.2763464e-12 </wgt>
<wgt id='1394'> +1.2887159e-12 </wgt>
<wgt id='1395'> +1.3122549e-12 </wgt>
<wgt id='1396'> +1.3004419e-12 </wgt>
<wgt id='1397'> +1.3299425e-12 </wgt>
<wgt id='1398'> +1.3231607e-12 </wgt>
<wgt id='1399'> +1.3170582e-12 </wgt>
<wgt id='1400'> +1.3114091e-12 </wgt>
<wgt id='1401'> +1.3058204e-12 </wgt>
<wgt id='1402'> +1.2955718e-12 </wgt>
<wgt id='1403'> +1.2912059e-12 </wgt>
<wgt id='1404'> +1.2871290e-12 </wgt>
<wgt id='1405'> +1.3004419e-12 </wgt>
<wgt id='1406'> +1.2926910e-12 </wgt>
<wgt id='1407'> +1.2967186e-12 </wgt>
<wgt id='1408'> +1.3038911e-12 </wgt>
<wgt id='1409'> +1.3067260e-12 </wgt>
<wgt id='1410'> +1.2230839e-12 </wgt>
<wgt id='1411'> +1.2240420e-12 </wgt>
<wgt id='1412'> +1.2218745e-12 </wgt>
<wgt id='1413'> +1.2264917e-12 </wgt>
<wgt id='1414'> +1.2197038e-12 </wgt>
<wgt id='1415'> +1.2252827e-12 </wgt>
<wgt id='1416'> +1.2222021e-12 </wgt>
<wgt id='1417'> +1.2162209e-12 </wgt>
<wgt id='1418'> +1.2299615e-12 </wgt>
<wgt id='1419'> +1.2265827e-12 </wgt>
<wgt id='1420'> +1.2197186e-12 </wgt>
<wgt id='1421'> +1.2045391e-12 </wgt>
<wgt id='1422'> +1.2311305e-12 </wgt>
<wgt id='1423'> +1.2230937e-12 </wgt>
<wgt id='1424'> +1.2230743e-12 </wgt>
<wgt id='1425'> +1.2174460e-12 </wgt>
<wgt id='1426'> +1.2291695e-12 </wgt>
<wgt id='1427'> +1.2126683e-12 </wgt>
<wgt id='1428'> +1.2286636e-12 </wgt>
<wgt id='1429'> +1.2201208e-12 </wgt>
<wgt id='1430'> +1.2271624e-12 </wgt>
<wgt id='1431'> +1.2247031e-12 </wgt>
<wgt id='1432'> +1.2218977e-12 </wgt>
<wgt id='1433'> +1.2328082e-12 </wgt>
<wgt id='1434'> +1.2126458e-12 </wgt>
<wgt id='1435'> +1.2282281e-12 </wgt>
<wgt id='1436'> +1.2107088e-12 </wgt>
<wgt id='1437'> +1.2303433e-12 </wgt>
<wgt id='1438'> +1.2213362e-12 </wgt>
<wgt id='1439'> +1.2155896e-12 </wgt>
<wgt id='1440'> +1.2413037e-12 </wgt>
<wgt id='1441'> +1.2248494e-12 </wgt>
<wgt id='1442'> +1.2199738e-12 </wgt>
<wgt id='1443'> +1.2207691e-12 </wgt>
<wgt id='1444'> +1.2289615e-12 </wgt>
<wgt id='1445'> +1.2294881e-12 </wgt>
<wgt id='1446'> +1.2214494e-12 </wgt>
<wgt id='1447'> +1.2238839e-12 </wgt>
<wgt id='1448'> +1.2241262e-12 </wgt>
<wgt id='1449'> +1.2225318e-12 </wgt>
<wgt id='1450'> +1.2233249e-12 </wgt>
<wgt id='1451'> +1.2211490e-12 </wgt>
<wgt id='1452'> +1.2244165e-12 </wgt>
<wgt id='1453'> +1.2241418e-12 </wgt>
<wgt id='1454'> +1.2169716e-12 </wgt>
<wgt id='1455'> +1.2178632e-12 </wgt>
<wgt id='1456'> +1.2236213e-12 </wgt>
<wgt id='1457'> +1.2225200e-12 </wgt>
<wgt id='1458'> +1.2231207e-12 </wgt>
<wgt id='1459'> +1.2271268e-12 </wgt>
<wgt id='1460'> +1.2186464e-12 </wgt>
<wgt id='1461'> +1.2230839e-12 </wgt>
<wgt id='1462'> +1.2171885e-12 </wgt>
<wgt id='1463'> +1.2298092e-12 </wgt>
<wgt id='1464'> +1.2242871e-12 </wgt>
<wgt id='1465'> +1.2536068e-12 </wgt>
<wgt id='1466'> +1.2464595e-12 </wgt>
<wgt id='1467'> +1.2401620e-12 </wgt>
<wgt id='1468'> +1.2355112e-12 </wgt>
<wgt id='1469'> +1.2291949e-12 </wgt>
<wgt id='1470'> +1.2204470e-12 </wgt>
<wgt id='1471'> +1.2152169e-12 </wgt>
<wgt id='1472'> +1.2109345e-12 </wgt>
<wgt id='1473'> +1.2242871e-12 </wgt>
<wgt id='1474'> +1.2169745e-12 </wgt>
<wgt id='1475'> +1.2210796e-12 </wgt>
<wgt id='1476'> +1.2273217e-12 </wgt>
<wgt id='1477'> +1.2298880e-12 </wgt>
<wgt id='1478'> +1.2779942e-12 </wgt>
<wgt id='1479'> +1.2774830e-12 </wgt>
<wgt id='1480'> +1.2733508e-12 </wgt>
<wgt id='1481'> +1.2654024e-12 </wgt>
<wgt id='1482'> +1.2818283e-12 </wgt>
<wgt id='1483'> +1.2712054e-12 </wgt>
<wgt id='1484'> +1.2783381e-12 </wgt>
<wgt id='1485'> +1.2893538e-12 </wgt>
<wgt id='1486'> +1.2778829e-12 </wgt>
<wgt id='1487'> +1.2784428e-12 </wgt>
<wgt id='1488'> +1.2733009e-12 </wgt>
<wgt id='1489'> +1.3058531e-12 </wgt>
<wgt id='1490'> +1.2792149e-12 </wgt>
<wgt id='1491'> +1.2806106e-12 </wgt>
<wgt id='1492'> +1.2763606e-12 </wgt>
<wgt id='1493'> +1.2632857e-12 </wgt>
<wgt id='1494'> +1.2802981e-12 </wgt>
<wgt id='1495'> +1.2852086e-12 </wgt>
<wgt id='1496'> +1.2776577e-12 </wgt>
<wgt id='1497'> +1.2816385e-12 </wgt>
<wgt id='1498'> +1.2766252e-12 </wgt>
<wgt id='1499'> +1.2815969e-12 </wgt>
<wgt id='1500'> +1.2773802e-12 </wgt>
<wgt id='1501'> +1.2772447e-12 </wgt>
<wgt id='1502'> +1.2786081e-12 </wgt>
<wgt id='1503'> +1.2793365e-12 </wgt>
<wgt id='1504'> +1.2790475e-12 </wgt>
<wgt id='1505'> +1.2783947e-12 </wgt>
<wgt id='1506'> +1.2794211e-12 </wgt>
<wgt id='1507'> +1.2771223e-12 </wgt>
<wgt id='1508'> +1.2846517e-12 </wgt>
<wgt id='1509'> +1.2590275e-12 </wgt>
<wgt id='1510'> +1.2564532e-12 </wgt>
<wgt id='1511'> +1.2632671e-12 </wgt>
<wgt id='1512'> +1.2625060e-12 </wgt>
<wgt id='1513'> +1.2600467e-12 </wgt>
<wgt id='1514'> +1.2578175e-12 </wgt>
<wgt id='1515'> +1.2581703e-12 </wgt>
<wgt id='1516'> +1.2590501e-12 </wgt>
<wgt id='1517'> +1.2641409e-12 </wgt>
<wgt id='1518'> +1.2577639e-12 </wgt>
<wgt id='1519'> +1.2547507e-12 </wgt>
<wgt id='1520'> +1.2698143e-12 </wgt>
<wgt id='1521'> +1.2670068e-12 </wgt>
<wgt id='1522'> +1.2715084e-12 </wgt>
<wgt id='1523'> +1.2637628e-12 </wgt>
<wgt id='1524'> +1.2615124e-12 </wgt>
<wgt id='1525'> +1.2564661e-12 </wgt>
<wgt id='1526'> +1.2612186e-12 </wgt>
<wgt id='1527'> +1.2629151e-12 </wgt>
<wgt id='1528'> +1.2561777e-12 </wgt>
<wgt id='1529'> +1.2608693e-12 </wgt>
<wgt id='1530'> +1.2528090e-12 </wgt>
<wgt id='1531'> +1.2594155e-12 </wgt>
<wgt id='1532'> +1.2590092e-12 </wgt>
<wgt id='1533'> +1.2569852e-12 </wgt>
<wgt id='1534'> +1.2551734e-12 </wgt>
<wgt id='1535'> +1.2650168e-12 </wgt>
<wgt id='1536'> +1.2622984e-12 </wgt>
<wgt id='1537'> +1.2590478e-12 </wgt>
<wgt id='1538'> +1.2593626e-12 </wgt>
<wgt id='1539'> +1.2578429e-12 </wgt>
<wgt id='1540'> +1.2573070e-12 </wgt>
<wgt id='1541'> +1.2589832e-12 </wgt>
<wgt id='1542'> +1.2574972e-12 </wgt>
<wgt id='1543'> +1.2602038e-12 </wgt>
<wgt id='1544'> +1.2607914e-12 </wgt>
<wgt id='1545'> +1.2576217e-12 </wgt>
<wgt id='1546'> +1.2587534e-12 </wgt>
<wgt id='1547'> +1.2579520e-12 </wgt>
<wgt id='1548'> +1.2605650e-12 </wgt>
<wgt id='1549'> +1.2604185e-12 </wgt>
<wgt id='1550'> +1.2574694e-12 </wgt>
<wgt id='1551'> +1.2603554e-12 </wgt>
<wgt id='1552'> +1.2589180e-12 </wgt>
<wgt id='1553'> +1.2572697e-12 </wgt>
<wgt id='1554'> +1.2568859e-12 </wgt>
<wgt id='1555'> +1.2581034e-12 </wgt>
<wgt id='1556'> +1.2601204e-12 </wgt>
<wgt id='1557'> +1.2592375e-12 </wgt>
<wgt id='1558'> +1.2596191e-12 </wgt>
<wgt id='1559'> +1.2582610e-12 </wgt>
<wgt id='1560'> +1.2590772e-12 </wgt>
<wgt id='1561'> +1.2593567e-12 </wgt>
<wgt id='1562'> +1.2587899e-12 </wgt>
<wgt id='1563'> +1.2594302e-12 </wgt>
<wgt id='1564'> +1.2596957e-12 </wgt>
<wgt id='1565'> +1.2588672e-12 </wgt>
<wgt id='1566'> +1.2587567e-12 </wgt>
<wgt id='1567'> +1.2592784e-12 </wgt>
<wgt id='1568'> +1.2585676e-12 </wgt>
<wgt id='1569'> +1.2588127e-12 </wgt>
<wgt id='1570'> +1.2593524e-12 </wgt>
<wgt id='1571'> +1.2588930e-12 </wgt>
<wgt id='1572'> +1.2589738e-12 </wgt>
<wgt id='1573'> +1.2589768e-12 </wgt>
<wgt id='1574'> +1.2591526e-12 </wgt>
<wgt id='1575'> +1.2588347e-12 </wgt>
<wgt id='1576'> +1.2591633e-12 </wgt>
<wgt id='1577'> +1.2597408e-12 </wgt>
<wgt id='1578'> +1.2586952e-12 </wgt>
<wgt id='1579'> +1.2588625e-12 </wgt>
<wgt id='1580'> +1.2594309e-12 </wgt>
<wgt id='1581'> +1.2596325e-12 </wgt>
<wgt id='1582'> +1.2595892e-12 </wgt>
<wgt id='1583'> +1.2594081e-12 </wgt>
<wgt id='1584'> +1.2590828e-12 </wgt>
<wgt id='1585'> +1.2589017e-12 </wgt>
<wgt id='1586'> +1.2597738e-12 </wgt>
<wgt id='1587'> +1.2594859e-12 </wgt>
<wgt id='1588'> +1.2584670e-12 </wgt>
<wgt id='1589'> +1.2591928e-12 </wgt>
<wgt id='1590'> +1.2589814e-12 </wgt>
<wgt id='1591'> +1.2586868e-12 </wgt>
<wgt id='1592'> +1.2590038e-12 </wgt>
<wgt id='1593'> +1.2597822e-12 </wgt>
<wgt id='1594'> +1.2587583e-12 </wgt>
<wgt id='1595'> +1.2595402e-12 </wgt>
<wgt id='1596'> +1.2587381e-12 </wgt>
<wgt id='1597'> +1.2588141e-12 </wgt>
<wgt id='1598'> +1.2595122e-12 </wgt>
<wgt id='1599'> +1.2588863e-12 </wgt>
<wgt id='1600'> +1.2588871e-12 </wgt>
<wgt id='1601'> +1.2594748e-12 </wgt>
<wgt id='1602'> +1.2593066e-12 </wgt>
<wgt id='1603'> +1.2593371e-12 </wgt>
<wgt id='1604'> +1.2590833e-12 </wgt>
<wgt id='1605'> +1.2593889e-12 </wgt>
<wgt id='1606'> +1.2578648e-12 </wgt>
<wgt id='1607'> +1.2593529e-12 </wgt>
<wgt id='1608'> +1.2590244e-12 </wgt>
<wgt id='1609'> +1.2589033e-12 </wgt>
<wgt id='1610'> +1.2326747e-12 </wgt>
<wgt id='1611'> +1.2841551e-12 </wgt>
<wgt id='1612'> +1.4778908e-12 </wgt>
<wgt id='1613'> +1.5194768e-12 </wgt>
<wgt id='1614'> +1.4939809e-12 </wgt>
<wgt id='1615'> +1.4670622e-12 </wgt>
<wgt id='1616'> +1.5096719e-12 </wgt>
<wgt id='1617'> +1.4258019e-12 </wgt>
<wgt id='1618'> +1.3818038e-12 </wgt>
<wgt id='1619'> +1.4839081e-12 </wgt>
<wgt id='1620'> +1.4961834e-12 </wgt>
<wgt id='1621'> +1.4669496e-12 </wgt>
<wgt id='1622'> +1.4760116e-12 </wgt>
<wgt id='1623'> +1.4682834e-12 </wgt>
<wgt id='1624'> +1.4517991e-12 </wgt>
<wgt id='1625'> +1.4931103e-12 </wgt>
<wgt id='1626'> +1.4990297e-12 </wgt>
<wgt id='1627'> +1.4615652e-12 </wgt>
<wgt id='1628'> +1.4995962e-12 </wgt>
<wgt id='1629'> +1.5199021e-12 </wgt>
<wgt id='1630'> +1.4881428e-12 </wgt>
<wgt id='1631'> +1.4741864e-12 </wgt>
<wgt id='1632'> +1.5379496e-12 </wgt>
<wgt id='1633'> +1.4639045e-12 </wgt>
<wgt id='1634'> +1.4996940e-12 </wgt>
<wgt id='1635'> +1.4633237e-12 </wgt>
<wgt id='1636'> +1.4437643e-12 </wgt>
<wgt id='1637'> +1.4274226e-12 </wgt>
<wgt id='1638'> +1.4950533e-12 </wgt>
<wgt id='1639'> +1.5027116e-12 </wgt>
<wgt id='1640'> +1.5214024e-12 </wgt>
<wgt id='1641'> +1.4601979e-12 </wgt>
<wgt id='1642'> +1.4997905e-12 </wgt>
<wgt id='1643'> +1.5244523e-12 </wgt>
<wgt id='1644'> +1.4355431e-12 </wgt>
<wgt id='1645'> +1.5019727e-12 </wgt>
<wgt id='1646'> +1.5254585e-12 </wgt>
<wgt id='1647'> +1.5159552e-12 </wgt>
<wgt id='1648'> +1.4781347e-12 </wgt>
<wgt id='1649'> +1.3951861e-12 </wgt>
<wgt id='1650'> +1.4929964e-12 </wgt>
<wgt id='1651'> +1.4323112e-12 </wgt>
<wgt id='1652'> +1.5185037e-12 </wgt>
<wgt id='1653'> +1.4390884e-12 </wgt>
<wgt id='1654'> +1.4297018e-12 </wgt>
<wgt id='1655'> +1.4340388e-12 </wgt>
<wgt id='1656'> +1.4841670e-12 </wgt>
<wgt id='1657'> +1.4475661e-12 </wgt>
<wgt id='1658'> +1.4768631e-12 </wgt>
<wgt id='1659'> +1.4517991e-12 </wgt>
<wgt id='1660'> +1.4398214e-12 </wgt>
<wgt id='1661'> +1.4420002e-12 </wgt>
<wgt id='1662'> +1.4838648e-12 </wgt>
<wgt id='1663'> +1.4769334e-12 </wgt>
<wgt id='1664'> +1.5445991e-12 </wgt>
<wgt id='1665'> +1.4958222e-12 </wgt>
<wgt id='1666'> +1.4554955e-12 </wgt>
<wgt id='1667'> +1.4654186e-12 </wgt>
<wgt id='1668'> +1.4653409e-12 </wgt>
<wgt id='1669'> +1.4678684e-12 </wgt>
<wgt id='1670'> +1.4940371e-12 </wgt>
<wgt id='1671'> +1.5197982e-12 </wgt>
<wgt id='1672'> +1.4955670e-12 </wgt>
<wgt id='1673'> +1.4373101e-12 </wgt>
<wgt id='1674'> +1.4901521e-12 </wgt>
<wgt id='1675'> +1.5546602e-12 </wgt>
<wgt id='1676'> +1.4702573e-12 </wgt>
<wgt id='1677'> +1.4929081e-12 </wgt>
<wgt id='1678'> +1.4630554e-12 </wgt>
<wgt id='1679'> +1.5032112e-12 </wgt>
<wgt id='1680'> +1.4875383e-12 </wgt>
<wgt id='1681'> +1.5069294e-12 </wgt>
<wgt id='1682'> +1.4755275e-12 </wgt>
<wgt id='1683'> +1.4649185e-12 </wgt>
<wgt id='1684'> +1.4721428e-12 </wgt>
<wgt id='1685'> +1.4804321e-12 </wgt>
<wgt id='1686'> +1.4955288e-12 </wgt>
<wgt id='1687'> +1.5170525e-12 </wgt>
<wgt id='1688'> +1.4913407e-12 </wgt>
<wgt id='1689'> +1.4586395e-12 </wgt>
<wgt id='1690'> +1.4790773e-12 </wgt>
<wgt id='1691'> +1.5059598e-12 </wgt>
<wgt id='1692'> +1.5009959e-12 </wgt>
<wgt id='1693'> +1.5048550e-12 </wgt>
<wgt id='1694'> +1.4121671e-12 </wgt>
<wgt id='1695'> +1.4939932e-12 </wgt>
<wgt id='1696'> +1.5331596e-12 </wgt>
<wgt id='1697'> +1.4464473e-12 </wgt>
<wgt id='1698'> +1.4586389e-12 </wgt>
<wgt id='1699'> +1.4498275e-12 </wgt>
<wgt id='1700'> +1.4704083e-12 </wgt>
<wgt id='1701'> +1.4745226e-12 </wgt>
<wgt id='1702'> +1.4387444e-12 </wgt>
<wgt id='1703'> +1.5056341e-12 </wgt>
<wgt id='1704'> +1.4687091e-12 </wgt>
<wgt id='1705'> +1.5051079e-12 </wgt>
<wgt id='1706'> +1.4663076e-12 </wgt>
<wgt id='1707'> +1.4502145e-12 </wgt>
<wgt id='1708'> +1.4557473e-12 </wgt>
<wgt id='1709'> +1.4762048e-12 </wgt>
<wgt id='1710'> +1.4562979e-12 </wgt>
<wgt id='1711'> +1.4741222e-12 </wgt>
<wgt id='1712'> +1.4869914e-12 </wgt>
<wgt id='1713'> +1.2873287e-12 </wgt>
<wgt id='1714'> +1.2418458e-12 </wgt>
<wgt id='1715'> +1.2958260e-12 </wgt>
<wgt id='1716'> +1.2787576e-12 </wgt>
<wgt id='1717'> +1.2648684e-12 </wgt>
<wgt id='1718'> +1.2623710e-12 </wgt>
<wgt id='1719'> +1.2906767e-12 </wgt>
<wgt id='1720'> +1.3119535e-12 </wgt>
<wgt id='1721'> +1.2746086e-12 </wgt>
<wgt id='1722'> +1.2759928e-12 </wgt>
<wgt id='1723'> +1.2543969e-12 </wgt>
<wgt id='1724'> +1.2997533e-12 </wgt>
<wgt id='1725'> +1.3089546e-12 </wgt>
<wgt id='1726'> +1.3110417e-12 </wgt>
<wgt id='1727'> +1.2541978e-12 </wgt>
<wgt id='1728'> +1.2956302e-12 </wgt>
<wgt id='1729'> +1.3028868e-12 </wgt>
<wgt id='1730'> +1.2594202e-12 </wgt>
<wgt id='1731'> +1.2591735e-12 </wgt>
<wgt id='1732'> +1.2939502e-12 </wgt>
<wgt id='1733'> +1.2918925e-12 </wgt>
<wgt id='1734'> +1.2945972e-12 </wgt>
<wgt id='1735'> +1.2922942e-12 </wgt>
<wgt id='1736'> +1.3930511e-12 </wgt>
<wgt id='1737'> +1.2826691e-12 </wgt>
<wgt id='1738'> +1.3096719e-12 </wgt>
<wgt id='1739'> +1.2515696e-12 </wgt>
<wgt id='1740'> +1.2525175e-12 </wgt>
<wgt id='1741'> +1.2800910e-12 </wgt>
<wgt id='1742'> +1.2703171e-12 </wgt>
<wgt id='1743'> +1.3134165e-12 </wgt>
<wgt id='1744'> +1.2935010e-12 </wgt>
<wgt id='1745'> +1.2409785e-12 </wgt>
<wgt id='1746'> +1.3152699e-12 </wgt>
<wgt id='1747'> +1.3052698e-12 </wgt>
<wgt id='1748'> +1.2895821e-12 </wgt>
<wgt id='1749'> +1.3119167e-12 </wgt>
<wgt id='1750'> +1.3068565e-12 </wgt>
<wgt id='1751'> +1.2710728e-12 </wgt>
<wgt id='1752'> +1.2396403e-12 </wgt>
<wgt id='1753'> +1.3150797e-12 </wgt>
<wgt id='1754'> +1.2701033e-12 </wgt>
<wgt id='1755'> +1.3089052e-12 </wgt>
<wgt id='1756'> +1.3112915e-12 </wgt>
<wgt id='1757'> +1.2827479e-12 </wgt>
<wgt id='1758'> +1.3166536e-12 </wgt>
<wgt id='1759'> +1.2883841e-12 </wgt>
<wgt id='1760'> +1.2586341e-12 </wgt>
<wgt id='1761'> +1.2546303e-12 </wgt>
<wgt id='1762'> +1.2940146e-12 </wgt>
<wgt id='1763'> +1.2945053e-12 </wgt>
<wgt id='1764'> +1.2914509e-12 </wgt>
<wgt id='1765'> +1.2895417e-12 </wgt>
<wgt id='1766'> +1.3134857e-12 </wgt>
<wgt id='1767'> +1.2870046e-12 </wgt>
<wgt id='1768'> +1.2839680e-12 </wgt>
<wgt id='1769'> +1.2519975e-12 </wgt>
<wgt id='1770'> +1.3253784e-12 </wgt>
<wgt id='1771'> +1.2851684e-12 </wgt>
<wgt id='1772'> +1.3067043e-12 </wgt>
<wgt id='1773'> +1.2773406e-12 </wgt>
<wgt id='1774'> +1.2922695e-12 </wgt>
<wgt id='1775'> +1.2920833e-12 </wgt>
<wgt id='1776'> +1.3067971e-12 </wgt>
<wgt id='1777'> +1.2686955e-12 </wgt>
<wgt id='1778'> +1.2614274e-12 </wgt>
<wgt id='1779'> +1.3102375e-12 </wgt>
<wgt id='1780'> +1.3285915e-12 </wgt>
<wgt id='1781'> +1.2632445e-12 </wgt>
<wgt id='1782'> +1.2480606e-12 </wgt>
<wgt id='1783'> +1.2994924e-12 </wgt>
<wgt id='1784'> +1.3162000e-12 </wgt>
<wgt id='1785'> +1.2721572e-12 </wgt>
<wgt id='1786'> +1.2208173e-12 </wgt>
<wgt id='1787'> +1.3022137e-12 </wgt>
<wgt id='1788'> +1.2693268e-12 </wgt>
<wgt id='1789'> +1.2724507e-12 </wgt>
<wgt id='1790'> +1.3175589e-12 </wgt>
<wgt id='1791'> +1.3363385e-12 </wgt>
<wgt id='1792'> +1.2704298e-12 </wgt>
<wgt id='1793'> +1.3038011e-12 </wgt>
<wgt id='1794'> +1.2881569e-12 </wgt>
<wgt id='1795'> +1.2776290e-12 </wgt>
<wgt id='1796'> +1.2755175e-12 </wgt>
<wgt id='1797'> +1.2898216e-12 </wgt>
<wgt id='1798'> +1.2524366e-12 </wgt>
<wgt id='1799'> +1.2873954e-12 </wgt>
<wgt id='1800'> +1.2827362e-12 </wgt>
<wgt id='1801'> +1.2799373e-12 </wgt>
<wgt id='1802'> +1.2980132e-12 </wgt>
<wgt id='1803'> +1.2905623e-12 </wgt>
<wgt id='1804'> +1.2414245e-12 </wgt>
<wgt id='1805'> +1.3113900e-12 </wgt>
<wgt id='1806'> +1.2668698e-12 </wgt>
<wgt id='1807'> +1.3259745e-12 </wgt>
<wgt id='1808'> +1.2802083e-12 </wgt>
<wgt id='1809'> +1.2834794e-12 </wgt>
<wgt id='1810'> +1.2839687e-12 </wgt>
<wgt id='1811'> +1.3296358e-12 </wgt>
<wgt id='1812'> +1.3097309e-12 </wgt>
<wgt id='1813'> +1.2855940e-12 </wgt>
<wgt id='1814'> +1.1464243e-12 </wgt>
<wgt id='1815'> +1.3054313e-12 </wgt>
<wgt id='1816'> +1.2873287e-12 </wgt>
<wgt id='1817'> +1.2418458e-12 </wgt>
<wgt id='1818'> +1.2958260e-12 </wgt>
<wgt id='1819'> +1.2787576e-12 </wgt>
<wgt id='1820'> +1.2648684e-12 </wgt>
<wgt id='1821'> +1.2623710e-12 </wgt>
<wgt id='1822'> +1.2906767e-12 </wgt>
<wgt id='1823'> +1.3119535e-12 </wgt>
<wgt id='1824'> +1.2746086e-12 </wgt>
<wgt id='1825'> +1.2759928e-12 </wgt>
<wgt id='1826'> +1.2543969e-12 </wgt>
<wgt id='1827'> +1.2997533e-12 </wgt>
<wgt id='1828'> +1.3089546e-12 </wgt>
<wgt id='1829'> +1.3110417e-12 </wgt>
<wgt id='1830'> +1.2541978e-12 </wgt>
<wgt id='1831'> +1.2956302e-12 </wgt>
<wgt id='1832'> +1.3028868e-12 </wgt>
<wgt id='1833'> +1.2594202e-12 </wgt>
<wgt id='1834'> +1.2591735e-12 </wgt>
<wgt id='1835'> +1.2939502e-12 </wgt>
<wgt id='1836'> +1.2918925e-12 </wgt>
<wgt id='1837'> +1.2945972e-12 </wgt>
<wgt id='1838'> +1.2922942e-12 </wgt>
<wgt id='1839'> +1.3930511e-12 </wgt>
<wgt id='1840'> +1.2826691e-12 </wgt>
<wgt id='1841'> +1.3096719e-12 </wgt>
<wgt id='1842'> +1.2515696e-12 </wgt>
<wgt id='1843'> +1.2525175e-12 </wgt>
<wgt id='1844'> +1.2800910e-12 </wgt>
<wgt id='1845'> +1.2703171e-12 </wgt>
<wgt id='1846'> +1.3134165e-12 </wgt>
<wgt id='1847'> +1.2935010e-12 </wgt>
<wgt id='1848'> +1.2409785e-12 </wgt>
<wgt id='1849'> +1.3152699e-12 </wgt>
<wgt id='1850'> +1.3052698e-12 </wgt>
<wgt id='1851'> +1.2895821e-12 </wgt>
<wgt id='1852'> +1.3119167e-12 </wgt>
<wgt id='1853'> +1.3068565e-12 </wgt>
<wgt id='1854'> +1.2710728e-12 </wgt>
<wgt id='1855'> +1.2396403e-12 </wgt>
<wgt id='1856'> +1.3150797e-12 </wgt>
<wgt id='1857'> +1.2701033e-12 </wgt>
<wgt id='1858'> +1.3089052e-12 </wgt>
<wgt id='1859'> +1.3112915e-12 </wgt>
<wgt id='1860'> +1.2827479e-12 </wgt>
<wgt id='1861'> +1.3166536e-12 </wgt>
<wgt id='1862'> +1.2883841e-12 </wgt>
<wgt id='1863'> +1.2586341e-12 </wgt>
<wgt id='1864'> +1.2546303e-12 </wgt>
<wgt id='1865'> +1.2940146e-12 </wgt>
<wgt id='1866'> +1.2945053e-12 </wgt>
<wgt id='1867'> +1.2914509e-12 </wgt>
<wgt id='1868'> +1.2895417e-12 </wgt>
<wgt id='1869'> +1.3134857e-12 </wgt>
<wgt id='1870'> +1.2870046e-12 </wgt>
<wgt id='1871'> +1.2839680e-12 </wgt>
<wgt id='1872'> +1.2519975e-12 </wgt>
<wgt id='1873'> +1.3253784e-12 </wgt>
<wgt id='1874'> +1.2851684e-12 </wgt>
<wgt id='1875'> +1.3067043e-12 </wgt>
<wgt id='1876'> +1.2773406e-12 </wgt>
<wgt id='1877'> +1.2922695e-12 </wgt>
<wgt id='1878'> +1.2920833e-12 </wgt>
<wgt id='1879'> +1.3067971e-12 </wgt>
<wgt id='1880'> +1.2686955e-12 </wgt>
<wgt id='1881'> +1.2614274e-12 </wgt>
<wgt id='1882'> +1.3102375e-12 </wgt>
<wgt id='1883'> +1.3285915e-12 </wgt>
<wgt id='1884'> +1.2632445e-12 </wgt>
<wgt id='1885'> +1.2480606e-12 </wgt>
<wgt id='1886'> +1.2994924e-12 </wgt>
<wgt id='1887'> +1.3162000e-12 </wgt>
<wgt id='1888'> +1.2721572e-12 </wgt>
<wgt id='1889'> +1.2208173e-12 </wgt>
<wgt id='1890'> +1.3022137e-12 </wgt>
<wgt id='1891'> +1.2693268e-12 </wgt>
<wgt id='1892'> +1.2724507e-12 </wgt>
<wgt id='1893'> +1.3175589e-12 </wgt>
<wgt id='1894'> +1.3363385e-12 </wgt>
<wgt id='1895'> +1.2704298e-12 </wgt>
<wgt id='1896'> +1.3038011e-12 </wgt>
<wgt id='1897'> +1.2881569e-12 </wgt>
<wgt id='1898'> +1.2776290e-12 </wgt>
<wgt id='1899'> +1.2755175e-12 </wgt>
<wgt id='1900'> +1.2898216e-12 </wgt>
<wgt id='1901'> +1.2524366e-12 </wgt>
<wgt id='1902'> +1.2873954e-12 </wgt>
<wgt id='1903'> +1.2827362e-12 </wgt>
<wgt id='1904'> +1.2799373e-12 </wgt>
<wgt id='1905'> +1.2980132e-12 </wgt>
<wgt id='1906'> +1.2905623e-12 </wgt>
<wgt id='1907'> +1.2414245e-12 </wgt>
<wgt id='1908'> +1.3113900e-12 </wgt>
<wgt id='1909'> +1.2668698e-12 </wgt>
<wgt id='1910'> +1.3259745e-12 </wgt>
<wgt id='1911'> +1.2802083e-12 </wgt>
<wgt id='1912'> +1.2834794e-12 </wgt>
<wgt id='1913'> +1.2839687e-12 </wgt>
<wgt id='1914'> +1.3296358e-12 </wgt>
<wgt id='1915'> +1.3097309e-12 </wgt>
<wgt id='1916'> +1.2855940e-12 </wgt>
<wgt id='1917'> +1.2702434e-12 </wgt>
<wgt id='1918'> +1.2957683e-12 </wgt>
<wgt id='1919'> +1.2599971e-12 </wgt>
</rwgt>
</event>
<event>
 9      1 +1.5607000e-12 3.30269400e+01 7.81860800e-03 1.42138800e-01
        2 -1    0    0  502    0 -0.0000000000e+00 +0.0000000000e+00 +1.5236480344e+02 1.5236480344e+02 0.0000000000e+00 0.0000e+00 -1.0000e+00
       21 -1    0    0  501  502 +0.0000000000e+00 -0.0000000000e+00 -8.1949798345e+00 8.1949798345e+00 0.0000000000e+00 0.0000e+00 -1.0000e+00
     1023  2    1    2    0    0 -2.9122389019e+01 +4.2133693851e+00 +1.1285783918e+02 1.1759111571e+02 1.4997086556e+01 0.0000e+00 0.0000e+00
  1000023  2    3    3    0    0 -2.2779566485e+01 -9.3049868386e-01 +7.9568800301e+01 8.2952251899e+01 5.4870426303e+00 0.0000e+00 0.0000e+00
        2  1    1    2  501    0 +2.9122389019e+01 -4.2133693851e+00 +3.1311984424e+01 4.2968667565e+01 0.0000000000e+00 0.0000e+00 -1.0000e+00
  1000022  1    4    4    0    0 -2.1466465853e+01 -8.2019739280e-01 +7.6060157890e+01 7.9193620313e+01 5.0000000000e+00 0.0000e+00 -1.0000e+00
      -11  1    4    4    0    0 -8.5552617643e-01 +8.9602977937e-03 +1.9403969314e+00 2.1206475044e+00 5.1100000000e-04 0.0000e+00 -1.0000e+00
       11  1    4    4    0    0 -4.5757445569e-01 -1.1926158886e-01 +1.5682454792e+00 1.6379840821e+00 5.1100000000e-04 0.0000e+00 1.0000e+00
  1000022  1    3    3    0    0 -6.3428225344e+00 +5.1438680689e+00 +3.3289038878e+01 3.4638863807e+01 5.0000000000e+00 0.0000e+00 -1.0000e+00
<mgrwt>
<rscale>  1 0.33026938E+02</rscale>
<asrwt>0</asrwt>
<pdfrwt beam="1">  1       21 0.12607662E-02 0.33026938E+02</pdfrwt>
<pdfrwt beam="2">  1        2 0.23440737E-01 0.33026938E+02</pdfrwt>
<totfact> 0.54984719E+06</totfact>
</mgrwt>
<rwgt>
<wgt id='1001'> +1.5607000e-12 </wgt>
<wgt id='1002'> +1.6085954e-12 </wgt>
<wgt id='1003'> +1.6101397e-12 </wgt>
<wgt id='1004'> +1.5542260e-12 </wgt>
<wgt id='1005'> +1.6158022e-12 </wgt>
<wgt id='1006'> +1.3691998e-12 </wgt>
<wgt id='1007'> +1.4314485e-12 </wgt>
<wgt id='1008'> +1.4337208e-12 </wgt>
<wgt id='1009'> +1.3614241e-12 </wgt>
<wgt id='1010'> +1.4423909e-12 </wgt>
<wgt id='1011'> +1.8175135e-12 </wgt>
<wgt id='1012'> +1.8379160e-12 </wgt>
<wgt id='1013'> +1.8381641e-12 </wgt>
<wgt id='1014'> +1.8137623e-12 </wgt>
<wgt id='1015'> +1.8385562e-12 </wgt>
<wgt id='1016'> +1.8384578e-12 </wgt>
<wgt id='1017'> +1.8303927e-12 </wgt>
<wgt id='1018'> +1.8295622e-12 </wgt>
<wgt id='1019'> +1.8381641e-12 </wgt>
<wgt id='1020'> +1.8257415e-12 </wgt>
<wgt id='1021'> +1.6128764e-12 </wgt>
<wgt id='1022'> +1.6288203e-12 </wgt>
<wgt id='1023'> +1.6291017e-12 </wgt>
<wgt id='1024'> +1.6101397e-12 </wgt>
<wgt id='1025'> +1.6297991e-12 </wgt>
<wgt id='1026'> +2.1409764e-12 </wgt>
<wgt id='1027'> +2.0913327e-12 </wgt>
<wgt id='1028'> +2.0886608e-12 </wgt>
<wgt id='1029'> +2.1451145e-12 </wgt>
<wgt id='1030'> +2.0774376e-12 </wgt>
<wgt id='1031'> +1.2477430e-12 </wgt>
<wgt id='1032'> +1.3571398e-12 </wgt>
<wgt id='1033'> +1.3614241e-12 </wgt>
<wgt id='1034'> +1.2346899e-12 </wgt>
<wgt id='1035'> +1.3778836e-12 </wgt>
<wgt id='1036'> +1.0946431e-12 </wgt>
<wgt id='1037'> +1.2076845e-12 </wgt>
<wgt id='1038'> +1.2122564e-12 </wgt>
<wgt id='1039'> +1.0815265e-12 </wgt>
<wgt id='1040'> +1.2300062e-12 </wgt>
<wgt id='1041'> +1.4530594e-12 </wgt>
<wgt id='1042'> +1.5506130e-12 </wgt>
<wgt id='1043'> +1.5542260e-12 </wgt>
<wgt id='1044'> +1.4408676e-12 </wgt>
<wgt id='1045'> +1.5678382e-12 </wgt>
<wgt id='1046'> +1.5607000e-12 </wgt>
<wgt id='1047'> +1.6093048e-12 </wgt>
<wgt id='1048'> +1.5559191e-12 </wgt>
<wgt id='1049'> +1.5171037e-12 </wgt>
<wgt id='1050'> +1.5282106e-12 </wgt>
<wgt id='1051'> +1.5414911e-12 </wgt>
<wgt id='1052'> +1.5402196e-12 </wgt>
<wgt id='1053'> +1.5732561e-12 </wgt>
<wgt id='1054'> +1.5599453e-12 </wgt>
<wgt id='1055'> +1.5162281e-12 </wgt>
<wgt id='1056'> +1.5323557e-12 </wgt>
<wgt id='1057'> +1.5644786e-12 </wgt>
<wgt id='1058'> +1.5218412e-12 </wgt>
<wgt id='1059'> +1.5716903e-12 </wgt>
<wgt id='1060'> +1.5584451e-12 </wgt>
<wgt id='1061'> +1.5716315e-12 </wgt>
<wgt id='1062'> +1.5781848e-12 </wgt>
<wgt id='1063'> +1.5710702e-12 </wgt>
<wgt id='1064'> +1.5546489e-12 </wgt>
<wgt id='1065'> +1.5712332e-12 </wgt>
<wgt id='1066'> +1.5393170e-12 </wgt>
<wgt id='1067'> +1.5313771e-12 </wgt>
<wgt id='1068'> +1.5875461e-12 </wgt>
<wgt id='1069'> +1.5878236e-12 </wgt>
<wgt id='1070'> +1.5755875e-12 </wgt>
<wgt id='1071'> +1.5330029e-12 </wgt>
<wgt id='1072'> +1.6117281e-12 </wgt>
<wgt id='1073'> +1.5722706e-12 </wgt>
<wgt id='1074'> +1.5425046e-12 </wgt>
<wgt id='1075'> +1.5771864e-12 </wgt>
<wgt id='1076'> +1.5338677e-12 </wgt>
<wgt id='1077'> +1.5703576e-12 </wgt>
<wgt id='1078'> +1.5166783e-12 </wgt>
<wgt id='1079'> +1.5282390e-12 </wgt>
<wgt id='1080'> +1.5463883e-12 </wgt>
<wgt id='1081'> +1.5809973e-12 </wgt>
<wgt id='1082'> +1.5422468e-12 </wgt>
<wgt id='1083'> +1.5863963e-12 </wgt>
<wgt id='1084'> +1.5276493e-12 </wgt>
<wgt id='1085'> +1.5406083e-12 </wgt>
<wgt id='1086'> +1.5792453e-12 </wgt>
<wgt id='1087'> +1.5415609e-12 </wgt>
<wgt id='1088'> +1.5702749e-12 </wgt>
<wgt id='1089'> +1.5660892e-12 </wgt>
<wgt id='1090'> +1.5405531e-12 </wgt>
<wgt id='1091'> +1.5798326e-12 </wgt>
<wgt id='1092'> +1.6032232e-12 </wgt>
<wgt id='1093'> +1.5472991e-12 </wgt>
<wgt id='1094'> +1.5898011e-12 </wgt>
<wgt id='1095'> +1.5746115e-12 </wgt>
<wgt id='1096'> +1.5964365e-12 </wgt>
<wgt id='1097'> +1.5564425e-12 </wgt>
<wgt id='1098'> +1.5525589e-12 </wgt>
<wgt id='1099'> +1.5487367e-12 </wgt>
<wgt id='1100'> +1.5956136e-12 </wgt>
<wgt id='1101'> +1.6093003e-12 </wgt>
<wgt id='1102'> +1.5504806e-12 </wgt>
<wgt id='1103'> +1.6150358e-12 </wgt>
<wgt id='1104'> +1.5350772e-12 </wgt>
<wgt id='1105'> +1.5204063e-12 </wgt>
<wgt id='1106'> +1.5895657e-12 </wgt>
<wgt id='1107'> +1.5677166e-12 </wgt>
<wgt id='1108'> +1.5699954e-12 </wgt>
<wgt id='1109'> +1.5853228e-12 </wgt>
<wgt id='1110'> +1.5551449e-12 </wgt>
<wgt id='1111'> +1.5616195e-12 </wgt>
<wgt id='1112'> +1.5554437e-12 </wgt>
<wgt id='1113'> +1.6080991e-12 </wgt>
<wgt id='1114'> +1.5686449e-12 </wgt>
<wgt id='1115'> +1.5622770e-12 </wgt>
<wgt id='1116'> +1.5857536e-12 </wgt>
<wgt id='1117'> +1.5294972e-12 </wgt>
<wgt id='1118'> +1.6431915e-12 </wgt>
<wgt id='1119'> +1.4888151e-12 </wgt>
<wgt id='1120'> +1.5299019e-12 </wgt>
<wgt id='1121'> +1.5383177e-12 </wgt>
<wgt id='1122'> +1.5616010e-12 </wgt>
<wgt id='1123'> +1.5486651e-12 </wgt>
<wgt id='1124'> +1.5369200e-12 </wgt>
<wgt id='1125'> +1.5343285e-12 </wgt>
<wgt id='1126'> +1.5616478e-12 </wgt>
<wgt id='1127'> +1.5674916e-12 </wgt>
<wgt id='1128'> +1.5781848e-12 </wgt>
<wgt id='1129'> +1.5588565e-12 </wgt>
<wgt id='1130'> +1.5641071e-12 </wgt>
<wgt id='1131'> +1.5554364e-12 </wgt>
<wgt id='1132'> +1.5777172e-12 </wgt>
<wgt id='1133'> +1.5467516e-12 </wgt>
<wgt id='1134'> +1.5565531e-12 </wgt>
<wgt id='1135'> +1.5225802e-12 </wgt>
<wgt id='1136'> +1.5448309e-12 </wgt>
<wgt id='1137'> +1.5609045e-12 </wgt>
<wgt id='1138'> +1.5506170e-12 </wgt>
<wgt id='1139'> +1.5603825e-12 </wgt>
<wgt id='1140'> +1.5862997e-12 </wgt>
<wgt id='1141'> +1.5805409e-12 </wgt>
<wgt id='1142'> +1.5374515e-12 </wgt>
<wgt id='1143'> +1.5769665e-12 </wgt>
<wgt id='1144'> +1.5488066e-12 </wgt>
<wgt id='1145'> +1.5921992e-12 </wgt>
<wgt id='1146'> +1.5787031e-12 </wgt>
<wgt id='1147'> +1.3234580e-12 </wgt>
<wgt id='1148'> +1.3503322e-12 </wgt>
<wgt id='1149'> +1.3204335e-12 </wgt>
<wgt id='1150'> +1.3410187e-12 </wgt>
<wgt id='1151'> +1.5025195e-12 </wgt>
<wgt id='1152'> +1.8537522e-12 </wgt>
<wgt id='1153'> +1.8467608e-12 </wgt>
<wgt id='1154'> +1.8578367e-12 </wgt>
<wgt id='1155'> +1.8513568e-12 </wgt>
<wgt id='1156'> +1.8550265e-12 </wgt>
<wgt id='1157'> +1.8567692e-12 </wgt>
<wgt id='1158'> +1.8496698e-12 </wgt>
<wgt id='1159'> +1.8563821e-12 </wgt>
<wgt id='1160'> +1.8521312e-12 </wgt>
<wgt id='1161'> +1.8504802e-12 </wgt>
<wgt id='1162'> +1.8560220e-12 </wgt>
<wgt id='1163'> +1.8565019e-12 </wgt>
<wgt id='1164'> +1.8510604e-12 </wgt>
<wgt id='1165'> +1.8479402e-12 </wgt>
<wgt id='1166'> +1.8592269e-12 </wgt>
<wgt id='1167'> +1.8646196e-12 </wgt>
<wgt id='1168'> +1.8391822e-12 </wgt>
<wgt id='1169'> +1.8562566e-12 </wgt>
<wgt id='1170'> +1.8518861e-12 </wgt>
<wgt id='1171'> +1.8457604e-12 </wgt>
<wgt id='1172'> +1.8634479e-12 </wgt>
<wgt id='1173'> +1.8388124e-12 </wgt>
<wgt id='1174'> +1.8680327e-12 </wgt>
<wgt id='1175'> +1.8566971e-12 </wgt>
<wgt id='1176'> +1.8505189e-12 </wgt>
<wgt id='1177'> +1.8525036e-12 </wgt>
<wgt id='1178'> +1.8572497e-12 </wgt>
<wgt id='1179'> +1.8557594e-12 </wgt>
<wgt id='1180'> +1.8449715e-12 </wgt>
<wgt id='1181'> +1.8529750e-12 </wgt>
<wgt id='1182'> +1.8539633e-12 </wgt>
<wgt id='1183'> +1.8481973e-12 </wgt>
<wgt id='1184'> +1.8541872e-12 </wgt>
<wgt id='1185'> +1.8490700e-12 </wgt>
<wgt id='1186'> +1.8568827e-12 </wgt>
<wgt id='1187'> +1.8545107e-12 </wgt>
<wgt id='1188'> +1.8535261e-12 </wgt>
<wgt id='1189'> +1.8499467e-12 </wgt>
<wgt id='1190'> +1.8404485e-12 </wgt>
<wgt id='1191'> +1.8503707e-12 </wgt>
<wgt id='1192'> +1.8556542e-12 </wgt>
<wgt id='1193'> +1.3204690e-12 </wgt>
<wgt id='1194'> +1.3160823e-12 </wgt>
<wgt id='1195'> +1.3240591e-12 </wgt>
<wgt id='1196'> +1.3256106e-12 </wgt>
<wgt id='1197'> +1.3146980e-12 </wgt>
<wgt id='1198'> +1.3202846e-12 </wgt>
<wgt id='1199'> +1.3207157e-12 </wgt>
<wgt id='1200'> +1.3204532e-12 </wgt>
<wgt id='1201'> +1.3205155e-12 </wgt>
<wgt id='1202'> +1.3190716e-12 </wgt>
<wgt id='1203'> +1.3224175e-12 </wgt>
<wgt id='1204'> +1.3122663e-12 </wgt>
<wgt id='1205'> +1.3254397e-12 </wgt>
<wgt id='1206'> +1.3239393e-12 </wgt>
<wgt id='1207'> +1.3157251e-12 </wgt>
<wgt id='1208'> +1.3170745e-12 </wgt>
<wgt id='1209'> +1.3216784e-12 </wgt>
<wgt id='1210'> +1.3188382e-12 </wgt>
<wgt id='1211'> +1.3148542e-12 </wgt>
<wgt id='1212'> +1.3218815e-12 </wgt>
<wgt id='1213'> +1.3191498e-12 </wgt>
<wgt id='1214'> +1.3057478e-12 </wgt>
<wgt id='1215'> +1.3436365e-12 </wgt>
<wgt id='1216'> +1.3224861e-12 </wgt>
<wgt id='1217'> +1.3185106e-12 </wgt>
<wgt id='1218'> +1.3253577e-12 </wgt>
<wgt id='1219'> +1.3178543e-12 </wgt>
<wgt id='1220'> +1.3259582e-12 </wgt>
<wgt id='1221'> +1.3188456e-12 </wgt>
<wgt id='1222'> +1.3297611e-12 </wgt>
<wgt id='1223'> +1.3051603e-12 </wgt>
<wgt id='1224'> +1.3231396e-12 </wgt>
<wgt id='1225'> +1.3194132e-12 </wgt>
<wgt id='1226'> +1.3180053e-12 </wgt>
<wgt id='1227'> +1.3222792e-12 </wgt>
<wgt id='1228'> +1.3086439e-12 </wgt>
<wgt id='1229'> +1.3254869e-12 </wgt>
<wgt id='1230'> +1.3166700e-12 </wgt>
<wgt id='1231'> +1.3205871e-12 </wgt>
<wgt id='1232'> +1.3177943e-12 </wgt>
<wgt id='1233'> +1.3211429e-12 </wgt>
<wgt id='1234'> +1.3204690e-12 </wgt>
<wgt id='1235'> +1.3122281e-12 </wgt>
<wgt id='1236'> +1.3152968e-12 </wgt>
<wgt id='1237'> +1.3180541e-12 </wgt>
<wgt id='1238'> +1.3226538e-12 </wgt>
<wgt id='1239'> +1.3245205e-12 </wgt>
<wgt id='1240'> +1.3263570e-12 </wgt>
<wgt id='1241'> +1.2816609e-12 </wgt>
<wgt id='1242'> +1.2740903e-12 </wgt>
<wgt id='1243'> +1.2892066e-12 </wgt>
<wgt id='1244'> +1.2768919e-12 </wgt>
<wgt id='1245'> +1.2851996e-12 </wgt>
<wgt id='1246'> +1.2806286e-12 </wgt>
<wgt id='1247'> +1.2826181e-12 </wgt>
<wgt id='1248'> +1.2816407e-12 </wgt>
<wgt id='1249'> +1.2817437e-12 </wgt>
<wgt id='1250'> +1.2832520e-12 </wgt>
<wgt id='1251'> +1.2805998e-12 </wgt>
<wgt id='1252'> +1.2793313e-12 </wgt>
<wgt id='1253'> +1.2835346e-12 </wgt>
<wgt id='1254'> +1.2743814e-12 </wgt>
<wgt id='1255'> +1.2860204e-12 </wgt>
<wgt id='1256'> +1.2837885e-12 </wgt>
<wgt id='1257'> +1.2762970e-12 </wgt>
<wgt id='1258'> +1.2982874e-12 </wgt>
<wgt id='1259'> +1.2658644e-12 </wgt>
<wgt id='1260'> +1.2843862e-12 </wgt>
<wgt id='1261'> +1.2787477e-12 </wgt>
<wgt id='1262'> +1.2789030e-12 </wgt>
<wgt id='1263'> +1.2826211e-12 </wgt>
<wgt id='1264'> +1.2881466e-12 </wgt>
<wgt id='1265'> +1.2785363e-12 </wgt>
<wgt id='1266'> +1.2694595e-12 </wgt>
<wgt id='1267'> +1.2924727e-12 </wgt>
<wgt id='1268'> +1.2854700e-12 </wgt>
<wgt id='1269'> +1.2797346e-12 </wgt>
<wgt id='1270'> +1.2758861e-12 </wgt>
<wgt id='1271'> +1.2792038e-12 </wgt>
<wgt id='1272'> +1.2803072e-12 </wgt>
<wgt id='1273'> +1.2818330e-12 </wgt>
<wgt id='1274'> +1.2832172e-12 </wgt>
<wgt id='1275'> +1.2788036e-12 </wgt>
<wgt id='1276'> +1.2893059e-12 </wgt>
<wgt id='1277'> +1.2707672e-12 </wgt>
<wgt id='1278'> +1.2834830e-12 </wgt>
<wgt id='1279'> +1.2822393e-12 </wgt>
<wgt id='1280'> +1.2824994e-12 </wgt>
<wgt id='1281'> +1.2782620e-12 </wgt>
<wgt id='1282'> +1.2816609e-12 </wgt>
<wgt id='1283'> +1.2737496e-12 </wgt>
<wgt id='1284'> +1.2769200e-12 </wgt>
<wgt id='1285'> +1.2795395e-12 </wgt>
<wgt id='1286'> +1.2839304e-12 </wgt>
<wgt id='1287'> +1.2856357e-12 </wgt>
<wgt id='1288'> +1.2870499e-12 </wgt>
<wgt id='1289'> +1.3961950e-12 </wgt>
<wgt id='1290'> +1.3947279e-12 </wgt>
<wgt id='1291'> +1.3978274e-12 </wgt>
<wgt id='1292'> +1.3936254e-12 </wgt>
<wgt id='1293'> +1.3980734e-12 </wgt>
<wgt id='1294'> +1.3878012e-12 </wgt>
<wgt id='1295'> +1.4044204e-12 </wgt>
<wgt id='1296'> +1.3940702e-12 </wgt>
<wgt id='1297'> +1.3988258e-12 </wgt>
<wgt id='1298'> +1.4004695e-12 </wgt>
<wgt id='1299'> +1.3909255e-12 </wgt>
<wgt id='1300'> +1.3985532e-12 </wgt>
<wgt id='1301'> +1.3915409e-12 </wgt>
<wgt id='1302'> +1.3939977e-12 </wgt>
<wgt id='1303'> +1.3993131e-12 </wgt>
<wgt id='1304'> +1.3938444e-12 </wgt>
<wgt id='1305'> +1.3978504e-12 </wgt>
<wgt id='1306'> +1.3917319e-12 </wgt>
<wgt id='1307'> +1.4012561e-12 </wgt>
<wgt id='1308'> +1.3910154e-12 </wgt>
<wgt id='1309'> +1.4001947e-12 </wgt>
<wgt id='1310'> +1.3946284e-12 </wgt>
<wgt id='1311'> +1.3980690e-12 </wgt>
<wgt id='1312'> +1.3963523e-12 </wgt>
<wgt id='1313'> +1.3959985e-12 </wgt>
<wgt id='1314'> +1.3868526e-12 </wgt>
<wgt id='1315'> +1.4016691e-12 </wgt>
<wgt id='1316'> +1.4041109e-12 </wgt>
<wgt id='1317'> +1.3948449e-12 </wgt>
<wgt id='1318'> +1.4069143e-12 </wgt>
<wgt id='1319'> +1.3832577e-12 </wgt>
<wgt id='1320'> +1.4057889e-12 </wgt>
<wgt id='1321'> +1.3882750e-12 </wgt>
<wgt id='1322'> +1.3956406e-12 </wgt>
<wgt id='1323'> +1.3967969e-12 </wgt>
<wgt id='1324'> +1.3905760e-12 </wgt>
<wgt id='1325'> +1.4144044e-12 </wgt>
<wgt id='1326'> +1.3961803e-12 </wgt>
<wgt id='1327'> +1.3982452e-12 </wgt>
<wgt id='1328'> +1.3966462e-12 </wgt>
<wgt id='1329'> +1.3956722e-12 </wgt>
<wgt id='1330'> +1.3973945e-12 </wgt>
<wgt id='1331'> +1.3972347e-12 </wgt>
<wgt id='1332'> +1.4128610e-12 </wgt>
<wgt id='1333'> +1.3895380e-12 </wgt>
<wgt id='1334'> +1.3938842e-12 </wgt>
<wgt id='1335'> +1.4035270e-12 </wgt>
<wgt id='1336'> +1.3931367e-12 </wgt>
<wgt id='1337'> +1.3987208e-12 </wgt>
<wgt id='1338'> +1.3930660e-12 </wgt>
<wgt id='1339'> +1.3969285e-12 </wgt>
<wgt id='1340'> +1.3714544e-12 </wgt>
<wgt id='1341'> +1.3700145e-12 </wgt>
<wgt id='1342'> +1.3730629e-12 </wgt>
<wgt id='1343'> +1.3687873e-12 </wgt>
<wgt id='1344'> +1.3732244e-12 </wgt>
<wgt id='1345'> +1.3628914e-12 </wgt>
<wgt id='1346'> +1.3794914e-12 </wgt>
<wgt id='1347'> +1.3697623e-12 </wgt>
<wgt id='1348'> +1.3733042e-12 </wgt>
<wgt id='1349'> +1.3753662e-12 </wgt>
<wgt id='1350'> +1.3676329e-12 </wgt>
<wgt id='1351'> +1.3736478e-12 </wgt>
<wgt id='1352'> +1.3667376e-12 </wgt>
<wgt id='1353'> +1.3685556e-12 </wgt>
<wgt id='1354'> +1.3766463e-12 </wgt>
<wgt id='1355'> +1.3694481e-12 </wgt>
<wgt id='1356'> +1.3726090e-12 </wgt>
<wgt id='1357'> +1.3657707e-12 </wgt>
<wgt id='1358'> +1.3780715e-12 </wgt>
<wgt id='1359'> +1.3675221e-12 </wgt>
<wgt id='1360'> +1.3748694e-12 </wgt>
<wgt id='1361'> +1.3701952e-12 </wgt>
<wgt id='1362'> +1.3733072e-12 </wgt>
<wgt id='1363'> +1.3738401e-12 </wgt>
<wgt id='1364'> +1.3700611e-12 </wgt>
<wgt id='1365'> +1.3731740e-12 </wgt>
<wgt id='1366'> +1.3628210e-12 </wgt>
<wgt id='1367'> +1.3792110e-12 </wgt>
<wgt id='1368'> +1.3696750e-12 </wgt>
<wgt id='1369'> +1.3807004e-12 </wgt>
<wgt id='1370'> +1.3602823e-12 </wgt>
<wgt id='1371'> +1.3790265e-12 </wgt>
<wgt id='1372'> +1.3626260e-12 </wgt>
<wgt id='1373'> +1.3688623e-12 </wgt>
<wgt id='1374'> +1.3736643e-12 </wgt>
<wgt id='1375'> +1.3659467e-12 </wgt>
<wgt id='1376'> +1.3904662e-12 </wgt>
<wgt id='1377'> +1.3711520e-12 </wgt>
<wgt id='1378'> +1.3739597e-12 </wgt>
<wgt id='1379'> +1.3717610e-12 </wgt>
<wgt id='1380'> +1.3709379e-12 </wgt>
<wgt id='1381'> +1.3730511e-12 </wgt>
<wgt id='1382'> +1.3715068e-12 </wgt>
<wgt id='1383'> +1.3867283e-12 </wgt>
<wgt id='1384'> +1.3665599e-12 </wgt>
<wgt id='1385'> +1.3695198e-12 </wgt>
<wgt id='1386'> +1.3772895e-12 </wgt>
<wgt id='1387'> +1.3669909e-12 </wgt>
<wgt id='1388'> +1.3741733e-12 </wgt>
<wgt id='1389'> +1.3668238e-12 </wgt>
<wgt id='1390'> +1.3725417e-12 </wgt>
<wgt id='1391'> +1.3470931e-12 </wgt>
<wgt id='1392'> +1.3128923e-12 </wgt>
<wgt id='1393'> +1.3243539e-12 </wgt>
<wgt id='1394'> +1.3366393e-12 </wgt>
<wgt id='1395'> +1.3595371e-12 </wgt>
<wgt id='1396'> +1.3483653e-12 </wgt>
<wgt id='1397'> +1.3176417e-12 </wgt>
<wgt id='1398'> +1.3236459e-12 </wgt>
<wgt id='1399'> +1.3291167e-12 </wgt>
<wgt id='1400'> +1.3351248e-12 </wgt>
<wgt id='1401'> +1.3417591e-12 </wgt>
<wgt id='1402'> +1.3548539e-12 </wgt>
<wgt id='1403'> +1.3615156e-12 </wgt>
<wgt id='1404'> +1.3680644e-12 </wgt>
<wgt id='1405'> +1.3483653e-12 </wgt>
<wgt id='1406'> +1.3436217e-12 </wgt>
<wgt id='1407'> +1.3461516e-12 </wgt>
<wgt id='1408'> +1.3503109e-12 </wgt>
<wgt id='1409'> +1.3524679e-12 </wgt>
<wgt id='1410'> +1.2981954e-12 </wgt>
<wgt id='1411'> +1.2975422e-12 </wgt>
<wgt id='1412'> +1.2989719e-12 </wgt>
<wgt id='1413'> +1.2967260e-12 </wgt>
<wgt id='1414'> +1.2996255e-12 </wgt>
<wgt id='1415'> +1.2937188e-12 </wgt>
<wgt id='1416'> +1.2999622e-12 </wgt>
<wgt id='1417'> +1.2902543e-12 </wgt>
<wgt id='1418'> +1.3060903e-12 </wgt>
<wgt id='1419'> +1.2997341e-12 </wgt>
<wgt id='1420'> +1.2967331e-12 </wgt>
<wgt id='1421'> +1.2870623e-12 </wgt>
<wgt id='1422'> +1.3029806e-12 </wgt>
<wgt id='1423'> +1.2978074e-12 </wgt>
<wgt id='1424'> +1.2986263e-12 </wgt>
<wgt id='1425'> +1.2924989e-12 </wgt>
<wgt id='1426'> +1.3043384e-12 </wgt>
<wgt id='1427'> +1.2819702e-12 </wgt>
<wgt id='1428'> +1.3069868e-12 </wgt>
<wgt id='1429'> +1.2990075e-12 </wgt>
<wgt id='1430'> +1.2970660e-12 </wgt>
<wgt id='1431'> +1.2979226e-12 </wgt>
<wgt id='1432'> +1.2982964e-12 </wgt>
<wgt id='1433'> +1.2937921e-12 </wgt>
<wgt id='1434'> +1.3007380e-12 </wgt>
<wgt id='1435'> +1.2959668e-12 </wgt>
<wgt id='1436'> +1.3034806e-12 </wgt>
<wgt id='1437'> +1.3055738e-12 </wgt>
<wgt id='1438'> +1.2967879e-12 </wgt>
<wgt id='1439'> +1.2927405e-12 </wgt>
<wgt id='1440'> +1.3099175e-12 </wgt>
<wgt id='1441'> +1.2999256e-12 </wgt>
<wgt id='1442'> +1.2956921e-12 </wgt>
<wgt id='1443'> +1.2940987e-12 </wgt>
<wgt id='1444'> +1.3077536e-12 </wgt>
<wgt id='1445'> +1.3161463e-12 </wgt>
<wgt id='1446'> +1.2919583e-12 </wgt>
<wgt id='1447'> +1.2972050e-12 </wgt>
<wgt id='1448'> +1.3022569e-12 </wgt>
<wgt id='1449'> +1.2990705e-12 </wgt>
<wgt id='1450'> +1.2972578e-12 </wgt>
<wgt id='1451'> +1.2979946e-12 </wgt>
<wgt id='1452'> +1.2980797e-12 </wgt>
<wgt id='1453'> +1.2990534e-12 </wgt>
<wgt id='1454'> +1.2908905e-12 </wgt>
<wgt id='1455'> +1.2985092e-12 </wgt>
<wgt id='1456'> +1.2998063e-12 </wgt>
<wgt id='1457'> +1.3007072e-12 </wgt>
<wgt id='1458'> +1.2972692e-12 </wgt>
<wgt id='1459'> +1.3023401e-12 </wgt>
<wgt id='1460'> +1.2967189e-12 </wgt>
<wgt id='1461'> +1.2981954e-12 </wgt>
<wgt id='1462'> +1.2887145e-12 </wgt>
<wgt id='1463'> +1.3055704e-12 </wgt>
<wgt id='1464'> +1.2979108e-12 </wgt>
<wgt id='1465'> +1.2690906e-12 </wgt>
<wgt id='1466'> +1.2745990e-12 </wgt>
<wgt id='1467'> +1.2808511e-12 </wgt>
<wgt id='1468'> +1.2866574e-12 </wgt>
<wgt id='1469'> +1.2920025e-12 </wgt>
<wgt id='1470'> +1.3041834e-12 </wgt>
<wgt id='1471'> +1.3091469e-12 </wgt>
<wgt id='1472'> +1.3151036e-12 </wgt>
<wgt id='1473'> +1.2979108e-12 </wgt>
<wgt id='1474'> +1.2933598e-12 </wgt>
<wgt id='1475'> +1.2954223e-12 </wgt>
<wgt id='1476'> +1.2997910e-12 </wgt>
<wgt id='1477'> +1.3014879e-12 </wgt>
<wgt id='1478'> +1.3072444e-12 </wgt>
<wgt id='1479'> +1.3048523e-12 </wgt>
<wgt id='1480'> +1.2962853e-12 </wgt>
<wgt id='1481'> +1.3105521e-12 </wgt>
<wgt id='1482'> +1.3045847e-12 </wgt>
<wgt id='1483'> +1.2953682e-12 </wgt>
<wgt id='1484'> +1.3060740e-12 </wgt>
<wgt id='1485'> +1.3032550e-12 </wgt>
<wgt id='1486'> +1.3072489e-12 </wgt>
<wgt id='1487'> +1.3084130e-12 </wgt>
<wgt id='1488'> +1.3055276e-12 </wgt>
<wgt id='1489'> +1.3166908e-12 </wgt>
<wgt id='1490'> +1.3023814e-12 </wgt>
<wgt id='1491'> +1.3087852e-12 </wgt>
<wgt id='1492'> +1.3113762e-12 </wgt>
<wgt id='1493'> +1.2884593e-12 </wgt>
<wgt id='1494'> +1.3098631e-12 </wgt>
<wgt id='1495'> +1.2912450e-12 </wgt>
<wgt id='1496'> +1.3062065e-12 </wgt>
<wgt id='1497'> +1.3074074e-12 </wgt>
<wgt id='1498'> +1.3079417e-12 </wgt>
<wgt id='1499'> +1.3079544e-12 </wgt>
<wgt id='1500'> +1.3062385e-12 </wgt>
<wgt id='1501'> +1.3080894e-12 </wgt>
<wgt id='1502'> +1.3113283e-12 </wgt>
<wgt id='1503'> +1.3093276e-12 </wgt>
<wgt id='1504'> +1.3059056e-12 </wgt>
<wgt id='1505'> +1.3074363e-12 </wgt>
<wgt id='1506'> +1.3064300e-12 </wgt>
<wgt id='1507'> +1.3065431e-12 </wgt>
<wgt id='1508'> +1.3119461e-12 </wgt>
<wgt id='1509'> +1.3193244e-12 </wgt>
<wgt id='1510'> +1.3185044e-12 </wgt>
<wgt id='1511'> +1.3197548e-12 </wgt>
<wgt id='1512'> +1.3173004e-12 </wgt>
<wgt id='1513'> +1.3187153e-12 </wgt>
<wgt id='1514'> +1.3233437e-12 </wgt>
<wgt id='1515'> +1.3218180e-12 </wgt>
<wgt id='1516'> +1.3241691e-12 </wgt>
<wgt id='1517'> +1.3259927e-12 </wgt>
<wgt id='1518'> +1.3195120e-12 </wgt>
<wgt id='1519'> +1.3138626e-12 </wgt>
<wgt id='1520'> +1.3223397e-12 </wgt>
<wgt id='1521'> +1.3229747e-12 </wgt>
<wgt id='1522'> +1.3185861e-12 </wgt>
<wgt id='1523'> +1.3249487e-12 </wgt>
<wgt id='1524'> +1.3213565e-12 </wgt>
<wgt id='1525'> +1.3248446e-12 </wgt>
<wgt id='1526'> +1.3177053e-12 </wgt>
<wgt id='1527'> +1.3168674e-12 </wgt>
<wgt id='1528'> +1.3205727e-12 </wgt>
<wgt id='1529'> +1.3190577e-12 </wgt>
<wgt id='1530'> +1.3242026e-12 </wgt>
<wgt id='1531'> +1.3212855e-12 </wgt>
<wgt id='1532'> +1.3137578e-12 </wgt>
<wgt id='1533'> +1.3193960e-12 </wgt>
<wgt id='1534'> +1.3219750e-12 </wgt>
<wgt id='1535'> +1.3111784e-12 </wgt>
<wgt id='1536'> +1.3177365e-12 </wgt>
<wgt id='1537'> +1.3168367e-12 </wgt>
<wgt id='1538'> +1.3176672e-12 </wgt>
<wgt id='1539'> +1.3288082e-12 </wgt>
<wgt id='1540'> +1.3219518e-12 </wgt>
<wgt id='1541'> +1.3184915e-12 </wgt>
<wgt id='1542'> +1.3171118e-12 </wgt>
<wgt id='1543'> +1.3205286e-12 </wgt>
<wgt id='1544'> +1.3196468e-12 </wgt>
<wgt id='1545'> +1.3178683e-12 </wgt>
<wgt id='1546'> +1.3157285e-12 </wgt>
<wgt id='1547'> +1.3198071e-12 </wgt>
<wgt id='1548'> +1.3183869e-12 </wgt>
<wgt id='1549'> +1.3187001e-12 </wgt>
<wgt id='1550'> +1.3195276e-12 </wgt>
<wgt id='1551'> +1.3204496e-12 </wgt>
<wgt id='1552'> +1.3207610e-12 </wgt>
<wgt id='1553'> +1.3180088e-12 </wgt>
<wgt id='1554'> +1.3201294e-12 </wgt>
<wgt id='1555'> +1.3200920e-12 </wgt>
<wgt id='1556'> +1.3185128e-12 </wgt>
<wgt id='1557'> +1.3219612e-12 </wgt>
<wgt id='1558'> +1.3160230e-12 </wgt>
<wgt id='1559'> +1.3186834e-12 </wgt>
<wgt id='1560'> +1.3209847e-12 </wgt>
<wgt id='1561'> +1.3184438e-12 </wgt>
<wgt id='1562'> +1.3205374e-12 </wgt>
<wgt id='1563'> +1.3203285e-12 </wgt>
<wgt id='1564'> +1.3215575e-12 </wgt>
<wgt id='1565'> +1.3174964e-12 </wgt>
<wgt id='1566'> +1.3201461e-12 </wgt>
<wgt id='1567'> +1.3206435e-12 </wgt>
<wgt id='1568'> +1.3177869e-12 </wgt>
<wgt id='1569'> +1.3191073e-12 </wgt>
<wgt id='1570'> +1.3194448e-12 </wgt>
<wgt id='1571'> +1.3188421e-12 </wgt>
<wgt id='1572'> +1.3186954e-12 </wgt>
<wgt id='1573'> +1.3192451e-12 </wgt>
<wgt id='1574'> +1.3184880e-12 </wgt>
<wgt id='1575'> +1.3195283e-12 </wgt>
<wgt id='1576'> +1.3189985e-12 </wgt>
<wgt id='1577'> +1.3206414e-12 </wgt>
<wgt id='1578'> +1.3206059e-12 </wgt>
<wgt id='1579'> +1.3187846e-12 </wgt>
<wgt id='1580'> +1.3184033e-12 </wgt>
<wgt id='1581'> +1.3206969e-12 </wgt>
<wgt id='1582'> +1.3211942e-12 </wgt>
<wgt id='1583'> +1.3190958e-12 </wgt>
<wgt id='1584'> +1.3199513e-12 </wgt>
<wgt id='1585'> +1.3194618e-12 </wgt>
<wgt id='1586'> +1.3195863e-12 </wgt>
<wgt id='1587'> +1.3204018e-12 </wgt>
<wgt id='1588'> +1.3197725e-12 </wgt>
<wgt id='1589'> +1.3192100e-12 </wgt>
<wgt id='1590'> +1.3192147e-12 </wgt>
<wgt id='1591'> +1.3190220e-12 </wgt>
<wgt id='1592'> +1.3200258e-12 </wgt>
<wgt id='1593'> +1.3183164e-12 </wgt>
<wgt id='1594'> +1.3188624e-12 </wgt>
<wgt id='1595'> +1.3191696e-12 </wgt>
<wgt id='1596'> +1.3186555e-12 </wgt>
<wgt id='1597'> +1.3193015e-12 </wgt>
<wgt id='1598'> +1.3192612e-12 </wgt>
<wgt id='1599'> +1.3187597e-12 </wgt>
<wgt id='1600'> +1.3203547e-12 </wgt>
<wgt id='1601'> +1.3189447e-12 </wgt>
<wgt id='1602'> +1.3192386e-12 </wgt>
<wgt id='1603'> +1.3185907e-12 </wgt>
<wgt id='1604'> +1.3188738e-12 </wgt>
<wgt id='1605'> +1.3194203e-12 </wgt>
<wgt id='1606'> +1.3192992e-12 </wgt>
<wgt id='1607'> +1.3200725e-12 </wgt>
<wgt id='1608'> +1.3194172e-12 </wgt>
<wgt id='1609'> +1.3192201e-12 </wgt>
<wgt id='1610'> +1.3086423e-12 </wgt>
<wgt id='1611'> +1.3300185e-12 </wgt>
<wgt id='1612'> +1.5357734e-12 </wgt>
<wgt id='1613'> +1.5026589e-12 </wgt>
<wgt id='1614'> +1.5263001e-12 </wgt>
<wgt id='1615'> +1.5437841e-12 </wgt>
<wgt id='1616'> +1.5083641e-12 </wgt>
<wgt id='1617'> +1.5496236e-12 </wgt>
<wgt id='1618'> +1.5593770e-12 </wgt>
<wgt id='1619'> +1.5317053e-12 </wgt>
<wgt id='1620'> +1.4844638e-12 </wgt>
<wgt id='1621'> +1.5671444e-12 </wgt>
<wgt id='1622'> +1.5320388e-12 </wgt>
<wgt id='1623'> +1.5168634e-12 </wgt>
<wgt id='1624'> +1.5199337e-12 </wgt>
<wgt id='1625'> +1.5438852e-12 </wgt>
<wgt id='1626'> +1.5211931e-12 </wgt>
<wgt id='1627'> +1.5204943e-12 </wgt>
<wgt id='1628'> +1.5129515e-12 </wgt>
<wgt id='1629'> +1.5820856e-12 </wgt>
<wgt id='1630'> +1.5248899e-12 </wgt>
<wgt id='1631'> +1.5408624e-12 </wgt>
<wgt id='1632'> +1.5090204e-12 </wgt>
<wgt id='1633'> +1.5009199e-12 </wgt>
<wgt id='1634'> +1.5652472e-12 </wgt>
<wgt id='1635'> +1.5514637e-12 </wgt>
<wgt id='1636'> +1.5786772e-12 </wgt>
<wgt id='1637'> +1.5339148e-12 </wgt>
<wgt id='1638'> +1.5643518e-12 </wgt>
<wgt id='1639'> +1.5076973e-12 </wgt>
<wgt id='1640'> +1.5547022e-12 </wgt>
<wgt id='1641'> +1.5101188e-12 </wgt>
<wgt id='1642'> +1.5457380e-12 </wgt>
<wgt id='1643'> +1.5072368e-12 </wgt>
<wgt id='1644'> +1.5494879e-12 </wgt>
<wgt id='1645'> +1.5613898e-12 </wgt>
<wgt id='1646'> +1.5277978e-12 </wgt>
<wgt id='1647'> +1.5275841e-12 </wgt>
<wgt id='1648'> +1.5854999e-12 </wgt>
<wgt id='1649'> +1.5444172e-12 </wgt>
<wgt id='1650'> +1.5158877e-12 </wgt>
<wgt id='1651'> +1.4916414e-12 </wgt>
<wgt id='1652'> +1.5089528e-12 </wgt>
<wgt id='1653'> +1.5445141e-12 </wgt>
<wgt id='1654'> +1.5379596e-12 </wgt>
<wgt id='1655'> +1.5118485e-12 </wgt>
<wgt id='1656'> +1.5248014e-12 </wgt>
<wgt id='1657'> +1.5030152e-12 </wgt>
<wgt id='1658'> +1.5238496e-12 </wgt>
<wgt id='1659'> +1.5199337e-12 </wgt>
<wgt id='1660'> +1.5839988e-12 </wgt>
<wgt id='1661'> +1.5507301e-12 </wgt>
<wgt id='1662'> +1.5484999e-12 </wgt>
<wgt id='1663'> +1.5319142e-12 </wgt>
<wgt id='1664'> +1.5451565e-12 </wgt>
<wgt id='1665'> +1.5018225e-12 </wgt>
<wgt id='1666'> +1.5206204e-12 </wgt>
<wgt id='1667'> +1.5153860e-12 </wgt>
<wgt id='1668'> +1.5513128e-12 </wgt>
<wgt id='1669'> +1.5658552e-12 </wgt>
<wgt id='1670'> +1.5670086e-12 </wgt>
<wgt id='1671'> +1.5758014e-12 </wgt>
<wgt id='1672'> +1.5857472e-12 </wgt>
<wgt id='1673'> +1.5113780e-12 </wgt>
<wgt id='1674'> +1.4756870e-12 </wgt>
<wgt id='1675'> +1.5697903e-12 </wgt>
<wgt id='1676'> +1.5571835e-12 </wgt>
<wgt id='1677'> +1.6003206e-12 </wgt>
<wgt id='1678'> +1.5279501e-12 </wgt>
<wgt id='1679'> +1.5150371e-12 </wgt>
<wgt id='1680'> +1.5455714e-12 </wgt>
<wgt id='1681'> +1.5503818e-12 </wgt>
<wgt id='1682'> +1.5476028e-12 </wgt>
<wgt id='1683'> +1.4915560e-12 </wgt>
<wgt id='1684'> +1.5375690e-12 </wgt>
<wgt id='1685'> +1.5149085e-12 </wgt>
<wgt id='1686'> +1.5402416e-12 </wgt>
<wgt id='1687'> +1.5592248e-12 </wgt>
<wgt id='1688'> +1.5237132e-12 </wgt>
<wgt id='1689'> +1.5487750e-12 </wgt>
<wgt id='1690'> +1.5603859e-12 </wgt>
<wgt id='1691'> +1.5623979e-12 </wgt>
<wgt id='1692'> +1.5847438e-12 </wgt>
<wgt id='1693'> +1.5615172e-12 </wgt>
<wgt id='1694'> +1.5508656e-12 </wgt>
<wgt id='1695'> +1.5954851e-12 </wgt>
<wgt id='1696'> +1.5583777e-12 </wgt>
<wgt id='1697'> +1.5084080e-12 </wgt>
<wgt id='1698'> +1.5190831e-12 </wgt>
<wgt id='1699'> +1.5279206e-12 </wgt>
<wgt id='1700'> +1.5198206e-12 </wgt>
<wgt id='1701'> +1.5428359e-12 </wgt>
<wgt id='1702'> +1.5202973e-12 </wgt>
<wgt id='1703'> +1.5632444e-12 </wgt>
<wgt id='1704'> +1.5321629e-12 </wgt>
<wgt id='1705'> +1.4785461e-12 </wgt>
<wgt id='1706'> +1.5430816e-12 </wgt>
<wgt id='1707'> +1.5032094e-12 </wgt>
<wgt id='1708'> +1.5228375e-12 </wgt>
<wgt id='1709'> +1.5377820e-12 </wgt>
<wgt id='1710'> +1.5008477e-12 </wgt>
<wgt id='1711'> +1.4982267e-12 </wgt>
<wgt id='1712'> +1.5296383e-12 </wgt>
<wgt id='1713'> +1.2629730e-12 </wgt>
<wgt id='1714'> +1.2291656e-12 </wgt>
<wgt id='1715'> +1.2557534e-12 </wgt>
<wgt id='1716'> +1.2699932e-12 </wgt>
<wgt id='1717'> +1.2553726e-12 </wgt>
<wgt id='1718'> +1.2700980e-12 </wgt>
<wgt id='1719'> +1.2568411e-12 </wgt>
<wgt id='1720'> +1.2654764e-12 </wgt>
<wgt id='1721'> +1.2316899e-12 </wgt>
<wgt id='1722'> +1.2446454e-12 </wgt>
<wgt id='1723'> +1.2594186e-12 </wgt>
<wgt id='1724'> +1.3400306e-12 </wgt>
<wgt id='1725'> +1.2580245e-12 </wgt>
<wgt id='1726'> +1.2628248e-12 </wgt>
<wgt id='1727'> +1.2913830e-12 </wgt>
<wgt id='1728'> +1.2636607e-12 </wgt>
<wgt id='1729'> +1.2269538e-12 </wgt>
<wgt id='1730'> +1.2657593e-12 </wgt>
<wgt id='1731'> +1.2095027e-12 </wgt>
<wgt id='1732'> +1.2777543e-12 </wgt>
<wgt id='1733'> +1.2302315e-12 </wgt>
<wgt id='1734'> +1.2913438e-12 </wgt>
<wgt id='1735'> +1.2622300e-12 </wgt>
<wgt id='1736'> +1.3065554e-12 </wgt>
<wgt id='1737'> +1.2896736e-12 </wgt>
<wgt id='1738'> +1.2758657e-12 </wgt>
<wgt id='1739'> +1.2341222e-12 </wgt>
<wgt id='1740'> +1.2181702e-12 </wgt>
<wgt id='1741'> +1.3073278e-12 </wgt>
<wgt id='1742'> +1.2488265e-12 </wgt>
<wgt id='1743'> +1.2544007e-12 </wgt>
<wgt id='1744'> +1.2793169e-12 </wgt>
<wgt id='1745'> +1.2530846e-12 </wgt>
<wgt id='1746'> +1.2648100e-12 </wgt>
<wgt id='1747'> +1.2716457e-12 </wgt>
<wgt id='1748'> +1.2408188e-12 </wgt>
<wgt id='1749'> +1.2523130e-12 </wgt>
<wgt id='1750'> +1.2518487e-12 </wgt>
<wgt id='1751'> +1.2356184e-12 </wgt>
<wgt id='1752'> +1.2462054e-12 </wgt>
<wgt id='1753'> +1.2754607e-12 </wgt>
<wgt id='1754'> +1.2849560e-12 </wgt>
<wgt id='1755'> +1.2831399e-12 </wgt>
<wgt id='1756'> +1.2793179e-12 </wgt>
<wgt id='1757'> +1.2511887e-12 </wgt>
<wgt id='1758'> +1.2864498e-12 </wgt>
<wgt id='1759'> +1.2641700e-12 </wgt>
<wgt id='1760'> +1.2428764e-12 </wgt>
<wgt id='1761'> +1.2522588e-12 </wgt>
<wgt id='1762'> +1.2316703e-12 </wgt>
<wgt id='1763'> +1.2739313e-12 </wgt>
<wgt id='1764'> +1.2865703e-12 </wgt>
<wgt id='1765'> +1.2458954e-12 </wgt>
<wgt id='1766'> +1.2789888e-12 </wgt>
<wgt id='1767'> +1.2756660e-12 </wgt>
<wgt id='1768'> +1.2700840e-12 </wgt>
<wgt id='1769'> +1.2517407e-12 </wgt>
<wgt id='1770'> +1.2448900e-12 </wgt>
<wgt id='1771'> +1.2853086e-12 </wgt>
<wgt id='1772'> +1.2657569e-12 </wgt>
<wgt id='1773'> +1.2543164e-12 </wgt>
<wgt id='1774'> +1.2384453e-12 </wgt>
<wgt id='1775'> +1.2690990e-12 </wgt>
<wgt id='1776'> +1.3058651e-12 </wgt>
<wgt id='1777'> +1.2225474e-12 </wgt>
<wgt id='1778'> +1.2535976e-12 </wgt>
<wgt id='1779'> +1.2791483e-12 </wgt>
<wgt id='1780'> +1.2782193e-12 </wgt>
<wgt id='1781'> +1.2587067e-12 </wgt>
<wgt id='1782'> +1.2647019e-12 </wgt>
<wgt id='1783'> +1.2598776e-12 </wgt>
<wgt id='1784'> +1.2746783e-12 </wgt>
<wgt id='1785'> +1.2707639e-12 </wgt>
<wgt id='1786'> +1.2604840e-12 </wgt>
<wgt id='1787'> +1.2978702e-12 </wgt>
<wgt id='1788'> +1.2771162e-12 </wgt>
<wgt id='1789'> +1.3011923e-12 </wgt>
<wgt id='1790'> +1.2860827e-12 </wgt>
<wgt id='1791'> +1.2705647e-12 </wgt>
<wgt id='1792'> +1.2495114e-12 </wgt>
<wgt id='1793'> +1.2603237e-12 </wgt>
<wgt id='1794'> +1.2831022e-12 </wgt>
<wgt id='1795'> +1.2690758e-12 </wgt>
<wgt id='1796'> +1.2406832e-12 </wgt>
<wgt id='1797'> +1.2627511e-12 </wgt>
<wgt id='1798'> +1.2704410e-12 </wgt>
<wgt id='1799'> +1.2807811e-12 </wgt>
<wgt id='1800'> +1.2907911e-12 </wgt>
<wgt id='1801'> +1.2616941e-12 </wgt>
<wgt id='1802'> +1.2524593e-12 </wgt>
<wgt id='1803'> +1.2937100e-12 </wgt>
<wgt id='1804'> +1.2415758e-12 </wgt>
<wgt id='1805'> +1.2282450e-12 </wgt>
<wgt id='1806'> +1.2327176e-12 </wgt>
<wgt id='1807'> +1.2942838e-12 </wgt>
<wgt id='1808'> +1.2500115e-12 </wgt>
<wgt id='1809'> +1.2604984e-12 </wgt>
<wgt id='1810'> +1.2469786e-12 </wgt>
<wgt id='1811'> +1.2724982e-12 </wgt>
<wgt id='1812'> +1.2452833e-12 </wgt>
<wgt id='1813'> +1.2120839e-12 </wgt>
<wgt id='1814'> +1.5027533e-12 </wgt>
<wgt id='1815'> +1.7424775e-12 </wgt>
<wgt id='1816'> +1.2629730e-12 </wgt>
<wgt id='1817'> +1.2291656e-12 </wgt>
<wgt id='1818'> +1.2557534e-12 </wgt>
<wgt id='1819'> +1.2699932e-12 </wgt>
<wgt id='1820'> +1.2553726e-12 </wgt>
<wgt id='1821'> +1.2700980e-12 </wgt>
<wgt id='1822'> +1.2568411e-12 </wgt>
<wgt id='1823'> +1.2654764e-12 </wgt>
<wgt id='1824'> +1.2316899e-12 </wgt>
<wgt id='1825'> +1.2446454e-12 </wgt>
<wgt id='1826'> +1.2594186e-12 </wgt>
<wgt id='1827'> +1.3400306e-12 </wgt>
<wgt id='1828'> +1.2580245e-12 </wgt>
<wgt id='1829'> +1.2628248e-12 </wgt>
<wgt id='1830'> +1.2913830e-12 </wgt>
<wgt id='1831'> +1.2636607e-12 </wgt>
<wgt id='1832'> +1.2269538e-12 </wgt>
<wgt id='1833'> +1.2657593e-12 </wgt>
<wgt id='1834'> +1.2095027e-12 </wgt>
<wgt id='1835'> +1.2777543e-12 </wgt>
<wgt id='1836'> +1.2302315e-12 </wgt>
<wgt id='1837'> +1.2913438e-12 </wgt>
<wgt id='1838'> +1.2622300e-12 </wgt>
<wgt id='1839'> +1.3065554e-12 </wgt>
<wgt id='1840'> +1.2896736e-12 </wgt>
<wgt id='1841'> +1.2758657e-12 </wgt>
<wgt id='1842'> +1.2341222e-12 </wgt>
<wgt id='1843'> +1.2181702e-12 </wgt>
<wgt id='1844'> +1.3073278e-12 </wgt>
<wgt id='1845'> +1.2488265e-12 </wgt>
<wgt id='1846'> +1.2544007e-12 </wgt>
<wgt id='1847'> +1.2793169e-12 </wgt>
<wgt id='1848'> +1.2530846e-12 </wgt>
<wgt id='1849'> +1.2648100e-12 </wgt>
<wgt id='1850'> +1.2716457e-12 </wgt>
<wgt id='1851'> +1.2408188e-12 </wgt>
<wgt id='1852'> +1.2523130e-12 </wgt>
<wgt id='1853'> +1.2518487e-12 </wgt>
<wgt id='1854'> +1.2356184e-12 </wgt>
<wgt id='1855'> +1.2462054e-12 </wgt>
<wgt id='1856'> +1.2754607e-12 </wgt>
<wgt id='1857'> +1.2849560e-12 </wgt>
<wgt id='1858'> +1.2831399e-12 </wgt>
<wgt id='1859'> +1.2793179e-12 </wgt>
<wgt id='1860'> +1.2511887e-12 </wgt>
<wgt id='1861'> +1.2864498e-12 </wgt>
<wgt id='1862'> +1.2641700e-12 </wgt>
<wgt id='1863'> +1.2428764e-12 </wgt>
<wgt id='1864'> +1.2522588e-12 </wgt>
<wgt id='1865'> +1.2316703e-12 </wgt>
<wgt id='1866'> +1.2739313e-12 </wgt>
<wgt id='1867'> +1.2865703e-12 </wgt>
<wgt id='1868'> +1.2458954e-12 </wgt>
<wgt id='1869'> +1.2789888e-12 </wgt>
<wgt id='1870'> +1.2756660e-12 </wgt>
<wgt id='1871'> +1.2700840e-12 </wgt>
<wgt id='1872'> +1.2517407e-12 </wgt>
<wgt id='1873'> +1.2448900e-12 </wgt>
<wgt id='1874'> +1.2853086e-12 </wgt>
<wgt id='1875'> +1.2657569e-12 </wgt>
<wgt id='1876'> +1.2543164e-12 </wgt>
<wgt id='1877'> +1.2384453e-12 </wgt>
<wgt id='1878'> +1.2690990e-12 </wgt>
<wgt id='1879'> +1.3058651e-12 </wgt>
<wgt id='1880'> +1.2225474e-12 </wgt>
<wgt id='1881'> +1.2535976e-12 </wgt>
<wgt id='1882'> +1.2791483e-12 </wgt>
<wgt id='1883'> +1.2782193e-12 </wgt>
<wgt id='1884'> +1.2587067e-12 </wgt>
<wgt id='1885'> +1.2647019e-12 </wgt>
<wgt id='1886'> +1.2598776e-12 </wgt>
<wgt id='1887'> +1.2746783e-12 </wgt>
<wgt id='1888'> +1.2707639e-12 </wgt>
<wgt id='1889'> +1.2604840e-12 </wgt>
<wgt id='1890'> +1.2978702e-12 </wgt>
<wgt id='1891'> +1.2771162e-12 </wgt>
<wgt id='1892'> +1.3011923e-12 </wgt>
<wgt id='1893'> +1.2860827e-12 </wgt>
<wgt id='1894'> +1.2705647e-12 </wgt>
<wgt id='1895'> +1.2495114e-12 </wgt>
<wgt id='1896'> +1.2603237e-12 </wgt>
<wgt id='1897'> +1.2831022e-12 </wgt>
<wgt id='1898'> +1.2690758e-12 </wgt>
<wgt id='1899'> +1.2406832e-12 </wgt>
<wgt id='1900'> +1.2627511e-12 </wgt>
<wgt id='1901'> +1.2704410e-12 </wgt>
<wgt id='1902'> +1.2807811e-12 </wgt>
<wgt id='1903'> +1.2907911e-12 </wgt>
<wgt id='1904'> +1.2616941e-12 </wgt>
<wgt id='1905'> +1.2524593e-12 </wgt>
<wgt id='1906'> +1.2937100e-12 </wgt>
<wgt id='1907'> +1.2415758e-12 </wgt>
<wgt id='1908'> +1.2282450e-12 </wgt>
<wgt id='1909'> +1.2327176e-12 </wgt>
<wgt id='1910'> +1.2942838e-12 </wgt>
<wgt id='1911'> +1.2500115e-12 </wgt>
<wgt id='1912'> +1.2604984e-12 </wgt>
<wgt id='1913'> +1.2469786e-12 </wgt>
<wgt id='1914'> +1.2724982e-12 </wgt>
<wgt id='1915'> +1.2452833e-12 </wgt>
<wgt id='1916'> +1.2120839e-12 </wgt>
<wgt id='1917'> +1.2510989e-12 </wgt>
<wgt id='1918'> +1.2690669e-12 </wgt>
<wgt id='1919'> +1.2665851e-12 </wgt>
</rwgt>
</event>
<event>
 9      1 +1.5607000e-12 2.59931200e+01 7.81860800e-03 1.49406400e-01
       21 -1    0    0  501  502 +0.0000000000e+00 +0.0000000000e+00 +1.7076924982e+02 1.7076924982e+02 0.0000000000e+00 0.0000e+00 1.0000e+00
       -2 -1    0    0    0  501 -0.0000000000e+00 -0.0000000000e+00 -3.4656872093e+00 3.4656872093e+00 0.0000000000e+00 0.0000e+00 1.0000e+00
     1023  2    1    2    0    0 -7.0146522818e+00 +2.0038054706e+01 +7.0721922862e+01 7.5347414462e+01 1.4997116714e+01 0.0000e+00 0.0000e+00
  1000023  2    3    3    0    0 -3.8012267767e+00 +1.8637425921e+01 +5.1319499347e+01 5.5006767896e+01 5.5000482827e+00 0.0000e+00 0.0000e+00
       -2  1    1    2    0  502 +7.0146522818e+00 -2.0038054706e+01 +9.6581639745e+01 9.8887522564e+01 0.0000000000e+00 0.0000e+00 1.0000e+00
  1000022  1    4    4    0    0 -3.5200658179e+00 +1.5831015126e+01 +4.4453675971e+01 4.7582992872e+01 5.0000000000e+00 0.0000e+00 1.0000e+00
      -11  1    4    4    0    0 -5.7463750950e-02 +4.8435527747e-01 +1.0610765847e+00 1.1678124409e+00 5.1100000000e-04 0.0000e+00 -1.0000e+00
       11  1    4    4    0    0 -2.2369720782e-01 +2.3220555175e+00 +5.8047467913e+00 6.2559625830e+00 5.1100000000e-04 0.0000e+00 1.0000e+00
  1000022  1    3    3    0    0 -3.2134255051e+00 +1.4006287846e+00 +1.9402423515e+01 2.0340646566e+01 5.0000000000e+00 0.0000e+00 -1.0000e+00
<mgrwt>
<rscale>  1 0.25993124E+02</rscale>
<asrwt>0</asrwt>
<pdfrwt beam="1">  1       21 0.26272186E-01 0.25993124E+02</pdfrwt>
<pdfrwt beam="2">  1       -2 0.53318278E-03 0.25993124E+02</pdfrwt>
<totfact> 0.49338425E+06</totfact>
</mgrwt>
<rwgt>
<wgt id='1001'> +1.5607000e-12 </wgt>
<wgt id='1002'> +1.5858765e-12 </wgt>
<wgt id='1003'> +1.5876199e-12 </wgt>
<wgt id='1004'> +1.5533866e-12 </wgt>
<wgt id='1005'> +1.5883221e-12 </wgt>
<wgt id='1006'> +1.3600931e-12 </wgt>
<wgt id='1007'> +1.4012622e-12 </wgt>
<wgt id='1008'> +1.4050603e-12 </wgt>
<wgt id='1009'> +1.3497536e-12 </wgt>
<wgt id='1010'> +1.4067084e-12 </wgt>
<wgt id='1011'> +1.8342857e-12 </wgt>
<wgt id='1012'> +1.8290609e-12 </wgt>
<wgt id='1013'> +1.8271391e-12 </wgt>
<wgt id='1014'> +1.8331831e-12 </wgt>
<wgt id='1015'> +1.8261873e-12 </wgt>
<wgt id='1016'> +1.8240491e-12 </wgt>
<wgt id='1017'> +1.8006069e-12 </wgt>
<wgt id='1018'> +1.7968028e-12 </wgt>
<wgt id='1019'> +1.8271391e-12 </wgt>
<wgt id='1020'> +1.7949983e-12 </wgt>
<wgt id='1021'> +1.5895922e-12 </wgt>
<wgt id='1022'> +1.5909955e-12 </wgt>
<wgt id='1023'> +1.5901893e-12 </wgt>
<wgt id='1024'> +1.5876199e-12 </wgt>
<wgt id='1025'> +1.5897526e-12 </wgt>
<wgt id='1026'> +2.1437990e-12 </wgt>
<wgt id='1027'> +2.0767190e-12 </wgt>
<wgt id='1028'> +2.0678808e-12 </wgt>
<wgt id='1029'> +2.1562439e-12 </wgt>
<wgt id='1030'> +2.0638151e-12 </wgt>
<wgt id='1031'> +1.2635223e-12 </wgt>
<wgt id='1032'> +1.3418799e-12 </wgt>
<wgt id='1033'> +1.3497536e-12 </wgt>
<wgt id='1034'> +1.2448019e-12 </wgt>
<wgt id='1035'> +1.3532081e-12 </wgt>
<wgt id='1036'> +1.1011136e-12 </wgt>
<wgt id='1037'> +1.1856696e-12 </wgt>
<wgt id='1038'> +1.1945461e-12 </wgt>
<wgt id='1039'> +1.0816211e-12 </wgt>
<wgt id='1040'> +1.1984780e-12 </wgt>
<wgt id='1041'> +1.4850137e-12 </wgt>
<wgt id='1042'> +1.5476489e-12 </wgt>
<wgt id='1043'> +1.5533866e-12 </wgt>
<wgt id='1044'> +1.4690159e-12 </wgt>
<wgt id='1045'> +1.5558628e-12 </wgt>
<wgt id='1046'> +1.5607000e-12 </wgt>
<wgt id='1047'> +1.5637424e-12 </wgt>
<wgt id='1048'> +1.5594045e-12 </wgt>
<wgt id='1049'> +1.5773978e-12 </wgt>
<wgt id='1050'> +1.5571460e-12 </wgt>
<wgt id='1051'> +1.5260482e-12 </wgt>
<wgt id='1052'> +1.5666533e-12 </wgt>
<wgt id='1053'> +1.5477509e-12 </wgt>
<wgt id='1054'> +1.5540960e-12 </wgt>
<wgt id='1055'> +1.5655967e-12 </wgt>
<wgt id='1056'> +1.5903005e-12 </wgt>
<wgt id='1057'> +1.5892562e-12 </wgt>
<wgt id='1058'> +1.5195736e-12 </wgt>
<wgt id='1059'> +1.5565558e-12 </wgt>
<wgt id='1060'> +1.5582423e-12 </wgt>
<wgt id='1061'> +1.5941020e-12 </wgt>
<wgt id='1062'> +1.5759934e-12 </wgt>
<wgt id='1063'> +1.5893170e-12 </wgt>
<wgt id='1064'> +1.5340363e-12 </wgt>
<wgt id='1065'> +1.5614158e-12 </wgt>
<wgt id='1066'> +1.5555174e-12 </wgt>
<wgt id='1067'> +1.5206200e-12 </wgt>
<wgt id='1068'> +1.5559510e-12 </wgt>
<wgt id='1069'> +1.5490624e-12 </wgt>
<wgt id='1070'> +1.5110847e-12 </wgt>
<wgt id='1071'> +1.5253866e-12 </wgt>
<wgt id='1072'> +1.5833148e-12 </wgt>
<wgt id='1073'> +1.6347623e-12 </wgt>
<wgt id='1074'> +1.5141798e-12 </wgt>
<wgt id='1075'> +1.5874011e-12 </wgt>
<wgt id='1076'> +1.6256353e-12 </wgt>
<wgt id='1077'> +1.5866102e-12 </wgt>
<wgt id='1078'> +1.5550765e-12 </wgt>
<wgt id='1079'> +1.5425301e-12 </wgt>
<wgt id='1080'> +1.5367499e-12 </wgt>
<wgt id='1081'> +1.5742938e-12 </wgt>
<wgt id='1082'> +1.5243742e-12 </wgt>
<wgt id='1083'> +1.5262025e-12 </wgt>
<wgt id='1084'> +1.5542217e-12 </wgt>
<wgt id='1085'> +1.5571200e-12 </wgt>
<wgt id='1086'> +1.5784799e-12 </wgt>
<wgt id='1087'> +1.5739534e-12 </wgt>
<wgt id='1088'> +1.5498443e-12 </wgt>
<wgt id='1089'> +1.5672473e-12 </wgt>
<wgt id='1090'> +1.5486473e-12 </wgt>
<wgt id='1091'> +1.5236933e-12 </wgt>
<wgt id='1092'> +1.5748475e-12 </wgt>
<wgt id='1093'> +1.5359067e-12 </wgt>
<wgt id='1094'> +1.5673197e-12 </wgt>
<wgt id='1095'> +1.6090906e-12 </wgt>
<wgt id='1096'> +1.5747883e-12 </wgt>
<wgt id='1097'> +1.5596792e-12 </wgt>
<wgt id='1098'> +1.5238122e-12 </wgt>
<wgt id='1099'> +1.5988472e-12 </wgt>
<wgt id='1100'> +1.5697542e-12 </wgt>
<wgt id='1101'> +1.5533069e-12 </wgt>
<wgt id='1102'> +1.5361353e-12 </wgt>
<wgt id='1103'> +1.5503599e-12 </wgt>
<wgt id='1104'> +1.5162784e-12 </wgt>
<wgt id='1105'> +1.6184140e-12 </wgt>
<wgt id='1106'> +1.5586307e-12 </wgt>
<wgt id='1107'> +1.5706224e-12 </wgt>
<wgt id='1108'> +1.5407819e-12 </wgt>
<wgt id='1109'> +1.5607779e-12 </wgt>
<wgt id='1110'> +1.5679034e-12 </wgt>
<wgt id='1111'> +1.5405145e-12 </wgt>
<wgt id='1112'> +1.5520341e-12 </wgt>
<wgt id='1113'> +1.5254874e-12 </wgt>
<wgt id='1114'> +1.5937028e-12 </wgt>
<wgt id='1115'> +1.5554220e-12 </wgt>
<wgt id='1116'> +1.5447079e-12 </wgt>
<wgt id='1117'> +1.5876848e-12 </wgt>
<wgt id='1118'> +1.6073772e-12 </wgt>
<wgt id='1119'> +1.5377832e-12 </wgt>
<wgt id='1120'> +1.6057494e-12 </wgt>
<wgt id='1121'> +1.5647567e-12 </wgt>
<wgt id='1122'> +1.6148920e-12 </wgt>
<wgt id='1123'> +1.5454253e-12 </wgt>
<wgt id='1124'> +1.5816559e-12 </wgt>
<wgt id='1125'> +1.5517982e-12 </wgt>
<wgt id='1126'> +1.5457101e-12 </wgt>
<wgt id='1127'> +1.5322065e-12 </wgt>
<wgt id='1128'> +1.5759934e-12 </wgt>
<wgt id='1129'> +1.5667070e-12 </wgt>
<wgt id='1130'> +1.5570125e-12 </wgt>
<wgt id='1131'> +1.5965884e-12 </wgt>
<wgt id='1132'> +1.5356296e-12 </wgt>
<wgt id='1133'> +1.5657484e-12 </wgt>
<wgt id='1134'> +1.5975856e-12 </wgt>
<wgt id='1135'> +1.5775800e-12 </wgt>
<wgt id='1136'> +1.5121720e-12 </wgt>
<wgt id='1137'> +1.5345618e-12 </wgt>
<wgt id='1138'> +1.5755773e-12 </wgt>
<wgt id='1139'> +1.5722383e-12 </wgt>
<wgt id='1140'> +1.5684486e-12 </wgt>
<wgt id='1141'> +1.5177851e-12 </wgt>
<wgt id='1142'> +1.5602249e-12 </wgt>
<wgt id='1143'> +1.5389530e-12 </wgt>
<wgt id='1144'> +1.5748096e-12 </wgt>
<wgt id='1145'> +1.5766216e-12 </wgt>
<wgt id='1146'> +1.5420504e-12 </wgt>
<wgt id='1147'> +1.1925902e-12 </wgt>
<wgt id='1148'> +1.2216263e-12 </wgt>
<wgt id='1149'> +1.3156497e-12 </wgt>
<wgt id='1150'> +1.2332740e-12 </wgt>
<wgt id='1151'> +1.0948663e-12 </wgt>
<wgt id='1152'> +1.4828226e-12 </wgt>
<wgt id='1153'> +1.4756676e-12 </wgt>
<wgt id='1154'> +1.4870098e-12 </wgt>
<wgt id='1155'> +1.4827247e-12 </wgt>
<wgt id='1156'> +1.4829140e-12 </wgt>
<wgt id='1157'> +1.4849550e-12 </wgt>
<wgt id='1158'> +1.4799964e-12 </wgt>
<wgt id='1159'> +1.4845976e-12 </wgt>
<wgt id='1160'> +1.4817495e-12 </wgt>
<wgt id='1161'> +1.4783692e-12 </wgt>
<wgt id='1162'> +1.4858793e-12 </wgt>
<wgt id='1163'> +1.4869009e-12 </wgt>
<wgt id='1164'> +1.4787786e-12 </wgt>
<wgt id='1165'> +1.4725517e-12 </wgt>
<wgt id='1166'> +1.4930189e-12 </wgt>
<wgt id='1167'> +1.4932391e-12 </wgt>
<wgt id='1168'> +1.4692067e-12 </wgt>
<wgt id='1169'> +1.4855450e-12 </wgt>
<wgt id='1170'> +1.4807770e-12 </wgt>
<wgt id='1171'> +1.4818326e-12 </wgt>
<wgt id='1172'> +1.4839791e-12 </wgt>
<wgt id='1173'> +1.4778804e-12 </wgt>
<wgt id='1174'> +1.4871687e-12 </wgt>
<wgt id='1175'> +1.4818232e-12 </wgt>
<wgt id='1176'> +1.4830404e-12 </wgt>
<wgt id='1177'> +1.4828853e-12 </wgt>
<wgt id='1178'> +1.4832482e-12 </wgt>
<wgt id='1179'> +1.4961113e-12 </wgt>
<wgt id='1180'> +1.4659016e-12 </wgt>
<wgt id='1181'> +1.4771960e-12 </wgt>
<wgt id='1182'> +1.4883727e-12 </wgt>
<wgt id='1183'> +1.4818663e-12 </wgt>
<wgt id='1184'> +1.4829445e-12 </wgt>
<wgt id='1185'> +1.4774236e-12 </wgt>
<wgt id='1186'> +1.4855812e-12 </wgt>
<wgt id='1187'> +1.4816513e-12 </wgt>
<wgt id='1188'> +1.4832636e-12 </wgt>
<wgt id='1189'> +1.4813092e-12 </wgt>
<wgt id='1190'> +1.4608652e-12 </wgt>
<wgt id='1191'> +1.4761917e-12 </wgt>
<wgt id='1192'> +1.4924675e-12 </wgt>
<wgt id='1193'> +1.2520933e-12 </wgt>
<wgt id='1194'> +1.2429100e-12 </wgt>
<wgt id='1195'> +1.2595354e-12 </wgt>
<wgt id='1196'> +1.2561668e-12 </wgt>
<wgt id='1197'> +1.2475086e-12 </wgt>
<wgt id='1198'> +1.2528262e-12 </wgt>
<wgt id='1199'> +1.2509518e-12 </wgt>
<wgt id='1200'> +1.2538237e-12 </wgt>
<wgt id='1201'> +1.2509091e-12 </wgt>
<wgt id='1202'> +1.2497346e-12 </wgt>
<wgt id='1203'> +1.2554325e-12 </wgt>
<wgt id='1204'> +1.2378961e-12 </wgt>
<wgt id='1205'> +1.2607637e-12 </wgt>
<wgt id='1206'> +1.2566889e-12 </wgt>
<wgt id='1207'> +1.2457391e-12 </wgt>
<wgt id='1208'> +1.2458059e-12 </wgt>
<wgt id='1209'> +1.2543659e-12 </wgt>
<wgt id='1210'> +1.2496666e-12 </wgt>
<wgt id='1211'> +1.2471794e-12 </wgt>
<wgt id='1212'> +1.2523045e-12 </wgt>
<wgt id='1213'> +1.2518954e-12 </wgt>
<wgt id='1214'> +1.2404477e-12 </wgt>
<wgt id='1215'> +1.2680415e-12 </wgt>
<wgt id='1216'> +1.2567558e-12 </wgt>
<wgt id='1217'> +1.2483561e-12 </wgt>
<wgt id='1218'> +1.2553615e-12 </wgt>
<wgt id='1219'> +1.2501380e-12 </wgt>
<wgt id='1220'> +1.2570614e-12 </wgt>
<wgt id='1221'> +1.2524259e-12 </wgt>
<wgt id='1222'> +1.2526259e-12 </wgt>
<wgt id='1223'> +1.2535902e-12 </wgt>
<wgt id='1224'> +1.2536466e-12 </wgt>
<wgt id='1225'> +1.2514361e-12 </wgt>
<wgt id='1226'> +1.2500638e-12 </wgt>
<wgt id='1227'> +1.2535021e-12 </wgt>
<wgt id='1228'> +1.2486325e-12 </wgt>
<wgt id='1229'> +1.2534085e-12 </wgt>
<wgt id='1230'> +1.2614722e-12 </wgt>
<wgt id='1231'> +1.2420889e-12 </wgt>
<wgt id='1232'> +1.2510337e-12 </wgt>
<wgt id='1233'> +1.2523609e-12 </wgt>
<wgt id='1234'> +1.2520933e-12 </wgt>
<wgt id='1235'> +1.2443873e-12 </wgt>
<wgt id='1236'> +1.2473787e-12 </wgt>
<wgt id='1237'> +1.2500202e-12 </wgt>
<wgt id='1238'> +1.2546055e-12 </wgt>
<wgt id='1239'> +1.2564676e-12 </wgt>
<wgt id='1240'> +1.2581725e-12 </wgt>
<wgt id='1241'> +1.2892013e-12 </wgt>
<wgt id='1242'> +1.2782737e-12 </wgt>
<wgt id='1243'> +1.3000468e-12 </wgt>
<wgt id='1244'> +1.2842477e-12 </wgt>
<wgt id='1245'> +1.2928582e-12 </wgt>
<wgt id='1246'> +1.2898137e-12 </wgt>
<wgt id='1247'> +1.2887125e-12 </wgt>
<wgt id='1248'> +1.2891468e-12 </wgt>
<wgt id='1249'> +1.2892672e-12 </wgt>
<wgt id='1250'> +1.2892761e-12 </wgt>
<wgt id='1251'> +1.2891827e-12 </wgt>
<wgt id='1252'> +1.2863880e-12 </wgt>
<wgt id='1253'> +1.2913930e-12 </wgt>
<wgt id='1254'> +1.2762711e-12 </wgt>
<wgt id='1255'> +1.2969196e-12 </wgt>
<wgt id='1256'> +1.2931917e-12 </wgt>
<wgt id='1257'> +1.2791892e-12 </wgt>
<wgt id='1258'> +1.3029136e-12 </wgt>
<wgt id='1259'> +1.2756310e-12 </wgt>
<wgt id='1260'> +1.2924683e-12 </wgt>
<wgt id='1261'> +1.2857499e-12 </wgt>
<wgt id='1262'> +1.2904973e-12 </wgt>
<wgt id='1263'> +1.2885572e-12 </wgt>
<wgt id='1264'> +1.2939606e-12 </wgt>
<wgt id='1265'> +1.2870675e-12 </wgt>
<wgt id='1266'> +1.2876946e-12 </wgt>
<wgt id='1267'> +1.2919329e-12 </wgt>
<wgt id='1268'> +1.2893334e-12 </wgt>
<wgt id='1269'> +1.2936078e-12 </wgt>
<wgt id='1270'> +1.2891840e-12 </wgt>
<wgt id='1271'> +1.2872247e-12 </wgt>
<wgt id='1272'> +1.2913046e-12 </wgt>
<wgt id='1273'> +1.2886681e-12 </wgt>
<wgt id='1274'> +1.2909112e-12 </wgt>
<wgt id='1275'> +1.2858838e-12 </wgt>
<wgt id='1276'> +1.2906799e-12 </wgt>
<wgt id='1277'> +1.2868081e-12 </wgt>
<wgt id='1278'> +1.2902909e-12 </wgt>
<wgt id='1279'> +1.2911522e-12 </wgt>
<wgt id='1280'> +1.2897668e-12 </wgt>
<wgt id='1281'> +1.2886356e-12 </wgt>
<wgt id='1282'> +1.2892013e-12 </wgt>
<wgt id='1283'> +1.2799939e-12 </wgt>
<wgt id='1284'> +1.2836724e-12 </wgt>
<wgt id='1285'> +1.2867900e-12 </wgt>
<wgt id='1286'> +1.2918446e-12 </wgt>
<wgt id='1287'> +1.2938894e-12 </wgt>
<wgt id='1288'> +1.2955380e-12 </wgt>
<wgt id='1289'> +1.2792093e-12 </wgt>
<wgt id='1290'> +1.2873541e-12 </wgt>
<wgt id='1291'> +1.2703988e-12 </wgt>
<wgt id='1292'> +1.2756156e-12 </wgt>
<wgt id='1293'> +1.2817663e-12 </wgt>
<wgt id='1294'> +1.2762674e-12 </wgt>
<wgt id='1295'> +1.2819238e-12 </wgt>
<wgt id='1296'> +1.2747831e-12 </wgt>
<wgt id='1297'> +1.2845484e-12 </wgt>
<wgt id='1298'> +1.2860079e-12 </wgt>
<wgt id='1299'> +1.2706941e-12 </wgt>
<wgt id='1300'> +1.2828579e-12 </wgt>
<wgt id='1301'> +1.2717259e-12 </wgt>
<wgt id='1302'> +1.2780870e-12 </wgt>
<wgt id='1303'> +1.2807183e-12 </wgt>
<wgt id='1304'> +1.2768578e-12 </wgt>
<wgt id='1305'> +1.2807492e-12 </wgt>
<wgt id='1306'> +1.2749482e-12 </wgt>
<wgt id='1307'> +1.2840046e-12 </wgt>
<wgt id='1308'> +1.2909736e-12 </wgt>
<wgt id='1309'> +1.2702006e-12 </wgt>
<wgt id='1310'> +1.2774300e-12 </wgt>
<wgt id='1311'> +1.2812439e-12 </wgt>
<wgt id='1312'> +1.2760887e-12 </wgt>
<wgt id='1313'> +1.2826304e-12 </wgt>
<wgt id='1314'> +1.2790530e-12 </wgt>
<wgt id='1315'> +1.2719318e-12 </wgt>
<wgt id='1316'> +1.2866899e-12 </wgt>
<wgt id='1317'> +1.2798931e-12 </wgt>
<wgt id='1318'> +1.2859299e-12 </wgt>
<wgt id='1319'> +1.2701386e-12 </wgt>
<wgt id='1320'> +1.2823045e-12 </wgt>
<wgt id='1321'> +1.2745325e-12 </wgt>
<wgt id='1322'> +1.2787853e-12 </wgt>
<wgt id='1323'> +1.2794783e-12 </wgt>
<wgt id='1324'> +1.2773423e-12 </wgt>
<wgt id='1325'> +1.2884391e-12 </wgt>
<wgt id='1326'> +1.2791335e-12 </wgt>
<wgt id='1327'> +1.2817266e-12 </wgt>
<wgt id='1328'> +1.2794948e-12 </wgt>
<wgt id='1329'> +1.2786951e-12 </wgt>
<wgt id='1330'> +1.2536984e-12 </wgt>
<wgt id='1331'> +1.2931670e-12 </wgt>
<wgt id='1332'> +1.3024074e-12 </wgt>
<wgt id='1333'> +1.2667717e-12 </wgt>
<wgt id='1334'> +1.2747611e-12 </wgt>
<wgt id='1335'> +1.2897787e-12 </wgt>
<wgt id='1336'> +1.2854264e-12 </wgt>
<wgt id='1337'> +1.2700432e-12 </wgt>
<wgt id='1338'> +1.2808417e-12 </wgt>
<wgt id='1339'> +1.2782683e-12 </wgt>
<wgt id='1340'> +1.2508658e-12 </wgt>
<wgt id='1341'> +1.2590602e-12 </wgt>
<wgt id='1342'> +1.2420688e-12 </wgt>
<wgt id='1343'> +1.2472541e-12 </wgt>
<wgt id='1344'> +1.2533243e-12 </wgt>
<wgt id='1345'> +1.2475366e-12 </wgt>
<wgt id='1346'> +1.2538005e-12 </wgt>
<wgt id='1347'> +1.2467123e-12 </wgt>
<wgt id='1348'> +1.2555367e-12 </wgt>
<wgt id='1349'> +1.2569620e-12 </wgt>
<wgt id='1350'> +1.2449108e-12 </wgt>
<wgt id='1351'> +1.2545804e-12 </wgt>
<wgt id='1352'> +1.2427372e-12 </wgt>
<wgt id='1353'> +1.2492338e-12 </wgt>
<wgt id='1354'> +1.2537014e-12 </wgt>
<wgt id='1355'> +1.2487490e-12 </wgt>
<wgt id='1356'> +1.2520433e-12 </wgt>
<wgt id='1357'> +1.2500166e-12 </wgt>
<wgt id='1358'> +1.2520502e-12 </wgt>
<wgt id='1359'> +1.2637677e-12 </wgt>
<wgt id='1360'> +1.2397268e-12 </wgt>
<wgt id='1361'> +1.2491906e-12 </wgt>
<wgt id='1362'> +1.2532796e-12 </wgt>
<wgt id='1363'> +1.2472615e-12 </wgt>
<wgt id='1364'> +1.2538881e-12 </wgt>
<wgt id='1365'> +1.2444792e-12 </wgt>
<wgt id='1366'> +1.2485878e-12 </wgt>
<wgt id='1367'> +1.2576016e-12 </wgt>
<wgt id='1368'> +1.2510740e-12 </wgt>
<wgt id='1369'> +1.2569742e-12 </wgt>
<wgt id='1370'> +1.2430729e-12 </wgt>
<wgt id='1371'> +1.2536598e-12 </wgt>
<wgt id='1372'> +1.2460024e-12 </wgt>
<wgt id='1373'> +1.2497094e-12 </wgt>
<wgt id='1374'> +1.2514129e-12 </wgt>
<wgt id='1375'> +1.2491171e-12 </wgt>
<wgt id='1376'> +1.2599224e-12 </wgt>
<wgt id='1377'> +1.2510272e-12 </wgt>
<wgt id='1378'> +1.2535950e-12 </wgt>
<wgt id='1379'> +1.2508360e-12 </wgt>
<wgt id='1380'> +1.2506452e-12 </wgt>
<wgt id='1381'> +1.2238020e-12 </wgt>
<wgt id='1382'> +1.2641966e-12 </wgt>
<wgt id='1383'> +1.2743994e-12 </wgt>
<wgt id='1384'> +1.2354310e-12 </wgt>
<wgt id='1385'> +1.2460959e-12 </wgt>
<wgt id='1386'> +1.2615157e-12 </wgt>
<wgt id='1387'> +1.2583506e-12 </wgt>
<wgt id='1388'> +1.2386418e-12 </wgt>
<wgt id='1389'> +1.2536926e-12 </wgt>
<wgt id='1390'> +1.2492348e-12 </wgt>
<wgt id='1391'> +1.2375841e-12 </wgt>
<wgt id='1392'> +1.1996239e-12 </wgt>
<wgt id='1393'> +1.2111673e-12 </wgt>
<wgt id='1394'> +1.2241228e-12 </wgt>
<wgt id='1395'> +1.2469585e-12 </wgt>
<wgt id='1396'> +1.2363178e-12 </wgt>
<wgt id='1397'> +1.2054231e-12 </wgt>
<wgt id='1398'> +1.2116764e-12 </wgt>
<wgt id='1399'> +1.2176923e-12 </wgt>
<wgt id='1400'> +1.2235789e-12 </wgt>
<wgt id='1401'> +1.2299087e-12 </wgt>
<wgt id='1402'> +1.2415152e-12 </wgt>
<wgt id='1403'> +1.2473978e-12 </wgt>
<wgt id='1404'> +1.2525024e-12 </wgt>
<wgt id='1405'> +1.2363178e-12 </wgt>
<wgt id='1406'> +1.2323517e-12 </wgt>
<wgt id='1407'> +1.2345866e-12 </wgt>
<wgt id='1408'> +1.2380857e-12 </wgt>
<wgt id='1409'> +1.2390762e-12 </wgt>
<wgt id='1410'> +1.2603460e-12 </wgt>
<wgt id='1411'> +1.2670092e-12 </wgt>
<wgt id='1412'> +1.2517232e-12 </wgt>
<wgt id='1413'> +1.2644594e-12 </wgt>
<wgt id='1414'> +1.2562151e-12 </wgt>
<wgt id='1415'> +1.2557243e-12 </wgt>
<wgt id='1416'> +1.2622313e-12 </wgt>
<wgt id='1417'> +1.2514449e-12 </wgt>
<wgt id='1418'> +1.2691919e-12 </wgt>
<wgt id='1419'> +1.2622860e-12 </wgt>
<wgt id='1420'> +1.2584317e-12 </wgt>
<wgt id='1421'> +1.2463369e-12 </wgt>
<wgt id='1422'> +1.2663969e-12 </wgt>
<wgt id='1423'> +1.2600800e-12 </wgt>
<wgt id='1424'> +1.2606262e-12 </wgt>
<wgt id='1425'> +1.2562544e-12 </wgt>
<wgt id='1426'> +1.2647371e-12 </wgt>
<wgt id='1427'> +1.2610788e-12 </wgt>
<wgt id='1428'> +1.2596593e-12 </wgt>
<wgt id='1429'> +1.2525060e-12 </wgt>
<wgt id='1430'> +1.2709044e-12 </wgt>
<wgt id='1431'> +1.2678839e-12 </wgt>
<wgt id='1432'> +1.2549327e-12 </wgt>
<wgt id='1433'> +1.2638388e-12 </wgt>
<wgt id='1434'> +1.2545698e-12 </wgt>
<wgt id='1435'> +1.2624826e-12 </wgt>
<wgt id='1436'> +1.2553336e-12 </wgt>
<wgt id='1437'> +1.2681519e-12 </wgt>
<wgt id='1438'> +1.2605420e-12 </wgt>
<wgt id='1439'> +1.2549637e-12 </wgt>
<wgt id='1440'> +1.2700202e-12 </wgt>
<wgt id='1441'> +1.2611761e-12 </wgt>
<wgt id='1442'> +1.2592460e-12 </wgt>
<wgt id='1443'> +1.2586540e-12 </wgt>
<wgt id='1444'> +1.2658897e-12 </wgt>
<wgt id='1445'> +1.2705138e-12 </wgt>
<wgt id='1446'> +1.2576158e-12 </wgt>
<wgt id='1447'> +1.2614998e-12 </wgt>
<wgt id='1448'> +1.2622415e-12 </wgt>
<wgt id='1449'> +1.2606536e-12 </wgt>
<wgt id='1450'> +1.2597883e-12 </wgt>
<wgt id='1451'> +1.2685320e-12 </wgt>
<wgt id='1452'> +1.2383428e-12 </wgt>
<wgt id='1453'> +1.2625167e-12 </wgt>
<wgt id='1454'> +1.2464350e-12 </wgt>
<wgt id='1455'> +1.2465063e-12 </wgt>
<wgt id='1456'> +1.2745842e-12 </wgt>
<wgt id='1457'> +1.2705211e-12 </wgt>
<wgt id='1458'> +1.2567256e-12 </wgt>
<wgt id='1459'> +1.2645674e-12 </wgt>
<wgt id='1460'> +1.2623148e-12 </wgt>
<wgt id='1461'> +1.2603460e-12 </wgt>
<wgt id='1462'> +1.2509803e-12 </wgt>
<wgt id='1463'> +1.2699486e-12 </wgt>
<wgt id='1464'> +1.2607394e-12 </wgt>
<wgt id='1465'> +1.2334322e-12 </wgt>
<wgt id='1466'> +1.2389425e-12 </wgt>
<wgt id='1467'> +1.2448284e-12 </wgt>
<wgt id='1468'> +1.2505441e-12 </wgt>
<wgt id='1469'> +1.2554832e-12 </wgt>
<wgt id='1470'> +1.2663432e-12 </wgt>
<wgt id='1471'> +1.2708275e-12 </wgt>
<wgt id='1472'> +1.2759848e-12 </wgt>
<wgt id='1473'> +1.2607394e-12 </wgt>
<wgt id='1474'> +1.2560620e-12 </wgt>
<wgt id='1475'> +1.2581469e-12 </wgt>
<wgt id='1476'> +1.2625646e-12 </wgt>
<wgt id='1477'> +1.2644492e-12 </wgt>
<wgt id='1478'> +1.2178405e-12 </wgt>
<wgt id='1479'> +1.2163744e-12 </wgt>
<wgt id='1480'> +1.2214433e-12 </wgt>
<wgt id='1481'> +1.2170643e-12 </wgt>
<wgt id='1482'> +1.2167413e-12 </wgt>
<wgt id='1483'> +1.1980570e-12 </wgt>
<wgt id='1484'> +1.2182513e-12 </wgt>
<wgt id='1485'> +1.2182433e-12 </wgt>
<wgt id='1486'> +1.2188460e-12 </wgt>
<wgt id='1487'> +1.2226325e-12 </wgt>
<wgt id='1488'> +1.2136044e-12 </wgt>
<wgt id='1489'> +1.2400319e-12 </wgt>
<wgt id='1490'> +1.2158355e-12 </wgt>
<wgt id='1491'> +1.2158786e-12 </wgt>
<wgt id='1492'> +1.2187971e-12 </wgt>
<wgt id='1493'> +1.2137613e-12 </wgt>
<wgt id='1494'> +1.2405755e-12 </wgt>
<wgt id='1495'> +1.2132226e-12 </wgt>
<wgt id='1496'> +1.2162638e-12 </wgt>
<wgt id='1497'> +1.2185377e-12 </wgt>
<wgt id='1498'> +1.2177315e-12 </wgt>
<wgt id='1499'> +1.2191777e-12 </wgt>
<wgt id='1500'> +1.2195971e-12 </wgt>
<wgt id='1501'> +1.2174177e-12 </wgt>
<wgt id='1502'> +1.2163061e-12 </wgt>
<wgt id='1503'> +1.2225412e-12 </wgt>
<wgt id='1504'> +1.2168281e-12 </wgt>
<wgt id='1505'> +1.2189162e-12 </wgt>
<wgt id='1506'> +1.2160326e-12 </wgt>
<wgt id='1507'> +1.2164003e-12 </wgt>
<wgt id='1508'> +1.2244667e-12 </wgt>
<wgt id='1509'> +1.2765753e-12 </wgt>
<wgt id='1510'> +1.2749675e-12 </wgt>
<wgt id='1511'> +1.2766854e-12 </wgt>
<wgt id='1512'> +1.2753885e-12 </wgt>
<wgt id='1513'> +1.2883158e-12 </wgt>
<wgt id='1514'> +1.2755012e-12 </wgt>
<wgt id='1515'> +1.2705402e-12 </wgt>
<wgt id='1516'> +1.2737408e-12 </wgt>
<wgt id='1517'> +1.2704008e-12 </wgt>
<wgt id='1518'> +1.2847376e-12 </wgt>
<wgt id='1519'> +1.2737272e-12 </wgt>
<wgt id='1520'> +1.2757418e-12 </wgt>
<wgt id='1521'> +1.2849968e-12 </wgt>
<wgt id='1522'> +1.2822616e-12 </wgt>
<wgt id='1523'> +1.2843911e-12 </wgt>
<wgt id='1524'> +1.2778169e-12 </wgt>
<wgt id='1525'> +1.2755781e-12 </wgt>
<wgt id='1526'> +1.2741172e-12 </wgt>
<wgt id='1527'> +1.2819841e-12 </wgt>
<wgt id='1528'> +1.2816396e-12 </wgt>
<wgt id='1529'> +1.2844766e-12 </wgt>
<wgt id='1530'> +1.2789336e-12 </wgt>
<wgt id='1531'> +1.2802634e-12 </wgt>
<wgt id='1532'> +1.2813097e-12 </wgt>
<wgt id='1533'> +1.2762147e-12 </wgt>
<wgt id='1534'> +1.2817567e-12 </wgt>
<wgt id='1535'> +1.2720101e-12 </wgt>
<wgt id='1536'> +1.2725264e-12 </wgt>
<wgt id='1537'> +1.2764538e-12 </wgt>
<wgt id='1538'> +1.2760496e-12 </wgt>
<wgt id='1539'> +1.2782701e-12 </wgt>
<wgt id='1540'> +1.2768346e-12 </wgt>
<wgt id='1541'> +1.2765239e-12 </wgt>
<wgt id='1542'> +1.2777514e-12 </wgt>
<wgt id='1543'> +1.2763669e-12 </wgt>
<wgt id='1544'> +1.2755942e-12 </wgt>
<wgt id='1545'> +1.2753179e-12 </wgt>
<wgt id='1546'> +1.2775037e-12 </wgt>
<wgt id='1547'> +1.2762261e-12 </wgt>
<wgt id='1548'> +1.2761485e-12 </wgt>
<wgt id='1549'> +1.2750835e-12 </wgt>
<wgt id='1550'> +1.2756271e-12 </wgt>
<wgt id='1551'> +1.2762114e-12 </wgt>
<wgt id='1552'> +1.2768661e-12 </wgt>
<wgt id='1553'> +1.2754886e-12 </wgt>
<wgt id='1554'> +1.2759269e-12 </wgt>
<wgt id='1555'> +1.2764016e-12 </wgt>
<wgt id='1556'> +1.2774183e-12 </wgt>
<wgt id='1557'> +1.2755721e-12 </wgt>
<wgt id='1558'> +1.2770512e-12 </wgt>
<wgt id='1559'> +1.2775789e-12 </wgt>
<wgt id='1560'> +1.2758150e-12 </wgt>
<wgt id='1561'> +1.2769879e-12 </wgt>
<wgt id='1562'> +1.2768726e-12 </wgt>
<wgt id='1563'> +1.2768882e-12 </wgt>
<wgt id='1564'> +1.2770653e-12 </wgt>
<wgt id='1565'> +1.2767771e-12 </wgt>
<wgt id='1566'> +1.2768335e-12 </wgt>
<wgt id='1567'> +1.2769617e-12 </wgt>
<wgt id='1568'> +1.2762833e-12 </wgt>
<wgt id='1569'> +1.2757186e-12 </wgt>
<wgt id='1570'> +1.2771511e-12 </wgt>
<wgt id='1571'> +1.2765721e-12 </wgt>
<wgt id='1572'> +1.2763811e-12 </wgt>
<wgt id='1573'> +1.2761441e-12 </wgt>
<wgt id='1574'> +1.2774923e-12 </wgt>
<wgt id='1575'> +1.2769141e-12 </wgt>
<wgt id='1576'> +1.2761290e-12 </wgt>
<wgt id='1577'> +1.2768885e-12 </wgt>
<wgt id='1578'> +1.2764550e-12 </wgt>
<wgt id='1579'> +1.2766109e-12 </wgt>
<wgt id='1580'> +1.2764058e-12 </wgt>
<wgt id='1581'> +1.2765751e-12 </wgt>
<wgt id='1582'> +1.2767707e-12 </wgt>
<wgt id='1583'> +1.2768636e-12 </wgt>
<wgt id='1584'> +1.2760900e-12 </wgt>
<wgt id='1585'> +1.2765537e-12 </wgt>
<wgt id='1586'> +1.2763431e-12 </wgt>
<wgt id='1587'> +1.2766399e-12 </wgt>
<wgt id='1588'> +1.2761847e-12 </wgt>
<wgt id='1589'> +1.2768310e-12 </wgt>
<wgt id='1590'> +1.2765118e-12 </wgt>
<wgt id='1591'> +1.2763422e-12 </wgt>
<wgt id='1592'> +1.2769027e-12 </wgt>
<wgt id='1593'> +1.2769474e-12 </wgt>
<wgt id='1594'> +1.2763394e-12 </wgt>
<wgt id='1595'> +1.2767882e-12 </wgt>
<wgt id='1596'> +1.2766689e-12 </wgt>
<wgt id='1597'> +1.2766994e-12 </wgt>
<wgt id='1598'> +1.2765738e-12 </wgt>
<wgt id='1599'> +1.2767072e-12 </wgt>
<wgt id='1600'> +1.2767444e-12 </wgt>
<wgt id='1601'> +1.2765392e-12 </wgt>
<wgt id='1602'> +1.2768994e-12 </wgt>
<wgt id='1603'> +1.2766087e-12 </wgt>
<wgt id='1604'> +1.2765914e-12 </wgt>
<wgt id='1605'> +1.2763381e-12 </wgt>
<wgt id='1606'> +1.2762186e-12 </wgt>
<wgt id='1607'> +1.2763725e-12 </wgt>
<wgt id='1608'> +1.2761591e-12 </wgt>
<wgt id='1609'> +1.2765173e-12 </wgt>
<wgt id='1610'> +1.2532412e-12 </wgt>
<wgt id='1611'> +1.2998751e-12 </wgt>
<wgt id='1612'> +1.4926353e-12 </wgt>
<wgt id='1613'> +1.4954679e-12 </wgt>
<wgt id='1614'> +1.5191755e-12 </wgt>
<wgt id='1615'> +1.4537956e-12 </wgt>
<wgt id='1616'> +1.5480084e-12 </wgt>
<wgt id='1617'> +1.5161163e-12 </wgt>
<wgt id='1618'> +1.4684285e-12 </wgt>
<wgt id='1619'> +1.5114795e-12 </wgt>
<wgt id='1620'> +1.4667834e-12 </wgt>
<wgt id='1621'> +1.4978715e-12 </wgt>
<wgt id='1622'> +1.4707509e-12 </wgt>
<wgt id='1623'> +1.5372105e-12 </wgt>
<wgt id='1624'> +1.4886575e-12 </wgt>
<wgt id='1625'> +1.4619610e-12 </wgt>
<wgt id='1626'> +1.4721273e-12 </wgt>
<wgt id='1627'> +1.4922140e-12 </wgt>
<wgt id='1628'> +1.5145726e-12 </wgt>
<wgt id='1629'> +1.5321019e-12 </wgt>
<wgt id='1630'> +1.4995286e-12 </wgt>
<wgt id='1631'> +1.4742849e-12 </wgt>
<wgt id='1632'> +1.4735748e-12 </wgt>
<wgt id='1633'> +1.4552326e-12 </wgt>
<wgt id='1634'> +1.5188461e-12 </wgt>
<wgt id='1635'> +1.5022994e-12 </wgt>
<wgt id='1636'> +1.5260077e-12 </wgt>
<wgt id='1637'> +1.4520991e-12 </wgt>
<wgt id='1638'> +1.4946544e-12 </wgt>
<wgt id='1639'> +1.5271030e-12 </wgt>
<wgt id='1640'> +1.5049758e-12 </wgt>
<wgt id='1641'> +1.4921088e-12 </wgt>
<wgt id='1642'> +1.4671911e-12 </wgt>
<wgt id='1643'> +1.5395874e-12 </wgt>
<wgt id='1644'> +1.4110272e-12 </wgt>
<wgt id='1645'> +1.4810737e-12 </wgt>
<wgt id='1646'> +1.5061846e-12 </wgt>
<wgt id='1647'> +1.5170363e-12 </wgt>
<wgt id='1648'> +1.4889204e-12 </wgt>
<wgt id='1649'> +1.5241774e-12 </wgt>
<wgt id='1650'> +1.4837586e-12 </wgt>
<wgt id='1651'> +1.4925616e-12 </wgt>
<wgt id='1652'> +1.5055059e-12 </wgt>
<wgt id='1653'> +1.4914747e-12 </wgt>
<wgt id='1654'> +1.4929027e-12 </wgt>
<wgt id='1655'> +1.4816860e-12 </wgt>
<wgt id='1656'> +1.4181193e-12 </wgt>
<wgt id='1657'> +1.4778499e-12 </wgt>
<wgt id='1658'> +1.4854716e-12 </wgt>
<wgt id='1659'> +1.4886575e-12 </wgt>
<wgt id='1660'> +1.4763066e-12 </wgt>
<wgt id='1661'> +1.4695408e-12 </wgt>
<wgt id='1662'> +1.4832564e-12 </wgt>
<wgt id='1663'> +1.4889125e-12 </wgt>
<wgt id='1664'> +1.4759865e-12 </wgt>
<wgt id='1665'> +1.4741519e-12 </wgt>
<wgt id='1666'> +1.5202819e-12 </wgt>
<wgt id='1667'> +1.4935131e-12 </wgt>
<wgt id='1668'> +1.5546294e-12 </wgt>
<wgt id='1669'> +1.4127575e-12 </wgt>
<wgt id='1670'> +1.4971070e-12 </wgt>
<wgt id='1671'> +1.4651823e-12 </wgt>
<wgt id='1672'> +1.4684765e-12 </wgt>
<wgt id='1673'> +1.4790362e-12 </wgt>
<wgt id='1674'> +1.4713515e-12 </wgt>
<wgt id='1675'> +1.4951656e-12 </wgt>
<wgt id='1676'> +1.4982366e-12 </wgt>
<wgt id='1677'> +1.5530607e-12 </wgt>
<wgt id='1678'> +1.4802415e-12 </wgt>
<wgt id='1679'> +1.5283232e-12 </wgt>
<wgt id='1680'> +1.4992708e-12 </wgt>
<wgt id='1681'> +1.5036739e-12 </wgt>
<wgt id='1682'> +1.5002337e-12 </wgt>
<wgt id='1683'> +1.4762325e-12 </wgt>
<wgt id='1684'> +1.5037764e-12 </wgt>
<wgt id='1685'> +1.4671365e-12 </wgt>
<wgt id='1686'> +1.4963559e-12 </wgt>
<wgt id='1687'> +1.5426064e-12 </wgt>
<wgt id='1688'> +1.4934697e-12 </wgt>
<wgt id='1689'> +1.4827555e-12 </wgt>
<wgt id='1690'> +1.4743324e-12 </wgt>
<wgt id='1691'> +1.5084498e-12 </wgt>
<wgt id='1692'> +1.5115334e-12 </wgt>
<wgt id='1693'> +1.5248600e-12 </wgt>
<wgt id='1694'> +1.4175790e-12 </wgt>
<wgt id='1695'> +1.5186676e-12 </wgt>
<wgt id='1696'> +1.5009277e-12 </wgt>
<wgt id='1697'> +1.5014085e-12 </wgt>
<wgt id='1698'> +1.4766878e-12 </wgt>
<wgt id='1699'> +1.4931099e-12 </wgt>
<wgt id='1700'> +1.4832381e-12 </wgt>
<wgt id='1701'> +1.5123849e-12 </wgt>
<wgt id='1702'> +1.4820777e-12 </wgt>
<wgt id='1703'> +1.4961541e-12 </wgt>
<wgt id='1704'> +1.4857073e-12 </wgt>
<wgt id='1705'> +1.4713674e-12 </wgt>
<wgt id='1706'> +1.4936415e-12 </wgt>
<wgt id='1707'> +1.5315720e-12 </wgt>
<wgt id='1708'> +1.4875052e-12 </wgt>
<wgt id='1709'> +1.4829490e-12 </wgt>
<wgt id='1710'> +1.4872526e-12 </wgt>
<wgt id='1711'> +1.5644234e-12 </wgt>
<wgt id='1712'> +1.4863467e-12 </wgt>
<wgt id='1713'> +1.2157607e-12 </wgt>
<wgt id='1714'> +1.1939908e-12 </wgt>
<wgt id='1715'> +1.2079499e-12 </wgt>
<wgt id='1716'> +1.2227198e-12 </wgt>
<wgt id='1717'> +1.2217574e-12 </wgt>
<wgt id='1718'> +1.2191124e-12 </wgt>
<wgt id='1719'> +1.2517081e-12 </wgt>
<wgt id='1720'> +1.2085460e-12 </wgt>
<wgt id='1721'> +1.2094576e-12 </wgt>
<wgt id='1722'> +1.2001039e-12 </wgt>
<wgt id='1723'> +1.1774838e-12 </wgt>
<wgt id='1724'> +1.0339308e-12 </wgt>
<wgt id='1725'> +1.2621325e-12 </wgt>
<wgt id='1726'> +1.2771407e-12 </wgt>
<wgt id='1727'> +1.1769239e-12 </wgt>
<wgt id='1728'> +1.2067848e-12 </wgt>
<wgt id='1729'> +1.2023012e-12 </wgt>
<wgt id='1730'> +1.1952925e-12 </wgt>
<wgt id='1731'> +1.1848908e-12 </wgt>
<wgt id='1732'> +1.2514541e-12 </wgt>
<wgt id='1733'> +1.2290661e-12 </wgt>
<wgt id='1734'> +1.2499294e-12 </wgt>
<wgt id='1735'> +1.1565987e-12 </wgt>
<wgt id='1736'> +1.2913140e-12 </wgt>
<wgt id='1737'> +1.2534046e-12 </wgt>
<wgt id='1738'> +1.2230377e-12 </wgt>
<wgt id='1739'> +1.2287416e-12 </wgt>
<wgt id='1740'> +1.1829644e-12 </wgt>
<wgt id='1741'> +1.2253179e-12 </wgt>
<wgt id='1742'> +1.2100594e-12 </wgt>
<wgt id='1743'> +1.2347997e-12 </wgt>
<wgt id='1744'> +1.2634580e-12 </wgt>
<wgt id='1745'> +1.1218639e-12 </wgt>
<wgt id='1746'> +1.2521684e-12 </wgt>
<wgt id='1747'> +1.2511430e-12 </wgt>
<wgt id='1748'> +1.2148777e-12 </wgt>
<wgt id='1749'> +1.2512982e-12 </wgt>
<wgt id='1750'> +1.2243363e-12 </wgt>
<wgt id='1751'> +1.1687730e-12 </wgt>
<wgt id='1752'> +1.1985828e-12 </wgt>
<wgt id='1753'> +1.2339685e-12 </wgt>
<wgt id='1754'> +1.2420128e-12 </wgt>
<wgt id='1755'> +1.2219142e-12 </wgt>
<wgt id='1756'> +1.2165388e-12 </wgt>
<wgt id='1757'> +1.2041369e-12 </wgt>
<wgt id='1758'> +1.2388853e-12 </wgt>
<wgt id='1759'> +1.2455804e-12 </wgt>
<wgt id='1760'> +1.1995564e-12 </wgt>
<wgt id='1761'> +1.2144292e-12 </wgt>
<wgt id='1762'> +1.2533324e-12 </wgt>
<wgt id='1763'> +1.2337330e-12 </wgt>
<wgt id='1764'> +1.2287947e-12 </wgt>
<wgt id='1765'> +1.2000723e-12 </wgt>
<wgt id='1766'> +1.2458702e-12 </wgt>
<wgt id='1767'> +1.2160864e-12 </wgt>
<wgt id='1768'> +1.2180118e-12 </wgt>
<wgt id='1769'> +1.1886839e-12 </wgt>
<wgt id='1770'> +1.2705614e-12 </wgt>
<wgt id='1771'> +1.2167817e-12 </wgt>
<wgt id='1772'> +1.2454879e-12 </wgt>
<wgt id='1773'> +1.2165552e-12 </wgt>
<wgt id='1774'> +1.2372796e-12 </wgt>
<wgt id='1775'> +1.2129732e-12 </wgt>
<wgt id='1776'> +1.2743735e-12 </wgt>
<wgt id='1777'> +1.1505927e-12 </wgt>
<wgt id='1778'> +1.2140185e-12 </wgt>
<wgt id='1779'> +1.2252200e-12 </wgt>
<wgt id='1780'> +1.2056358e-12 </wgt>
<wgt id='1781'> +1.2267946e-12 </wgt>
<wgt id='1782'> +1.1736395e-12 </wgt>
<wgt id='1783'> +1.2125050e-12 </wgt>
<wgt id='1784'> +1.2252306e-12 </wgt>
<wgt id='1785'> +1.1901565e-12 </wgt>
<wgt id='1786'> +1.1166523e-12 </wgt>
<wgt id='1787'> +1.2566918e-12 </wgt>
<wgt id='1788'> +1.2074561e-12 </wgt>
<wgt id='1789'> +1.1126982e-12 </wgt>
<wgt id='1790'> +1.1940513e-12 </wgt>
<wgt id='1791'> +1.2308796e-12 </wgt>
<wgt id='1792'> +1.1837064e-12 </wgt>
<wgt id='1793'> +1.2162998e-12 </wgt>
<wgt id='1794'> +1.2175892e-12 </wgt>
<wgt id='1795'> +1.2432767e-12 </wgt>
<wgt id='1796'> +1.2192552e-12 </wgt>
<wgt id='1797'> +1.2243033e-12 </wgt>
<wgt id='1798'> +1.1914731e-12 </wgt>
<wgt id='1799'> +1.2068168e-12 </wgt>
<wgt id='1800'> +1.2108679e-12 </wgt>
<wgt id='1801'> +1.2118583e-12 </wgt>
<wgt id='1802'> +1.2172359e-12 </wgt>
<wgt id='1803'> +1.2267781e-12 </wgt>
<wgt id='1804'> +1.2225181e-12 </wgt>
<wgt id='1805'> +1.2122114e-12 </wgt>
<wgt id='1806'> +1.2020059e-12 </wgt>
<wgt id='1807'> +1.2131569e-12 </wgt>
<wgt id='1808'> +1.1994967e-12 </wgt>
<wgt id='1809'> +1.2192874e-12 </wgt>
<wgt id='1810'> +1.2449243e-12 </wgt>
<wgt id='1811'> +1.2810009e-12 </wgt>
<wgt id='1812'> +1.2579143e-12 </wgt>
<wgt id='1813'> +1.2116124e-12 </wgt>
<wgt id='1814'> +1.2117194e-12 </wgt>
<wgt id='1815'> +1.3777792e-12 </wgt>
<wgt id='1816'> +1.2157607e-12 </wgt>
<wgt id='1817'> +1.1939908e-12 </wgt>
<wgt id='1818'> +1.2079499e-12 </wgt>
<wgt id='1819'> +1.2227198e-12 </wgt>
<wgt id='1820'> +1.2217574e-12 </wgt>
<wgt id='1821'> +1.2191124e-12 </wgt>
<wgt id='1822'> +1.2517081e-12 </wgt>
<wgt id='1823'> +1.2085460e-12 </wgt>
<wgt id='1824'> +1.2094576e-12 </wgt>
<wgt id='1825'> +1.2001039e-12 </wgt>
<wgt id='1826'> +1.1774838e-12 </wgt>
<wgt id='1827'> +1.0339308e-12 </wgt>
<wgt id='1828'> +1.2621325e-12 </wgt>
<wgt id='1829'> +1.2771407e-12 </wgt>
<wgt id='1830'> +1.1769239e-12 </wgt>
<wgt id='1831'> +1.2067848e-12 </wgt>
<wgt id='1832'> +1.2023012e-12 </wgt>
<wgt id='1833'> +1.1952925e-12 </wgt>
<wgt id='1834'> +1.1848908e-12 </wgt>
<wgt id='1835'> +1.2514541e-12 </wgt>
<wgt id='1836'> +1.2290661e-12 </wgt>
<wgt id='1837'> +1.2499294e-12 </wgt>
<wgt id='1838'> +1.1565987e-12 </wgt>
<wgt id='1839'> +1.2913140e-12 </wgt>
<wgt id='1840'> +1.2534046e-12 </wgt>
<wgt id='1841'> +1.2230377e-12 </wgt>
<wgt id='1842'> +1.2287416e-12 </wgt>
<wgt id='1843'> +1.1829644e-12 </wgt>
<wgt id='1844'> +1.2253179e-12 </wgt>
<wgt id='1845'> +1.2100594e-12 </wgt>
<wgt id='1846'> +1.2347997e-12 </wgt>
<wgt id='1847'> +1.2634580e-12 </wgt>
<wgt id='1848'> +1.1218639e-12 </wgt>
<wgt id='1849'> +1.2521684e-12 </wgt>
<wgt id='1850'> +1.2511430e-12 </wgt>
<wgt id='1851'> +1.2148777e-12 </wgt>
<wgt id='1852'> +1.2512982e-12 </wgt>
<wgt id='1853'> +1.2243363e-12 </wgt>
<wgt id='1854'> +1.1687730e-12 </wgt>
<wgt id='1855'> +1.1985828e-12 </wgt>
<wgt id='1856'> +1.2339685e-12 </wgt>
<wgt id='1857'> +1.2420128e-12 </wgt>
<wgt id='1858'> +1.2219142e-12 </wgt>
<wgt id='1859'> +1.2165388e-12 </wgt>
<wgt id='1860'> +1.2041369e-12 </wgt>
<wgt id='1861'> +1.2388853e-12 </wgt>
<wgt id='1862'> +1.2455804e-12 </wgt>
<wgt id='1863'> +1.1995564e-12 </wgt>
<wgt id='1864'> +1.2144292e-12 </wgt>
<wgt id='1865'> +1.2533324e-12 </wgt>
<wgt id='1866'> +1.2337330e-12 </wgt>
<wgt id='1867'> +1.2287947e-12 </wgt>
<wgt id='1868'> +1.2000723e-12 </wgt>
<wgt id='1869'> +1.2458702e-12 </wgt>
<wgt id='1870'> +1.2160864e-12 </wgt>
<wgt id='1871'> +1.2180118e-12 </wgt>
<wgt id='1872'> +1.1886839e-12 </wgt>
<wgt id='1873'> +1.2705614e-12 </wgt>
<wgt id='1874'> +1.2167817e-12 </wgt>
<wgt id='1875'> +1.2454879e-12 </wgt>
<wgt id='1876'> +1.2165552e-12 </wgt>
<wgt id='1877'> +1.2372796e-12 </wgt>
<wgt id='1878'> +1.2129732e-12 </wgt>
<wgt id='1879'> +1.2743735e-12 </wgt>
<wgt id='1880'> +1.1505927e-12 </wgt>
<wgt id='1881'> +1.2140185e-12 </wgt>
<wgt id='1882'> +1.2252200e-12 </wgt>
<wgt id='1883'> +1.2056358e-12 </wgt>
<wgt id='1884'> +1.2267946e-12 </wgt>
<wgt id='1885'> +1.1736395e-12 </wgt>
<wgt id='1886'> +1.2125050e-12 </wgt>
<wgt id='1887'> +1.2252306e-12 </wgt>
<wgt id='1888'> +1.1901565e-12 </wgt>
<wgt id='1889'> +1.1166523e-12 </wgt>
<wgt id='1890'> +1.2566918e-12 </wgt>
<wgt id='1891'> +1.2074561e-12 </wgt>
<wgt id='1892'> +1.1126982e-12 </wgt>
<wgt id='1893'> +1.1940513e-12 </wgt>
<wgt id='1894'> +1.2308796e-12 </wgt>
<wgt id='1895'> +1.1837064e-12 </wgt>
<wgt id='1896'> +1.2162998e-12 </wgt>
<wgt id='1897'> +1.2175892e-12 </wgt>
<wgt id='1898'> +1.2432767e-12 </wgt>
<wgt id='1899'> +1.2192552e-12 </wgt>
<wgt id='1900'> +1.2243033e-12 </wgt>
<wgt id='1901'> +1.1914731e-12 </wgt>
<wgt id='1902'> +1.2068168e-12 </wgt>
<wgt id='1903'> +1.2108679e-12 </wgt>
<wgt id='1904'> +1.2118583e-12 </wgt>
<wgt id='1905'> +1.2172359e-12 </wgt>
<wgt id='1906'> +1.2267781e-12 </wgt>
<wgt id='1907'> +1.2225181e-12 </wgt>
<wgt id='1908'> +1.2122114e-12 </wgt>
<wgt id='1909'> +1.2020059e-12 </wgt>
<wgt id='1910'> +1.2131569e-12 </wgt>
<wgt id='1911'> +1.1994967e-12 </wgt>
<wgt id='1912'> +1.2192874e-12 </wgt>
<wgt id='1913'> +1.2449243e-12 </wgt>
<wgt id='1914'> +1.2810009e-12 </wgt>
<wgt id='1915'> +1.2579143e-12 </wgt>
<wgt id='1916'> +1.2116124e-12 </wgt>
<wgt id='1917'> +1.2072385e-12 </wgt>
<wgt id='1918'> +1.2272466e-12 </wgt>
<wgt id='1919'> +1.2572021e-12 </wgt>
</rwgt>
</event>
<event>
 9      1 +1.5607000e-12 6.16352200e+01 7.81860800e-03 1.26238900e-01
        2 -1    0    0  502    0 -0.0000000000e+00 +0.0000000000e+00 +2.9106278471e+03 2.9106278471e+03 0.0000000000e+00 0.0000e+00 -1.0000e+00
       21 -1    0    0  501  502 +0.0000000000e+00 -0.0000000000e+00 -3.2629563819e-01 3.2629563819e-01 0.0000000000e+00 0.0000e+00 -1.0000e+00
     1023  2    1    2    0    0 -9.2015807684e+00 -2.7483339380e+01 +1.5759531712e+03 1.5762910381e+03 1.5001195938e+01 0.0000e+00 0.0000e+00
  1000023  2    3    3    0    0 -1.2652427688e+00 -8.4232293411e+00 +7.3351878885e+02 7.3358885948e+02 5.4999563738e+00 0.0000e+00 0.0000e+00
        2  1    1    2  501    0 +9.2015807684e+00 +2.7483339380e+01 +1.3343483803e+03 1.3346631047e+03 0.0000000000e+00 0.0000e+00 -1.0000e+00
  1000022  1    4    4    0    0 -1.0480772219e+00 -7.2322632216e+00 +6.5504859772e+02 6.5510844100e+02 5.0000000000e+00 0.0000e+00 1.0000e+00
      -13  1    4    4    0    0 -6.7694735146e-02 -3.7982309258e-01 +1.7586035807e+01 1.7590584869e+01 1.0570000000e-01 0.0000e+00 -1.0000e+00
       13  1    4    4    0    0 -1.4947081180e-01 -8.1114302689e-01 +6.0884155327e+01 6.0889833609e+01 1.0570000000e-01 0.0000e+00 1.0000e+00
  1000022  1    3    3    0    0 -7.9363379996e+00 -1.9060110039e+01 +8.4243438237e+02 8.4270217863e+02 5.0000000000e+00 0.0000e+00 -1.0000e+00
<mgrwt>
<rscale>  1 0.61635223E+02</rscale>
<asrwt>0</asrwt>
<pdfrwt beam="1">  1       21 0.50201660E-04 0.61635223E+02</pdfrwt>
<pdfrwt beam="2">  1        2 0.44776811E+00 0.61635223E+02</pdfrwt>
<totfact> 0.69639259E+06</totfact>
</mgrwt>
<rwgt>
<wgt id='1001'> +1.5607000e-12 </wgt>
<wgt id='1002'> +1.5620253e-12 </wgt>
<wgt id='1003'> +1.5612234e-12 </wgt>
<wgt id='1004'> +1.5536827e-12 </wgt>
<wgt id='1005'> +1.5607000e-12 </wgt>
<wgt id='1006'> +1.3893500e-12 </wgt>
<wgt id='1007'> +1.3888309e-12 </wgt>
<wgt id='1008'> +1.3891877e-12 </wgt>
<wgt id='1009'> +1.3596907e-12 </wgt>
<wgt id='1010'> +1.3893500e-12 </wgt>
<wgt id='1011'> +1.7823116e-12 </wgt>
<wgt id='1012'> +1.7866837e-12 </wgt>
<wgt id='1013'> +1.7839688e-12 </wgt>
<wgt id='1014'> +1.8154278e-12 </wgt>
<wgt id='1015'> +1.7823116e-12 </wgt>
<wgt id='1016'> +1.7164647e-12 </wgt>
<wgt id='1017'> +1.7226755e-12 </wgt>
<wgt id='1018'> +1.7187830e-12 </wgt>
<wgt id='1019'> +1.7839688e-12 </wgt>
<wgt id='1020'> +1.7164647e-12 </wgt>
<wgt id='1021'> +1.5280131e-12 </wgt>
<wgt id='1022'> +1.5316684e-12 </wgt>
<wgt id='1023'> +1.5293853e-12 </wgt>
<wgt id='1024'> +1.5612234e-12 </wgt>
<wgt id='1025'> +1.5280131e-12 </wgt>
<wgt id='1026'> +1.9601940e-12 </wgt>
<wgt id='1027'> +1.9704394e-12 </wgt>
<wgt id='1028'> +1.9640080e-12 </wgt>
<wgt id='1029'> +2.0845097e-12 </wgt>
<wgt id='1030'> +1.9601940e-12 </wgt>
<wgt id='1031'> +1.3615059e-12 </wgt>
<wgt id='1032'> +1.3564637e-12 </wgt>
<wgt id='1033'> +1.3596907e-12 </wgt>
<wgt id='1034'> +1.2631541e-12 </wgt>
<wgt id='1035'> +1.3615059e-12 </wgt>
<wgt id='1036'> +1.2120254e-12 </wgt>
<wgt id='1037'> +1.2060616e-12 </wgt>
<wgt id='1038'> +1.2098625e-12 </wgt>
<wgt id='1039'> +1.1054374e-12 </wgt>
<wgt id='1040'> +1.2120254e-12 </wgt>
<wgt id='1041'> +1.5548329e-12 </wgt>
<wgt id='1042'> +1.5515572e-12 </wgt>
<wgt id='1043'> +1.5536827e-12 </wgt>
<wgt id='1044'> +1.4759547e-12 </wgt>
<wgt id='1045'> +1.5548329e-12 </wgt>
<wgt id='1046'> +1.5607000e-12 </wgt>
<wgt id='1047'> +1.5559252e-12 </wgt>
<wgt id='1048'> +1.6172026e-12 </wgt>
<wgt id='1049'> +1.5404402e-12 </wgt>
<wgt id='1050'> +1.5434507e-12 </wgt>
<wgt id='1051'> +1.6190864e-12 </wgt>
<wgt id='1052'> +1.5241583e-12 </wgt>
<wgt id='1053'> +1.5514704e-12 </wgt>
<wgt id='1054'> +1.6062968e-12 </wgt>
<wgt id='1055'> +1.5092262e-12 </wgt>
<wgt id='1056'> +1.5197030e-12 </wgt>
<wgt id='1057'> +1.5580860e-12 </wgt>
<wgt id='1058'> +1.5199292e-12 </wgt>
<wgt id='1059'> +1.5658257e-12 </wgt>
<wgt id='1060'> +1.5545378e-12 </wgt>
<wgt id='1061'> +1.5702218e-12 </wgt>
<wgt id='1062'> +1.5505998e-12 </wgt>
<wgt id='1063'> +1.4922562e-12 </wgt>
<wgt id='1064'> +1.5472570e-12 </wgt>
<wgt id='1065'> +1.5798324e-12 </wgt>
<wgt id='1066'> +1.5615522e-12 </wgt>
<wgt id='1067'> +1.6865803e-12 </wgt>
<wgt id='1068'> +1.6741188e-12 </wgt>
<wgt id='1069'> +1.6275908e-12 </wgt>
<wgt id='1070'> +1.5644743e-12 </wgt>
<wgt id='1071'> +1.5920482e-12 </wgt>
<wgt id='1072'> +1.5865426e-12 </wgt>
<wgt id='1073'> +1.5451996e-12 </wgt>
<wgt id='1074'> +1.5763919e-12 </wgt>
<wgt id='1075'> +1.4969447e-12 </wgt>
<wgt id='1076'> +1.5502129e-12 </wgt>
<wgt id='1077'> +1.6093435e-12 </wgt>
<wgt id='1078'> +1.5190879e-12 </wgt>
<wgt id='1079'> +1.5986945e-12 </wgt>
<wgt id='1080'> +1.5920008e-12 </wgt>
<wgt id='1081'> +1.4977766e-12 </wgt>
<wgt id='1082'> +1.5898134e-12 </wgt>
<wgt id='1083'> +1.5330506e-12 </wgt>
<wgt id='1084'> +1.5124710e-12 </wgt>
<wgt id='1085'> +1.4745420e-12 </wgt>
<wgt id='1086'> +1.5702822e-12 </wgt>
<wgt id='1087'> +1.5388583e-12 </wgt>
<wgt id='1088'> +1.5388327e-12 </wgt>
<wgt id='1089'> +1.5327553e-12 </wgt>
<wgt id='1090'> +1.5396093e-12 </wgt>
<wgt id='1091'> +1.5401946e-12 </wgt>
<wgt id='1092'> +1.5431526e-12 </wgt>
<wgt id='1093'> +1.6612776e-12 </wgt>
<wgt id='1094'> +1.5527791e-12 </wgt>
<wgt id='1095'> +1.5629692e-12 </wgt>
<wgt id='1096'> +1.4927943e-12 </wgt>
<wgt id='1097'> +1.6134307e-12 </wgt>
<wgt id='1098'> +1.5873883e-12 </wgt>
<wgt id='1099'> +1.5576343e-12 </wgt>
<wgt id='1100'> +1.6653243e-12 </wgt>
<wgt id='1101'> +1.5971113e-12 </wgt>
<wgt id='1102'> +1.4339905e-12 </wgt>
<wgt id='1103'> +1.5409759e-12 </wgt>
<wgt id='1104'> +1.6093470e-12 </wgt>
<wgt id='1105'> +1.4738754e-12 </wgt>
<wgt id='1106'> +1.5796812e-12 </wgt>
<wgt id='1107'> +1.5775728e-12 </wgt>
<wgt id='1108'> +1.5727887e-12 </wgt>
<wgt id='1109'> +1.5693808e-12 </wgt>
<wgt id='1110'> +1.5427064e-12 </wgt>
<wgt id='1111'> +1.6407157e-12 </wgt>
<wgt id='1112'> +1.5220201e-12 </wgt>
<wgt id='1113'> +1.6708059e-12 </wgt>
<wgt id='1114'> +1.6006895e-12 </wgt>
<wgt id='1115'> +1.5689890e-12 </wgt>
<wgt id='1116'> +1.6746893e-12 </wgt>
<wgt id='1117'> +1.5601700e-12 </wgt>
<wgt id='1118'> +1.5166223e-12 </wgt>
<wgt id='1119'> +1.5405987e-12 </wgt>
<wgt id='1120'> +1.5828869e-12 </wgt>
<wgt id='1121'> +1.5062710e-12 </wgt>
<wgt id='1122'> +1.6127979e-12 </wgt>
<wgt id='1123'> +1.5926630e-12 </wgt>
<wgt id='1124'> +1.6402593e-12 </wgt>
<wgt id='1125'> +1.5451630e-12 </wgt>
<wgt id='1126'> +1.5033382e-12 </wgt>
<wgt id='1127'> +1.5593451e-12 </wgt>
<wgt id='1128'> +1.5505998e-12 </wgt>
<wgt id='1129'> +1.5213029e-12 </wgt>
<wgt id='1130'> +1.5578906e-12 </wgt>
<wgt id='1131'> +1.6126395e-12 </wgt>
<wgt id='1132'> +1.4405095e-12 </wgt>
<wgt id='1133'> +1.5590127e-12 </wgt>
<wgt id='1134'> +1.5369020e-12 </wgt>
<wgt id='1135'> +1.4954625e-12 </wgt>
<wgt id='1136'> +1.5322373e-12 </wgt>
<wgt id='1137'> +1.5571329e-12 </wgt>
<wgt id='1138'> +1.5298497e-12 </wgt>
<wgt id='1139'> +1.5345471e-12 </wgt>
<wgt id='1140'> +1.5816459e-12 </wgt>
<wgt id='1141'> +1.5593157e-12 </wgt>
<wgt id='1142'> +1.6104940e-12 </wgt>
<wgt id='1143'> +1.4409469e-12 </wgt>
<wgt id='1144'> +1.5729204e-12 </wgt>
<wgt id='1145'> +1.5779314e-12 </wgt>
<wgt id='1146'> +1.5362346e-12 </wgt>
<wgt id='1147'> +1.5869324e-12 </wgt>
<wgt id='1148'> +1.6020645e-12 </wgt>
<wgt id='1149'> +1.4667445e-12 </wgt>
<wgt id='1150'> +1.5942940e-12 </wgt>
<wgt id='1151'> +2.3639488e-12 </wgt>
<wgt id='1152'> +3.3082998e-12 </wgt>
<wgt id='1153'> +3.3329100e-12 </wgt>
<wgt id='1154'> +3.2940198e-12 </wgt>
<wgt id='1155'> +3.3045082e-12 </wgt>
<wgt id='1156'> +3.3100795e-12 </wgt>
<wgt id='1157'> +3.3205482e-12 </wgt>
<wgt id='1158'> +3.2918934e-12 </wgt>
<wgt id='1159'> +3.3174057e-12 </wgt>
<wgt id='1160'> +3.3023766e-12 </wgt>
<wgt id='1161'> +3.2993741e-12 </wgt>
<wgt id='1162'> +3.3143885e-12 </wgt>
<wgt id='1163'> +3.3036306e-12 </wgt>
<wgt id='1164'> +3.3127648e-12 </wgt>
<wgt id='1165'> +3.2969764e-12 </wgt>
<wgt id='1166'> +3.3193758e-12 </wgt>
<wgt id='1167'> +3.3510192e-12 </wgt>
<wgt id='1168'> +3.2593591e-12 </wgt>
<wgt id='1169'> +3.3369776e-12 </wgt>
<wgt id='1170'> +3.2869157e-12 </wgt>
<wgt id='1171'> +3.2928233e-12 </wgt>
<wgt id='1172'> +3.3277343e-12 </wgt>
<wgt id='1173'> +3.2708999e-12 </wgt>
<wgt id='1174'> +3.3477427e-12 </wgt>
<wgt id='1175'> +3.3195018e-12 </wgt>
<wgt id='1176'> +3.3002807e-12 </wgt>
<wgt id='1177'> +3.3161891e-12 </wgt>
<wgt id='1178'> +3.2873758e-12 </wgt>
<wgt id='1179'> +3.2979013e-12 </wgt>
<wgt id='1180'> +3.3157099e-12 </wgt>
<wgt id='1181'> +3.3162430e-12 </wgt>
<wgt id='1182'> +3.3035466e-12 </wgt>
<wgt id='1183'> +3.3331692e-12 </wgt>
<wgt id='1184'> +3.3064188e-12 </wgt>
<wgt id='1185'> +3.2985928e-12 </wgt>
<wgt id='1186'> +3.3130415e-12 </wgt>
<wgt id='1187'> +3.3128816e-12 </wgt>
<wgt id='1188'> +3.3068063e-12 </wgt>
<wgt id='1189'> +3.2952209e-12 </wgt>
<wgt id='1190'> +3.2718531e-12 </wgt>
<wgt id='1191'> +3.3034025e-12 </wgt>
<wgt id='1192'> +3.3457088e-12 </wgt>
<wgt id='1193'> +1.5846976e-12 </wgt>
<wgt id='1194'> +1.5531219e-12 </wgt>
<wgt id='1195'> +1.6106171e-12 </wgt>
<wgt id='1196'> +1.5731052e-12 </wgt>
<wgt id='1197'> +1.5976782e-12 </wgt>
<wgt id='1198'> +1.5819337e-12 </wgt>
<wgt id='1199'> +1.5889264e-12 </wgt>
<wgt id='1200'> +1.5825973e-12 </wgt>
<wgt id='1201'> +1.5861209e-12 </wgt>
<wgt id='1202'> +1.5853553e-12 </wgt>
<wgt id='1203'> +1.5838193e-12 </wgt>
<wgt id='1204'> +1.5866596e-12 </wgt>
<wgt id='1205'> +1.5832154e-12 </wgt>
<wgt id='1206'> +1.5878536e-12 </wgt>
<wgt id='1207'> +1.5803786e-12 </wgt>
<wgt id='1208'> +1.5863074e-12 </wgt>
<wgt id='1209'> +1.5842327e-12 </wgt>
<wgt id='1210'> +1.6137917e-12 </wgt>
<wgt id='1211'> +1.5678057e-12 </wgt>
<wgt id='1212'> +1.5736704e-12 </wgt>
<wgt id='1213'> +1.5968559e-12 </wgt>
<wgt id='1214'> +1.5775087e-12 </wgt>
<wgt id='1215'> +1.5865820e-12 </wgt>
<wgt id='1216'> +1.5916771e-12 </wgt>
<wgt id='1217'> +1.5796125e-12 </wgt>
<wgt id='1218'> +1.5913287e-12 </wgt>
<wgt id='1219'> +1.5813449e-12 </wgt>
<wgt id='1220'> +1.6038072e-12 </wgt>
<wgt id='1221'> +1.5752865e-12 </wgt>
<wgt id='1222'> +1.6131714e-12 </wgt>
<wgt id='1223'> +1.5486040e-12 </wgt>
<wgt id='1224'> +1.5889914e-12 </wgt>
<wgt id='1225'> +1.5829754e-12 </wgt>
<wgt id='1226'> +1.5811017e-12 </wgt>
<wgt id='1227'> +1.5873131e-12 </wgt>
<wgt id='1228'> +1.5924548e-12 </wgt>
<wgt id='1229'> +1.5825284e-12 </wgt>
<wgt id='1230'> +1.5836429e-12 </wgt>
<wgt id='1231'> +1.6081673e-12 </wgt>
<wgt id='1232'> +1.5910516e-12 </wgt>
<wgt id='1233'> +1.5833486e-12 </wgt>
<wgt id='1234'> +1.5846976e-12 </wgt>
<wgt id='1235'> +1.5782095e-12 </wgt>
<wgt id='1236'> +1.5806224e-12 </wgt>
<wgt id='1237'> +1.5827363e-12 </wgt>
<wgt id='1238'> +1.5863153e-12 </wgt>
<wgt id='1239'> +1.5877642e-12 </wgt>
<wgt id='1240'> +1.5894446e-12 </wgt>
<wgt id='1241'> +1.4324003e-12 </wgt>
<wgt id='1242'> +1.4083943e-12 </wgt>
<wgt id='1243'> +1.4560904e-12 </wgt>
<wgt id='1244'> +1.4520203e-12 </wgt>
<wgt id='1245'> +1.4180910e-12 </wgt>
<wgt id='1246'> +1.4291498e-12 </wgt>
<wgt id='1247'> +1.4351938e-12 </wgt>
<wgt id='1248'> +1.4325886e-12 </wgt>
<wgt id='1249'> +1.4323027e-12 </wgt>
<wgt id='1250'> +1.4347045e-12 </wgt>
<wgt id='1251'> +1.4308359e-12 </wgt>
<wgt id='1252'> +1.4285414e-12 </wgt>
<wgt id='1253'> +1.4354438e-12 </wgt>
<wgt id='1254'> +1.4343558e-12 </wgt>
<wgt id='1255'> +1.4311012e-12 </wgt>
<wgt id='1256'> +1.4309059e-12 </wgt>
<wgt id='1257'> +1.4359704e-12 </wgt>
<wgt id='1258'> +1.4238936e-12 </wgt>
<wgt id='1259'> +1.4331759e-12 </wgt>
<wgt id='1260'> +1.4378437e-12 </wgt>
<wgt id='1261'> +1.4263964e-12 </wgt>
<wgt id='1262'> +1.4299074e-12 </wgt>
<wgt id='1263'> +1.4337942e-12 </wgt>
<wgt id='1264'> +1.4376760e-12 </wgt>
<wgt id='1265'> +1.4309054e-12 </wgt>
<wgt id='1266'> +1.4026302e-12 </wgt>
<wgt id='1267'> +1.4616476e-12 </wgt>
<wgt id='1268'> +1.4409467e-12 </wgt>
<wgt id='1269'> +1.4258094e-12 </wgt>
<wgt id='1270'> +1.4633346e-12 </wgt>
<wgt id='1271'> +1.4363586e-12 </wgt>
<wgt id='1272'> +1.4446579e-12 </wgt>
<wgt id='1273'> +1.4307939e-12 </wgt>
<wgt id='1274'> +1.4365369e-12 </wgt>
<wgt id='1275'> +1.4268934e-12 </wgt>
<wgt id='1276'> +1.4306102e-12 </wgt>
<wgt id='1277'> +1.4385654e-12 </wgt>
<wgt id='1278'> +1.4644428e-12 </wgt>
<wgt id='1279'> +1.4304201e-12 </wgt>
<wgt id='1280'> +1.4330477e-12 </wgt>
<wgt id='1281'> +1.4400813e-12 </wgt>
<wgt id='1282'> +1.4324003e-12 </wgt>
<wgt id='1283'> +1.4285725e-12 </wgt>
<wgt id='1284'> +1.4301807e-12 </wgt>
<wgt id='1285'> +1.4315882e-12 </wgt>
<wgt id='1286'> +1.4336926e-12 </wgt>
<wgt id='1287'> +1.4342550e-12 </wgt>
<wgt id='1288'> +1.4349704e-12 </wgt>
<wgt id='1289'> +1.6707752e-12 </wgt>
<wgt id='1290'> +1.6788189e-12 </wgt>
<wgt id='1291'> +1.6621889e-12 </wgt>
<wgt id='1292'> +1.6722269e-12 </wgt>
<wgt id='1293'> +1.6696638e-12 </wgt>
<wgt id='1294'> +1.6422787e-12 </wgt>
<wgt id='1295'> +1.6980496e-12 </wgt>
<wgt id='1296'> +1.6969815e-12 </wgt>
<wgt id='1297'> +1.6385177e-12 </wgt>
<wgt id='1298'> +1.6804384e-12 </wgt>
<wgt id='1299'> +1.6584239e-12 </wgt>
<wgt id='1300'> +1.6723183e-12 </wgt>
<wgt id='1301'> +1.6674917e-12 </wgt>
<wgt id='1302'> +1.6668625e-12 </wgt>
<wgt id='1303'> +1.6761713e-12 </wgt>
<wgt id='1304'> +1.6684203e-12 </wgt>
<wgt id='1305'> +1.6722548e-12 </wgt>
<wgt id='1306'> +1.6672056e-12 </wgt>
<wgt id='1307'> +1.6746780e-12 </wgt>
<wgt id='1308'> +1.6655475e-12 </wgt>
<wgt id='1309'> +1.6746740e-12 </wgt>
<wgt id='1310'> +1.6841347e-12 </wgt>
<wgt id='1311'> +1.6569465e-12 </wgt>
<wgt id='1312'> +1.6834934e-12 </wgt>
<wgt id='1313'> +1.6590488e-12 </wgt>
<wgt id='1314'> +1.6651022e-12 </wgt>
<wgt id='1315'> +1.6809081e-12 </wgt>
<wgt id='1316'> +1.6804970e-12 </wgt>
<wgt id='1317'> +1.6739187e-12 </wgt>
<wgt id='1318'> +1.6773516e-12 </wgt>
<wgt id='1319'> +1.6598915e-12 </wgt>
<wgt id='1320'> +1.6932983e-12 </wgt>
<wgt id='1321'> +1.6503587e-12 </wgt>
<wgt id='1322'> +1.6698458e-12 </wgt>
<wgt id='1323'> +1.6717607e-12 </wgt>
<wgt id='1324'> +1.6688193e-12 </wgt>
<wgt id='1325'> +1.6822917e-12 </wgt>
<wgt id='1326'> +1.6706355e-12 </wgt>
<wgt id='1327'> +1.6751000e-12 </wgt>
<wgt id='1328'> +1.6718578e-12 </wgt>
<wgt id='1329'> +1.6691663e-12 </wgt>
<wgt id='1330'> +1.6769674e-12 </wgt>
<wgt id='1331'> +1.6636188e-12 </wgt>
<wgt id='1332'> +1.6795143e-12 </wgt>
<wgt id='1333'> +1.6901016e-12 </wgt>
<wgt id='1334'> +1.6720263e-12 </wgt>
<wgt id='1335'> +1.6692291e-12 </wgt>
<wgt id='1336'> +1.6753306e-12 </wgt>
<wgt id='1337'> +1.6878953e-12 </wgt>
<wgt id='1338'> +1.6727146e-12 </wgt>
<wgt id='1339'> +1.6712775e-12 </wgt>
<wgt id='1340'> +1.6451441e-12 </wgt>
<wgt id='1341'> +1.6528715e-12 </wgt>
<wgt id='1342'> +1.6367886e-12 </wgt>
<wgt id='1343'> +1.6468227e-12 </wgt>
<wgt id='1344'> +1.6440152e-12 </wgt>
<wgt id='1345'> +1.6154287e-12 </wgt>
<wgt id='1346'> +1.6724331e-12 </wgt>
<wgt id='1347'> +1.6724439e-12 </wgt>
<wgt id='1348'> +1.6149349e-12 </wgt>
<wgt id='1349'> +1.6552076e-12 </wgt>
<wgt id='1350'> +1.6351334e-12 </wgt>
<wgt id='1351'> +1.6469412e-12 </wgt>
<wgt id='1352'> +1.6412100e-12 </wgt>
<wgt id='1353'> +1.6404866e-12 </wgt>
<wgt id='1354'> +1.6534667e-12 </wgt>
<wgt id='1355'> +1.6439746e-12 </wgt>
<wgt id='1356'> +1.6457571e-12 </wgt>
<wgt id='1357'> +1.6406080e-12 </wgt>
<wgt id='1358'> +1.6501779e-12 </wgt>
<wgt id='1359'> +1.6413033e-12 </wgt>
<wgt id='1360'> +1.6485585e-12 </wgt>
<wgt id='1361'> +1.6571368e-12 </wgt>
<wgt id='1362'> +1.6297369e-12 </wgt>
<wgt id='1363'> +1.6635014e-12 </wgt>
<wgt id='1364'> +1.6333995e-12 </wgt>
<wgt id='1365'> +1.6448982e-12 </wgt>
<wgt id='1366'> +1.6477590e-12 </wgt>
<wgt id='1367'> +1.6542680e-12 </wgt>
<wgt id='1368'> +1.6465904e-12 </wgt>
<wgt id='1369'> +1.6494119e-12 </wgt>
<wgt id='1370'> +1.6382362e-12 </wgt>
<wgt id='1371'> +1.6622734e-12 </wgt>
<wgt id='1372'> +1.6237550e-12 </wgt>
<wgt id='1373'> +1.6398787e-12 </wgt>
<wgt id='1374'> +1.6494999e-12 </wgt>
<wgt id='1375'> +1.6432134e-12 </wgt>
<wgt id='1376'> +1.6563502e-12 </wgt>
<wgt id='1377'> +1.6450622e-12 </wgt>
<wgt id='1378'> +1.6498136e-12 </wgt>
<wgt id='1379'> +1.6463402e-12 </wgt>
<wgt id='1380'> +1.6433658e-12 </wgt>
<wgt id='1381'> +1.6507682e-12 </wgt>
<wgt id='1382'> +1.6391720e-12 </wgt>
<wgt id='1383'> +1.6512398e-12 </wgt>
<wgt id='1384'> +1.6649292e-12 </wgt>
<wgt id='1385'> +1.6463305e-12 </wgt>
<wgt id='1386'> +1.6431425e-12 </wgt>
<wgt id='1387'> +1.6498456e-12 </wgt>
<wgt id='1388'> +1.6628507e-12 </wgt>
<wgt id='1389'> +1.6474012e-12 </wgt>
<wgt id='1390'> +1.6465186e-12 </wgt>
<wgt id='1391'> +1.6024674e-12 </wgt>
<wgt id='1392'> +1.5658306e-12 </wgt>
<wgt id='1393'> +1.5792829e-12 </wgt>
<wgt id='1394'> +1.5912740e-12 </wgt>
<wgt id='1395'> +1.6142858e-12 </wgt>
<wgt id='1396'> +1.6027565e-12 </wgt>
<wgt id='1397'> +1.5782044e-12 </wgt>
<wgt id='1398'> +1.5811177e-12 </wgt>
<wgt id='1399'> +1.5851555e-12 </wgt>
<wgt id='1400'> +1.5902299e-12 </wgt>
<wgt id='1401'> +1.5963093e-12 </wgt>
<wgt id='1402'> +1.6087058e-12 </wgt>
<wgt id='1403'> +1.6149094e-12 </wgt>
<wgt id='1404'> +1.6213861e-12 </wgt>
<wgt id='1405'> +1.6027565e-12 </wgt>
<wgt id='1406'> +1.5991946e-12 </wgt>
<wgt id='1407'> +1.6008699e-12 </wgt>
<wgt id='1408'> +1.6044259e-12 </wgt>
<wgt id='1409'> +1.6053072e-12 </wgt>
<wgt id='1410'> +1.4234870e-12 </wgt>
<wgt id='1411'> +1.4379253e-12 </wgt>
<wgt id='1412'> +1.4049613e-12 </wgt>
<wgt id='1413'> +1.4026167e-12 </wgt>
<wgt id='1414'> +1.4442445e-12 </wgt>
<wgt id='1415'> +1.4150253e-12 </wgt>
<wgt id='1416'> +1.4269108e-12 </wgt>
<wgt id='1417'> +1.4363237e-12 </wgt>
<wgt id='1418'> +1.4106898e-12 </wgt>
<wgt id='1419'> +1.4249275e-12 </wgt>
<wgt id='1420'> +1.4220836e-12 </wgt>
<wgt id='1421'> +1.4139438e-12 </wgt>
<wgt id='1422'> +1.4272990e-12 </wgt>
<wgt id='1423'> +1.4236849e-12 </wgt>
<wgt id='1424'> +1.4232278e-12 </wgt>
<wgt id='1425'> +1.4139729e-12 </wgt>
<wgt id='1426'> +1.4337600e-12 </wgt>
<wgt id='1427'> +1.4087208e-12 </wgt>
<wgt id='1428'> +1.4317814e-12 </wgt>
<wgt id='1429'> +1.4187743e-12 </wgt>
<wgt id='1430'> +1.4302883e-12 </wgt>
<wgt id='1431'> +1.4169519e-12 </wgt>
<wgt id='1432'> +1.4282830e-12 </wgt>
<wgt id='1433'> +1.4042900e-12 </wgt>
<wgt id='1434'> +1.4405616e-12 </wgt>
<wgt id='1435'> +1.4175622e-12 </wgt>
<wgt id='1436'> +1.4394380e-12 </wgt>
<wgt id='1437'> +1.4344902e-12 </wgt>
<wgt id='1438'> +1.4288035e-12 </wgt>
<wgt id='1439'> +1.4164231e-12 </wgt>
<wgt id='1440'> +1.4317337e-12 </wgt>
<wgt id='1441'> +1.4315659e-12 </wgt>
<wgt id='1442'> +1.4073202e-12 </wgt>
<wgt id='1443'> +1.4195698e-12 </wgt>
<wgt id='1444'> +1.4353113e-12 </wgt>
<wgt id='1445'> +1.4399061e-12 </wgt>
<wgt id='1446'> +1.4195230e-12 </wgt>
<wgt id='1447'> +1.4254812e-12 </wgt>
<wgt id='1448'> +1.4290271e-12 </wgt>
<wgt id='1449'> +1.4254230e-12 </wgt>
<wgt id='1450'> +1.4212179e-12 </wgt>
<wgt id='1451'> +1.4222808e-12 </wgt>
<wgt id='1452'> +1.4349013e-12 </wgt>
<wgt id='1453'> +1.4225848e-12 </wgt>
<wgt id='1454'> +1.4326037e-12 </wgt>
<wgt id='1455'> +1.4406202e-12 </wgt>
<wgt id='1456'> +1.4407931e-12 </wgt>
<wgt id='1457'> +1.4306010e-12 </wgt>
<wgt id='1458'> +1.4242056e-12 </wgt>
<wgt id='1459'> +1.4336519e-12 </wgt>
<wgt id='1460'> +1.4457470e-12 </wgt>
<wgt id='1461'> +1.4234870e-12 </wgt>
<wgt id='1462'> +1.4186082e-12 </wgt>
<wgt id='1463'> +1.4210582e-12 </wgt>
<wgt id='1464'> +1.4201794e-12 </wgt>
<wgt id='1465'> +1.3912137e-12 </wgt>
<wgt id='1466'> +1.3951644e-12 </wgt>
<wgt id='1467'> +1.4004204e-12 </wgt>
<wgt id='1468'> +1.4104080e-12 </wgt>
<wgt id='1469'> +1.4139039e-12 </wgt>
<wgt id='1470'> +1.4268186e-12 </wgt>
<wgt id='1471'> +1.4332401e-12 </wgt>
<wgt id='1472'> +1.4394506e-12 </wgt>
<wgt id='1473'> +1.4201794e-12 </wgt>
<wgt id='1474'> +1.4186674e-12 </wgt>
<wgt id='1475'> +1.4206110e-12 </wgt>
<wgt id='1476'> +1.4202973e-12 </wgt>
<wgt id='1477'> +1.4205771e-12 </wgt>
<wgt id='1478'> +1.5574689e-12 </wgt>
<wgt id='1479'> +1.5559910e-12 </wgt>
<wgt id='1480'> +1.5448406e-12 </wgt>
<wgt id='1481'> +1.6096913e-12 </wgt>
<wgt id='1482'> +1.5603468e-12 </wgt>
<wgt id='1483'> +1.5502529e-12 </wgt>
<wgt id='1484'> +1.5294306e-12 </wgt>
<wgt id='1485'> +1.5597832e-12 </wgt>
<wgt id='1486'> +1.5582003e-12 </wgt>
<wgt id='1487'> +1.5612506e-12 </wgt>
<wgt id='1488'> +1.5551812e-12 </wgt>
<wgt id='1489'> +1.5636196e-12 </wgt>
<wgt id='1490'> +1.5555061e-12 </wgt>
<wgt id='1491'> +1.5620346e-12 </wgt>
<wgt id='1492'> +1.5592775e-12 </wgt>
<wgt id='1493'> +1.5370663e-12 </wgt>
<wgt id='1494'> +1.5503621e-12 </wgt>
<wgt id='1495'> +1.5558144e-12 </wgt>
<wgt id='1496'> +1.5578477e-12 </wgt>
<wgt id='1497'> +1.5576358e-12 </wgt>
<wgt id='1498'> +1.5586584e-12 </wgt>
<wgt id='1499'> +1.5561894e-12 </wgt>
<wgt id='1500'> +1.5563971e-12 </wgt>
<wgt id='1501'> +1.5593469e-12 </wgt>
<wgt id='1502'> +1.5599755e-12 </wgt>
<wgt id='1503'> +1.5596058e-12 </wgt>
<wgt id='1504'> +1.5548263e-12 </wgt>
<wgt id='1505'> +1.5585896e-12 </wgt>
<wgt id='1506'> +1.5555727e-12 </wgt>
<wgt id='1507'> +1.5578686e-12 </wgt>
<wgt id='1508'> +1.5581653e-12 </wgt>
<wgt id='1509'> +1.4203607e-12 </wgt>
<wgt id='1510'> +1.4289901e-12 </wgt>
<wgt id='1511'> +1.3930641e-12 </wgt>
<wgt id='1512'> +1.4155688e-12 </wgt>
<wgt id='1513'> +1.4167072e-12 </wgt>
<wgt id='1514'> +1.4220703e-12 </wgt>
<wgt id='1515'> +1.4235469e-12 </wgt>
<wgt id='1516'> +1.4180907e-12 </wgt>
<wgt id='1517'> +1.4262242e-12 </wgt>
<wgt id='1518'> +1.4200883e-12 </wgt>
<wgt id='1519'> +1.4222667e-12 </wgt>
<wgt id='1520'> +1.4219946e-12 </wgt>
<wgt id='1521'> +1.4188880e-12 </wgt>
<wgt id='1522'> +1.4223750e-12 </wgt>
<wgt id='1523'> +1.4240576e-12 </wgt>
<wgt id='1524'> +1.4164969e-12 </wgt>
<wgt id='1525'> +1.4197050e-12 </wgt>
<wgt id='1526'> +1.4217951e-12 </wgt>
<wgt id='1527'> +1.4206593e-12 </wgt>
<wgt id='1528'> +1.4213821e-12 </wgt>
<wgt id='1529'> +1.4190152e-12 </wgt>
<wgt id='1530'> +1.4190384e-12 </wgt>
<wgt id='1531'> +1.4218425e-12 </wgt>
<wgt id='1532'> +1.4168627e-12 </wgt>
<wgt id='1533'> +1.4229377e-12 </wgt>
<wgt id='1534'> +1.4210887e-12 </wgt>
<wgt id='1535'> +1.4168965e-12 </wgt>
<wgt id='1536'> +1.4247818e-12 </wgt>
<wgt id='1537'> +1.4226394e-12 </wgt>
<wgt id='1538'> +1.4055166e-12 </wgt>
<wgt id='1539'> +1.4169824e-12 </wgt>
<wgt id='1540'> +1.4177362e-12 </wgt>
<wgt id='1541'> +1.4176258e-12 </wgt>
<wgt id='1542'> +1.4207754e-12 </wgt>
<wgt id='1543'> +1.4203219e-12 </wgt>
<wgt id='1544'> +1.4186398e-12 </wgt>
<wgt id='1545'> +1.4196502e-12 </wgt>
<wgt id='1546'> +1.4218991e-12 </wgt>
<wgt id='1547'> +1.4177079e-12 </wgt>
<wgt id='1548'> +1.4207061e-12 </wgt>
<wgt id='1549'> +1.4220087e-12 </wgt>
<wgt id='1550'> +1.4197961e-12 </wgt>
<wgt id='1551'> +1.4184529e-12 </wgt>
<wgt id='1552'> +1.4225395e-12 </wgt>
<wgt id='1553'> +1.4191961e-12 </wgt>
<wgt id='1554'> +1.4226557e-12 </wgt>
<wgt id='1555'> +1.4219449e-12 </wgt>
<wgt id='1556'> +1.4241896e-12 </wgt>
<wgt id='1557'> +1.4246782e-12 </wgt>
<wgt id='1558'> +1.4224606e-12 </wgt>
<wgt id='1559'> +1.4302555e-12 </wgt>
<wgt id='1560'> +1.4288424e-12 </wgt>
<wgt id='1561'> +1.4200481e-12 </wgt>
<wgt id='1562'> +1.4225564e-12 </wgt>
<wgt id='1563'> +1.4266997e-12 </wgt>
<wgt id='1564'> +1.4219119e-12 </wgt>
<wgt id='1565'> +1.4205341e-12 </wgt>
<wgt id='1566'> +1.4228110e-12 </wgt>
<wgt id='1567'> +1.4322044e-12 </wgt>
<wgt id='1568'> +1.4278271e-12 </wgt>
<wgt id='1569'> +1.4210169e-12 </wgt>
<wgt id='1570'> +1.4242883e-12 </wgt>
<wgt id='1571'> +1.4195724e-12 </wgt>
<wgt id='1572'> +1.4229123e-12 </wgt>
<wgt id='1573'> +1.4252080e-12 </wgt>
<wgt id='1574'> +1.4227771e-12 </wgt>
<wgt id='1575'> +1.4182077e-12 </wgt>
<wgt id='1576'> +1.4232381e-12 </wgt>
<wgt id='1577'> +1.4176230e-12 </wgt>
<wgt id='1578'> +1.4219531e-12 </wgt>
<wgt id='1579'> +1.4173851e-12 </wgt>
<wgt id='1580'> +1.4225841e-12 </wgt>
<wgt id='1581'> +1.4176561e-12 </wgt>
<wgt id='1582'> +1.4174869e-12 </wgt>
<wgt id='1583'> +1.4213883e-12 </wgt>
<wgt id='1584'> +1.4198153e-12 </wgt>
<wgt id='1585'> +1.4232899e-12 </wgt>
<wgt id='1586'> +1.4194260e-12 </wgt>
<wgt id='1587'> +1.4240268e-12 </wgt>
<wgt id='1588'> +1.4229524e-12 </wgt>
<wgt id='1589'> +1.4219963e-12 </wgt>
<wgt id='1590'> +1.4161564e-12 </wgt>
<wgt id='1591'> +1.4191327e-12 </wgt>
<wgt id='1592'> +1.4228763e-12 </wgt>
<wgt id='1593'> +1.4233076e-12 </wgt>
<wgt id='1594'> +1.4205599e-12 </wgt>
<wgt id='1595'> +1.4175344e-12 </wgt>
<wgt id='1596'> +1.4237128e-12 </wgt>
<wgt id='1597'> +1.4158879e-12 </wgt>
<wgt id='1598'> +1.4222314e-12 </wgt>
<wgt id='1599'> +1.4194936e-12 </wgt>
<wgt id='1600'> +1.4214738e-12 </wgt>
<wgt id='1601'> +1.4188121e-12 </wgt>
<wgt id='1602'> +1.4234457e-12 </wgt>
<wgt id='1603'> +1.4226484e-12 </wgt>
<wgt id='1604'> +1.4192920e-12 </wgt>
<wgt id='1605'> +1.4210476e-12 </wgt>
<wgt id='1606'> +1.4235749e-12 </wgt>
<wgt id='1607'> +1.4203089e-12 </wgt>
<wgt id='1608'> +1.4213431e-12 </wgt>
<wgt id='1609'> +1.4212156e-12 </wgt>
<wgt id='1610'> +1.4039051e-12 </wgt>
<wgt id='1611'> +1.4321871e-12 </wgt>
<wgt id='1612'> +1.5730904e-12 </wgt>
<wgt id='1613'> +1.5159050e-12 </wgt>
<wgt id='1614'> +1.4755477e-12 </wgt>
<wgt id='1615'> +1.4702740e-12 </wgt>
<wgt id='1616'> +1.4832222e-12 </wgt>
<wgt id='1617'> +1.4844116e-12 </wgt>
<wgt id='1618'> +1.5658245e-12 </wgt>
<wgt id='1619'> +1.5246109e-12 </wgt>
<wgt id='1620'> +1.5507901e-12 </wgt>
<wgt id='1621'> +1.6210625e-12 </wgt>
<wgt id='1622'> +1.5795060e-12 </wgt>
<wgt id='1623'> +1.6341018e-12 </wgt>
<wgt id='1624'> +1.6396505e-12 </wgt>
<wgt id='1625'> +1.4674478e-12 </wgt>
<wgt id='1626'> +1.5485248e-12 </wgt>
<wgt id='1627'> +1.6582329e-12 </wgt>
<wgt id='1628'> +1.5412699e-12 </wgt>
<wgt id='1629'> +1.5657773e-12 </wgt>
<wgt id='1630'> +1.5574617e-12 </wgt>
<wgt id='1631'> +1.5514362e-12 </wgt>
<wgt id='1632'> +1.5234083e-12 </wgt>
<wgt id='1633'> +1.4470416e-12 </wgt>
<wgt id='1634'> +1.5979466e-12 </wgt>
<wgt id='1635'> +1.5642864e-12 </wgt>
<wgt id='1636'> +1.4772040e-12 </wgt>
<wgt id='1637'> +1.6028550e-12 </wgt>
<wgt id='1638'> +1.6353614e-12 </wgt>
<wgt id='1639'> +1.5562049e-12 </wgt>
<wgt id='1640'> +1.5853586e-12 </wgt>
<wgt id='1641'> +1.5776219e-12 </wgt>
<wgt id='1642'> +1.5009149e-12 </wgt>
<wgt id='1643'> +1.4343772e-12 </wgt>
<wgt id='1644'> +1.5874761e-12 </wgt>
<wgt id='1645'> +1.5337867e-12 </wgt>
<wgt id='1646'> +1.5592353e-12 </wgt>
<wgt id='1647'> +1.6504068e-12 </wgt>
<wgt id='1648'> +1.5558813e-12 </wgt>
<wgt id='1649'> +1.6536911e-12 </wgt>
<wgt id='1650'> +1.5026574e-12 </wgt>
<wgt id='1651'> +1.6963793e-12 </wgt>
<wgt id='1652'> +1.5376105e-12 </wgt>
<wgt id='1653'> +1.5863832e-12 </wgt>
<wgt id='1654'> +1.5888846e-12 </wgt>
<wgt id='1655'> +1.6036486e-12 </wgt>
<wgt id='1656'> +1.4674062e-12 </wgt>
<wgt id='1657'> +1.5878161e-12 </wgt>
<wgt id='1658'> +1.5237155e-12 </wgt>
<wgt id='1659'> +1.6396505e-12 </wgt>
<wgt id='1660'> +1.5776609e-12 </wgt>
<wgt id='1661'> +1.6501295e-12 </wgt>
<wgt id='1662'> +1.6499207e-12 </wgt>
<wgt id='1663'> +1.6190627e-12 </wgt>
<wgt id='1664'> +1.5813118e-12 </wgt>
<wgt id='1665'> +1.5638384e-12 </wgt>
<wgt id='1666'> +1.5772162e-12 </wgt>
<wgt id='1667'> +1.5665215e-12 </wgt>
<wgt id='1668'> +1.6242510e-12 </wgt>
<wgt id='1669'> +1.6578339e-12 </wgt>
<wgt id='1670'> +1.5130497e-12 </wgt>
<wgt id='1671'> +1.5957529e-12 </wgt>
<wgt id='1672'> +1.6455203e-12 </wgt>
<wgt id='1673'> +1.6200630e-12 </wgt>
<wgt id='1674'> +1.5589520e-12 </wgt>
<wgt id='1675'> +1.5545897e-12 </wgt>
<wgt id='1676'> +1.5371328e-12 </wgt>
<wgt id='1677'> +1.5246590e-12 </wgt>
<wgt id='1678'> +1.5303206e-12 </wgt>
<wgt id='1679'> +1.5932325e-12 </wgt>
<wgt id='1680'> +1.5870039e-12 </wgt>
<wgt id='1681'> +1.6100174e-12 </wgt>
<wgt id='1682'> +1.5123836e-12 </wgt>
<wgt id='1683'> +1.6261091e-12 </wgt>
<wgt id='1684'> +1.6753155e-12 </wgt>
<wgt id='1685'> +1.5872791e-12 </wgt>
<wgt id='1686'> +1.5433117e-12 </wgt>
<wgt id='1687'> +1.5402470e-12 </wgt>
<wgt id='1688'> +1.5455419e-12 </wgt>
<wgt id='1689'> +1.6100731e-12 </wgt>
<wgt id='1690'> +1.6359176e-12 </wgt>
<wgt id='1691'> +1.4952304e-12 </wgt>
<wgt id='1692'> +1.5923385e-12 </wgt>
<wgt id='1693'> +1.5746019e-12 </wgt>
<wgt id='1694'> +1.5053222e-12 </wgt>
<wgt id='1695'> +1.6642156e-12 </wgt>
<wgt id='1696'> +1.6124016e-12 </wgt>
<wgt id='1697'> +1.5880839e-12 </wgt>
<wgt id='1698'> +1.6215074e-12 </wgt>
<wgt id='1699'> +1.6274501e-12 </wgt>
<wgt id='1700'> +1.5126218e-12 </wgt>
<wgt id='1701'> +1.5947736e-12 </wgt>
<wgt id='1702'> +1.5388459e-12 </wgt>
<wgt id='1703'> +1.5897733e-12 </wgt>
<wgt id='1704'> +1.4633479e-12 </wgt>
<wgt id='1705'> +1.5374316e-12 </wgt>
<wgt id='1706'> +1.6382818e-12 </wgt>
<wgt id='1707'> +1.6232263e-12 </wgt>
<wgt id='1708'> +1.6975622e-12 </wgt>
<wgt id='1709'> +1.6191907e-12 </wgt>
<wgt id='1710'> +1.5874198e-12 </wgt>
<wgt id='1711'> +1.5270492e-12 </wgt>
<wgt id='1712'> +1.6499519e-12 </wgt>
<wgt id='1713'> +1.5066930e-12 </wgt>
<wgt id='1714'> +1.4992124e-12 </wgt>
<wgt id='1715'> +1.4054011e-12 </wgt>
<wgt id='1716'> +1.5207046e-12 </wgt>
<wgt id='1717'> +1.5332202e-12 </wgt>
<wgt id='1718'> +1.5508393e-12 </wgt>
<wgt id='1719'> +1.5052922e-12 </wgt>
<wgt id='1720'> +1.4413736e-12 </wgt>
<wgt id='1721'> +1.4399618e-12 </wgt>
<wgt id='1722'> +1.5125559e-12 </wgt>
<wgt id='1723'> +1.6098520e-12 </wgt>
<wgt id='1724'> +1.4827621e-12 </wgt>
<wgt id='1725'> +1.5316385e-12 </wgt>
<wgt id='1726'> +1.4622960e-12 </wgt>
<wgt id='1727'> +1.5998740e-12 </wgt>
<wgt id='1728'> +1.4585305e-12 </wgt>
<wgt id='1729'> +1.4483647e-12 </wgt>
<wgt id='1730'> +1.4740309e-12 </wgt>
<wgt id='1731'> +1.4596441e-12 </wgt>
<wgt id='1732'> +1.5122865e-12 </wgt>
<wgt id='1733'> +1.4481362e-12 </wgt>
<wgt id='1734'> +1.5969610e-12 </wgt>
<wgt id='1735'> +1.5205824e-12 </wgt>
<wgt id='1736'> +1.5186011e-12 </wgt>
<wgt id='1737'> +1.5838927e-12 </wgt>
<wgt id='1738'> +1.4588128e-12 </wgt>
<wgt id='1739'> +1.5390690e-12 </wgt>
<wgt id='1740'> +1.4400673e-12 </wgt>
<wgt id='1741'> +1.5840892e-12 </wgt>
<wgt id='1742'> +1.4905953e-12 </wgt>
<wgt id='1743'> +1.4569628e-12 </wgt>
<wgt id='1744'> +1.5370583e-12 </wgt>
<wgt id='1745'> +1.5281611e-12 </wgt>
<wgt id='1746'> +1.4760957e-12 </wgt>
<wgt id='1747'> +1.6049321e-12 </wgt>
<wgt id='1748'> +1.5414504e-12 </wgt>
<wgt id='1749'> +1.5108170e-12 </wgt>
<wgt id='1750'> +1.4434115e-12 </wgt>
<wgt id='1751'> +1.5107302e-12 </wgt>
<wgt id='1752'> +1.5341358e-12 </wgt>
<wgt id='1753'> +1.5177185e-12 </wgt>
<wgt id='1754'> +1.5436599e-12 </wgt>
<wgt id='1755'> +1.4958967e-12 </wgt>
<wgt id='1756'> +1.5423779e-12 </wgt>
<wgt id='1757'> +1.5611596e-12 </wgt>
<wgt id='1758'> +1.6048015e-12 </wgt>
<wgt id='1759'> +1.5743764e-12 </wgt>
<wgt id='1760'> +1.4840632e-12 </wgt>
<wgt id='1761'> +1.5090857e-12 </wgt>
<wgt id='1762'> +1.4393563e-12 </wgt>
<wgt id='1763'> +1.5185346e-12 </wgt>
<wgt id='1764'> +1.5840671e-12 </wgt>
<wgt id='1765'> +1.4871866e-12 </wgt>
<wgt id='1766'> +1.5338813e-12 </wgt>
<wgt id='1767'> +1.4772821e-12 </wgt>
<wgt id='1768'> +1.5403628e-12 </wgt>
<wgt id='1769'> +1.5345295e-12 </wgt>
<wgt id='1770'> +1.5046019e-12 </wgt>
<wgt id='1771'> +1.5562966e-12 </wgt>
<wgt id='1772'> +1.4481787e-12 </wgt>
<wgt id='1773'> +1.4924867e-12 </wgt>
<wgt id='1774'> +1.4546850e-12 </wgt>
<wgt id='1775'> +1.4552752e-12 </wgt>
<wgt id='1776'> +1.6557573e-12 </wgt>
<wgt id='1777'> +1.4491505e-12 </wgt>
<wgt id='1778'> +1.5728076e-12 </wgt>
<wgt id='1779'> +1.5009975e-12 </wgt>
<wgt id='1780'> +1.5442474e-12 </wgt>
<wgt id='1781'> +1.5513467e-12 </wgt>
<wgt id='1782'> +1.5495720e-12 </wgt>
<wgt id='1783'> +1.5102845e-12 </wgt>
<wgt id='1784'> +1.5129802e-12 </wgt>
<wgt id='1785'> +1.4922520e-12 </wgt>
<wgt id='1786'> +1.5233952e-12 </wgt>
<wgt id='1787'> +1.6359655e-12 </wgt>
<wgt id='1788'> +1.4181493e-12 </wgt>
<wgt id='1789'> +1.5569866e-12 </wgt>
<wgt id='1790'> +1.4974334e-12 </wgt>
<wgt id='1791'> +1.4536627e-12 </wgt>
<wgt id='1792'> +1.4902730e-12 </wgt>
<wgt id='1793'> +1.4709823e-12 </wgt>
<wgt id='1794'> +1.5332454e-12 </wgt>
<wgt id='1795'> +1.4881494e-12 </wgt>
<wgt id='1796'> +1.4674487e-12 </wgt>
<wgt id='1797'> +1.5454455e-12 </wgt>
<wgt id='1798'> +1.4539221e-12 </wgt>
<wgt id='1799'> +1.4698287e-12 </wgt>
<wgt id='1800'> +1.5031714e-12 </wgt>
<wgt id='1801'> +1.4776957e-12 </wgt>
<wgt id='1802'> +1.4585549e-12 </wgt>
<wgt id='1803'> +1.5030164e-12 </wgt>
<wgt id='1804'> +1.5547046e-12 </wgt>
<wgt id='1805'> +1.4827692e-12 </wgt>
<wgt id='1806'> +1.5038490e-12 </wgt>
<wgt id='1807'> +1.4731446e-12 </wgt>
<wgt id='1808'> +1.4141854e-12 </wgt>
<wgt id='1809'> +1.4789881e-12 </wgt>
<wgt id='1810'> +1.4785719e-12 </wgt>
<wgt id='1811'> +1.5147766e-12 </wgt>
<wgt id='1812'> +1.4579159e-12 </wgt>
<wgt id='1813'> +1.4004073e-12 </wgt>
<wgt id='1814'> +2.3455966e-12 </wgt>
<wgt id='1815'> +2.8662502e-12 </wgt>
<wgt id='1816'> +1.5066930e-12 </wgt>
<wgt id='1817'> +1.4992124e-12 </wgt>
<wgt id='1818'> +1.4054011e-12 </wgt>
<wgt id='1819'> +1.5207046e-12 </wgt>
<wgt id='1820'> +1.5332202e-12 </wgt>
<wgt id='1821'> +1.5508393e-12 </wgt>
<wgt id='1822'> +1.5052922e-12 </wgt>
<wgt id='1823'> +1.4413736e-12 </wgt>
<wgt id='1824'> +1.4399618e-12 </wgt>
<wgt id='1825'> +1.5125559e-12 </wgt>
<wgt id='1826'> +1.6098520e-12 </wgt>
<wgt id='1827'> +1.4827621e-12 </wgt>
<wgt id='1828'> +1.5316385e-12 </wgt>
<wgt id='1829'> +1.4622960e-12 </wgt>
<wgt id='1830'> +1.5998740e-12 </wgt>
<wgt id='1831'> +1.4585305e-12 </wgt>
<wgt id='1832'> +1.4483647e-12 </wgt>
<wgt id='1833'> +1.4740309e-12 </wgt>
<wgt id='1834'> +1.4596441e-12 </wgt>
<wgt id='1835'> +1.5122865e-12 </wgt>
<wgt id='1836'> +1.4481362e-12 </wgt>
<wgt id='1837'> +1.5969610e-12 </wgt>
<wgt id='1838'> +1.5205824e-12 </wgt>
<wgt id='1839'> +1.5186011e-12 </wgt>
<wgt id='1840'> +1.5838927e-12 </wgt>
<wgt id='1841'> +1.4588128e-12 </wgt>
<wgt id='1842'> +1.5390690e-12 </wgt>
<wgt id='1843'> +1.4400673e-12 </wgt>
<wgt id='1844'> +1.5840892e-12 </wgt>
<wgt id='1845'> +1.4905953e-12 </wgt>
<wgt id='1846'> +1.4569628e-12 </wgt>
<wgt id='1847'> +1.5370583e-12 </wgt>
<wgt id='1848'> +1.5281611e-12 </wgt>
<wgt id='1849'> +1.4760957e-12 </wgt>
<wgt id='1850'> +1.6049321e-12 </wgt>
<wgt id='1851'> +1.5414504e-12 </wgt>
<wgt id='1852'> +1.5108170e-12 </wgt>
<wgt id='1853'> +1.4434115e-12 </wgt>
<wgt id='1854'> +1.5107302e-12 </wgt>
<wgt id='1855'> +1.5341358e-12 </wgt>
<wgt id='1856'> +1.5177185e-12 </wgt>
<wgt id='1857'> +1.5436599e-12 </wgt>
<wgt id='1858'> +1.4958967e-12 </wgt>
<wgt id='1859'> +1.5423779e-12 </wgt>
<wgt id='1860'> +1.5611596e-12 </wgt>
<wgt id='1861'> +1.6048015e-12 </wgt>
<wgt id='1862'> +1.5743764e-12 </wgt>
<wgt id='1863'> +1.4840632e-12 </wgt>
<wgt id='1864'> +1.5090857e-12 </wgt>
<wgt id='1865'> +1.4393563e-12 </wgt>
<wgt id='1866'> +1.5185346e-12 </wgt>
<wgt id='1867'> +1.5840671e-12 </wgt>
<wgt id='1868'> +1.4871866e-12 </wgt>
<wgt id='1869'> +1.5338813e-12 </wgt>
<wgt id='1870'> +1.4772821e-12 </wgt>
<wgt id='1871'> +1.5403628e-12 </wgt>
<wgt id='1872'> +1.5345295e-12 </wgt>
<wgt id='1873'> +1.5046019e-12 </wgt>
<wgt id='1874'> +1.5562966e-12 </wgt>
<wgt id='1875'> +1.4481787e-12 </wgt>
<wgt id='1876'> +1.4924867e-12 </wgt>
<wgt id='1877'> +1.4546850e-12 </wgt>
<wgt id='1878'> +1.4552752e-12 </wgt>
<wgt id='1879'> +1.6557573e-12 </wgt>
<wgt id='1880'> +1.4491505e-12 </wgt>
<wgt id='1881'> +1.5728076e-12 </wgt>
<wgt id='1882'> +1.5009975e-12 </wgt>
<wgt id='1883'> +1.5442474e-12 </wgt>
<wgt id='1884'> +1.5513467e-12 </wgt>
<wgt id='1885'> +1.5495720e-12 </wgt>
<wgt id='1886'> +1.5102845e-12 </wgt>
<wgt id='1887'> +1.5129802e-12 </wgt>
<wgt id='1888'> +1.4922520e-12 </wgt>
<wgt id='1889'> +1.5233952e-12 </wgt>
<wgt id='1890'> +1.6359655e-12 </wgt>
<wgt id='1891'> +1.4181493e-12 </wgt>
<wgt id='1892'> +1.5569866e-12 </wgt>
<wgt id='1893'> +1.4974334e-12 </wgt>
<wgt id='1894'> +1.4536627e-12 </wgt>
<wgt id='1895'> +1.4902730e-12 </wgt>
<wgt id='1896'> +1.4709823e-12 </wgt>
<wgt id='1897'> +1.5332454e-12 </wgt>
<wgt id='1898'> +1.4881494e-12 </wgt>
<wgt id='1899'> +1.4674487e-12 </wgt>
<wgt id='1900'> +1.5454455e-12 </wgt>
<wgt id='1901'> +1.4539221e-12 </wgt>
<wgt id='1902'> +1.4698287e-12 </wgt>
<wgt id='1903'> +1.5031714e-12 </wgt>
<wgt id='1904'> +1.4776957e-12 </wgt>
<wgt id='1905'> +1.4585549e-12 </wgt>
<wgt id='1906'> +1.5030164e-12 </wgt>
<wgt id='1907'> +1.5547046e-12 </wgt>
<wgt id='1908'> +1.4827692e-12 </wgt>
<wgt id='1909'> +1.5038490e-12 </wgt>
<wgt id='1910'> +1.4731446e-12 </wgt>
<wgt id='1911'> +1.4141854e-12 </wgt>
<wgt id='1912'> +1.4789881e-12 </wgt>
<wgt id='1913'> +1.4785719e-12 </wgt>
<wgt id='1914'> +1.5147766e-12 </wgt>
<wgt id='1915'> +1.4579159e-12 </wgt>
<wgt id='1916'> +1.4004073e-12 </wgt>
<wgt id='1917'> +1.5076108e-12 </wgt>
<wgt id='1918'> +1.5258957e-12 </wgt>
<wgt id='1919'> +1.4082207e-12 </wgt>
</rwgt>
</event>
<event>
 9      1 +1.5607000e-12 7.74691100e+01 7.81860800e-03 1.21292400e-01
       -2 -1    0    0    0  501 -0.0000000000e+00 +0.0000000000e+00 +1.5079253896e+00 1.5079253896e+00 0.0000000000e+00 0.0000e+00 -1.0000e+00
        2 -1    0    0  502    0 +0.0000000000e+00 -0.0000000000e+00 -3.9114488252e+03 3.9114488252e+03 0.0000000000e+00 0.0000e+00 1.0000e+00
     1023  2    1    2    0    0 +6.4531260696e+01 +4.0152176558e+01 -1.8941178558e+03 1.8957014306e+03 1.4999392672e+01 0.0000e+00 0.0000e+00
  1000023  2    3    3    0    0 +1.1367539823e+01 +7.3125104401e+00 -4.1209546141e+02 4.1235379700e+02 5.5037097218e+00 0.0000e+00 0.0000e+00
       21  1    1    2  502  501 -6.4531260696e+01 -4.0152176558e+01 -2.0158230441e+03 2.0172553200e+03 0.0000000000e+00 0.0000e+00 1.0000e+00
  1000022  1    4    4    0    0 +1.0036612442e+01 +6.8377240311e+00 -3.6374638509e+02 3.6398340721e+02 5.0000000000e+00 0.0000e+00 -1.0000e+00
      -13  1    4    4    0    0 +3.1130765881e-01 +1.0307892418e-01 -1.0921870489e+01 1.0927303656e+01 1.0570000000e-01 0.0000e+00 1.0000e+00
       13  1    4    4    0    0 +1.0196197219e+00 +3.7170748478e-01 -3.7427205829e+01 3.7443086138e+01 1.0570000000e-01 0.0000e+00 -1.0000e+00
  1000022  1    3    3    0    0 +5.3163720873e+01 +3.2839666118e+01 -1.4820223943e+03 1.4833476336e+03 5.0000000000e+00 0.0000e+00 -1.0000e+00
<mgrwt>
<rscale>  1 0.77469108E+02</rscale>
<asrwt>0</asrwt>
<pdfrwt beam="1">  1        2 0.60174427E+00 0.77469108E+02</pdfrwt>
<pdfrwt beam="2">  1       -2 0.23199511E-03 0.77469108E+02</pdfrwt>
<totfact> 0.82885670E+03</totfact>
</mgrwt>
<rwgt>
<wgt id='1001'> +1.5607000e-12 </wgt>
<wgt id='1002'> +1.3907868e-12 </wgt>
<wgt id='1003'> +1.3889540e-12 </wgt>
<wgt id='1004'> +1.5636923e-12 </wgt>
<wgt id='1005'> +1.3884430e-12 </wgt>
<wgt id='1006'> +1.3956883e-12 </wgt>
<wgt id='1007'> +1.2581653e-12 </wgt>
<wgt id='1008'> +1.2566593e-12 </wgt>
<wgt id='1009'> +1.3980732e-12 </wgt>
<wgt id='1010'> +1.2562393e-12 </wgt>
<wgt id='1011'> +1.7717478e-12 </wgt>
<wgt id='1012'> +1.5557790e-12 </wgt>
<wgt id='1013'> +1.5534928e-12 </wgt>
<wgt id='1014'> +1.7756285e-12 </wgt>
<wgt id='1015'> +1.5528555e-12 </wgt>
<wgt id='1016'> +1.5503576e-12 </wgt>
<wgt id='1017'> +1.3740163e-12 </wgt>
<wgt id='1018'> +1.3721375e-12 </wgt>
<wgt id='1019'> +1.5534928e-12 </wgt>
<wgt id='1020'> +1.3716137e-12 </wgt>
<wgt id='1021'> +1.3864394e-12 </wgt>
<wgt id='1022'> +1.2429940e-12 </wgt>
<wgt id='1023'> +1.2414445e-12 </wgt>
<wgt id='1024'> +1.3889540e-12 </wgt>
<wgt id='1025'> +1.2410125e-12 </wgt>
<wgt id='1026'> +1.7600068e-12 </wgt>
<wgt id='1027'> +1.5370190e-12 </wgt>
<wgt id='1028'> +1.5346842e-12 </wgt>
<wgt id='1029'> +1.7640466e-12 </wgt>
<wgt id='1030'> +1.5340334e-12 </wgt>
<wgt id='1031'> +1.5588172e-12 </wgt>
<wgt id='1032'> +1.3998112e-12 </wgt>
<wgt id='1033'> +1.3980732e-12 </wgt>
<wgt id='1034'> +1.5615750e-12 </wgt>
<wgt id='1035'> +1.3975885e-12 </wgt>
<wgt id='1036'> +1.3940046e-12 </wgt>
<wgt id='1037'> +1.2663292e-12 </wgt>
<wgt id='1038'> +1.2649099e-12 </wgt>
<wgt id='1039'> +1.3961801e-12 </wgt>
<wgt id='1040'> +1.2645141e-12 </wgt>
<wgt id='1041'> +1.7696104e-12 </wgt>
<wgt id='1042'> +1.5658740e-12 </wgt>
<wgt id='1043'> +1.5636923e-12 </wgt>
<wgt id='1044'> +1.7732241e-12 </wgt>
<wgt id='1045'> +1.5630841e-12 </wgt>
<wgt id='1046'> +1.5607000e-12 </wgt>
<wgt id='1047'> +1.7433279e-12 </wgt>
<wgt id='1048'> +1.6128407e-12 </wgt>
<wgt id='1049'> +1.4050168e-12 </wgt>
<wgt id='1050'> +1.4517721e-12 </wgt>
<wgt id='1051'> +1.5635319e-12 </wgt>
<wgt id='1052'> +1.6907727e-12 </wgt>
<wgt id='1053'> +1.3875192e-12 </wgt>
<wgt id='1054'> +1.6011340e-12 </wgt>
<wgt id='1055'> +1.7510606e-12 </wgt>
<wgt id='1056'> +1.6177971e-12 </wgt>
<wgt id='1057'> +1.4267764e-12 </wgt>
<wgt id='1058'> +1.5642788e-12 </wgt>
<wgt id='1059'> +1.4487646e-12 </wgt>
<wgt id='1060'> +1.7257476e-12 </wgt>
<wgt id='1061'> +1.5098163e-12 </wgt>
<wgt id='1062'> +1.5096144e-12 </wgt>
<wgt id='1063'> +1.4262559e-12 </wgt>
<wgt id='1064'> +1.6116045e-12 </wgt>
<wgt id='1065'> +1.5361184e-12 </wgt>
<wgt id='1066'> +1.3929105e-12 </wgt>
<wgt id='1067'> +1.7840973e-12 </wgt>
<wgt id='1068'> +1.8208815e-12 </wgt>
<wgt id='1069'> +1.5432517e-12 </wgt>
<wgt id='1070'> +1.5180075e-12 </wgt>
<wgt id='1071'> +1.6688208e-12 </wgt>
<wgt id='1072'> +1.7696707e-12 </wgt>
<wgt id='1073'> +1.6293122e-12 </wgt>
<wgt id='1074'> +1.5723374e-12 </wgt>
<wgt id='1075'> +1.3975682e-12 </wgt>
<wgt id='1076'> +1.4515977e-12 </wgt>
<wgt id='1077'> +1.6160784e-12 </wgt>
<wgt id='1078'> +1.3760047e-12 </wgt>
<wgt id='1079'> +1.7407087e-12 </wgt>
<wgt id='1080'> +1.4677434e-12 </wgt>
<wgt id='1081'> +1.5713135e-12 </wgt>
<wgt id='1082'> +1.5163912e-12 </wgt>
<wgt id='1083'> +1.2772842e-12 </wgt>
<wgt id='1084'> +1.5027225e-12 </wgt>
<wgt id='1085'> +1.5494968e-12 </wgt>
<wgt id='1086'> +1.7190967e-12 </wgt>
<wgt id='1087'> +1.5191253e-12 </wgt>
<wgt id='1088'> +1.6624351e-12 </wgt>
<wgt id='1089'> +1.4661844e-12 </wgt>
<wgt id='1090'> +1.5836221e-12 </wgt>
<wgt id='1091'> +1.5126064e-12 </wgt>
<wgt id='1092'> +1.5724496e-12 </wgt>
<wgt id='1093'> +1.6761122e-12 </wgt>
<wgt id='1094'> +1.6796836e-12 </wgt>
<wgt id='1095'> +1.4989020e-12 </wgt>
<wgt id='1096'> +1.6376052e-12 </wgt>
<wgt id='1097'> +1.9878383e-12 </wgt>
<wgt id='1098'> +1.5344562e-12 </wgt>
<wgt id='1099'> +1.6046807e-12 </wgt>
<wgt id='1100'> +2.0104280e-12 </wgt>
<wgt id='1101'> +1.5457950e-12 </wgt>
<wgt id='1102'> +1.5306656e-12 </wgt>
<wgt id='1103'> +1.1952256e-12 </wgt>
<wgt id='1104'> +1.6779369e-12 </wgt>
<wgt id='1105'> +1.5288371e-12 </wgt>
<wgt id='1106'> +1.8356456e-12 </wgt>
<wgt id='1107'> +1.5998372e-12 </wgt>
<wgt id='1108'> +1.4881507e-12 </wgt>
<wgt id='1109'> +1.4217099e-12 </wgt>
<wgt id='1110'> +1.6592418e-12 </wgt>
<wgt id='1111'> +1.7255583e-12 </wgt>
<wgt id='1112'> +1.6566439e-12 </wgt>
<wgt id='1113'> +1.6608246e-12 </wgt>
<wgt id='1114'> +1.6586619e-12 </wgt>
<wgt id='1115'> +1.6074789e-12 </wgt>
<wgt id='1116'> +1.5986698e-12 </wgt>
<wgt id='1117'> +1.5383841e-12 </wgt>
<wgt id='1118'> +1.5070980e-12 </wgt>
<wgt id='1119'> +1.5427948e-12 </wgt>
<wgt id='1120'> +1.6106188e-12 </wgt>
<wgt id='1121'> +1.4578590e-12 </wgt>
<wgt id='1122'> +1.5887328e-12 </wgt>
<wgt id='1123'> +1.4547103e-12 </wgt>
<wgt id='1124'> +1.5064720e-12 </wgt>
<wgt id='1125'> +1.6255528e-12 </wgt>
<wgt id='1126'> +1.3968833e-12 </wgt>
<wgt id='1127'> +1.5869343e-12 </wgt>
<wgt id='1128'> +1.5096144e-12 </wgt>
<wgt id='1129'> +1.5631718e-12 </wgt>
<wgt id='1130'> +1.4718738e-12 </wgt>
<wgt id='1131'> +1.3396677e-12 </wgt>
<wgt id='1132'> +1.3842355e-12 </wgt>
<wgt id='1133'> +1.6008855e-12 </wgt>
<wgt id='1134'> +1.2293937e-12 </wgt>
<wgt id='1135'> +1.3884361e-12 </wgt>
<wgt id='1136'> +1.3914484e-12 </wgt>
<wgt id='1137'> +1.3933219e-12 </wgt>
<wgt id='1138'> +1.5966650e-12 </wgt>
<wgt id='1139'> +1.5509876e-12 </wgt>
<wgt id='1140'> +1.7289953e-12 </wgt>
<wgt id='1141'> +1.4695522e-12 </wgt>
<wgt id='1142'> +1.5727838e-12 </wgt>
<wgt id='1143'> +1.6247519e-12 </wgt>
<wgt id='1144'> +1.5422855e-12 </wgt>
<wgt id='1145'> +1.6185721e-12 </wgt>
<wgt id='1146'> +1.4730608e-12 </wgt>
<wgt id='1147'> +1.4707031e-12 </wgt>
<wgt id='1148'> +1.4757649e-12 </wgt>
<wgt id='1149'> +1.5007406e-12 </wgt>
<wgt id='1150'> +1.5181178e-12 </wgt>
<wgt id='1151'> +1.8027495e-12 </wgt>
<wgt id='1152'> +2.3246808e-12 </wgt>
<wgt id='1153'> +2.3450049e-12 </wgt>
<wgt id='1154'> +2.3130541e-12 </wgt>
<wgt id='1155'> +2.3207289e-12 </wgt>
<wgt id='1156'> +2.3266734e-12 </wgt>
<wgt id='1157'> +2.3393062e-12 </wgt>
<wgt id='1158'> +2.3053738e-12 </wgt>
<wgt id='1159'> +2.3360237e-12 </wgt>
<wgt id='1160'> +2.3174671e-12 </wgt>
<wgt id='1161'> +2.3231508e-12 </wgt>
<wgt id='1162'> +2.3257819e-12 </wgt>
<wgt id='1163'> +2.3212140e-12 </wgt>
<wgt id='1164'> +2.3281951e-12 </wgt>
<wgt id='1165'> +2.3058992e-12 </wgt>
<wgt id='1166'> +2.3430854e-12 </wgt>
<wgt id='1167'> +2.3340405e-12 </wgt>
<wgt id='1168'> +2.3143678e-12 </wgt>
<wgt id='1169'> +2.3494201e-12 </wgt>
<wgt id='1170'> +2.3062766e-12 </wgt>
<wgt id='1171'> +2.3212064e-12 </wgt>
<wgt id='1172'> +2.3288958e-12 </wgt>
<wgt id='1173'> +2.3015340e-12 </wgt>
<wgt id='1174'> +2.3492342e-12 </wgt>
<wgt id='1175'> +2.3285825e-12 </wgt>
<wgt id='1176'> +2.3215806e-12 </wgt>
<wgt id='1177'> +2.3292019e-12 </wgt>
<wgt id='1178'> +2.3152656e-12 </wgt>
<wgt id='1179'> +2.3343688e-12 </wgt>
<wgt id='1180'> +2.3143281e-12 </wgt>
<wgt id='1181'> +2.3416820e-12 </wgt>
<wgt id='1182'> +2.3108095e-12 </wgt>
<wgt id='1183'> +2.3262561e-12 </wgt>
<wgt id='1184'> +2.3249984e-12 </wgt>
<wgt id='1185'> +2.3126510e-12 </wgt>
<wgt id='1186'> +2.3307047e-12 </wgt>
<wgt id='1187'> +2.3245622e-12 </wgt>
<wgt id='1188'> +2.3248058e-12 </wgt>
<wgt id='1189'> +2.3187986e-12 </wgt>
<wgt id='1190'> +2.2969267e-12 </wgt>
<wgt id='1191'> +2.3315033e-12 </wgt>
<wgt id='1192'> +2.3379760e-12 </wgt>
<wgt id='1193'> +1.5150794e-12 </wgt>
<wgt id='1194'> +1.4975956e-12 </wgt>
<wgt id='1195'> +1.5295153e-12 </wgt>
<wgt id='1196'> +1.5070370e-12 </wgt>
<wgt id='1197'> +1.5239659e-12 </wgt>
<wgt id='1198'> +1.5100738e-12 </wgt>
<wgt id='1199'> +1.5225855e-12 </wgt>
<wgt id='1200'> +1.5136899e-12 </wgt>
<wgt id='1201'> +1.5159533e-12 </wgt>
<wgt id='1202'> +1.5168641e-12 </wgt>
<wgt id='1203'> +1.5125556e-12 </wgt>
<wgt id='1204'> +1.5234829e-12 </wgt>
<wgt id='1205'> +1.5098199e-12 </wgt>
<wgt id='1206'> +1.5177731e-12 </wgt>
<wgt id='1207'> +1.5113821e-12 </wgt>
<wgt id='1208'> +1.5003613e-12 </wgt>
<wgt id='1209'> +1.5203807e-12 </wgt>
<wgt id='1210'> +1.5102839e-12 </wgt>
<wgt id='1211'> +1.5178416e-12 </wgt>
<wgt id='1212'> +1.5066570e-12 </wgt>
<wgt id='1213'> +1.5237122e-12 </wgt>
<wgt id='1214'> +1.4970415e-12 </wgt>
<wgt id='1215'> +1.5406420e-12 </wgt>
<wgt id='1216'> +1.5294026e-12 </wgt>
<wgt id='1217'> +1.5053970e-12 </wgt>
<wgt id='1218'> +1.5165180e-12 </wgt>
<wgt id='1219'> +1.5140613e-12 </wgt>
<wgt id='1220'> +1.5366092e-12 </wgt>
<wgt id='1221'> +1.5005086e-12 </wgt>
<wgt id='1222'> +1.5303174e-12 </wgt>
<wgt id='1223'> +1.4949369e-12 </wgt>
<wgt id='1224'> +1.5198174e-12 </wgt>
<wgt id='1225'> +1.5131025e-12 </wgt>
<wgt id='1226'> +1.5121989e-12 </wgt>
<wgt id='1227'> +1.5171060e-12 </wgt>
<wgt id='1228'> +1.5139564e-12 </wgt>
<wgt id='1229'> +1.5190917e-12 </wgt>
<wgt id='1230'> +1.5162660e-12 </wgt>
<wgt id='1231'> +1.5296681e-12 </wgt>
<wgt id='1232'> +1.5162826e-12 </wgt>
<wgt id='1233'> +1.5151203e-12 </wgt>
<wgt id='1234'> +1.5150794e-12 </wgt>
<wgt id='1235'> +1.5087638e-12 </wgt>
<wgt id='1236'> +1.5112402e-12 </wgt>
<wgt id='1237'> +1.5134238e-12 </wgt>
<wgt id='1238'> +1.5168945e-12 </wgt>
<wgt id='1239'> +1.5186513e-12 </wgt>
<wgt id='1240'> +1.5199949e-12 </wgt>
<wgt id='1241'> +1.4840662e-12 </wgt>
<wgt id='1242'> +1.4696217e-12 </wgt>
<wgt id='1243'> +1.4983075e-12 </wgt>
<wgt id='1244'> +1.5032070e-12 </wgt>
<wgt id='1245'> +1.4701222e-12 </wgt>
<wgt id='1246'> +1.4799684e-12 </wgt>
<wgt id='1247'> +1.4875747e-12 </wgt>
<wgt id='1248'> +1.4842258e-12 </wgt>
<wgt id='1249'> +1.4839159e-12 </wgt>
<wgt id='1250'> +1.4905616e-12 </wgt>
<wgt id='1251'> +1.4795954e-12 </wgt>
<wgt id='1252'> +1.4799420e-12 </wgt>
<wgt id='1253'> +1.4873230e-12 </wgt>
<wgt id='1254'> +1.4922471e-12 </wgt>
<wgt id='1255'> +1.4790757e-12 </wgt>
<wgt id='1256'> +1.4889479e-12 </wgt>
<wgt id='1257'> +1.4712841e-12 </wgt>
<wgt id='1258'> +1.4923849e-12 </wgt>
<wgt id='1259'> +1.4738834e-12 </wgt>
<wgt id='1260'> +1.4967571e-12 </wgt>
<wgt id='1261'> +1.4693245e-12 </wgt>
<wgt id='1262'> +1.4933225e-12 </wgt>
<wgt id='1263'> +1.4802072e-12 </wgt>
<wgt id='1264'> +1.4844414e-12 </wgt>
<wgt id='1265'> +1.4844095e-12 </wgt>
<wgt id='1266'> +1.4632545e-12 </wgt>
<wgt id='1267'> +1.5043791e-12 </wgt>
<wgt id='1268'> +1.4832677e-12 </wgt>
<wgt id='1269'> +1.4895089e-12 </wgt>
<wgt id='1270'> +1.4910685e-12 </wgt>
<wgt id='1271'> +1.4865070e-12 </wgt>
<wgt id='1272'> +1.4904447e-12 </wgt>
<wgt id='1273'> +1.4829348e-12 </wgt>
<wgt id='1274'> +1.4863368e-12 </wgt>
<wgt id='1275'> +1.4804404e-12 </wgt>
<wgt id='1276'> +1.4935988e-12 </wgt>
<wgt id='1277'> +1.4812747e-12 </wgt>
<wgt id='1278'> +1.4994694e-12 </wgt>
<wgt id='1279'> +1.4891899e-12 </wgt>
<wgt id='1280'> +1.4849990e-12 </wgt>
<wgt id='1281'> +1.4885792e-12 </wgt>
<wgt id='1282'> +1.4840662e-12 </wgt>
<wgt id='1283'> +1.4779918e-12 </wgt>
<wgt id='1284'> +1.4804911e-12 </wgt>
<wgt id='1285'> +1.4824536e-12 </wgt>
<wgt id='1286'> +1.4859521e-12 </wgt>
<wgt id='1287'> +1.4871871e-12 </wgt>
<wgt id='1288'> +1.4883077e-12 </wgt>
<wgt id='1289'> +1.5515291e-12 </wgt>
<wgt id='1290'> +1.5607349e-12 </wgt>
<wgt id='1291'> +1.5416381e-12 </wgt>
<wgt id='1292'> +1.5488607e-12 </wgt>
<wgt id='1293'> +1.5534459e-12 </wgt>
<wgt id='1294'> +1.5408273e-12 </wgt>
<wgt id='1295'> +1.5617327e-12 </wgt>
<wgt id='1296'> +1.5685120e-12 </wgt>
<wgt id='1297'> +1.5307103e-12 </wgt>
<wgt id='1298'> +1.5509098e-12 </wgt>
<wgt id='1299'> +1.5522520e-12 </wgt>
<wgt id='1300'> +1.5506969e-12 </wgt>
<wgt id='1301'> +1.5532278e-12 </wgt>
<wgt id='1302'> +1.5494088e-12 </wgt>
<wgt id='1303'> +1.5544835e-12 </wgt>
<wgt id='1304'> +1.5497725e-12 </wgt>
<wgt id='1305'> +1.5527164e-12 </wgt>
<wgt id='1306'> +1.5416847e-12 </wgt>
<wgt id='1307'> +1.5626335e-12 </wgt>
<wgt id='1308'> +1.5620015e-12 </wgt>
<wgt id='1309'> +1.5435719e-12 </wgt>
<wgt id='1310'> +1.5553861e-12 </wgt>
<wgt id='1311'> +1.5475733e-12 </wgt>
<wgt id='1312'> +1.5731844e-12 </wgt>
<wgt id='1313'> +1.5303977e-12 </wgt>
<wgt id='1314'> +1.5302131e-12 </wgt>
<wgt id='1315'> +1.5702532e-12 </wgt>
<wgt id='1316'> +1.5644287e-12 </wgt>
<wgt id='1317'> +1.5488425e-12 </wgt>
<wgt id='1318'> +1.5560626e-12 </wgt>
<wgt id='1319'> +1.5440556e-12 </wgt>
<wgt id='1320'> +1.5778736e-12 </wgt>
<wgt id='1321'> +1.5306886e-12 </wgt>
<wgt id='1322'> +1.5502461e-12 </wgt>
<wgt id='1323'> +1.5529616e-12 </wgt>
<wgt id='1324'> +1.5512912e-12 </wgt>
<wgt id='1325'> +1.5630860e-12 </wgt>
<wgt id='1326'> +1.5484760e-12 </wgt>
<wgt id='1327'> +1.5569915e-12 </wgt>
<wgt id='1328'> +1.5529387e-12 </wgt>
<wgt id='1329'> +1.5499562e-12 </wgt>
<wgt id='1330'> +1.5370208e-12 </wgt>
<wgt id='1331'> +1.5552557e-12 </wgt>
<wgt id='1332'> +1.5753309e-12 </wgt>
<wgt id='1333'> +1.5433115e-12 </wgt>
<wgt id='1334'> +1.5484055e-12 </wgt>
<wgt id='1335'> +1.5601081e-12 </wgt>
<wgt id='1336'> +1.5568165e-12 </wgt>
<wgt id='1337'> +1.5574881e-12 </wgt>
<wgt id='1338'> +1.5515596e-12 </wgt>
<wgt id='1339'> +1.5520491e-12 </wgt>
<wgt id='1340'> +1.5254838e-12 </wgt>
<wgt id='1341'> +1.5345561e-12 </wgt>
<wgt id='1342'> +1.5157025e-12 </wgt>
<wgt id='1343'> +1.5227850e-12 </wgt>
<wgt id='1344'> +1.5272964e-12 </wgt>
<wgt id='1345'> +1.5144582e-12 </wgt>
<wgt id='1346'> +1.5355678e-12 </wgt>
<wgt id='1347'> +1.5427585e-12 </wgt>
<wgt id='1348'> +1.5063548e-12 </wgt>
<wgt id='1349'> +1.5250116e-12 </wgt>
<wgt id='1350'> +1.5258683e-12 </wgt>
<wgt id='1351'> +1.5244917e-12 </wgt>
<wgt id='1352'> +1.5275824e-12 </wgt>
<wgt id='1353'> +1.5231876e-12 </wgt>
<wgt id='1354'> +1.5295228e-12 </wgt>
<wgt id='1355'> +1.5245818e-12 </wgt>
<wgt id='1356'> +1.5259503e-12 </wgt>
<wgt id='1357'> +1.5194105e-12 </wgt>
<wgt id='1358'> +1.5325758e-12 </wgt>
<wgt id='1359'> +1.5382853e-12 </wgt>
<wgt id='1360'> +1.5144119e-12 </wgt>
<wgt id='1361'> +1.5297262e-12 </wgt>
<wgt id='1362'> +1.5200144e-12 </wgt>
<wgt id='1363'> +1.5583199e-12 </wgt>
<wgt id='1364'> +1.5042235e-12 </wgt>
<wgt id='1365'> +1.5323989e-12 </wgt>
<wgt id='1366'> +1.5095107e-12 </wgt>
<wgt id='1367'> +1.5372117e-12 </wgt>
<wgt id='1368'> +1.5227332e-12 </wgt>
<wgt id='1369'> +1.5287006e-12 </wgt>
<wgt id='1370'> +1.5204389e-12 </wgt>
<wgt id='1371'> +1.5453078e-12 </wgt>
<wgt id='1372'> +1.5028504e-12 </wgt>
<wgt id='1373'> +1.5197421e-12 </wgt>
<wgt id='1374'> +1.5306572e-12 </wgt>
<wgt id='1375'> +1.5251126e-12 </wgt>
<wgt id='1376'> +1.5364134e-12 </wgt>
<wgt id='1377'> +1.5207773e-12 </wgt>
<wgt id='1378'> +1.5322857e-12 </wgt>
<wgt id='1379'> +1.5268559e-12 </wgt>
<wgt id='1380'> +1.5236148e-12 </wgt>
<wgt id='1381'> +1.5097574e-12 </wgt>
<wgt id='1382'> +1.5284462e-12 </wgt>
<wgt id='1383'> +1.5489736e-12 </wgt>
<wgt id='1384'> +1.5147329e-12 </wgt>
<wgt id='1385'> +1.5222743e-12 </wgt>
<wgt id='1386'> +1.5331807e-12 </wgt>
<wgt id='1387'> +1.5315671e-12 </wgt>
<wgt id='1388'> +1.5294218e-12 </wgt>
<wgt id='1389'> +1.5258560e-12 </wgt>
<wgt id='1390'> +1.5262216e-12 </wgt>
<wgt id='1391'> +1.4853596e-12 </wgt>
<wgt id='1392'> +1.4500136e-12 </wgt>
<wgt id='1393'> +1.4617245e-12 </wgt>
<wgt id='1394'> +1.4732231e-12 </wgt>
<wgt id='1395'> +1.4941414e-12 </wgt>
<wgt id='1396'> +1.4847863e-12 </wgt>
<wgt id='1397'> +1.4693861e-12 </wgt>
<wgt id='1398'> +1.4714659e-12 </wgt>
<wgt id='1399'> +1.4740318e-12 </wgt>
<wgt id='1400'> +1.4767937e-12 </wgt>
<wgt id='1401'> +1.4805805e-12 </wgt>
<wgt id='1402'> +1.4874537e-12 </wgt>
<wgt id='1403'> +1.4915742e-12 </wgt>
<wgt id='1404'> +1.4951347e-12 </wgt>
<wgt id='1405'> +1.4847863e-12 </wgt>
<wgt id='1406'> +1.4822649e-12 </wgt>
<wgt id='1407'> +1.4836440e-12 </wgt>
<wgt id='1408'> +1.4858413e-12 </wgt>
<wgt id='1409'> +1.4859763e-12 </wgt>
<wgt id='1410'> +1.4231867e-12 </wgt>
<wgt id='1411'> +1.4324483e-12 </wgt>
<wgt id='1412'> +1.4112591e-12 </wgt>
<wgt id='1413'> +1.4203001e-12 </wgt>
<wgt id='1414'> +1.4259986e-12 </wgt>
<wgt id='1415'> +1.4169253e-12 </wgt>
<wgt id='1416'> +1.4257037e-12 </wgt>
<wgt id='1417'> +1.4324011e-12 </wgt>
<wgt id='1418'> +1.4139266e-12 </wgt>
<wgt id='1419'> +1.4208166e-12 </wgt>
<wgt id='1420'> +1.4254154e-12 </wgt>
<wgt id='1421'> +1.4253753e-12 </wgt>
<wgt id='1422'> +1.4221265e-12 </wgt>
<wgt id='1423'> +1.4241357e-12 </wgt>
<wgt id='1424'> +1.4220544e-12 </wgt>
<wgt id='1425'> +1.4161175e-12 </wgt>
<wgt id='1426'> +1.4307996e-12 </wgt>
<wgt id='1427'> +1.4133118e-12 </wgt>
<wgt id='1428'> +1.4284113e-12 </wgt>
<wgt id='1429'> +1.4076165e-12 </wgt>
<wgt id='1430'> +1.4445301e-12 </wgt>
<wgt id='1431'> +1.4225443e-12 </wgt>
<wgt id='1432'> +1.4234563e-12 </wgt>
<wgt id='1433'> +1.4140490e-12 </wgt>
<wgt id='1434'> +1.4288487e-12 </wgt>
<wgt id='1435'> +1.4111632e-12 </wgt>
<wgt id='1436'> +1.4534692e-12 </wgt>
<wgt id='1437'> +1.4366900e-12 </wgt>
<wgt id='1438'> +1.4205639e-12 </wgt>
<wgt id='1439'> +1.4176640e-12 </wgt>
<wgt id='1440'> +1.4314018e-12 </wgt>
<wgt id='1441'> +1.4336823e-12 </wgt>
<wgt id='1442'> +1.4041894e-12 </wgt>
<wgt id='1443'> +1.4203129e-12 </wgt>
<wgt id='1444'> +1.4331394e-12 </wgt>
<wgt id='1445'> +1.4371999e-12 </wgt>
<wgt id='1446'> +1.4206234e-12 </wgt>
<wgt id='1447'> +1.4259723e-12 </wgt>
<wgt id='1448'> +1.4246362e-12 </wgt>
<wgt id='1449'> +1.4256500e-12 </wgt>
<wgt id='1450'> +1.4209642e-12 </wgt>
<wgt id='1451'> +1.4285396e-12 </wgt>
<wgt id='1452'> +1.4122245e-12 </wgt>
<wgt id='1453'> +1.4255586e-12 </wgt>
<wgt id='1454'> +1.4109950e-12 </wgt>
<wgt id='1455'> +1.4249181e-12 </wgt>
<wgt id='1456'> +1.4357442e-12 </wgt>
<wgt id='1457'> +1.4317228e-12 </wgt>
<wgt id='1458'> +1.4216241e-12 </wgt>
<wgt id='1459'> +1.4329227e-12 </wgt>
<wgt id='1460'> +1.4302332e-12 </wgt>
<wgt id='1461'> +1.4231867e-12 </wgt>
<wgt id='1462'> +1.4173222e-12 </wgt>
<wgt id='1463'> +1.4288905e-12 </wgt>
<wgt id='1464'> +1.4233650e-12 </wgt>
<wgt id='1465'> +1.4017278e-12 </wgt>
<wgt id='1466'> +1.4055311e-12 </wgt>
<wgt id='1467'> +1.4101048e-12 </wgt>
<wgt id='1468'> +1.4157339e-12 </wgt>
<wgt id='1469'> +1.4191431e-12 </wgt>
<wgt id='1470'> +1.4278739e-12 </wgt>
<wgt id='1471'> +1.4320758e-12 </wgt>
<wgt id='1472'> +1.4361039e-12 </wgt>
<wgt id='1473'> +1.4233650e-12 </wgt>
<wgt id='1474'> +1.4214901e-12 </wgt>
<wgt id='1475'> +1.4224428e-12 </wgt>
<wgt id='1476'> +1.4239586e-12 </wgt>
<wgt id='1477'> +1.4248689e-12 </wgt>
<wgt id='1478'> +1.4602792e-12 </wgt>
<wgt id='1479'> +1.4502295e-12 </wgt>
<wgt id='1480'> +1.4447463e-12 </wgt>
<wgt id='1481'> +1.4767774e-12 </wgt>
<wgt id='1482'> +1.4525300e-12 </wgt>
<wgt id='1483'> +1.4378912e-12 </wgt>
<wgt id='1484'> +1.4362118e-12 </wgt>
<wgt id='1485'> +1.4365935e-12 </wgt>
<wgt id='1486'> +1.4649059e-12 </wgt>
<wgt id='1487'> +1.4669745e-12 </wgt>
<wgt id='1488'> +1.4572526e-12 </wgt>
<wgt id='1489'> +1.4716177e-12 </wgt>
<wgt id='1490'> +1.4587503e-12 </wgt>
<wgt id='1491'> +1.4553697e-12 </wgt>
<wgt id='1492'> +1.4719918e-12 </wgt>
<wgt id='1493'> +1.4413477e-12 </wgt>
<wgt id='1494'> +1.4804931e-12 </wgt>
<wgt id='1495'> +1.4401956e-12 </wgt>
<wgt id='1496'> +1.4615969e-12 </wgt>
<wgt id='1497'> +1.4539428e-12 </wgt>
<wgt id='1498'> +1.4660352e-12 </wgt>
<wgt id='1499'> +1.4468903e-12 </wgt>
<wgt id='1500'> +1.4626403e-12 </wgt>
<wgt id='1501'> +1.4704348e-12 </wgt>
<wgt id='1502'> +1.4623691e-12 </wgt>
<wgt id='1503'> +1.4623652e-12 </wgt>
<wgt id='1504'> +1.4552089e-12 </wgt>
<wgt id='1505'> +1.4624942e-12 </wgt>
<wgt id='1506'> +1.4473136e-12 </wgt>
<wgt id='1507'> +1.4602771e-12 </wgt>
<wgt id='1508'> +1.4522765e-12 </wgt>
<wgt id='1509'> +1.5094443e-12 </wgt>
<wgt id='1510'> +1.4965820e-12 </wgt>
<wgt id='1511'> +1.5173488e-12 </wgt>
<wgt id='1512'> +1.5041237e-12 </wgt>
<wgt id='1513'> +1.5213683e-12 </wgt>
<wgt id='1514'> +1.5131460e-12 </wgt>
<wgt id='1515'> +1.5208062e-12 </wgt>
<wgt id='1516'> +1.5070607e-12 </wgt>
<wgt id='1517'> +1.5165972e-12 </wgt>
<wgt id='1518'> +1.5255283e-12 </wgt>
<wgt id='1519'> +1.5094070e-12 </wgt>
<wgt id='1520'> +1.5031798e-12 </wgt>
<wgt id='1521'> +1.5141441e-12 </wgt>
<wgt id='1522'> +1.5087025e-12 </wgt>
<wgt id='1523'> +1.5206866e-12 </wgt>
<wgt id='1524'> +1.4936248e-12 </wgt>
<wgt id='1525'> +1.5134482e-12 </wgt>
<wgt id='1526'> +1.5113487e-12 </wgt>
<wgt id='1527'> +1.5109679e-12 </wgt>
<wgt id='1528'> +1.5172352e-12 </wgt>
<wgt id='1529'> +1.5070808e-12 </wgt>
<wgt id='1530'> +1.5134940e-12 </wgt>
<wgt id='1531'> +1.5196156e-12 </wgt>
<wgt id='1532'> +1.5103382e-12 </wgt>
<wgt id='1533'> +1.5161365e-12 </wgt>
<wgt id='1534'> +1.5043184e-12 </wgt>
<wgt id='1535'> +1.5125875e-12 </wgt>
<wgt id='1536'> +1.5271203e-12 </wgt>
<wgt id='1537'> +1.5097917e-12 </wgt>
<wgt id='1538'> +1.4801398e-12 </wgt>
<wgt id='1539'> +1.5046567e-12 </wgt>
<wgt id='1540'> +1.4937670e-12 </wgt>
<wgt id='1541'> +1.4693759e-12 </wgt>
<wgt id='1542'> +1.5458233e-12 </wgt>
<wgt id='1543'> +1.4934064e-12 </wgt>
<wgt id='1544'> +1.5195431e-12 </wgt>
<wgt id='1545'> +1.5094325e-12 </wgt>
<wgt id='1546'> +1.5326272e-12 </wgt>
<wgt id='1547'> +1.4846423e-12 </wgt>
<wgt id='1548'> +1.5038298e-12 </wgt>
<wgt id='1549'> +1.5061877e-12 </wgt>
<wgt id='1550'> +1.5151481e-12 </wgt>
<wgt id='1551'> +1.5080300e-12 </wgt>
<wgt id='1552'> +1.5161903e-12 </wgt>
<wgt id='1553'> +1.5077101e-12 </wgt>
<wgt id='1554'> +1.5259830e-12 </wgt>
<wgt id='1555'> +1.4878194e-12 </wgt>
<wgt id='1556'> +1.4866662e-12 </wgt>
<wgt id='1557'> +1.4709670e-12 </wgt>
<wgt id='1558'> +1.4882949e-12 </wgt>
<wgt id='1559'> +1.5183188e-12 </wgt>
<wgt id='1560'> +1.5216664e-12 </wgt>
<wgt id='1561'> +1.4933181e-12 </wgt>
<wgt id='1562'> +1.5116836e-12 </wgt>
<wgt id='1563'> +1.5237481e-12 </wgt>
<wgt id='1564'> +1.5185982e-12 </wgt>
<wgt id='1565'> +1.5189793e-12 </wgt>
<wgt id='1566'> +1.5133606e-12 </wgt>
<wgt id='1567'> +1.5168823e-12 </wgt>
<wgt id='1568'> +1.5137221e-12 </wgt>
<wgt id='1569'> +1.5338040e-12 </wgt>
<wgt id='1570'> +1.5117014e-12 </wgt>
<wgt id='1571'> +1.4832638e-12 </wgt>
<wgt id='1572'> +1.4876834e-12 </wgt>
<wgt id='1573'> +1.5152153e-12 </wgt>
<wgt id='1574'> +1.5207673e-12 </wgt>
<wgt id='1575'> +1.5045954e-12 </wgt>
<wgt id='1576'> +1.5099564e-12 </wgt>
<wgt id='1577'> +1.5043975e-12 </wgt>
<wgt id='1578'> +1.4880315e-12 </wgt>
<wgt id='1579'> +1.5123302e-12 </wgt>
<wgt id='1580'> +1.5125839e-12 </wgt>
<wgt id='1581'> +1.5192849e-12 </wgt>
<wgt id='1582'> +1.4997939e-12 </wgt>
<wgt id='1583'> +1.5069454e-12 </wgt>
<wgt id='1584'> +1.5114743e-12 </wgt>
<wgt id='1585'> +1.5172858e-12 </wgt>
<wgt id='1586'> +1.5158877e-12 </wgt>
<wgt id='1587'> +1.5148917e-12 </wgt>
<wgt id='1588'> +1.5110939e-12 </wgt>
<wgt id='1589'> +1.5120086e-12 </wgt>
<wgt id='1590'> +1.5071022e-12 </wgt>
<wgt id='1591'> +1.5107362e-12 </wgt>
<wgt id='1592'> +1.5127150e-12 </wgt>
<wgt id='1593'> +1.5142247e-12 </wgt>
<wgt id='1594'> +1.5017421e-12 </wgt>
<wgt id='1595'> +1.5146831e-12 </wgt>
<wgt id='1596'> +1.5035967e-12 </wgt>
<wgt id='1597'> +1.5074704e-12 </wgt>
<wgt id='1598'> +1.5027573e-12 </wgt>
<wgt id='1599'> +1.5084448e-12 </wgt>
<wgt id='1600'> +1.5069020e-12 </wgt>
<wgt id='1601'> +1.5056569e-12 </wgt>
<wgt id='1602'> +1.5029378e-12 </wgt>
<wgt id='1603'> +1.5130271e-12 </wgt>
<wgt id='1604'> +1.5126619e-12 </wgt>
<wgt id='1605'> +1.5026467e-12 </wgt>
<wgt id='1606'> +1.5040238e-12 </wgt>
<wgt id='1607'> +1.5125410e-12 </wgt>
<wgt id='1608'> +1.5148755e-12 </wgt>
<wgt id='1609'> +1.5058406e-12 </wgt>
<wgt id='1610'> +1.4905856e-12 </wgt>
<wgt id='1611'> +1.5781181e-12 </wgt>
<wgt id='1612'> +1.5590665e-12 </wgt>
<wgt id='1613'> +1.4518061e-12 </wgt>
<wgt id='1614'> +1.5879942e-12 </wgt>
<wgt id='1615'> +1.7832600e-12 </wgt>
<wgt id='1616'> +1.4838651e-12 </wgt>
<wgt id='1617'> +1.7312782e-12 </wgt>
<wgt id='1618'> +1.4213060e-12 </wgt>
<wgt id='1619'> +1.8052091e-12 </wgt>
<wgt id='1620'> +1.5084237e-12 </wgt>
<wgt id='1621'> +1.6937745e-12 </wgt>
<wgt id='1622'> +1.4877992e-12 </wgt>
<wgt id='1623'> +1.6120666e-12 </wgt>
<wgt id='1624'> +1.6225706e-12 </wgt>
<wgt id='1625'> +1.3828431e-12 </wgt>
<wgt id='1626'> +1.3897081e-12 </wgt>
<wgt id='1627'> +1.5720333e-12 </wgt>
<wgt id='1628'> +1.3047866e-12 </wgt>
<wgt id='1629'> +1.5406602e-12 </wgt>
<wgt id='1630'> +1.6144810e-12 </wgt>
<wgt id='1631'> +1.5861282e-12 </wgt>
<wgt id='1632'> +1.4735576e-12 </wgt>
<wgt id='1633'> +1.4596090e-12 </wgt>
<wgt id='1634'> +1.7338403e-12 </wgt>
<wgt id='1635'> +1.6529982e-12 </wgt>
<wgt id='1636'> +1.6403914e-12 </wgt>
<wgt id='1637'> +1.5245395e-12 </wgt>
<wgt id='1638'> +1.3643434e-12 </wgt>
<wgt id='1639'> +1.6241735e-12 </wgt>
<wgt id='1640'> +1.5750234e-12 </wgt>
<wgt id='1641'> +1.4917535e-12 </wgt>
<wgt id='1642'> +1.5607644e-12 </wgt>
<wgt id='1643'> +1.7207847e-12 </wgt>
<wgt id='1644'> +1.3279162e-12 </wgt>
<wgt id='1645'> +1.3842795e-12 </wgt>
<wgt id='1646'> +1.5986327e-12 </wgt>
<wgt id='1647'> +1.6269769e-12 </wgt>
<wgt id='1648'> +1.5043467e-12 </wgt>
<wgt id='1649'> +1.4596875e-12 </wgt>
<wgt id='1650'> +1.7407874e-12 </wgt>
<wgt id='1651'> +1.7140891e-12 </wgt>
<wgt id='1652'> +1.3989027e-12 </wgt>
<wgt id='1653'> +1.5707470e-12 </wgt>
<wgt id='1654'> +1.6791920e-12 </wgt>
<wgt id='1655'> +1.7141056e-12 </wgt>
<wgt id='1656'> +1.6226895e-12 </wgt>
<wgt id='1657'> +1.6355223e-12 </wgt>
<wgt id='1658'> +1.3540556e-12 </wgt>
<wgt id='1659'> +1.6225706e-12 </wgt>
<wgt id='1660'> +1.4203022e-12 </wgt>
<wgt id='1661'> +1.8372937e-12 </wgt>
<wgt id='1662'> +1.6944780e-12 </wgt>
<wgt id='1663'> +1.5344320e-12 </wgt>
<wgt id='1664'> +1.6376911e-12 </wgt>
<wgt id='1665'> +1.6426295e-12 </wgt>
<wgt id='1666'> +1.5515666e-12 </wgt>
<wgt id='1667'> +1.6239286e-12 </wgt>
<wgt id='1668'> +1.6871151e-12 </wgt>
<wgt id='1669'> +1.7784123e-12 </wgt>
<wgt id='1670'> +1.5070815e-12 </wgt>
<wgt id='1671'> +1.6392791e-12 </wgt>
<wgt id='1672'> +1.4771754e-12 </wgt>
<wgt id='1673'> +1.5894287e-12 </wgt>
<wgt id='1674'> +1.5885904e-12 </wgt>
<wgt id='1675'> +1.4775624e-12 </wgt>
<wgt id='1676'> +1.4596750e-12 </wgt>
<wgt id='1677'> +1.8393150e-12 </wgt>
<wgt id='1678'> +1.5094147e-12 </wgt>
<wgt id='1679'> +1.5297117e-12 </wgt>
<wgt id='1680'> +1.4372941e-12 </wgt>
<wgt id='1681'> +1.5158105e-12 </wgt>
<wgt id='1682'> +1.8560671e-12 </wgt>
<wgt id='1683'> +1.5886477e-12 </wgt>
<wgt id='1684'> +1.6157904e-12 </wgt>
<wgt id='1685'> +1.6318737e-12 </wgt>
<wgt id='1686'> +1.5423996e-12 </wgt>
<wgt id='1687'> +1.5607575e-12 </wgt>
<wgt id='1688'> +1.3278892e-12 </wgt>
<wgt id='1689'> +1.5257093e-12 </wgt>
<wgt id='1690'> +1.6727562e-12 </wgt>
<wgt id='1691'> +1.5528852e-12 </wgt>
<wgt id='1692'> +1.3207887e-12 </wgt>
<wgt id='1693'> +1.5619542e-12 </wgt>
<wgt id='1694'> +1.4105858e-12 </wgt>
<wgt id='1695'> +1.6953326e-12 </wgt>
<wgt id='1696'> +1.6630142e-12 </wgt>
<wgt id='1697'> +1.3820326e-12 </wgt>
<wgt id='1698'> +1.1127074e-12 </wgt>
<wgt id='1699'> +1.4402465e-12 </wgt>
<wgt id='1700'> +1.2639375e-12 </wgt>
<wgt id='1701'> +1.5988814e-12 </wgt>
<wgt id='1702'> +1.5702502e-12 </wgt>
<wgt id='1703'> +1.6344674e-12 </wgt>
<wgt id='1704'> +1.5095411e-12 </wgt>
<wgt id='1705'> +1.6259523e-12 </wgt>
<wgt id='1706'> +1.4603955e-12 </wgt>
<wgt id='1707'> +1.6701603e-12 </wgt>
<wgt id='1708'> +1.5992288e-12 </wgt>
<wgt id='1709'> +1.4729877e-12 </wgt>
<wgt id='1710'> +1.6354258e-12 </wgt>
<wgt id='1711'> +1.5268114e-12 </wgt>
<wgt id='1712'> +1.5194191e-12 </wgt>
<wgt id='1713'> +1.4026275e-12 </wgt>
<wgt id='1714'> +1.4031685e-12 </wgt>
<wgt id='1715'> +1.3815203e-12 </wgt>
<wgt id='1716'> +1.3972427e-12 </wgt>
<wgt id='1717'> +1.4552954e-12 </wgt>
<wgt id='1718'> +1.5505566e-12 </wgt>
<wgt id='1719'> +1.4656248e-12 </wgt>
<wgt id='1720'> +1.4389550e-12 </wgt>
<wgt id='1721'> +1.2854186e-12 </wgt>
<wgt id='1722'> +1.3985861e-12 </wgt>
<wgt id='1723'> +1.4450902e-12 </wgt>
<wgt id='1724'> +1.2790665e-12 </wgt>
<wgt id='1725'> +1.3797179e-12 </wgt>
<wgt id='1726'> +1.3652918e-12 </wgt>
<wgt id='1727'> +1.4770441e-12 </wgt>
<wgt id='1728'> +1.3765276e-12 </wgt>
<wgt id='1729'> +1.3479762e-12 </wgt>
<wgt id='1730'> +1.3051725e-12 </wgt>
<wgt id='1731'> +1.4061122e-12 </wgt>
<wgt id='1732'> +1.4070854e-12 </wgt>
<wgt id='1733'> +1.3363380e-12 </wgt>
<wgt id='1734'> +1.3812381e-12 </wgt>
<wgt id='1735'> +1.4439462e-12 </wgt>
<wgt id='1736'> +1.4547213e-12 </wgt>
<wgt id='1737'> +1.5190392e-12 </wgt>
<wgt id='1738'> +1.3841241e-12 </wgt>
<wgt id='1739'> +1.4279472e-12 </wgt>
<wgt id='1740'> +1.3306753e-12 </wgt>
<wgt id='1741'> +1.4004403e-12 </wgt>
<wgt id='1742'> +1.3684377e-12 </wgt>
<wgt id='1743'> +1.4210610e-12 </wgt>
<wgt id='1744'> +1.4399222e-12 </wgt>
<wgt id='1745'> +1.3760911e-12 </wgt>
<wgt id='1746'> +1.3557239e-12 </wgt>
<wgt id='1747'> +1.4345843e-12 </wgt>
<wgt id='1748'> +1.4154281e-12 </wgt>
<wgt id='1749'> +1.3955423e-12 </wgt>
<wgt id='1750'> +1.3316752e-12 </wgt>
<wgt id='1751'> +1.3538711e-12 </wgt>
<wgt id='1752'> +1.5085153e-12 </wgt>
<wgt id='1753'> +1.3865240e-12 </wgt>
<wgt id='1754'> +1.4825056e-12 </wgt>
<wgt id='1755'> +1.3882185e-12 </wgt>
<wgt id='1756'> +1.3634083e-12 </wgt>
<wgt id='1757'> +1.4146435e-12 </wgt>
<wgt id='1758'> +1.5101544e-12 </wgt>
<wgt id='1759'> +1.4001007e-12 </wgt>
<wgt id='1760'> +1.3799420e-12 </wgt>
<wgt id='1761'> +1.4397948e-12 </wgt>
<wgt id='1762'> +1.3162482e-12 </wgt>
<wgt id='1763'> +1.3451696e-12 </wgt>
<wgt id='1764'> +1.4478481e-12 </wgt>
<wgt id='1765'> +1.3808750e-12 </wgt>
<wgt id='1766'> +1.4635922e-12 </wgt>
<wgt id='1767'> +1.4422037e-12 </wgt>
<wgt id='1768'> +1.4452175e-12 </wgt>
<wgt id='1769'> +1.4375686e-12 </wgt>
<wgt id='1770'> +1.4225581e-12 </wgt>
<wgt id='1771'> +1.3882163e-12 </wgt>
<wgt id='1772'> +1.3751084e-12 </wgt>
<wgt id='1773'> +1.4101871e-12 </wgt>
<wgt id='1774'> +1.4289677e-12 </wgt>
<wgt id='1775'> +1.2749436e-12 </wgt>
<wgt id='1776'> +1.5030504e-12 </wgt>
<wgt id='1777'> +1.3131085e-12 </wgt>
<wgt id='1778'> +1.4814453e-12 </wgt>
<wgt id='1779'> +1.4605093e-12 </wgt>
<wgt id='1780'> +1.3546155e-12 </wgt>
<wgt id='1781'> +1.4244223e-12 </wgt>
<wgt id='1782'> +1.4708413e-12 </wgt>
<wgt id='1783'> +1.3989557e-12 </wgt>
<wgt id='1784'> +1.4670828e-12 </wgt>
<wgt id='1785'> +1.4064310e-12 </wgt>
<wgt id='1786'> +1.4535184e-12 </wgt>
<wgt id='1787'> +1.5159227e-12 </wgt>
<wgt id='1788'> +1.3295525e-12 </wgt>
<wgt id='1789'> +1.2878086e-12 </wgt>
<wgt id='1790'> +1.4149644e-12 </wgt>
<wgt id='1791'> +1.4010983e-12 </wgt>
<wgt id='1792'> +1.3652719e-12 </wgt>
<wgt id='1793'> +1.4178336e-12 </wgt>
<wgt id='1794'> +1.4112852e-12 </wgt>
<wgt id='1795'> +1.4159255e-12 </wgt>
<wgt id='1796'> +1.2584912e-12 </wgt>
<wgt id='1797'> +1.5220883e-12 </wgt>
<wgt id='1798'> +1.3455896e-12 </wgt>
<wgt id='1799'> +1.4171218e-12 </wgt>
<wgt id='1800'> +1.4429268e-12 </wgt>
<wgt id='1801'> +1.3825776e-12 </wgt>
<wgt id='1802'> +1.2948559e-12 </wgt>
<wgt id='1803'> +1.4024281e-12 </wgt>
<wgt id='1804'> +1.3749676e-12 </wgt>
<wgt id='1805'> +1.3947202e-12 </wgt>
<wgt id='1806'> +1.3892827e-12 </wgt>
<wgt id='1807'> +1.4184331e-12 </wgt>
<wgt id='1808'> +1.2867666e-12 </wgt>
<wgt id='1809'> +1.4125214e-12 </wgt>
<wgt id='1810'> +1.5199789e-12 </wgt>
<wgt id='1811'> +1.4665810e-12 </wgt>
<wgt id='1812'> +1.3503632e-12 </wgt>
<wgt id='1813'> +1.3012922e-12 </wgt>
<wgt id='1814'> +1.6750125e-12 </wgt>
<wgt id='1815'> +2.0461014e-12 </wgt>
<wgt id='1816'> +1.4026275e-12 </wgt>
<wgt id='1817'> +1.4031685e-12 </wgt>
<wgt id='1818'> +1.3815203e-12 </wgt>
<wgt id='1819'> +1.3972427e-12 </wgt>
<wgt id='1820'> +1.4552954e-12 </wgt>
<wgt id='1821'> +1.5505566e-12 </wgt>
<wgt id='1822'> +1.4656248e-12 </wgt>
<wgt id='1823'> +1.4389550e-12 </wgt>
<wgt id='1824'> +1.2854186e-12 </wgt>
<wgt id='1825'> +1.3985861e-12 </wgt>
<wgt id='1826'> +1.4450902e-12 </wgt>
<wgt id='1827'> +1.2790665e-12 </wgt>
<wgt id='1828'> +1.3797179e-12 </wgt>
<wgt id='1829'> +1.3652918e-12 </wgt>
<wgt id='1830'> +1.4770441e-12 </wgt>
<wgt id='1831'> +1.3765276e-12 </wgt>
<wgt id='1832'> +1.3479762e-12 </wgt>
<wgt id='1833'> +1.3051725e-12 </wgt>
<wgt id='1834'> +1.4061122e-12 </wgt>
<wgt id='1835'> +1.4070854e-12 </wgt>
<wgt id='1836'> +1.3363380e-12 </wgt>
<wgt id='1837'> +1.3812381e-12 </wgt>
<wgt id='1838'> +1.4439462e-12 </wgt>
<wgt id='1839'> +1.4547213e-12 </wgt>
<wgt id='1840'> +1.5190392e-12 </wgt>
<wgt id='1841'> +1.3841241e-12 </wgt>
<wgt id='1842'> +1.4279472e-12 </wgt>
<wgt id='1843'> +1.3306753e-12 </wgt>
<wgt id='1844'> +1.4004403e-12 </wgt>
<wgt id='1845'> +1.3684377e-12 </wgt>
<wgt id='1846'> +1.4210610e-12 </wgt>
<wgt id='1847'> +1.4399222e-12 </wgt>
<wgt id='1848'> +1.3760911e-12 </wgt>
<wgt id='1849'> +1.3557239e-12 </wgt>
<wgt id='1850'> +1.4345843e-12 </wgt>
<wgt id='1851'> +1.4154281e-12 </wgt>
<wgt id='1852'> +1.3955423e-12 </wgt>
<wgt id='1853'> +1.3316752e-12 </wgt>
<wgt id='1854'> +1.3538711e-12 </wgt>
<wgt id='1855'> +1.5085153e-12 </wgt>
<wgt id='1856'> +1.3865240e-12 </wgt>
<wgt id='1857'> +1.4825056e-12 </wgt>
<wgt id='1858'> +1.3882185e-12 </wgt>
<wgt id='1859'> +1.3634083e-12 </wgt>
<wgt id='1860'> +1.4146435e-12 </wgt>
<wgt id='1861'> +1.5101544e-12 </wgt>
<wgt id='1862'> +1.4001007e-12 </wgt>
<wgt id='1863'> +1.3799420e-12 </wgt>
<wgt id='1864'> +1.4397948e-12 </wgt>
<wgt id='1865'> +1.3162482e-12 </wgt>
<wgt id='1866'> +1.3451696e-12 </wgt>
<wgt id='1867'> +1.4478481e-12 </wgt>
<wgt id='1868'> +1.3808750e-12 </wgt>
<wgt id='1869'> +1.4635922e-12 </wgt>
<wgt id='1870'> +1.4422037e-12 </wgt>
<wgt id='1871'> +1.4452175e-12 </wgt>
<wgt id='1872'> +1.4375686e-12 </wgt>
<wgt id='1873'> +1.4225581e-12 </wgt>
<wgt id='1874'> +1.3882163e-12 </wgt>
<wgt id='1875'> +1.3751084e-12 </wgt>
<wgt id='1876'> +1.4101871e-12 </wgt>
<wgt id='1877'> +1.4289677e-12 </wgt>
<wgt id='1878'> +1.2749436e-12 </wgt>
<wgt id='1879'> +1.5030504e-12 </wgt>
<wgt id='1880'> +1.3131085e-12 </wgt>
<wgt id='1881'> +1.4814453e-12 </wgt>
<wgt id='1882'> +1.4605093e-12 </wgt>
<wgt id='1883'> +1.3546155e-12 </wgt>
<wgt id='1884'> +1.4244223e-12 </wgt>
<wgt id='1885'> +1.4708413e-12 </wgt>
<wgt id='1886'> +1.3989557e-12 </wgt>
<wgt id='1887'> +1.4670828e-12 </wgt>
<wgt id='1888'> +1.4064310e-12 </wgt>
<wgt id='1889'> +1.4535184e-12 </wgt>
<wgt id='1890'> +1.5159227e-12 </wgt>
<wgt id='1891'> +1.3295525e-12 </wgt>
<wgt id='1892'> +1.2878086e-12 </wgt>
<wgt id='1893'> +1.4149644e-12 </wgt>
<wgt id='1894'> +1.4010983e-12 </wgt>
<wgt id='1895'> +1.3652719e-12 </wgt>
<wgt id='1896'> +1.4178336e-12 </wgt>
<wgt id='1897'> +1.4112852e-12 </wgt>
<wgt id='1898'> +1.4159255e-12 </wgt>
<wgt id='1899'> +1.2584912e-12 </wgt>
<wgt id='1900'> +1.5220883e-12 </wgt>
<wgt id='1901'> +1.3455896e-12 </wgt>
<wgt id='1902'> +1.4171218e-12 </wgt>
<wgt id='1903'> +1.4429268e-12 </wgt>
<wgt id='1904'> +1.3825776e-12 </wgt>
<wgt id='1905'> +1.2948559e-12 </wgt>
<wgt id='1906'> +1.4024281e-12 </wgt>
<wgt id='1907'> +1.3749676e-12 </wgt>
<wgt id='1908'> +1.3947202e-12 </wgt>
<wgt id='1909'> +1.3892827e-12 </wgt>
<wgt id='1910'> +1.4184331e-12 </wgt>
<wgt id='1911'> +1.2867666e-12 </wgt>
<wgt id='1912'> +1.4125214e-12 </wgt>
<wgt id='1913'> +1.5199789e-12 </wgt>
<wgt id='1914'> +1.4665810e-12 </wgt>
<wgt id='1915'> +1.3503632e-12 </wgt>
<wgt id='1916'> +1.3012922e-12 </wgt>
<wgt id='1917'> +1.3957781e-12 </wgt>
<wgt id='1918'> +1.4276395e-12 </wgt>
<wgt id='1919'> +1.3542120e-12 </wgt>
</rwgt>
</event>
<event>
 9      1 +1.5607000e-12 2.60239800e+01 7.81860800e-03 1.49368400e-01
        2 -1    0    0  502    0 -0.0000000000e+00 +0.0000000000e+00 +2.3567690486e+03 2.3567690486e+03 0.0000000000e+00 0.0000e+00 -1.0000e+00
       21 -1    0    0  501  502 +0.0000000000e+00 -0.0000000000e+00 -5.9010067449e-01 5.9010067449e-01 0.0000000000e+00 0.0000e+00 -1.0000e+00
     1023  2    1    2    0    0 -1.3715844974e+01 -1.6250435504e+01 +2.1353760760e+03 2.1355346481e+03 1.5001545081e+01 0.0000e+00 0.0000e+00
  1000023  2    3    3    0    0 -8.0800312869e+00 -3.6751657604e+00 +1.1787432894e+03 1.1787895472e+03 5.5009520393e+00 0.0000e+00 0.0000e+00
        2  1    1    2  501    0 +1.3715844974e+01 +1.6250435504e+01 +2.2080287199e+02 2.2182450121e+02 0.0000000000e+00 0.0000e+00 -1.0000e+00
  1000022  1    4    4    0    0 -7.1175661237e+00 -3.1220286010e+00 +1.0184326735e+03 1.0184746031e+03 5.0000000000e+00 0.0000e+00 -1.0000e+00
      -11  1    4    4    0    0 -7.9277330183e-01 -2.9060712379e-01 +1.0222931984e+02 1.0223280676e+02 5.1100000000e-04 0.0000e+00 1.0000e+00
       11  1    4    4    0    0 -1.6969186138e-01 -2.6253003565e-01 +5.8081296107e+01 5.8082137315e+01 5.1100000000e-04 0.0000e+00 -1.0000e+00
  1000022  1    3    3    0    0 -5.6358136870e+00 -1.2575269743e+01 +9.5663278655e+02 9.5674510090e+02 5.0000000000e+00 0.0000e+00 1.0000e+00
<mgrwt>
<rscale>  1 0.26023978E+02</rscale>
<asrwt>0</asrwt>
<pdfrwt beam="1">  1       21 0.90786606E-04 0.26023978E+02</pdfrwt>
<pdfrwt beam="2">  1        2 0.36257232E+00 0.26023978E+02</pdfrwt>
<totfact> 0.53391290E+06</totfact>
</mgrwt>
<rwgt>
<wgt id='1001'> +1.5607000e-12 </wgt>
<wgt id='1002'> +1.5835945e-12 </wgt>
<wgt id='1003'> +1.5840295e-12 </wgt>
<wgt id='1004'> +1.5506652e-12 </wgt>
<wgt id='1005'> +1.5771831e-12 </wgt>
<wgt id='1006'> +1.3601407e-12 </wgt>
<wgt id='1007'> +1.3992456e-12 </wgt>
<wgt id='1008'> +1.4013241e-12 </wgt>
<wgt id='1009'> +1.3466807e-12 </wgt>
<wgt id='1010'> +1.4094014e-12 </wgt>
<wgt id='1011'> +1.8341973e-12 </wgt>
<wgt id='1012'> +1.8264295e-12 </wgt>
<wgt id='1013'> +1.8239657e-12 </wgt>
<wgt id='1014'> +1.8313349e-12 </wgt>
<wgt id='1015'> +1.7921658e-12 </wgt>
<wgt id='1016'> +1.8177390e-12 </wgt>
<wgt id='1017'> +1.7779627e-12 </wgt>
<wgt id='1018'> +1.7731902e-12 </wgt>
<wgt id='1019'> +1.8239657e-12 </wgt>
<wgt id='1020'> +1.7253904e-12 </wgt>
<wgt id='1021'> +1.5841487e-12 </wgt>
<wgt id='1022'> +1.5709870e-12 </wgt>
<wgt id='1023'> +1.5686666e-12 </wgt>
<wgt id='1024'> +1.5840295e-12 </wgt>
<wgt id='1025'> +1.5418424e-12 </wgt>
<wgt id='1026'> +2.1362799e-12 </wgt>
<wgt id='1027'> +2.0506029e-12 </wgt>
<wgt id='1028'> +2.0417790e-12 </wgt>
<wgt id='1029'> +2.1541027e-12 </wgt>
<wgt id='1030'> +1.9605750e-12 </wgt>
<wgt id='1031'> +1.2424745e-12 </wgt>
<wgt id='1032'> +1.3399862e-12 </wgt>
<wgt id='1033'> +1.3466807e-12 </wgt>
<wgt id='1034'> +1.2123882e-12 </wgt>
<wgt id='1035'> +1.3907765e-12 </wgt>
<wgt id='1036'> +1.0828091e-12 </wgt>
<wgt id='1037'> +1.1839961e-12 </wgt>
<wgt id='1038'> +1.1913516e-12 </wgt>
<wgt id='1039'> +1.0529028e-12 </wgt>
<wgt id='1040'> +1.2428249e-12 </wgt>
<wgt id='1041'> +1.4602060e-12 </wgt>
<wgt id='1042'> +1.5454653e-12 </wgt>
<wgt id='1043'> +1.5506652e-12 </wgt>
<wgt id='1044'> +1.4318299e-12 </wgt>
<wgt id='1045'> +1.5803506e-12 </wgt>
<wgt id='1046'> +1.5607000e-12 </wgt>
<wgt id='1047'> +1.5596439e-12 </wgt>
<wgt id='1048'> +1.6094048e-12 </wgt>
<wgt id='1049'> +1.5240799e-12 </wgt>
<wgt id='1050'> +1.5360565e-12 </wgt>
<wgt id='1051'> +1.5663875e-12 </wgt>
<wgt id='1052'> +1.5378180e-12 </wgt>
<wgt id='1053'> +1.6037912e-12 </wgt>
<wgt id='1054'> +1.5888902e-12 </wgt>
<wgt id='1055'> +1.5673128e-12 </wgt>
<wgt id='1056'> +1.4644095e-12 </wgt>
<wgt id='1057'> +1.5369199e-12 </wgt>
<wgt id='1058'> +1.5368679e-12 </wgt>
<wgt id='1059'> +1.5475069e-12 </wgt>
<wgt id='1060'> +1.5572558e-12 </wgt>
<wgt id='1061'> +1.5904949e-12 </wgt>
<wgt id='1062'> +1.5448118e-12 </wgt>
<wgt id='1063'> +1.4984640e-12 </wgt>
<wgt id='1064'> +1.5393558e-12 </wgt>
<wgt id='1065'> +1.5912300e-12 </wgt>
<wgt id='1066'> +1.5748020e-12 </wgt>
<wgt id='1067'> +1.6563383e-12 </wgt>
<wgt id='1068'> +1.6534418e-12 </wgt>
<wgt id='1069'> +1.6611792e-12 </wgt>
<wgt id='1070'> +1.5631413e-12 </wgt>
<wgt id='1071'> +1.5900519e-12 </wgt>
<wgt id='1072'> +1.5395811e-12 </wgt>
<wgt id='1073'> +1.5538632e-12 </wgt>
<wgt id='1074'> +1.5687167e-12 </wgt>
<wgt id='1075'> +1.5228761e-12 </wgt>
<wgt id='1076'> +1.5456427e-12 </wgt>
<wgt id='1077'> +1.6209794e-12 </wgt>
<wgt id='1078'> +1.5361762e-12 </wgt>
<wgt id='1079'> +1.5867220e-12 </wgt>
<wgt id='1080'> +1.5669380e-12 </wgt>
<wgt id='1081'> +1.5053553e-12 </wgt>
<wgt id='1082'> +1.5747396e-12 </wgt>
<wgt id='1083'> +1.5454486e-12 </wgt>
<wgt id='1084'> +1.5413450e-12 </wgt>
<wgt id='1085'> +1.5185902e-12 </wgt>
<wgt id='1086'> +1.6235268e-12 </wgt>
<wgt id='1087'> +1.5243071e-12 </wgt>
<wgt id='1088'> +1.5203891e-12 </wgt>
<wgt id='1089'> +1.5288566e-12 </wgt>
<wgt id='1090'> +1.5721901e-12 </wgt>
<wgt id='1091'> +1.5413519e-12 </wgt>
<wgt id='1092'> +1.5192118e-12 </wgt>
<wgt id='1093'> +1.6293251e-12 </wgt>
<wgt id='1094'> +1.5746429e-12 </wgt>
<wgt id='1095'> +1.6118642e-12 </wgt>
<wgt id='1096'> +1.5170581e-12 </wgt>
<wgt id='1097'> +1.5636002e-12 </wgt>
<wgt id='1098'> +1.6139532e-12 </wgt>
<wgt id='1099'> +1.5263107e-12 </wgt>
<wgt id='1100'> +1.6293247e-12 </wgt>
<wgt id='1101'> +1.5728415e-12 </wgt>
<wgt id='1102'> +1.4629912e-12 </wgt>
<wgt id='1103'> +1.5101090e-12 </wgt>
<wgt id='1104'> +1.5556425e-12 </wgt>
<wgt id='1105'> +1.4814256e-12 </wgt>
<wgt id='1106'> +1.5663613e-12 </wgt>
<wgt id='1107'> +1.6467107e-12 </wgt>
<wgt id='1108'> +1.5639020e-12 </wgt>
<wgt id='1109'> +1.5727739e-12 </wgt>
<wgt id='1110'> +1.5302662e-12 </wgt>
<wgt id='1111'> +1.6103022e-12 </wgt>
<wgt id='1112'> +1.5368031e-12 </wgt>
<wgt id='1113'> +1.6611089e-12 </wgt>
<wgt id='1114'> +1.5805790e-12 </wgt>
<wgt id='1115'> +1.5795667e-12 </wgt>
<wgt id='1116'> +1.6954586e-12 </wgt>
<wgt id='1117'> +1.5475262e-12 </wgt>
<wgt id='1118'> +1.5069819e-12 </wgt>
<wgt id='1119'> +1.5165921e-12 </wgt>
<wgt id='1120'> +1.5759104e-12 </wgt>
<wgt id='1121'> +1.4978840e-12 </wgt>
<wgt id='1122'> +1.5288033e-12 </wgt>
<wgt id='1123'> +1.6027379e-12 </wgt>
<wgt id='1124'> +1.6430877e-12 </wgt>
<wgt id='1125'> +1.4725494e-12 </wgt>
<wgt id='1126'> +1.4815843e-12 </wgt>
<wgt id='1127'> +1.5822958e-12 </wgt>
<wgt id='1128'> +1.5448118e-12 </wgt>
<wgt id='1129'> +1.5901327e-12 </wgt>
<wgt id='1130'> +1.5458663e-12 </wgt>
<wgt id='1131'> +1.6111018e-12 </wgt>
<wgt id='1132'> +1.5508096e-12 </wgt>
<wgt id='1133'> +1.5620367e-12 </wgt>
<wgt id='1134'> +1.5498670e-12 </wgt>
<wgt id='1135'> +1.5330174e-12 </wgt>
<wgt id='1136'> +1.5502116e-12 </wgt>
<wgt id='1137'> +1.5762088e-12 </wgt>
<wgt id='1138'> +1.5618579e-12 </wgt>
<wgt id='1139'> +1.5565561e-12 </wgt>
<wgt id='1140'> +1.5923870e-12 </wgt>
<wgt id='1141'> +1.5465972e-12 </wgt>
<wgt id='1142'> +1.6106792e-12 </wgt>
<wgt id='1143'> +1.4485085e-12 </wgt>
<wgt id='1144'> +1.5502841e-12 </wgt>
<wgt id='1145'> +1.5318987e-12 </wgt>
<wgt id='1146'> +1.5408020e-12 </wgt>
<wgt id='1147'> +1.5320901e-12 </wgt>
<wgt id='1148'> +1.5523411e-12 </wgt>
<wgt id='1149'> +1.4284959e-12 </wgt>
<wgt id='1150'> +1.5383655e-12 </wgt>
<wgt id='1151'> +2.1820491e-12 </wgt>
<wgt id='1152'> +3.1143791e-12 </wgt>
<wgt id='1153'> +3.1338452e-12 </wgt>
<wgt id='1154'> +3.1030627e-12 </wgt>
<wgt id='1155'> +3.1113498e-12 </wgt>
<wgt id='1156'> +3.1158156e-12 </wgt>
<wgt id='1157'> +3.1246149e-12 </wgt>
<wgt id='1158'> +3.1004274e-12 </wgt>
<wgt id='1159'> +3.1220010e-12 </wgt>
<wgt id='1160'> +3.1093599e-12 </wgt>
<wgt id='1161'> +3.1049211e-12 </wgt>
<wgt id='1162'> +3.1209246e-12 </wgt>
<wgt id='1163'> +3.1109685e-12 </wgt>
<wgt id='1164'> +3.1176588e-12 </wgt>
<wgt id='1165'> +3.1120272e-12 </wgt>
<wgt id='1166'> +3.1164981e-12 </wgt>
<wgt id='1167'> +3.1624342e-12 </wgt>
<wgt id='1168'> +3.0586967e-12 </wgt>
<wgt id='1169'> +3.1366901e-12 </wgt>
<wgt id='1170'> +3.0977919e-12 </wgt>
<wgt id='1171'> +3.0971208e-12 </wgt>
<wgt id='1172'> +3.1360515e-12 </wgt>
<wgt id='1173'> +3.0792034e-12 </wgt>
<wgt id='1174'> +3.1514500e-12 </wgt>
<wgt id='1175'> +3.1258637e-12 </wgt>
<wgt id='1176'> +3.1062668e-12 </wgt>
<wgt id='1177'> +3.1193164e-12 </wgt>
<wgt id='1178'> +3.1003963e-12 </wgt>
<wgt id='1179'> +3.1017329e-12 </wgt>
<wgt id='1180'> +3.1226740e-12 </wgt>
<wgt id='1181'> +3.1164087e-12 </wgt>
<wgt id='1182'> +3.1140185e-12 </wgt>
<wgt id='1183'> +3.1357731e-12 </wgt>
<wgt id='1184'> +3.1129293e-12 </wgt>
<wgt id='1185'> +3.1046559e-12 </wgt>
<wgt id='1186'> +3.1189352e-12 </wgt>
<wgt id='1187'> +3.1193149e-12 </wgt>
<wgt id='1188'> +3.1126654e-12 </wgt>
<wgt id='1189'> +3.1035083e-12 </wgt>
<wgt id='1190'> +3.0749782e-12 </wgt>
<wgt id='1191'> +3.1107793e-12 </wgt>
<wgt id='1192'> +3.1485157e-12 </wgt>
<wgt id='1193'> +1.5203651e-12 </wgt>
<wgt id='1194'> +1.4887026e-12 </wgt>
<wgt id='1195'> +1.5463982e-12 </wgt>
<wgt id='1196'> +1.5101739e-12 </wgt>
<wgt id='1197'> +1.5317320e-12 </wgt>
<wgt id='1198'> +1.5183600e-12 </wgt>
<wgt id='1199'> +1.5234281e-12 </wgt>
<wgt id='1200'> +1.5189693e-12 </wgt>
<wgt id='1201'> +1.5213273e-12 </wgt>
<wgt id='1202'> +1.5204225e-12 </wgt>
<wgt id='1203'> +1.5202727e-12 </wgt>
<wgt id='1204'> +1.5191385e-12 </wgt>
<wgt id='1205'> +1.5208214e-12 </wgt>
<wgt id='1206'> +1.5239086e-12 </wgt>
<wgt id='1207'> +1.5154694e-12 </wgt>
<wgt id='1208'> +1.5281191e-12 </wgt>
<wgt id='1209'> +1.5176923e-12 </wgt>
<wgt id='1210'> +1.5431802e-12 </wgt>
<wgt id='1211'> +1.5063750e-12 </wgt>
<wgt id='1212'> +1.5127966e-12 </wgt>
<wgt id='1213'> +1.5290343e-12 </wgt>
<wgt id='1214'> +1.5113147e-12 </wgt>
<wgt id='1215'> +1.5256484e-12 </wgt>
<wgt id='1216'> +1.5237933e-12 </wgt>
<wgt id='1217'> +1.5175436e-12 </wgt>
<wgt id='1218'> +1.5279648e-12 </wgt>
<wgt id='1219'> +1.5166025e-12 </wgt>
<wgt id='1220'> +1.5366716e-12 </wgt>
<wgt id='1221'> +1.5139534e-12 </wgt>
<wgt id='1222'> +1.5511093e-12 </wgt>
<wgt id='1223'> +1.4804685e-12 </wgt>
<wgt id='1224'> +1.5235435e-12 </wgt>
<wgt id='1225'> +1.5191044e-12 </wgt>
<wgt id='1226'> +1.5159436e-12 </wgt>
<wgt id='1227'> +1.5234562e-12 </wgt>
<wgt id='1228'> +1.5274640e-12 </wgt>
<wgt id='1229'> +1.5179478e-12 </wgt>
<wgt id='1230'> +1.5230108e-12 </wgt>
<wgt id='1231'> +1.5416333e-12 </wgt>
<wgt id='1232'> +1.5274684e-12 </wgt>
<wgt id='1233'> +1.5188117e-12 </wgt>
<wgt id='1234'> +1.5203651e-12 </wgt>
<wgt id='1235'> +1.5140137e-12 </wgt>
<wgt id='1236'> +1.5163616e-12 </wgt>
<wgt id='1237'> +1.5185944e-12 </wgt>
<wgt id='1238'> +1.5220151e-12 </wgt>
<wgt id='1239'> +1.5236544e-12 </wgt>
<wgt id='1240'> +1.5250301e-12 </wgt>
<wgt id='1241'> +1.3905466e-12 </wgt>
<wgt id='1242'> +1.3651007e-12 </wgt>
<wgt id='1243'> +1.4156065e-12 </wgt>
<wgt id='1244'> +1.4081717e-12 </wgt>
<wgt id='1245'> +1.3776417e-12 </wgt>
<wgt id='1246'> +1.3879545e-12 </wgt>
<wgt id='1247'> +1.3927658e-12 </wgt>
<wgt id='1248'> +1.3906838e-12 </wgt>
<wgt id='1249'> +1.3904099e-12 </wgt>
<wgt id='1250'> +1.3921930e-12 </wgt>
<wgt id='1251'> +1.3894205e-12 </wgt>
<wgt id='1252'> +1.3866749e-12 </wgt>
<wgt id='1253'> +1.3935315e-12 </wgt>
<wgt id='1254'> +1.3901121e-12 </wgt>
<wgt id='1255'> +1.3906645e-12 </wgt>
<wgt id='1256'> +1.3869956e-12 </wgt>
<wgt id='1257'> +1.3994377e-12 </wgt>
<wgt id='1258'> +1.3863887e-12 </wgt>
<wgt id='1259'> +1.3883787e-12 </wgt>
<wgt id='1260'> +1.3942095e-12 </wgt>
<wgt id='1261'> +1.3867564e-12 </wgt>
<wgt id='1262'> +1.3852474e-12 </wgt>
<wgt id='1263'> +1.3931418e-12 </wgt>
<wgt id='1264'> +1.3979461e-12 </wgt>
<wgt id='1265'> +1.3880602e-12 </wgt>
<wgt id='1266'> +1.3609571e-12 </wgt>
<wgt id='1267'> +1.4196473e-12 </wgt>
<wgt id='1268'> +1.4006217e-12 </wgt>
<wgt id='1269'> +1.3820221e-12 </wgt>
<wgt id='1270'> +1.4194454e-12 </wgt>
<wgt id='1271'> +1.3962819e-12 </wgt>
<wgt id='1272'> +1.4000967e-12 </wgt>
<wgt id='1273'> +1.3898410e-12 </wgt>
<wgt id='1274'> +1.3942280e-12 </wgt>
<wgt id='1275'> +1.3856782e-12 </wgt>
<wgt id='1276'> +1.3881896e-12 </wgt>
<wgt id='1277'> +1.3961775e-12 </wgt>
<wgt id='1278'> +1.4205051e-12 </wgt>
<wgt id='1279'> +1.3920787e-12 </wgt>
<wgt id='1280'> +1.3907172e-12 </wgt>
<wgt id='1281'> +1.4006707e-12 </wgt>
<wgt id='1282'> +1.3905466e-12 </wgt>
<wgt id='1283'> +1.3862356e-12 </wgt>
<wgt id='1284'> +1.3879408e-12 </wgt>
<wgt id='1285'> +1.3895303e-12 </wgt>
<wgt id='1286'> +1.3917897e-12 </wgt>
<wgt id='1287'> +1.3925924e-12 </wgt>
<wgt id='1288'> +1.3931929e-12 </wgt>
<wgt id='1289'> +1.5876785e-12 </wgt>
<wgt id='1290'> +1.5956842e-12 </wgt>
<wgt id='1291'> +1.5790966e-12 </wgt>
<wgt id='1292'> +1.5892205e-12 </wgt>
<wgt id='1293'> +1.5865889e-12 </wgt>
<wgt id='1294'> +1.5591407e-12 </wgt>
<wgt id='1295'> +1.6150654e-12 </wgt>
<wgt id='1296'> +1.6111622e-12 </wgt>
<wgt id='1297'> +1.5588066e-12 </wgt>
<wgt id='1298'> +1.5990258e-12 </wgt>
<wgt id='1299'> +1.5733346e-12 </wgt>
<wgt id='1300'> +1.5902624e-12 </wgt>
<wgt id='1301'> +1.5824639e-12 </wgt>
<wgt id='1302'> +1.5836423e-12 </wgt>
<wgt id='1303'> +1.5933006e-12 </wgt>
<wgt id='1304'> +1.5852912e-12 </wgt>
<wgt id='1305'> +1.5892889e-12 </wgt>
<wgt id='1306'> +1.5880502e-12 </wgt>
<wgt id='1307'> +1.5871730e-12 </wgt>
<wgt id='1308'> +1.5818610e-12 </wgt>
<wgt id='1309'> +1.5921727e-12 </wgt>
<wgt id='1310'> +1.6005988e-12 </wgt>
<wgt id='1311'> +1.5744072e-12 </wgt>
<wgt id='1312'> +1.5953965e-12 </wgt>
<wgt id='1313'> +1.5808373e-12 </wgt>
<wgt id='1314'> +1.5750654e-12 </wgt>
<wgt id='1315'> +1.6027623e-12 </wgt>
<wgt id='1316'> +1.5960008e-12 </wgt>
<wgt id='1317'> +1.5920291e-12 </wgt>
<wgt id='1318'> +1.5950049e-12 </wgt>
<wgt id='1319'> +1.5761348e-12 </wgt>
<wgt id='1320'> +1.6081612e-12 </wgt>
<wgt id='1321'> +1.5680722e-12 </wgt>
<wgt id='1322'> +1.5862203e-12 </wgt>
<wgt id='1323'> +1.5892909e-12 </wgt>
<wgt id='1324'> +1.5850408e-12 </wgt>
<wgt id='1325'> +1.5969022e-12 </wgt>
<wgt id='1326'> +1.5878194e-12 </wgt>
<wgt id='1327'> +1.5918874e-12 </wgt>
<wgt id='1328'> +1.5884085e-12 </wgt>
<wgt id='1329'> +1.5863318e-12 </wgt>
<wgt id='1330'> +1.5940262e-12 </wgt>
<wgt id='1331'> +1.5798890e-12 </wgt>
<wgt id='1332'> +1.5970314e-12 </wgt>
<wgt id='1333'> +1.6064669e-12 </wgt>
<wgt id='1334'> +1.5884972e-12 </wgt>
<wgt id='1335'> +1.5868722e-12 </wgt>
<wgt id='1336'> +1.5935068e-12 </wgt>
<wgt id='1337'> +1.6039422e-12 </wgt>
<wgt id='1338'> +1.5897754e-12 </wgt>
<wgt id='1339'> +1.5893393e-12 </wgt>
<wgt id='1340'> +1.5584417e-12 </wgt>
<wgt id='1341'> +1.5661215e-12 </wgt>
<wgt id='1342'> +1.5502136e-12 </wgt>
<wgt id='1343'> +1.5601626e-12 </wgt>
<wgt id='1344'> +1.5573119e-12 </wgt>
<wgt id='1345'> +1.5288494e-12 </wgt>
<wgt id='1346'> +1.5857031e-12 </wgt>
<wgt id='1347'> +1.5828054e-12 </wgt>
<wgt id='1348'> +1.5314283e-12 </wgt>
<wgt id='1349'> +1.5698428e-12 </wgt>
<wgt id='1350'> +1.5471956e-12 </wgt>
<wgt id='1351'> +1.5611272e-12 </wgt>
<wgt id='1352'> +1.5525436e-12 </wgt>
<wgt id='1353'> +1.5535290e-12 </wgt>
<wgt id='1354'> +1.5672352e-12 </wgt>
<wgt id='1355'> +1.5571670e-12 </wgt>
<wgt id='1356'> +1.5591416e-12 </wgt>
<wgt id='1357'> +1.5577589e-12 </wgt>
<wgt id='1358'> +1.5590456e-12 </wgt>
<wgt id='1359'> +1.5530693e-12 </wgt>
<wgt id='1360'> +1.5631652e-12 </wgt>
<wgt id='1361'> +1.5700893e-12 </wgt>
<wgt id='1362'> +1.5435508e-12 </wgt>
<wgt id='1363'> +1.5710038e-12 </wgt>
<wgt id='1364'> +1.5507064e-12 </wgt>
<wgt id='1365'> +1.5635443e-12 </wgt>
<wgt id='1366'> +1.5515907e-12 </wgt>
<wgt id='1367'> +1.5667138e-12 </wgt>
<wgt id='1368'> +1.5606106e-12 </wgt>
<wgt id='1369'> +1.5637333e-12 </wgt>
<wgt id='1370'> +1.5505194e-12 </wgt>
<wgt id='1371'> +1.5743428e-12 </wgt>
<wgt id='1372'> +1.5376015e-12 </wgt>
<wgt id='1373'> +1.5524746e-12 </wgt>
<wgt id='1374'> +1.5633842e-12 </wgt>
<wgt id='1375'> +1.5557381e-12 </wgt>
<wgt id='1376'> +1.5678113e-12 </wgt>
<wgt id='1377'> +1.5591362e-12 </wgt>
<wgt id='1378'> +1.5625203e-12 </wgt>
<wgt id='1379'> +1.5592893e-12 </wgt>
<wgt id='1380'> +1.5568576e-12 </wgt>
<wgt id='1381'> +1.5642269e-12 </wgt>
<wgt id='1382'> +1.5520162e-12 </wgt>
<wgt id='1383'> +1.5644996e-12 </wgt>
<wgt id='1384'> +1.5778034e-12 </wgt>
<wgt id='1385'> +1.5592715e-12 </wgt>
<wgt id='1386'> +1.5570612e-12 </wgt>
<wgt id='1387'> +1.5648237e-12 </wgt>
<wgt id='1388'> +1.5752974e-12 </wgt>
<wgt id='1389'> +1.5610289e-12 </wgt>
<wgt id='1390'> +1.5611465e-12 </wgt>
<wgt id='1391'> +1.5359938e-12 </wgt>
<wgt id='1392'> +1.4941863e-12 </wgt>
<wgt id='1393'> +1.5089603e-12 </wgt>
<wgt id='1394'> +1.5229734e-12 </wgt>
<wgt id='1395'> +1.5500223e-12 </wgt>
<wgt id='1396'> +1.5365420e-12 </wgt>
<wgt id='1397'> +1.5103867e-12 </wgt>
<wgt id='1398'> +1.5136039e-12 </wgt>
<wgt id='1399'> +1.5179035e-12 </wgt>
<wgt id='1400'> +1.5232769e-12 </wgt>
<wgt id='1401'> +1.5297279e-12 </wgt>
<wgt id='1402'> +1.5428413e-12 </wgt>
<wgt id='1403'> +1.5497057e-12 </wgt>
<wgt id='1404'> +1.5567356e-12 </wgt>
<wgt id='1405'> +1.5365420e-12 </wgt>
<wgt id='1406'> +1.5328163e-12 </wgt>
<wgt id='1407'> +1.5347171e-12 </wgt>
<wgt id='1408'> +1.5381232e-12 </wgt>
<wgt id='1409'> +1.5391737e-12 </wgt>
<wgt id='1410'> +1.3779173e-12 </wgt>
<wgt id='1411'> +1.3922260e-12 </wgt>
<wgt id='1412'> +1.3594403e-12 </wgt>
<wgt id='1413'> +1.3581655e-12 </wgt>
<wgt id='1414'> +1.3974628e-12 </wgt>
<wgt id='1415'> +1.3699739e-12 </wgt>
<wgt id='1416'> +1.3810705e-12 </wgt>
<wgt id='1417'> +1.3876017e-12 </wgt>
<wgt id='1418'> +1.3681042e-12 </wgt>
<wgt id='1419'> +1.3802037e-12 </wgt>
<wgt id='1420'> +1.3755618e-12 </wgt>
<wgt id='1421'> +1.3641348e-12 </wgt>
<wgt id='1422'> +1.3835583e-12 </wgt>
<wgt id='1423'> +1.3779309e-12 </wgt>
<wgt id='1424'> +1.3778395e-12 </wgt>
<wgt id='1425'> +1.3678926e-12 </wgt>
<wgt id='1426'> +1.3886269e-12 </wgt>
<wgt id='1427'> +1.3615199e-12 </wgt>
<wgt id='1428'> +1.3868145e-12 </wgt>
<wgt id='1429'> +1.3758880e-12 </wgt>
<wgt id='1430'> +1.3809719e-12 </wgt>
<wgt id='1431'> +1.3744466e-12 </wgt>
<wgt id='1432'> +1.3803893e-12 </wgt>
<wgt id='1433'> +1.3516357e-12 </wgt>
<wgt id='1434'> +1.4008733e-12 </wgt>
<wgt id='1435'> +1.3725007e-12 </wgt>
<wgt id='1436'> +1.3924329e-12 </wgt>
<wgt id='1437'> +1.3866801e-12 </wgt>
<wgt id='1438'> +1.3853347e-12 </wgt>
<wgt id='1439'> +1.3709865e-12 </wgt>
<wgt id='1440'> +1.3854953e-12 </wgt>
<wgt id='1441'> +1.3851296e-12 </wgt>
<wgt id='1442'> +1.3622637e-12 </wgt>
<wgt id='1443'> +1.3744297e-12 </wgt>
<wgt id='1444'> +1.3876897e-12 </wgt>
<wgt id='1445'> +1.3934839e-12 </wgt>
<wgt id='1446'> +1.3732307e-12 </wgt>
<wgt id='1447'> +1.3798192e-12 </wgt>
<wgt id='1448'> +1.3834777e-12 </wgt>
<wgt id='1449'> +1.3794859e-12 </wgt>
<wgt id='1450'> +1.3757344e-12 </wgt>
<wgt id='1451'> +1.3767801e-12 </wgt>
<wgt id='1452'> +1.3887511e-12 </wgt>
<wgt id='1453'> +1.3774516e-12 </wgt>
<wgt id='1454'> +1.3877635e-12 </wgt>
<wgt id='1455'> +1.3953299e-12 </wgt>
<wgt id='1456'> +1.3958750e-12 </wgt>
<wgt id='1457'> +1.3863111e-12 </wgt>
<wgt id='1458'> +1.3780641e-12 </wgt>
<wgt id='1459'> +1.3875820e-12 </wgt>
<wgt id='1460'> +1.4012649e-12 </wgt>
<wgt id='1461'> +1.3779173e-12 </wgt>
<wgt id='1462'> +1.3706696e-12 </wgt>
<wgt id='1463'> +1.3775981e-12 </wgt>
<wgt id='1464'> +1.3744212e-12 </wgt>
<wgt id='1465'> +1.3439992e-12 </wgt>
<wgt id='1466'> +1.3481991e-12 </wgt>
<wgt id='1467'> +1.3536717e-12 </wgt>
<wgt id='1468'> +1.3639887e-12 </wgt>
<wgt id='1469'> +1.3677389e-12 </wgt>
<wgt id='1470'> +1.3813871e-12 </wgt>
<wgt id='1471'> +1.3881577e-12 </wgt>
<wgt id='1472'> +1.3948635e-12 </wgt>
<wgt id='1473'> +1.3744212e-12 </wgt>
<wgt id='1474'> +1.3726475e-12 </wgt>
<wgt id='1475'> +1.3747739e-12 </wgt>
<wgt id='1476'> +1.3745396e-12 </wgt>
<wgt id='1477'> +1.3750115e-12 </wgt>
<wgt id='1478'> +1.5023917e-12 </wgt>
<wgt id='1479'> +1.5026631e-12 </wgt>
<wgt id='1480'> +1.4916512e-12 </wgt>
<wgt id='1481'> +1.5537900e-12 </wgt>
<wgt id='1482'> +1.5073011e-12 </wgt>
<wgt id='1483'> +1.4924749e-12 </wgt>
<wgt id='1484'> +1.4796707e-12 </wgt>
<wgt id='1485'> +1.5142854e-12 </wgt>
<wgt id='1486'> +1.5016970e-12 </wgt>
<wgt id='1487'> +1.5100765e-12 </wgt>
<wgt id='1488'> +1.5000449e-12 </wgt>
<wgt id='1489'> +1.5043526e-12 </wgt>
<wgt id='1490'> +1.4996662e-12 </wgt>
<wgt id='1491'> +1.5092814e-12 </wgt>
<wgt id='1492'> +1.5021476e-12 </wgt>
<wgt id='1493'> +1.4809305e-12 </wgt>
<wgt id='1494'> +1.4951380e-12 </wgt>
<wgt id='1495'> +1.5012601e-12 </wgt>
<wgt id='1496'> +1.5027112e-12 </wgt>
<wgt id='1497'> +1.5018340e-12 </wgt>
<wgt id='1498'> +1.5029243e-12 </wgt>
<wgt id='1499'> +1.5051057e-12 </wgt>
<wgt id='1500'> +1.5026738e-12 </wgt>
<wgt id='1501'> +1.5036099e-12 </wgt>
<wgt id='1502'> +1.5031860e-12 </wgt>
<wgt id='1503'> +1.5066935e-12 </wgt>
<wgt id='1504'> +1.4988038e-12 </wgt>
<wgt id='1505'> +1.5056622e-12 </wgt>
<wgt id='1506'> +1.5031679e-12 </wgt>
<wgt id='1507'> +1.5032918e-12 </wgt>
<wgt id='1508'> +1.5048667e-12 </wgt>
<wgt id='1509'> +1.3746667e-12 </wgt>
<wgt id='1510'> +1.3845921e-12 </wgt>
<wgt id='1511'> +1.3417855e-12 </wgt>
<wgt id='1512'> +1.3633047e-12 </wgt>
<wgt id='1513'> +1.3710479e-12 </wgt>
<wgt id='1514'> +1.3770977e-12 </wgt>
<wgt id='1515'> +1.3774129e-12 </wgt>
<wgt id='1516'> +1.3731767e-12 </wgt>
<wgt id='1517'> +1.3773336e-12 </wgt>
<wgt id='1518'> +1.3713952e-12 </wgt>
<wgt id='1519'> +1.3780184e-12 </wgt>
<wgt id='1520'> +1.3773126e-12 </wgt>
<wgt id='1521'> +1.3726400e-12 </wgt>
<wgt id='1522'> +1.3759323e-12 </wgt>
<wgt id='1523'> +1.3781136e-12 </wgt>
<wgt id='1524'> +1.3723112e-12 </wgt>
<wgt id='1525'> +1.3739796e-12 </wgt>
<wgt id='1526'> +1.3767717e-12 </wgt>
<wgt id='1527'> +1.3754901e-12 </wgt>
<wgt id='1528'> +1.3747235e-12 </wgt>
<wgt id='1529'> +1.3731108e-12 </wgt>
<wgt id='1530'> +1.3740477e-12 </wgt>
<wgt id='1531'> +1.3762388e-12 </wgt>
<wgt id='1532'> +1.3696929e-12 </wgt>
<wgt id='1533'> +1.3762449e-12 </wgt>
<wgt id='1534'> +1.3755755e-12 </wgt>
<wgt id='1535'> +1.3720342e-12 </wgt>
<wgt id='1536'> +1.3796106e-12 </wgt>
<wgt id='1537'> +1.3774892e-12 </wgt>
<wgt id='1538'> +1.3608631e-12 </wgt>
<wgt id='1539'> +1.3711421e-12 </wgt>
<wgt id='1540'> +1.3740562e-12 </wgt>
<wgt id='1541'> +1.3724098e-12 </wgt>
<wgt id='1542'> +1.3729382e-12 </wgt>
<wgt id='1543'> +1.3756408e-12 </wgt>
<wgt id='1544'> +1.3728708e-12 </wgt>
<wgt id='1545'> +1.3728974e-12 </wgt>
<wgt id='1546'> +1.3763563e-12 </wgt>
<wgt id='1547'> +1.3739424e-12 </wgt>
<wgt id='1548'> +1.3751622e-12 </wgt>
<wgt id='1549'> +1.3743499e-12 </wgt>
<wgt id='1550'> +1.3724221e-12 </wgt>
<wgt id='1551'> +1.3746550e-12 </wgt>
<wgt id='1552'> +1.3784328e-12 </wgt>
<wgt id='1553'> +1.3728259e-12 </wgt>
<wgt id='1554'> +1.3761518e-12 </wgt>
<wgt id='1555'> +1.3752392e-12 </wgt>
<wgt id='1556'> +1.3759996e-12 </wgt>
<wgt id='1557'> +1.3791487e-12 </wgt>
<wgt id='1558'> +1.3764204e-12 </wgt>
<wgt id='1559'> +1.3799886e-12 </wgt>
<wgt id='1560'> +1.3800161e-12 </wgt>
<wgt id='1561'> +1.3761293e-12 </wgt>
<wgt id='1562'> +1.3768496e-12 </wgt>
<wgt id='1563'> +1.3776460e-12 </wgt>
<wgt id='1564'> +1.3763477e-12 </wgt>
<wgt id='1565'> +1.3718149e-12 </wgt>
<wgt id='1566'> +1.3742588e-12 </wgt>
<wgt id='1567'> +1.3770066e-12 </wgt>
<wgt id='1568'> +1.3768102e-12 </wgt>
<wgt id='1569'> +1.3718799e-12 </wgt>
<wgt id='1570'> +1.3765850e-12 </wgt>
<wgt id='1571'> +1.3746458e-12 </wgt>
<wgt id='1572'> +1.3759268e-12 </wgt>
<wgt id='1573'> +1.3736422e-12 </wgt>
<wgt id='1574'> +1.3762692e-12 </wgt>
<wgt id='1575'> +1.3754316e-12 </wgt>
<wgt id='1576'> +1.3777239e-12 </wgt>
<wgt id='1577'> +1.3747284e-12 </wgt>
<wgt id='1578'> +1.3767928e-12 </wgt>
<wgt id='1579'> +1.3734955e-12 </wgt>
<wgt id='1580'> +1.3734054e-12 </wgt>
<wgt id='1581'> +1.3718385e-12 </wgt>
<wgt id='1582'> +1.3715465e-12 </wgt>
<wgt id='1583'> +1.3762090e-12 </wgt>
<wgt id='1584'> +1.3788818e-12 </wgt>
<wgt id='1585'> +1.3755349e-12 </wgt>
<wgt id='1586'> +1.3738831e-12 </wgt>
<wgt id='1587'> +1.3722528e-12 </wgt>
<wgt id='1588'> +1.3745312e-12 </wgt>
<wgt id='1589'> +1.3753834e-12 </wgt>
<wgt id='1590'> +1.3742360e-12 </wgt>
<wgt id='1591'> +1.3762633e-12 </wgt>
<wgt id='1592'> +1.3730790e-12 </wgt>
<wgt id='1593'> +1.3766106e-12 </wgt>
<wgt id='1594'> +1.3735386e-12 </wgt>
<wgt id='1595'> +1.3752976e-12 </wgt>
<wgt id='1596'> +1.3749839e-12 </wgt>
<wgt id='1597'> +1.3765211e-12 </wgt>
<wgt id='1598'> +1.3747144e-12 </wgt>
<wgt id='1599'> +1.3763487e-12 </wgt>
<wgt id='1600'> +1.3740759e-12 </wgt>
<wgt id='1601'> +1.3743952e-12 </wgt>
<wgt id='1602'> +1.3760331e-12 </wgt>
<wgt id='1603'> +1.3749800e-12 </wgt>
<wgt id='1604'> +1.3768340e-12 </wgt>
<wgt id='1605'> +1.3745993e-12 </wgt>
<wgt id='1606'> +1.3755909e-12 </wgt>
<wgt id='1607'> +1.3757157e-12 </wgt>
<wgt id='1608'> +1.3750022e-12 </wgt>
<wgt id='1609'> +1.3745741e-12 </wgt>
<wgt id='1610'> +1.3621866e-12 </wgt>
<wgt id='1611'> +1.3819910e-12 </wgt>
<wgt id='1612'> +1.5660679e-12 </wgt>
<wgt id='1613'> +1.5141794e-12 </wgt>
<wgt id='1614'> +1.4690637e-12 </wgt>
<wgt id='1615'> +1.5080940e-12 </wgt>
<wgt id='1616'> +1.5107687e-12 </wgt>
<wgt id='1617'> +1.4657413e-12 </wgt>
<wgt id='1618'> +1.5906928e-12 </wgt>
<wgt id='1619'> +1.5083943e-12 </wgt>
<wgt id='1620'> +1.5328907e-12 </wgt>
<wgt id='1621'> +1.5879783e-12 </wgt>
<wgt id='1622'> +1.5766086e-12 </wgt>
<wgt id='1623'> +1.6200962e-12 </wgt>
<wgt id='1624'> +1.6381960e-12 </wgt>
<wgt id='1625'> +1.4313880e-12 </wgt>
<wgt id='1626'> +1.5348898e-12 </wgt>
<wgt id='1627'> +1.6074695e-12 </wgt>
<wgt id='1628'> +1.5216245e-12 </wgt>
<wgt id='1629'> +1.5707949e-12 </wgt>
<wgt id='1630'> +1.4923199e-12 </wgt>
<wgt id='1631'> +1.5168212e-12 </wgt>
<wgt id='1632'> +1.5126336e-12 </wgt>
<wgt id='1633'> +1.4246005e-12 </wgt>
<wgt id='1634'> +1.5588451e-12 </wgt>
<wgt id='1635'> +1.5912058e-12 </wgt>
<wgt id='1636'> +1.5129241e-12 </wgt>
<wgt id='1637'> +1.6020121e-12 </wgt>
<wgt id='1638'> +1.6179355e-12 </wgt>
<wgt id='1639'> +1.5124271e-12 </wgt>
<wgt id='1640'> +1.5446360e-12 </wgt>
<wgt id='1641'> +1.5890847e-12 </wgt>
<wgt id='1642'> +1.4786718e-12 </wgt>
<wgt id='1643'> +1.5020204e-12 </wgt>
<wgt id='1644'> +1.5962716e-12 </wgt>
<wgt id='1645'> +1.5387542e-12 </wgt>
<wgt id='1646'> +1.5637749e-12 </wgt>
<wgt id='1647'> +1.6317932e-12 </wgt>
<wgt id='1648'> +1.5634832e-12 </wgt>
<wgt id='1649'> +1.6798610e-12 </wgt>
<wgt id='1650'> +1.5355164e-12 </wgt>
<wgt id='1651'> +1.6744872e-12 </wgt>
<wgt id='1652'> +1.4932337e-12 </wgt>
<wgt id='1653'> +1.5613484e-12 </wgt>
<wgt id='1654'> +1.5968619e-12 </wgt>
<wgt id='1655'> +1.6236963e-12 </wgt>
<wgt id='1656'> +1.4765504e-12 </wgt>
<wgt id='1657'> +1.6096695e-12 </wgt>
<wgt id='1658'> +1.5503072e-12 </wgt>
<wgt id='1659'> +1.6381960e-12 </wgt>
<wgt id='1660'> +1.5714866e-12 </wgt>
<wgt id='1661'> +1.6293369e-12 </wgt>
<wgt id='1662'> +1.6535421e-12 </wgt>
<wgt id='1663'> +1.5829771e-12 </wgt>
<wgt id='1664'> +1.5520243e-12 </wgt>
<wgt id='1665'> +1.5129337e-12 </wgt>
<wgt id='1666'> +1.5990405e-12 </wgt>
<wgt id='1667'> +1.5864576e-12 </wgt>
<wgt id='1668'> +1.6193903e-12 </wgt>
<wgt id='1669'> +1.6569295e-12 </wgt>
<wgt id='1670'> +1.5001214e-12 </wgt>
<wgt id='1671'> +1.5415948e-12 </wgt>
<wgt id='1672'> +1.5985321e-12 </wgt>
<wgt id='1673'> +1.6153115e-12 </wgt>
<wgt id='1674'> +1.5412659e-12 </wgt>
<wgt id='1675'> +1.5857766e-12 </wgt>
<wgt id='1676'> +1.5195922e-12 </wgt>
<wgt id='1677'> +1.4934855e-12 </wgt>
<wgt id='1678'> +1.5385975e-12 </wgt>
<wgt id='1679'> +1.5894094e-12 </wgt>
<wgt id='1680'> +1.6196659e-12 </wgt>
<wgt id='1681'> +1.6021045e-12 </wgt>
<wgt id='1682'> +1.5433279e-12 </wgt>
<wgt id='1683'> +1.6121774e-12 </wgt>
<wgt id='1684'> +1.6510579e-12 </wgt>
<wgt id='1685'> +1.5563105e-12 </wgt>
<wgt id='1686'> +1.5519346e-12 </wgt>
<wgt id='1687'> +1.5565374e-12 </wgt>
<wgt id='1688'> +1.5549315e-12 </wgt>
<wgt id='1689'> +1.6163022e-12 </wgt>
<wgt id='1690'> +1.6111284e-12 </wgt>
<wgt id='1691'> +1.4455643e-12 </wgt>
<wgt id='1692'> +1.5381852e-12 </wgt>
<wgt id='1693'> +1.5658994e-12 </wgt>
<wgt id='1694'> +1.5018412e-12 </wgt>
<wgt id='1695'> +1.6051912e-12 </wgt>
<wgt id='1696'> +1.5699363e-12 </wgt>
<wgt id='1697'> +1.6110949e-12 </wgt>
<wgt id='1698'> +1.5742071e-12 </wgt>
<wgt id='1699'> +1.6102679e-12 </wgt>
<wgt id='1700'> +1.5161436e-12 </wgt>
<wgt id='1701'> +1.6526932e-12 </wgt>
<wgt id='1702'> +1.5346406e-12 </wgt>
<wgt id='1703'> +1.5430611e-12 </wgt>
<wgt id='1704'> +1.4851906e-12 </wgt>
<wgt id='1705'> +1.5261139e-12 </wgt>
<wgt id='1706'> +1.6435000e-12 </wgt>
<wgt id='1707'> +1.6443413e-12 </wgt>
<wgt id='1708'> +1.6948991e-12 </wgt>
<wgt id='1709'> +1.6378865e-12 </wgt>
<wgt id='1710'> +1.5599746e-12 </wgt>
<wgt id='1711'> +1.5224036e-12 </wgt>
<wgt id='1712'> +1.6572783e-12 </wgt>
<wgt id='1713'> +1.4675795e-12 </wgt>
<wgt id='1714'> +1.4691470e-12 </wgt>
<wgt id='1715'> +1.3748610e-12 </wgt>
<wgt id='1716'> +1.4901823e-12 </wgt>
<wgt id='1717'> +1.5051974e-12 </wgt>
<wgt id='1718'> +1.4977415e-12 </wgt>
<wgt id='1719'> +1.4705120e-12 </wgt>
<wgt id='1720'> +1.3846083e-12 </wgt>
<wgt id='1721'> +1.4239423e-12 </wgt>
<wgt id='1722'> +1.4601590e-12 </wgt>
<wgt id='1723'> +1.5737914e-12 </wgt>
<wgt id='1724'> +1.4353320e-12 </wgt>
<wgt id='1725'> +1.4803698e-12 </wgt>
<wgt id='1726'> +1.4233157e-12 </wgt>
<wgt id='1727'> +1.5551219e-12 </wgt>
<wgt id='1728'> +1.4336262e-12 </wgt>
<wgt id='1729'> +1.3936034e-12 </wgt>
<wgt id='1730'> +1.4302659e-12 </wgt>
<wgt id='1731'> +1.4305839e-12 </wgt>
<wgt id='1732'> +1.4772856e-12 </wgt>
<wgt id='1733'> +1.4152490e-12 </wgt>
<wgt id='1734'> +1.5575597e-12 </wgt>
<wgt id='1735'> +1.4179597e-12 </wgt>
<wgt id='1736'> +1.4682908e-12 </wgt>
<wgt id='1737'> +1.6018643e-12 </wgt>
<wgt id='1738'> +1.4375029e-12 </wgt>
<wgt id='1739'> +1.5141183e-12 </wgt>
<wgt id='1740'> +1.4071587e-12 </wgt>
<wgt id='1741'> +1.5326613e-12 </wgt>
<wgt id='1742'> +1.4611317e-12 </wgt>
<wgt id='1743'> +1.4065994e-12 </wgt>
<wgt id='1744'> +1.5128037e-12 </wgt>
<wgt id='1745'> +1.4996567e-12 </wgt>
<wgt id='1746'> +1.4591291e-12 </wgt>
<wgt id='1747'> +1.5785263e-12 </wgt>
<wgt id='1748'> +1.5051907e-12 </wgt>
<wgt id='1749'> +1.4545012e-12 </wgt>
<wgt id='1750'> +1.4043464e-12 </wgt>
<wgt id='1751'> +1.4712831e-12 </wgt>
<wgt id='1752'> +1.4706258e-12 </wgt>
<wgt id='1753'> +1.4954694e-12 </wgt>
<wgt id='1754'> +1.4855810e-12 </wgt>
<wgt id='1755'> +1.4772922e-12 </wgt>
<wgt id='1756'> +1.4883435e-12 </wgt>
<wgt id='1757'> +1.5229992e-12 </wgt>
<wgt id='1758'> +1.5460104e-12 </wgt>
<wgt id='1759'> +1.5290281e-12 </wgt>
<wgt id='1760'> +1.4357788e-12 </wgt>
<wgt id='1761'> +1.4653275e-12 </wgt>
<wgt id='1762'> +1.4264062e-12 </wgt>
<wgt id='1763'> +1.4969395e-12 </wgt>
<wgt id='1764'> +1.5303419e-12 </wgt>
<wgt id='1765'> +1.4394035e-12 </wgt>
<wgt id='1766'> +1.5059677e-12 </wgt>
<wgt id='1767'> +1.4381896e-12 </wgt>
<wgt id='1768'> +1.4941003e-12 </wgt>
<wgt id='1769'> +1.4787874e-12 </wgt>
<wgt id='1770'> +1.4482815e-12 </wgt>
<wgt id='1771'> +1.5268552e-12 </wgt>
<wgt id='1772'> +1.4315701e-12 </wgt>
<wgt id='1773'> +1.4622570e-12 </wgt>
<wgt id='1774'> +1.4336236e-12 </wgt>
<wgt id='1775'> +1.4538102e-12 </wgt>
<wgt id='1776'> +1.5443534e-12 </wgt>
<wgt id='1777'> +1.4234817e-12 </wgt>
<wgt id='1778'> +1.5150456e-12 </wgt>
<wgt id='1779'> +1.4403937e-12 </wgt>
<wgt id='1780'> +1.4793213e-12 </wgt>
<wgt id='1781'> +1.5233598e-12 </wgt>
<wgt id='1782'> +1.4911776e-12 </wgt>
<wgt id='1783'> +1.4916538e-12 </wgt>
<wgt id='1784'> +1.4144352e-12 </wgt>
<wgt id='1785'> +1.4560797e-12 </wgt>
<wgt id='1786'> +1.4563249e-12 </wgt>
<wgt id='1787'> +1.5979849e-12 </wgt>
<wgt id='1788'> +1.4139562e-12 </wgt>
<wgt id='1789'> +1.5418177e-12 </wgt>
<wgt id='1790'> +1.4834825e-12 </wgt>
<wgt id='1791'> +1.4073508e-12 </wgt>
<wgt id='1792'> +1.4544231e-12 </wgt>
<wgt id='1793'> +1.4354210e-12 </wgt>
<wgt id='1794'> +1.5105899e-12 </wgt>
<wgt id='1795'> +1.4848895e-12 </wgt>
<wgt id='1796'> +1.4403695e-12 </wgt>
<wgt id='1797'> +1.4864715e-12 </wgt>
<wgt id='1798'> +1.4185306e-12 </wgt>
<wgt id='1799'> +1.4170746e-12 </wgt>
<wgt id='1800'> +1.4804869e-12 </wgt>
<wgt id='1801'> +1.4427265e-12 </wgt>
<wgt id='1802'> +1.3986259e-12 </wgt>
<wgt id='1803'> +1.4754129e-12 </wgt>
<wgt id='1804'> +1.5196067e-12 </wgt>
<wgt id='1805'> +1.4315904e-12 </wgt>
<wgt id='1806'> +1.4518265e-12 </wgt>
<wgt id='1807'> +1.4330190e-12 </wgt>
<wgt id='1808'> +1.4093299e-12 </wgt>
<wgt id='1809'> +1.4266282e-12 </wgt>
<wgt id='1810'> +1.4485596e-12 </wgt>
<wgt id='1811'> +1.4577458e-12 </wgt>
<wgt id='1812'> +1.4186367e-12 </wgt>
<wgt id='1813'> +1.3483188e-12 </wgt>
<wgt id='1814'> +2.1938502e-12 </wgt>
<wgt id='1815'> +2.7213974e-12 </wgt>
<wgt id='1816'> +1.4675795e-12 </wgt>
<wgt id='1817'> +1.4691470e-12 </wgt>
<wgt id='1818'> +1.3748610e-12 </wgt>
<wgt id='1819'> +1.4901823e-12 </wgt>
<wgt id='1820'> +1.5051974e-12 </wgt>
<wgt id='1821'> +1.4977415e-12 </wgt>
<wgt id='1822'> +1.4705120e-12 </wgt>
<wgt id='1823'> +1.3846083e-12 </wgt>
<wgt id='1824'> +1.4239423e-12 </wgt>
<wgt id='1825'> +1.4601590e-12 </wgt>
<wgt id='1826'> +1.5737914e-12 </wgt>
<wgt id='1827'> +1.4353320e-12 </wgt>
<wgt id='1828'> +1.4803698e-12 </wgt>
<wgt id='1829'> +1.4233157e-12 </wgt>
<wgt id='1830'> +1.5551219e-12 </wgt>
<wgt id='1831'> +1.4336262e-12 </wgt>
<wgt id='1832'> +1.3936034e-12 </wgt>
<wgt id='1833'> +1.4302659e-12 </wgt>
<wgt id='1834'> +1.4305839e-12 </wgt>
<wgt id='1835'> +1.4772856e-12 </wgt>
<wgt id='1836'> +1.4152490e-12 </wgt>
<wgt id='1837'> +1.5575597e-12 </wgt>
<wgt id='1838'> +1.4179597e-12 </wgt>
<wgt id='1839'> +1.4682908e-12 </wgt>
<wgt id='1840'> +1.6018643e-12 </wgt>
<wgt id='1841'> +1.4375029e-12 </wgt>
<wgt id='1842'> +1.5141183e-12 </wgt>
<wgt id='1843'> +1.4071587e-12 </wgt>
<wgt id='1844'> +1.5326613e-12 </wgt>
<wgt id='1845'> +1.4611317e-12 </wgt>
<wgt id='1846'> +1.4065994e-12 </wgt>
<wgt id='1847'> +1.5128037e-12 </wgt>
<wgt id='1848'> +1.4996567e-12 </wgt>
<wgt id='1849'> +1.4591291e-12 </wgt>
<wgt id='1850'> +1.5785263e-12 </wgt>
<wgt id='1851'> +1.5051907e-12 </wgt>
<wgt id='1852'> +1.4545012e-12 </wgt>
<wgt id='1853'> +1.4043464e-12 </wgt>
<wgt id='1854'> +1.4712831e-12 </wgt>
<wgt id='1855'> +1.4706258e-12 </wgt>
<wgt id='1856'> +1.4954694e-12 </wgt>
<wgt id='1857'> +1.4855810e-12 </wgt>
<wgt id='1858'> +1.4772922e-12 </wgt>
<wgt id='1859'> +1.4883435e-12 </wgt>
<wgt id='1860'> +1.5229992e-12 </wgt>
<wgt id='1861'> +1.5460104e-12 </wgt>
<wgt id='1862'> +1.5290281e-12 </wgt>
<wgt id='1863'> +1.4357788e-12 </wgt>
<wgt id='1864'> +1.4653275e-12 </wgt>
<wgt id='1865'> +1.4264062e-12 </wgt>
<wgt id='1866'> +1.4969395e-12 </wgt>
<wgt id='1867'> +1.5303419e-12 </wgt>
<wgt id='1868'> +1.4394035e-12 </wgt>
<wgt id='1869'> +1.5059677e-12 </wgt>
<wgt id='1870'> +1.4381896e-12 </wgt>
<wgt id='1871'> +1.4941003e-12 </wgt>
<wgt id='1872'> +1.4787874e-12 </wgt>
<wgt id='1873'> +1.4482815e-12 </wgt>
<wgt id='1874'> +1.5268552e-12 </wgt>
<wgt id='1875'> +1.4315701e-12 </wgt>
<wgt id='1876'> +1.4622570e-12 </wgt>
<wgt id='1877'> +1.4336236e-12 </wgt>
<wgt id='1878'> +1.4538102e-12 </wgt>
<wgt id='1879'> +1.5443534e-12 </wgt>
<wgt id='1880'> +1.4234817e-12 </wgt>
<wgt id='1881'> +1.5150456e-12 </wgt>
<wgt id='1882'> +1.4403937e-12 </wgt>
<wgt id='1883'> +1.4793213e-12 </wgt>
<wgt id='1884'> +1.5233598e-12 </wgt>
<wgt id='1885'> +1.4911776e-12 </wgt>
<wgt id='1886'> +1.4916538e-12 </wgt>
<wgt id='1887'> +1.4144352e-12 </wgt>
<wgt id='1888'> +1.4560797e-12 </wgt>
<wgt id='1889'> +1.4563249e-12 </wgt>
<wgt id='1890'> +1.5979849e-12 </wgt>
<wgt id='1891'> +1.4139562e-12 </wgt>
<wgt id='1892'> +1.5418177e-12 </wgt>
<wgt id='1893'> +1.4834825e-12 </wgt>
<wgt id='1894'> +1.4073508e-12 </wgt>
<wgt id='1895'> +1.4544231e-12 </wgt>
<wgt id='1896'> +1.4354210e-12 </wgt>
<wgt id='1897'> +1.5105899e-12 </wgt>
<wgt id='1898'> +1.4848895e-12 </wgt>
<wgt id='1899'> +1.4403695e-12 </wgt>
<wgt id='1900'> +1.4864715e-12 </wgt>
<wgt id='1901'> +1.4185306e-12 </wgt>
<wgt id='1902'> +1.4170746e-12 </wgt>
<wgt id='1903'> +1.4804869e-12 </wgt>
<wgt id='1904'> +1.4427265e-12 </wgt>
<wgt id='1905'> +1.3986259e-12 </wgt>
<wgt id='1906'> +1.4754129e-12 </wgt>
<wgt id='1907'> +1.5196067e-12 </wgt>
<wgt id='1908'> +1.4315904e-12 </wgt>
<wgt id='1909'> +1.4518265e-12 </wgt>
<wgt id='1910'> +1.4330190e-12 </wgt>
<wgt id='1911'> +1.4093299e-12 </wgt>
<wgt id='1912'> +1.4266282e-12 </wgt>
<wgt id='1913'> +1.4485596e-12 </wgt>
<wgt id='1914'> +1.4577458e-12 </wgt>
<wgt id='1915'> +1.4186367e-12 </wgt>
<wgt id='1916'> +1.3483188e-12 </wgt>
<wgt id='1917'> +1.4642060e-12 </wgt>
<wgt id='1918'> +1.4879423e-12 </wgt>
<wgt id='1919'> +1.3731810e-12 </wgt>
</rwgt>
</event>
<event>
 9      1 +1.5607000e-12 8.64093300e+01 7.81860800e-03 1.19068600e-01
        1 -1    0    0  502    0 -0.0000000000e+00 +0.0000000000e+00 +2.8081746697e+02 2.8081746697e+02 0.0000000000e+00 0.0000e+00 1.0000e+00
       21 -1    0    0  501  502 +0.0000000000e+00 -0.0000000000e+00 -6.6471753768e+00 6.6471753768e+00 0.0000000000e+00 0.0000e+00 1.0000e+00
     1023  2    1    2    0    0 +2.6233702193e+01 +3.2650879286e+01 +1.3706878042e+02 1.4410805403e+02 1.4999787348e+01 0.0000e+00 0.0000e+00
  1000023  2    3    3    0    0 +5.8994793298e+00 +7.0591101440e+00 +2.3610234042e+01 2.5929117606e+01 5.4991904770e+00 0.0000e+00 0.0000e+00
        1  1    1    2  501    0 -2.6233702193e+01 -3.2650879286e+01 +1.3710151117e+02 1.4335658832e+02 0.0000000000e+00 0.0000e+00 1.0000e+00
  1000022  1    4    4    0    0 +5.9184300107e+00 +6.5496551896e+00 +2.2776639951e+01 2.4933935196e+01 5.0000000000e+00 0.0000e+00 1.0000e+00
      -11  1    4    4    0    0 -7.2479051527e-02 +7.4439810684e-02 +1.3280346425e-01 1.6861648663e-01 5.1100000000e-04 0.0000e+00 1.0000e+00
       11  1    4    4    0    0 +5.3528370572e-02 +4.3501514369e-01 +7.0079062718e-01 8.2656592354e-01 5.1100000000e-04 0.0000e+00 -1.0000e+00
  1000022  1    3    3    0    0 +2.0334222863e+01 +2.5591769142e+01 +1.1345854638e+02 1.1817893642e+02 5.0000000000e+00 0.0000e+00 1.0000e+00
<mgrwt>
<rscale>  1 0.86409327E+02</rscale>
<asrwt>0</asrwt>
<pdfrwt beam="1">  1       21 0.10226426E-02 0.86409327E+02</pdfrwt>
<pdfrwt beam="2">  1        1 0.43202678E-01 0.86409327E+02</pdfrwt>
<totfact> 0.34792525E+06</totfact>
</mgrwt>
<rwgt>
<wgt id='1001'> +1.5607000e-12 </wgt>
<wgt id='1002'> +1.5608724e-12 </wgt>
<wgt id='1003'> +1.5607629e-12 </wgt>
<wgt id='1004'> +1.5500784e-12 </wgt>
<wgt id='1005'> +1.5607000e-12 </wgt>
<wgt id='1006'> +1.3985492e-12 </wgt>
<wgt id='1007'> +1.3980185e-12 </wgt>
<wgt id='1008'> +1.3983740e-12 </wgt>
<wgt id='1009'> +1.3687706e-12 </wgt>
<wgt id='1010'> +1.3985492e-12 </wgt>
<wgt id='1011'> +1.7670556e-12 </wgt>
<wgt id='1012'> +1.7683639e-12 </wgt>
<wgt id='1013'> +1.7675021e-12 </wgt>
<wgt id='1014'> +1.7892960e-12 </wgt>
<wgt id='1015'> +1.7670556e-12 </wgt>
<wgt id='1016'> +1.7240207e-12 </wgt>
<wgt id='1017'> +1.7259312e-12 </wgt>
<wgt id='1018'> +1.7246697e-12 </wgt>
<wgt id='1019'> +1.7675021e-12 </wgt>
<wgt id='1020'> +1.7240207e-12 </wgt>
<wgt id='1021'> +1.5449015e-12 </wgt>
<wgt id='1022'> +1.5458558e-12 </wgt>
<wgt id='1023'> +1.5452272e-12 </wgt>
<wgt id='1024'> +1.5607629e-12 </wgt>
<wgt id='1025'> +1.5449015e-12 </wgt>
<wgt id='1026'> +1.9519706e-12 </wgt>
<wgt id='1027'> +1.9553644e-12 </wgt>
<wgt id='1028'> +1.9531201e-12 </wgt>
<wgt id='1029'> +2.0402739e-12 </wgt>
<wgt id='1030'> +1.9519706e-12 </wgt>
<wgt id='1031'> +1.3693850e-12 </wgt>
<wgt id='1032'> +1.3675498e-12 </wgt>
<wgt id='1033'> +1.3687706e-12 </wgt>
<wgt id='1034'> +1.2958171e-12 </wgt>
<wgt id='1035'> +1.3693850e-12 </wgt>
<wgt id='1036'> +1.2271110e-12 </wgt>
<wgt id='1037'> +1.2248663e-12 </wgt>
<wgt id='1038'> +1.2263575e-12 </wgt>
<wgt id='1039'> +1.1442494e-12 </wgt>
<wgt id='1040'> +1.2271110e-12 </wgt>
<wgt id='1041'> +1.5504449e-12 </wgt>
<wgt id='1042'> +1.5493423e-12 </wgt>
<wgt id='1043'> +1.5500784e-12 </wgt>
<wgt id='1044'> +1.4957955e-12 </wgt>
<wgt id='1045'> +1.5504449e-12 </wgt>
<wgt id='1046'> +1.5607000e-12 </wgt>
<wgt id='1047'> +1.6156449e-12 </wgt>
<wgt id='1048'> +1.5937009e-12 </wgt>
<wgt id='1049'> +1.5247870e-12 </wgt>
<wgt id='1050'> +1.5141779e-12 </wgt>
<wgt id='1051'> +1.5479638e-12 </wgt>
<wgt id='1052'> +1.5644371e-12 </wgt>
<wgt id='1053'> +1.5927918e-12 </wgt>
<wgt id='1054'> +1.5671167e-12 </wgt>
<wgt id='1055'> +1.5701010e-12 </wgt>
<wgt id='1056'> +1.5075254e-12 </wgt>
<wgt id='1057'> +1.5409652e-12 </wgt>
<wgt id='1058'> +1.5324325e-12 </wgt>
<wgt id='1059'> +1.5452985e-12 </wgt>
<wgt id='1060'> +1.5778795e-12 </wgt>
<wgt id='1061'> +1.5908224e-12 </wgt>
<wgt id='1062'> +1.5671226e-12 </wgt>
<wgt id='1063'> +1.5708928e-12 </wgt>
<wgt id='1064'> +1.5683898e-12 </wgt>
<wgt id='1065'> +1.5719284e-12 </wgt>
<wgt id='1066'> +1.5373696e-12 </wgt>
<wgt id='1067'> +1.5514838e-12 </wgt>
<wgt id='1068'> +1.5940207e-12 </wgt>
<wgt id='1069'> +1.6129659e-12 </wgt>
<wgt id='1070'> +1.5648583e-12 </wgt>
<wgt id='1071'> +1.5695947e-12 </wgt>
<wgt id='1072'> +1.5800451e-12 </wgt>
<wgt id='1073'> +1.5601548e-12 </wgt>
<wgt id='1074'> +1.5654720e-12 </wgt>
<wgt id='1075'> +1.5446702e-12 </wgt>
<wgt id='1076'> +1.5757822e-12 </wgt>
<wgt id='1077'> +1.5529914e-12 </wgt>
<wgt id='1078'> +1.5529753e-12 </wgt>
<wgt id='1079'> +1.5819641e-12 </wgt>
<wgt id='1080'> +1.5229396e-12 </wgt>
<wgt id='1081'> +1.5465218e-12 </wgt>
<wgt id='1082'> +1.5721604e-12 </wgt>
<wgt id='1083'> +1.5881678e-12 </wgt>
<wgt id='1084'> +1.5310694e-12 </wgt>
<wgt id='1085'> +1.5484086e-12 </wgt>
<wgt id='1086'> +1.5396704e-12 </wgt>
<wgt id='1087'> +1.5266155e-12 </wgt>
<wgt id='1088'> +1.5713472e-12 </wgt>
<wgt id='1089'> +1.5543450e-12 </wgt>
<wgt id='1090'> +1.5350039e-12 </wgt>
<wgt id='1091'> +1.5791683e-12 </wgt>
<wgt id='1092'> +1.5536134e-12 </wgt>
<wgt id='1093'> +1.5392981e-12 </wgt>
<wgt id='1094'> +1.5702420e-12 </wgt>
<wgt id='1095'> +1.5914635e-12 </wgt>
<wgt id='1096'> +1.5503550e-12 </wgt>
<wgt id='1097'> +1.5685477e-12 </wgt>
<wgt id='1098'> +1.5828075e-12 </wgt>
<wgt id='1099'> +1.5427295e-12 </wgt>
<wgt id='1100'> +1.5938833e-12 </wgt>
<wgt id='1101'> +1.5494030e-12 </wgt>
<wgt id='1102'> +1.5908645e-12 </wgt>
<wgt id='1103'> +1.6400543e-12 </wgt>
<wgt id='1104'> +1.5873394e-12 </wgt>
<wgt id='1105'> +1.5546231e-12 </wgt>
<wgt id='1106'> +1.5973770e-12 </wgt>
<wgt id='1107'> +1.5595157e-12 </wgt>
<wgt id='1108'> +1.5875641e-12 </wgt>
<wgt id='1109'> +1.5155757e-12 </wgt>
<wgt id='1110'> +1.5350770e-12 </wgt>
<wgt id='1111'> +1.5740694e-12 </wgt>
<wgt id='1112'> +1.6029994e-12 </wgt>
<wgt id='1113'> +1.5671784e-12 </wgt>
<wgt id='1114'> +1.5790389e-12 </wgt>
<wgt id='1115'> +1.5449109e-12 </wgt>
<wgt id='1116'> +1.5611962e-12 </wgt>
<wgt id='1117'> +1.5605758e-12 </wgt>
<wgt id='1118'> +1.6097464e-12 </wgt>
<wgt id='1119'> +1.5240410e-12 </wgt>
<wgt id='1120'> +1.5130452e-12 </wgt>
<wgt id='1121'> +1.5431554e-12 </wgt>
<wgt id='1122'> +1.5380966e-12 </wgt>
<wgt id='1123'> +1.5279362e-12 </wgt>
<wgt id='1124'> +1.5686715e-12 </wgt>
<wgt id='1125'> +1.5341113e-12 </wgt>
<wgt id='1126'> +1.5058884e-12 </wgt>
<wgt id='1127'> +1.5606480e-12 </wgt>
<wgt id='1128'> +1.5671226e-12 </wgt>
<wgt id='1129'> +1.4812080e-12 </wgt>
<wgt id='1130'> +1.5661493e-12 </wgt>
<wgt id='1131'> +1.5614564e-12 </wgt>
<wgt id='1132'> +1.6300397e-12 </wgt>
<wgt id='1133'> +1.5762821e-12 </wgt>
<wgt id='1134'> +1.5494469e-12 </wgt>
<wgt id='1135'> +1.4470124e-12 </wgt>
<wgt id='1136'> +1.5375331e-12 </wgt>
<wgt id='1137'> +1.5820844e-12 </wgt>
<wgt id='1138'> +1.5462322e-12 </wgt>
<wgt id='1139'> +1.5616302e-12 </wgt>
<wgt id='1140'> +1.6004104e-12 </wgt>
<wgt id='1141'> +1.5934182e-12 </wgt>
<wgt id='1142'> +1.5695995e-12 </wgt>
<wgt id='1143'> +1.5530473e-12 </wgt>
<wgt id='1144'> +1.5466152e-12 </wgt>
<wgt id='1145'> +1.5585927e-12 </wgt>
<wgt id='1146'> +1.5918557e-12 </wgt>
<wgt id='1147'> +1.3475128e-12 </wgt>
<wgt id='1148'> +1.3683864e-12 </wgt>
<wgt id='1149'> +1.3554316e-12 </wgt>
<wgt id='1150'> +1.3784593e-12 </wgt>
<wgt id='1151'> +1.4362479e-12 </wgt>
<wgt id='1152'> +1.8242397e-12 </wgt>
<wgt id='1153'> +1.8174662e-12 </wgt>
<wgt id='1154'> +1.8281284e-12 </wgt>
<wgt id='1155'> +1.8286008e-12 </wgt>
<wgt id='1156'> +1.8220688e-12 </wgt>
<wgt id='1157'> +1.8278630e-12 </wgt>
<wgt id='1158'> +1.8193244e-12 </wgt>
<wgt id='1159'> +1.8271871e-12 </wgt>
<wgt id='1160'> +1.8223854e-12 </wgt>
<wgt id='1161'> +1.8259814e-12 </wgt>
<wgt id='1162'> +1.8228264e-12 </wgt>
<wgt id='1163'> +1.8255658e-12 </wgt>
<wgt id='1164'> +1.8229184e-12 </wgt>
<wgt id='1165'> +1.8233619e-12 </wgt>
<wgt id='1166'> +1.8250438e-12 </wgt>
<wgt id='1167'> +1.8305811e-12 </wgt>
<wgt id='1168'> +1.8148516e-12 </wgt>
<wgt id='1169'> +1.8366449e-12 </wgt>
<wgt id='1170'> +1.8140633e-12 </wgt>
<wgt id='1171'> +1.8204337e-12 </wgt>
<wgt id='1172'> +1.8284831e-12 </wgt>
<wgt id='1173'> +1.8061956e-12 </wgt>
<wgt id='1174'> +1.8417077e-12 </wgt>
<wgt id='1175'> +1.8152382e-12 </wgt>
<wgt id='1176'> +1.8301260e-12 </wgt>
<wgt id='1177'> +1.8284633e-12 </wgt>
<wgt id='1178'> +1.8079565e-12 </wgt>
<wgt id='1179'> +1.8240818e-12 </wgt>
<wgt id='1180'> +1.8163445e-12 </wgt>
<wgt id='1181'> +1.8207857e-12 </wgt>
<wgt id='1182'> +1.8228017e-12 </wgt>
<wgt id='1183'> +1.8248872e-12 </wgt>
<wgt id='1184'> +1.8241763e-12 </wgt>
<wgt id='1185'> +1.8218236e-12 </wgt>
<wgt id='1186'> +1.8260438e-12 </wgt>
<wgt id='1187'> +1.8277731e-12 </wgt>
<wgt id='1188'> +1.8230129e-12 </wgt>
<wgt id='1189'> +1.8229474e-12 </wgt>
<wgt id='1190'> +1.8108152e-12 </wgt>
<wgt id='1191'> +1.8188948e-12 </wgt>
<wgt id='1192'> +1.8267827e-12 </wgt>
<wgt id='1193'> +1.4095098e-12 </wgt>
<wgt id='1194'> +1.4059769e-12 </wgt>
<wgt id='1195'> +1.4123717e-12 </wgt>
<wgt id='1196'> +1.4151645e-12 </wgt>
<wgt id='1197'> +1.4032422e-12 </wgt>
<wgt id='1198'> +1.4091201e-12 </wgt>
<wgt id='1199'> +1.4100467e-12 </wgt>
<wgt id='1200'> +1.4152393e-12 </wgt>
<wgt id='1201'> +1.4056558e-12 </wgt>
<wgt id='1202'> +1.4090156e-12 </wgt>
<wgt id='1203'> +1.4101811e-12 </wgt>
<wgt id='1204'> +1.4057911e-12 </wgt>
<wgt id='1205'> +1.4117408e-12 </wgt>
<wgt id='1206'> +1.4112005e-12 </wgt>
<wgt id='1207'> +1.4069991e-12 </wgt>
<wgt id='1208'> +1.4080087e-12 </wgt>
<wgt id='1209'> +1.4101211e-12 </wgt>
<wgt id='1210'> +1.4063985e-12 </wgt>
<wgt id='1211'> +1.4065072e-12 </wgt>
<wgt id='1212'> +1.4076316e-12 </wgt>
<wgt id='1213'> +1.4109739e-12 </wgt>
<wgt id='1214'> +1.3961979e-12 </wgt>
<wgt id='1215'> +1.4303720e-12 </wgt>
<wgt id='1216'> +1.4200075e-12 </wgt>
<wgt id='1217'> +1.4021507e-12 </wgt>
<wgt id='1218'> +1.4099854e-12 </wgt>
<wgt id='1219'> +1.4088977e-12 </wgt>
<wgt id='1220'> +1.4240268e-12 </wgt>
<wgt id='1221'> +1.3936101e-12 </wgt>
<wgt id='1222'> +1.4165658e-12 </wgt>
<wgt id='1223'> +1.3964518e-12 </wgt>
<wgt id='1224'> +1.4103307e-12 </wgt>
<wgt id='1225'> +1.4092341e-12 </wgt>
<wgt id='1226'> +1.4068696e-12 </wgt>
<wgt id='1227'> +1.4114783e-12 </wgt>
<wgt id='1228'> +1.4059662e-12 </wgt>
<wgt id='1229'> +1.4107823e-12 </wgt>
<wgt id='1230'> +1.4108289e-12 </wgt>
<wgt id='1231'> +1.4059970e-12 </wgt>
<wgt id='1232'> +1.4101877e-12 </wgt>
<wgt id='1233'> +1.4091703e-12 </wgt>
<wgt id='1234'> +1.4095098e-12 </wgt>
<wgt id='1235'> +1.4023543e-12 </wgt>
<wgt id='1236'> +1.4050593e-12 </wgt>
<wgt id='1237'> +1.4074847e-12 </wgt>
<wgt id='1238'> +1.4115047e-12 </wgt>
<wgt id='1239'> +1.4131800e-12 </wgt>
<wgt id='1240'> +1.4147281e-12 </wgt>
<wgt id='1241'> +1.3906711e-12 </wgt>
<wgt id='1242'> +1.3840645e-12 </wgt>
<wgt id='1243'> +1.3972133e-12 </wgt>
<wgt id='1244'> +1.3861445e-12 </wgt>
<wgt id='1245'> +1.3940256e-12 </wgt>
<wgt id='1246'> +1.3941528e-12 </wgt>
<wgt id='1247'> +1.3877796e-12 </wgt>
<wgt id='1248'> +1.3906743e-12 </wgt>
<wgt id='1249'> +1.3906830e-12 </wgt>
<wgt id='1250'> +1.3938310e-12 </wgt>
<wgt id='1251'> +1.3884251e-12 </wgt>
<wgt id='1252'> +1.3889101e-12 </wgt>
<wgt id='1253'> +1.3919410e-12 </wgt>
<wgt id='1254'> +1.3866469e-12 </wgt>
<wgt id='1255'> +1.3930710e-12 </wgt>
<wgt id='1256'> +1.3918603e-12 </wgt>
<wgt id='1257'> +1.3878379e-12 </wgt>
<wgt id='1258'> +1.4041037e-12 </wgt>
<wgt id='1259'> +1.3778252e-12 </wgt>
<wgt id='1260'> +1.3942920e-12 </wgt>
<wgt id='1261'> +1.3864667e-12 </wgt>
<wgt id='1262'> +1.3966851e-12 </wgt>
<wgt id='1263'> +1.3878318e-12 </wgt>
<wgt id='1264'> +1.3957948e-12 </wgt>
<wgt id='1265'> +1.3881252e-12 </wgt>
<wgt id='1266'> +1.3720137e-12 </wgt>
<wgt id='1267'> +1.4066983e-12 </wgt>
<wgt id='1268'> +1.3844954e-12 </wgt>
<wgt id='1269'> +1.4010034e-12 </wgt>
<wgt id='1270'> +1.3872897e-12 </wgt>
<wgt id='1271'> +1.3877245e-12 </wgt>
<wgt id='1272'> +1.3919379e-12 </wgt>
<wgt id='1273'> +1.3900878e-12 </wgt>
<wgt id='1274'> +1.3920362e-12 </wgt>
<wgt id='1275'> +1.3882810e-12 </wgt>
<wgt id='1276'> +1.3933999e-12 </wgt>
<wgt id='1277'> +1.3871466e-12 </wgt>
<wgt id='1278'> +1.3909828e-12 </wgt>
<wgt id='1279'> +1.3926539e-12 </wgt>
<wgt id='1280'> +1.3910463e-12 </wgt>
<wgt id='1281'> +1.3898059e-12 </wgt>
<wgt id='1282'> +1.3906711e-12 </wgt>
<wgt id='1283'> +1.3834782e-12 </wgt>
<wgt id='1284'> +1.3863663e-12 </wgt>
<wgt id='1285'> +1.3887513e-12 </wgt>
<wgt id='1286'> +1.3927031e-12 </wgt>
<wgt id='1287'> +1.3942092e-12 </wgt>
<wgt id='1288'> +1.3954543e-12 </wgt>
<wgt id='1289'> +1.4188788e-12 </wgt>
<wgt id='1290'> +1.4167360e-12 </wgt>
<wgt id='1291'> +1.4211893e-12 </wgt>
<wgt id='1292'> +1.4180991e-12 </wgt>
<wgt id='1293'> +1.4194174e-12 </wgt>
<wgt id='1294'> +1.4116678e-12 </wgt>
<wgt id='1295'> +1.4259019e-12 </wgt>
<wgt id='1296'> +1.4172986e-12 </wgt>
<wgt id='1297'> +1.4207564e-12 </wgt>
<wgt id='1298'> +1.4210142e-12 </wgt>
<wgt id='1299'> +1.4162072e-12 </wgt>
<wgt id='1300'> +1.4196373e-12 </wgt>
<wgt id='1301'> +1.4172961e-12 </wgt>
<wgt id='1302'> +1.4203005e-12 </wgt>
<wgt id='1303'> +1.4168761e-12 </wgt>
<wgt id='1304'> +1.4113612e-12 </wgt>
<wgt id='1305'> +1.4240624e-12 </wgt>
<wgt id='1306'> +1.4156315e-12 </wgt>
<wgt id='1307'> +1.4225940e-12 </wgt>
<wgt id='1308'> +1.4096097e-12 </wgt>
<wgt id='1309'> +1.4259688e-12 </wgt>
<wgt id='1310'> +1.4261657e-12 </wgt>
<wgt id='1311'> +1.4110370e-12 </wgt>
<wgt id='1312'> +1.4191573e-12 </wgt>
<wgt id='1313'> +1.4187428e-12 </wgt>
<wgt id='1314'> +1.4096952e-12 </wgt>
<wgt id='1315'> +1.4250616e-12 </wgt>
<wgt id='1316'> +1.4115091e-12 </wgt>
<wgt id='1317'> +1.4303438e-12 </wgt>
<wgt id='1318'> +1.4287160e-12 </wgt>
<wgt id='1319'> +1.4069693e-12 </wgt>
<wgt id='1320'> +1.4425056e-12 </wgt>
<wgt id='1321'> +1.4006718e-12 </wgt>
<wgt id='1322'> +1.4226516e-12 </wgt>
<wgt id='1323'> +1.4131775e-12 </wgt>
<wgt id='1324'> +1.4183806e-12 </wgt>
<wgt id='1325'> +1.4229604e-12 </wgt>
<wgt id='1326'> +1.4237364e-12 </wgt>
<wgt id='1327'> +1.4147803e-12 </wgt>
<wgt id='1328'> +1.4164916e-12 </wgt>
<wgt id='1329'> +1.4209213e-12 </wgt>
<wgt id='1330'> +1.4025799e-12 </wgt>
<wgt id='1331'> +1.4423213e-12 </wgt>
<wgt id='1332'> +1.4240130e-12 </wgt>
<wgt id='1333'> +1.4185105e-12 </wgt>
<wgt id='1334'> +1.4140237e-12 </wgt>
<wgt id='1335'> +1.4326693e-12 </wgt>
<wgt id='1336'> +1.4145095e-12 </wgt>
<wgt id='1337'> +1.4249283e-12 </wgt>
<wgt id='1338'> +1.4200868e-12 </wgt>
<wgt id='1339'> +1.4190401e-12 </wgt>
<wgt id='1340'> +1.4004381e-12 </wgt>
<wgt id='1341'> +1.3982643e-12 </wgt>
<wgt id='1342'> +1.4027840e-12 </wgt>
<wgt id='1343'> +1.3996508e-12 </wgt>
<wgt id='1344'> +1.4009735e-12 </wgt>
<wgt id='1345'> +1.3930319e-12 </wgt>
<wgt id='1346'> +1.4073657e-12 </wgt>
<wgt id='1347'> +1.3992427e-12 </wgt>
<wgt id='1348'> +1.4017366e-12 </wgt>
<wgt id='1349'> +1.4026002e-12 </wgt>
<wgt id='1350'> +1.3983233e-12 </wgt>
<wgt id='1351'> +1.4011892e-12 </wgt>
<wgt id='1352'> +1.3988109e-12 </wgt>
<wgt id='1353'> +1.4015528e-12 </wgt>
<wgt id='1354'> +1.3984169e-12 </wgt>
<wgt id='1355'> +1.3921745e-12 </wgt>
<wgt id='1356'> +1.4050836e-12 </wgt>
<wgt id='1357'> +1.3947081e-12 </wgt>
<wgt id='1358'> +1.4072258e-12 </wgt>
<wgt id='1359'> +1.3925861e-12 </wgt>
<wgt id='1360'> +1.4072382e-12 </wgt>
<wgt id='1361'> +1.4066796e-12 </wgt>
<wgt id='1362'> +1.3920989e-12 </wgt>
<wgt id='1363'> +1.4018178e-12 </wgt>
<wgt id='1364'> +1.3999142e-12 </wgt>
<wgt id='1365'> +1.4016616e-12 </wgt>
<wgt id='1366'> +1.3933415e-12 </wgt>
<wgt id='1367'> +1.3935823e-12 </wgt>
<wgt id='1368'> +1.4093868e-12 </wgt>
<wgt id='1369'> +1.4078835e-12 </wgt>
<wgt id='1370'> +1.3913505e-12 </wgt>
<wgt id='1371'> +1.4199861e-12 </wgt>
<wgt id='1372'> +1.3781792e-12 </wgt>
<wgt id='1373'> +1.4020460e-12 </wgt>
<wgt id='1374'> +1.3978637e-12 </wgt>
<wgt id='1375'> +1.3998232e-12 </wgt>
<wgt id='1376'> +1.4047630e-12 </wgt>
<wgt id='1377'> +1.4053013e-12 </wgt>
<wgt id='1378'> +1.3976506e-12 </wgt>
<wgt id='1379'> +1.3978508e-12 </wgt>
<wgt id='1380'> +1.4030051e-12 </wgt>
<wgt id='1381'> +1.3846309e-12 </wgt>
<wgt id='1382'> +1.4217900e-12 </wgt>
<wgt id='1383'> +1.4090611e-12 </wgt>
<wgt id='1384'> +1.3990261e-12 </wgt>
<wgt id='1385'> +1.3951567e-12 </wgt>
<wgt id='1386'> +1.4145610e-12 </wgt>
<wgt id='1387'> +1.3947326e-12 </wgt>
<wgt id='1388'> +1.4079263e-12 </wgt>
<wgt id='1389'> +1.4004895e-12 </wgt>
<wgt id='1390'> +1.4013714e-12 </wgt>
<wgt id='1391'> +1.3572541e-12 </wgt>
<wgt id='1392'> +1.3312430e-12 </wgt>
<wgt id='1393'> +1.3408065e-12 </wgt>
<wgt id='1394'> +1.3500239e-12 </wgt>
<wgt id='1395'> +1.3678949e-12 </wgt>
<wgt id='1396'> +1.3587343e-12 </wgt>
<wgt id='1397'> +1.3301709e-12 </wgt>
<wgt id='1398'> +1.3359110e-12 </wgt>
<wgt id='1399'> +1.3410356e-12 </wgt>
<wgt id='1400'> +1.3465668e-12 </wgt>
<wgt id='1401'> +1.3527611e-12 </wgt>
<wgt id='1402'> +1.3651288e-12 </wgt>
<wgt id='1403'> +1.3714020e-12 </wgt>
<wgt id='1404'> +1.3778548e-12 </wgt>
<wgt id='1405'> +1.3587343e-12 </wgt>
<wgt id='1406'> +1.3554230e-12 </wgt>
<wgt id='1407'> +1.3572411e-12 </wgt>
<wgt id='1408'> +1.3601584e-12 </wgt>
<wgt id='1409'> +1.3619807e-12 </wgt>
<wgt id='1410'> +1.3417338e-12 </wgt>
<wgt id='1411'> +1.3404088e-12 </wgt>
<wgt id='1412'> +1.3434158e-12 </wgt>
<wgt id='1413'> +1.3394764e-12 </wgt>
<wgt id='1414'> +1.3439887e-12 </wgt>
<wgt id='1415'> +1.3400600e-12 </wgt>
<wgt id='1416'> +1.3424077e-12 </wgt>
<wgt id='1417'> +1.3350371e-12 </wgt>
<wgt id='1418'> +1.3484481e-12 </wgt>
<wgt id='1419'> +1.3423092e-12 </wgt>
<wgt id='1420'> +1.3411729e-12 </wgt>
<wgt id='1421'> +1.3338332e-12 </wgt>
<wgt id='1422'> +1.3451349e-12 </wgt>
<wgt id='1423'> +1.3451002e-12 </wgt>
<wgt id='1424'> +1.3376636e-12 </wgt>
<wgt id='1425'> +1.3366887e-12 </wgt>
<wgt id='1426'> +1.3471231e-12 </wgt>
<wgt id='1427'> +1.3270565e-12 </wgt>
<wgt id='1428'> +1.3496645e-12 </wgt>
<wgt id='1429'> +1.3442832e-12 </wgt>
<wgt id='1430'> +1.3383695e-12 </wgt>
<wgt id='1431'> +1.3352996e-12 </wgt>
<wgt id='1432'> +1.3460181e-12 </wgt>
<wgt id='1433'> +1.3334111e-12 </wgt>
<wgt id='1434'> +1.3481819e-12 </wgt>
<wgt id='1435'> +1.3416282e-12 </wgt>
<wgt id='1436'> +1.3421911e-12 </wgt>
<wgt id='1437'> +1.3371402e-12 </wgt>
<wgt id='1438'> +1.3515270e-12 </wgt>
<wgt id='1439'> +1.3351355e-12 </wgt>
<wgt id='1440'> +1.3570262e-12 </wgt>
<wgt id='1441'> +1.3475606e-12 </wgt>
<wgt id='1442'> +1.3306821e-12 </wgt>
<wgt id='1443'> +1.3350908e-12 </wgt>
<wgt id='1444'> +1.3549699e-12 </wgt>
<wgt id='1445'> +1.3473306e-12 </wgt>
<wgt id='1446'> +1.3402738e-12 </wgt>
<wgt id='1447'> +1.3497913e-12 </wgt>
<wgt id='1448'> +1.3305067e-12 </wgt>
<wgt id='1449'> +1.3400702e-12 </wgt>
<wgt id='1450'> +1.3425736e-12 </wgt>
<wgt id='1451'> +1.3545778e-12 </wgt>
<wgt id='1452'> +1.3222195e-12 </wgt>
<wgt id='1453'> +1.3421128e-12 </wgt>
<wgt id='1454'> +1.3432272e-12 </wgt>
<wgt id='1455'> +1.3403077e-12 </wgt>
<wgt id='1456'> +1.3452230e-12 </wgt>
<wgt id='1457'> +1.3470107e-12 </wgt>
<wgt id='1458'> +1.3395548e-12 </wgt>
<wgt id='1459'> +1.3445060e-12 </wgt>
<wgt id='1460'> +1.3408119e-12 </wgt>
<wgt id='1461'> +1.3417338e-12 </wgt>
<wgt id='1462'> +1.3348880e-12 </wgt>
<wgt id='1463'> +1.3496481e-12 </wgt>
<wgt id='1464'> +1.3418606e-12 </wgt>
<wgt id='1465'> +1.3170595e-12 </wgt>
<wgt id='1466'> +1.3219895e-12 </wgt>
<wgt id='1467'> +1.3271131e-12 </wgt>
<wgt id='1468'> +1.3318414e-12 </wgt>
<wgt id='1469'> +1.3368321e-12 </wgt>
<wgt id='1470'> +1.3471189e-12 </wgt>
<wgt id='1471'> +1.3508431e-12 </wgt>
<wgt id='1472'> +1.3559608e-12 </wgt>
<wgt id='1473'> +1.3418606e-12 </wgt>
<wgt id='1474'> +1.3382777e-12 </wgt>
<wgt id='1475'> +1.3399459e-12 </wgt>
<wgt id='1476'> +1.3434115e-12 </wgt>
<wgt id='1477'> +1.3446724e-12 </wgt>
<wgt id='1478'> +1.3426564e-12 </wgt>
<wgt id='1479'> +1.3430581e-12 </wgt>
<wgt id='1480'> +1.3397753e-12 </wgt>
<wgt id='1481'> +1.3421541e-12 </wgt>
<wgt id='1482'> +1.3421135e-12 </wgt>
<wgt id='1483'> +1.3203175e-12 </wgt>
<wgt id='1484'> +1.3380546e-12 </wgt>
<wgt id='1485'> +1.3426382e-12 </wgt>
<wgt id='1486'> +1.3424169e-12 </wgt>
<wgt id='1487'> +1.3453914e-12 </wgt>
<wgt id='1488'> +1.3401371e-12 </wgt>
<wgt id='1489'> +1.3504840e-12 </wgt>
<wgt id='1490'> +1.3374000e-12 </wgt>
<wgt id='1491'> +1.3481223e-12 </wgt>
<wgt id='1492'> +1.3449861e-12 </wgt>
<wgt id='1493'> +1.3231236e-12 </wgt>
<wgt id='1494'> +1.3396868e-12 </wgt>
<wgt id='1495'> +1.3337161e-12 </wgt>
<wgt id='1496'> +1.3459835e-12 </wgt>
<wgt id='1497'> +1.3433937e-12 </wgt>
<wgt id='1498'> +1.3457899e-12 </wgt>
<wgt id='1499'> +1.3441274e-12 </wgt>
<wgt id='1500'> +1.3439240e-12 </wgt>
<wgt id='1501'> +1.3441516e-12 </wgt>
<wgt id='1502'> +1.3420164e-12 </wgt>
<wgt id='1503'> +1.3427711e-12 </wgt>
<wgt id='1504'> +1.3354692e-12 </wgt>
<wgt id='1505'> +1.3517911e-12 </wgt>
<wgt id='1506'> +1.3409418e-12 </wgt>
<wgt id='1507'> +1.3436977e-12 </wgt>
<wgt id='1508'> +1.3433835e-12 </wgt>
<wgt id='1509'> +1.3689718e-12 </wgt>
<wgt id='1510'> +1.3690022e-12 </wgt>
<wgt id='1511'> +1.3680596e-12 </wgt>
<wgt id='1512'> +1.3669333e-12 </wgt>
<wgt id='1513'> +1.3674351e-12 </wgt>
<wgt id='1514'> +1.3711084e-12 </wgt>
<wgt id='1515'> +1.3713529e-12 </wgt>
<wgt id='1516'> +1.3711479e-12 </wgt>
<wgt id='1517'> +1.3717656e-12 </wgt>
<wgt id='1518'> +1.3675012e-12 </wgt>
<wgt id='1519'> +1.3655020e-12 </wgt>
<wgt id='1520'> +1.3676703e-12 </wgt>
<wgt id='1521'> +1.3699279e-12 </wgt>
<wgt id='1522'> +1.3679936e-12 </wgt>
<wgt id='1523'> +1.3709433e-12 </wgt>
<wgt id='1524'> +1.3726794e-12 </wgt>
<wgt id='1525'> +1.3733393e-12 </wgt>
<wgt id='1526'> +1.3658734e-12 </wgt>
<wgt id='1527'> +1.3674371e-12 </wgt>
<wgt id='1528'> +1.3654904e-12 </wgt>
<wgt id='1529'> +1.3679915e-12 </wgt>
<wgt id='1530'> +1.3722033e-12 </wgt>
<wgt id='1531'> +1.3725443e-12 </wgt>
<wgt id='1532'> +1.3610993e-12 </wgt>
<wgt id='1533'> +1.3775475e-12 </wgt>
<wgt id='1534'> +1.3688802e-12 </wgt>
<wgt id='1535'> +1.3650439e-12 </wgt>
<wgt id='1536'> +1.3741539e-12 </wgt>
<wgt id='1537'> +1.3704785e-12 </wgt>
<wgt id='1538'> +1.3562145e-12 </wgt>
<wgt id='1539'> +1.3760632e-12 </wgt>
<wgt id='1540'> +1.3697411e-12 </wgt>
<wgt id='1541'> +1.3679892e-12 </wgt>
<wgt id='1542'> +1.3637892e-12 </wgt>
<wgt id='1543'> +1.3701444e-12 </wgt>
<wgt id='1544'> +1.3733525e-12 </wgt>
<wgt id='1545'> +1.3675005e-12 </wgt>
<wgt id='1546'> +1.3745399e-12 </wgt>
<wgt id='1547'> +1.3683033e-12 </wgt>
<wgt id='1548'> +1.3701149e-12 </wgt>
<wgt id='1549'> +1.3684670e-12 </wgt>
<wgt id='1550'> +1.3672478e-12 </wgt>
<wgt id='1551'> +1.3652888e-12 </wgt>
<wgt id='1552'> +1.3679396e-12 </wgt>
<wgt id='1553'> +1.3702633e-12 </wgt>
<wgt id='1554'> +1.3655320e-12 </wgt>
<wgt id='1555'> +1.3695829e-12 </wgt>
<wgt id='1556'> +1.3700171e-12 </wgt>
<wgt id='1557'> +1.3674114e-12 </wgt>
<wgt id='1558'> +1.3690434e-12 </wgt>
<wgt id='1559'> +1.3679790e-12 </wgt>
<wgt id='1560'> +1.3668216e-12 </wgt>
<wgt id='1561'> +1.3692115e-12 </wgt>
<wgt id='1562'> +1.3685413e-12 </wgt>
<wgt id='1563'> +1.3677170e-12 </wgt>
<wgt id='1564'> +1.3669505e-12 </wgt>
<wgt id='1565'> +1.3695865e-12 </wgt>
<wgt id='1566'> +1.3692958e-12 </wgt>
<wgt id='1567'> +1.3690016e-12 </wgt>
<wgt id='1568'> +1.3717642e-12 </wgt>
<wgt id='1569'> +1.3703427e-12 </wgt>
<wgt id='1570'> +1.3667496e-12 </wgt>
<wgt id='1571'> +1.3697426e-12 </wgt>
<wgt id='1572'> +1.3677359e-12 </wgt>
<wgt id='1573'> +1.3685374e-12 </wgt>
<wgt id='1574'> +1.3708818e-12 </wgt>
<wgt id='1575'> +1.3669839e-12 </wgt>
<wgt id='1576'> +1.3694705e-12 </wgt>
<wgt id='1577'> +1.3695021e-12 </wgt>
<wgt id='1578'> +1.3679807e-12 </wgt>
<wgt id='1579'> +1.3684821e-12 </wgt>
<wgt id='1580'> +1.3683490e-12 </wgt>
<wgt id='1581'> +1.3699618e-12 </wgt>
<wgt id='1582'> +1.3699959e-12 </wgt>
<wgt id='1583'> +1.3679791e-12 </wgt>
<wgt id='1584'> +1.3681551e-12 </wgt>
<wgt id='1585'> +1.3684134e-12 </wgt>
<wgt id='1586'> +1.3670125e-12 </wgt>
<wgt id='1587'> +1.3685750e-12 </wgt>
<wgt id='1588'> +1.3686561e-12 </wgt>
<wgt id='1589'> +1.3689972e-12 </wgt>
<wgt id='1590'> +1.3697411e-12 </wgt>
<wgt id='1591'> +1.3691465e-12 </wgt>
<wgt id='1592'> +1.3682097e-12 </wgt>
<wgt id='1593'> +1.3682770e-12 </wgt>
<wgt id='1594'> +1.3692878e-12 </wgt>
<wgt id='1595'> +1.3679497e-12 </wgt>
<wgt id='1596'> +1.3697630e-12 </wgt>
<wgt id='1597'> +1.3678251e-12 </wgt>
<wgt id='1598'> +1.3678579e-12 </wgt>
<wgt id='1599'> +1.3696534e-12 </wgt>
<wgt id='1600'> +1.3686529e-12 </wgt>
<wgt id='1601'> +1.3693109e-12 </wgt>
<wgt id='1602'> +1.3690115e-12 </wgt>
<wgt id='1603'> +1.3690763e-12 </wgt>
<wgt id='1604'> +1.3693658e-12 </wgt>
<wgt id='1605'> +1.3700033e-12 </wgt>
<wgt id='1606'> +1.3696646e-12 </wgt>
<wgt id='1607'> +1.3687945e-12 </wgt>
<wgt id='1608'> +1.3688597e-12 </wgt>
<wgt id='1609'> +1.3689397e-12 </wgt>
<wgt id='1610'> +1.3557988e-12 </wgt>
<wgt id='1611'> +1.3806486e-12 </wgt>
<wgt id='1612'> +1.5340654e-12 </wgt>
<wgt id='1613'> +1.5206861e-12 </wgt>
<wgt id='1614'> +1.5202027e-12 </wgt>
<wgt id='1615'> +1.5069404e-12 </wgt>
<wgt id='1616'> +1.4800856e-12 </wgt>
<wgt id='1617'> +1.5571141e-12 </wgt>
<wgt id='1618'> +1.5346221e-12 </wgt>
<wgt id='1619'> +1.4720814e-12 </wgt>
<wgt id='1620'> +1.5435757e-12 </wgt>
<wgt id='1621'> +1.5370938e-12 </wgt>
<wgt id='1622'> +1.5187126e-12 </wgt>
<wgt id='1623'> +1.5322025e-12 </wgt>
<wgt id='1624'> +1.5194215e-12 </wgt>
<wgt id='1625'> +1.5541385e-12 </wgt>
<wgt id='1626'> +1.5245849e-12 </wgt>
<wgt id='1627'> +1.5270244e-12 </wgt>
<wgt id='1628'> +1.4532567e-12 </wgt>
<wgt id='1629'> +1.5607107e-12 </wgt>
<wgt id='1630'> +1.5364209e-12 </wgt>
<wgt id='1631'> +1.5582599e-12 </wgt>
<wgt id='1632'> +1.4646817e-12 </wgt>
<wgt id='1633'> +1.5160546e-12 </wgt>
<wgt id='1634'> +1.5359613e-12 </wgt>
<wgt id='1635'> +1.5715218e-12 </wgt>
<wgt id='1636'> +1.5747839e-12 </wgt>
<wgt id='1637'> +1.5575333e-12 </wgt>
<wgt id='1638'> +1.5358325e-12 </wgt>
<wgt id='1639'> +1.5424884e-12 </wgt>
<wgt id='1640'> +1.5435835e-12 </wgt>
<wgt id='1641'> +1.5138205e-12 </wgt>
<wgt id='1642'> +1.4809291e-12 </wgt>
<wgt id='1643'> +1.4979252e-12 </wgt>
<wgt id='1644'> +1.5756349e-12 </wgt>
<wgt id='1645'> +1.5198615e-12 </wgt>
<wgt id='1646'> +1.5573569e-12 </wgt>
<wgt id='1647'> +1.5464646e-12 </wgt>
<wgt id='1648'> +1.5622037e-12 </wgt>
<wgt id='1649'> +1.5279745e-12 </wgt>
<wgt id='1650'> +1.4858885e-12 </wgt>
<wgt id='1651'> +1.5201381e-12 </wgt>
<wgt id='1652'> +1.5261184e-12 </wgt>
<wgt id='1653'> +1.5440974e-12 </wgt>
<wgt id='1654'> +1.5296785e-12 </wgt>
<wgt id='1655'> +1.5509767e-12 </wgt>
<wgt id='1656'> +1.5450637e-12 </wgt>
<wgt id='1657'> +1.5271779e-12 </wgt>
<wgt id='1658'> +1.5018284e-12 </wgt>
<wgt id='1659'> +1.5194215e-12 </wgt>
<wgt id='1660'> +1.5119040e-12 </wgt>
<wgt id='1661'> +1.5566973e-12 </wgt>
<wgt id='1662'> +1.5579878e-12 </wgt>
<wgt id='1663'> +1.5175085e-12 </wgt>
<wgt id='1664'> +1.5441348e-12 </wgt>
<wgt id='1665'> +1.5148403e-12 </wgt>
<wgt id='1666'> +1.5385487e-12 </wgt>
<wgt id='1667'> +1.5318673e-12 </wgt>
<wgt id='1668'> +1.5462445e-12 </wgt>
<wgt id='1669'> +1.5732952e-12 </wgt>
<wgt id='1670'> +1.5311203e-12 </wgt>
<wgt id='1671'> +1.5814075e-12 </wgt>
<wgt id='1672'> +1.5637942e-12 </wgt>
<wgt id='1673'> +1.5359139e-12 </wgt>
<wgt id='1674'> +1.5498733e-12 </wgt>
<wgt id='1675'> +1.5283200e-12 </wgt>
<wgt id='1676'> +1.5616834e-12 </wgt>
<wgt id='1677'> +1.5773129e-12 </wgt>
<wgt id='1678'> +1.5343283e-12 </wgt>
<wgt id='1679'> +1.5524045e-12 </wgt>
<wgt id='1680'> +1.5526488e-12 </wgt>
<wgt id='1681'> +1.5630799e-12 </wgt>
<wgt id='1682'> +1.5016354e-12 </wgt>
<wgt id='1683'> +1.5337263e-12 </wgt>
<wgt id='1684'> +1.5230484e-12 </wgt>
<wgt id='1685'> +1.5153331e-12 </wgt>
<wgt id='1686'> +1.5363899e-12 </wgt>
<wgt id='1687'> +1.5656000e-12 </wgt>
<wgt id='1688'> +1.4962334e-12 </wgt>
<wgt id='1689'> +1.5619561e-12 </wgt>
<wgt id='1690'> +1.5522569e-12 </wgt>
<wgt id='1691'> +1.5892755e-12 </wgt>
<wgt id='1692'> +1.4669952e-12 </wgt>
<wgt id='1693'> +1.5015526e-12 </wgt>
<wgt id='1694'> +1.5393995e-12 </wgt>
<wgt id='1695'> +1.5381246e-12 </wgt>
<wgt id='1696'> +1.5554574e-12 </wgt>
<wgt id='1697'> +1.5289882e-12 </wgt>
<wgt id='1698'> +1.5348934e-12 </wgt>
<wgt id='1699'> +1.5587093e-12 </wgt>
<wgt id='1700'> +1.5336359e-12 </wgt>
<wgt id='1701'> +1.5601932e-12 </wgt>
<wgt id='1702'> +1.5433389e-12 </wgt>
<wgt id='1703'> +1.5427149e-12 </wgt>
<wgt id='1704'> +1.5448121e-12 </wgt>
<wgt id='1705'> +1.4662238e-12 </wgt>
<wgt id='1706'> +1.5378686e-12 </wgt>
<wgt id='1707'> +1.5066447e-12 </wgt>
<wgt id='1708'> +1.5688322e-12 </wgt>
<wgt id='1709'> +1.5590882e-12 </wgt>
<wgt id='1710'> +1.5306791e-12 </wgt>
<wgt id='1711'> +1.4982917e-12 </wgt>
<wgt id='1712'> +1.5541988e-12 </wgt>
<wgt id='1713'> +1.3105824e-12 </wgt>
<wgt id='1714'> +1.2927057e-12 </wgt>
<wgt id='1715'> +1.3193438e-12 </wgt>
<wgt id='1716'> +1.3252200e-12 </wgt>
<wgt id='1717'> +1.3166061e-12 </wgt>
<wgt id='1718'> +1.2882914e-12 </wgt>
<wgt id='1719'> +1.3102022e-12 </wgt>
<wgt id='1720'> +1.3578399e-12 </wgt>
<wgt id='1721'> +1.2870641e-12 </wgt>
<wgt id='1722'> +1.2998460e-12 </wgt>
<wgt id='1723'> +1.3544602e-12 </wgt>
<wgt id='1724'> +1.3796256e-12 </wgt>
<wgt id='1725'> +1.3096470e-12 </wgt>
<wgt id='1726'> +1.3472701e-12 </wgt>
<wgt id='1727'> +1.3197261e-12 </wgt>
<wgt id='1728'> +1.3157192e-12 </wgt>
<wgt id='1729'> +1.2524092e-12 </wgt>
<wgt id='1730'> +1.2813622e-12 </wgt>
<wgt id='1731'> +1.2297322e-12 </wgt>
<wgt id='1732'> +1.3361673e-12 </wgt>
<wgt id='1733'> +1.2511529e-12 </wgt>
<wgt id='1734'> +1.3789650e-12 </wgt>
<wgt id='1735'> +1.3243121e-12 </wgt>
<wgt id='1736'> +1.3605065e-12 </wgt>
<wgt id='1737'> +1.3080672e-12 </wgt>
<wgt id='1738'> +1.3079746e-12 </wgt>
<wgt id='1739'> +1.2956664e-12 </wgt>
<wgt id='1740'> +1.2568274e-12 </wgt>
<wgt id='1741'> +1.3176252e-12 </wgt>
<wgt id='1742'> +1.2930987e-12 </wgt>
<wgt id='1743'> +1.3007147e-12 </wgt>
<wgt id='1744'> +1.3081293e-12 </wgt>
<wgt id='1745'> +1.3319233e-12 </wgt>
<wgt id='1746'> +1.3272512e-12 </wgt>
<wgt id='1747'> +1.3088701e-12 </wgt>
<wgt id='1748'> +1.2924929e-12 </wgt>
<wgt id='1749'> +1.2659685e-12 </wgt>
<wgt id='1750'> +1.3044768e-12 </wgt>
<wgt id='1751'> +1.2955935e-12 </wgt>
<wgt id='1752'> +1.2805872e-12 </wgt>
<wgt id='1753'> +1.3195167e-12 </wgt>
<wgt id='1754'> +1.3592902e-12 </wgt>
<wgt id='1755'> +1.3308282e-12 </wgt>
<wgt id='1756'> +1.3268931e-12 </wgt>
<wgt id='1757'> +1.3001836e-12 </wgt>
<wgt id='1758'> +1.3507780e-12 </wgt>
<wgt id='1759'> +1.3116156e-12 </wgt>
<wgt id='1760'> +1.2952865e-12 </wgt>
<wgt id='1761'> +1.3064407e-12 </wgt>
<wgt id='1762'> +1.2820028e-12 </wgt>
<wgt id='1763'> +1.3300367e-12 </wgt>
<wgt id='1764'> +1.3365061e-12 </wgt>
<wgt id='1765'> +1.3063368e-12 </wgt>
<wgt id='1766'> +1.3312577e-12 </wgt>
<wgt id='1767'> +1.3422428e-12 </wgt>
<wgt id='1768'> +1.3169491e-12 </wgt>
<wgt id='1769'> +1.2885495e-12 </wgt>
<wgt id='1770'> +1.2844065e-12 </wgt>
<wgt id='1771'> +1.3285423e-12 </wgt>
<wgt id='1772'> +1.2854253e-12 </wgt>
<wgt id='1773'> +1.3120930e-12 </wgt>
<wgt id='1774'> +1.2971774e-12 </wgt>
<wgt id='1775'> +1.3175358e-12 </wgt>
<wgt id='1776'> +1.3176219e-12 </wgt>
<wgt id='1777'> +1.2560077e-12 </wgt>
<wgt id='1778'> +1.2833491e-12 </wgt>
<wgt id='1779'> +1.3001759e-12 </wgt>
<wgt id='1780'> +1.3753619e-12 </wgt>
<wgt id='1781'> +1.3185243e-12 </wgt>
<wgt id='1782'> +1.2891035e-12 </wgt>
<wgt id='1783'> +1.3085482e-12 </wgt>
<wgt id='1784'> +1.3145760e-12 </wgt>
<wgt id='1785'> +1.2962205e-12 </wgt>
<wgt id='1786'> +1.3244246e-12 </wgt>
<wgt id='1787'> +1.3296780e-12 </wgt>
<wgt id='1788'> +1.3245264e-12 </wgt>
<wgt id='1789'> +1.3111111e-12 </wgt>
<wgt id='1790'> +1.3367819e-12 </wgt>
<wgt id='1791'> +1.3355345e-12 </wgt>
<wgt id='1792'> +1.3119728e-12 </wgt>
<wgt id='1793'> +1.3056217e-12 </wgt>
<wgt id='1794'> +1.3193147e-12 </wgt>
<wgt id='1795'> +1.3348174e-12 </wgt>
<wgt id='1796'> +1.2737426e-12 </wgt>
<wgt id='1797'> +1.3096687e-12 </wgt>
<wgt id='1798'> +1.3082877e-12 </wgt>
<wgt id='1799'> +1.3246202e-12 </wgt>
<wgt id='1800'> +1.3284087e-12 </wgt>
<wgt id='1801'> +1.3354311e-12 </wgt>
<wgt id='1802'> +1.2892195e-12 </wgt>
<wgt id='1803'> +1.3269468e-12 </wgt>
<wgt id='1804'> +1.3246033e-12 </wgt>
<wgt id='1805'> +1.2959002e-12 </wgt>
<wgt id='1806'> +1.2776519e-12 </wgt>
<wgt id='1807'> +1.3320274e-12 </wgt>
<wgt id='1808'> +1.2741593e-12 </wgt>
<wgt id='1809'> +1.3043794e-12 </wgt>
<wgt id='1810'> +1.2876428e-12 </wgt>
<wgt id='1811'> +1.3225065e-12 </wgt>
<wgt id='1812'> +1.3110996e-12 </wgt>
<wgt id='1813'> +1.2494119e-12 </wgt>
<wgt id='1814'> +1.5360963e-12 </wgt>
<wgt id='1815'> +1.7847142e-12 </wgt>
<wgt id='1816'> +1.3105824e-12 </wgt>
<wgt id='1817'> +1.2927057e-12 </wgt>
<wgt id='1818'> +1.3193438e-12 </wgt>
<wgt id='1819'> +1.3252200e-12 </wgt>
<wgt id='1820'> +1.3166061e-12 </wgt>
<wgt id='1821'> +1.2882914e-12 </wgt>
<wgt id='1822'> +1.3102022e-12 </wgt>
<wgt id='1823'> +1.3578399e-12 </wgt>
<wgt id='1824'> +1.2870641e-12 </wgt>
<wgt id='1825'> +1.2998460e-12 </wgt>
<wgt id='1826'> +1.3544602e-12 </wgt>
<wgt id='1827'> +1.3796256e-12 </wgt>
<wgt id='1828'> +1.3096470e-12 </wgt>
<wgt id='1829'> +1.3472701e-12 </wgt>
<wgt id='1830'> +1.3197261e-12 </wgt>
<wgt id='1831'> +1.3157192e-12 </wgt>
<wgt id='1832'> +1.2524092e-12 </wgt>
<wgt id='1833'> +1.2813622e-12 </wgt>
<wgt id='1834'> +1.2297322e-12 </wgt>
<wgt id='1835'> +1.3361673e-12 </wgt>
<wgt id='1836'> +1.2511529e-12 </wgt>
<wgt id='1837'> +1.3789650e-12 </wgt>
<wgt id='1838'> +1.3243121e-12 </wgt>
<wgt id='1839'> +1.3605065e-12 </wgt>
<wgt id='1840'> +1.3080672e-12 </wgt>
<wgt id='1841'> +1.3079746e-12 </wgt>
<wgt id='1842'> +1.2956664e-12 </wgt>
<wgt id='1843'> +1.2568274e-12 </wgt>
<wgt id='1844'> +1.3176252e-12 </wgt>
<wgt id='1845'> +1.2930987e-12 </wgt>
<wgt id='1846'> +1.3007147e-12 </wgt>
<wgt id='1847'> +1.3081293e-12 </wgt>
<wgt id='1848'> +1.3319233e-12 </wgt>
<wgt id='1849'> +1.3272512e-12 </wgt>
<wgt id='1850'> +1.3088701e-12 </wgt>
<wgt id='1851'> +1.2924929e-12 </wgt>
<wgt id='1852'> +1.2659685e-12 </wgt>
<wgt id='1853'> +1.3044768e-12 </wgt>
<wgt id='1854'> +1.2955935e-12 </wgt>
<wgt id='1855'> +1.2805872e-12 </wgt>
<wgt id='1856'> +1.3195167e-12 </wgt>
<wgt id='1857'> +1.3592902e-12 </wgt>
<wgt id='1858'> +1.3308282e-12 </wgt>
<wgt id='1859'> +1.3268931e-12 </wgt>
<wgt id='1860'> +1.3001836e-12 </wgt>
<wgt id='1861'> +1.3507780e-12 </wgt>
<wgt id='1862'> +1.3116156e-12 </wgt>
<wgt id='1863'> +1.2952865e-12 </wgt>
<wgt id='1864'> +1.3064407e-12 </wgt>
<wgt id='1865'> +1.2820028e-12 </wgt>
<wgt id='1866'> +1.3300367e-12 </wgt>
<wgt id='1867'> +1.3365061e-12 </wgt>
<wgt id='1868'> +1.3063368e-12 </wgt>
<wgt id='1869'> +1.3312577e-12 </wgt>
<wgt id='1870'> +1.3422428e-12 </wgt>
<wgt id='1871'> +1.3169491e-12 </wgt>
<wgt id='1872'> +1.2885495e-12 </wgt>
<wgt id='1873'> +1.2844065e-12 </wgt>
<wgt id='1874'> +1.3285423e-12 </wgt>
<wgt id='1875'> +1.2854253e-12 </wgt>
<wgt id='1876'> +1.3120930e-12 </wgt>
<wgt id='1877'> +1.2971774e-12 </wgt>
<wgt id='1878'> +1.3175358e-12 </wgt>
<wgt id='1879'> +1.3176219e-12 </wgt>
<wgt id='1880'> +1.2560077e-12 </wgt>
<wgt id='1881'> +1.2833491e-12 </wgt>
<wgt id='1882'> +1.3001759e-12 </wgt>
<wgt id='1883'> +1.3753619e-12 </wgt>
<wgt id='1884'> +1.3185243e-12 </wgt>
<wgt id='1885'> +1.2891035e-12 </wgt>
<wgt id='1886'> +1.3085482e-12 </wgt>
<wgt id='1887'> +1.3145760e-12 </wgt>
<wgt id='1888'> +1.2962205e-12 </wgt>
<wgt id='1889'> +1.3244246e-12 </wgt>
<wgt id='1890'> +1.3296780e-12 </wgt>
<wgt id='1891'> +1.3245264e-12 </wgt>
<wgt id='1892'> +1.3111111e-12 </wgt>
<wgt id='1893'> +1.3367819e-12 </wgt>
<wgt id='1894'> +1.3355345e-12 </wgt>
<wgt id='1895'> +1.3119728e-12 </wgt>
<wgt id='1896'> +1.3056217e-12 </wgt>
<wgt id='1897'> +1.3193147e-12 </wgt>
<wgt id='1898'> +1.3348174e-12 </wgt>
<wgt id='1899'> +1.2737426e-12 </wgt>
<wgt id='1900'> +1.3096687e-12 </wgt>
<wgt id='1901'> +1.3082877e-12 </wgt>
<wgt id='1902'> +1.3246202e-12 </wgt>
<wgt id='1903'> +1.3284087e-12 </wgt>
<wgt id='1904'> +1.3354311e-12 </wgt>
<wgt id='1905'> +1.2892195e-12 </wgt>
<wgt id='1906'> +1.3269468e-12 </wgt>
<wgt id='1907'> +1.3246033e-12 </wgt>
<wgt id='1908'> +1.2959002e-12 </wgt>
<wgt id='1909'> +1.2776519e-12 </wgt>
<wgt id='1910'> +1.3320274e-12 </wgt>
<wgt id='1911'> +1.2741593e-12 </wgt>
<wgt id='1912'> +1.3043794e-12 </wgt>
<wgt id='1913'> +1.2876428e-12 </wgt>
<wgt id='1914'> +1.3225065e-12 </wgt>
<wgt id='1915'> +1.3110996e-12 </wgt>
<wgt id='1916'> +1.2494119e-12 </wgt>
<wgt id='1917'> +1.3044020e-12 </wgt>
<wgt id='1918'> +1.3192359e-12 </wgt>
<wgt id='1919'> +1.3203381e-12 </wgt>
</rwgt>
</event>
<event>
 9      1 +1.5607000e-12 2.69024800e+01 7.81860800e-03 1.48315300e-01
       21 -1    0    0  501  502 +0.0000000000e+00 +0.0000000000e+00 +4.0770112426e+00 4.0770112426e+00 0.0000000000e+00 0.0000e+00 -1.0000e+00
       -4 -1    0    0    0  501 -0.0000000000e+00 -0.0000000000e+00 -1.5052723117e+02 1.5053392882e+02 1.4200000000e+00 0.0000e+00 -1.0000e+00
     1023  2    1    2    0    0 -1.9957007336e+01 +1.0022425157e+01 -8.8143781778e+01 9.2157851440e+01 1.5000405599e+01 0.0000e+00 0.0000e+00
  1000023  2    3    3    0    0 -6.2599687617e+00 +7.6370841468e-01 -1.7000736418e+01 1.8948114352e+01 5.4986852349e+00 0.0000e+00 0.0000e+00
       -4  1    1    2    0  502 +1.9957007336e+01 -1.0022425157e+01 -5.8306438153e+01 6.2453088618e+01 1.4200000000e+00 0.0000e+00 -1.0000e+00
  1000022  1    4    4    0    0 -5.7960606545e+00 +9.1054460311e-01 -1.4724175526e+01 1.6620010695e+01 5.0000000000e+00 0.0000e+00 -1.0000e+00
      -11  1    4    4    0    0 -3.2004249243e-01 -9.2377222889e-02 -1.5906158255e+00 1.6251214459e+00 5.1100000000e-04 0.0000e+00 1.0000e+00
       11  1    4    4    0    0 -1.4386561469e-01 -5.4458965544e-02 -6.8594506676e-01 7.0298221155e-01 5.1100000000e-04 0.0000e+00 -1.0000e+00
  1000022  1    3    3    0    0 -1.3697038575e+01 +9.2587167423e+00 -7.1143045360e+01 7.3209737088e+01 5.0000000000e+00 0.0000e+00 -1.0000e+00
<mgrwt>
<rscale>  1 0.26902478E+02</rscale>
<asrwt>0</asrwt>
<pdfrwt beam="1">  1       21 0.62723246E-03 0.26902478E+02</pdfrwt>
<pdfrwt beam="2">  1       -4 0.23177574E-01 0.26902478E+02</pdfrwt>
<totfact> 0.35095076E+06</totfact>
</mgrwt>
<rwgt>
<wgt id='1001'> +1.5607000e-12 </wgt>
<wgt id='1002'> +1.7462720e-12 </wgt>
<wgt id='1003'> +1.7612275e-12 </wgt>
<wgt id='1004'> +1.5129257e-12 </wgt>
<wgt id='1005'> +1.7717673e-12 </wgt>
<wgt id='1006'> +1.3614630e-12 </wgt>
<wgt id='1007'> +1.5442499e-12 </wgt>
<wgt id='1008'> +1.5592459e-12 </wgt>
<wgt id='1009'> +1.3151982e-12 </wgt>
<wgt id='1010'> +1.5698373e-12 </wgt>
<wgt id='1011'> +1.8317405e-12 </wgt>
<wgt id='1012'> +2.0118295e-12 </wgt>
<wgt id='1013'> +2.0260113e-12 </wgt>
<wgt id='1014'> +1.7842813e-12 </wgt>
<wgt id='1015'> +2.0359723e-12 </wgt>
<wgt id='1016'> +2.0582998e-12 </wgt>
<wgt id='1017'> +2.1773148e-12 </wgt>
<wgt id='1018'> +2.1864849e-12 </wgt>
<wgt id='1019'> +2.0260113e-12 </wgt>
<wgt id='1020'> +2.1928896e-12 </wgt>
<wgt id='1021'> +1.7955398e-12 </wgt>
<wgt id='1022'> +1.9254263e-12 </wgt>
<wgt id='1023'> +1.9357338e-12 </wgt>
<wgt id='1024'> +1.7612275e-12 </wgt>
<wgt id='1025'> +1.9429639e-12 </wgt>
<wgt id='1026'> +2.4157565e-12 </wgt>
<wgt id='1027'> +2.5084215e-12 </wgt>
<wgt id='1028'> +2.5152020e-12 </wgt>
<wgt id='1029'> +2.3893930e-12 </wgt>
<wgt id='1030'> +2.5198921e-12 </wgt>
<wgt id='1031'> +1.0556084e-12 </wgt>
<wgt id='1032'> +1.2952680e-12 </wgt>
<wgt id='1033'> +1.3151982e-12 </wgt>
<wgt id='1034'> +9.9590919e-13 </wgt>
<wgt id='1035'> +1.3292936e-12 </wgt>
<wgt id='1036'> +9.2085079e-13 </wgt>
<wgt id='1037'> +1.1454215e-12 </wgt>
<wgt id='1038'> +1.1643683e-12 </wgt>
<wgt id='1039'> +8.6575168e-13 </wgt>
<wgt id='1040'> +1.1777928e-12 </wgt>
<wgt id='1041'> +1.2389317e-12 </wgt>
<wgt id='1042'> +1.4922408e-12 </wgt>
<wgt id='1043'> +1.5129257e-12 </wgt>
<wgt id='1044'> +1.1745337e-12 </wgt>
<wgt id='1045'> +1.5275172e-12 </wgt>
<wgt id='1046'> +1.5607000e-12 </wgt>
<wgt id='1047'> +1.2936583e-12 </wgt>
<wgt id='1048'> +1.6061570e-12 </wgt>
<wgt id='1049'> +1.5705565e-12 </wgt>
<wgt id='1050'> +1.5860423e-12 </wgt>
<wgt id='1051'> +1.5372714e-12 </wgt>
<wgt id='1052'> +1.4276629e-12 </wgt>
<wgt id='1053'> +1.5947830e-12 </wgt>
<wgt id='1054'> +1.6462529e-12 </wgt>
<wgt id='1055'> +1.6785564e-12 </wgt>
<wgt id='1056'> +1.5936593e-12 </wgt>
<wgt id='1057'> +1.5781711e-12 </wgt>
<wgt id='1058'> +1.5685925e-12 </wgt>
<wgt id='1059'> +1.6014607e-12 </wgt>
<wgt id='1060'> +1.5812244e-12 </wgt>
<wgt id='1061'> +1.6102605e-12 </wgt>
<wgt id='1062'> +1.5692667e-12 </wgt>
<wgt id='1063'> +1.5465215e-12 </wgt>
<wgt id='1064'> +1.5873038e-12 </wgt>
<wgt id='1065'> +1.5343880e-12 </wgt>
<wgt id='1066'> +1.6599761e-12 </wgt>
<wgt id='1067'> +1.5771921e-12 </wgt>
<wgt id='1068'> +1.4993301e-12 </wgt>
<wgt id='1069'> +1.5322319e-12 </wgt>
<wgt id='1070'> +1.5385856e-12 </wgt>
<wgt id='1071'> +1.6030493e-12 </wgt>
<wgt id='1072'> +1.4974870e-12 </wgt>
<wgt id='1073'> +1.5476455e-12 </wgt>
<wgt id='1074'> +1.5523955e-12 </wgt>
<wgt id='1075'> +1.5220628e-12 </wgt>
<wgt id='1076'> +1.6421979e-12 </wgt>
<wgt id='1077'> +1.4909703e-12 </wgt>
<wgt id='1078'> +1.6734659e-12 </wgt>
<wgt id='1079'> +1.5122209e-12 </wgt>
<wgt id='1080'> +1.5775922e-12 </wgt>
<wgt id='1081'> +1.4982278e-12 </wgt>
<wgt id='1082'> +1.5132645e-12 </wgt>
<wgt id='1083'> +1.5387405e-12 </wgt>
<wgt id='1084'> +1.5700089e-12 </wgt>
<wgt id='1085'> +1.5662776e-12 </wgt>
<wgt id='1086'> +1.5507035e-12 </wgt>
<wgt id='1087'> +1.5467040e-12 </wgt>
<wgt id='1088'> +1.5520501e-12 </wgt>
<wgt id='1089'> +1.4873344e-12 </wgt>
<wgt id='1090'> +1.4497169e-12 </wgt>
<wgt id='1091'> +1.5068546e-12 </wgt>
<wgt id='1092'> +1.4381674e-12 </wgt>
<wgt id='1093'> +1.5641488e-12 </wgt>
<wgt id='1094'> +1.6184282e-12 </wgt>
<wgt id='1095'> +1.5734030e-12 </wgt>
<wgt id='1096'> +1.5005141e-12 </wgt>
<wgt id='1097'> +1.5271075e-12 </wgt>
<wgt id='1098'> +1.6400398e-12 </wgt>
<wgt id='1099'> +1.6036900e-12 </wgt>
<wgt id='1100'> +1.4486401e-12 </wgt>
<wgt id='1101'> +1.4613913e-12 </wgt>
<wgt id='1102'> +1.5243239e-12 </wgt>
<wgt id='1103'> +1.4679801e-12 </wgt>
<wgt id='1104'> +1.5774793e-12 </wgt>
<wgt id='1105'> +1.6335385e-12 </wgt>
<wgt id='1106'> +1.4755845e-12 </wgt>
<wgt id='1107'> +1.5857143e-12 </wgt>
<wgt id='1108'> +1.6059399e-12 </wgt>
<wgt id='1109'> +1.4540078e-12 </wgt>
<wgt id='1110'> +1.6234834e-12 </wgt>
<wgt id='1111'> +1.5410661e-12 </wgt>
<wgt id='1112'> +1.5361411e-12 </wgt>
<wgt id='1113'> +1.4564273e-12 </wgt>
<wgt id='1114'> +1.6051158e-12 </wgt>
<wgt id='1115'> +1.5826196e-12 </wgt>
<wgt id='1116'> +1.6084837e-12 </wgt>
<wgt id='1117'> +1.6371827e-12 </wgt>
<wgt id='1118'> +1.4730689e-12 </wgt>
<wgt id='1119'> +1.7451159e-12 </wgt>
<wgt id='1120'> +1.7288721e-12 </wgt>
<wgt id='1121'> +1.6045865e-12 </wgt>
<wgt id='1122'> +1.3989225e-12 </wgt>
<wgt id='1123'> +1.7239853e-12 </wgt>
<wgt id='1124'> +1.6041842e-12 </wgt>
<wgt id='1125'> +1.5684796e-12 </wgt>
<wgt id='1126'> +1.5719427e-12 </wgt>
<wgt id='1127'> +1.5608599e-12 </wgt>
<wgt id='1128'> +1.5692667e-12 </wgt>
<wgt id='1129'> +1.5252571e-12 </wgt>
<wgt id='1130'> +1.6009977e-12 </wgt>
<wgt id='1131'> +1.6495082e-12 </wgt>
<wgt id='1132'> +1.4527402e-12 </wgt>
<wgt id='1133'> +1.5875372e-12 </wgt>
<wgt id='1134'> +1.5573779e-12 </wgt>
<wgt id='1135'> +1.7292492e-12 </wgt>
<wgt id='1136'> +1.5331461e-12 </wgt>
<wgt id='1137'> +1.4902944e-12 </wgt>
<wgt id='1138'> +1.6570489e-12 </wgt>
<wgt id='1139'> +1.6013304e-12 </wgt>
<wgt id='1140'> +1.5554064e-12 </wgt>
<wgt id='1141'> +1.5437506e-12 </wgt>
<wgt id='1142'> +1.5625998e-12 </wgt>
<wgt id='1143'> +1.4325486e-12 </wgt>
<wgt id='1144'> +1.6157739e-12 </wgt>
<wgt id='1145'> +1.6429091e-12 </wgt>
<wgt id='1146'> +1.5722368e-12 </wgt>
<wgt id='1147'> +1.3378093e-12 </wgt>
<wgt id='1148'> +1.3828371e-12 </wgt>
<wgt id='1149'> +1.3842490e-12 </wgt>
<wgt id='1150'> +1.3622586e-12 </wgt>
<wgt id='1151'> +1.2188660e-12 </wgt>
<wgt id='1152'> +1.9668778e-12 </wgt>
<wgt id='1153'> +1.9568607e-12 </wgt>
<wgt id='1154'> +1.9727529e-12 </wgt>
<wgt id='1155'> +1.9680524e-12 </wgt>
<wgt id='1156'> +1.9663551e-12 </wgt>
<wgt id='1157'> +1.9617564e-12 </wgt>
<wgt id='1158'> +1.9737799e-12 </wgt>
<wgt id='1159'> +1.9626101e-12 </wgt>
<wgt id='1160'> +1.9696830e-12 </wgt>
<wgt id='1161'> +1.9544791e-12 </wgt>
<wgt id='1162'> +1.9753859e-12 </wgt>
<wgt id='1163'> +1.9735008e-12 </wgt>
<wgt id='1164'> +1.9602587e-12 </wgt>
<wgt id='1165'> +1.9442272e-12 </wgt>
<wgt id='1166'> +1.9890088e-12 </wgt>
<wgt id='1167'> +1.9861680e-12 </wgt>
<wgt id='1168'> +1.9406717e-12 </wgt>
<wgt id='1169'> +1.9735922e-12 </wgt>
<wgt id='1170'> +1.9618719e-12 </wgt>
<wgt id='1171'> +1.9633836e-12 </wgt>
<wgt id='1172'> +1.9711511e-12 </wgt>
<wgt id='1173'> +1.9531410e-12 </wgt>
<wgt id='1174'> +1.9799878e-12 </wgt>
<wgt id='1175'> +1.9686970e-12 </wgt>
<wgt id='1176'> +1.9640120e-12 </wgt>
<wgt id='1177'> +1.9676453e-12 </wgt>
<wgt id='1178'> +1.9655954e-12 </wgt>
<wgt id='1179'> +1.9888493e-12 </wgt>
<wgt id='1180'> +1.9383183e-12 </wgt>
<wgt id='1181'> +1.9575600e-12 </wgt>
<wgt id='1182'> +1.9761595e-12 </wgt>
<wgt id='1183'> +1.9661288e-12 </wgt>
<wgt id='1184'> +1.9670675e-12 </wgt>
<wgt id='1185'> +1.9692383e-12 </wgt>
<wgt id='1186'> +1.9658262e-12 </wgt>
<wgt id='1187'> +1.9660552e-12 </wgt>
<wgt id='1188'> +1.9671914e-12 </wgt>
<wgt id='1189'> +1.9633035e-12 </wgt>
<wgt id='1190'> +1.9425092e-12 </wgt>
<wgt id='1191'> +1.9458203e-12 </wgt>
<wgt id='1192'> +1.9820641e-12 </wgt>
<wgt id='1193'> +1.3932135e-12 </wgt>
<wgt id='1194'> +1.3857314e-12 </wgt>
<wgt id='1195'> +1.3992992e-12 </wgt>
<wgt id='1196'> +1.3949207e-12 </wgt>
<wgt id='1197'> +1.3913821e-12 </wgt>
<wgt id='1198'> +1.3964209e-12 </wgt>
<wgt id='1199'> +1.3884623e-12 </wgt>
<wgt id='1200'> +1.3948780e-12 </wgt>
<wgt id='1201'> +1.3921821e-12 </wgt>
<wgt id='1202'> +1.3886796e-12 </wgt>
<wgt id='1203'> +1.3996817e-12 </wgt>
<wgt id='1204'> +1.3669371e-12 </wgt>
<wgt id='1205'> +1.4094988e-12 </wgt>
<wgt id='1206'> +1.4002196e-12 </wgt>
<wgt id='1207'> +1.3837500e-12 </wgt>
<wgt id='1208'> +1.3843902e-12 </wgt>
<wgt id='1209'> +1.3965041e-12 </wgt>
<wgt id='1210'> +1.3932748e-12 </wgt>
<wgt id='1211'> +1.3844613e-12 </wgt>
<wgt id='1212'> +1.3907075e-12 </wgt>
<wgt id='1213'> +1.3958220e-12 </wgt>
<wgt id='1214'> +1.3848687e-12 </wgt>
<wgt id='1215'> +1.4029838e-12 </wgt>
<wgt id='1216'> +1.3989066e-12 </wgt>
<wgt id='1217'> +1.3889415e-12 </wgt>
<wgt id='1218'> +1.4010287e-12 </wgt>
<wgt id='1219'> +1.3891228e-12 </wgt>
<wgt id='1220'> +1.3995500e-12 </wgt>
<wgt id='1221'> +1.3930213e-12 </wgt>
<wgt id='1222'> +1.3969268e-12 </wgt>
<wgt id='1223'> +1.3919663e-12 </wgt>
<wgt id='1224'> +1.3943015e-12 </wgt>
<wgt id='1225'> +1.3928189e-12 </wgt>
<wgt id='1226'> +1.3935253e-12 </wgt>
<wgt id='1227'> +1.3932304e-12 </wgt>
<wgt id='1228'> +1.3894153e-12 </wgt>
<wgt id='1229'> +1.3947654e-12 </wgt>
<wgt id='1230'> +1.4056037e-12 </wgt>
<wgt id='1231'> +1.3748318e-12 </wgt>
<wgt id='1232'> +1.3909578e-12 </wgt>
<wgt id='1233'> +1.3939113e-12 </wgt>
<wgt id='1234'> +1.3932135e-12 </wgt>
<wgt id='1235'> +1.3805162e-12 </wgt>
<wgt id='1236'> +1.3853840e-12 </wgt>
<wgt id='1237'> +1.3897026e-12 </wgt>
<wgt id='1238'> +1.3973762e-12 </wgt>
<wgt id='1239'> +1.4003871e-12 </wgt>
<wgt id='1240'> +1.4033005e-12 </wgt>
<wgt id='1241'> +1.3324463e-12 </wgt>
<wgt id='1242'> +1.3215017e-12 </wgt>
<wgt id='1243'> +1.3432684e-12 </wgt>
<wgt id='1244'> +1.3267453e-12 </wgt>
<wgt id='1245'> +1.3367091e-12 </wgt>
<wgt id='1246'> +1.3340278e-12 </wgt>
<wgt id='1247'> +1.3311684e-12 </wgt>
<wgt id='1248'> +1.3323246e-12 </wgt>
<wgt id='1249'> +1.3326378e-12 </wgt>
<wgt id='1250'> +1.3276542e-12 </wgt>
<wgt id='1251'> +1.3358666e-12 </wgt>
<wgt id='1252'> +1.3289947e-12 </wgt>
<wgt id='1253'> +1.3351702e-12 </wgt>
<wgt id='1254'> +1.3087579e-12 </wgt>
<wgt id='1255'> +1.3467922e-12 </wgt>
<wgt id='1256'> +1.3386103e-12 </wgt>
<wgt id='1257'> +1.3170588e-12 </wgt>
<wgt id='1258'> +1.3437401e-12 </wgt>
<wgt id='1259'> +1.3204312e-12 </wgt>
<wgt id='1260'> +1.3370409e-12 </wgt>
<wgt id='1261'> +1.3274823e-12 </wgt>
<wgt id='1262'> +1.3350624e-12 </wgt>
<wgt id='1263'> +1.3311704e-12 </wgt>
<wgt id='1264'> +1.3450570e-12 </wgt>
<wgt id='1265'> +1.3265437e-12 </wgt>
<wgt id='1266'> +1.3261987e-12 </wgt>
<wgt id='1267'> +1.3400940e-12 </wgt>
<wgt id='1268'> +1.3341198e-12 </wgt>
<wgt id='1269'> +1.3358705e-12 </wgt>
<wgt id='1270'> +1.3288707e-12 </wgt>
<wgt id='1271'> +1.3309237e-12 </wgt>
<wgt id='1272'> +1.3334696e-12 </wgt>
<wgt id='1273'> +1.3321815e-12 </wgt>
<wgt id='1274'> +1.3328187e-12 </wgt>
<wgt id='1275'> +1.3312561e-12 </wgt>
<wgt id='1276'> +1.3328000e-12 </wgt>
<wgt id='1277'> +1.3311923e-12 </wgt>
<wgt id='1278'> +1.3319394e-12 </wgt>
<wgt id='1279'> +1.3325058e-12 </wgt>
<wgt id='1280'> +1.3334560e-12 </wgt>
<wgt id='1281'> +1.3295569e-12 </wgt>
<wgt id='1282'> +1.3324463e-12 </wgt>
<wgt id='1283'> +1.3192513e-12 </wgt>
<wgt id='1284'> +1.3244071e-12 </wgt>
<wgt id='1285'> +1.3288306e-12 </wgt>
<wgt id='1286'> +1.3363018e-12 </wgt>
<wgt id='1287'> +1.3392115e-12 </wgt>
<wgt id='1288'> +1.3417484e-12 </wgt>
<wgt id='1289'> +1.4306389e-12 </wgt>
<wgt id='1290'> +1.4346790e-12 </wgt>
<wgt id='1291'> +1.4264266e-12 </wgt>
<wgt id='1292'> +1.4317869e-12 </wgt>
<wgt id='1293'> +1.4299847e-12 </wgt>
<wgt id='1294'> +1.4262694e-12 </wgt>
<wgt id='1295'> +1.4348827e-12 </wgt>
<wgt id='1296'> +1.4272220e-12 </wgt>
<wgt id='1297'> +1.4349560e-12 </wgt>
<wgt id='1298'> +1.4434463e-12 </wgt>
<wgt id='1299'> +1.4148604e-12 </wgt>
<wgt id='1300'> +1.4361764e-12 </wgt>
<wgt id='1301'> +1.4197901e-12 </wgt>
<wgt id='1302'> +1.4287059e-12 </wgt>
<wgt id='1303'> +1.4335070e-12 </wgt>
<wgt id='1304'> +1.4253958e-12 </wgt>
<wgt id='1305'> +1.4342980e-12 </wgt>
<wgt id='1306'> +1.4191527e-12 </wgt>
<wgt id='1307'> +1.4438205e-12 </wgt>
<wgt id='1308'> +1.4273916e-12 </wgt>
<wgt id='1309'> +1.4332187e-12 </wgt>
<wgt id='1310'> +1.4269470e-12 </wgt>
<wgt id='1311'> +1.4348166e-12 </wgt>
<wgt id='1312'> +1.4212305e-12 </wgt>
<wgt id='1313'> +1.4407016e-12 </wgt>
<wgt id='1314'> +1.4330981e-12 </wgt>
<wgt id='1315'> +1.4202962e-12 </wgt>
<wgt id='1316'> +1.4382740e-12 </wgt>
<wgt id='1317'> +1.4322215e-12 </wgt>
<wgt id='1318'> +1.4413622e-12 </wgt>
<wgt id='1319'> +1.4174685e-12 </wgt>
<wgt id='1320'> +1.4354414e-12 </wgt>
<wgt id='1321'> +1.4249681e-12 </wgt>
<wgt id='1322'> +1.4325366e-12 </wgt>
<wgt id='1323'> +1.4280786e-12 </wgt>
<wgt id='1324'> +1.4304396e-12 </wgt>
<wgt id='1325'> +1.4371003e-12 </wgt>
<wgt id='1326'> +1.4342464e-12 </wgt>
<wgt id='1327'> +1.4308282e-12 </wgt>
<wgt id='1328'> +1.4285489e-12 </wgt>
<wgt id='1329'> +1.4325787e-12 </wgt>
<wgt id='1330'> +1.4302893e-12 </wgt>
<wgt id='1331'> +1.4320029e-12 </wgt>
<wgt id='1332'> +1.4613417e-12 </wgt>
<wgt id='1333'> +1.4232422e-12 </wgt>
<wgt id='1334'> +1.4292756e-12 </wgt>
<wgt id='1335'> +1.4351281e-12 </wgt>
<wgt id='1336'> +1.4351940e-12 </wgt>
<wgt id='1337'> +1.4206306e-12 </wgt>
<wgt id='1338'> +1.4321901e-12 </wgt>
<wgt id='1339'> +1.4298821e-12 </wgt>
<wgt id='1340'> +1.3844303e-12 </wgt>
<wgt id='1341'> +1.3883294e-12 </wgt>
<wgt id='1342'> +1.3801924e-12 </wgt>
<wgt id='1343'> +1.3855201e-12 </wgt>
<wgt id='1344'> +1.3836251e-12 </wgt>
<wgt id='1345'> +1.3795527e-12 </wgt>
<wgt id='1346'> +1.3888179e-12 </wgt>
<wgt id='1347'> +1.3811192e-12 </wgt>
<wgt id='1348'> +1.3879910e-12 </wgt>
<wgt id='1349'> +1.3962105e-12 </wgt>
<wgt id='1350'> +1.3728960e-12 </wgt>
<wgt id='1351'> +1.3898637e-12 </wgt>
<wgt id='1352'> +1.3725312e-12 </wgt>
<wgt id='1353'> +1.3813998e-12 </wgt>
<wgt id='1354'> +1.3897556e-12 </wgt>
<wgt id='1355'> +1.3792724e-12 </wgt>
<wgt id='1356'> +1.3873223e-12 </wgt>
<wgt id='1357'> +1.3716716e-12 </wgt>
<wgt id='1358'> +1.3994544e-12 </wgt>
<wgt id='1359'> +1.3840656e-12 </wgt>
<wgt id='1360'> +1.3846950e-12 </wgt>
<wgt id='1361'> +1.3808541e-12 </wgt>
<wgt id='1362'> +1.3892886e-12 </wgt>
<wgt id='1363'> +1.3722378e-12 </wgt>
<wgt id='1364'> +1.3933306e-12 </wgt>
<wgt id='1365'> +1.3775790e-12 </wgt>
<wgt id='1366'> +1.3824627e-12 </wgt>
<wgt id='1367'> +1.3913390e-12 </wgt>
<wgt id='1368'> +1.3850480e-12 </wgt>
<wgt id='1369'> +1.3932784e-12 </wgt>
<wgt id='1370'> +1.3736206e-12 </wgt>
<wgt id='1371'> +1.3893080e-12 </wgt>
<wgt id='1372'> +1.3773371e-12 </wgt>
<wgt id='1373'> +1.3859662e-12 </wgt>
<wgt id='1374'> +1.3822338e-12 </wgt>
<wgt id='1375'> +1.3839479e-12 </wgt>
<wgt id='1376'> +1.3910221e-12 </wgt>
<wgt id='1377'> +1.3878223e-12 </wgt>
<wgt id='1378'> +1.3850925e-12 </wgt>
<wgt id='1379'> +1.3823398e-12 </wgt>
<wgt id='1380'> +1.3865554e-12 </wgt>
<wgt id='1381'> +1.3853339e-12 </wgt>
<wgt id='1382'> +1.3840152e-12 </wgt>
<wgt id='1383'> +1.4124162e-12 </wgt>
<wgt id='1384'> +1.3776468e-12 </wgt>
<wgt id='1385'> +1.3832633e-12 </wgt>
<wgt id='1386'> +1.3876165e-12 </wgt>
<wgt id='1387'> +1.3893114e-12 </wgt>
<wgt id='1388'> +1.3733087e-12 </wgt>
<wgt id='1389'> +1.3865904e-12 </wgt>
<wgt id='1390'> +1.3829141e-12 </wgt>
<wgt id='1391'> +1.3835168e-12 </wgt>
<wgt id='1392'> +1.3180966e-12 </wgt>
<wgt id='1393'> +1.3399471e-12 </wgt>
<wgt id='1394'> +1.3624012e-12 </wgt>
<wgt id='1395'> +1.4054443e-12 </wgt>
<wgt id='1396'> +1.3836837e-12 </wgt>
<wgt id='1397'> +1.4821539e-12 </wgt>
<wgt id='1398'> +1.4591248e-12 </wgt>
<wgt id='1399'> +1.4380878e-12 </wgt>
<wgt id='1400'> +1.4189507e-12 </wgt>
<wgt id='1401'> +1.4008175e-12 </wgt>
<wgt id='1402'> +1.3680214e-12 </wgt>
<wgt id='1403'> +1.3532077e-12 </wgt>
<wgt id='1404'> +1.3392046e-12 </wgt>
<wgt id='1405'> +1.3836837e-12 </wgt>
<wgt id='1406'> +1.3743038e-12 </wgt>
<wgt id='1407'> +1.3790728e-12 </wgt>
<wgt id='1408'> +1.3879877e-12 </wgt>
<wgt id='1409'> +1.3917181e-12 </wgt>
<wgt id='1410'> +1.3104250e-12 </wgt>
<wgt id='1411'> +1.3149002e-12 </wgt>
<wgt id='1412'> +1.3046917e-12 </wgt>
<wgt id='1413'> +1.3115794e-12 </wgt>
<wgt id='1414'> +1.3092098e-12 </wgt>
<wgt id='1415'> +1.3115983e-12 </wgt>
<wgt id='1416'> +1.3099652e-12 </wgt>
<wgt id='1417'> +1.3024330e-12 </wgt>
<wgt id='1418'> +1.3183841e-12 </wgt>
<wgt id='1419'> +1.3157192e-12 </wgt>
<wgt id='1420'> +1.3053014e-12 </wgt>
<wgt id='1421'> +1.2851024e-12 </wgt>
<wgt id='1422'> +1.3214132e-12 </wgt>
<wgt id='1423'> +1.3101184e-12 </wgt>
<wgt id='1424'> +1.3107920e-12 </wgt>
<wgt id='1425'> +1.3026274e-12 </wgt>
<wgt id='1426'> +1.3187781e-12 </wgt>
<wgt id='1427'> +1.2914451e-12 </wgt>
<wgt id='1428'> +1.3206493e-12 </wgt>
<wgt id='1429'> +1.3078355e-12 </wgt>
<wgt id='1430'> +1.3140748e-12 </wgt>
<wgt id='1431'> +1.3110990e-12 </wgt>
<wgt id='1432'> +1.3098387e-12 </wgt>
<wgt id='1433'> +1.3176291e-12 </wgt>
<wgt id='1434'> +1.3010615e-12 </wgt>
<wgt id='1435'> +1.3153303e-12 </wgt>
<wgt id='1436'> +1.2987651e-12 </wgt>
<wgt id='1437'> +1.3197438e-12 </wgt>
<wgt id='1438'> +1.3101153e-12 </wgt>
<wgt id='1439'> +1.3032850e-12 </wgt>
<wgt id='1440'> +1.3250020e-12 </wgt>
<wgt id='1441'> +1.3122455e-12 </wgt>
<wgt id='1442'> +1.3073772e-12 </wgt>
<wgt id='1443'> +1.3084365e-12 </wgt>
<wgt id='1444'> +1.3167203e-12 </wgt>
<wgt id='1445'> +1.3173875e-12 </wgt>
<wgt id='1446'> +1.3094449e-12 </wgt>
<wgt id='1447'> +1.3113965e-12 </wgt>
<wgt id='1448'> +1.3130758e-12 </wgt>
<wgt id='1449'> +1.3085230e-12 </wgt>
<wgt id='1450'> +1.3115562e-12 </wgt>
<wgt id='1451'> +1.3065662e-12 </wgt>
<wgt id='1452'> +1.3171637e-12 </wgt>
<wgt id='1453'> +1.3113872e-12 </wgt>
<wgt id='1454'> +1.3044600e-12 </wgt>
<wgt id='1455'> +1.3038555e-12 </wgt>
<wgt id='1456'> +1.3188781e-12 </wgt>
<wgt id='1457'> +1.3142704e-12 </wgt>
<wgt id='1458'> +1.3093893e-12 </wgt>
<wgt id='1459'> +1.3127385e-12 </wgt>
<wgt id='1460'> +1.3142227e-12 </wgt>
<wgt id='1461'> +1.3104250e-12 </wgt>
<wgt id='1462'> +1.2969926e-12 </wgt>
<wgt id='1463'> +1.3215009e-12 </wgt>
<wgt id='1464'> +1.3096787e-12 </wgt>
<wgt id='1465'> +1.3994738e-12 </wgt>
<wgt id='1466'> +1.3783294e-12 </wgt>
<wgt id='1467'> +1.3589753e-12 </wgt>
<wgt id='1468'> +1.3433484e-12 </wgt>
<wgt id='1469'> +1.3253370e-12 </wgt>
<wgt id='1470'> +1.2956388e-12 </wgt>
<wgt id='1471'> +1.2805890e-12 </wgt>
<wgt id='1472'> +1.2672886e-12 </wgt>
<wgt id='1473'> +1.3096787e-12 </wgt>
<wgt id='1474'> +1.3008136e-12 </wgt>
<wgt id='1475'> +1.3059931e-12 </wgt>
<wgt id='1476'> +1.3133380e-12 </wgt>
<wgt id='1477'> +1.3165507e-12 </wgt>
<wgt id='1478'> +1.3546159e-12 </wgt>
<wgt id='1479'> +1.3570185e-12 </wgt>
<wgt id='1480'> +1.3566687e-12 </wgt>
<wgt id='1481'> +1.3530304e-12 </wgt>
<wgt id='1482'> +1.3646121e-12 </wgt>
<wgt id='1483'> +1.3401946e-12 </wgt>
<wgt id='1484'> +1.3533574e-12 </wgt>
<wgt id='1485'> +1.3838331e-12 </wgt>
<wgt id='1486'> +1.3539465e-12 </wgt>
<wgt id='1487'> +1.3645200e-12 </wgt>
<wgt id='1488'> +1.3481122e-12 </wgt>
<wgt id='1489'> +1.3749874e-12 </wgt>
<wgt id='1490'> +1.3574794e-12 </wgt>
<wgt id='1491'> +1.3618400e-12 </wgt>
<wgt id='1492'> +1.3487567e-12 </wgt>
<wgt id='1493'> +1.3449420e-12 </wgt>
<wgt id='1494'> +1.3549530e-12 </wgt>
<wgt id='1495'> +1.3694121e-12 </wgt>
<wgt id='1496'> +1.3523398e-12 </wgt>
<wgt id='1497'> +1.3611947e-12 </wgt>
<wgt id='1498'> +1.3521793e-12 </wgt>
<wgt id='1499'> +1.3594396e-12 </wgt>
<wgt id='1500'> +1.3538825e-12 </wgt>
<wgt id='1501'> +1.3526247e-12 </wgt>
<wgt id='1502'> +1.3550393e-12 </wgt>
<wgt id='1503'> +1.3599317e-12 </wgt>
<wgt id='1504'> +1.3554115e-12 </wgt>
<wgt id='1505'> +1.3553792e-12 </wgt>
<wgt id='1506'> +1.3584075e-12 </wgt>
<wgt id='1507'> +1.3544105e-12 </wgt>
<wgt id='1508'> +1.3664874e-12 </wgt>
<wgt id='1509'> +1.2002922e-12 </wgt>
<wgt id='1510'> +1.1976788e-12 </wgt>
<wgt id='1511'> +1.1921901e-12 </wgt>
<wgt id='1512'> +1.1941208e-12 </wgt>
<wgt id='1513'> +1.1989719e-12 </wgt>
<wgt id='1514'> +1.2003602e-12 </wgt>
<wgt id='1515'> +1.2022790e-12 </wgt>
<wgt id='1516'> +1.2072958e-12 </wgt>
<wgt id='1517'> +1.2032320e-12 </wgt>
<wgt id='1518'> +1.1907885e-12 </wgt>
<wgt id='1519'> +1.2053723e-12 </wgt>
<wgt id='1520'> +1.2084270e-12 </wgt>
<wgt id='1521'> +1.2027348e-12 </wgt>
<wgt id='1522'> +1.2130165e-12 </wgt>
<wgt id='1523'> +1.1943018e-12 </wgt>
<wgt id='1524'> +1.1962648e-12 </wgt>
<wgt id='1525'> +1.1846781e-12 </wgt>
<wgt id='1526'> +1.2071886e-12 </wgt>
<wgt id='1527'> +1.2140133e-12 </wgt>
<wgt id='1528'> +1.1998756e-12 </wgt>
<wgt id='1529'> +1.2100308e-12 </wgt>
<wgt id='1530'> +1.1840219e-12 </wgt>
<wgt id='1531'> +1.1992848e-12 </wgt>
<wgt id='1532'> +1.2157707e-12 </wgt>
<wgt id='1533'> +1.1970901e-12 </wgt>
<wgt id='1534'> +1.1947313e-12 </wgt>
<wgt id='1535'> +1.2174009e-12 </wgt>
<wgt id='1536'> +1.1999014e-12 </wgt>
<wgt id='1537'> +1.2017181e-12 </wgt>
<wgt id='1538'> +1.2028377e-12 </wgt>
<wgt id='1539'> +1.1940260e-12 </wgt>
<wgt id='1540'> +1.1918543e-12 </wgt>
<wgt id='1541'> +1.1971803e-12 </wgt>
<wgt id='1542'> +1.1979266e-12 </wgt>
<wgt id='1543'> +1.2011846e-12 </wgt>
<wgt id='1544'> +1.1949917e-12 </wgt>
<wgt id='1545'> +1.1991189e-12 </wgt>
<wgt id='1546'> +1.2063847e-12 </wgt>
<wgt id='1547'> +1.1958011e-12 </wgt>
<wgt id='1548'> +1.2057081e-12 </wgt>
<wgt id='1549'> +1.1998176e-12 </wgt>
<wgt id='1550'> +1.1991357e-12 </wgt>
<wgt id='1551'> +1.2004501e-12 </wgt>
<wgt id='1552'> +1.1992067e-12 </wgt>
<wgt id='1553'> +1.1970183e-12 </wgt>
<wgt id='1554'> +1.1929060e-12 </wgt>
<wgt id='1555'> +1.1971292e-12 </wgt>
<wgt id='1556'> +1.2061083e-12 </wgt>
<wgt id='1557'> +1.1921692e-12 </wgt>
<wgt id='1558'> +1.2059978e-12 </wgt>
<wgt id='1559'> +1.1954939e-12 </wgt>
<wgt id='1560'> +1.1937089e-12 </wgt>
<wgt id='1561'> +1.2049293e-12 </wgt>
<wgt id='1562'> +1.1990666e-12 </wgt>
<wgt id='1563'> +1.1989806e-12 </wgt>
<wgt id='1564'> +1.1996427e-12 </wgt>
<wgt id='1565'> +1.2036357e-12 </wgt>
<wgt id='1566'> +1.1944593e-12 </wgt>
<wgt id='1567'> +1.1909274e-12 </wgt>
<wgt id='1568'> +1.2025213e-12 </wgt>
<wgt id='1569'> +1.1985901e-12 </wgt>
<wgt id='1570'> +1.2056126e-12 </wgt>
<wgt id='1571'> +1.1990103e-12 </wgt>
<wgt id='1572'> +1.2051990e-12 </wgt>
<wgt id='1573'> +1.2050666e-12 </wgt>
<wgt id='1574'> +1.1961221e-12 </wgt>
<wgt id='1575'> +1.2010031e-12 </wgt>
<wgt id='1576'> +1.2037220e-12 </wgt>
<wgt id='1577'> +1.1970012e-12 </wgt>
<wgt id='1578'> +1.1964457e-12 </wgt>
<wgt id='1579'> +1.2034951e-12 </wgt>
<wgt id='1580'> +1.2095563e-12 </wgt>
<wgt id='1581'> +1.1960913e-12 </wgt>
<wgt id='1582'> +1.1952970e-12 </wgt>
<wgt id='1583'> +1.2026446e-12 </wgt>
<wgt id='1584'> +1.2002767e-12 </wgt>
<wgt id='1585'> +1.2000700e-12 </wgt>
<wgt id='1586'> +1.2064704e-12 </wgt>
<wgt id='1587'> +1.1977516e-12 </wgt>
<wgt id='1588'> +1.1983414e-12 </wgt>
<wgt id='1589'> +1.2004218e-12 </wgt>
<wgt id='1590'> +1.1983425e-12 </wgt>
<wgt id='1591'> +1.1995114e-12 </wgt>
<wgt id='1592'> +1.1998937e-12 </wgt>
<wgt id='1593'> +1.2037704e-12 </wgt>
<wgt id='1594'> +1.2019363e-12 </wgt>
<wgt id='1595'> +1.1977453e-12 </wgt>
<wgt id='1596'> +1.2002797e-12 </wgt>
<wgt id='1597'> +1.1997553e-12 </wgt>
<wgt id='1598'> +1.2030279e-12 </wgt>
<wgt id='1599'> +1.2029969e-12 </wgt>
<wgt id='1600'> +1.1969904e-12 </wgt>
<wgt id='1601'> +1.2018183e-12 </wgt>
<wgt id='1602'> +1.1987952e-12 </wgt>
<wgt id='1603'> +1.2024896e-12 </wgt>
<wgt id='1604'> +1.2014724e-12 </wgt>
<wgt id='1605'> +1.2009404e-12 </wgt>
<wgt id='1606'> +1.1972494e-12 </wgt>
<wgt id='1607'> +1.2001218e-12 </wgt>
<wgt id='1608'> +1.2003451e-12 </wgt>
<wgt id='1609'> +1.2013727e-12 </wgt>
<wgt id='1610'> +1.1557565e-12 </wgt>
<wgt id='1611'> +1.2440213e-12 </wgt>
<wgt id='1612'> +1.4355217e-12 </wgt>
<wgt id='1613'> +1.4760915e-12 </wgt>
<wgt id='1614'> +1.4153382e-12 </wgt>
<wgt id='1615'> +1.4590457e-12 </wgt>
<wgt id='1616'> +1.4188895e-12 </wgt>
<wgt id='1617'> +1.2960982e-12 </wgt>
<wgt id='1618'> +1.2136618e-12 </wgt>
<wgt id='1619'> +1.4180500e-12 </wgt>
<wgt id='1620'> +1.4761394e-12 </wgt>
<wgt id='1621'> +1.4398236e-12 </wgt>
<wgt id='1622'> +1.4629197e-12 </wgt>
<wgt id='1623'> +1.4955387e-12 </wgt>
<wgt id='1624'> +1.4423078e-12 </wgt>
<wgt id='1625'> +1.4413352e-12 </wgt>
<wgt id='1626'> +1.5651556e-12 </wgt>
<wgt id='1627'> +1.4829814e-12 </wgt>
<wgt id='1628'> +1.5129810e-12 </wgt>
<wgt id='1629'> +1.4887580e-12 </wgt>
<wgt id='1630'> +1.4456863e-12 </wgt>
<wgt id='1631'> +1.4675362e-12 </wgt>
<wgt id='1632'> +1.4708134e-12 </wgt>
<wgt id='1633'> +1.4737098e-12 </wgt>
<wgt id='1634'> +1.4403579e-12 </wgt>
<wgt id='1635'> +1.4123271e-12 </wgt>
<wgt id='1636'> +1.3938974e-12 </wgt>
<wgt id='1637'> +1.3997523e-12 </wgt>
<wgt id='1638'> +1.4575591e-12 </wgt>
<wgt id='1639'> +1.5006989e-12 </wgt>
<wgt id='1640'> +1.5357361e-12 </wgt>
<wgt id='1641'> +1.4607254e-12 </wgt>
<wgt id='1642'> +1.4697160e-12 </wgt>
<wgt id='1643'> +1.5183702e-12 </wgt>
<wgt id='1644'> +1.4599386e-12 </wgt>
<wgt id='1645'> +1.4438052e-12 </wgt>
<wgt id='1646'> +1.5100649e-12 </wgt>
<wgt id='1647'> +1.5151601e-12 </wgt>
<wgt id='1648'> +1.3999990e-12 </wgt>
<wgt id='1649'> +1.2802702e-12 </wgt>
<wgt id='1650'> +1.5563468e-12 </wgt>
<wgt id='1651'> +1.5562767e-12 </wgt>
<wgt id='1652'> +1.5599905e-12 </wgt>
<wgt id='1653'> +1.2733005e-12 </wgt>
<wgt id='1654'> +1.3306565e-12 </wgt>
<wgt id='1655'> +1.3948618e-12 </wgt>
<wgt id='1656'> +1.5080208e-12 </wgt>
<wgt id='1657'> +1.4559995e-12 </wgt>
<wgt id='1658'> +1.4969677e-12 </wgt>
<wgt id='1659'> +1.4423078e-12 </wgt>
<wgt id='1660'> +1.3215508e-12 </wgt>
<wgt id='1661'> +1.4138726e-12 </wgt>
<wgt id='1662'> +1.4581011e-12 </wgt>
<wgt id='1663'> +1.4336913e-12 </wgt>
<wgt id='1664'> +1.5078190e-12 </wgt>
<wgt id='1665'> +1.5980973e-12 </wgt>
<wgt id='1666'> +1.4472519e-12 </wgt>
<wgt id='1667'> +1.3852334e-12 </wgt>
<wgt id='1668'> +1.3840457e-12 </wgt>
<wgt id='1669'> +1.4389427e-12 </wgt>
<wgt id='1670'> +1.4521497e-12 </wgt>
<wgt id='1671'> +1.4563361e-12 </wgt>
<wgt id='1672'> +1.3853790e-12 </wgt>
<wgt id='1673'> +1.3752677e-12 </wgt>
<wgt id='1674'> +1.4334014e-12 </wgt>
<wgt id='1675'> +1.4032292e-12 </wgt>
<wgt id='1676'> +1.3868438e-12 </wgt>
<wgt id='1677'> +1.3920111e-12 </wgt>
<wgt id='1678'> +1.4666536e-12 </wgt>
<wgt id='1679'> +1.4717705e-12 </wgt>
<wgt id='1680'> +1.3853922e-12 </wgt>
<wgt id='1681'> +1.4293124e-12 </wgt>
<wgt id='1682'> +1.3933731e-12 </wgt>
<wgt id='1683'> +1.3770742e-12 </wgt>
<wgt id='1684'> +1.4316968e-12 </wgt>
<wgt id='1685'> +1.4190913e-12 </wgt>
<wgt id='1686'> +1.4509089e-12 </wgt>
<wgt id='1687'> +1.4377646e-12 </wgt>
<wgt id='1688'> +1.4871875e-12 </wgt>
<wgt id='1689'> +1.3912482e-12 </wgt>
<wgt id='1690'> +1.3114008e-12 </wgt>
<wgt id='1691'> +1.3574497e-12 </wgt>
<wgt id='1692'> +1.3731492e-12 </wgt>
<wgt id='1693'> +1.5480047e-12 </wgt>
<wgt id='1694'> +1.3915640e-12 </wgt>
<wgt id='1695'> +1.4543337e-12 </wgt>
<wgt id='1696'> +1.4314579e-12 </wgt>
<wgt id='1697'> +1.3515674e-12 </wgt>
<wgt id='1698'> +1.4239540e-12 </wgt>
<wgt id='1699'> +1.3501071e-12 </wgt>
<wgt id='1700'> +1.4474686e-12 </wgt>
<wgt id='1701'> +1.4300153e-12 </wgt>
<wgt id='1702'> +1.3035114e-12 </wgt>
<wgt id='1703'> +1.4181738e-12 </wgt>
<wgt id='1704'> +1.4198166e-12 </wgt>
<wgt id='1705'> +1.5624337e-12 </wgt>
<wgt id='1706'> +1.3601959e-12 </wgt>
<wgt id='1707'> +1.4368902e-12 </wgt>
<wgt id='1708'> +1.3689893e-12 </wgt>
<wgt id='1709'> +1.4739050e-12 </wgt>
<wgt id='1710'> +1.4429539e-12 </wgt>
<wgt id='1711'> +1.4986201e-12 </wgt>
<wgt id='1712'> +1.4335115e-12 </wgt>
<wgt id='1713'> +1.3740278e-12 </wgt>
<wgt id='1714'> +1.3466212e-12 </wgt>
<wgt id='1715'> +1.3371573e-12 </wgt>
<wgt id='1716'> +1.3709600e-12 </wgt>
<wgt id='1717'> +1.3583270e-12 </wgt>
<wgt id='1718'> +1.3525046e-12 </wgt>
<wgt id='1719'> +1.4129671e-12 </wgt>
<wgt id='1720'> +1.3634768e-12 </wgt>
<wgt id='1721'> +1.3854576e-12 </wgt>
<wgt id='1722'> +1.3740177e-12 </wgt>
<wgt id='1723'> +1.3336980e-12 </wgt>
<wgt id='1724'> +1.3152464e-12 </wgt>
<wgt id='1725'> +1.4021699e-12 </wgt>
<wgt id='1726'> +1.3955686e-12 </wgt>
<wgt id='1727'> +1.3469541e-12 </wgt>
<wgt id='1728'> +1.3738809e-12 </wgt>
<wgt id='1729'> +1.3646425e-12 </wgt>
<wgt id='1730'> +1.3509100e-12 </wgt>
<wgt id='1731'> +1.3472573e-12 </wgt>
<wgt id='1732'> +1.4096813e-12 </wgt>
<wgt id='1733'> +1.3862803e-12 </wgt>
<wgt id='1734'> +1.4083976e-12 </wgt>
<wgt id='1735'> +1.3568645e-12 </wgt>
<wgt id='1736'> +1.4652410e-12 </wgt>
<wgt id='1737'> +1.3961689e-12 </wgt>
<wgt id='1738'> +1.3841974e-12 </wgt>
<wgt id='1739'> +1.3666578e-12 </wgt>
<wgt id='1740'> +1.3147242e-12 </wgt>
<wgt id='1741'> +1.3894715e-12 </wgt>
<wgt id='1742'> +1.3647505e-12 </wgt>
<wgt id='1743'> +1.3960239e-12 </wgt>
<wgt id='1744'> +1.3878651e-12 </wgt>
<wgt id='1745'> +1.3262967e-12 </wgt>
<wgt id='1746'> +1.3690716e-12 </wgt>
<wgt id='1747'> +1.4054542e-12 </wgt>
<wgt id='1748'> +1.3602044e-12 </wgt>
<wgt id='1749'> +1.4028205e-12 </wgt>
<wgt id='1750'> +1.3975129e-12 </wgt>
<wgt id='1751'> +1.3787834e-12 </wgt>
<wgt id='1752'> +1.3384977e-12 </wgt>
<wgt id='1753'> +1.3984349e-12 </wgt>
<wgt id='1754'> +1.3825027e-12 </wgt>
<wgt id='1755'> +1.3698276e-12 </wgt>
<wgt id='1756'> +1.3970931e-12 </wgt>
<wgt id='1757'> +1.3794028e-12 </wgt>
<wgt id='1758'> +1.3963244e-12 </wgt>
<wgt id='1759'> +1.4024256e-12 </wgt>
<wgt id='1760'> +1.3598949e-12 </wgt>
<wgt id='1761'> +1.3646095e-12 </wgt>
<wgt id='1762'> +1.3569594e-12 </wgt>
<wgt id='1763'> +1.3784083e-12 </wgt>
<wgt id='1764'> +1.3947852e-12 </wgt>
<wgt id='1765'> +1.3498814e-12 </wgt>
<wgt id='1766'> +1.4063382e-12 </wgt>
<wgt id='1767'> +1.3750101e-12 </wgt>
<wgt id='1768'> +1.3743621e-12 </wgt>
<wgt id='1769'> +1.3556987e-12 </wgt>
<wgt id='1770'> +1.4057261e-12 </wgt>
<wgt id='1771'> +1.3816143e-12 </wgt>
<wgt id='1772'> +1.3838802e-12 </wgt>
<wgt id='1773'> +1.3751815e-12 </wgt>
<wgt id='1774'> +1.3796815e-12 </wgt>
<wgt id='1775'> +1.3773414e-12 </wgt>
<wgt id='1776'> +1.4062519e-12 </wgt>
<wgt id='1777'> +1.3326665e-12 </wgt>
<wgt id='1778'> +1.3604894e-12 </wgt>
<wgt id='1779'> +1.3827851e-12 </wgt>
<wgt id='1780'> +1.4276387e-12 </wgt>
<wgt id='1781'> +1.3642780e-12 </wgt>
<wgt id='1782'> +1.3182692e-12 </wgt>
<wgt id='1783'> +1.3873161e-12 </wgt>
<wgt id='1784'> +1.3823673e-12 </wgt>
<wgt id='1785'> +1.3801179e-12 </wgt>
<wgt id='1786'> +1.2724729e-12 </wgt>
<wgt id='1787'> +1.4126530e-12 </wgt>
<wgt id='1788'> +1.3557017e-12 </wgt>
<wgt id='1789'> +1.3781197e-12 </wgt>
<wgt id='1790'> +1.3848260e-12 </wgt>
<wgt id='1791'> +1.3998029e-12 </wgt>
<wgt id='1792'> +1.3525788e-12 </wgt>
<wgt id='1793'> +1.3724720e-12 </wgt>
<wgt id='1794'> +1.3784415e-12 </wgt>
<wgt id='1795'> +1.3519461e-12 </wgt>
<wgt id='1796'> +1.3991075e-12 </wgt>
<wgt id='1797'> +1.3798630e-12 </wgt>
<wgt id='1798'> +1.3406853e-12 </wgt>
<wgt id='1799'> +1.3653290e-12 </wgt>
<wgt id='1800'> +1.3620622e-12 </wgt>
<wgt id='1801'> +1.3577877e-12 </wgt>
<wgt id='1802'> +1.4089037e-12 </wgt>
<wgt id='1803'> +1.3670947e-12 </wgt>
<wgt id='1804'> +1.3754822e-12 </wgt>
<wgt id='1805'> +1.3765444e-12 </wgt>
<wgt id='1806'> +1.3611155e-12 </wgt>
<wgt id='1807'> +1.3809192e-12 </wgt>
<wgt id='1808'> +1.3563597e-12 </wgt>
<wgt id='1809'> +1.3732671e-12 </wgt>
<wgt id='1810'> +1.3596221e-12 </wgt>
<wgt id='1811'> +1.4075752e-12 </wgt>
<wgt id='1812'> +1.3958654e-12 </wgt>
<wgt id='1813'> +1.3463844e-12 </wgt>
<wgt id='1814'> +1.4311248e-12 </wgt>
<wgt id='1815'> +1.7417793e-12 </wgt>
<wgt id='1816'> +1.3740278e-12 </wgt>
<wgt id='1817'> +1.3466212e-12 </wgt>
<wgt id='1818'> +1.3371573e-12 </wgt>
<wgt id='1819'> +1.3709600e-12 </wgt>
<wgt id='1820'> +1.3583270e-12 </wgt>
<wgt id='1821'> +1.3525046e-12 </wgt>
<wgt id='1822'> +1.4129671e-12 </wgt>
<wgt id='1823'> +1.3634768e-12 </wgt>
<wgt id='1824'> +1.3854576e-12 </wgt>
<wgt id='1825'> +1.3740177e-12 </wgt>
<wgt id='1826'> +1.3336980e-12 </wgt>
<wgt id='1827'> +1.3152464e-12 </wgt>
<wgt id='1828'> +1.4021699e-12 </wgt>
<wgt id='1829'> +1.3955686e-12 </wgt>
<wgt id='1830'> +1.3469541e-12 </wgt>
<wgt id='1831'> +1.3738809e-12 </wgt>
<wgt id='1832'> +1.3646425e-12 </wgt>
<wgt id='1833'> +1.3509100e-12 </wgt>
<wgt id='1834'> +1.3472573e-12 </wgt>
<wgt id='1835'> +1.4096813e-12 </wgt>
<wgt id='1836'> +1.3862803e-12 </wgt>
<wgt id='1837'> +1.4083976e-12 </wgt>
<wgt id='1838'> +1.3568645e-12 </wgt>
<wgt id='1839'> +1.4652410e-12 </wgt>
<wgt id='1840'> +1.3961689e-12 </wgt>
<wgt id='1841'> +1.3841974e-12 </wgt>
<wgt id='1842'> +1.3666578e-12 </wgt>
<wgt id='1843'> +1.3147242e-12 </wgt>
<wgt id='1844'> +1.3894715e-12 </wgt>
<wgt id='1845'> +1.3647505e-12 </wgt>
<wgt id='1846'> +1.3960239e-12 </wgt>
<wgt id='1847'> +1.3878651e-12 </wgt>
<wgt id='1848'> +1.3262967e-12 </wgt>
<wgt id='1849'> +1.3690716e-12 </wgt>
<wgt id='1850'> +1.4054542e-12 </wgt>
<wgt id='1851'> +1.3602044e-12 </wgt>
<wgt id='1852'> +1.4028205e-12 </wgt>
<wgt id='1853'> +1.3975129e-12 </wgt>
<wgt id='1854'> +1.3787834e-12 </wgt>
<wgt id='1855'> +1.3384977e-12 </wgt>
<wgt id='1856'> +1.3984349e-12 </wgt>
<wgt id='1857'> +1.3825027e-12 </wgt>
<wgt id='1858'> +1.3698276e-12 </wgt>
<wgt id='1859'> +1.3970931e-12 </wgt>
<wgt id='1860'> +1.3794028e-12 </wgt>
<wgt id='1861'> +1.3963244e-12 </wgt>
<wgt id='1862'> +1.4024256e-12 </wgt>
<wgt id='1863'> +1.3598949e-12 </wgt>
<wgt id='1864'> +1.3646095e-12 </wgt>
<wgt id='1865'> +1.3569594e-12 </wgt>
<wgt id='1866'> +1.3784083e-12 </wgt>
<wgt id='1867'> +1.3947852e-12 </wgt>
<wgt id='1868'> +1.3498814e-12 </wgt>
<wgt id='1869'> +1.4063382e-12 </wgt>
<wgt id='1870'> +1.3750101e-12 </wgt>
<wgt id='1871'> +1.3743621e-12 </wgt>
<wgt id='1872'> +1.3556987e-12 </wgt>
<wgt id='1873'> +1.4057261e-12 </wgt>
<wgt id='1874'> +1.3816143e-12 </wgt>
<wgt id='1875'> +1.3838802e-12 </wgt>
<wgt id='1876'> +1.3751815e-12 </wgt>
<wgt id='1877'> +1.3796815e-12 </wgt>
<wgt id='1878'> +1.3773414e-12 </wgt>
<wgt id='1879'> +1.4062519e-12 </wgt>
<wgt id='1880'> +1.3326665e-12 </wgt>
<wgt id='1881'> +1.3604894e-12 </wgt>
<wgt id='1882'> +1.3827851e-12 </wgt>
<wgt id='1883'> +1.4276387e-12 </wgt>
<wgt id='1884'> +1.3642780e-12 </wgt>
<wgt id='1885'> +1.3182692e-12 </wgt>
<wgt id='1886'> +1.3873161e-12 </wgt>
<wgt id='1887'> +1.3823673e-12 </wgt>
<wgt id='1888'> +1.3801179e-12 </wgt>
<wgt id='1889'> +1.2724729e-12 </wgt>
<wgt id='1890'> +1.4126530e-12 </wgt>
<wgt id='1891'> +1.3557017e-12 </wgt>
<wgt id='1892'> +1.3781197e-12 </wgt>
<wgt id='1893'> +1.3848260e-12 </wgt>
<wgt id='1894'> +1.3998029e-12 </wgt>
<wgt id='1895'> +1.3525788e-12 </wgt>
<wgt id='1896'> +1.3724720e-12 </wgt>
<wgt id='1897'> +1.3784415e-12 </wgt>
<wgt id='1898'> +1.3519461e-12 </wgt>
<wgt id='1899'> +1.3991075e-12 </wgt>
<wgt id='1900'> +1.3798630e-12 </wgt>
<wgt id='1901'> +1.3406853e-12 </wgt>
<wgt id='1902'> +1.3653290e-12 </wgt>
<wgt id='1903'> +1.3620622e-12 </wgt>
<wgt id='1904'> +1.3577877e-12 </wgt>
<wgt id='1905'> +1.4089037e-12 </wgt>
<wgt id='1906'> +1.3670947e-12 </wgt>
<wgt id='1907'> +1.3754822e-12 </wgt>
<wgt id='1908'> +1.3765444e-12 </wgt>
<wgt id='1909'> +1.3611155e-12 </wgt>
<wgt id='1910'> +1.3809192e-12 </wgt>
<wgt id='1911'> +1.3563597e-12 </wgt>
<wgt id='1912'> +1.3732671e-12 </wgt>
<wgt id='1913'> +1.3596221e-12 </wgt>
<wgt id='1914'> +1.4075752e-12 </wgt>
<wgt id='1915'> +1.3958654e-12 </wgt>
<wgt id='1916'> +1.3463844e-12 </wgt>
<wgt id='1917'> +1.3533396e-12 </wgt>
<wgt id='1918'> +1.3979706e-12 </wgt>
<wgt id='1919'> +1.3862442e-12 </wgt>
</rwgt>
</event>
<event>
 9      1 +1.5607000e-12 3.31600100e+01 7.81860800e-03 1.42023000e-01
       -1 -1    0    0    0  501 -0.0000000000e+00 +0.0000000000e+00 +1.0841096484e+01 1.0841096484e+01 0.0000000000e+00 0.0000e+00 -1.0000e+00
       21 -1    0    0  501  502 +0.0000000000e+00 -0.0000000000e+00 -9.9916172851e+01 9.9916172851e+01 0.0000000000e+00 0.0000e+00 -1.0000e+00
     1023  2    1    2    0    0 +2.1116758918e+01 +2.0704203911e+01 -3.0105259514e+01 4.4787421173e+01 1.5000162605e+01 0.0000e+00 0.0000e+00
  1000023  2    3    3    0    0 +1.4751380454e+01 +1.6935477289e+01 -1.6092264972e+01 2.8171604631e+01 5.5013361330e+00 0.0000e+00 0.0000e+00
       -1  1    1    2    0  502 -2.1116758918e+01 -2.0704203911e+01 -5.8969816853e+01 6.5969848162e+01 0.0000000000e+00 0.0000e+00 -1.0000e+00
  1000022  1    4    4    0    0 +1.3682733783e+01 +1.5978287707e+01 -1.4621227192e+01 2.6101784736e+01 5.0000000000e+00 0.0000e+00 -1.0000e+00
      -13  1    4    4    0    0 +3.4914855802e-01 +2.6395947520e-01 -4.1825670397e-01 6.1456527768e-01 1.0570000000e-01 0.0000e+00 1.0000e+00
       13  1    4    4    0    0 +7.1949811310e-01 +6.9323010685e-01 -1.0527810768e+00 1.4552546174e+00 1.0570000000e-01 0.0000e+00 1.0000e+00
  1000022  1    3    3    0    0 +6.3653784635e+00 +3.7687266220e+00 -1.4012994541e+01 1.6615816542e+01 5.0000000000e+00 0.0000e+00 -1.0000e+00
<mgrwt>
<rscale>  1 0.33160013E+02</rscale>
<asrwt>0</asrwt>
<pdfrwt beam="1">  1       21 0.15371719E-01 0.33160013E+02</pdfrwt>
<pdfrwt beam="2">  1       -1 0.16678610E-02 0.33160013E+02</pdfrwt>
<totfact> 0.28257726E+06</totfact>
</mgrwt>
<rwgt>
<wgt id='1001'> +1.5607000e-12 </wgt>
<wgt id='1002'> +1.5725419e-12 </wgt>
<wgt id='1003'> +1.5725367e-12 </wgt>
<wgt id='1004'> +1.5573010e-12 </wgt>
<wgt id='1005'> +1.5723587e-12 </wgt>
<wgt id='1006'> +1.3693456e-12 </wgt>
<wgt id='1007'> +1.3992090e-12 </wgt>
<wgt id='1008'> +1.3998607e-12 </wgt>
<wgt id='1009'> +1.3636332e-12 </wgt>
<wgt id='1010'> +1.4016157e-12 </wgt>
<wgt id='1011'> +1.8172503e-12 </wgt>
<wgt id='1012'> +1.7969861e-12 </wgt>
<wgt id='1013'> +1.7958736e-12 </wgt>
<wgt id='1014'> +1.8182338e-12 </wgt>
<wgt id='1015'> +1.7924391e-12 </wgt>
<wgt id='1016'> +1.7920425e-12 </wgt>
<wgt id='1017'> +1.7546775e-12 </wgt>
<wgt id='1018'> +1.7530907e-12 </wgt>
<wgt id='1019'> +1.7958736e-12 </wgt>
<wgt id='1020'> +1.7483316e-12 </wgt>
<wgt id='1021'> +1.5723237e-12 </wgt>
<wgt id='1022'> +1.5612689e-12 </wgt>
<wgt id='1023'> +1.5605885e-12 </wgt>
<wgt id='1024'> +1.5725367e-12 </wgt>
<wgt id='1025'> +1.5584796e-12 </wgt>
<wgt id='1026'> +2.0866212e-12 </wgt>
<wgt id='1027'> +2.0051175e-12 </wgt>
<wgt id='1028'> +2.0020704e-12 </wgt>
<wgt id='1029'> +2.0967803e-12 </wgt>
<wgt id='1030'> +1.9930426e-12 </wgt>
<wgt id='1031'> +1.2942720e-12 </wgt>
<wgt id='1032'> +1.3617906e-12 </wgt>
<wgt id='1033'> +1.3636332e-12 </wgt>
<wgt id='1034'> +1.2828739e-12 </wgt>
<wgt id='1035'> +1.3687923e-12 </wgt>
<wgt id='1036'> +1.1355839e-12 </wgt>
<wgt id='1037'> +1.2116877e-12 </wgt>
<wgt id='1038'> +1.2138964e-12 </wgt>
<wgt id='1039'> +1.1233343e-12 </wgt>
<wgt id='1040'> +1.2201546e-12 </wgt>
<wgt id='1041'> +1.5070264e-12 </wgt>
<wgt id='1042'> +1.5561549e-12 </wgt>
<wgt id='1043'> +1.5573010e-12 </wgt>
<wgt id='1044'> +1.4978252e-12 </wgt>
<wgt id='1045'> +1.5603797e-12 </wgt>
<wgt id='1046'> +1.5607000e-12 </wgt>
<wgt id='1047'> +1.5569111e-12 </wgt>
<wgt id='1048'> +1.5600408e-12 </wgt>
<wgt id='1049'> +1.4728983e-12 </wgt>
<wgt id='1050'> +1.5636226e-12 </wgt>
<wgt id='1051'> +1.5623148e-12 </wgt>
<wgt id='1052'> +1.5996261e-12 </wgt>
<wgt id='1053'> +1.5561328e-12 </wgt>
<wgt id='1054'> +1.5062852e-12 </wgt>
<wgt id='1055'> +1.5750806e-12 </wgt>
<wgt id='1056'> +1.5846722e-12 </wgt>
<wgt id='1057'> +1.5690187e-12 </wgt>
<wgt id='1058'> +1.5330360e-12 </wgt>
<wgt id='1059'> +1.5649288e-12 </wgt>
<wgt id='1060'> +1.5074110e-12 </wgt>
<wgt id='1061'> +1.6024128e-12 </wgt>
<wgt id='1062'> +1.5984489e-12 </wgt>
<wgt id='1063'> +1.6245561e-12 </wgt>
<wgt id='1064'> +1.5530802e-12 </wgt>
<wgt id='1065'> +1.5644504e-12 </wgt>
<wgt id='1066'> +1.5559171e-12 </wgt>
<wgt id='1067'> +1.5194224e-12 </wgt>
<wgt id='1068'> +1.5720670e-12 </wgt>
<wgt id='1069'> +1.5717152e-12 </wgt>
<wgt id='1070'> +1.5462860e-12 </wgt>
<wgt id='1071'> +1.5523259e-12 </wgt>
<wgt id='1072'> +1.5352414e-12 </wgt>
<wgt id='1073'> +1.6395370e-12 </wgt>
<wgt id='1074'> +1.5459127e-12 </wgt>
<wgt id='1075'> +1.5991185e-12 </wgt>
<wgt id='1076'> +1.6258533e-12 </wgt>
<wgt id='1077'> +1.5367529e-12 </wgt>
<wgt id='1078'> +1.5698219e-12 </wgt>
<wgt id='1079'> +1.5767898e-12 </wgt>
<wgt id='1080'> +1.5327054e-12 </wgt>
<wgt id='1081'> +1.5858550e-12 </wgt>
<wgt id='1082'> +1.5541431e-12 </wgt>
<wgt id='1083'> +1.5641335e-12 </wgt>
<wgt id='1084'> +1.5638460e-12 </wgt>
<wgt id='1085'> +1.5283898e-12 </wgt>
<wgt id='1086'> +1.5224784e-12 </wgt>
<wgt id='1087'> +1.5786054e-12 </wgt>
<wgt id='1088'> +1.5538740e-12 </wgt>
<wgt id='1089'> +1.5844358e-12 </wgt>
<wgt id='1090'> +1.5571357e-12 </wgt>
<wgt id='1091'> +1.5462634e-12 </wgt>
<wgt id='1092'> +1.5722301e-12 </wgt>
<wgt id='1093'> +1.5478374e-12 </wgt>
<wgt id='1094'> +1.4899643e-12 </wgt>
<wgt id='1095'> +1.6036363e-12 </wgt>
<wgt id='1096'> +1.5891413e-12 </wgt>
<wgt id='1097'> +1.5107195e-12 </wgt>
<wgt id='1098'> +1.5446900e-12 </wgt>
<wgt id='1099'> +1.5928938e-12 </wgt>
<wgt id='1100'> +1.5635649e-12 </wgt>
<wgt id='1101'> +1.4795957e-12 </wgt>
<wgt id='1102'> +1.5658024e-12 </wgt>
<wgt id='1103'> +1.5800015e-12 </wgt>
<wgt id='1104'> +1.5556066e-12 </wgt>
<wgt id='1105'> +1.6205912e-12 </wgt>
<wgt id='1106'> +1.5265612e-12 </wgt>
<wgt id='1107'> +1.5753913e-12 </wgt>
<wgt id='1108'> +1.5618769e-12 </wgt>
<wgt id='1109'> +1.5426340e-12 </wgt>
<wgt id='1110'> +1.4984996e-12 </wgt>
<wgt id='1111'> +1.5800446e-12 </wgt>
<wgt id='1112'> +1.5569325e-12 </wgt>
<wgt id='1113'> +1.4930948e-12 </wgt>
<wgt id='1114'> +1.6050849e-12 </wgt>
<wgt id='1115'> +1.5672445e-12 </wgt>
<wgt id='1116'> +1.5335453e-12 </wgt>
<wgt id='1117'> +1.5860494e-12 </wgt>
<wgt id='1118'> +1.5887520e-12 </wgt>
<wgt id='1119'> +1.5608563e-12 </wgt>
<wgt id='1120'> +1.5758093e-12 </wgt>
<wgt id='1121'> +1.5746991e-12 </wgt>
<wgt id='1122'> +1.5778739e-12 </wgt>
<wgt id='1123'> +1.5496611e-12 </wgt>
<wgt id='1124'> +1.5852274e-12 </wgt>
<wgt id='1125'> +1.5760607e-12 </wgt>
<wgt id='1126'> +1.5426646e-12 </wgt>
<wgt id='1127'> +1.5414762e-12 </wgt>
<wgt id='1128'> +1.5984489e-12 </wgt>
<wgt id='1129'> +1.5454280e-12 </wgt>
<wgt id='1130'> +1.5646381e-12 </wgt>
<wgt id='1131'> +1.5617037e-12 </wgt>
<wgt id='1132'> +1.5615461e-12 </wgt>
<wgt id='1133'> +1.5896660e-12 </wgt>
<wgt id='1134'> +1.5907727e-12 </wgt>
<wgt id='1135'> +1.5831411e-12 </wgt>
<wgt id='1136'> +1.5315364e-12 </wgt>
<wgt id='1137'> +1.5382870e-12 </wgt>
<wgt id='1138'> +1.5649308e-12 </wgt>
<wgt id='1139'> +1.5856337e-12 </wgt>
<wgt id='1140'> +1.5729307e-12 </wgt>
<wgt id='1141'> +1.5329129e-12 </wgt>
<wgt id='1142'> +1.5564832e-12 </wgt>
<wgt id='1143'> +1.5321489e-12 </wgt>
<wgt id='1144'> +1.5628717e-12 </wgt>
<wgt id='1145'> +1.5392942e-12 </wgt>
<wgt id='1146'> +1.5678964e-12 </wgt>
<wgt id='1147'> +1.2112390e-12 </wgt>
<wgt id='1148'> +1.2386327e-12 </wgt>
<wgt id='1149'> +1.2468276e-12 </wgt>
<wgt id='1150'> +1.1780880e-12 </wgt>
<wgt id='1151'> +1.0398537e-12 </wgt>
<wgt id='1152'> +1.4426974e-12 </wgt>
<wgt id='1153'> +1.4356894e-12 </wgt>
<wgt id='1154'> +1.4467237e-12 </wgt>
<wgt id='1155'> +1.4425020e-12 </wgt>
<wgt id='1156'> +1.4428319e-12 </wgt>
<wgt id='1157'> +1.4454829e-12 </wgt>
<wgt id='1158'> +1.4388908e-12 </wgt>
<wgt id='1159'> +1.4450318e-12 </wgt>
<wgt id='1160'> +1.4412419e-12 </wgt>
<wgt id='1161'> +1.4389728e-12 </wgt>
<wgt id='1162'> +1.4452618e-12 </wgt>
<wgt id='1163'> +1.4467428e-12 </wgt>
<wgt id='1164'> +1.4387166e-12 </wgt>
<wgt id='1165'> +1.4339136e-12 </wgt>
<wgt id='1166'> +1.4511889e-12 </wgt>
<wgt id='1167'> +1.4506685e-12 </wgt>
<wgt id='1168'> +1.4314978e-12 </wgt>
<wgt id='1169'> +1.4446799e-12 </wgt>
<wgt id='1170'> +1.4412084e-12 </wgt>
<wgt id='1171'> +1.4411283e-12 </wgt>
<wgt id='1172'> +1.4445645e-12 </wgt>
<wgt id='1173'> +1.4356945e-12 </wgt>
<wgt id='1174'> +1.4490688e-12 </wgt>
<wgt id='1175'> +1.4408279e-12 </wgt>
<wgt id='1176'> +1.4434575e-12 </wgt>
<wgt id='1177'> +1.4427930e-12 </wgt>
<wgt id='1178'> +1.4427149e-12 </wgt>
<wgt id='1179'> +1.4551329e-12 </wgt>
<wgt id='1180'> +1.4256875e-12 </wgt>
<wgt id='1181'> +1.4367080e-12 </wgt>
<wgt id='1182'> +1.4482884e-12 </wgt>
<wgt id='1183'> +1.4416681e-12 </wgt>
<wgt id='1184'> +1.4427877e-12 </wgt>
<wgt id='1185'> +1.4358625e-12 </wgt>
<wgt id='1186'> +1.4462678e-12 </wgt>
<wgt id='1187'> +1.4416227e-12 </wgt>
<wgt id='1188'> +1.4430533e-12 </wgt>
<wgt id='1189'> +1.4388774e-12 </wgt>
<wgt id='1190'> +1.4295863e-12 </wgt>
<wgt id='1191'> +1.4380332e-12 </wgt>
<wgt id='1192'> +1.4451880e-12 </wgt>
<wgt id='1193'> +1.2624857e-12 </wgt>
<wgt id='1194'> +1.2599916e-12 </wgt>
<wgt id='1195'> +1.2644710e-12 </wgt>
<wgt id='1196'> +1.2678711e-12 </wgt>
<wgt id='1197'> +1.2564426e-12 </wgt>
<wgt id='1198'> +1.2629735e-12 </wgt>
<wgt id='1199'> +1.2617443e-12 </wgt>
<wgt id='1200'> +1.2647163e-12 </wgt>
<wgt id='1201'> +1.2610048e-12 </wgt>
<wgt id='1202'> +1.2604568e-12 </wgt>
<wgt id='1203'> +1.2653667e-12 </wgt>
<wgt id='1204'> +1.2503352e-12 </wgt>
<wgt id='1205'> +1.2699531e-12 </wgt>
<wgt id='1206'> +1.2671542e-12 </wgt>
<wgt id='1207'> +1.2560011e-12 </wgt>
<wgt id='1208'> +1.2553908e-12 </wgt>
<wgt id='1209'> +1.2650578e-12 </wgt>
<wgt id='1210'> +1.2637114e-12 </wgt>
<wgt id='1211'> +1.2525132e-12 </wgt>
<wgt id='1212'> +1.2628576e-12 </wgt>
<wgt id='1213'> +1.2620299e-12 </wgt>
<wgt id='1214'> +1.2472329e-12 </wgt>
<wgt id='1215'> +1.2869857e-12 </wgt>
<wgt id='1216'> +1.2710601e-12 </wgt>
<wgt id='1217'> +1.2567744e-12 </wgt>
<wgt id='1218'> +1.2659541e-12 </wgt>
<wgt id='1219'> +1.2605294e-12 </wgt>
<wgt id='1220'> +1.2663310e-12 </wgt>
<wgt id='1221'> +1.2625162e-12 </wgt>
<wgt id='1222'> +1.2596042e-12 </wgt>
<wgt id='1223'> +1.2677233e-12 </wgt>
<wgt id='1224'> +1.2642121e-12 </wgt>
<wgt id='1225'> +1.2617309e-12 </wgt>
<wgt id='1226'> +1.2605585e-12 </wgt>
<wgt id='1227'> +1.2637427e-12 </wgt>
<wgt id='1228'> +1.2585646e-12 </wgt>
<wgt id='1229'> +1.2641751e-12 </wgt>
<wgt id='1230'> +1.2609142e-12 </wgt>
<wgt id='1231'> +1.2546266e-12 </wgt>
<wgt id='1232'> +1.2609797e-12 </wgt>
<wgt id='1233'> +1.2628701e-12 </wgt>
<wgt id='1234'> +1.2624857e-12 </wgt>
<wgt id='1235'> +1.2540522e-12 </wgt>
<wgt id='1236'> +1.2572226e-12 </wgt>
<wgt id='1237'> +1.2600976e-12 </wgt>
<wgt id='1238'> +1.2649463e-12 </wgt>
<wgt id='1239'> +1.2669686e-12 </wgt>
<wgt id='1240'> +1.2688405e-12 </wgt>
<wgt id='1241'> +1.2907705e-12 </wgt>
<wgt id='1242'> +1.2848649e-12 </wgt>
<wgt id='1243'> +1.2966023e-12 </wgt>
<wgt id='1244'> +1.2839405e-12 </wgt>
<wgt id='1245'> +1.2957878e-12 </wgt>
<wgt id='1246'> +1.2917108e-12 </wgt>
<wgt id='1247'> +1.2899271e-12 </wgt>
<wgt id='1248'> +1.2907064e-12 </wgt>
<wgt id='1249'> +1.2908670e-12 </wgt>
<wgt id='1250'> +1.2917455e-12 </wgt>
<wgt id='1251'> +1.2900784e-12 </wgt>
<wgt id='1252'> +1.2875565e-12 </wgt>
<wgt id='1253'> +1.2932731e-12 </wgt>
<wgt id='1254'> +1.2785177e-12 </wgt>
<wgt id='1255'> +1.2981025e-12 </wgt>
<wgt id='1256'> +1.2950453e-12 </wgt>
<wgt id='1257'> +1.2799981e-12 </wgt>
<wgt id='1258'> +1.3108932e-12 </wgt>
<wgt id='1259'> +1.2718557e-12 </wgt>
<wgt id='1260'> +1.2947251e-12 </wgt>
<wgt id='1261'> +1.2863909e-12 </wgt>
<wgt id='1262'> +1.2935541e-12 </wgt>
<wgt id='1263'> +1.2895189e-12 </wgt>
<wgt id='1264'> +1.2943822e-12 </wgt>
<wgt id='1265'> +1.2890211e-12 </wgt>
<wgt id='1266'> +1.2896712e-12 </wgt>
<wgt id='1267'> +1.2924850e-12 </wgt>
<wgt id='1268'> +1.2902624e-12 </wgt>
<wgt id='1269'> +1.2954572e-12 </wgt>
<wgt id='1270'> +1.2852711e-12 </wgt>
<wgt id='1271'> +1.2837885e-12 </wgt>
<wgt id='1272'> +1.2919685e-12 </wgt>
<wgt id='1273'> +1.2898214e-12 </wgt>
<wgt id='1274'> +1.2926953e-12 </wgt>
<wgt id='1275'> +1.2864526e-12 </wgt>
<wgt id='1276'> +1.2928795e-12 </wgt>
<wgt id='1277'> +1.2878192e-12 </wgt>
<wgt id='1278'> +1.2896687e-12 </wgt>
<wgt id='1279'> +1.2881129e-12 </wgt>
<wgt id='1280'> +1.2914260e-12 </wgt>
<wgt id='1281'> +1.2878549e-12 </wgt>
<wgt id='1282'> +1.2907705e-12 </wgt>
<wgt id='1283'> +1.2811712e-12 </wgt>
<wgt id='1284'> +1.2848037e-12 </wgt>
<wgt id='1285'> +1.2881822e-12 </wgt>
<wgt id='1286'> +1.2934329e-12 </wgt>
<wgt id='1287'> +1.2956793e-12 </wgt>
<wgt id='1288'> +1.2974284e-12 </wgt>
<wgt id='1289'> +1.2806759e-12 </wgt>
<wgt id='1290'> +1.2855080e-12 </wgt>
<wgt id='1291'> +1.2754049e-12 </wgt>
<wgt id='1292'> +1.2755858e-12 </wgt>
<wgt id='1293'> +1.2842919e-12 </wgt>
<wgt id='1294'> +1.2817913e-12 </wgt>
<wgt id='1295'> +1.2795505e-12 </wgt>
<wgt id='1296'> +1.2750666e-12 </wgt>
<wgt id='1297'> +1.2875847e-12 </wgt>
<wgt id='1298'> +1.2857737e-12 </wgt>
<wgt id='1299'> +1.2742079e-12 </wgt>
<wgt id='1300'> +1.2838683e-12 </wgt>
<wgt id='1301'> +1.2742028e-12 </wgt>
<wgt id='1302'> +1.2796222e-12 </wgt>
<wgt id='1303'> +1.2820567e-12 </wgt>
<wgt id='1304'> +1.2781507e-12 </wgt>
<wgt id='1305'> +1.2823579e-12 </wgt>
<wgt id='1306'> +1.2775394e-12 </wgt>
<wgt id='1307'> +1.2843177e-12 </wgt>
<wgt id='1308'> +1.2916769e-12 </wgt>
<wgt id='1309'> +1.2722623e-12 </wgt>
<wgt id='1310'> +1.2791800e-12 </wgt>
<wgt id='1311'> +1.2823417e-12 </wgt>
<wgt id='1312'> +1.2797134e-12 </wgt>
<wgt id='1313'> +1.2817825e-12 </wgt>
<wgt id='1314'> +1.2857709e-12 </wgt>
<wgt id='1315'> +1.2690493e-12 </wgt>
<wgt id='1316'> +1.2872842e-12 </wgt>
<wgt id='1317'> +1.2805370e-12 </wgt>
<wgt id='1318'> +1.2896356e-12 </wgt>
<wgt id='1319'> +1.2696758e-12 </wgt>
<wgt id='1320'> +1.2875997e-12 </wgt>
<wgt id='1321'> +1.2739919e-12 </wgt>
<wgt id='1322'> +1.2806398e-12 </wgt>
<wgt id='1323'> +1.2805853e-12 </wgt>
<wgt id='1324'> +1.2780849e-12 </wgt>
<wgt id='1325'> +1.2903781e-12 </wgt>
<wgt id='1326'> +1.2800841e-12 </wgt>
<wgt id='1327'> +1.2830867e-12 </wgt>
<wgt id='1328'> +1.2814407e-12 </wgt>
<wgt id='1329'> +1.2797437e-12 </wgt>
<wgt id='1330'> +1.2556238e-12 </wgt>
<wgt id='1331'> +1.2956489e-12 </wgt>
<wgt id='1332'> +1.3011513e-12 </wgt>
<wgt id='1333'> +1.2667338e-12 </wgt>
<wgt id='1334'> +1.2756937e-12 </wgt>
<wgt id='1335'> +1.2926233e-12 </wgt>
<wgt id='1336'> +1.2794633e-12 </wgt>
<wgt id='1337'> +1.2745457e-12 </wgt>
<wgt id='1338'> +1.2811161e-12 </wgt>
<wgt id='1339'> +1.2803733e-12 </wgt>
<wgt id='1340'> +1.2570808e-12 </wgt>
<wgt id='1341'> +1.2621468e-12 </wgt>
<wgt id='1342'> +1.2516533e-12 </wgt>
<wgt id='1343'> +1.2519016e-12 </wgt>
<wgt id='1344'> +1.2605726e-12 </wgt>
<wgt id='1345'> +1.2580609e-12 </wgt>
<wgt id='1346'> +1.2560905e-12 </wgt>
<wgt id='1347'> +1.2515043e-12 </wgt>
<wgt id='1348'> +1.2633125e-12 </wgt>
<wgt id='1349'> +1.2615908e-12 </wgt>
<wgt id='1350'> +1.2526517e-12 </wgt>
<wgt id='1351'> +1.2602808e-12 </wgt>
<wgt id='1352'> +1.2500376e-12 </wgt>
<wgt id='1353'> +1.2556121e-12 </wgt>
<wgt id='1354'> +1.2596851e-12 </wgt>
<wgt id='1355'> +1.2547428e-12 </wgt>
<wgt id='1356'> +1.2583628e-12 </wgt>
<wgt id='1357'> +1.2570231e-12 </wgt>
<wgt id='1358'> +1.2573208e-12 </wgt>
<wgt id='1359'> +1.2690010e-12 </wgt>
<wgt id='1360'> +1.2468019e-12 </wgt>
<wgt id='1361'> +1.2556152e-12 </wgt>
<wgt id='1362'> +1.2591788e-12 </wgt>
<wgt id='1363'> +1.2554468e-12 </wgt>
<wgt id='1364'> +1.2586140e-12 </wgt>
<wgt id='1365'> +1.2456352e-12 </wgt>
<wgt id='1366'> +1.2624434e-12 </wgt>
<wgt id='1367'> +1.2629267e-12 </wgt>
<wgt id='1368'> +1.2568152e-12 </wgt>
<wgt id='1369'> +1.2648772e-12 </wgt>
<wgt id='1370'> +1.2477167e-12 </wgt>
<wgt id='1371'> +1.2623727e-12 </wgt>
<wgt id='1372'> +1.2501112e-12 </wgt>
<wgt id='1373'> +1.2562894e-12 </wgt>
<wgt id='1374'> +1.2575539e-12 </wgt>
<wgt id='1375'> +1.2547570e-12 </wgt>
<wgt id='1376'> +1.2666577e-12 </wgt>
<wgt id='1377'> +1.2566781e-12 </wgt>
<wgt id='1378'> +1.2596340e-12 </wgt>
<wgt id='1379'> +1.2574056e-12 </wgt>
<wgt id='1380'> +1.2565161e-12 </wgt>
<wgt id='1381'> +1.2307219e-12 </wgt>
<wgt id='1382'> +1.2711916e-12 </wgt>
<wgt id='1383'> +1.2783408e-12 </wgt>
<wgt id='1384'> +1.2403644e-12 </wgt>
<wgt id='1385'> +1.2518417e-12 </wgt>
<wgt id='1386'> +1.2687971e-12 </wgt>
<wgt id='1387'> +1.2555888e-12 </wgt>
<wgt id='1388'> +1.2493337e-12 </wgt>
<wgt id='1389'> +1.2570677e-12 </wgt>
<wgt id='1390'> +1.2566539e-12 </wgt>
<wgt id='1391'> +1.2355833e-12 </wgt>
<wgt id='1392'> +1.2040185e-12 </wgt>
<wgt id='1393'> +1.2138563e-12 </wgt>
<wgt id='1394'> +1.2244634e-12 </wgt>
<wgt id='1395'> +1.2436588e-12 </wgt>
<wgt id='1396'> +1.2348982e-12 </wgt>
<wgt id='1397'> +1.2024226e-12 </wgt>
<wgt id='1398'> +1.2092866e-12 </wgt>
<wgt id='1399'> +1.2155541e-12 </wgt>
<wgt id='1400'> +1.2216758e-12 </wgt>
<wgt id='1401'> +1.2283032e-12 </wgt>
<wgt id='1402'> +1.2403187e-12 </wgt>
<wgt id='1403'> +1.2462760e-12 </wgt>
<wgt id='1404'> +1.2515341e-12 </wgt>
<wgt id='1405'> +1.2348982e-12 </wgt>
<wgt id='1406'> +1.2308367e-12 </wgt>
<wgt id='1407'> +1.2331250e-12 </wgt>
<wgt id='1408'> +1.2366136e-12 </wgt>
<wgt id='1409'> +1.2378754e-12 </wgt>
<wgt id='1410'> +1.2635408e-12 </wgt>
<wgt id='1411'> +1.2665698e-12 </wgt>
<wgt id='1412'> +1.2595756e-12 </wgt>
<wgt id='1413'> +1.2703736e-12 </wgt>
<wgt id='1414'> +1.2566467e-12 </wgt>
<wgt id='1415'> +1.2580197e-12 </wgt>
<wgt id='1416'> +1.2657641e-12 </wgt>
<wgt id='1417'> +1.2555836e-12 </wgt>
<wgt id='1418'> +1.2715227e-12 </wgt>
<wgt id='1419'> +1.2649789e-12 </wgt>
<wgt id='1420'> +1.2620647e-12 </wgt>
<wgt id='1421'> +1.2516469e-12 </wgt>
<wgt id='1422'> +1.2686314e-12 </wgt>
<wgt id='1423'> +1.2632566e-12 </wgt>
<wgt id='1424'> +1.2638329e-12 </wgt>
<wgt id='1425'> +1.2601186e-12 </wgt>
<wgt id='1426'> +1.2671466e-12 </wgt>
<wgt id='1427'> +1.2694415e-12 </wgt>
<wgt id='1428'> +1.2600054e-12 </wgt>
<wgt id='1429'> +1.2564176e-12 </wgt>
<wgt id='1430'> +1.2730218e-12 </wgt>
<wgt id='1431'> +1.2697330e-12 </wgt>
<wgt id='1432'> +1.2591007e-12 </wgt>
<wgt id='1433'> +1.2710797e-12 </wgt>
<wgt id='1434'> +1.2549686e-12 </wgt>
<wgt id='1435'> +1.2658102e-12 </wgt>
<wgt id='1436'> +1.2579551e-12 </wgt>
<wgt id='1437'> +1.2702480e-12 </wgt>
<wgt id='1438'> +1.2623614e-12 </wgt>
<wgt id='1439'> +1.2570290e-12 </wgt>
<wgt id='1440'> +1.2782887e-12 </wgt>
<wgt id='1441'> +1.2648847e-12 </wgt>
<wgt id='1442'> +1.2612684e-12 </wgt>
<wgt id='1443'> +1.2609002e-12 </wgt>
<wgt id='1444'> +1.2700290e-12 </wgt>
<wgt id='1445'> +1.2741810e-12 </wgt>
<wgt id='1446'> +1.2599213e-12 </wgt>
<wgt id='1447'> +1.2645560e-12 </wgt>
<wgt id='1448'> +1.2643467e-12 </wgt>
<wgt id='1449'> +1.2645742e-12 </wgt>
<wgt id='1450'> +1.2624967e-12 </wgt>
<wgt id='1451'> +1.2730042e-12 </wgt>
<wgt id='1452'> +1.2368276e-12 </wgt>
<wgt id='1453'> +1.2657840e-12 </wgt>
<wgt id='1454'> +1.2495945e-12 </wgt>
<wgt id='1455'> +1.2476664e-12 </wgt>
<wgt id='1456'> +1.2719219e-12 </wgt>
<wgt id='1457'> +1.2716436e-12 </wgt>
<wgt id='1458'> +1.2599144e-12 </wgt>
<wgt id='1459'> +1.2664063e-12 </wgt>
<wgt id='1460'> +1.2595127e-12 </wgt>
<wgt id='1461'> +1.2635408e-12 </wgt>
<wgt id='1462'> +1.2553354e-12 </wgt>
<wgt id='1463'> +1.2733410e-12 </wgt>
<wgt id='1464'> +1.2645932e-12 </wgt>
<wgt id='1465'> +1.2392724e-12 </wgt>
<wgt id='1466'> +1.2446807e-12 </wgt>
<wgt id='1467'> +1.2502495e-12 </wgt>
<wgt id='1468'> +1.2546310e-12 </wgt>
<wgt id='1469'> +1.2597154e-12 </wgt>
<wgt id='1470'> +1.2698518e-12 </wgt>
<wgt id='1471'> +1.2737498e-12 </wgt>
<wgt id='1472'> +1.2785208e-12 </wgt>
<wgt id='1473'> +1.2645932e-12 </wgt>
<wgt id='1474'> +1.2597322e-12 </wgt>
<wgt id='1475'> +1.2615320e-12 </wgt>
<wgt id='1476'> +1.2665778e-12 </wgt>
<wgt id='1477'> +1.2684979e-12 </wgt>
<wgt id='1478'> +1.2007488e-12 </wgt>
<wgt id='1479'> +1.1998839e-12 </wgt>
<wgt id='1480'> +1.2343229e-12 </wgt>
<wgt id='1481'> +1.1916138e-12 </wgt>
<wgt id='1482'> +1.2023027e-12 </wgt>
<wgt id='1483'> +1.1973308e-12 </wgt>
<wgt id='1484'> +1.2021488e-12 </wgt>
<wgt id='1485'> +1.2050571e-12 </wgt>
<wgt id='1486'> +1.2004963e-12 </wgt>
<wgt id='1487'> +1.1967225e-12 </wgt>
<wgt id='1488'> +1.1971848e-12 </wgt>
<wgt id='1489'> +1.2261040e-12 </wgt>
<wgt id='1490'> +1.2004226e-12 </wgt>
<wgt id='1491'> +1.2016588e-12 </wgt>
<wgt id='1492'> +1.2003897e-12 </wgt>
<wgt id='1493'> +1.1894589e-12 </wgt>
<wgt id='1494'> +1.2038768e-12 </wgt>
<wgt id='1495'> +1.2054773e-12 </wgt>
<wgt id='1496'> +1.2016967e-12 </wgt>
<wgt id='1497'> +1.2037554e-12 </wgt>
<wgt id='1498'> +1.1996151e-12 </wgt>
<wgt id='1499'> +1.2031134e-12 </wgt>
<wgt id='1500'> +1.1991939e-12 </wgt>
<wgt id='1501'> +1.2012598e-12 </wgt>
<wgt id='1502'> +1.2025808e-12 </wgt>
<wgt id='1503'> +1.2010624e-12 </wgt>
<wgt id='1504'> +1.2012377e-12 </wgt>
<wgt id='1505'> +1.2002680e-12 </wgt>
<wgt id='1506'> +1.2011590e-12 </wgt>
<wgt id='1507'> +1.1991586e-12 </wgt>
<wgt id='1508'> +1.2062994e-12 </wgt>
<wgt id='1509'> +1.2920901e-12 </wgt>
<wgt id='1510'> +1.2902306e-12 </wgt>
<wgt id='1511'> +1.2946480e-12 </wgt>
<wgt id='1512'> +1.2946662e-12 </wgt>
<wgt id='1513'> +1.2988971e-12 </wgt>
<wgt id='1514'> +1.2880820e-12 </wgt>
<wgt id='1515'> +1.2840886e-12 </wgt>
<wgt id='1516'> +1.2879764e-12 </wgt>
<wgt id='1517'> +1.2850912e-12 </wgt>
<wgt id='1518'> +1.2942703e-12 </wgt>
<wgt id='1519'> +1.2864876e-12 </wgt>
<wgt id='1520'> +1.2883728e-12 </wgt>
<wgt id='1521'> +1.3000029e-12 </wgt>
<wgt id='1522'> +1.2962880e-12 </wgt>
<wgt id='1523'> +1.2905840e-12 </wgt>
<wgt id='1524'> +1.3020801e-12 </wgt>
<wgt id='1525'> +1.2936238e-12 </wgt>
<wgt id='1526'> +1.2865419e-12 </wgt>
<wgt id='1527'> +1.2951683e-12 </wgt>
<wgt id='1528'> +1.2850245e-12 </wgt>
<wgt id='1529'> +1.2937197e-12 </wgt>
<wgt id='1530'> +1.2923233e-12 </wgt>
<wgt id='1531'> +1.2933021e-12 </wgt>
<wgt id='1532'> +1.2935674e-12 </wgt>
<wgt id='1533'> +1.3047067e-12 </wgt>
<wgt id='1534'> +1.2913951e-12 </wgt>
<wgt id='1535'> +1.2924416e-12 </wgt>
<wgt id='1536'> +1.2922606e-12 </wgt>
<wgt id='1537'> +1.2943838e-12 </wgt>
<wgt id='1538'> +1.2913190e-12 </wgt>
<wgt id='1539'> +1.2926669e-12 </wgt>
<wgt id='1540'> +1.2916611e-12 </wgt>
<wgt id='1541'> +1.2921599e-12 </wgt>
<wgt id='1542'> +1.2933930e-12 </wgt>
<wgt id='1543'> +1.2909730e-12 </wgt>
<wgt id='1544'> +1.2902767e-12 </wgt>
<wgt id='1545'> +1.2943078e-12 </wgt>
<wgt id='1546'> +1.2940730e-12 </wgt>
<wgt id='1547'> +1.2925947e-12 </wgt>
<wgt id='1548'> +1.2903420e-12 </wgt>
<wgt id='1549'> +1.2927714e-12 </wgt>
<wgt id='1550'> +1.2907657e-12 </wgt>
<wgt id='1551'> +1.2902574e-12 </wgt>
<wgt id='1552'> +1.2915165e-12 </wgt>
<wgt id='1553'> +1.2942709e-12 </wgt>
<wgt id='1554'> +1.2923746e-12 </wgt>
<wgt id='1555'> +1.2929996e-12 </wgt>
<wgt id='1556'> +1.2924007e-12 </wgt>
<wgt id='1557'> +1.2919845e-12 </wgt>
<wgt id='1558'> +1.2911662e-12 </wgt>
<wgt id='1559'> +1.2925311e-12 </wgt>
<wgt id='1560'> +1.2911392e-12 </wgt>
<wgt id='1561'> +1.2927365e-12 </wgt>
<wgt id='1562'> +1.2921064e-12 </wgt>
<wgt id='1563'> +1.2914734e-12 </wgt>
<wgt id='1564'> +1.2928284e-12 </wgt>
<wgt id='1565'> +1.2915862e-12 </wgt>
<wgt id='1566'> +1.2933515e-12 </wgt>
<wgt id='1567'> +1.2929726e-12 </wgt>
<wgt id='1568'> +1.2917179e-12 </wgt>
<wgt id='1569'> +1.2917032e-12 </wgt>
<wgt id='1570'> +1.2928165e-12 </wgt>
<wgt id='1571'> +1.2918039e-12 </wgt>
<wgt id='1572'> +1.2923305e-12 </wgt>
<wgt id='1573'> +1.2905307e-12 </wgt>
<wgt id='1574'> +1.2916948e-12 </wgt>
<wgt id='1575'> +1.2927515e-12 </wgt>
<wgt id='1576'> +1.2918158e-12 </wgt>
<wgt id='1577'> +1.2912340e-12 </wgt>
<wgt id='1578'> +1.2922545e-12 </wgt>
<wgt id='1579'> +1.2922737e-12 </wgt>
<wgt id='1580'> +1.2923620e-12 </wgt>
<wgt id='1581'> +1.2922313e-12 </wgt>
<wgt id='1582'> +1.2916297e-12 </wgt>
<wgt id='1583'> +1.2918020e-12 </wgt>
<wgt id='1584'> +1.2926130e-12 </wgt>
<wgt id='1585'> +1.2923865e-12 </wgt>
<wgt id='1586'> +1.2926754e-12 </wgt>
<wgt id='1587'> +1.2927317e-12 </wgt>
<wgt id='1588'> +1.2915884e-12 </wgt>
<wgt id='1589'> +1.2921247e-12 </wgt>
<wgt id='1590'> +1.2923294e-12 </wgt>
<wgt id='1591'> +1.2924747e-12 </wgt>
<wgt id='1592'> +1.2923290e-12 </wgt>
<wgt id='1593'> +1.2912954e-12 </wgt>
<wgt id='1594'> +1.2922351e-12 </wgt>
<wgt id='1595'> +1.2914966e-12 </wgt>
<wgt id='1596'> +1.2922212e-12 </wgt>
<wgt id='1597'> +1.2920623e-12 </wgt>
<wgt id='1598'> +1.2921494e-12 </wgt>
<wgt id='1599'> +1.2920663e-12 </wgt>
<wgt id='1600'> +1.2922436e-12 </wgt>
<wgt id='1601'> +1.2921540e-12 </wgt>
<wgt id='1602'> +1.2916562e-12 </wgt>
<wgt id='1603'> +1.2918885e-12 </wgt>
<wgt id='1604'> +1.2923756e-12 </wgt>
<wgt id='1605'> +1.2924550e-12 </wgt>
<wgt id='1606'> +1.2921577e-12 </wgt>
<wgt id='1607'> +1.2923191e-12 </wgt>
<wgt id='1608'> +1.2922487e-12 </wgt>
<wgt id='1609'> +1.2923354e-12 </wgt>
<wgt id='1610'> +1.2761257e-12 </wgt>
<wgt id='1611'> +1.3063636e-12 </wgt>
<wgt id='1612'> +1.4978004e-12 </wgt>
<wgt id='1613'> +1.5046264e-12 </wgt>
<wgt id='1614'> +1.5272258e-12 </wgt>
<wgt id='1615'> +1.4741825e-12 </wgt>
<wgt id='1616'> +1.5840172e-12 </wgt>
<wgt id='1617'> +1.5258089e-12 </wgt>
<wgt id='1618'> +1.4875026e-12 </wgt>
<wgt id='1619'> +1.5180524e-12 </wgt>
<wgt id='1620'> +1.4932718e-12 </wgt>
<wgt id='1621'> +1.4700545e-12 </wgt>
<wgt id='1622'> +1.4690344e-12 </wgt>
<wgt id='1623'> +1.5393042e-12 </wgt>
<wgt id='1624'> +1.4602811e-12 </wgt>
<wgt id='1625'> +1.4913176e-12 </wgt>
<wgt id='1626'> +1.4618101e-12 </wgt>
<wgt id='1627'> +1.4801411e-12 </wgt>
<wgt id='1628'> +1.5150754e-12 </wgt>
<wgt id='1629'> +1.4987057e-12 </wgt>
<wgt id='1630'> +1.5238819e-12 </wgt>
<wgt id='1631'> +1.4830102e-12 </wgt>
<wgt id='1632'> +1.4799111e-12 </wgt>
<wgt id='1633'> +1.4731638e-12 </wgt>
<wgt id='1634'> +1.4635125e-12 </wgt>
<wgt id='1635'> +1.5082008e-12 </wgt>
<wgt id='1636'> +1.5292085e-12 </wgt>
<wgt id='1637'> +1.4743263e-12 </wgt>
<wgt id='1638'> +1.5014134e-12 </wgt>
<wgt id='1639'> +1.5433118e-12 </wgt>
<wgt id='1640'> +1.5105306e-12 </wgt>
<wgt id='1641'> +1.4966300e-12 </wgt>
<wgt id='1642'> +1.4774761e-12 </wgt>
<wgt id='1643'> +1.5203649e-12 </wgt>
<wgt id='1644'> +1.4324701e-12 </wgt>
<wgt id='1645'> +1.4812259e-12 </wgt>
<wgt id='1646'> +1.5315263e-12 </wgt>
<wgt id='1647'> +1.5282961e-12 </wgt>
<wgt id='1648'> +1.5029078e-12 </wgt>
<wgt id='1649'> +1.4976945e-12 </wgt>
<wgt id='1650'> +1.4898932e-12 </wgt>
<wgt id='1651'> +1.4799757e-12 </wgt>
<wgt id='1652'> +1.4975894e-12 </wgt>
<wgt id='1653'> +1.5373645e-12 </wgt>
<wgt id='1654'> +1.5160127e-12 </wgt>
<wgt id='1655'> +1.4793777e-12 </wgt>
<wgt id='1656'> +1.4651474e-12 </wgt>
<wgt id='1657'> +1.4961641e-12 </wgt>
<wgt id='1658'> +1.4868204e-12 </wgt>
<wgt id='1659'> +1.4602811e-12 </wgt>
<wgt id='1660'> +1.4734082e-12 </wgt>
<wgt id='1661'> +1.4720491e-12 </wgt>
<wgt id='1662'> +1.4437643e-12 </wgt>
<wgt id='1663'> +1.5000248e-12 </wgt>
<wgt id='1664'> +1.5025292e-12 </wgt>
<wgt id='1665'> +1.4847357e-12 </wgt>
<wgt id='1666'> +1.4795514e-12 </wgt>
<wgt id='1667'> +1.5089416e-12 </wgt>
<wgt id='1668'> +1.5514501e-12 </wgt>
<wgt id='1669'> +1.4760434e-12 </wgt>
<wgt id='1670'> +1.5085937e-12 </wgt>
<wgt id='1671'> +1.4707573e-12 </wgt>
<wgt id='1672'> +1.4740704e-12 </wgt>
<wgt id='1673'> +1.5540040e-12 </wgt>
<wgt id='1674'> +1.5358963e-12 </wgt>
<wgt id='1675'> +1.4908908e-12 </wgt>
<wgt id='1676'> +1.5176960e-12 </wgt>
<wgt id='1677'> +1.4944281e-12 </wgt>
<wgt id='1678'> +1.5074561e-12 </wgt>
<wgt id='1679'> +1.5537621e-12 </wgt>
<wgt id='1680'> +1.5278596e-12 </wgt>
<wgt id='1681'> +1.5033975e-12 </wgt>
<wgt id='1682'> +1.4666753e-12 </wgt>
<wgt id='1683'> +1.5095648e-12 </wgt>
<wgt id='1684'> +1.4297196e-12 </wgt>
<wgt id='1685'> +1.4893733e-12 </wgt>
<wgt id='1686'> +1.4834416e-12 </wgt>
<wgt id='1687'> +1.5039073e-12 </wgt>
<wgt id='1688'> +1.5126377e-12 </wgt>
<wgt id='1689'> +1.4705355e-12 </wgt>
<wgt id='1690'> +1.5016511e-12 </wgt>
<wgt id='1691'> +1.5389478e-12 </wgt>
<wgt id='1692'> +1.5146723e-12 </wgt>
<wgt id='1693'> +1.4787230e-12 </wgt>
<wgt id='1694'> +1.3923879e-12 </wgt>
<wgt id='1695'> +1.4681067e-12 </wgt>
<wgt id='1696'> +1.5560588e-12 </wgt>
<wgt id='1697'> +1.5807530e-12 </wgt>
<wgt id='1698'> +1.4880218e-12 </wgt>
<wgt id='1699'> +1.5229133e-12 </wgt>
<wgt id='1700'> +1.4937128e-12 </wgt>
<wgt id='1701'> +1.5126802e-12 </wgt>
<wgt id='1702'> +1.5248680e-12 </wgt>
<wgt id='1703'> +1.4868593e-12 </wgt>
<wgt id='1704'> +1.4949957e-12 </wgt>
<wgt id='1705'> +1.4950169e-12 </wgt>
<wgt id='1706'> +1.5013174e-12 </wgt>
<wgt id='1707'> +1.4760345e-12 </wgt>
<wgt id='1708'> +1.4950274e-12 </wgt>
<wgt id='1709'> +1.5068599e-12 </wgt>
<wgt id='1710'> +1.5020106e-12 </wgt>
<wgt id='1711'> +1.5112515e-12 </wgt>
<wgt id='1712'> +1.4727707e-12 </wgt>
<wgt id='1713'> +1.2165843e-12 </wgt>
<wgt id='1714'> +1.1882631e-12 </wgt>
<wgt id='1715'> +1.2347691e-12 </wgt>
<wgt id='1716'> +1.2267468e-12 </wgt>
<wgt id='1717'> +1.2340459e-12 </wgt>
<wgt id='1718'> +1.1253762e-12 </wgt>
<wgt id='1719'> +1.1681563e-12 </wgt>
<wgt id='1720'> +1.2406330e-12 </wgt>
<wgt id='1721'> +1.2221963e-12 </wgt>
<wgt id='1722'> +1.2122662e-12 </wgt>
<wgt id='1723'> +1.1677651e-12 </wgt>
<wgt id='1724'> +1.1507325e-12 </wgt>
<wgt id='1725'> +1.2037305e-12 </wgt>
<wgt id='1726'> +1.2598410e-12 </wgt>
<wgt id='1727'> +1.1752994e-12 </wgt>
<wgt id='1728'> +1.2169539e-12 </wgt>
<wgt id='1729'> +1.2116728e-12 </wgt>
<wgt id='1730'> +1.1887487e-12 </wgt>
<wgt id='1731'> +1.1736929e-12 </wgt>
<wgt id='1732'> +1.2429795e-12 </wgt>
<wgt id='1733'> +1.2407611e-12 </wgt>
<wgt id='1734'> +1.2543474e-12 </wgt>
<wgt id='1735'> +1.2301478e-12 </wgt>
<wgt id='1736'> +1.2997165e-12 </wgt>
<wgt id='1737'> +1.1975079e-12 </wgt>
<wgt id='1738'> +1.2354457e-12 </wgt>
<wgt id='1739'> +1.2245036e-12 </wgt>
<wgt id='1740'> +1.1995490e-12 </wgt>
<wgt id='1741'> +1.1953952e-12 </wgt>
<wgt id='1742'> +1.2077654e-12 </wgt>
<wgt id='1743'> +1.2494905e-12 </wgt>
<wgt id='1744'> +1.2621782e-12 </wgt>
<wgt id='1745'> +1.1375628e-12 </wgt>
<wgt id='1746'> +1.2615748e-12 </wgt>
<wgt id='1747'> +1.1951449e-12 </wgt>
<wgt id='1748'> +1.2354910e-12 </wgt>
<wgt id='1749'> +1.2539600e-12 </wgt>
<wgt id='1750'> +1.2319879e-12 </wgt>
<wgt id='1751'> +1.1705693e-12 </wgt>
<wgt id='1752'> +1.2011197e-12 </wgt>
<wgt id='1753'> +1.2441288e-12 </wgt>
<wgt id='1754'> +1.2383258e-12 </wgt>
<wgt id='1755'> +1.2372087e-12 </wgt>
<wgt id='1756'> +1.2285148e-12 </wgt>
<wgt id='1757'> +1.2116076e-12 </wgt>
<wgt id='1758'> +1.2493006e-12 </wgt>
<wgt id='1759'> +1.2039945e-12 </wgt>
<wgt id='1760'> +1.2042135e-12 </wgt>
<wgt id='1761'> +1.1938044e-12 </wgt>
<wgt id='1762'> +1.2008849e-12 </wgt>
<wgt id='1763'> +1.2450824e-12 </wgt>
<wgt id='1764'> +1.2382286e-12 </wgt>
<wgt id='1765'> +1.2113480e-12 </wgt>
<wgt id='1766'> +1.1894289e-12 </wgt>
<wgt id='1767'> +1.2242038e-12 </wgt>
<wgt id='1768'> +1.2188961e-12 </wgt>
<wgt id='1769'> +1.1834790e-12 </wgt>
<wgt id='1770'> +1.2933158e-12 </wgt>
<wgt id='1771'> +1.2235538e-12 </wgt>
<wgt id='1772'> +1.2544107e-12 </wgt>
<wgt id='1773'> +1.2346485e-12 </wgt>
<wgt id='1774'> +1.2398598e-12 </wgt>
<wgt id='1775'> +1.2239329e-12 </wgt>
<wgt id='1776'> +1.1556247e-12 </wgt>
<wgt id='1777'> +1.2064714e-12 </wgt>
<wgt id='1778'> +1.2095465e-12 </wgt>
<wgt id='1779'> +1.2267054e-12 </wgt>
<wgt id='1780'> +1.2857018e-12 </wgt>
<wgt id='1781'> +1.2269530e-12 </wgt>
<wgt id='1782'> +1.1771736e-12 </wgt>
<wgt id='1783'> +1.2168810e-12 </wgt>
<wgt id='1784'> +1.2350973e-12 </wgt>
<wgt id='1785'> +1.1512759e-12 </wgt>
<wgt id='1786'> +1.1079621e-12 </wgt>
<wgt id='1787'> +1.1975562e-12 </wgt>
<wgt id='1788'> +1.2119710e-12 </wgt>
<wgt id='1789'> +1.1146191e-12 </wgt>
<wgt id='1790'> +1.1994086e-12 </wgt>
<wgt id='1791'> +1.2592892e-12 </wgt>
<wgt id='1792'> +1.1974466e-12 </wgt>
<wgt id='1793'> +1.2605123e-12 </wgt>
<wgt id='1794'> +1.2287565e-12 </wgt>
<wgt id='1795'> +1.2120961e-12 </wgt>
<wgt id='1796'> +1.2249537e-12 </wgt>
<wgt id='1797'> +1.2329034e-12 </wgt>
<wgt id='1798'> +1.1915033e-12 </wgt>
<wgt id='1799'> +1.2104084e-12 </wgt>
<wgt id='1800'> +1.2141009e-12 </wgt>
<wgt id='1801'> +1.2341324e-12 </wgt>
<wgt id='1802'> +1.2080882e-12 </wgt>
<wgt id='1803'> +1.2210727e-12 </wgt>
<wgt id='1804'> +1.2335869e-12 </wgt>
<wgt id='1805'> +1.2303475e-12 </wgt>
<wgt id='1806'> +1.2082920e-12 </wgt>
<wgt id='1807'> +1.2336249e-12 </wgt>
<wgt id='1808'> +1.2156423e-12 </wgt>
<wgt id='1809'> +1.2159443e-12 </wgt>
<wgt id='1810'> +1.2400726e-12 </wgt>
<wgt id='1811'> +1.2632006e-12 </wgt>
<wgt id='1812'> +1.2730183e-12 </wgt>
<wgt id='1813'> +1.2180460e-12 </wgt>
<wgt id='1814'> +1.2508722e-12 </wgt>
<wgt id='1815'> +1.4085692e-12 </wgt>
<wgt id='1816'> +1.2165843e-12 </wgt>
<wgt id='1817'> +1.1882631e-12 </wgt>
<wgt id='1818'> +1.2347691e-12 </wgt>
<wgt id='1819'> +1.2267468e-12 </wgt>
<wgt id='1820'> +1.2340459e-12 </wgt>
<wgt id='1821'> +1.1253762e-12 </wgt>
<wgt id='1822'> +1.1681563e-12 </wgt>
<wgt id='1823'> +1.2406330e-12 </wgt>
<wgt id='1824'> +1.2221963e-12 </wgt>
<wgt id='1825'> +1.2122662e-12 </wgt>
<wgt id='1826'> +1.1677651e-12 </wgt>
<wgt id='1827'> +1.1507325e-12 </wgt>
<wgt id='1828'> +1.2037305e-12 </wgt>
<wgt id='1829'> +1.2598410e-12 </wgt>
<wgt id='1830'> +1.1752994e-12 </wgt>
<wgt id='1831'> +1.2169539e-12 </wgt>
<wgt id='1832'> +1.2116728e-12 </wgt>
<wgt id='1833'> +1.1887487e-12 </wgt>
<wgt id='1834'> +1.1736929e-12 </wgt>
<wgt id='1835'> +1.2429795e-12 </wgt>
<wgt id='1836'> +1.2407611e-12 </wgt>
<wgt id='1837'> +1.2543474e-12 </wgt>
<wgt id='1838'> +1.2301478e-12 </wgt>
<wgt id='1839'> +1.2997165e-12 </wgt>
<wgt id='1840'> +1.1975079e-12 </wgt>
<wgt id='1841'> +1.2354457e-12 </wgt>
<wgt id='1842'> +1.2245036e-12 </wgt>
<wgt id='1843'> +1.1995490e-12 </wgt>
<wgt id='1844'> +1.1953952e-12 </wgt>
<wgt id='1845'> +1.2077654e-12 </wgt>
<wgt id='1846'> +1.2494905e-12 </wgt>
<wgt id='1847'> +1.2621782e-12 </wgt>
<wgt id='1848'> +1.1375628e-12 </wgt>
<wgt id='1849'> +1.2615748e-12 </wgt>
<wgt id='1850'> +1.1951449e-12 </wgt>
<wgt id='1851'> +1.2354910e-12 </wgt>
<wgt id='1852'> +1.2539600e-12 </wgt>
<wgt id='1853'> +1.2319879e-12 </wgt>
<wgt id='1854'> +1.1705693e-12 </wgt>
<wgt id='1855'> +1.2011197e-12 </wgt>
<wgt id='1856'> +1.2441288e-12 </wgt>
<wgt id='1857'> +1.2383258e-12 </wgt>
<wgt id='1858'> +1.2372087e-12 </wgt>
<wgt id='1859'> +1.2285148e-12 </wgt>
<wgt id='1860'> +1.2116076e-12 </wgt>
<wgt id='1861'> +1.2493006e-12 </wgt>
<wgt id='1862'> +1.2039945e-12 </wgt>
<wgt id='1863'> +1.2042135e-12 </wgt>
<wgt id='1864'> +1.1938044e-12 </wgt>
<wgt id='1865'> +1.2008849e-12 </wgt>
<wgt id='1866'> +1.2450824e-12 </wgt>
<wgt id='1867'> +1.2382286e-12 </wgt>
<wgt id='1868'> +1.2113480e-12 </wgt>
<wgt id='1869'> +1.1894289e-12 </wgt>
<wgt id='1870'> +1.2242038e-12 </wgt>
<wgt id='1871'> +1.2188961e-12 </wgt>
<wgt id='1872'> +1.1834790e-12 </wgt>
<wgt id='1873'> +1.2933158e-12 </wgt>
<wgt id='1874'> +1.2235538e-12 </wgt>
<wgt id='1875'> +1.2544107e-12 </wgt>
<wgt id='1876'> +1.2346485e-12 </wgt>
<wgt id='1877'> +1.2398598e-12 </wgt>
<wgt id='1878'> +1.2239329e-12 </wgt>
<wgt id='1879'> +1.1556247e-12 </wgt>
<wgt id='1880'> +1.2064714e-12 </wgt>
<wgt id='1881'> +1.2095465e-12 </wgt>
<wgt id='1882'> +1.2267054e-12 </wgt>
<wgt id='1883'> +1.2857018e-12 </wgt>
<wgt id='1884'> +1.2269530e-12 </wgt>
<wgt id='1885'> +1.1771736e-12 </wgt>
<wgt id='1886'> +1.2168810e-12 </wgt>
<wgt id='1887'> +1.2350973e-12 </wgt>
<wgt id='1888'> +1.1512759e-12 </wgt>
<wgt id='1889'> +1.1079621e-12 </wgt>
<wgt id='1890'> +1.1975562e-12 </wgt>
<wgt id='1891'> +1.2119710e-12 </wgt>
<wgt id='1892'> +1.1146191e-12 </wgt>
<wgt id='1893'> +1.1994086e-12 </wgt>
<wgt id='1894'> +1.2592892e-12 </wgt>
<wgt id='1895'> +1.1974466e-12 </wgt>
<wgt id='1896'> +1.2605123e-12 </wgt>
<wgt id='1897'> +1.2287565e-12 </wgt>
<wgt id='1898'> +1.2120961e-12 </wgt>
<wgt id='1899'> +1.2249537e-12 </wgt>
<wgt id='1900'> +1.2329034e-12 </wgt>
<wgt id='1901'> +1.1915033e-12 </wgt>
<wgt id='1902'> +1.2104084e-12 </wgt>
<wgt id='1903'> +1.2141009e-12 </wgt>
<wgt id='1904'> +1.2341324e-12 </wgt>
<wgt id='1905'> +1.2080882e-12 </wgt>
<wgt id='1906'> +1.2210727e-12 </wgt>
<wgt id='1907'> +1.2335869e-12 </wgt>
<wgt id='1908'> +1.2303475e-12 </wgt>
<wgt id='1909'> +1.2082920e-12 </wgt>
<wgt id='1910'> +1.2336249e-12 </wgt>
<wgt id='1911'> +1.2156423e-12 </wgt>
<wgt id='1912'> +1.2159443e-12 </wgt>
<wgt id='1913'> +1.2400726e-12 </wgt>
<wgt id='1914'> +1.2632006e-12 </wgt>
<wgt id='1915'> +1.2730183e-12 </wgt>
<wgt id='1916'> +1.2180460e-12 </wgt>
<wgt id='1917'> +1.2091335e-12 </wgt>
<wgt id='1918'> +1.2257796e-12 </wgt>
<wgt id='1919'> +1.2632961e-12 </wgt>
</rwgt>
</event>
<event>
 9      1 +1.5607000e-12 5.66442200e+01 7.81860800e-03 1.28173500e-01
       21 -1    0    0  501  502 +0.0000000000e+00 +0.0000000000e+00 +1.0323854984e+01 1.0323854984e+01 0.0000000000e+00 0.0000e+00 -1.0000e+00
        2 -1    0    0  502    0 -0.0000000000e+00 -0.0000000000e+00 -7.7697908558e+01 7.7697908558e+01 0.0000000000e+00 0.0000e+00 -1.0000e+00
     1023  2    1    2    0    0 -2.0181511249e+00 +2.1652319171e+01 -1.2964491066e+01 2.9427426344e+01 1.4999984438e+01 0.0000e+00 0.0000e+00
  1000023  2    3    3    0    0 -2.5152005246e+00 +2.8565836745e+00 -1.5350462862e+00 6.8628758507e+00 5.5005812305e+00 0.0000e+00 0.0000e+00
        2  1    1    2  501    0 +2.0181511249e+00 -2.1652319171e+01 -5.4409562508e+01 5.8594337198e+01 0.0000000000e+00 0.0000e+00 -1.0000e+00
  1000022  1    4    4    0    0 -2.0121778614e+00 +2.2611903479e+00 -1.6435770941e+00 6.0715061722e+00 5.0000000000e+00 0.0000e+00 1.0000e+00
      -11  1    4    4    0    0 -1.7942273260e-01 +2.7337909040e-01 +5.7333733930e-02 3.3198804528e-01 5.1100000000e-04 0.0000e+00 1.0000e+00
       11  1    4    4    0    0 -3.2359993059e-01 +3.2201423627e-01 +5.1197073877e-02 4.5938163321e-01 5.1100000000e-04 0.0000e+00 -1.0000e+00
  1000022  1    3    3    0    0 +4.9704939978e-01 +1.8795735497e+01 -1.1429444780e+01 2.2564550493e+01 5.0000000000e+00 0.0000e+00 -1.0000e+00
<mgrwt>
<rscale>  1 0.56644221E+02</rscale>
<asrwt>0</asrwt>
<pdfrwt beam="1">  1       21 0.15882854E-02 0.56644221E+02</pdfrwt>
<pdfrwt beam="2">  1        2 0.11953525E-01 0.56644221E+02</pdfrwt>
<totfact> 0.97761570E+06</totfact>
</mgrwt>
<rwgt>
<wgt id='1001'> +1.5607000e-12 </wgt>
<wgt id='1002'> +1.5444440e-12 </wgt>
<wgt id='1003'> +1.5458187e-12 </wgt>
<wgt id='1004'> +1.4550887e-12 </wgt>
<wgt id='1005'> +1.5607000e-12 </wgt>
<wgt id='1006'> +1.3868779e-12 </wgt>
<wgt id='1007'> +1.3668616e-12 </wgt>
<wgt id='1008'> +1.3685308e-12 </wgt>
<wgt id='1009'> +1.2649080e-12 </wgt>
<wgt id='1010'> +1.3868779e-12 </wgt>
<wgt id='1011'> +1.7864716e-12 </wgt>
<wgt id='1012'> +1.7774279e-12 </wgt>
<wgt id='1013'> +1.7782347e-12 </wgt>
<wgt id='1014'> +1.7160937e-12 </wgt>
<wgt id='1015'> +1.7864716e-12 </wgt>
<wgt id='1016'> +1.7996177e-12 </wgt>
<wgt id='1017'> +1.7988801e-12 </wgt>
<wgt id='1018'> +1.7989962e-12 </wgt>
<wgt id='1019'> +1.7782347e-12 </wgt>
<wgt id='1020'> +1.7996177e-12 </wgt>
<wgt id='1021'> +1.5991863e-12 </wgt>
<wgt id='1022'> +1.5920424e-12 </wgt>
<wgt id='1023'> +1.5926717e-12 </wgt>
<wgt id='1024'> +1.5458187e-12 </wgt>
<wgt id='1025'> +1.5991863e-12 </wgt>
<wgt id='1026'> +2.0599513e-12 </wgt>
<wgt id='1027'> +2.0702465e-12 </wgt>
<wgt id='1028'> +2.0694777e-12 </wgt>
<wgt id='1029'> +2.0972037e-12 </wgt>
<wgt id='1030'> +2.0599513e-12 </wgt>
<wgt id='1031'> +1.2949066e-12 </wgt>
<wgt id='1032'> +1.2622317e-12 </wgt>
<wgt id='1033'> +1.2649080e-12 </wgt>
<wgt id='1034'> +1.1019249e-12 </wgt>
<wgt id='1035'> +1.2949066e-12 </wgt>
<wgt id='1036'> +1.1506871e-12 </wgt>
<wgt id='1037'> +1.1170985e-12 </wgt>
<wgt id='1038'> +1.1198374e-12 </wgt>
<wgt id='1039'> +9.5790291e-13 </wgt>
<wgt id='1040'> +1.1506871e-12 </wgt>
<wgt id='1041'> +1.4822284e-12 </wgt>
<wgt id='1042'> +1.4526431e-12 </wgt>
<wgt id='1043'> +1.4550887e-12 </wgt>
<wgt id='1044'> +1.2995816e-12 </wgt>
<wgt id='1045'> +1.4822284e-12 </wgt>
<wgt id='1046'> +1.5607000e-12 </wgt>
<wgt id='1047'> +1.6048395e-12 </wgt>
<wgt id='1048'> +1.5446634e-12 </wgt>
<wgt id='1049'> +1.5195142e-12 </wgt>
<wgt id='1050'> +1.5324543e-12 </wgt>
<wgt id='1051'> +1.5651370e-12 </wgt>
<wgt id='1052'> +1.5382402e-12 </wgt>
<wgt id='1053'> +1.5567874e-12 </wgt>
<wgt id='1054'> +1.5485880e-12 </wgt>
<wgt id='1055'> +1.5218558e-12 </wgt>
<wgt id='1056'> +1.5583399e-12 </wgt>
<wgt id='1057'> +1.5773070e-12 </wgt>
<wgt id='1058'> +1.5200682e-12 </wgt>
<wgt id='1059'> +1.5713193e-12 </wgt>
<wgt id='1060'> +1.5674250e-12 </wgt>
<wgt id='1061'> +1.5550897e-12 </wgt>
<wgt id='1062'> +1.5783246e-12 </wgt>
<wgt id='1063'> +1.5800181e-12 </wgt>
<wgt id='1064'> +1.5558441e-12 </wgt>
<wgt id='1065'> +1.5629945e-12 </wgt>
<wgt id='1066'> +1.5409339e-12 </wgt>
<wgt id='1067'> +1.5291225e-12 </wgt>
<wgt id='1068'> +1.5811434e-12 </wgt>
<wgt id='1069'> +1.5828275e-12 </wgt>
<wgt id='1070'> +1.5513568e-12 </wgt>
<wgt id='1071'> +1.5091212e-12 </wgt>
<wgt id='1072'> +1.5970455e-12 </wgt>
<wgt id='1073'> +1.5765731e-12 </wgt>
<wgt id='1074'> +1.5458081e-12 </wgt>
<wgt id='1075'> +1.5755306e-12 </wgt>
<wgt id='1076'> +1.5492008e-12 </wgt>
<wgt id='1077'> +1.5745223e-12 </wgt>
<wgt id='1078'> +1.5222230e-12 </wgt>
<wgt id='1079'> +1.5291774e-12 </wgt>
<wgt id='1080'> +1.5436940e-12 </wgt>
<wgt id='1081'> +1.5858787e-12 </wgt>
<wgt id='1082'> +1.5433141e-12 </wgt>
<wgt id='1083'> +1.5919416e-12 </wgt>
<wgt id='1084'> +1.5277321e-12 </wgt>
<wgt id='1085'> +1.5458899e-12 </wgt>
<wgt id='1086'> +1.5633915e-12 </wgt>
<wgt id='1087'> +1.5533521e-12 </wgt>
<wgt id='1088'> +1.5612787e-12 </wgt>
<wgt id='1089'> +1.5802012e-12 </wgt>
<wgt id='1090'> +1.5495597e-12 </wgt>
<wgt id='1091'> +1.5794447e-12 </wgt>
<wgt id='1092'> +1.5895794e-12 </wgt>
<wgt id='1093'> +1.5358354e-12 </wgt>
<wgt id='1094'> +1.5836389e-12 </wgt>
<wgt id='1095'> +1.5764814e-12 </wgt>
<wgt id='1096'> +1.6099290e-12 </wgt>
<wgt id='1097'> +1.5622450e-12 </wgt>
<wgt id='1098'> +1.5432949e-12 </wgt>
<wgt id='1099'> +1.5528956e-12 </wgt>
<wgt id='1100'> +1.5774975e-12 </wgt>
<wgt id='1101'> +1.5948300e-12 </wgt>
<wgt id='1102'> +1.5620441e-12 </wgt>
<wgt id='1103'> +1.6077815e-12 </wgt>
<wgt id='1104'> +1.5356790e-12 </wgt>
<wgt id='1105'> +1.5502655e-12 </wgt>
<wgt id='1106'> +1.5928010e-12 </wgt>
<wgt id='1107'> +1.5511159e-12 </wgt>
<wgt id='1108'> +1.5621528e-12 </wgt>
<wgt id='1109'> +1.5977267e-12 </wgt>
<wgt id='1110'> +1.5522569e-12 </wgt>
<wgt id='1111'> +1.5584964e-12 </wgt>
<wgt id='1112'> +1.5873131e-12 </wgt>
<wgt id='1113'> +1.6021179e-12 </wgt>
<wgt id='1114'> +1.5674838e-12 </wgt>
<wgt id='1115'> +1.5414719e-12 </wgt>
<wgt id='1116'> +1.5653837e-12 </wgt>
<wgt id='1117'> +1.5432789e-12 </wgt>
<wgt id='1118'> +1.6487157e-12 </wgt>
<wgt id='1119'> +1.5065056e-12 </wgt>
<wgt id='1120'> +1.5307912e-12 </wgt>
<wgt id='1121'> +1.5437556e-12 </wgt>
<wgt id='1122'> +1.5752272e-12 </wgt>
<wgt id='1123'> +1.5267480e-12 </wgt>
<wgt id='1124'> +1.5293347e-12 </wgt>
<wgt id='1125'> +1.5374103e-12 </wgt>
<wgt id='1126'> +1.5800867e-12 </wgt>
<wgt id='1127'> +1.5582599e-12 </wgt>
<wgt id='1128'> +1.5783246e-12 </wgt>
<wgt id='1129'> +1.5686484e-12 </wgt>
<wgt id='1130'> +1.5671259e-12 </wgt>
<wgt id='1131'> +1.5487941e-12 </wgt>
<wgt id='1132'> +1.5785011e-12 </wgt>
<wgt id='1133'> +1.5464156e-12 </wgt>
<wgt id='1134'> +1.5782843e-12 </wgt>
<wgt id='1135'> +1.5203876e-12 </wgt>
<wgt id='1136'> +1.5511905e-12 </wgt>
<wgt id='1137'> +1.5372857e-12 </wgt>
<wgt id='1138'> +1.5552907e-12 </wgt>
<wgt id='1139'> +1.5615609e-12 </wgt>
<wgt id='1140'> +1.5851993e-12 </wgt>
<wgt id='1141'> +1.5696806e-12 </wgt>
<wgt id='1142'> +1.5305472e-12 </wgt>
<wgt id='1143'> +1.5839080e-12 </wgt>
<wgt id='1144'> +1.5632933e-12 </wgt>
<wgt id='1145'> +1.5777770e-12 </wgt>
<wgt id='1146'> +1.5760239e-12 </wgt>
<wgt id='1147'> +1.2929620e-12 </wgt>
<wgt id='1148'> +1.3210386e-12 </wgt>
<wgt id='1149'> +1.3155949e-12 </wgt>
<wgt id='1150'> +1.3175856e-12 </wgt>
<wgt id='1151'> +1.4048678e-12 </wgt>
<wgt id='1152'> +1.7600283e-12 </wgt>
<wgt id='1153'> +1.7516263e-12 </wgt>
<wgt id='1154'> +1.7648549e-12 </wgt>
<wgt id='1155'> +1.7588958e-12 </wgt>
<wgt id='1156'> +1.7606426e-12 </wgt>
<wgt id='1157'> +1.7626953e-12 </wgt>
<wgt id='1158'> +1.7564262e-12 </wgt>
<wgt id='1159'> +1.7623396e-12 </wgt>
<wgt id='1160'> +1.7585394e-12 </wgt>
<wgt id='1161'> +1.7564334e-12 </wgt>
<wgt id='1162'> +1.7624715e-12 </wgt>
<wgt id='1163'> +1.7635010e-12 </wgt>
<wgt id='1164'> +1.7565847e-12 </wgt>
<wgt id='1165'> +1.7514727e-12 </wgt>
<wgt id='1166'> +1.7682274e-12 </wgt>
<wgt id='1167'> +1.7682851e-12 </wgt>
<wgt id='1168'> +1.7483327e-12 </wgt>
<wgt id='1169'> +1.7617830e-12 </wgt>
<wgt id='1170'> +1.7587194e-12 </wgt>
<wgt id='1171'> +1.7542118e-12 </wgt>
<wgt id='1172'> +1.7668871e-12 </wgt>
<wgt id='1173'> +1.7481372e-12 </wgt>
<wgt id='1174'> +1.7710600e-12 </wgt>
<wgt id='1175'> +1.7615231e-12 </wgt>
<wgt id='1176'> +1.7578920e-12 </wgt>
<wgt id='1177'> +1.7610781e-12 </wgt>
<wgt id='1178'> +1.7571581e-12 </wgt>
<wgt id='1179'> +1.7647047e-12 </wgt>
<wgt id='1180'> +1.7487519e-12 </wgt>
<wgt id='1181'> +1.7549964e-12 </wgt>
<wgt id='1182'> +1.7648443e-12 </wgt>
<wgt id='1183'> +1.7590606e-12 </wgt>
<wgt id='1184'> +1.7601070e-12 </wgt>
<wgt id='1185'> +1.7546098e-12 </wgt>
<wgt id='1186'> +1.7632861e-12 </wgt>
<wgt id='1187'> +1.7598146e-12 </wgt>
<wgt id='1188'> +1.7601021e-12 </wgt>
<wgt id='1189'> +1.7562203e-12 </wgt>
<wgt id='1190'> +1.7482033e-12 </wgt>
<wgt id='1191'> +1.7540424e-12 </wgt>
<wgt id='1192'> +1.7624781e-12 </wgt>
<wgt id='1193'> +1.3050632e-12 </wgt>
<wgt id='1194'> +1.3027047e-12 </wgt>
<wgt id='1195'> +1.3069884e-12 </wgt>
<wgt id='1196'> +1.3108477e-12 </wgt>
<wgt id='1197'> +1.2986633e-12 </wgt>
<wgt id='1198'> +1.3053324e-12 </wgt>
<wgt id='1199'> +1.3046815e-12 </wgt>
<wgt id='1200'> +1.3061043e-12 </wgt>
<wgt id='1201'> +1.3043991e-12 </wgt>
<wgt id='1202'> +1.3034682e-12 </wgt>
<wgt id='1203'> +1.3073525e-12 </wgt>
<wgt id='1204'> +1.2955372e-12 </wgt>
<wgt id='1205'> +1.3109165e-12 </wgt>
<wgt id='1206'> +1.3089371e-12 </wgt>
<wgt id='1207'> +1.2998527e-12 </wgt>
<wgt id='1208'> +1.2989831e-12 </wgt>
<wgt id='1209'> +1.3072461e-12 </wgt>
<wgt id='1210'> +1.3064371e-12 </wgt>
<wgt id='1211'> +1.2961327e-12 </wgt>
<wgt id='1212'> +1.3057996e-12 </wgt>
<wgt id='1213'> +1.3043407e-12 </wgt>
<wgt id='1214'> +1.2911000e-12 </wgt>
<wgt id='1215'> +1.3274558e-12 </wgt>
<wgt id='1216'> +1.3092235e-12 </wgt>
<wgt id='1217'> +1.3017664e-12 </wgt>
<wgt id='1218'> +1.3097577e-12 </wgt>
<wgt id='1219'> +1.3025653e-12 </wgt>
<wgt id='1220'> +1.3097543e-12 </wgt>
<wgt id='1221'> +1.3038246e-12 </wgt>
<wgt id='1222'> +1.3096338e-12 </wgt>
<wgt id='1223'> +1.2971436e-12 </wgt>
<wgt id='1224'> +1.3069032e-12 </wgt>
<wgt id='1225'> +1.3043492e-12 </wgt>
<wgt id='1226'> +1.3025027e-12 </wgt>
<wgt id='1227'> +1.3068915e-12 </wgt>
<wgt id='1228'> +1.2969285e-12 </wgt>
<wgt id='1229'> +1.3084205e-12 </wgt>
<wgt id='1230'> +1.2994659e-12 </wgt>
<wgt id='1231'> +1.3028996e-12 </wgt>
<wgt id='1232'> +1.3029076e-12 </wgt>
<wgt id='1233'> +1.3056179e-12 </wgt>
<wgt id='1234'> +1.3050632e-12 </wgt>
<wgt id='1235'> +1.2964463e-12 </wgt>
<wgt id='1236'> +1.2995659e-12 </wgt>
<wgt id='1237'> +1.3024739e-12 </wgt>
<wgt id='1238'> +1.3072750e-12 </wgt>
<wgt id='1239'> +1.3092588e-12 </wgt>
<wgt id='1240'> +1.3111733e-12 </wgt>
<wgt id='1241'> +1.2765922e-12 </wgt>
<wgt id='1242'> +1.2705947e-12 </wgt>
<wgt id='1243'> +1.2825503e-12 </wgt>
<wgt id='1244'> +1.2701205e-12 </wgt>
<wgt id='1245'> +1.2813152e-12 </wgt>
<wgt id='1246'> +1.2765679e-12 </wgt>
<wgt id='1247'> +1.2766372e-12 </wgt>
<wgt id='1248'> +1.2765053e-12 </wgt>
<wgt id='1249'> +1.2766649e-12 </wgt>
<wgt id='1250'> +1.2778711e-12 </wgt>
<wgt id='1251'> +1.2756654e-12 </wgt>
<wgt id='1252'> +1.2740613e-12 </wgt>
<wgt id='1253'> +1.2785581e-12 </wgt>
<wgt id='1254'> +1.2678272e-12 </wgt>
<wgt id='1255'> +1.2818326e-12 </wgt>
<wgt id='1256'> +1.2799250e-12 </wgt>
<wgt id='1257'> +1.2680611e-12 </wgt>
<wgt id='1258'> +1.2940565e-12 </wgt>
<wgt id='1259'> +1.2601150e-12 </wgt>
<wgt id='1260'> +1.2795581e-12 </wgt>
<wgt id='1261'> +1.2732770e-12 </wgt>
<wgt id='1262'> +1.2755768e-12 </wgt>
<wgt id='1263'> +1.2767141e-12 </wgt>
<wgt id='1264'> +1.2821263e-12 </wgt>
<wgt id='1265'> +1.2738109e-12 </wgt>
<wgt id='1266'> +1.2682893e-12 </wgt>
<wgt id='1267'> +1.2839473e-12 </wgt>
<wgt id='1268'> +1.2788115e-12 </wgt>
<wgt id='1269'> +1.2767970e-12 </wgt>
<wgt id='1270'> +1.2701205e-12 </wgt>
<wgt id='1271'> +1.2721605e-12 </wgt>
<wgt id='1272'> +1.2751648e-12 </wgt>
<wgt id='1273'> +1.2765181e-12 </wgt>
<wgt id='1274'> +1.2782701e-12 </wgt>
<wgt id='1275'> +1.2730908e-12 </wgt>
<wgt id='1276'> +1.2813228e-12 </wgt>
<wgt id='1277'> +1.2692009e-12 </wgt>
<wgt id='1278'> +1.2772273e-12 </wgt>
<wgt id='1279'> +1.2746027e-12 </wgt>
<wgt id='1280'> +1.2772943e-12 </wgt>
<wgt id='1281'> +1.2730711e-12 </wgt>
<wgt id='1282'> +1.2765922e-12 </wgt>
<wgt id='1283'> +1.2680550e-12 </wgt>
<wgt id='1284'> +1.2713324e-12 </wgt>
<wgt id='1285'> +1.2742302e-12 </wgt>
<wgt id='1286'> +1.2789400e-12 </wgt>
<wgt id='1287'> +1.2808537e-12 </wgt>
<wgt id='1288'> +1.2824109e-12 </wgt>
<wgt id='1289'> +1.3825866e-12 </wgt>
<wgt id='1290'> +1.3817047e-12 </wgt>
<wgt id='1291'> +1.3835821e-12 </wgt>
<wgt id='1292'> +1.3783970e-12 </wgt>
<wgt id='1293'> +1.3856088e-12 </wgt>
<wgt id='1294'> +1.3770807e-12 </wgt>
<wgt id='1295'> +1.3879750e-12 </wgt>
<wgt id='1296'> +1.3792601e-12 </wgt>
<wgt id='1297'> +1.3866622e-12 </wgt>
<wgt id='1298'> +1.3874661e-12 </wgt>
<wgt id='1299'> +1.3764735e-12 </wgt>
<wgt id='1300'> +1.3850688e-12 </wgt>
<wgt id='1301'> +1.3776256e-12 </wgt>
<wgt id='1302'> +1.3810433e-12 </wgt>
<wgt id='1303'> +1.3847760e-12 </wgt>
<wgt id='1304'> +1.3802301e-12 </wgt>
<wgt id='1305'> +1.3841660e-12 </wgt>
<wgt id='1306'> +1.3771198e-12 </wgt>
<wgt id='1307'> +1.3887929e-12 </wgt>
<wgt id='1308'> +1.3815104e-12 </wgt>
<wgt id='1309'> +1.3833815e-12 </wgt>
<wgt id='1310'> +1.3822688e-12 </wgt>
<wgt id='1311'> +1.3830718e-12 </wgt>
<wgt id='1312'> +1.3799164e-12 </wgt>
<wgt id='1313'> +1.3853029e-12 </wgt>
<wgt id='1314'> +1.3801921e-12 </wgt>
<wgt id='1315'> +1.3804788e-12 </wgt>
<wgt id='1316'> +1.3891711e-12 </wgt>
<wgt id='1317'> +1.3819991e-12 </wgt>
<wgt id='1318'> +1.3913784e-12 </wgt>
<wgt id='1319'> +1.3719537e-12 </wgt>
<wgt id='1320'> +1.3918574e-12 </wgt>
<wgt id='1321'> +1.3748885e-12 </wgt>
<wgt id='1322'> +1.3822144e-12 </wgt>
<wgt id='1323'> +1.3827587e-12 </wgt>
<wgt id='1324'> +1.3784594e-12 </wgt>
<wgt id='1325'> +1.3968829e-12 </wgt>
<wgt id='1326'> +1.3827409e-12 </wgt>
<wgt id='1327'> +1.3842956e-12 </wgt>
<wgt id='1328'> +1.3830179e-12 </wgt>
<wgt id='1329'> +1.3820415e-12 </wgt>
<wgt id='1330'> +1.3764625e-12 </wgt>
<wgt id='1331'> +1.3879161e-12 </wgt>
<wgt id='1332'> +1.4017865e-12 </wgt>
<wgt id='1333'> +1.3720807e-12 </wgt>
<wgt id='1334'> +1.3796938e-12 </wgt>
<wgt id='1335'> +1.3908241e-12 </wgt>
<wgt id='1336'> +1.3783454e-12 </wgt>
<wgt id='1337'> +1.3828255e-12 </wgt>
<wgt id='1338'> +1.3803857e-12 </wgt>
<wgt id='1339'> +1.3828728e-12 </wgt>
<wgt id='1340'> +1.3602711e-12 </wgt>
<wgt id='1341'> +1.3595022e-12 </wgt>
<wgt id='1342'> +1.3611713e-12 </wgt>
<wgt id='1343'> +1.3560136e-12 </wgt>
<wgt id='1344'> +1.3631815e-12 </wgt>
<wgt id='1345'> +1.3547323e-12 </wgt>
<wgt id='1346'> +1.3654997e-12 </wgt>
<wgt id='1347'> +1.3572338e-12 </wgt>
<wgt id='1348'> +1.3636384e-12 </wgt>
<wgt id='1349'> +1.3647933e-12 </wgt>
<wgt id='1350'> +1.3558258e-12 </wgt>
<wgt id='1351'> +1.3627319e-12 </wgt>
<wgt id='1352'> +1.3549585e-12 </wgt>
<wgt id='1353'> +1.3581331e-12 </wgt>
<wgt id='1354'> +1.3640702e-12 </wgt>
<wgt id='1355'> +1.3581319e-12 </wgt>
<wgt id='1356'> +1.3614594e-12 </wgt>
<wgt id='1357'> +1.3545248e-12 </wgt>
<wgt id='1358'> +1.3670935e-12 </wgt>
<wgt id='1359'> +1.3607511e-12 </wgt>
<wgt id='1360'> +1.3598809e-12 </wgt>
<wgt id='1361'> +1.3597982e-12 </wgt>
<wgt id='1362'> +1.3610622e-12 </wgt>
<wgt id='1363'> +1.3576131e-12 </wgt>
<wgt id='1364'> +1.3622696e-12 </wgt>
<wgt id='1365'> +1.3566373e-12 </wgt>
<wgt id='1366'> +1.3581116e-12 </wgt>
<wgt id='1367'> +1.3666224e-12 </wgt>
<wgt id='1368'> +1.3593624e-12 </wgt>
<wgt id='1369'> +1.3678349e-12 </wgt>
<wgt id='1370'> +1.3511336e-12 </wgt>
<wgt id='1371'> +1.3671991e-12 </wgt>
<wgt id='1372'> +1.3520902e-12 </wgt>
<wgt id='1373'> +1.3582530e-12 </wgt>
<wgt id='1374'> +1.3617054e-12 </wgt>
<wgt id='1375'> +1.3561081e-12 </wgt>
<wgt id='1376'> +1.3755203e-12 </wgt>
<wgt id='1377'> +1.3604050e-12 </wgt>
<wgt id='1378'> +1.3623178e-12 </wgt>
<wgt id='1379'> +1.3604723e-12 </wgt>
<wgt id='1380'> +1.3598967e-12 </wgt>
<wgt id='1381'> +1.3544635e-12 </wgt>
<wgt id='1382'> +1.3643135e-12 </wgt>
<wgt id='1383'> +1.3784594e-12 </wgt>
<wgt id='1384'> +1.3506222e-12 </wgt>
<wgt id='1385'> +1.3576705e-12 </wgt>
<wgt id='1386'> +1.3671413e-12 </wgt>
<wgt id='1387'> +1.3544584e-12 </wgt>
<wgt id='1388'> +1.3607643e-12 </wgt>
<wgt id='1389'> +1.3563763e-12 </wgt>
<wgt id='1390'> +1.3609618e-12 </wgt>
<wgt id='1391'> +1.3270174e-12 </wgt>
<wgt id='1392'> +1.2967125e-12 </wgt>
<wgt id='1393'> +1.3067533e-12 </wgt>
<wgt id='1394'> +1.3177003e-12 </wgt>
<wgt id='1395'> +1.3378332e-12 </wgt>
<wgt id='1396'> +1.3280640e-12 </wgt>
<wgt id='1397'> +1.2932086e-12 </wgt>
<wgt id='1398'> +1.3003432e-12 </wgt>
<wgt id='1399'> +1.3068148e-12 </wgt>
<wgt id='1400'> +1.3135561e-12 </wgt>
<wgt id='1401'> +1.3208737e-12 </wgt>
<wgt id='1402'> +1.3351063e-12 </wgt>
<wgt id='1403'> +1.3421520e-12 </wgt>
<wgt id='1404'> +1.3489895e-12 </wgt>
<wgt id='1405'> +1.3280640e-12 </wgt>
<wgt id='1406'> +1.3233784e-12 </wgt>
<wgt id='1407'> +1.3259833e-12 </wgt>
<wgt id='1408'> +1.3301038e-12 </wgt>
<wgt id='1409'> +1.3322822e-12 </wgt>
<wgt id='1410'> +1.2906862e-12 </wgt>
<wgt id='1411'> +1.2900808e-12 </wgt>
<wgt id='1412'> +1.2915476e-12 </wgt>
<wgt id='1413'> +1.2918926e-12 </wgt>
<wgt id='1414'> +1.2895326e-12 </wgt>
<wgt id='1415'> +1.2847658e-12 </wgt>
<wgt id='1416'> +1.2931262e-12 </wgt>
<wgt id='1417'> +1.2829838e-12 </wgt>
<wgt id='1418'> +1.2984405e-12 </wgt>
<wgt id='1419'> +1.2925769e-12 </wgt>
<wgt id='1420'> +1.2888999e-12 </wgt>
<wgt id='1421'> +1.2790127e-12 </wgt>
<wgt id='1422'> +1.2957433e-12 </wgt>
<wgt id='1423'> +1.2904382e-12 </wgt>
<wgt id='1424'> +1.2910184e-12 </wgt>
<wgt id='1425'> +1.2859811e-12 </wgt>
<wgt id='1426'> +1.2957993e-12 </wgt>
<wgt id='1427'> +1.2802931e-12 </wgt>
<wgt id='1428'> +1.2963139e-12 </wgt>
<wgt id='1429'> +1.2884343e-12 </wgt>
<wgt id='1430'> +1.2938455e-12 </wgt>
<wgt id='1431'> +1.2912815e-12 </wgt>
<wgt id='1432'> +1.2902804e-12 </wgt>
<wgt id='1433'> +1.2899921e-12 </wgt>
<wgt id='1434'> +1.2902035e-12 </wgt>
<wgt id='1435'> +1.2913970e-12 </wgt>
<wgt id='1436'> +1.2888353e-12 </wgt>
<wgt id='1437'> +1.2970335e-12 </wgt>
<wgt id='1438'> +1.2895842e-12 </wgt>
<wgt id='1439'> +1.2855620e-12 </wgt>
<wgt id='1440'> +1.3021915e-12 </wgt>
<wgt id='1441'> +1.2929468e-12 </wgt>
<wgt id='1442'> +1.2870286e-12 </wgt>
<wgt id='1443'> +1.2872706e-12 </wgt>
<wgt id='1444'> +1.2986300e-12 </wgt>
<wgt id='1445'> +1.3044860e-12 </wgt>
<wgt id='1446'> +1.2860011e-12 </wgt>
<wgt id='1447'> +1.2900142e-12 </wgt>
<wgt id='1448'> +1.2939135e-12 </wgt>
<wgt id='1449'> +1.2914845e-12 </wgt>
<wgt id='1450'> +1.2899486e-12 </wgt>
<wgt id='1451'> +1.2931118e-12 </wgt>
<wgt id='1452'> +1.2828158e-12 </wgt>
<wgt id='1453'> +1.2917129e-12 </wgt>
<wgt id='1454'> +1.2830362e-12 </wgt>
<wgt id='1455'> +1.2854585e-12 </wgt>
<wgt id='1456'> +1.2935121e-12 </wgt>
<wgt id='1457'> +1.2935998e-12 </wgt>
<wgt id='1458'> +1.2893801e-12 </wgt>
<wgt id='1459'> +1.2944157e-12 </wgt>
<wgt id='1460'> +1.2870912e-12 </wgt>
<wgt id='1461'> +1.2906862e-12 </wgt>
<wgt id='1462'> +1.2823396e-12 </wgt>
<wgt id='1463'> +1.2990069e-12 </wgt>
<wgt id='1464'> +1.2913581e-12 </wgt>
<wgt id='1465'> +1.2613407e-12 </wgt>
<wgt id='1466'> +1.2673426e-12 </wgt>
<wgt id='1467'> +1.2740095e-12 </wgt>
<wgt id='1468'> +1.2796153e-12 </wgt>
<wgt id='1469'> +1.2854030e-12 </wgt>
<wgt id='1470'> +1.2977565e-12 </wgt>
<wgt id='1471'> +1.3026706e-12 </wgt>
<wgt id='1472'> +1.3087080e-12 </wgt>
<wgt id='1473'> +1.2913581e-12 </wgt>
<wgt id='1474'> +1.2866302e-12 </wgt>
<wgt id='1475'> +1.2885421e-12 </wgt>
<wgt id='1476'> +1.2933849e-12 </wgt>
<wgt id='1477'> +1.2952848e-12 </wgt>
<wgt id='1478'> +1.2894872e-12 </wgt>
<wgt id='1479'> +1.2867395e-12 </wgt>
<wgt id='1480'> +1.2830754e-12 </wgt>
<wgt id='1481'> +1.2896346e-12 </wgt>
<wgt id='1482'> +1.2864892e-12 </wgt>
<wgt id='1483'> +1.2775793e-12 </wgt>
<wgt id='1484'> +1.2908257e-12 </wgt>
<wgt id='1485'> +1.2841108e-12 </wgt>
<wgt id='1486'> +1.2898714e-12 </wgt>
<wgt id='1487'> +1.2895592e-12 </wgt>
<wgt id='1488'> +1.2877001e-12 </wgt>
<wgt id='1489'> +1.3026053e-12 </wgt>
<wgt id='1490'> +1.2846958e-12 </wgt>
<wgt id='1491'> +1.2895231e-12 </wgt>
<wgt id='1492'> +1.2932934e-12 </wgt>
<wgt id='1493'> +1.2729619e-12 </wgt>
<wgt id='1494'> +1.2953963e-12 </wgt>
<wgt id='1495'> +1.2780249e-12 </wgt>
<wgt id='1496'> +1.2883832e-12 </wgt>
<wgt id='1497'> +1.2891347e-12 </wgt>
<wgt id='1498'> +1.2900412e-12 </wgt>
<wgt id='1499'> +1.2897659e-12 </wgt>
<wgt id='1500'> +1.2885179e-12 </wgt>
<wgt id='1501'> +1.2904478e-12 </wgt>
<wgt id='1502'> +1.2931761e-12 </wgt>
<wgt id='1503'> +1.2894396e-12 </wgt>
<wgt id='1504'> +1.2874272e-12 </wgt>
<wgt id='1505'> +1.2892828e-12 </wgt>
<wgt id='1506'> +1.2877982e-12 </wgt>
<wgt id='1507'> +1.2888801e-12 </wgt>
<wgt id='1508'> +1.2936588e-12 </wgt>
<wgt id='1509'> +1.3146603e-12 </wgt>
<wgt id='1510'> +1.3137645e-12 </wgt>
<wgt id='1511'> +1.3170403e-12 </wgt>
<wgt id='1512'> +1.3147692e-12 </wgt>
<wgt id='1513'> +1.3156286e-12 </wgt>
<wgt id='1514'> +1.3166113e-12 </wgt>
<wgt id='1515'> +1.3149879e-12 </wgt>
<wgt id='1516'> +1.3170350e-12 </wgt>
<wgt id='1517'> +1.3192452e-12 </wgt>
<wgt id='1518'> +1.3161155e-12 </wgt>
<wgt id='1519'> +1.3088765e-12 </wgt>
<wgt id='1520'> +1.3177257e-12 </wgt>
<wgt id='1521'> +1.3196918e-12 </wgt>
<wgt id='1522'> +1.3149791e-12 </wgt>
<wgt id='1523'> +1.3210432e-12 </wgt>
<wgt id='1524'> +1.3173984e-12 </wgt>
<wgt id='1525'> +1.3201487e-12 </wgt>
<wgt id='1526'> +1.3122925e-12 </wgt>
<wgt id='1527'> +1.3117150e-12 </wgt>
<wgt id='1528'> +1.3163545e-12 </wgt>
<wgt id='1529'> +1.3148121e-12 </wgt>
<wgt id='1530'> +1.3200020e-12 </wgt>
<wgt id='1531'> +1.3166209e-12 </wgt>
<wgt id='1532'> +1.3094479e-12 </wgt>
<wgt id='1533'> +1.3145876e-12 </wgt>
<wgt id='1534'> +1.3177804e-12 </wgt>
<wgt id='1535'> +1.3058991e-12 </wgt>
<wgt id='1536'> +1.3120082e-12 </wgt>
<wgt id='1537'> +1.3122399e-12 </wgt>
<wgt id='1538'> +1.3154981e-12 </wgt>
<wgt id='1539'> +1.3238067e-12 </wgt>
<wgt id='1540'> +1.3167484e-12 </wgt>
<wgt id='1541'> +1.3149059e-12 </wgt>
<wgt id='1542'> +1.3125291e-12 </wgt>
<wgt id='1543'> +1.3149260e-12 </wgt>
<wgt id='1544'> +1.3145724e-12 </wgt>
<wgt id='1545'> +1.3140866e-12 </wgt>
<wgt id='1546'> +1.3118096e-12 </wgt>
<wgt id='1547'> +1.3148382e-12 </wgt>
<wgt id='1548'> +1.3138013e-12 </wgt>
<wgt id='1549'> +1.3140108e-12 </wgt>
<wgt id='1550'> +1.3157398e-12 </wgt>
<wgt id='1551'> +1.3169301e-12 </wgt>
<wgt id='1552'> +1.3151326e-12 </wgt>
<wgt id='1553'> +1.3142111e-12 </wgt>
<wgt id='1554'> +1.3169962e-12 </wgt>
<wgt id='1555'> +1.3164015e-12 </wgt>
<wgt id='1556'> +1.3144062e-12 </wgt>
<wgt id='1557'> +1.3169476e-12 </wgt>
<wgt id='1558'> +1.3135189e-12 </wgt>
<wgt id='1559'> +1.3146778e-12 </wgt>
<wgt id='1560'> +1.3169643e-12 </wgt>
<wgt id='1561'> +1.3133201e-12 </wgt>
<wgt id='1562'> +1.3143537e-12 </wgt>
<wgt id='1563'> +1.3155926e-12 </wgt>
<wgt id='1564'> +1.3141120e-12 </wgt>
<wgt id='1565'> +1.3150603e-12 </wgt>
<wgt id='1566'> +1.3147872e-12 </wgt>
<wgt id='1567'> +1.3162630e-12 </wgt>
<wgt id='1568'> +1.3129978e-12 </wgt>
<wgt id='1569'> +1.3141756e-12 </wgt>
<wgt id='1570'> +1.3139998e-12 </wgt>
<wgt id='1571'> +1.3145318e-12 </wgt>
<wgt id='1572'> +1.3136975e-12 </wgt>
<wgt id='1573'> +1.3133349e-12 </wgt>
<wgt id='1574'> +1.3146856e-12 </wgt>
<wgt id='1575'> +1.3151841e-12 </wgt>
<wgt id='1576'> +1.3150696e-12 </wgt>
<wgt id='1577'> +1.3151285e-12 </wgt>
<wgt id='1578'> +1.3145746e-12 </wgt>
<wgt id='1579'> +1.3143568e-12 </wgt>
<wgt id='1580'> +1.3146824e-12 </wgt>
<wgt id='1581'> +1.3158708e-12 </wgt>
<wgt id='1582'> +1.3142553e-12 </wgt>
<wgt id='1583'> +1.3150632e-12 </wgt>
<wgt id='1584'> +1.3150171e-12 </wgt>
<wgt id='1585'> +1.3144950e-12 </wgt>
<wgt id='1586'> +1.3149238e-12 </wgt>
<wgt id='1587'> +1.3155136e-12 </wgt>
<wgt id='1588'> +1.3140946e-12 </wgt>
<wgt id='1589'> +1.3156627e-12 </wgt>
<wgt id='1590'> +1.3148027e-12 </wgt>
<wgt id='1591'> +1.3153735e-12 </wgt>
<wgt id='1592'> +1.3138907e-12 </wgt>
<wgt id='1593'> +1.3139707e-12 </wgt>
<wgt id='1594'> +1.3149545e-12 </wgt>
<wgt id='1595'> +1.3151835e-12 </wgt>
<wgt id='1596'> +1.3154184e-12 </wgt>
<wgt id='1597'> +1.3140447e-12 </wgt>
<wgt id='1598'> +1.3147022e-12 </wgt>
<wgt id='1599'> +1.3150003e-12 </wgt>
<wgt id='1600'> +1.3148989e-12 </wgt>
<wgt id='1601'> +1.3142308e-12 </wgt>
<wgt id='1602'> +1.3140935e-12 </wgt>
<wgt id='1603'> +1.3147889e-12 </wgt>
<wgt id='1604'> +1.3152422e-12 </wgt>
<wgt id='1605'> +1.3149638e-12 </wgt>
<wgt id='1606'> +1.3143919e-12 </wgt>
<wgt id='1607'> +1.3149301e-12 </wgt>
<wgt id='1608'> +1.3148877e-12 </wgt>
<wgt id='1609'> +1.3143433e-12 </wgt>
<wgt id='1610'> +1.3014169e-12 </wgt>
<wgt id='1611'> +1.3270103e-12 </wgt>
<wgt id='1612'> +1.5303593e-12 </wgt>
<wgt id='1613'> +1.5098892e-12 </wgt>
<wgt id='1614'> +1.5339193e-12 </wgt>
<wgt id='1615'> +1.5223462e-12 </wgt>
<wgt id='1616'> +1.5245762e-12 </wgt>
<wgt id='1617'> +1.5368335e-12 </wgt>
<wgt id='1618'> +1.5593328e-12 </wgt>
<wgt id='1619'> +1.5259665e-12 </wgt>
<wgt id='1620'> +1.4740494e-12 </wgt>
<wgt id='1621'> +1.5516186e-12 </wgt>
<wgt id='1622'> +1.5368387e-12 </wgt>
<wgt id='1623'> +1.5146222e-12 </wgt>
<wgt id='1624'> +1.5109627e-12 </wgt>
<wgt id='1625'> +1.5267215e-12 </wgt>
<wgt id='1626'> +1.5073945e-12 </wgt>
<wgt id='1627'> +1.5173709e-12 </wgt>
<wgt id='1628'> +1.5339126e-12 </wgt>
<wgt id='1629'> +1.5756196e-12 </wgt>
<wgt id='1630'> +1.5117531e-12 </wgt>
<wgt id='1631'> +1.5298417e-12 </wgt>
<wgt id='1632'> +1.4840967e-12 </wgt>
<wgt id='1633'> +1.4978872e-12 </wgt>
<wgt id='1634'> +1.5748873e-12 </wgt>
<wgt id='1635'> +1.5471516e-12 </wgt>
<wgt id='1636'> +1.5680767e-12 </wgt>
<wgt id='1637'> +1.5137029e-12 </wgt>
<wgt id='1638'> +1.5651698e-12 </wgt>
<wgt id='1639'> +1.5077002e-12 </wgt>
<wgt id='1640'> +1.5537954e-12 </wgt>
<wgt id='1641'> +1.5184743e-12 </wgt>
<wgt id='1642'> +1.5403360e-12 </wgt>
<wgt id='1643'> +1.5311115e-12 </wgt>
<wgt id='1644'> +1.5209128e-12 </wgt>
<wgt id='1645'> +1.5534756e-12 </wgt>
<wgt id='1646'> +1.5102248e-12 </wgt>
<wgt id='1647'> +1.5121562e-12 </wgt>
<wgt id='1648'> +1.5687908e-12 </wgt>
<wgt id='1649'> +1.5534915e-12 </wgt>
<wgt id='1650'> +1.5160341e-12 </wgt>
<wgt id='1651'> +1.4867142e-12 </wgt>
<wgt id='1652'> +1.4940797e-12 </wgt>
<wgt id='1653'> +1.5482329e-12 </wgt>
<wgt id='1654'> +1.5408203e-12 </wgt>
<wgt id='1655'> +1.5032159e-12 </wgt>
<wgt id='1656'> +1.5009434e-12 </wgt>
<wgt id='1657'> +1.4927678e-12 </wgt>
<wgt id='1658'> +1.5102610e-12 </wgt>
<wgt id='1659'> +1.5109627e-12 </wgt>
<wgt id='1660'> +1.5733332e-12 </wgt>
<wgt id='1661'> +1.5356567e-12 </wgt>
<wgt id='1662'> +1.5318284e-12 </wgt>
<wgt id='1663'> +1.5234509e-12 </wgt>
<wgt id='1664'> +1.5349824e-12 </wgt>
<wgt id='1665'> +1.5155018e-12 </wgt>
<wgt id='1666'> +1.5200413e-12 </wgt>
<wgt id='1667'> +1.4930328e-12 </wgt>
<wgt id='1668'> +1.5457627e-12 </wgt>
<wgt id='1669'> +1.5377039e-12 </wgt>
<wgt id='1670'> +1.5571678e-12 </wgt>
<wgt id='1671'> +1.5536280e-12 </wgt>
<wgt id='1672'> +1.5717779e-12 </wgt>
<wgt id='1673'> +1.5067752e-12 </wgt>
<wgt id='1674'> +1.4841654e-12 </wgt>
<wgt id='1675'> +1.5766686e-12 </wgt>
<wgt id='1676'> +1.5614979e-12 </wgt>
<wgt id='1677'> +1.5953913e-12 </wgt>
<wgt id='1678'> +1.5148292e-12 </wgt>
<wgt id='1679'> +1.5193614e-12 </wgt>
<wgt id='1680'> +1.5486322e-12 </wgt>
<wgt id='1681'> +1.5433114e-12 </wgt>
<wgt id='1682'> +1.5477290e-12 </wgt>
<wgt id='1683'> +1.4894872e-12 </wgt>
<wgt id='1684'> +1.5153479e-12 </wgt>
<wgt id='1685'> +1.5169428e-12 </wgt>
<wgt id='1686'> +1.5394412e-12 </wgt>
<wgt id='1687'> +1.5553822e-12 </wgt>
<wgt id='1688'> +1.5299726e-12 </wgt>
<wgt id='1689'> +1.5318630e-12 </wgt>
<wgt id='1690'> +1.5663330e-12 </wgt>
<wgt id='1691'> +1.5678240e-12 </wgt>
<wgt id='1692'> +1.5735891e-12 </wgt>
<wgt id='1693'> +1.5588516e-12 </wgt>
<wgt id='1694'> +1.5225039e-12 </wgt>
<wgt id='1695'> +1.5860974e-12 </wgt>
<wgt id='1696'> +1.5662458e-12 </wgt>
<wgt id='1697'> +1.5218500e-12 </wgt>
<wgt id='1698'> +1.5158753e-12 </wgt>
<wgt id='1699'> +1.5309200e-12 </wgt>
<wgt id='1700'> +1.5250919e-12 </wgt>
<wgt id='1701'> +1.5181650e-12 </wgt>
<wgt id='1702'> +1.5140170e-12 </wgt>
<wgt id='1703'> +1.5618347e-12 </wgt>
<wgt id='1704'> +1.5140677e-12 </wgt>
<wgt id='1705'> +1.4767953e-12 </wgt>
<wgt id='1706'> +1.5435108e-12 </wgt>
<wgt id='1707'> +1.5013420e-12 </wgt>
<wgt id='1708'> +1.4994160e-12 </wgt>
<wgt id='1709'> +1.5227181e-12 </wgt>
<wgt id='1710'> +1.4925465e-12 </wgt>
<wgt id='1711'> +1.5280638e-12 </wgt>
<wgt id='1712'> +1.5296476e-12 </wgt>
<wgt id='1713'> +1.2493740e-12 </wgt>
<wgt id='1714'> +1.2150708e-12 </wgt>
<wgt id='1715'> +1.2562016e-12 </wgt>
<wgt id='1716'> +1.2459315e-12 </wgt>
<wgt id='1717'> +1.2391784e-12 </wgt>
<wgt id='1718'> +1.2560074e-12 </wgt>
<wgt id='1719'> +1.2488979e-12 </wgt>
<wgt id='1720'> +1.2597631e-12 </wgt>
<wgt id='1721'> +1.2093389e-12 </wgt>
<wgt id='1722'> +1.2312804e-12 </wgt>
<wgt id='1723'> +1.2299768e-12 </wgt>
<wgt id='1724'> +1.3087969e-12 </wgt>
<wgt id='1725'> +1.2458926e-12 </wgt>
<wgt id='1726'> +1.2738563e-12 </wgt>
<wgt id='1727'> +1.2573260e-12 </wgt>
<wgt id='1728'> +1.2499196e-12 </wgt>
<wgt id='1729'> +1.2287967e-12 </wgt>
<wgt id='1730'> +1.2424324e-12 </wgt>
<wgt id='1731'> +1.2029216e-12 </wgt>
<wgt id='1732'> +1.2641325e-12 </wgt>
<wgt id='1733'> +1.2486683e-12 </wgt>
<wgt id='1734'> +1.2691889e-12 </wgt>
<wgt id='1735'> +1.2488777e-12 </wgt>
<wgt id='1736'> +1.3004650e-12 </wgt>
<wgt id='1737'> +1.2788436e-12 </wgt>
<wgt id='1738'> +1.2702620e-12 </wgt>
<wgt id='1739'> +1.2091419e-12 </wgt>
<wgt id='1740'> +1.2259374e-12 </wgt>
<wgt id='1741'> +1.2783945e-12 </wgt>
<wgt id='1742'> +1.2454338e-12 </wgt>
<wgt id='1743'> +1.2553887e-12 </wgt>
<wgt id='1744'> +1.2719800e-12 </wgt>
<wgt id='1745'> +1.2157018e-12 </wgt>
<wgt id='1746'> +1.2546154e-12 </wgt>
<wgt id='1747'> +1.2528549e-12 </wgt>
<wgt id='1748'> +1.2388546e-12 </wgt>
<wgt id='1749'> +1.2511028e-12 </wgt>
<wgt id='1750'> +1.2553862e-12 </wgt>
<wgt id='1751'> +1.2196920e-12 </wgt>
<wgt id='1752'> +1.2361034e-12 </wgt>
<wgt id='1753'> +1.2635359e-12 </wgt>
<wgt id='1754'> +1.2630831e-12 </wgt>
<wgt id='1755'> +1.2780739e-12 </wgt>
<wgt id='1756'> +1.2680497e-12 </wgt>
<wgt id='1757'> +1.2337331e-12 </wgt>
<wgt id='1758'> +1.2654392e-12 </wgt>
<wgt id='1759'> +1.2568447e-12 </wgt>
<wgt id='1760'> +1.2218918e-12 </wgt>
<wgt id='1761'> +1.2328747e-12 </wgt>
<wgt id='1762'> +1.2312906e-12 </wgt>
<wgt id='1763'> +1.2623531e-12 </wgt>
<wgt id='1764'> +1.2530686e-12 </wgt>
<wgt id='1765'> +1.2411024e-12 </wgt>
<wgt id='1766'> +1.2477489e-12 </wgt>
<wgt id='1767'> +1.2555477e-12 </wgt>
<wgt id='1768'> +1.2540259e-12 </wgt>
<wgt id='1769'> +1.2279811e-12 </wgt>
<wgt id='1770'> +1.2388870e-12 </wgt>
<wgt id='1771'> +1.2624430e-12 </wgt>
<wgt id='1772'> +1.2656684e-12 </wgt>
<wgt id='1773'> +1.2396379e-12 </wgt>
<wgt id='1774'> +1.2368970e-12 </wgt>
<wgt id='1775'> +1.2612551e-12 </wgt>
<wgt id='1776'> +1.2794994e-12 </wgt>
<wgt id='1777'> +1.2036584e-12 </wgt>
<wgt id='1778'> +1.2343198e-12 </wgt>
<wgt id='1779'> +1.2754494e-12 </wgt>
<wgt id='1780'> +1.2487773e-12 </wgt>
<wgt id='1781'> +1.2451475e-12 </wgt>
<wgt id='1782'> +1.2382475e-12 </wgt>
<wgt id='1783'> +1.2466327e-12 </wgt>
<wgt id='1784'> +1.2599198e-12 </wgt>
<wgt id='1785'> +1.2487090e-12 </wgt>
<wgt id='1786'> +1.2128364e-12 </wgt>
<wgt id='1787'> +1.2822867e-12 </wgt>
<wgt id='1788'> +1.2645029e-12 </wgt>
<wgt id='1789'> +1.2659465e-12 </wgt>
<wgt id='1790'> +1.2757458e-12 </wgt>
<wgt id='1791'> +1.2604585e-12 </wgt>
<wgt id='1792'> +1.2381729e-12 </wgt>
<wgt id='1793'> +1.2487513e-12 </wgt>
<wgt id='1794'> +1.2609113e-12 </wgt>
<wgt id='1795'> +1.2514284e-12 </wgt>
<wgt id='1796'> +1.2366936e-12 </wgt>
<wgt id='1797'> +1.2502072e-12 </wgt>
<wgt id='1798'> +1.2543875e-12 </wgt>
<wgt id='1799'> +1.2631845e-12 </wgt>
<wgt id='1800'> +1.2597938e-12 </wgt>
<wgt id='1801'> +1.2439879e-12 </wgt>
<wgt id='1802'> +1.2466229e-12 </wgt>
<wgt id='1803'> +1.2708963e-12 </wgt>
<wgt id='1804'> +1.2323026e-12 </wgt>
<wgt id='1805'> +1.2313152e-12 </wgt>
<wgt id='1806'> +1.2300614e-12 </wgt>
<wgt id='1807'> +1.2767278e-12 </wgt>
<wgt id='1808'> +1.2362720e-12 </wgt>
<wgt id='1809'> +1.2390509e-12 </wgt>
<wgt id='1810'> +1.2351925e-12 </wgt>
<wgt id='1811'> +1.2682885e-12 </wgt>
<wgt id='1812'> +1.2438130e-12 </wgt>
<wgt id='1813'> +1.2265705e-12 </wgt>
<wgt id='1814'> +1.4450076e-12 </wgt>
<wgt id='1815'> +1.6540373e-12 </wgt>
<wgt id='1816'> +1.2493740e-12 </wgt>
<wgt id='1817'> +1.2150708e-12 </wgt>
<wgt id='1818'> +1.2562016e-12 </wgt>
<wgt id='1819'> +1.2459315e-12 </wgt>
<wgt id='1820'> +1.2391784e-12 </wgt>
<wgt id='1821'> +1.2560074e-12 </wgt>
<wgt id='1822'> +1.2488979e-12 </wgt>
<wgt id='1823'> +1.2597631e-12 </wgt>
<wgt id='1824'> +1.2093389e-12 </wgt>
<wgt id='1825'> +1.2312804e-12 </wgt>
<wgt id='1826'> +1.2299768e-12 </wgt>
<wgt id='1827'> +1.3087969e-12 </wgt>
<wgt id='1828'> +1.2458926e-12 </wgt>
<wgt id='1829'> +1.2738563e-12 </wgt>
<wgt id='1830'> +1.2573260e-12 </wgt>
<wgt id='1831'> +1.2499196e-12 </wgt>
<wgt id='1832'> +1.2287967e-12 </wgt>
<wgt id='1833'> +1.2424324e-12 </wgt>
<wgt id='1834'> +1.2029216e-12 </wgt>
<wgt id='1835'> +1.2641325e-12 </wgt>
<wgt id='1836'> +1.2486683e-12 </wgt>
<wgt id='1837'> +1.2691889e-12 </wgt>
<wgt id='1838'> +1.2488777e-12 </wgt>
<wgt id='1839'> +1.3004650e-12 </wgt>
<wgt id='1840'> +1.2788436e-12 </wgt>
<wgt id='1841'> +1.2702620e-12 </wgt>
<wgt id='1842'> +1.2091419e-12 </wgt>
<wgt id='1843'> +1.2259374e-12 </wgt>
<wgt id='1844'> +1.2783945e-12 </wgt>
<wgt id='1845'> +1.2454338e-12 </wgt>
<wgt id='1846'> +1.2553887e-12 </wgt>
<wgt id='1847'> +1.2719800e-12 </wgt>
<wgt id='1848'> +1.2157018e-12 </wgt>
<wgt id='1849'> +1.2546154e-12 </wgt>
<wgt id='1850'> +1.2528549e-12 </wgt>
<wgt id='1851'> +1.2388546e-12 </wgt>
<wgt id='1852'> +1.2511028e-12 </wgt>
<wgt id='1853'> +1.2553862e-12 </wgt>
<wgt id='1854'> +1.2196920e-12 </wgt>
<wgt id='1855'> +1.2361034e-12 </wgt>
<wgt id='1856'> +1.2635359e-12 </wgt>
<wgt id='1857'> +1.2630831e-12 </wgt>
<wgt id='1858'> +1.2780739e-12 </wgt>
<wgt id='1859'> +1.2680497e-12 </wgt>
<wgt id='1860'> +1.2337331e-12 </wgt>
<wgt id='1861'> +1.2654392e-12 </wgt>
<wgt id='1862'> +1.2568447e-12 </wgt>
<wgt id='1863'> +1.2218918e-12 </wgt>
<wgt id='1864'> +1.2328747e-12 </wgt>
<wgt id='1865'> +1.2312906e-12 </wgt>
<wgt id='1866'> +1.2623531e-12 </wgt>
<wgt id='1867'> +1.2530686e-12 </wgt>
<wgt id='1868'> +1.2411024e-12 </wgt>
<wgt id='1869'> +1.2477489e-12 </wgt>
<wgt id='1870'> +1.2555477e-12 </wgt>
<wgt id='1871'> +1.2540259e-12 </wgt>
<wgt id='1872'> +1.2279811e-12 </wgt>
<wgt id='1873'> +1.2388870e-12 </wgt>
<wgt id='1874'> +1.2624430e-12 </wgt>
<wgt id='1875'> +1.2656684e-12 </wgt>
<wgt id='1876'> +1.2396379e-12 </wgt>
<wgt id='1877'> +1.2368970e-12 </wgt>
<wgt id='1878'> +1.2612551e-12 </wgt>
<wgt id='1879'> +1.2794994e-12 </wgt>
<wgt id='1880'> +1.2036584e-12 </wgt>
<wgt id='1881'> +1.2343198e-12 </wgt>
<wgt id='1882'> +1.2754494e-12 </wgt>
<wgt id='1883'> +1.2487773e-12 </wgt>
<wgt id='1884'> +1.2451475e-12 </wgt>
<wgt id='1885'> +1.2382475e-12 </wgt>
<wgt id='1886'> +1.2466327e-12 </wgt>
<wgt id='1887'> +1.2599198e-12 </wgt>
<wgt id='1888'> +1.2487090e-12 </wgt>
<wgt id='1889'> +1.2128364e-12 </wgt>
<wgt id='1890'> +1.2822867e-12 </wgt>
<wgt id='1891'> +1.2645029e-12 </wgt>
<wgt id='1892'> +1.2659465e-12 </wgt>
<wgt id='1893'> +1.2757458e-12 </wgt>
<wgt id='1894'> +1.2604585e-12 </wgt>
<wgt id='1895'> +1.2381729e-12 </wgt>
<wgt id='1896'> +1.2487513e-12 </wgt>
<wgt id='1897'> +1.2609113e-12 </wgt>
<wgt id='1898'> +1.2514284e-12 </wgt>
<wgt id='1899'> +1.2366936e-12 </wgt>
<wgt id='1900'> +1.2502072e-12 </wgt>
<wgt id='1901'> +1.2543875e-12 </wgt>
<wgt id='1902'> +1.2631845e-12 </wgt>
<wgt id='1903'> +1.2597938e-12 </wgt>
<wgt id='1904'> +1.2439879e-12 </wgt>
<wgt id='1905'> +1.2466229e-12 </wgt>
<wgt id='1906'> +1.2708963e-12 </wgt>
<wgt id='1907'> +1.2323026e-12 </wgt>
<wgt id='1908'> +1.2313152e-12 </wgt>
<wgt id='1909'> +1.2300614e-12 </wgt>
<wgt id='1910'> +1.2767278e-12 </wgt>
<wgt id='1911'> +1.2362720e-12 </wgt>
<wgt id='1912'> +1.2390509e-12 </wgt>
<wgt id='1913'> +1.2351925e-12 </wgt>
<wgt id='1914'> +1.2682885e-12 </wgt>
<wgt id='1915'> +1.2438130e-12 </wgt>
<wgt id='1916'> +1.2265705e-12 </wgt>
<wgt id='1917'> +1.2383765e-12 </wgt>
<wgt id='1918'> +1.2549424e-12 </wgt>
<wgt id='1919'> +1.2632846e-12 </wgt>
</rwgt>
</event>
<event>
 9      1 +1.5607000e-12 5.39393000e+01 7.81860800e-03 1.29322400e-01
       21 -1    0    0  501  502 +0.0000000000e+00 +0.0000000000e+00 +3.1170477009e+00 3.1170477009e+00 0.0000000000e+00 0.0000e+00 -1.0000e+00
       -2 -1    0    0    0  501 -0.0000000000e+00 -0.0000000000e+00 -2.3334963815e+02 2.3334963815e+02 0.0000000000e+00 0.0000e+00 1.0000e+00
     1023  2    1    2    0    0 -2.2970398956e+01 -1.2064842151e+00 -8.2397864197e+01 8.6853180049e+01 1.4999067570e+01 0.0000e+00 0.0000e+00
  1000023  2    3    3    0    0 -1.1976408402e+01 -2.5208293940e+00 -2.7141791611e+01 3.0277311614e+01 5.4999825132e+00 0.0000e+00 0.0000e+00
       -2  1    1    2    0  502 +2.2970398956e+01 +1.2064842151e+00 -1.4783472625e+02 1.4961350580e+02 0.0000000000e+00 0.0000e+00 1.0000e+00
  1000022  1    4    4    0    0 -1.0246288077e+01 -1.8259303598e+00 -2.3282843110e+01 2.5988674925e+01 5.0000000000e+00 0.0000e+00 -1.0000e+00
      -11  1    4    4    0    0 -6.0683235677e-01 -3.2465680449e-01 -1.4431689685e+00 1.5988697517e+00 5.1100000000e-04 0.0000e+00 1.0000e+00
       11  1    4    4    0    0 -1.1232879676e+00 -3.7024222967e-01 -2.4157795321e+00 2.6897669370e+00 5.1100000000e-04 0.0000e+00 -1.0000e+00
  1000022  1    3    3    0    0 -1.0993990554e+01 +1.3143451789e+00 -5.5256072586e+01 5.6575868435e+01 5.0000000000e+00 0.0000e+00 -1.0000e+00
<mgrwt>
<rscale>  1 0.53939297E+02</rscale>
<asrwt>0</asrwt>
<pdfrwt beam="1">  1       21 0.47954574E-03 0.53939297E+02</pdfrwt>
<pdfrwt beam="2">  1       -2 0.35899949E-01 0.53939297E+02</pdfrwt>
<totfact> 0.62300767E+06</totfact>
</mgrwt>
<rwgt>
<wgt id='1001'> +1.5607000e-12 </wgt>
<wgt id='1002'> +1.5442990e-12 </wgt>
<wgt id='1003'> +1.5491497e-12 </wgt>
<wgt id='1004'> +1.4410983e-12 </wgt>
<wgt id='1005'> +1.5607000e-12 </wgt>
<wgt id='1006'> +1.3854159e-12 </wgt>
<wgt id='1007'> +1.3663611e-12 </wgt>
<wgt id='1008'> +1.3719593e-12 </wgt>
<wgt id='1009'> +1.2533246e-12 </wgt>
<wgt id='1010'> +1.3854159e-12 </wgt>
<wgt id='1011'> +1.7889643e-12 </wgt>
<wgt id='1012'> +1.7778990e-12 </wgt>
<wgt id='1013'> +1.7812441e-12 </wgt>
<wgt id='1014'> +1.6984910e-12 </wgt>
<wgt id='1015'> +1.7889643e-12 </wgt>
<wgt id='1016'> +1.8163836e-12 </wgt>
<wgt id='1017'> +1.8135421e-12 </wgt>
<wgt id='1018'> +1.8144767e-12 </wgt>
<wgt id='1019'> +1.7812441e-12 </wgt>
<wgt id='1020'> +1.8163836e-12 </wgt>
<wgt id='1021'> +1.6123834e-12 </wgt>
<wgt id='1022'> +1.6045814e-12 </wgt>
<wgt id='1023'> +1.6069384e-12 </wgt>
<wgt id='1024'> +1.5491497e-12 </wgt>
<wgt id='1025'> +1.6123834e-12 </wgt>
<wgt id='1026'> +2.0820436e-12 </wgt>
<wgt id='1027'> +2.0878693e-12 </wgt>
<wgt id='1028'> +2.0863225e-12 </wgt>
<wgt id='1029'> +2.0993899e-12 </wgt>
<wgt id='1030'> +2.0820436e-12 </wgt>
<wgt id='1031'> +1.2748901e-12 </wgt>
<wgt id='1032'> +1.2444734e-12 </wgt>
<wgt id='1033'> +1.2533246e-12 </wgt>
<wgt id='1034'> +1.0692427e-12 </wgt>
<wgt id='1035'> +1.2748901e-12 </wgt>
<wgt id='1036'> +1.1317057e-12 </wgt>
<wgt id='1037'> +1.1010821e-12 </wgt>
<wgt id='1038'> +1.1099704e-12 </wgt>
<wgt id='1039'> +9.2992137e-13 </wgt>
<wgt id='1040'> +1.1317057e-12 </wgt>
<wgt id='1041'> +1.4613525e-12 </wgt>
<wgt id='1042'> +1.4327199e-12 </wgt>
<wgt id='1043'> +1.4410983e-12 </wgt>
<wgt id='1044'> +1.2602187e-12 </wgt>
<wgt id='1045'> +1.4613525e-12 </wgt>
<wgt id='1046'> +1.5607000e-12 </wgt>
<wgt id='1047'> +1.7494598e-12 </wgt>
<wgt id='1048'> +1.5814378e-12 </wgt>
<wgt id='1049'> +1.5977252e-12 </wgt>
<wgt id='1050'> +1.6041224e-12 </wgt>
<wgt id='1051'> +1.4824846e-12 </wgt>
<wgt id='1052'> +1.5523650e-12 </wgt>
<wgt id='1053'> +1.5513672e-12 </wgt>
<wgt id='1054'> +1.5374895e-12 </wgt>
<wgt id='1055'> +1.5294542e-12 </wgt>
<wgt id='1056'> +1.5327564e-12 </wgt>
<wgt id='1057'> +1.5695146e-12 </wgt>
<wgt id='1058'> +1.5068883e-12 </wgt>
<wgt id='1059'> +1.5293061e-12 </wgt>
<wgt id='1060'> +1.5699833e-12 </wgt>
<wgt id='1061'> +1.5647618e-12 </wgt>
<wgt id='1062'> +1.5098312e-12 </wgt>
<wgt id='1063'> +1.5928628e-12 </wgt>
<wgt id='1064'> +1.5519836e-12 </wgt>
<wgt id='1065'> +1.5545371e-12 </wgt>
<wgt id='1066'> +1.4798455e-12 </wgt>
<wgt id='1067'> +1.5889786e-12 </wgt>
<wgt id='1068'> +1.6654702e-12 </wgt>
<wgt id='1069'> +1.6010657e-12 </wgt>
<wgt id='1070'> +1.5562010e-12 </wgt>
<wgt id='1071'> +1.5105484e-12 </wgt>
<wgt id='1072'> +1.5557485e-12 </wgt>
<wgt id='1073'> +1.6973297e-12 </wgt>
<wgt id='1074'> +1.5589570e-12 </wgt>
<wgt id='1075'> +1.5273919e-12 </wgt>
<wgt id='1076'> +1.5715876e-12 </wgt>
<wgt id='1077'> +1.6414103e-12 </wgt>
<wgt id='1078'> +1.5477651e-12 </wgt>
<wgt id='1079'> +1.5763552e-12 </wgt>
<wgt id='1080'> +1.5603576e-12 </wgt>
<wgt id='1081'> +1.5686713e-12 </wgt>
<wgt id='1082'> +1.5882316e-12 </wgt>
<wgt id='1083'> +1.5645657e-12 </wgt>
<wgt id='1084'> +1.5058718e-12 </wgt>
<wgt id='1085'> +1.5684181e-12 </wgt>
<wgt id='1086'> +1.5617777e-12 </wgt>
<wgt id='1087'> +1.5631989e-12 </wgt>
<wgt id='1088'> +1.5666095e-12 </wgt>
<wgt id='1089'> +1.6165813e-12 </wgt>
<wgt id='1090'> +1.5843244e-12 </wgt>
<wgt id='1091'> +1.5344297e-12 </wgt>
<wgt id='1092'> +1.5743947e-12 </wgt>
<wgt id='1093'> +1.5838736e-12 </wgt>
<wgt id='1094'> +1.5228840e-12 </wgt>
<wgt id='1095'> +1.5598584e-12 </wgt>
<wgt id='1096'> +1.5553164e-12 </wgt>
<wgt id='1097'> +1.5368502e-12 </wgt>
<wgt id='1098'> +1.5436244e-12 </wgt>
<wgt id='1099'> +1.5321378e-12 </wgt>
<wgt id='1100'> +1.6228783e-12 </wgt>
<wgt id='1101'> +1.6153929e-12 </wgt>
<wgt id='1102'> +1.5938494e-12 </wgt>
<wgt id='1103'> +1.6284321e-12 </wgt>
<wgt id='1104'> +1.5477435e-12 </wgt>
<wgt id='1105'> +1.4977428e-12 </wgt>
<wgt id='1106'> +1.6058341e-12 </wgt>
<wgt id='1107'> +1.6450831e-12 </wgt>
<wgt id='1108'> +1.5258094e-12 </wgt>
<wgt id='1109'> +1.5593959e-12 </wgt>
<wgt id='1110'> +1.5192545e-12 </wgt>
<wgt id='1111'> +1.5440583e-12 </wgt>
<wgt id='1112'> +1.4782105e-12 </wgt>
<wgt id='1113'> +1.6062605e-12 </wgt>
<wgt id='1114'> +1.5655716e-12 </wgt>
<wgt id='1115'> +1.5658849e-12 </wgt>
<wgt id='1116'> +1.5979368e-12 </wgt>
<wgt id='1117'> +1.5401989e-12 </wgt>
<wgt id='1118'> +1.4753896e-12 </wgt>
<wgt id='1119'> +1.4376876e-12 </wgt>
<wgt id='1120'> +1.4970635e-12 </wgt>
<wgt id='1121'> +1.4729699e-12 </wgt>
<wgt id='1122'> +1.5941454e-12 </wgt>
<wgt id='1123'> +1.6060991e-12 </wgt>
<wgt id='1124'> +1.5599882e-12 </wgt>
<wgt id='1125'> +1.4890995e-12 </wgt>
<wgt id='1126'> +1.5745124e-12 </wgt>
<wgt id='1127'> +1.6418174e-12 </wgt>
<wgt id='1128'> +1.5098312e-12 </wgt>
<wgt id='1129'> +1.5328097e-12 </wgt>
<wgt id='1130'> +1.5381256e-12 </wgt>
<wgt id='1131'> +1.5805924e-12 </wgt>
<wgt id='1132'> +1.6519395e-12 </wgt>
<wgt id='1133'> +1.5410524e-12 </wgt>
<wgt id='1134'> +1.6361537e-12 </wgt>
<wgt id='1135'> +1.4308303e-12 </wgt>
<wgt id='1136'> +1.5166479e-12 </wgt>
<wgt id='1137'> +1.5565399e-12 </wgt>
<wgt id='1138'> +1.4369956e-12 </wgt>
<wgt id='1139'> +1.5206840e-12 </wgt>
<wgt id='1140'> +1.5433596e-12 </wgt>
<wgt id='1141'> +1.6176162e-12 </wgt>
<wgt id='1142'> +1.5667681e-12 </wgt>
<wgt id='1143'> +1.6076147e-12 </wgt>
<wgt id='1144'> +1.5731487e-12 </wgt>
<wgt id='1145'> +1.5774214e-12 </wgt>
<wgt id='1146'> +1.5844153e-12 </wgt>
<wgt id='1147'> +1.2717071e-12 </wgt>
<wgt id='1148'> +1.2987097e-12 </wgt>
<wgt id='1149'> +1.2909098e-12 </wgt>
<wgt id='1150'> +1.3363193e-12 </wgt>
<wgt id='1151'> +1.5536718e-12 </wgt>
<wgt id='1152'> +2.0380709e-12 </wgt>
<wgt id='1153'> +2.0259963e-12 </wgt>
<wgt id='1154'> +2.0451985e-12 </wgt>
<wgt id='1155'> +2.0296422e-12 </wgt>
<wgt id='1156'> +2.0424354e-12 </wgt>
<wgt id='1157'> +2.0454908e-12 </wgt>
<wgt id='1158'> +2.0281706e-12 </wgt>
<wgt id='1159'> +2.0448403e-12 </wgt>
<wgt id='1160'> +2.0338008e-12 </wgt>
<wgt id='1161'> +2.0387608e-12 </wgt>
<wgt id='1162'> +2.0376873e-12 </wgt>
<wgt id='1163'> +2.0409906e-12 </wgt>
<wgt id='1164'> +2.0352066e-12 </wgt>
<wgt id='1165'> +2.0282603e-12 </wgt>
<wgt id='1166'> +2.0476624e-12 </wgt>
<wgt id='1167'> +2.0387993e-12 </wgt>
<wgt id='1168'> +2.0349230e-12 </wgt>
<wgt id='1169'> +2.0417513e-12 </wgt>
<wgt id='1170'> +2.0353462e-12 </wgt>
<wgt id='1171'> +2.0253743e-12 </wgt>
<wgt id='1172'> +2.0540486e-12 </wgt>
<wgt id='1173'> +2.0202212e-12 </wgt>
<wgt id='1174'> +2.0549566e-12 </wgt>
<wgt id='1175'> +2.0509039e-12 </wgt>
<wgt id='1176'> +2.0267054e-12 </wgt>
<wgt id='1177'> +2.0438569e-12 </wgt>
<wgt id='1178'> +2.0202301e-12 </wgt>
<wgt id='1179'> +2.0368442e-12 </wgt>
<wgt id='1180'> +2.0288374e-12 </wgt>
<wgt id='1181'> +2.0315088e-12 </wgt>
<wgt id='1182'> +2.0446646e-12 </wgt>
<wgt id='1183'> +2.0413341e-12 </wgt>
<wgt id='1184'> +2.0374785e-12 </wgt>
<wgt id='1185'> +2.0369032e-12 </wgt>
<wgt id='1186'> +2.0407714e-12 </wgt>
<wgt id='1187'> +2.0388400e-12 </wgt>
<wgt id='1188'> +2.0378917e-12 </wgt>
<wgt id='1189'> +2.0399684e-12 </wgt>
<wgt id='1190'> +2.0131883e-12 </wgt>
<wgt id='1191'> +2.0249165e-12 </wgt>
<wgt id='1192'> +2.0487152e-12 </wgt>
<wgt id='1193'> +1.3678674e-12 </wgt>
<wgt id='1194'> +1.3606687e-12 </wgt>
<wgt id='1195'> +1.3737612e-12 </wgt>
<wgt id='1196'> +1.3784160e-12 </wgt>
<wgt id='1197'> +1.3561622e-12 </wgt>
<wgt id='1198'> +1.3651577e-12 </wgt>
<wgt id='1199'> +1.3718849e-12 </wgt>
<wgt id='1200'> +1.3644906e-12 </wgt>
<wgt id='1201'> +1.3701816e-12 </wgt>
<wgt id='1202'> +1.3674765e-12 </wgt>
<wgt id='1203'> +1.3684334e-12 </wgt>
<wgt id='1204'> +1.3656188e-12 </wgt>
<wgt id='1205'> +1.3691706e-12 </wgt>
<wgt id='1206'> +1.3700836e-12 </wgt>
<wgt id='1207'> +1.3648861e-12 </wgt>
<wgt id='1208'> +1.3592901e-12 </wgt>
<wgt id='1209'> +1.3710360e-12 </wgt>
<wgt id='1210'> +1.3655737e-12 </wgt>
<wgt id='1211'> +1.3638436e-12 </wgt>
<wgt id='1212'> +1.3690451e-12 </wgt>
<wgt id='1213'> +1.3669235e-12 </wgt>
<wgt id='1214'> +1.3522668e-12 </wgt>
<wgt id='1215'> +1.3921105e-12 </wgt>
<wgt id='1216'> +1.3652405e-12 </wgt>
<wgt id='1217'> +1.3691246e-12 </wgt>
<wgt id='1218'> +1.3777659e-12 </wgt>
<wgt id='1219'> +1.3629087e-12 </wgt>
<wgt id='1220'> +1.3785489e-12 </wgt>
<wgt id='1221'> +1.3621199e-12 </wgt>
<wgt id='1222'> +1.3805740e-12 </wgt>
<wgt id='1223'> +1.3437881e-12 </wgt>
<wgt id='1224'> +1.3693744e-12 </wgt>
<wgt id='1225'> +1.3672858e-12 </wgt>
<wgt id='1226'> +1.3623391e-12 </wgt>
<wgt id='1227'> +1.3719336e-12 </wgt>
<wgt id='1228'> +1.3773913e-12 </wgt>
<wgt id='1229'> +1.3611390e-12 </wgt>
<wgt id='1230'> +1.3774356e-12 </wgt>
<wgt id='1231'> +1.3581760e-12 </wgt>
<wgt id='1232'> +1.3740674e-12 </wgt>
<wgt id='1233'> +1.3661132e-12 </wgt>
<wgt id='1234'> +1.3678674e-12 </wgt>
<wgt id='1235'> +1.3609970e-12 </wgt>
<wgt id='1236'> +1.3636341e-12 </wgt>
<wgt id='1237'> +1.3659424e-12 </wgt>
<wgt id='1238'> +1.3700557e-12 </wgt>
<wgt id='1239'> +1.3716607e-12 </wgt>
<wgt id='1240'> +1.3730777e-12 </wgt>
<wgt id='1241'> +1.3093159e-12 </wgt>
<wgt id='1242'> +1.2995059e-12 </wgt>
<wgt id='1243'> +1.3190137e-12 </wgt>
<wgt id='1244'> +1.3022188e-12 </wgt>
<wgt id='1245'> +1.3145656e-12 </wgt>
<wgt id='1246'> +1.3039927e-12 </wgt>
<wgt id='1247'> +1.3138782e-12 </wgt>
<wgt id='1248'> +1.3092465e-12 </wgt>
<wgt id='1249'> +1.3093987e-12 </wgt>
<wgt id='1250'> +1.3154614e-12 </wgt>
<wgt id='1251'> +1.3049881e-12 </wgt>
<wgt id='1252'> +1.3076348e-12 </wgt>
<wgt id='1253'> +1.3106162e-12 </wgt>
<wgt id='1254'> +1.3086693e-12 </wgt>
<wgt id='1255'> +1.3096256e-12 </wgt>
<wgt id='1256'> +1.3125876e-12 </wgt>
<wgt id='1257'> +1.3011872e-12 </wgt>
<wgt id='1258'> +1.3241802e-12 </wgt>
<wgt id='1259'> +1.2953613e-12 </wgt>
<wgt id='1260'> +1.3123670e-12 </wgt>
<wgt id='1261'> +1.3060172e-12 </wgt>
<wgt id='1262'> +1.3019476e-12 </wgt>
<wgt id='1263'> +1.3124198e-12 </wgt>
<wgt id='1264'> +1.3196561e-12 </wgt>
<wgt id='1265'> +1.3043327e-12 </wgt>
<wgt id='1266'> +1.2914696e-12 </wgt>
<wgt id='1267'> +1.3238317e-12 </wgt>
<wgt id='1268'> +1.3138153e-12 </wgt>
<wgt id='1269'> +1.3066526e-12 </wgt>
<wgt id='1270'> +1.3076739e-12 </wgt>
<wgt id='1271'> +1.3093739e-12 </wgt>
<wgt id='1272'> +1.3080503e-12 </wgt>
<wgt id='1273'> +1.3097326e-12 </wgt>
<wgt id='1274'> +1.3121065e-12 </wgt>
<wgt id='1275'> +1.3052503e-12 </wgt>
<wgt id='1276'> +1.2981972e-12 </wgt>
<wgt id='1277'> +1.3183782e-12 </wgt>
<wgt id='1278'> +1.3063321e-12 </wgt>
<wgt id='1279'> +1.3154652e-12 </wgt>
<wgt id='1280'> +1.3068295e-12 </wgt>
<wgt id='1281'> +1.3234923e-12 </wgt>
<wgt id='1282'> +1.3093159e-12 </wgt>
<wgt id='1283'> +1.3025841e-12 </wgt>
<wgt id='1284'> +1.3052205e-12 </wgt>
<wgt id='1285'> +1.3075177e-12 </wgt>
<wgt id='1286'> +1.3112311e-12 </wgt>
<wgt id='1287'> +1.3125551e-12 </wgt>
<wgt id='1288'> +1.3137729e-12 </wgt>
<wgt id='1289'> +1.4047933e-12 </wgt>
<wgt id='1290'> +1.3997248e-12 </wgt>
<wgt id='1291'> +1.4102293e-12 </wgt>
<wgt id='1292'> +1.4021879e-12 </wgt>
<wgt id='1293'> +1.4066434e-12 </wgt>
<wgt id='1294'> +1.3888680e-12 </wgt>
<wgt id='1295'> +1.4203060e-12 </wgt>
<wgt id='1296'> +1.4049468e-12 </wgt>
<wgt id='1297'> +1.4045424e-12 </wgt>
<wgt id='1298'> +1.4033365e-12 </wgt>
<wgt id='1299'> +1.4065340e-12 </wgt>
<wgt id='1300'> +1.4053222e-12 </wgt>
<wgt id='1301'> +1.4036702e-12 </wgt>
<wgt id='1302'> +1.4003220e-12 </wgt>
<wgt id='1303'> +1.4109736e-12 </wgt>
<wgt id='1304'> +1.4037073e-12 </wgt>
<wgt id='1305'> +1.4055000e-12 </wgt>
<wgt id='1306'> +1.3974472e-12 </wgt>
<wgt id='1307'> +1.4131309e-12 </wgt>
<wgt id='1308'> +1.3906241e-12 </wgt>
<wgt id='1309'> +1.4156245e-12 </wgt>
<wgt id='1310'> +1.4112485e-12 </wgt>
<wgt id='1311'> +1.3981771e-12 </wgt>
<wgt id='1312'> +1.3968589e-12 </wgt>
<wgt id='1313'> +1.4131481e-12 </wgt>
<wgt id='1314'> +1.3912684e-12 </wgt>
<wgt id='1315'> +1.4147617e-12 </wgt>
<wgt id='1316'> +1.4101259e-12 </wgt>
<wgt id='1317'> +1.4067230e-12 </wgt>
<wgt id='1318'> +1.4147454e-12 </wgt>
<wgt id='1319'> +1.3925868e-12 </wgt>
<wgt id='1320'> +1.4323821e-12 </wgt>
<wgt id='1321'> +1.3838183e-12 </wgt>
<wgt id='1322'> +1.3993233e-12 </wgt>
<wgt id='1323'> +1.4125375e-12 </wgt>
<wgt id='1324'> +1.4075825e-12 </wgt>
<wgt id='1325'> +1.4033348e-12 </wgt>
<wgt id='1326'> +1.4034525e-12 </wgt>
<wgt id='1327'> +1.4083428e-12 </wgt>
<wgt id='1328'> +1.4024698e-12 </wgt>
<wgt id='1329'> +1.4065835e-12 </wgt>
<wgt id='1330'> +1.3930535e-12 </wgt>
<wgt id='1331'> +1.4277929e-12 </wgt>
<wgt id='1332'> +1.4212560e-12 </wgt>
<wgt id='1333'> +1.3975410e-12 </wgt>
<wgt id='1334'> +1.3981279e-12 </wgt>
<wgt id='1335'> +1.4243913e-12 </wgt>
<wgt id='1336'> +1.4089742e-12 </wgt>
<wgt id='1337'> +1.3994477e-12 </wgt>
<wgt id='1338'> +1.4017930e-12 </wgt>
<wgt id='1339'> +1.4042748e-12 </wgt>
<wgt id='1340'> +1.3832787e-12 </wgt>
<wgt id='1341'> +1.3781263e-12 </wgt>
<wgt id='1342'> +1.3888535e-12 </wgt>
<wgt id='1343'> +1.3806165e-12 </wgt>
<wgt id='1344'> +1.3851308e-12 </wgt>
<wgt id='1345'> +1.3671444e-12 </wgt>
<wgt id='1346'> +1.3984316e-12 </wgt>
<wgt id='1347'> +1.3841960e-12 </wgt>
<wgt id='1348'> +1.3821700e-12 </wgt>
<wgt id='1349'> +1.3819432e-12 </wgt>
<wgt id='1350'> +1.3846068e-12 </wgt>
<wgt id='1351'> +1.3833816e-12 </wgt>
<wgt id='1352'> +1.3830686e-12 </wgt>
<wgt id='1353'> +1.3780432e-12 </wgt>
<wgt id='1354'> +1.3926462e-12 </wgt>
<wgt id='1355'> +1.3832630e-12 </wgt>
<wgt id='1356'> +1.3833317e-12 </wgt>
<wgt id='1357'> +1.3720066e-12 </wgt>
<wgt id='1358'> +1.3966596e-12 </wgt>
<wgt id='1359'> +1.3719372e-12 </wgt>
<wgt id='1360'> +1.3931536e-12 </wgt>
<wgt id='1361'> +1.3887735e-12 </wgt>
<wgt id='1362'> +1.3763383e-12 </wgt>
<wgt id='1363'> +1.3745869e-12 </wgt>
<wgt id='1364'> +1.3898197e-12 </wgt>
<wgt id='1365'> +1.3886317e-12 </wgt>
<wgt id='1366'> +1.3701056e-12 </wgt>
<wgt id='1367'> +1.3892934e-12 </wgt>
<wgt id='1368'> +1.3836740e-12 </wgt>
<wgt id='1369'> +1.3909664e-12 </wgt>
<wgt id='1370'> +1.3740499e-12 </wgt>
<wgt id='1371'> +1.4030105e-12 </wgt>
<wgt id='1372'> +1.3613417e-12 </wgt>
<wgt id='1373'> +1.3714104e-12 </wgt>
<wgt id='1374'> +1.3955392e-12 </wgt>
<wgt id='1375'> +1.3854710e-12 </wgt>
<wgt id='1376'> +1.3824100e-12 </wgt>
<wgt id='1377'> +1.3826760e-12 </wgt>
<wgt id='1378'> +1.3865403e-12 </wgt>
<wgt id='1379'> +1.3810091e-12 </wgt>
<wgt id='1380'> +1.3854356e-12 </wgt>
<wgt id='1381'> +1.3723862e-12 </wgt>
<wgt id='1382'> +1.4035686e-12 </wgt>
<wgt id='1383'> +1.4024778e-12 </wgt>
<wgt id='1384'> +1.3763160e-12 </wgt>
<wgt id='1385'> +1.3767642e-12 </wgt>
<wgt id='1386'> +1.4013915e-12 </wgt>
<wgt id='1387'> +1.3868178e-12 </wgt>
<wgt id='1388'> +1.3775237e-12 </wgt>
<wgt id='1389'> +1.3792824e-12 </wgt>
<wgt id='1390'> +1.3829196e-12 </wgt>
<wgt id='1391'> +1.3489116e-12 </wgt>
<wgt id='1392'> +1.3177345e-12 </wgt>
<wgt id='1393'> +1.3294253e-12 </wgt>
<wgt id='1394'> +1.3401030e-12 </wgt>
<wgt id='1395'> +1.3615502e-12 </wgt>
<wgt id='1396'> +1.3507924e-12 </wgt>
<wgt id='1397'> +1.3048424e-12 </wgt>
<wgt id='1398'> +1.3143582e-12 </wgt>
<wgt id='1399'> +1.3231868e-12 </wgt>
<wgt id='1400'> +1.3320215e-12 </wgt>
<wgt id='1401'> +1.3414651e-12 </wgt>
<wgt id='1402'> +1.3604054e-12 </wgt>
<wgt id='1403'> +1.3695306e-12 </wgt>
<wgt id='1404'> +1.3786297e-12 </wgt>
<wgt id='1405'> +1.3507924e-12 </wgt>
<wgt id='1406'> +1.3477573e-12 </wgt>
<wgt id='1407'> +1.3494716e-12 </wgt>
<wgt id='1408'> +1.3520747e-12 </wgt>
<wgt id='1409'> +1.3541453e-12 </wgt>
<wgt id='1410'> +1.2884506e-12 </wgt>
<wgt id='1411'> +1.2855687e-12 </wgt>
<wgt id='1412'> +1.2920724e-12 </wgt>
<wgt id='1413'> +1.2812144e-12 </wgt>
<wgt id='1414'> +1.2956513e-12 </wgt>
<wgt id='1415'> +1.2824628e-12 </wgt>
<wgt id='1416'> +1.2908083e-12 </wgt>
<wgt id='1417'> +1.2795251e-12 </wgt>
<wgt id='1418'> +1.2973295e-12 </wgt>
<wgt id='1419'> +1.2868015e-12 </wgt>
<wgt id='1420'> +1.2899992e-12 </wgt>
<wgt id='1421'> +1.2863309e-12 </wgt>
<wgt id='1422'> +1.2892427e-12 </wgt>
<wgt id='1423'> +1.2874088e-12 </wgt>
<wgt id='1424'> +1.2896625e-12 </wgt>
<wgt id='1425'> +1.2802286e-12 </wgt>
<wgt id='1426'> +1.2972461e-12 </wgt>
<wgt id='1427'> +1.2599786e-12 </wgt>
<wgt id='1428'> +1.3041552e-12 </wgt>
<wgt id='1429'> +1.2913632e-12 </wgt>
<wgt id='1430'> +1.2846357e-12 </wgt>
<wgt id='1431'> +1.2799283e-12 </wgt>
<wgt id='1432'> +1.2942347e-12 </wgt>
<wgt id='1433'> +1.2706447e-12 </wgt>
<wgt id='1434'> +1.3035590e-12 </wgt>
<wgt id='1435'> +1.2896034e-12 </wgt>
<wgt id='1436'> +1.2860260e-12 </wgt>
<wgt id='1437'> +1.2935149e-12 </wgt>
<wgt id='1438'> +1.2903229e-12 </wgt>
<wgt id='1439'> +1.2813883e-12 </wgt>
<wgt id='1440'> +1.3035958e-12 </wgt>
<wgt id='1441'> +1.2997901e-12 </wgt>
<wgt id='1442'> +1.2665245e-12 </wgt>
<wgt id='1443'> +1.2916345e-12 </wgt>
<wgt id='1444'> +1.2848766e-12 </wgt>
<wgt id='1445'> +1.2935542e-12 </wgt>
<wgt id='1446'> +1.2879049e-12 </wgt>
<wgt id='1447'> +1.2886398e-12 </wgt>
<wgt id='1448'> +1.2914414e-12 </wgt>
<wgt id='1449'> +1.2867586e-12 </wgt>
<wgt id='1450'> +1.2890702e-12 </wgt>
<wgt id='1451'> +1.3020795e-12 </wgt>
<wgt id='1452'> +1.2691840e-12 </wgt>
<wgt id='1453'> +1.2900649e-12 </wgt>
<wgt id='1454'> +1.2732059e-12 </wgt>
<wgt id='1455'> +1.2880775e-12 </wgt>
<wgt id='1456'> +1.2958242e-12 </wgt>
<wgt id='1457'> +1.3033674e-12 </wgt>
<wgt id='1458'> +1.2823734e-12 </wgt>
<wgt id='1459'> +1.2914228e-12 </wgt>
<wgt id='1460'> +1.2900891e-12 </wgt>
<wgt id='1461'> +1.2884506e-12 </wgt>
<wgt id='1462'> +1.2824239e-12 </wgt>
<wgt id='1463'> +1.2969979e-12 </wgt>
<wgt id='1464'> +1.2896421e-12 </wgt>
<wgt id='1465'> +1.2450120e-12 </wgt>
<wgt id='1466'> +1.2549362e-12 </wgt>
<wgt id='1467'> +1.2645112e-12 </wgt>
<wgt id='1468'> +1.2723734e-12 </wgt>
<wgt id='1469'> +1.2813956e-12 </wgt>
<wgt id='1470'> +1.2978599e-12 </wgt>
<wgt id='1471'> +1.3038040e-12 </wgt>
<wgt id='1472'> +1.3117766e-12 </wgt>
<wgt id='1473'> +1.2896421e-12 </wgt>
<wgt id='1474'> +1.2867903e-12 </wgt>
<wgt id='1475'> +1.2876639e-12 </wgt>
<wgt id='1476'> +1.2908313e-12 </wgt>
<wgt id='1477'> +1.2919160e-12 </wgt>
<wgt id='1478'> +1.3209201e-12 </wgt>
<wgt id='1479'> +1.3197941e-12 </wgt>
<wgt id='1480'> +1.3252140e-12 </wgt>
<wgt id='1481'> +1.3311219e-12 </wgt>
<wgt id='1482'> +1.3219751e-12 </wgt>
<wgt id='1483'> +1.3006230e-12 </wgt>
<wgt id='1484'> +1.3224961e-12 </wgt>
<wgt id='1485'> +1.3290645e-12 </wgt>
<wgt id='1486'> +1.3212584e-12 </wgt>
<wgt id='1487'> +1.3082309e-12 </wgt>
<wgt id='1488'> +1.3185261e-12 </wgt>
<wgt id='1489'> +1.3235520e-12 </wgt>
<wgt id='1490'> +1.3151482e-12 </wgt>
<wgt id='1491'> +1.3273803e-12 </wgt>
<wgt id='1492'> +1.3196406e-12 </wgt>
<wgt id='1493'> +1.2986227e-12 </wgt>
<wgt id='1494'> +1.3198390e-12 </wgt>
<wgt id='1495'> +1.3206689e-12 </wgt>
<wgt id='1496'> +1.3230475e-12 </wgt>
<wgt id='1497'> +1.2985147e-12 </wgt>
<wgt id='1498'> +1.3197891e-12 </wgt>
<wgt id='1499'> +1.3224498e-12 </wgt>
<wgt id='1500'> +1.3218598e-12 </wgt>
<wgt id='1501'> +1.3221887e-12 </wgt>
<wgt id='1502'> +1.3254772e-12 </wgt>
<wgt id='1503'> +1.3251469e-12 </wgt>
<wgt id='1504'> +1.3159643e-12 </wgt>
<wgt id='1505'> +1.3216201e-12 </wgt>
<wgt id='1506'> +1.3223482e-12 </wgt>
<wgt id='1507'> +1.3188402e-12 </wgt>
<wgt id='1508'> +1.3293515e-12 </wgt>
<wgt id='1509'> +1.3247079e-12 </wgt>
<wgt id='1510'> +1.3246531e-12 </wgt>
<wgt id='1511'> +1.3186637e-12 </wgt>
<wgt id='1512'> +1.3157252e-12 </wgt>
<wgt id='1513'> +1.3285125e-12 </wgt>
<wgt id='1514'> +1.3308246e-12 </wgt>
<wgt id='1515'> +1.3251281e-12 </wgt>
<wgt id='1516'> +1.3327570e-12 </wgt>
<wgt id='1517'> +1.3306204e-12 </wgt>
<wgt id='1518'> +1.3299445e-12 </wgt>
<wgt id='1519'> +1.3176305e-12 </wgt>
<wgt id='1520'> +1.3218918e-12 </wgt>
<wgt id='1521'> +1.3312076e-12 </wgt>
<wgt id='1522'> +1.3219963e-12 </wgt>
<wgt id='1523'> +1.3310778e-12 </wgt>
<wgt id='1524'> +1.3274710e-12 </wgt>
<wgt id='1525'> +1.3311004e-12 </wgt>
<wgt id='1526'> +1.3199151e-12 </wgt>
<wgt id='1527'> +1.3210804e-12 </wgt>
<wgt id='1528'> +1.3261416e-12 </wgt>
<wgt id='1529'> +1.3235684e-12 </wgt>
<wgt id='1530'> +1.3306654e-12 </wgt>
<wgt id='1531'> +1.3265609e-12 </wgt>
<wgt id='1532'> +1.3208974e-12 </wgt>
<wgt id='1533'> +1.3244789e-12 </wgt>
<wgt id='1534'> +1.3264965e-12 </wgt>
<wgt id='1535'> +1.3169179e-12 </wgt>
<wgt id='1536'> +1.3233476e-12 </wgt>
<wgt id='1537'> +1.3281903e-12 </wgt>
<wgt id='1538'> +1.3232200e-12 </wgt>
<wgt id='1539'> +1.3121658e-12 </wgt>
<wgt id='1540'> +1.3325832e-12 </wgt>
<wgt id='1541'> +1.3331771e-12 </wgt>
<wgt id='1542'> +1.3270819e-12 </wgt>
<wgt id='1543'> +1.3190899e-12 </wgt>
<wgt id='1544'> +1.3403371e-12 </wgt>
<wgt id='1545'> +1.3307378e-12 </wgt>
<wgt id='1546'> +1.3193453e-12 </wgt>
<wgt id='1547'> +1.3310857e-12 </wgt>
<wgt id='1548'> +1.3210195e-12 </wgt>
<wgt id='1549'> +1.3259817e-12 </wgt>
<wgt id='1550'> +1.3245526e-12 </wgt>
<wgt id='1551'> +1.3273609e-12 </wgt>
<wgt id='1552'> +1.3238394e-12 </wgt>
<wgt id='1553'> +1.3273159e-12 </wgt>
<wgt id='1554'> +1.3226286e-12 </wgt>
<wgt id='1555'> +1.3247275e-12 </wgt>
<wgt id='1556'> +1.3208781e-12 </wgt>
<wgt id='1557'> +1.3292100e-12 </wgt>
<wgt id='1558'> +1.3257150e-12 </wgt>
<wgt id='1559'> +1.3263908e-12 </wgt>
<wgt id='1560'> +1.3274045e-12 </wgt>
<wgt id='1561'> +1.3227412e-12 </wgt>
<wgt id='1562'> +1.3250536e-12 </wgt>
<wgt id='1563'> +1.3271563e-12 </wgt>
<wgt id='1564'> +1.3248944e-12 </wgt>
<wgt id='1565'> +1.3237117e-12 </wgt>
<wgt id='1566'> +1.3254508e-12 </wgt>
<wgt id='1567'> +1.3294806e-12 </wgt>
<wgt id='1568'> +1.3245511e-12 </wgt>
<wgt id='1569'> +1.3235690e-12 </wgt>
<wgt id='1570'> +1.3256730e-12 </wgt>
<wgt id='1571'> +1.3242281e-12 </wgt>
<wgt id='1572'> +1.3213311e-12 </wgt>
<wgt id='1573'> +1.3175161e-12 </wgt>
<wgt id='1574'> +1.3275240e-12 </wgt>
<wgt id='1575'> +1.3270036e-12 </wgt>
<wgt id='1576'> +1.3242042e-12 </wgt>
<wgt id='1577'> +1.3260312e-12 </wgt>
<wgt id='1578'> +1.3266832e-12 </wgt>
<wgt id='1579'> +1.3235035e-12 </wgt>
<wgt id='1580'> +1.3223780e-12 </wgt>
<wgt id='1581'> +1.3242945e-12 </wgt>
<wgt id='1582'> +1.3256708e-12 </wgt>
<wgt id='1583'> +1.3254085e-12 </wgt>
<wgt id='1584'> +1.3266130e-12 </wgt>
<wgt id='1585'> +1.3227915e-12 </wgt>
<wgt id='1586'> +1.3241703e-12 </wgt>
<wgt id='1587'> +1.3258142e-12 </wgt>
<wgt id='1588'> +1.3227372e-12 </wgt>
<wgt id='1589'> +1.3272884e-12 </wgt>
<wgt id='1590'> +1.3260046e-12 </wgt>
<wgt id='1591'> +1.3252584e-12 </wgt>
<wgt id='1592'> +1.3244113e-12 </wgt>
<wgt id='1593'> +1.3246678e-12 </wgt>
<wgt id='1594'> +1.3239553e-12 </wgt>
<wgt id='1595'> +1.3271250e-12 </wgt>
<wgt id='1596'> +1.3224274e-12 </wgt>
<wgt id='1597'> +1.3242341e-12 </wgt>
<wgt id='1598'> +1.3241818e-12 </wgt>
<wgt id='1599'> +1.3209883e-12 </wgt>
<wgt id='1600'> +1.3220659e-12 </wgt>
<wgt id='1601'> +1.3234418e-12 </wgt>
<wgt id='1602'> +1.3244629e-12 </wgt>
<wgt id='1603'> +1.3257400e-12 </wgt>
<wgt id='1604'> +1.3234147e-12 </wgt>
<wgt id='1605'> +1.3255442e-12 </wgt>
<wgt id='1606'> +1.3262030e-12 </wgt>
<wgt id='1607'> +1.3239312e-12 </wgt>
<wgt id='1608'> +1.3265296e-12 </wgt>
<wgt id='1609'> +1.3259723e-12 </wgt>
<wgt id='1610'> +1.3241392e-12 </wgt>
<wgt id='1611'> +1.3294068e-12 </wgt>
<wgt id='1612'> +1.5820627e-12 </wgt>
<wgt id='1613'> +1.6250033e-12 </wgt>
<wgt id='1614'> +1.5918933e-12 </wgt>
<wgt id='1615'> +1.5738977e-12 </wgt>
<wgt id='1616'> +1.5625423e-12 </wgt>
<wgt id='1617'> +1.6133529e-12 </wgt>
<wgt id='1618'> +1.6886090e-12 </wgt>
<wgt id='1619'> +1.5654801e-12 </wgt>
<wgt id='1620'> +1.5021958e-12 </wgt>
<wgt id='1621'> +1.6306147e-12 </wgt>
<wgt id='1622'> +1.5495862e-12 </wgt>
<wgt id='1623'> +1.6233753e-12 </wgt>
<wgt id='1624'> +1.5848232e-12 </wgt>
<wgt id='1625'> +1.6101468e-12 </wgt>
<wgt id='1626'> +1.5314255e-12 </wgt>
<wgt id='1627'> +1.6010916e-12 </wgt>
<wgt id='1628'> +1.6686817e-12 </wgt>
<wgt id='1629'> +1.6172492e-12 </wgt>
<wgt id='1630'> +1.5237385e-12 </wgt>
<wgt id='1631'> +1.5764894e-12 </wgt>
<wgt id='1632'> +1.5154347e-12 </wgt>
<wgt id='1633'> +1.5093805e-12 </wgt>
<wgt id='1634'> +1.6038401e-12 </wgt>
<wgt id='1635'> +1.5519894e-12 </wgt>
<wgt id='1636'> +1.6274681e-12 </wgt>
<wgt id='1637'> +1.5582598e-12 </wgt>
<wgt id='1638'> +1.5949334e-12 </wgt>
<wgt id='1639'> +1.5254854e-12 </wgt>
<wgt id='1640'> +1.5131868e-12 </wgt>
<wgt id='1641'> +1.5801938e-12 </wgt>
<wgt id='1642'> +1.5089768e-12 </wgt>
<wgt id='1643'> +1.6537515e-12 </wgt>
<wgt id='1644'> +1.5271638e-12 </wgt>
<wgt id='1645'> +1.5813853e-12 </wgt>
<wgt id='1646'> +1.5404199e-12 </wgt>
<wgt id='1647'> +1.6006158e-12 </wgt>
<wgt id='1648'> +1.5642173e-12 </wgt>
<wgt id='1649'> +1.6770173e-12 </wgt>
<wgt id='1650'> +1.5670337e-12 </wgt>
<wgt id='1651'> +1.5441535e-12 </wgt>
<wgt id='1652'> +1.5620242e-12 </wgt>
<wgt id='1653'> +1.6281178e-12 </wgt>
<wgt id='1654'> +1.6571382e-12 </wgt>
<wgt id='1655'> +1.6277116e-12 </wgt>
<wgt id='1656'> +1.5718728e-12 </wgt>
<wgt id='1657'> +1.6003887e-12 </wgt>
<wgt id='1658'> +1.5230010e-12 </wgt>
<wgt id='1659'> +1.5848232e-12 </wgt>
<wgt id='1660'> +1.6374984e-12 </wgt>
<wgt id='1661'> +1.6040403e-12 </wgt>
<wgt id='1662'> +1.5572020e-12 </wgt>
<wgt id='1663'> +1.5445993e-12 </wgt>
<wgt id='1664'> +1.6027570e-12 </wgt>
<wgt id='1665'> +1.5260406e-12 </wgt>
<wgt id='1666'> +1.5833548e-12 </wgt>
<wgt id='1667'> +1.5926010e-12 </wgt>
<wgt id='1668'> +1.6019014e-12 </wgt>
<wgt id='1669'> +1.5991137e-12 </wgt>
<wgt id='1670'> +1.5650114e-12 </wgt>
<wgt id='1671'> +1.5676230e-12 </wgt>
<wgt id='1672'> +1.5904191e-12 </wgt>
<wgt id='1673'> +1.5596871e-12 </wgt>
<wgt id='1674'> +1.5694581e-12 </wgt>
<wgt id='1675'> +1.6361561e-12 </wgt>
<wgt id='1676'> +1.6380933e-12 </wgt>
<wgt id='1677'> +1.5465497e-12 </wgt>
<wgt id='1678'> +1.5299589e-12 </wgt>
<wgt id='1679'> +1.5366404e-12 </wgt>
<wgt id='1680'> +1.6687953e-12 </wgt>
<wgt id='1681'> +1.6007575e-12 </wgt>
<wgt id='1682'> +1.5780044e-12 </wgt>
<wgt id='1683'> +1.5680444e-12 </wgt>
<wgt id='1684'> +1.5780599e-12 </wgt>
<wgt id='1685'> +1.5959134e-12 </wgt>
<wgt id='1686'> +1.6001141e-12 </wgt>
<wgt id='1687'> +1.5949256e-12 </wgt>
<wgt id='1688'> +1.5288593e-12 </wgt>
<wgt id='1689'> +1.5384481e-12 </wgt>
<wgt id='1690'> +1.5627913e-12 </wgt>
<wgt id='1691'> +1.5894349e-12 </wgt>
<wgt id='1692'> +1.5946706e-12 </wgt>
<wgt id='1693'> +1.5323888e-12 </wgt>
<wgt id='1694'> +1.6225759e-12 </wgt>
<wgt id='1695'> +1.5441522e-12 </wgt>
<wgt id='1696'> +1.5478515e-12 </wgt>
<wgt id='1697'> +1.5868848e-12 </wgt>
<wgt id='1698'> +1.5759334e-12 </wgt>
<wgt id='1699'> +1.5955779e-12 </wgt>
<wgt id='1700'> +1.6046521e-12 </wgt>
<wgt id='1701'> +1.5695232e-12 </wgt>
<wgt id='1702'> +1.6126280e-12 </wgt>
<wgt id='1703'> +1.5662639e-12 </wgt>
<wgt id='1704'> +1.6251958e-12 </wgt>
<wgt id='1705'> +1.4909132e-12 </wgt>
<wgt id='1706'> +1.6172002e-12 </wgt>
<wgt id='1707'> +1.5863083e-12 </wgt>
<wgt id='1708'> +1.6117654e-12 </wgt>
<wgt id='1709'> +1.6142486e-12 </wgt>
<wgt id='1710'> +1.5503207e-12 </wgt>
<wgt id='1711'> +1.5857668e-12 </wgt>
<wgt id='1712'> +1.6414271e-12 </wgt>
<wgt id='1713'> +1.3031982e-12 </wgt>
<wgt id='1714'> +1.2124124e-12 </wgt>
<wgt id='1715'> +1.2553059e-12 </wgt>
<wgt id='1716'> +1.3017799e-12 </wgt>
<wgt id='1717'> +1.3049244e-12 </wgt>
<wgt id='1718'> +1.3318486e-12 </wgt>
<wgt id='1719'> +1.2760152e-12 </wgt>
<wgt id='1720'> +1.3422914e-12 </wgt>
<wgt id='1721'> +1.3015784e-12 </wgt>
<wgt id='1722'> +1.3080566e-12 </wgt>
<wgt id='1723'> +1.3569930e-12 </wgt>
<wgt id='1724'> +1.2703335e-12 </wgt>
<wgt id='1725'> +1.3018112e-12 </wgt>
<wgt id='1726'> +1.3517684e-12 </wgt>
<wgt id='1727'> +1.3259427e-12 </wgt>
<wgt id='1728'> +1.2869082e-12 </wgt>
<wgt id='1729'> +1.2892751e-12 </wgt>
<wgt id='1730'> +1.2901003e-12 </wgt>
<wgt id='1731'> +1.2491356e-12 </wgt>
<wgt id='1732'> +1.3119164e-12 </wgt>
<wgt id='1733'> +1.3418663e-12 </wgt>
<wgt id='1734'> +1.3412006e-12 </wgt>
<wgt id='1735'> +1.3265298e-12 </wgt>
<wgt id='1736'> +1.3486490e-12 </wgt>
<wgt id='1737'> +1.3875180e-12 </wgt>
<wgt id='1738'> +1.3117437e-12 </wgt>
<wgt id='1739'> +1.3317282e-12 </wgt>
<wgt id='1740'> +1.2727984e-12 </wgt>
<wgt id='1741'> +1.3248884e-12 </wgt>
<wgt id='1742'> +1.3006790e-12 </wgt>
<wgt id='1743'> +1.3366333e-12 </wgt>
<wgt id='1744'> +1.3672215e-12 </wgt>
<wgt id='1745'> +1.3152114e-12 </wgt>
<wgt id='1746'> +1.3254001e-12 </wgt>
<wgt id='1747'> +1.3198728e-12 </wgt>
<wgt id='1748'> +1.3273485e-12 </wgt>
<wgt id='1749'> +1.2993922e-12 </wgt>
<wgt id='1750'> +1.3262478e-12 </wgt>
<wgt id='1751'> +1.3044711e-12 </wgt>
<wgt id='1752'> +1.2768854e-12 </wgt>
<wgt id='1753'> +1.3242215e-12 </wgt>
<wgt id='1754'> +1.2341721e-12 </wgt>
<wgt id='1755'> +1.2847139e-12 </wgt>
<wgt id='1756'> +1.3463026e-12 </wgt>
<wgt id='1757'> +1.3045640e-12 </wgt>
<wgt id='1758'> +1.3510422e-12 </wgt>
<wgt id='1759'> +1.2490735e-12 </wgt>
<wgt id='1760'> +1.2719963e-12 </wgt>
<wgt id='1761'> +1.2951707e-12 </wgt>
<wgt id='1762'> +1.3329695e-12 </wgt>
<wgt id='1763'> +1.3042131e-12 </wgt>
<wgt id='1764'> +1.3048807e-12 </wgt>
<wgt id='1765'> +1.3058603e-12 </wgt>
<wgt id='1766'> +1.3625881e-12 </wgt>
<wgt id='1767'> +1.3102278e-12 </wgt>
<wgt id='1768'> +1.3221551e-12 </wgt>
<wgt id='1769'> +1.2716948e-12 </wgt>
<wgt id='1770'> +1.2387975e-12 </wgt>
<wgt id='1771'> +1.3045955e-12 </wgt>
<wgt id='1772'> +1.3253264e-12 </wgt>
<wgt id='1773'> +1.3279701e-12 </wgt>
<wgt id='1774'> +1.2874663e-12 </wgt>
<wgt id='1775'> +1.2940973e-12 </wgt>
<wgt id='1776'> +1.2891649e-12 </wgt>
<wgt id='1777'> +1.2260465e-12 </wgt>
<wgt id='1778'> +1.2828373e-12 </wgt>
<wgt id='1779'> +1.3461816e-12 </wgt>
<wgt id='1780'> +1.3160556e-12 </wgt>
<wgt id='1781'> +1.3175079e-12 </wgt>
<wgt id='1782'> +1.3240092e-12 </wgt>
<wgt id='1783'> +1.3467362e-12 </wgt>
<wgt id='1784'> +1.2931600e-12 </wgt>
<wgt id='1785'> +1.3059346e-12 </wgt>
<wgt id='1786'> +1.2329699e-12 </wgt>
<wgt id='1787'> +1.3375069e-12 </wgt>
<wgt id='1788'> +1.2540037e-12 </wgt>
<wgt id='1789'> +1.3517634e-12 </wgt>
<wgt id='1790'> +1.3228497e-12 </wgt>
<wgt id='1791'> +1.2817496e-12 </wgt>
<wgt id='1792'> +1.2764241e-12 </wgt>
<wgt id='1793'> +1.3463345e-12 </wgt>
<wgt id='1794'> +1.3057786e-12 </wgt>
<wgt id='1795'> +1.3251717e-12 </wgt>
<wgt id='1796'> +1.2604290e-12 </wgt>
<wgt id='1797'> +1.2953638e-12 </wgt>
<wgt id='1798'> +1.2880929e-12 </wgt>
<wgt id='1799'> +1.2582269e-12 </wgt>
<wgt id='1800'> +1.2787196e-12 </wgt>
<wgt id='1801'> +1.2618105e-12 </wgt>
<wgt id='1802'> +1.2613401e-12 </wgt>
<wgt id='1803'> +1.3280203e-12 </wgt>
<wgt id='1804'> +1.3107787e-12 </wgt>
<wgt id='1805'> +1.3454980e-12 </wgt>
<wgt id='1806'> +1.2843718e-12 </wgt>
<wgt id='1807'> +1.2486728e-12 </wgt>
<wgt id='1808'> +1.2790540e-12 </wgt>
<wgt id='1809'> +1.2898624e-12 </wgt>
<wgt id='1810'> +1.2973620e-12 </wgt>
<wgt id='1811'> +1.3147697e-12 </wgt>
<wgt id='1812'> +1.2766072e-12 </wgt>
<wgt id='1813'> +1.2555795e-12 </wgt>
<wgt id='1814'> +1.6709910e-12 </wgt>
<wgt id='1815'> +1.9454302e-12 </wgt>
<wgt id='1816'> +1.3031982e-12 </wgt>
<wgt id='1817'> +1.2124124e-12 </wgt>
<wgt id='1818'> +1.2553059e-12 </wgt>
<wgt id='1819'> +1.3017799e-12 </wgt>
<wgt id='1820'> +1.3049244e-12 </wgt>
<wgt id='1821'> +1.3318486e-12 </wgt>
<wgt id='1822'> +1.2760152e-12 </wgt>
<wgt id='1823'> +1.3422914e-12 </wgt>
<wgt id='1824'> +1.3015784e-12 </wgt>
<wgt id='1825'> +1.3080566e-12 </wgt>
<wgt id='1826'> +1.3569930e-12 </wgt>
<wgt id='1827'> +1.2703335e-12 </wgt>
<wgt id='1828'> +1.3018112e-12 </wgt>
<wgt id='1829'> +1.3517684e-12 </wgt>
<wgt id='1830'> +1.3259427e-12 </wgt>
<wgt id='1831'> +1.2869082e-12 </wgt>
<wgt id='1832'> +1.2892751e-12 </wgt>
<wgt id='1833'> +1.2901003e-12 </wgt>
<wgt id='1834'> +1.2491356e-12 </wgt>
<wgt id='1835'> +1.3119164e-12 </wgt>
<wgt id='1836'> +1.3418663e-12 </wgt>
<wgt id='1837'> +1.3412006e-12 </wgt>
<wgt id='1838'> +1.3265298e-12 </wgt>
<wgt id='1839'> +1.3486490e-12 </wgt>
<wgt id='1840'> +1.3875180e-12 </wgt>
<wgt id='1841'> +1.3117437e-12 </wgt>
<wgt id='1842'> +1.3317282e-12 </wgt>
<wgt id='1843'> +1.2727984e-12 </wgt>
<wgt id='1844'> +1.3248884e-12 </wgt>
<wgt id='1845'> +1.3006790e-12 </wgt>
<wgt id='1846'> +1.3366333e-12 </wgt>
<wgt id='1847'> +1.3672215e-12 </wgt>
<wgt id='1848'> +1.3152114e-12 </wgt>
<wgt id='1849'> +1.3254001e-12 </wgt>
<wgt id='1850'> +1.3198728e-12 </wgt>
<wgt id='1851'> +1.3273485e-12 </wgt>
<wgt id='1852'> +1.2993922e-12 </wgt>
<wgt id='1853'> +1.3262478e-12 </wgt>
<wgt id='1854'> +1.3044711e-12 </wgt>
<wgt id='1855'> +1.2768854e-12 </wgt>
<wgt id='1856'> +1.3242215e-12 </wgt>
<wgt id='1857'> +1.2341721e-12 </wgt>
<wgt id='1858'> +1.2847139e-12 </wgt>
<wgt id='1859'> +1.3463026e-12 </wgt>
<wgt id='1860'> +1.3045640e-12 </wgt>
<wgt id='1861'> +1.3510422e-12 </wgt>
<wgt id='1862'> +1.2490735e-12 </wgt>
<wgt id='1863'> +1.2719963e-12 </wgt>
<wgt id='1864'> +1.2951707e-12 </wgt>
<wgt id='1865'> +1.3329695e-12 </wgt>
<wgt id='1866'> +1.3042131e-12 </wgt>
<wgt id='1867'> +1.3048807e-12 </wgt>
<wgt id='1868'> +1.3058603e-12 </wgt>
<wgt id='1869'> +1.3625881e-12 </wgt>
<wgt id='1870'> +1.3102278e-12 </wgt>
<wgt id='1871'> +1.3221551e-12 </wgt>
<wgt id='1872'> +1.2716948e-12 </wgt>
<wgt id='1873'> +1.2387975e-12 </wgt>
<wgt id='1874'> +1.3045955e-12 </wgt>
<wgt id='1875'> +1.3253264e-12 </wgt>
<wgt id='1876'> +1.3279701e-12 </wgt>
<wgt id='1877'> +1.2874663e-12 </wgt>
<wgt id='1878'> +1.2940973e-12 </wgt>
<wgt id='1879'> +1.2891649e-12 </wgt>
<wgt id='1880'> +1.2260465e-12 </wgt>
<wgt id='1881'> +1.2828373e-12 </wgt>
<wgt id='1882'> +1.3461816e-12 </wgt>
<wgt id='1883'> +1.3160556e-12 </wgt>
<wgt id='1884'> +1.3175079e-12 </wgt>
<wgt id='1885'> +1.3240092e-12 </wgt>
<wgt id='1886'> +1.3467362e-12 </wgt>
<wgt id='1887'> +1.2931600e-12 </wgt>
<wgt id='1888'> +1.3059346e-12 </wgt>
<wgt id='1889'> +1.2329699e-12 </wgt>
<wgt id='1890'> +1.3375069e-12 </wgt>
<wgt id='1891'> +1.2540037e-12 </wgt>
<wgt id='1892'> +1.3517634e-12 </wgt>
<wgt id='1893'> +1.3228497e-12 </wgt>
<wgt id='1894'> +1.2817496e-12 </wgt>
<wgt id='1895'> +1.2764241e-12 </wgt>
<wgt id='1896'> +1.3463345e-12 </wgt>
<wgt id='1897'> +1.3057786e-12 </wgt>
<wgt id='1898'> +1.3251717e-12 </wgt>
<wgt id='1899'> +1.2604290e-12 </wgt>
<wgt id='1900'> +1.2953638e-12 </wgt>
<wgt id='1901'> +1.2880929e-12 </wgt>
<wgt id='1902'> +1.2582269e-12 </wgt>
<wgt id='1903'> +1.2787196e-12 </wgt>
<wgt id='1904'> +1.2618105e-12 </wgt>
<wgt id='1905'> +1.2613401e-12 </wgt>
<wgt id='1906'> +1.3280203e-12 </wgt>
<wgt id='1907'> +1.3107787e-12 </wgt>
<wgt id='1908'> +1.3454980e-12 </wgt>
<wgt id='1909'> +1.2843718e-12 </wgt>
<wgt id='1910'> +1.2486728e-12 </wgt>
<wgt id='1911'> +1.2790540e-12 </wgt>
<wgt id='1912'> +1.2898624e-12 </wgt>
<wgt id='1913'> +1.2973620e-12 </wgt>
<wgt id='1914'> +1.3147697e-12 </wgt>
<wgt id='1915'> +1.2766072e-12 </wgt>
<wgt id='1916'> +1.2555795e-12 </wgt>
<wgt id='1917'> +1.2946109e-12 </wgt>
<wgt id='1918'> +1.3098794e-12 </wgt>
<wgt id='1919'> +1.2687612e-12 </wgt>
</rwgt>
</event>
<event>
 9      1 +1.5607000e-12 7.38465200e+01 7.81860800e-03 1.22295100e-01
       21 -1    0    0  501  502 +0.0000000000e+00 +0.0000000000e+00 +6.8360614008e+01 6.8360614008e+01 0.0000000000e+00 0.0000e+00 1.0000e+00
       -4 -1    0    0    0  501 -0.0000000000e+00 -0.0000000000e+00 -7.9119366497e+01 7.9132108242e+01 1.4200000000e+00 0.0000e+00 1.0000e+00
     1023  2    1    2    0    0 +2.7754038507e+01 -6.6768405030e+01 -1.3724121931e+01 7.5110981600e+01 1.5000049016e+01 0.0000e+00 0.0000e+00
  1000023  2    3    3    0    0 +6.0303759875e+00 -1.6759760997e+01 +9.5280340778e-02 1.8641893858e+01 5.5005549766e+00 0.0000e+00 0.0000e+00
       -4  1    1    2    0  502 -2.7754038507e+01 +6.6768405030e+01 +2.9653694425e+00 7.2381740651e+01 1.4200000000e+00 0.0000e+00 1.0000e+00
  1000022  1    4    4    0    0 +5.3373163845e+00 -1.4020748490e+01 -4.3063109907e-03 1.5813549663e+01 5.0000000000e+00 0.0000e+00 1.0000e+00
      -11  1    4    4    0    0 +4.2775575519e-01 -1.7194786276e+00 +2.2321065140e-02 1.7720271521e+00 5.1100000000e-04 0.0000e+00 -1.0000e+00
       11  1    4    4    0    0 +2.6530384777e-01 -1.0195338794e+00 +7.7265586628e-02 1.0563170428e+00 5.1100000000e-04 0.0000e+00 1.0000e+00
  1000022  1    3    3    0    0 +2.1723662519e+01 -5.0008644033e+01 -1.3819402272e+01 5.6469087742e+01 5.0000000000e+00 0.0000e+00 1.0000e+00
<mgrwt>
<rscale>  1 0.73846517E+02</rscale>
<asrwt>0</asrwt>
<pdfrwt beam="1">  1       21 0.10517018E-01 0.73846517E+02</pdfrwt>
<pdfrwt beam="2">  1       -4 0.12174325E-01 0.73846517E+02</pdfrwt>
<totfact> 0.20411490E+05</totfact>
</mgrwt>
<rwgt>
<wgt id='1001'> +1.5607000e-12 </wgt>
<wgt id='1002'> +1.5453060e-12 </wgt>
<wgt id='1003'> +1.5453021e-12 </wgt>
<wgt id='1004'> +1.5607115e-12 </wgt>
<wgt id='1005'> +1.5449145e-12 </wgt>
<wgt id='1006'> +1.3944030e-12 </wgt>
<wgt id='1007'> +1.3970262e-12 </wgt>
<wgt id='1008'> +1.3970248e-12 </wgt>
<wgt id='1009'> +1.3940470e-12 </wgt>
<wgt id='1010'> +1.3968812e-12 </wgt>
<wgt id='1011'> +1.7738807e-12 </wgt>
<wgt id='1012'> +1.7300573e-12 </wgt>
<wgt id='1013'> +1.7300498e-12 </wgt>
<wgt id='1014'> +1.7744989e-12 </wgt>
<wgt id='1015'> +1.7292967e-12 </wgt>
<wgt id='1016'> +1.7289760e-12 </wgt>
<wgt id='1017'> +1.6684241e-12 </wgt>
<wgt id='1018'> +1.6684149e-12 </wgt>
<wgt id='1019'> +1.7300498e-12 </wgt>
<wgt id='1020'> +1.6674989e-12 </wgt>
<wgt id='1021'> +1.5447488e-12 </wgt>
<wgt id='1022'> +1.5083305e-12 </wgt>
<wgt id='1023'> +1.5083245e-12 </wgt>
<wgt id='1024'> +1.5453021e-12 </wgt>
<wgt id='1025'> +1.5077196e-12 </wgt>
<wgt id='1026'> +1.9651421e-12 </wgt>
<wgt id='1027'> +1.8678950e-12 </wgt>
<wgt id='1028'> +1.8678813e-12 </wgt>
<wgt id='1029'> +1.9670332e-12 </wgt>
<wgt id='1030'> +1.8665113e-12 </wgt>
<wgt id='1031'> +1.3549558e-12 </wgt>
<wgt id='1032'> +1.3940445e-12 </wgt>
<wgt id='1033'> +1.3940470e-12 </wgt>
<wgt id='1034'> +1.3536907e-12 </wgt>
<wgt id='1035'> +1.3942984e-12 </wgt>
<wgt id='1036'> +1.2105815e-12 </wgt>
<wgt id='1037'> +1.2602790e-12 </wgt>
<wgt id='1038'> +1.2602832e-12 </wgt>
<wgt id='1039'> +1.2091334e-12 </wgt>
<wgt id='1040'> +1.2606971e-12 </wgt>
<wgt id='1041'> +1.5400334e-12 </wgt>
<wgt id='1042'> +1.5607115e-12 </wgt>
<wgt id='1043'> +1.5607115e-12 </wgt>
<wgt id='1044'> +1.5391201e-12 </wgt>
<wgt id='1045'> +1.5607048e-12 </wgt>
<wgt id='1046'> +1.5607000e-12 </wgt>
<wgt id='1047'> +1.4270575e-12 </wgt>
<wgt id='1048'> +1.5612821e-12 </wgt>
<wgt id='1049'> +1.6261301e-12 </wgt>
<wgt id='1050'> +1.5784803e-12 </wgt>
<wgt id='1051'> +1.5817638e-12 </wgt>
<wgt id='1052'> +1.4888402e-12 </wgt>
<wgt id='1053'> +1.5610678e-12 </wgt>
<wgt id='1054'> +1.5949173e-12 </wgt>
<wgt id='1055'> +1.6606354e-12 </wgt>
<wgt id='1056'> +1.6141618e-12 </wgt>
<wgt id='1057'> +1.5646736e-12 </wgt>
<wgt id='1058'> +1.5431489e-12 </wgt>
<wgt id='1059'> +1.5659361e-12 </wgt>
<wgt id='1060'> +1.5199643e-12 </wgt>
<wgt id='1061'> +1.6303378e-12 </wgt>
<wgt id='1062'> +1.5911144e-12 </wgt>
<wgt id='1063'> +1.6088008e-12 </wgt>
<wgt id='1064'> +1.5455835e-12 </wgt>
<wgt id='1065'> +1.5534159e-12 </wgt>
<wgt id='1066'> +1.6450978e-12 </wgt>
<wgt id='1067'> +1.5668423e-12 </wgt>
<wgt id='1068'> +1.5266553e-12 </wgt>
<wgt id='1069'> +1.5317846e-12 </wgt>
<wgt id='1070'> +1.5339359e-12 </wgt>
<wgt id='1071'> +1.5974919e-12 </wgt>
<wgt id='1072'> +1.5634891e-12 </wgt>
<wgt id='1073'> +1.5643261e-12 </wgt>
<wgt id='1074'> +1.5306515e-12 </wgt>
<wgt id='1075'> +1.5803623e-12 </wgt>
<wgt id='1076'> +1.6124454e-12 </wgt>
<wgt id='1077'> +1.4977770e-12 </wgt>
<wgt id='1078'> +1.5958798e-12 </wgt>
<wgt id='1079'> +1.5224473e-12 </wgt>
<wgt id='1080'> +1.5335359e-12 </wgt>
<wgt id='1081'> +1.5716543e-12 </wgt>
<wgt id='1082'> +1.5419861e-12 </wgt>
<wgt id='1083'> +1.5720691e-12 </wgt>
<wgt id='1084'> +1.5811083e-12 </wgt>
<wgt id='1085'> +1.5509710e-12 </wgt>
<wgt id='1086'> +1.5572136e-12 </wgt>
<wgt id='1087'> +1.5842547e-12 </wgt>
<wgt id='1088'> +1.4831240e-12 </wgt>
<wgt id='1089'> +1.5097126e-12 </wgt>
<wgt id='1090'> +1.4882314e-12 </wgt>
<wgt id='1091'> +1.5355842e-12 </wgt>
<wgt id='1092'> +1.5044926e-12 </wgt>
<wgt id='1093'> +1.4973911e-12 </wgt>
<wgt id='1094'> +1.5324258e-12 </wgt>
<wgt id='1095'> +1.5577655e-12 </wgt>
<wgt id='1096'> +1.5516416e-12 </wgt>
<wgt id='1097'> +1.5291688e-12 </wgt>
<wgt id='1098'> +1.5988092e-12 </wgt>
<wgt id='1099'> +1.5799116e-12 </wgt>
<wgt id='1100'> +1.4933598e-12 </wgt>
<wgt id='1101'> +1.4931277e-12 </wgt>
<wgt id='1102'> +1.5344530e-12 </wgt>
<wgt id='1103'> +1.4965832e-12 </wgt>
<wgt id='1104'> +1.5693298e-12 </wgt>
<wgt id='1105'> +1.6675744e-12 </wgt>
<wgt id='1106'> +1.5257344e-12 </wgt>
<wgt id='1107'> +1.5420075e-12 </wgt>
<wgt id='1108'> +1.5752323e-12 </wgt>
<wgt id='1109'> +1.5152721e-12 </wgt>
<wgt id='1110'> +1.5737443e-12 </wgt>
<wgt id='1111'> +1.5478253e-12 </wgt>
<wgt id='1112'> +1.5002469e-12 </wgt>
<wgt id='1113'> +1.4494873e-12 </wgt>
<wgt id='1114'> +1.6051881e-12 </wgt>
<wgt id='1115'> +1.5486745e-12 </wgt>
<wgt id='1116'> +1.5272451e-12 </wgt>
<wgt id='1117'> +1.6584356e-12 </wgt>
<wgt id='1118'> +1.5477216e-12 </wgt>
<wgt id='1119'> +1.6764612e-12 </wgt>
<wgt id='1120'> +1.6892348e-12 </wgt>
<wgt id='1121'> +1.6011707e-12 </wgt>
<wgt id='1122'> +1.5153571e-12 </wgt>
<wgt id='1123'> +1.6480224e-12 </wgt>
<wgt id='1124'> +1.5809663e-12 </wgt>
<wgt id='1125'> +1.5928279e-12 </wgt>
<wgt id='1126'> +1.5175241e-12 </wgt>
<wgt id='1127'> +1.5080460e-12 </wgt>
<wgt id='1128'> +1.5911144e-12 </wgt>
<wgt id='1129'> +1.5180118e-12 </wgt>
<wgt id='1130'> +1.6005294e-12 </wgt>
<wgt id='1131'> +1.5847808e-12 </wgt>
<wgt id='1132'> +1.4306575e-12 </wgt>
<wgt id='1133'> +1.5862811e-12 </wgt>
<wgt id='1134'> +1.5455381e-12 </wgt>
<wgt id='1135'> +1.7309908e-12 </wgt>
<wgt id='1136'> +1.5216463e-12 </wgt>
<wgt id='1137'> +1.5247262e-12 </wgt>
<wgt id='1138'> +1.6492115e-12 </wgt>
<wgt id='1139'> +1.6076210e-12 </wgt>
<wgt id='1140'> +1.5988696e-12 </wgt>
<wgt id='1141'> +1.5226367e-12 </wgt>
<wgt id='1142'> +1.5482614e-12 </wgt>
<wgt id='1143'> +1.4706356e-12 </wgt>
<wgt id='1144'> +1.6147405e-12 </wgt>
<wgt id='1145'> +1.6165662e-12 </wgt>
<wgt id='1146'> +1.5821295e-12 </wgt>
<wgt id='1147'> +1.3561773e-12 </wgt>
<wgt id='1148'> +1.3835863e-12 </wgt>
<wgt id='1149'> +1.3951435e-12 </wgt>
<wgt id='1150'> +1.3752936e-12 </wgt>
<wgt id='1151'> +1.0216221e-12 </wgt>
<wgt id='1152'> +1.4350205e-12 </wgt>
<wgt id='1153'> +1.4292365e-12 </wgt>
<wgt id='1154'> +1.4383477e-12 </wgt>
<wgt id='1155'> +1.4357358e-12 </wgt>
<wgt id='1156'> +1.4346673e-12 </wgt>
<wgt id='1157'> +1.4313400e-12 </wgt>
<wgt id='1158'> +1.4398813e-12 </wgt>
<wgt id='1159'> +1.4319651e-12 </wgt>
<wgt id='1160'> +1.4369344e-12 </wgt>
<wgt id='1161'> +1.4278737e-12 </wgt>
<wgt id='1162'> +1.4398839e-12 </wgt>
<wgt id='1163'> +1.4397665e-12 </wgt>
<wgt id='1164'> +1.4303020e-12 </wgt>
<wgt id='1165'> +1.4237921e-12 </wgt>
<wgt id='1166'> +1.4457177e-12 </wgt>
<wgt id='1167'> +1.4400261e-12 </wgt>
<wgt id='1168'> +1.4259136e-12 </wgt>
<wgt id='1169'> +1.4377059e-12 </wgt>
<wgt id='1170'> +1.4329117e-12 </wgt>
<wgt id='1171'> +1.4336219e-12 </wgt>
<wgt id='1172'> +1.4367072e-12 </wgt>
<wgt id='1173'> +1.4295418e-12 </wgt>
<wgt id='1174'> +1.4398527e-12 </wgt>
<wgt id='1175'> +1.4329821e-12 </wgt>
<wgt id='1176'> +1.4355792e-12 </wgt>
<wgt id='1177'> +1.4352666e-12 </wgt>
<wgt id='1178'> +1.4346424e-12 </wgt>
<wgt id='1179'> +1.4537041e-12 </wgt>
<wgt id='1180'> +1.4118079e-12 </wgt>
<wgt id='1181'> +1.4271113e-12 </wgt>
<wgt id='1182'> +1.4424880e-12 </wgt>
<wgt id='1183'> +1.4343077e-12 </wgt>
<wgt id='1184'> +1.4351310e-12 </wgt>
<wgt id='1185'> +1.4368693e-12 </wgt>
<wgt id='1186'> +1.4340704e-12 </wgt>
<wgt id='1187'> +1.4342094e-12 </wgt>
<wgt id='1188'> +1.4352603e-12 </wgt>
<wgt id='1189'> +1.4339100e-12 </wgt>
<wgt id='1190'> +1.4245457e-12 </wgt>
<wgt id='1191'> +1.4173609e-12 </wgt>
<wgt id='1192'> +1.4413932e-12 </wgt>
<wgt id='1193'> +1.4157554e-12 </wgt>
<wgt id='1194'> +1.4195204e-12 </wgt>
<wgt id='1195'> +1.4126570e-12 </wgt>
<wgt id='1196'> +1.4184087e-12 </wgt>
<wgt id='1197'> +1.4128556e-12 </wgt>
<wgt id='1198'> +1.4179978e-12 </wgt>
<wgt id='1199'> +1.4124184e-12 </wgt>
<wgt id='1200'> +1.4175080e-12 </wgt>
<wgt id='1201'> +1.4145964e-12 </wgt>
<wgt id='1202'> +1.4124421e-12 </wgt>
<wgt id='1203'> +1.4205301e-12 </wgt>
<wgt id='1204'> +1.3963686e-12 </wgt>
<wgt id='1205'> +1.4277781e-12 </wgt>
<wgt id='1206'> +1.4214165e-12 </wgt>
<wgt id='1207'> +1.4080880e-12 </wgt>
<wgt id='1208'> +1.4076272e-12 </wgt>
<wgt id='1209'> +1.4187183e-12 </wgt>
<wgt id='1210'> +1.4277382e-12 </wgt>
<wgt id='1211'> +1.3965349e-12 </wgt>
<wgt id='1212'> +1.4116614e-12 </wgt>
<wgt id='1213'> +1.4196171e-12 </wgt>
<wgt id='1214'> +1.4091814e-12 </wgt>
<wgt id='1215'> +1.4261314e-12 </wgt>
<wgt id='1216'> +1.4237881e-12 </wgt>
<wgt id='1217'> +1.4105954e-12 </wgt>
<wgt id='1218'> +1.4216340e-12 </wgt>
<wgt id='1219'> +1.4128157e-12 </wgt>
<wgt id='1220'> +1.4171495e-12 </wgt>
<wgt id='1221'> +1.4166242e-12 </wgt>
<wgt id='1222'> +1.4058402e-12 </wgt>
<wgt id='1223'> +1.4337860e-12 </wgt>
<wgt id='1224'> +1.4169405e-12 </wgt>
<wgt id='1225'> +1.4152910e-12 </wgt>
<wgt id='1226'> +1.4180489e-12 </wgt>
<wgt id='1227'> +1.4144098e-12 </wgt>
<wgt id='1228'> +1.4101801e-12 </wgt>
<wgt id='1229'> +1.4186594e-12 </wgt>
<wgt id='1230'> +1.4168074e-12 </wgt>
<wgt id='1231'> +1.3954633e-12 </wgt>
<wgt id='1232'> +1.4111094e-12 </wgt>
<wgt id='1233'> +1.4170652e-12 </wgt>
<wgt id='1234'> +1.4157554e-12 </wgt>
<wgt id='1235'> +1.4051750e-12 </wgt>
<wgt id='1236'> +1.4091482e-12 </wgt>
<wgt id='1237'> +1.4127708e-12 </wgt>
<wgt id='1238'> +1.4191626e-12 </wgt>
<wgt id='1239'> +1.4217782e-12 </wgt>
<wgt id='1240'> +1.4242161e-12 </wgt>
<wgt id='1241'> +1.3438357e-12 </wgt>
<wgt id='1242'> +1.3442789e-12 </wgt>
<wgt id='1243'> +1.3434128e-12 </wgt>
<wgt id='1244'> +1.3360690e-12 </wgt>
<wgt id='1245'> +1.3495888e-12 </wgt>
<wgt id='1246'> +1.3457327e-12 </wgt>
<wgt id='1247'> +1.3422683e-12 </wgt>
<wgt id='1248'> +1.3436963e-12 </wgt>
<wgt id='1249'> +1.3439899e-12 </wgt>
<wgt id='1250'> +1.3401890e-12 </wgt>
<wgt id='1251'> +1.3464205e-12 </wgt>
<wgt id='1252'> +1.3405910e-12 </wgt>
<wgt id='1253'> +1.3463739e-12 </wgt>
<wgt id='1254'> +1.3231177e-12 </wgt>
<wgt id='1255'> +1.3563443e-12 </wgt>
<wgt id='1256'> +1.3494077e-12 </wgt>
<wgt id='1257'> +1.3297905e-12 </wgt>
<wgt id='1258'> +1.3575000e-12 </wgt>
<wgt id='1259'> +1.3315287e-12 </wgt>
<wgt id='1260'> +1.3482088e-12 </wgt>
<wgt id='1261'> +1.3388012e-12 </wgt>
<wgt id='1262'> +1.3470917e-12 </wgt>
<wgt id='1263'> +1.3423252e-12 </wgt>
<wgt id='1264'> +1.3515024e-12 </wgt>
<wgt id='1265'> +1.3400226e-12 </wgt>
<wgt id='1266'> +1.3455889e-12 </wgt>
<wgt id='1267'> +1.3433842e-12 </wgt>
<wgt id='1268'> +1.3421795e-12 </wgt>
<wgt id='1269'> +1.3497043e-12 </wgt>
<wgt id='1270'> +1.3378669e-12 </wgt>
<wgt id='1271'> +1.3380091e-12 </wgt>
<wgt id='1272'> +1.3456774e-12 </wgt>
<wgt id='1273'> +1.3427186e-12 </wgt>
<wgt id='1274'> +1.3440508e-12 </wgt>
<wgt id='1275'> +1.3425858e-12 </wgt>
<wgt id='1276'> +1.3454067e-12 </wgt>
<wgt id='1277'> +1.3415326e-12 </wgt>
<wgt id='1278'> +1.3410402e-12 </wgt>
<wgt id='1279'> +1.3323633e-12 </wgt>
<wgt id='1280'> +1.3455334e-12 </wgt>
<wgt id='1281'> +1.3329163e-12 </wgt>
<wgt id='1282'> +1.3438357e-12 </wgt>
<wgt id='1283'> +1.3327279e-12 </wgt>
<wgt id='1284'> +1.3368224e-12 </wgt>
<wgt id='1285'> +1.3406344e-12 </wgt>
<wgt id='1286'> +1.3468942e-12 </wgt>
<wgt id='1287'> +1.3495903e-12 </wgt>
<wgt id='1288'> +1.3518702e-12 </wgt>
<wgt id='1289'> +1.4778562e-12 </wgt>
<wgt id='1290'> +1.4786946e-12 </wgt>
<wgt id='1291'> +1.4770075e-12 </wgt>
<wgt id='1292'> +1.4789529e-12 </wgt>
<wgt id='1293'> +1.4771053e-12 </wgt>
<wgt id='1294'> +1.4837747e-12 </wgt>
<wgt id='1295'> +1.4722263e-12 </wgt>
<wgt id='1296'> +1.4704445e-12 </wgt>
<wgt id='1297'> +1.4871157e-12 </wgt>
<wgt id='1298'> +1.4836522e-12 </wgt>
<wgt id='1299'> +1.4707087e-12 </wgt>
<wgt id='1300'> +1.4814701e-12 </wgt>
<wgt id='1301'> +1.4707181e-12 </wgt>
<wgt id='1302'> +1.4769282e-12 </wgt>
<wgt id='1303'> +1.4791898e-12 </wgt>
<wgt id='1304'> +1.4729090e-12 </wgt>
<wgt id='1305'> +1.4812783e-12 </wgt>
<wgt id='1306'> +1.4686654e-12 </wgt>
<wgt id='1307'> +1.4883174e-12 </wgt>
<wgt id='1308'> +1.4779769e-12 </wgt>
<wgt id='1309'> +1.4777827e-12 </wgt>
<wgt id='1310'> +1.4739796e-12 </wgt>
<wgt id='1311'> +1.4821004e-12 </wgt>
<wgt id='1312'> +1.4709667e-12 </wgt>
<wgt id='1313'> +1.4850024e-12 </wgt>
<wgt id='1314'> +1.5016707e-12 </wgt>
<wgt id='1315'> +1.4479888e-12 </wgt>
<wgt id='1316'> +1.4829323e-12 </wgt>
<wgt id='1317'> +1.4774558e-12 </wgt>
<wgt id='1318'> +1.4907391e-12 </wgt>
<wgt id='1319'> +1.4632323e-12 </wgt>
<wgt id='1320'> +1.4786021e-12 </wgt>
<wgt id='1321'> +1.4765119e-12 </wgt>
<wgt id='1322'> +1.4800492e-12 </wgt>
<wgt id='1323'> +1.4748644e-12 </wgt>
<wgt id='1324'> +1.4765959e-12 </wgt>
<wgt id='1325'> +1.4834854e-12 </wgt>
<wgt id='1326'> +1.4810035e-12 </wgt>
<wgt id='1327'> +1.4768434e-12 </wgt>
<wgt id='1328'> +1.4764653e-12 </wgt>
<wgt id='1329'> +1.4791604e-12 </wgt>
<wgt id='1330'> +1.4716024e-12 </wgt>
<wgt id='1331'> +1.4855912e-12 </wgt>
<wgt id='1332'> +1.5006216e-12 </wgt>
<wgt id='1333'> +1.4670809e-12 </wgt>
<wgt id='1334'> +1.4758839e-12 </wgt>
<wgt id='1335'> +1.4831612e-12 </wgt>
<wgt id='1336'> +1.4742994e-12 </wgt>
<wgt id='1337'> +1.4668643e-12 </wgt>
<wgt id='1338'> +1.4769220e-12 </wgt>
<wgt id='1339'> +1.4779362e-12 </wgt>
<wgt id='1340'> +1.4467046e-12 </wgt>
<wgt id='1341'> +1.4476196e-12 </wgt>
<wgt id='1342'> +1.4457036e-12 </wgt>
<wgt id='1343'> +1.4478490e-12 </wgt>
<wgt id='1344'> +1.4459634e-12 </wgt>
<wgt id='1345'> +1.4525997e-12 </wgt>
<wgt id='1346'> +1.4412564e-12 </wgt>
<wgt id='1347'> +1.4390509e-12 </wgt>
<wgt id='1348'> +1.4552552e-12 </wgt>
<wgt id='1349'> +1.4519739e-12 </wgt>
<wgt id='1350'> +1.4415207e-12 </wgt>
<wgt id='1351'> +1.4502877e-12 </wgt>
<wgt id='1352'> +1.4389230e-12 </wgt>
<wgt id='1353'> +1.4449587e-12 </wgt>
<wgt id='1354'> +1.4497955e-12 </wgt>
<wgt id='1355'> +1.4414727e-12 </wgt>
<wgt id='1356'> +1.4496316e-12 </wgt>
<wgt id='1357'> +1.4367070e-12 </wgt>
<wgt id='1358'> +1.4585239e-12 </wgt>
<wgt id='1359'> +1.4491300e-12 </wgt>
<wgt id='1360'> +1.4445986e-12 </wgt>
<wgt id='1361'> +1.4425152e-12 </wgt>
<wgt id='1362'> +1.4523230e-12 </wgt>
<wgt id='1363'> +1.4344436e-12 </wgt>
<wgt id='1364'> +1.4552932e-12 </wgt>
<wgt id='1365'> +1.4227799e-12 </wgt>
<wgt id='1366'> +1.4694793e-12 </wgt>
<wgt id='1367'> +1.4508310e-12 </wgt>
<wgt id='1368'> +1.4467038e-12 </wgt>
<wgt id='1369'> +1.4574369e-12 </wgt>
<wgt id='1370'> +1.4342790e-12 </wgt>
<wgt id='1371'> +1.4474642e-12 </wgt>
<wgt id='1372'> +1.4452804e-12 </wgt>
<wgt id='1373'> +1.4503236e-12 </wgt>
<wgt id='1374'> +1.4429237e-12 </wgt>
<wgt id='1375'> +1.4455438e-12 </wgt>
<wgt id='1376'> +1.4523481e-12 </wgt>
<wgt id='1377'> +1.4496776e-12 </wgt>
<wgt id='1378'> +1.4462468e-12 </wgt>
<wgt id='1379'> +1.4450261e-12 </wgt>
<wgt id='1380'> +1.4485061e-12 </wgt>
<wgt id='1381'> +1.4417304e-12 </wgt>
<wgt id='1382'> +1.4525581e-12 </wgt>
<wgt id='1383'> +1.4690163e-12 </wgt>
<wgt id='1384'> +1.4358572e-12 </wgt>
<wgt id='1385'> +1.4449340e-12 </wgt>
<wgt id='1386'> +1.4512211e-12 </wgt>
<wgt id='1387'> +1.4428979e-12 </wgt>
<wgt id='1388'> +1.4344256e-12 </wgt>
<wgt id='1389'> +1.4450268e-12 </wgt>
<wgt id='1390'> +1.4463443e-12 </wgt>
<wgt id='1391'> +1.4153622e-12 </wgt>
<wgt id='1392'> +1.3724169e-12 </wgt>
<wgt id='1393'> +1.3867599e-12 </wgt>
<wgt id='1394'> +1.4012582e-12 </wgt>
<wgt id='1395'> +1.4277656e-12 </wgt>
<wgt id='1396'> +1.4146211e-12 </wgt>
<wgt id='1397'> +1.4905938e-12 </wgt>
<wgt id='1398'> +1.4736419e-12 </wgt>
<wgt id='1399'> +1.4580389e-12 </wgt>
<wgt id='1400'> +1.4431888e-12 </wgt>
<wgt id='1401'> +1.4286020e-12 </wgt>
<wgt id='1402'> +1.4015759e-12 </wgt>
<wgt id='1403'> +1.3890441e-12 </wgt>
<wgt id='1404'> +1.3771599e-12 </wgt>
<wgt id='1405'> +1.4146211e-12 </wgt>
<wgt id='1406'> +1.4069812e-12 </wgt>
<wgt id='1407'> +1.4109375e-12 </wgt>
<wgt id='1408'> +1.4180602e-12 </wgt>
<wgt id='1409'> +1.4209301e-12 </wgt>
<wgt id='1410'> +1.3593041e-12 </wgt>
<wgt id='1411'> +1.3589702e-12 </wgt>
<wgt id='1412'> +1.3597290e-12 </wgt>
<wgt id='1413'> +1.3646304e-12 </wgt>
<wgt id='1414'> +1.3540120e-12 </wgt>
<wgt id='1415'> +1.3631241e-12 </wgt>
<wgt id='1416'> +1.3577813e-12 </wgt>
<wgt id='1417'> +1.3532950e-12 </wgt>
<wgt id='1418'> +1.3653298e-12 </wgt>
<wgt id='1419'> +1.3621625e-12 </wgt>
<wgt id='1420'> +1.3565487e-12 </wgt>
<wgt id='1421'> +1.3442039e-12 </wgt>
<wgt id='1422'> +1.3658536e-12 </wgt>
<wgt id='1423'> +1.3592986e-12 </wgt>
<wgt id='1424'> +1.3593149e-12 </wgt>
<wgt id='1425'> +1.3551109e-12 </wgt>
<wgt id='1426'> +1.3638553e-12 </wgt>
<wgt id='1427'> +1.3565089e-12 </wgt>
<wgt id='1428'> +1.3607729e-12 </wgt>
<wgt id='1429'> +1.3575993e-12 </wgt>
<wgt id='1430'> +1.3616321e-12 </wgt>
<wgt id='1431'> +1.3576002e-12 </wgt>
<wgt id='1432'> +1.3604705e-12 </wgt>
<wgt id='1433'> +1.3812963e-12 </wgt>
<wgt id='1434'> +1.3383865e-12 </wgt>
<wgt id='1435'> +1.3673951e-12 </wgt>
<wgt id='1436'> +1.3396079e-12 </wgt>
<wgt id='1437'> +1.3665461e-12 </wgt>
<wgt id='1438'> +1.3556021e-12 </wgt>
<wgt id='1439'> +1.3513148e-12 </wgt>
<wgt id='1440'> +1.3806340e-12 </wgt>
<wgt id='1441'> +1.3588692e-12 </wgt>
<wgt id='1442'> +1.3605641e-12 </wgt>
<wgt id='1443'> +1.3570113e-12 </wgt>
<wgt id='1444'> +1.3644634e-12 </wgt>
<wgt id='1445'> +1.3636893e-12 </wgt>
<wgt id='1446'> +1.3580166e-12 </wgt>
<wgt id='1447'> +1.3599183e-12 </wgt>
<wgt id='1448'> +1.3595007e-12 </wgt>
<wgt id='1449'> +1.3576293e-12 </wgt>
<wgt id='1450'> +1.3604810e-12 </wgt>
<wgt id='1451'> +1.3567270e-12 </wgt>
<wgt id='1452'> +1.3600780e-12 </wgt>
<wgt id='1453'> +1.3608616e-12 </wgt>
<wgt id='1454'> +1.3503103e-12 </wgt>
<wgt id='1455'> +1.3449943e-12 </wgt>
<wgt id='1456'> +1.3625815e-12 </wgt>
<wgt id='1457'> +1.3606491e-12 </wgt>
<wgt id='1458'> +1.3580080e-12 </wgt>
<wgt id='1459'> +1.3582277e-12 </wgt>
<wgt id='1460'> +1.3546177e-12 </wgt>
<wgt id='1461'> +1.3593041e-12 </wgt>
<wgt id='1462'> +1.3514576e-12 </wgt>
<wgt id='1463'> +1.3662762e-12 </wgt>
<wgt id='1464'> +1.3598406e-12 </wgt>
<wgt id='1465'> +1.4317849e-12 </wgt>
<wgt id='1466'> +1.4156534e-12 </wgt>
<wgt id='1467'> +1.4004124e-12 </wgt>
<wgt id='1468'> +1.3868279e-12 </wgt>
<wgt id='1469'> +1.3726046e-12 </wgt>
<wgt id='1470'> +1.3484161e-12 </wgt>
<wgt id='1471'> +1.3354359e-12 </wgt>
<wgt id='1472'> +1.3241716e-12 </wgt>
<wgt id='1473'> +1.3598406e-12 </wgt>
<wgt id='1474'> +1.3524611e-12 </wgt>
<wgt id='1475'> +1.3564974e-12 </wgt>
<wgt id='1476'> +1.3629860e-12 </wgt>
<wgt id='1477'> +1.3656710e-12 </wgt>
<wgt id='1478'> +1.3870829e-12 </wgt>
<wgt id='1479'> +1.3874012e-12 </wgt>
<wgt id='1480'> +1.3919896e-12 </wgt>
<wgt id='1481'> +1.3679394e-12 </wgt>
<wgt id='1482'> +1.3927339e-12 </wgt>
<wgt id='1483'> +1.3809637e-12 </wgt>
<wgt id='1484'> +1.3863368e-12 </wgt>
<wgt id='1485'> +1.4026264e-12 </wgt>
<wgt id='1486'> +1.3866297e-12 </wgt>
<wgt id='1487'> +1.3864537e-12 </wgt>
<wgt id='1488'> +1.3804960e-12 </wgt>
<wgt id='1489'> +1.4246882e-12 </wgt>
<wgt id='1490'> +1.3911967e-12 </wgt>
<wgt id='1491'> +1.3878920e-12 </wgt>
<wgt id='1492'> +1.3832200e-12 </wgt>
<wgt id='1493'> +1.3886074e-12 </wgt>
<wgt id='1494'> +1.3911725e-12 </wgt>
<wgt id='1495'> +1.3992375e-12 </wgt>
<wgt id='1496'> +1.3861146e-12 </wgt>
<wgt id='1497'> +1.3930918e-12 </wgt>
<wgt id='1498'> +1.3844006e-12 </wgt>
<wgt id='1499'> +1.3914977e-12 </wgt>
<wgt id='1500'> +1.3865182e-12 </wgt>
<wgt id='1501'> +1.3855248e-12 </wgt>
<wgt id='1502'> +1.3871020e-12 </wgt>
<wgt id='1503'> +1.3875285e-12 </wgt>
<wgt id='1504'> +1.3904338e-12 </wgt>
<wgt id='1505'> +1.3864729e-12 </wgt>
<wgt id='1506'> +1.3895495e-12 </wgt>
<wgt id='1507'> +1.3857513e-12 </wgt>
<wgt id='1508'> +1.3964582e-12 </wgt>
<wgt id='1509'> +1.3072099e-12 </wgt>
<wgt id='1510'> +1.3044553e-12 </wgt>
<wgt id='1511'> +1.3114849e-12 </wgt>
<wgt id='1512'> +1.3128744e-12 </wgt>
<wgt id='1513'> +1.3073119e-12 </wgt>
<wgt id='1514'> +1.3025388e-12 </wgt>
<wgt id='1515'> +1.3032771e-12 </wgt>
<wgt id='1516'> +1.3015726e-12 </wgt>
<wgt id='1517'> +1.3047024e-12 </wgt>
<wgt id='1518'> +1.3045644e-12 </wgt>
<wgt id='1519'> +1.3100557e-12 </wgt>
<wgt id='1520'> +1.3181411e-12 </wgt>
<wgt id='1521'> +1.3150840e-12 </wgt>
<wgt id='1522'> +1.3266572e-12 </wgt>
<wgt id='1523'> +1.3093008e-12 </wgt>
<wgt id='1524'> +1.3063539e-12 </wgt>
<wgt id='1525'> +1.2961371e-12 </wgt>
<wgt id='1526'> +1.3108151e-12 </wgt>
<wgt id='1527'> +1.3195158e-12 </wgt>
<wgt id='1528'> +1.3052984e-12 </wgt>
<wgt id='1529'> +1.3150632e-12 </wgt>
<wgt id='1530'> +1.2950701e-12 </wgt>
<wgt id='1531'> +1.3072719e-12 </wgt>
<wgt id='1532'> +1.3148657e-12 </wgt>
<wgt id='1533'> +1.3047654e-12 </wgt>
<wgt id='1534'> +1.3008610e-12 </wgt>
<wgt id='1535'> +1.3182450e-12 </wgt>
<wgt id='1536'> +1.3088827e-12 </wgt>
<wgt id='1537'> +1.3083844e-12 </wgt>
<wgt id='1538'> +1.3097288e-12 </wgt>
<wgt id='1539'> +1.3031075e-12 </wgt>
<wgt id='1540'> +1.3024823e-12 </wgt>
<wgt id='1541'> +1.3053622e-12 </wgt>
<wgt id='1542'> +1.3049381e-12 </wgt>
<wgt id='1543'> +1.3084697e-12 </wgt>
<wgt id='1544'> +1.3077401e-12 </wgt>
<wgt id='1545'> +1.3057142e-12 </wgt>
<wgt id='1546'> +1.3105635e-12 </wgt>
<wgt id='1547'> +1.3047891e-12 </wgt>
<wgt id='1548'> +1.3106170e-12 </wgt>
<wgt id='1549'> +1.3085055e-12 </wgt>
<wgt id='1550'> +1.3052122e-12 </wgt>
<wgt id='1551'> +1.3086015e-12 </wgt>
<wgt id='1552'> +1.3079173e-12 </wgt>
<wgt id='1553'> +1.3041953e-12 </wgt>
<wgt id='1554'> +1.3008084e-12 </wgt>
<wgt id='1555'> +1.3031616e-12 </wgt>
<wgt id='1556'> +1.3110278e-12 </wgt>
<wgt id='1557'> +1.3031132e-12 </wgt>
<wgt id='1558'> +1.3105422e-12 </wgt>
<wgt id='1559'> +1.3053373e-12 </wgt>
<wgt id='1560'> +1.3045023e-12 </wgt>
<wgt id='1561'> +1.3108832e-12 </wgt>
<wgt id='1562'> +1.3070627e-12 </wgt>
<wgt id='1563'> +1.3070502e-12 </wgt>
<wgt id='1564'> +1.3092527e-12 </wgt>
<wgt id='1565'> +1.3074835e-12 </wgt>
<wgt id='1566'> +1.3035946e-12 </wgt>
<wgt id='1567'> +1.3028920e-12 </wgt>
<wgt id='1568'> +1.3086465e-12 </wgt>
<wgt id='1569'> +1.3054427e-12 </wgt>
<wgt id='1570'> +1.3119883e-12 </wgt>
<wgt id='1571'> +1.3064170e-12 </wgt>
<wgt id='1572'> +1.3094035e-12 </wgt>
<wgt id='1573'> +1.3088151e-12 </wgt>
<wgt id='1574'> +1.3062077e-12 </wgt>
<wgt id='1575'> +1.3066273e-12 </wgt>
<wgt id='1576'> +1.3096521e-12 </wgt>
<wgt id='1577'> +1.3056552e-12 </wgt>
<wgt id='1578'> +1.3057776e-12 </wgt>
<wgt id='1579'> +1.3081293e-12 </wgt>
<wgt id='1580'> +1.3108138e-12 </wgt>
<wgt id='1581'> +1.3056491e-12 </wgt>
<wgt id='1582'> +1.3058991e-12 </wgt>
<wgt id='1583'> +1.3073669e-12 </wgt>
<wgt id='1584'> +1.3085200e-12 </wgt>
<wgt id='1585'> +1.3070628e-12 </wgt>
<wgt id='1586'> +1.3100974e-12 </wgt>
<wgt id='1587'> +1.3061112e-12 </wgt>
<wgt id='1588'> +1.3052580e-12 </wgt>
<wgt id='1589'> +1.3065368e-12 </wgt>
<wgt id='1590'> +1.3069570e-12 </wgt>
<wgt id='1591'> +1.3064820e-12 </wgt>
<wgt id='1592'> +1.3087116e-12 </wgt>
<wgt id='1593'> +1.3078901e-12 </wgt>
<wgt id='1594'> +1.3068804e-12 </wgt>
<wgt id='1595'> +1.3054751e-12 </wgt>
<wgt id='1596'> +1.3056112e-12 </wgt>
<wgt id='1597'> +1.3071351e-12 </wgt>
<wgt id='1598'> +1.3072127e-12 </wgt>
<wgt id='1599'> +1.3071771e-12 </wgt>
<wgt id='1600'> +1.3042392e-12 </wgt>
<wgt id='1601'> +1.3080096e-12 </wgt>
<wgt id='1602'> +1.3069184e-12 </wgt>
<wgt id='1603'> +1.3088704e-12 </wgt>
<wgt id='1604'> +1.3065708e-12 </wgt>
<wgt id='1605'> +1.3088974e-12 </wgt>
<wgt id='1606'> +1.3058280e-12 </wgt>
<wgt id='1607'> +1.3065772e-12 </wgt>
<wgt id='1608'> +1.3069317e-12 </wgt>
<wgt id='1609'> +1.3086720e-12 </wgt>
<wgt id='1610'> +1.2668588e-12 </wgt>
<wgt id='1611'> +1.3420073e-12 </wgt>
<wgt id='1612'> +1.4675592e-12 </wgt>
<wgt id='1613'> +1.5549272e-12 </wgt>
<wgt id='1614'> +1.4871637e-12 </wgt>
<wgt id='1615'> +1.4468706e-12 </wgt>
<wgt id='1616'> +1.5664254e-12 </wgt>
<wgt id='1617'> +1.3724569e-12 </wgt>
<wgt id='1618'> +1.2757432e-12 </wgt>
<wgt id='1619'> +1.5060911e-12 </wgt>
<wgt id='1620'> +1.5204539e-12 </wgt>
<wgt id='1621'> +1.4355661e-12 </wgt>
<wgt id='1622'> +1.4446137e-12 </wgt>
<wgt id='1623'> +1.5222069e-12 </wgt>
<wgt id='1624'> +1.4429792e-12 </wgt>
<wgt id='1625'> +1.5089324e-12 </wgt>
<wgt id='1626'> +1.5442797e-12 </wgt>
<wgt id='1627'> +1.4593772e-12 </wgt>
<wgt id='1628'> +1.5079827e-12 </wgt>
<wgt id='1629'> +1.5157440e-12 </wgt>
<wgt id='1630'> +1.4985930e-12 </wgt>
<wgt id='1631'> +1.4358129e-12 </wgt>
<wgt id='1632'> +1.5931254e-12 </wgt>
<wgt id='1633'> +1.4716224e-12 </wgt>
<wgt id='1634'> +1.4934829e-12 </wgt>
<wgt id='1635'> +1.4604491e-12 </wgt>
<wgt id='1636'> +1.4168134e-12 </wgt>
<wgt id='1637'> +1.3993203e-12 </wgt>
<wgt id='1638'> +1.4750201e-12 </wgt>
<wgt id='1639'> +1.5410850e-12 </wgt>
<wgt id='1640'> +1.5560458e-12 </wgt>
<wgt id='1641'> +1.4761576e-12 </wgt>
<wgt id='1642'> +1.4888001e-12 </wgt>
<wgt id='1643'> +1.5401329e-12 </wgt>
<wgt id='1644'> +1.3933509e-12 </wgt>
<wgt id='1645'> +1.4942513e-12 </wgt>
<wgt id='1646'> +1.5472504e-12 </wgt>
<wgt id='1647'> +1.5430958e-12 </wgt>
<wgt id='1648'> +1.4225381e-12 </wgt>
<wgt id='1649'> +1.2860798e-12 </wgt>
<wgt id='1650'> +1.5287397e-12 </wgt>
<wgt id='1651'> +1.4666401e-12 </wgt>
<wgt id='1652'> +1.5634939e-12 </wgt>
<wgt id='1653'> +1.3838697e-12 </wgt>
<wgt id='1654'> +1.3855048e-12 </wgt>
<wgt id='1655'> +1.3988401e-12 </wgt>
<wgt id='1656'> +1.4828792e-12 </wgt>
<wgt id='1657'> +1.4456962e-12 </wgt>
<wgt id='1658'> +1.4743427e-12 </wgt>
<wgt id='1659'> +1.4429792e-12 </wgt>
<wgt id='1660'> +1.3849134e-12 </wgt>
<wgt id='1661'> +1.4171253e-12 </wgt>
<wgt id='1662'> +1.4626256e-12 </wgt>
<wgt id='1663'> +1.4764893e-12 </wgt>
<wgt id='1664'> +1.5426808e-12 </wgt>
<wgt id='1665'> +1.5308483e-12 </wgt>
<wgt id='1666'> +1.4581638e-12 </wgt>
<wgt id='1667'> +1.4489831e-12 </wgt>
<wgt id='1668'> +1.4609957e-12 </wgt>
<wgt id='1669'> +1.4304583e-12 </wgt>
<wgt id='1670'> +1.4894810e-12 </wgt>
<wgt id='1671'> +1.5125400e-12 </wgt>
<wgt id='1672'> +1.4356376e-12 </wgt>
<wgt id='1673'> +1.4126982e-12 </wgt>
<wgt id='1674'> +1.4988049e-12 </wgt>
<wgt id='1675'> +1.5331870e-12 </wgt>
<wgt id='1676'> +1.4445816e-12 </wgt>
<wgt id='1677'> +1.4579454e-12 </wgt>
<wgt id='1678'> +1.4969684e-12 </wgt>
<wgt id='1679'> +1.4966077e-12 </wgt>
<wgt id='1680'> +1.4483832e-12 </wgt>
<wgt id='1681'> +1.5096997e-12 </wgt>
<wgt id='1682'> +1.4554436e-12 </wgt>
<wgt id='1683'> +1.4563422e-12 </wgt>
<wgt id='1684'> +1.4606902e-12 </wgt>
<wgt id='1685'> +1.4671342e-12 </wgt>
<wgt id='1686'> +1.4964788e-12 </wgt>
<wgt id='1687'> +1.5226482e-12 </wgt>
<wgt id='1688'> +1.4941830e-12 </wgt>
<wgt id='1689'> +1.4267606e-12 </wgt>
<wgt id='1690'> +1.4460184e-12 </wgt>
<wgt id='1691'> +1.4730241e-12 </wgt>
<wgt id='1692'> +1.4613532e-12 </wgt>
<wgt id='1693'> +1.5298089e-12 </wgt>
<wgt id='1694'> +1.3593397e-12 </wgt>
<wgt id='1695'> +1.4545899e-12 </wgt>
<wgt id='1696'> +1.5304295e-12 </wgt>
<wgt id='1697'> +1.3701789e-12 </wgt>
<wgt id='1698'> +1.4586448e-12 </wgt>
<wgt id='1699'> +1.4146075e-12 </wgt>
<wgt id='1700'> +1.4656847e-12 </wgt>
<wgt id='1701'> +1.4610117e-12 </wgt>
<wgt id='1702'> +1.4057556e-12 </wgt>
<wgt id='1703'> +1.4765157e-12 </wgt>
<wgt id='1704'> +1.4332953e-12 </wgt>
<wgt id='1705'> +1.5493285e-12 </wgt>
<wgt id='1706'> +1.3825313e-12 </wgt>
<wgt id='1707'> +1.4695109e-12 </wgt>
<wgt id='1708'> +1.4071385e-12 </wgt>
<wgt id='1709'> +1.4739474e-12 </wgt>
<wgt id='1710'> +1.4776706e-12 </wgt>
<wgt id='1711'> +1.4839171e-12 </wgt>
<wgt id='1712'> +1.4504669e-12 </wgt>
<wgt id='1713'> +1.4088752e-12 </wgt>
<wgt id='1714'> +1.3777403e-12 </wgt>
<wgt id='1715'> +1.4114112e-12 </wgt>
<wgt id='1716'> +1.3802756e-12 </wgt>
<wgt id='1717'> +1.3941119e-12 </wgt>
<wgt id='1718'> +1.3498845e-12 </wgt>
<wgt id='1719'> +1.4162192e-12 </wgt>
<wgt id='1720'> +1.4337430e-12 </wgt>
<wgt id='1721'> +1.3955454e-12 </wgt>
<wgt id='1722'> +1.3949307e-12 </wgt>
<wgt id='1723'> +1.3390237e-12 </wgt>
<wgt id='1724'> +1.3601462e-12 </wgt>
<wgt id='1725'> +1.4425134e-12 </wgt>
<wgt id='1726'> +1.4368071e-12 </wgt>
<wgt id='1727'> +1.3333029e-12 </wgt>
<wgt id='1728'> +1.3996830e-12 </wgt>
<wgt id='1729'> +1.4426679e-12 </wgt>
<wgt id='1730'> +1.3734296e-12 </wgt>
<wgt id='1731'> +1.3966928e-12 </wgt>
<wgt id='1732'> +1.4353446e-12 </wgt>
<wgt id='1733'> +1.4350054e-12 </wgt>
<wgt id='1734'> +1.4116808e-12 </wgt>
<wgt id='1735'> +1.3937163e-12 </wgt>
<wgt id='1736'> +1.5340878e-12 </wgt>
<wgt id='1737'> +1.3908214e-12 </wgt>
<wgt id='1738'> +1.4381765e-12 </wgt>
<wgt id='1739'> +1.3765442e-12 </wgt>
<wgt id='1740'> +1.3817496e-12 </wgt>
<wgt id='1741'> +1.3991034e-12 </wgt>
<wgt id='1742'> +1.3815710e-12 </wgt>
<wgt id='1743'> +1.4411630e-12 </wgt>
<wgt id='1744'> +1.3978241e-12 </wgt>
<wgt id='1745'> +1.3391141e-12 </wgt>
<wgt id='1746'> +1.4558019e-12 </wgt>
<wgt id='1747'> +1.4204984e-12 </wgt>
<wgt id='1748'> +1.4040304e-12 </wgt>
<wgt id='1749'> +1.4779556e-12 </wgt>
<wgt id='1750'> +1.4265817e-12 </wgt>
<wgt id='1751'> +1.3962172e-12 </wgt>
<wgt id='1752'> +1.3603587e-12 </wgt>
<wgt id='1753'> +1.4382776e-12 </wgt>
<wgt id='1754'> +1.4070666e-12 </wgt>
<wgt id='1755'> +1.4374492e-12 </wgt>
<wgt id='1756'> +1.4309162e-12 </wgt>
<wgt id='1757'> +1.3915782e-12 </wgt>
<wgt id='1758'> +1.4372935e-12 </wgt>
<wgt id='1759'> +1.4173055e-12 </wgt>
<wgt id='1760'> +1.3839802e-12 </wgt>
<wgt id='1761'> +1.3782910e-12 </wgt>
<wgt id='1762'> +1.4302406e-12 </wgt>
<wgt id='1763'> +1.4165506e-12 </wgt>
<wgt id='1764'> +1.4131866e-12 </wgt>
<wgt id='1765'> +1.4017967e-12 </wgt>
<wgt id='1766'> +1.4403808e-12 </wgt>
<wgt id='1767'> +1.4060235e-12 </wgt>
<wgt id='1768'> +1.4151871e-12 </wgt>
<wgt id='1769'> +1.3601567e-12 </wgt>
<wgt id='1770'> +1.4969128e-12 </wgt>
<wgt id='1771'> +1.3955698e-12 </wgt>
<wgt id='1772'> +1.4236987e-12 </wgt>
<wgt id='1773'> +1.4073851e-12 </wgt>
<wgt id='1774'> +1.4387471e-12 </wgt>
<wgt id='1775'> +1.4097646e-12 </wgt>
<wgt id='1776'> +1.4416005e-12 </wgt>
<wgt id='1777'> +1.3831224e-12 </wgt>
<wgt id='1778'> +1.4017387e-12 </wgt>
<wgt id='1779'> +1.4096789e-12 </wgt>
<wgt id='1780'> +1.4715358e-12 </wgt>
<wgt id='1781'> +1.3804828e-12 </wgt>
<wgt id='1782'> +1.3561635e-12 </wgt>
<wgt id='1783'> +1.4186297e-12 </wgt>
<wgt id='1784'> +1.4617564e-12 </wgt>
<wgt id='1785'> +1.3879756e-12 </wgt>
<wgt id='1786'> +1.3078056e-12 </wgt>
<wgt id='1787'> +1.4110968e-12 </wgt>
<wgt id='1788'> +1.3951974e-12 </wgt>
<wgt id='1789'> +1.3563017e-12 </wgt>
<wgt id='1790'> +1.4187538e-12 </wgt>
<wgt id='1791'> +1.4722010e-12 </wgt>
<wgt id='1792'> +1.4064698e-12 </wgt>
<wgt id='1793'> +1.4227964e-12 </wgt>
<wgt id='1794'> +1.3988460e-12 </wgt>
<wgt id='1795'> +1.3871829e-12 </wgt>
<wgt id='1796'> +1.4203640e-12 </wgt>
<wgt id='1797'> +1.4211223e-12 </wgt>
<wgt id='1798'> +1.3563238e-12 </wgt>
<wgt id='1799'> +1.4023763e-12 </wgt>
<wgt id='1800'> +1.3839605e-12 </wgt>
<wgt id='1801'> +1.4087714e-12 </wgt>
<wgt id='1802'> +1.4505226e-12 </wgt>
<wgt id='1803'> +1.3949838e-12 </wgt>
<wgt id='1804'> +1.3634260e-12 </wgt>
<wgt id='1805'> +1.4628954e-12 </wgt>
<wgt id='1806'> +1.3971369e-12 </wgt>
<wgt id='1807'> +1.4408296e-12 </wgt>
<wgt id='1808'> +1.3824348e-12 </wgt>
<wgt id='1809'> +1.4220394e-12 </wgt>
<wgt id='1810'> +1.4236995e-12 </wgt>
<wgt id='1811'> +1.4770740e-12 </wgt>
<wgt id='1812'> +1.4656441e-12 </wgt>
<wgt id='1813'> +1.3936331e-12 </wgt>
<wgt id='1814'> +1.2287008e-12 </wgt>
<wgt id='1815'> +1.3800253e-12 </wgt>
<wgt id='1816'> +1.4088752e-12 </wgt>
<wgt id='1817'> +1.3777403e-12 </wgt>
<wgt id='1818'> +1.4114112e-12 </wgt>
<wgt id='1819'> +1.3802756e-12 </wgt>
<wgt id='1820'> +1.3941119e-12 </wgt>
<wgt id='1821'> +1.3498845e-12 </wgt>
<wgt id='1822'> +1.4162192e-12 </wgt>
<wgt id='1823'> +1.4337430e-12 </wgt>
<wgt id='1824'> +1.3955454e-12 </wgt>
<wgt id='1825'> +1.3949307e-12 </wgt>
<wgt id='1826'> +1.3390237e-12 </wgt>
<wgt id='1827'> +1.3601462e-12 </wgt>
<wgt id='1828'> +1.4425134e-12 </wgt>
<wgt id='1829'> +1.4368071e-12 </wgt>
<wgt id='1830'> +1.3333029e-12 </wgt>
<wgt id='1831'> +1.3996830e-12 </wgt>
<wgt id='1832'> +1.4426679e-12 </wgt>
<wgt id='1833'> +1.3734296e-12 </wgt>
<wgt id='1834'> +1.3966928e-12 </wgt>
<wgt id='1835'> +1.4353446e-12 </wgt>
<wgt id='1836'> +1.4350054e-12 </wgt>
<wgt id='1837'> +1.4116808e-12 </wgt>
<wgt id='1838'> +1.3937163e-12 </wgt>
<wgt id='1839'> +1.5340878e-12 </wgt>
<wgt id='1840'> +1.3908214e-12 </wgt>
<wgt id='1841'> +1.4381765e-12 </wgt>
<wgt id='1842'> +1.3765442e-12 </wgt>
<wgt id='1843'> +1.3817496e-12 </wgt>
<wgt id='1844'> +1.3991034e-12 </wgt>
<wgt id='1845'> +1.3815710e-12 </wgt>
<wgt id='1846'> +1.4411630e-12 </wgt>
<wgt id='1847'> +1.3978241e-12 </wgt>
<wgt id='1848'> +1.3391141e-12 </wgt>
<wgt id='1849'> +1.4558019e-12 </wgt>
<wgt id='1850'> +1.4204984e-12 </wgt>
<wgt id='1851'> +1.4040304e-12 </wgt>
<wgt id='1852'> +1.4779556e-12 </wgt>
<wgt id='1853'> +1.4265817e-12 </wgt>
<wgt id='1854'> +1.3962172e-12 </wgt>
<wgt id='1855'> +1.3603587e-12 </wgt>
<wgt id='1856'> +1.4382776e-12 </wgt>
<wgt id='1857'> +1.4070666e-12 </wgt>
<wgt id='1858'> +1.4374492e-12 </wgt>
<wgt id='1859'> +1.4309162e-12 </wgt>
<wgt id='1860'> +1.3915782e-12 </wgt>
<wgt id='1861'> +1.4372935e-12 </wgt>
<wgt id='1862'> +1.4173055e-12 </wgt>
<wgt id='1863'> +1.3839802e-12 </wgt>
<wgt id='1864'> +1.3782910e-12 </wgt>
<wgt id='1865'> +1.4302406e-12 </wgt>
<wgt id='1866'> +1.4165506e-12 </wgt>
<wgt id='1867'> +1.4131866e-12 </wgt>
<wgt id='1868'> +1.4017967e-12 </wgt>
<wgt id='1869'> +1.4403808e-12 </wgt>
<wgt id='1870'> +1.4060235e-12 </wgt>
<wgt id='1871'> +1.4151871e-12 </wgt>
<wgt id='1872'> +1.3601567e-12 </wgt>
<wgt id='1873'> +1.4969128e-12 </wgt>
<wgt id='1874'> +1.3955698e-12 </wgt>
<wgt id='1875'> +1.4236987e-12 </wgt>
<wgt id='1876'> +1.4073851e-12 </wgt>
<wgt id='1877'> +1.4387471e-12 </wgt>
<wgt id='1878'> +1.4097646e-12 </wgt>
<wgt id='1879'> +1.4416005e-12 </wgt>
<wgt id='1880'> +1.3831224e-12 </wgt>
<wgt id='1881'> +1.4017387e-12 </wgt>
<wgt id='1882'> +1.4096789e-12 </wgt>
<wgt id='1883'> +1.4715358e-12 </wgt>
<wgt id='1884'> +1.3804828e-12 </wgt>
<wgt id='1885'> +1.3561635e-12 </wgt>
<wgt id='1886'> +1.4186297e-12 </wgt>
<wgt id='1887'> +1.4617564e-12 </wgt>
<wgt id='1888'> +1.3879756e-12 </wgt>
<wgt id='1889'> +1.3078056e-12 </wgt>
<wgt id='1890'> +1.4110968e-12 </wgt>
<wgt id='1891'> +1.3951974e-12 </wgt>
<wgt id='1892'> +1.3563017e-12 </wgt>
<wgt id='1893'> +1.4187538e-12 </wgt>
<wgt id='1894'> +1.4722010e-12 </wgt>
<wgt id='1895'> +1.4064698e-12 </wgt>
<wgt id='1896'> +1.4227964e-12 </wgt>
<wgt id='1897'> +1.3988460e-12 </wgt>
<wgt id='1898'> +1.3871829e-12 </wgt>
<wgt id='1899'> +1.4203640e-12 </wgt>
<wgt id='1900'> +1.4211223e-12 </wgt>
<wgt id='1901'> +1.3563238e-12 </wgt>
<wgt id='1902'> +1.4023763e-12 </wgt>
<wgt id='1903'> +1.3839605e-12 </wgt>
<wgt id='1904'> +1.4087714e-12 </wgt>
<wgt id='1905'> +1.4505226e-12 </wgt>
<wgt id='1906'> +1.3949838e-12 </wgt>
<wgt id='1907'> +1.3634260e-12 </wgt>
<wgt id='1908'> +1.4628954e-12 </wgt>
<wgt id='1909'> +1.3971369e-12 </wgt>
<wgt id='1910'> +1.4408296e-12 </wgt>
<wgt id='1911'> +1.3824348e-12 </wgt>
<wgt id='1912'> +1.4220394e-12 </wgt>
<wgt id='1913'> +1.4236995e-12 </wgt>
<wgt id='1914'> +1.4770740e-12 </wgt>
<wgt id='1915'> +1.4656441e-12 </wgt>
<wgt id='1916'> +1.3936331e-12 </wgt>
<wgt id='1917'> +1.3902361e-12 </wgt>
<wgt id='1918'> +1.4198242e-12 </wgt>
<wgt id='1919'> +1.4090601e-12 </wgt>
</rwgt>
</event>
<event>
 9      1 +1.5607000e-12 2.50986700e+01 7.81860800e-03 1.50534300e-01
       -1 -1    0    0    0  501 -0.0000000000e+00 +0.0000000000e+00 +1.8748177145e+01 1.8748177145e+01 0.0000000000e+00 0.0000e+00 1.0000e+00
       21 -1    0    0  501  502 +0.0000000000e+00 -0.0000000000e+00 -5.5495158942e+01 5.5495158942e+01 0.0000000000e+00 0.0000e+00 1.0000e+00
     1023  2    1    2    0    0 -4.8645442177e+00 +1.9525921344e+01 -4.5762415797e+01 5.2193314659e+01 1.5000600015e+01 0.0000e+00 0.0000e+00
  1000023  2    3    3    0    0 -1.3340901741e+00 +1.7077298061e+00 -7.5484098831e+00 9.5874194874e+00 5.4994529711e+00 0.0000e+00 0.0000e+00
       -1  1    1    2    0  502 +4.8645442177e+00 -1.9525921344e+01 +9.0154340004e+00 2.2050021428e+01 0.0000000000e+00 0.0000e+00 1.0000e+00
  1000022  1    4    4    0    0 -1.3516248077e+00 +1.7306916098e+00 -6.4942839414e+00 8.4851580409e+00 5.0000000000e+00 0.0000e+00 1.0000e+00
      -11  1    4    4    0    0 +9.4445263344e-02 +3.1253325808e-02 -9.7284291896e-01 9.7791629715e-01 5.1100000000e-04 0.0000e+00 -1.0000e+00
       11  1    4    4    0    0 -7.6910629807e-02 -5.4215129496e-02 -8.1283022747e-02 1.2434514929e-01 5.1100000000e-04 0.0000e+00 1.0000e+00
  1000022  1    3    3    0    0 -3.5304540436e+00 +1.7818191537e+01 -3.8214005914e+01 4.2605895172e+01 5.0000000000e+00 0.0000e+00 1.0000e+00
<mgrwt>
<rscale>  1 0.25098673E+02</rscale>
<asrwt>0</asrwt>
<pdfrwt beam="1">  1       21 0.85377168E-02 0.25098673E+02</pdfrwt>
<pdfrwt beam="2">  1       -1 0.28843349E-02 0.25098673E+02</pdfrwt>
<totfact> 0.32377516E+06</totfact>
</mgrwt>
<rwgt>
<wgt id='1001'> +1.5607000e-12 </wgt>
<wgt id='1002'> +1.6002732e-12 </wgt>
<wgt id='1003'> +1.6042410e-12 </wgt>
<wgt id='1004'> +1.5476456e-12 </wgt>
<wgt id='1005'> +1.6171957e-12 </wgt>
<wgt id='1006'> +1.3586824e-12 </wgt>
<wgt id='1007'> +1.4118929e-12 </wgt>
<wgt id='1008'> +1.4179695e-12 </wgt>
<wgt id='1009'> +1.3424926e-12 </wgt>
<wgt id='1010'> +1.4409940e-12 </wgt>
<wgt id='1011'> +1.8369207e-12 </wgt>
<wgt id='1012'> +1.8493553e-12 </wgt>
<wgt id='1013'> +1.8493931e-12 </wgt>
<wgt id='1014'> +1.8307769e-12 </wgt>
<wgt id='1015'> +1.8445439e-12 </wgt>
<wgt id='1016'> +1.8487524e-12 </wgt>
<wgt id='1017'> +1.8371143e-12 </wgt>
<wgt id='1018'> +1.8342666e-12 </wgt>
<wgt id='1019'> +1.8493931e-12 </wgt>
<wgt id='1020'> +1.8174479e-12 </wgt>
<wgt id='1021'> +1.6094492e-12 </wgt>
<wgt id='1022'> +1.6208536e-12 </wgt>
<wgt id='1023'> +1.6212865e-12 </wgt>
<wgt id='1024'> +1.6042410e-12 </wgt>
<wgt id='1025'> +1.6194277e-12 </wgt>
<wgt id='1026'> +2.1759542e-12 </wgt>
<wgt id='1027'> +2.1230606e-12 </wgt>
<wgt id='1028'> +2.1145701e-12 </wgt>
<wgt id='1029'> +2.1877271e-12 </wgt>
<wgt id='1030'> +2.0729480e-12 </wgt>
<wgt id='1031'> +1.2361750e-12 </wgt>
<wgt id='1032'> +1.3309844e-12 </wgt>
<wgt id='1033'> +1.3424926e-12 </wgt>
<wgt id='1034'> +1.2080672e-12 </wgt>
<wgt id='1035'> +1.3886602e-12 </wgt>
<wgt id='1036'> +1.0761641e-12 </wgt>
<wgt id='1037'> +1.1743041e-12 </wgt>
<wgt id='1038'> +1.1866132e-12 </wgt>
<wgt id='1039'> +1.0479280e-12 </wgt>
<wgt id='1040'> +1.2373586e-12 </wgt>
<wgt id='1041'> +1.4549597e-12 </wgt>
<wgt id='1042'> +1.5381517e-12 </wgt>
<wgt id='1043'> +1.5476456e-12 </wgt>
<wgt id='1044'> +1.4290749e-12 </wgt>
<wgt id='1045'> +1.5838805e-12 </wgt>
<wgt id='1046'> +1.5607000e-12 </wgt>
<wgt id='1047'> +1.5712906e-12 </wgt>
<wgt id='1048'> +1.5642356e-12 </wgt>
<wgt id='1049'> +1.4584116e-12 </wgt>
<wgt id='1050'> +1.5596714e-12 </wgt>
<wgt id='1051'> +1.5670587e-12 </wgt>
<wgt id='1052'> +1.6142964e-12 </wgt>
<wgt id='1053'> +1.5662182e-12 </wgt>
<wgt id='1054'> +1.5069021e-12 </wgt>
<wgt id='1055'> +1.5618308e-12 </wgt>
<wgt id='1056'> +1.5750142e-12 </wgt>
<wgt id='1057'> +1.5738597e-12 </wgt>
<wgt id='1058'> +1.5235301e-12 </wgt>
<wgt id='1059'> +1.5632236e-12 </wgt>
<wgt id='1060'> +1.5113156e-12 </wgt>
<wgt id='1061'> +1.5910818e-12 </wgt>
<wgt id='1062'> +1.5936894e-12 </wgt>
<wgt id='1063'> +1.6119976e-12 </wgt>
<wgt id='1064'> +1.5671544e-12 </wgt>
<wgt id='1065'> +1.5714230e-12 </wgt>
<wgt id='1066'> +1.5510041e-12 </wgt>
<wgt id='1067'> +1.5179868e-12 </wgt>
<wgt id='1068'> +1.5829558e-12 </wgt>
<wgt id='1069'> +1.5850941e-12 </wgt>
<wgt id='1070'> +1.5489389e-12 </wgt>
<wgt id='1071'> +1.5572076e-12 </wgt>
<wgt id='1072'> +1.5460888e-12 </wgt>
<wgt id='1073'> +1.6307764e-12 </wgt>
<wgt id='1074'> +1.5433230e-12 </wgt>
<wgt id='1075'> +1.5806684e-12 </wgt>
<wgt id='1076'> +1.6143843e-12 </wgt>
<wgt id='1077'> +1.5416163e-12 </wgt>
<wgt id='1078'> +1.5628228e-12 </wgt>
<wgt id='1079'> +1.5910110e-12 </wgt>
<wgt id='1080'> +1.5233903e-12 </wgt>
<wgt id='1081'> +1.5884746e-12 </wgt>
<wgt id='1082'> +1.5612528e-12 </wgt>
<wgt id='1083'> +1.5817518e-12 </wgt>
<wgt id='1084'> +1.5824902e-12 </wgt>
<wgt id='1085'> +1.5060492e-12 </wgt>
<wgt id='1086'> +1.5204472e-12 </wgt>
<wgt id='1087'> +1.5790719e-12 </wgt>
<wgt id='1088'> +1.5564462e-12 </wgt>
<wgt id='1089'> +1.5816110e-12 </wgt>
<wgt id='1090'> +1.5621806e-12 </wgt>
<wgt id='1091'> +1.5458119e-12 </wgt>
<wgt id='1092'> +1.5831065e-12 </wgt>
<wgt id='1093'> +1.5709584e-12 </wgt>
<wgt id='1094'> +1.5003052e-12 </wgt>
<wgt id='1095'> +1.6043609e-12 </wgt>
<wgt id='1096'> +1.5834195e-12 </wgt>
<wgt id='1097'> +1.4981896e-12 </wgt>
<wgt id='1098'> +1.5556438e-12 </wgt>
<wgt id='1099'> +1.5798007e-12 </wgt>
<wgt id='1100'> +1.5540260e-12 </wgt>
<wgt id='1101'> +1.4961088e-12 </wgt>
<wgt id='1102'> +1.5710584e-12 </wgt>
<wgt id='1103'> +1.5820214e-12 </wgt>
<wgt id='1104'> +1.5702689e-12 </wgt>
<wgt id='1105'> +1.6075453e-12 </wgt>
<wgt id='1106'> +1.5371786e-12 </wgt>
<wgt id='1107'> +1.5803661e-12 </wgt>
<wgt id='1108'> +1.5653306e-12 </wgt>
<wgt id='1109'> +1.5468588e-12 </wgt>
<wgt id='1110'> +1.4952505e-12 </wgt>
<wgt id='1111'> +1.5998182e-12 </wgt>
<wgt id='1112'> +1.5536056e-12 </wgt>
<wgt id='1113'> +1.4915595e-12 </wgt>
<wgt id='1114'> +1.6067753e-12 </wgt>
<wgt id='1115'> +1.5709057e-12 </wgt>
<wgt id='1116'> +1.5269634e-12 </wgt>
<wgt id='1117'> +1.5768822e-12 </wgt>
<wgt id='1118'> +1.5600643e-12 </wgt>
<wgt id='1119'> +1.5579389e-12 </wgt>
<wgt id='1120'> +1.5559574e-12 </wgt>
<wgt id='1121'> +1.5729457e-12 </wgt>
<wgt id='1122'> +1.5704639e-12 </wgt>
<wgt id='1123'> +1.5565704e-12 </wgt>
<wgt id='1124'> +1.5774523e-12 </wgt>
<wgt id='1125'> +1.5762081e-12 </wgt>
<wgt id='1126'> +1.5503851e-12 </wgt>
<wgt id='1127'> +1.5397249e-12 </wgt>
<wgt id='1128'> +1.5936894e-12 </wgt>
<wgt id='1129'> +1.5391732e-12 </wgt>
<wgt id='1130'> +1.5538071e-12 </wgt>
<wgt id='1131'> +1.5584079e-12 </wgt>
<wgt id='1132'> +1.5736145e-12 </wgt>
<wgt id='1133'> +1.5812727e-12 </wgt>
<wgt id='1134'> +1.5923818e-12 </wgt>
<wgt id='1135'> +1.5681135e-12 </wgt>
<wgt id='1136'> +1.5306673e-12 </wgt>
<wgt id='1137'> +1.5444716e-12 </wgt>
<wgt id='1138'> +1.5489172e-12 </wgt>
<wgt id='1139'> +1.5809805e-12 </wgt>
<wgt id='1140'> +1.5729545e-12 </wgt>
<wgt id='1141'> +1.5296016e-12 </wgt>
<wgt id='1142'> +1.5542157e-12 </wgt>
<wgt id='1143'> +1.5474908e-12 </wgt>
<wgt id='1144'> +1.5536047e-12 </wgt>
<wgt id='1145'> +1.5488261e-12 </wgt>
<wgt id='1146'> +1.5720606e-12 </wgt>
<wgt id='1147'> +1.2003165e-12 </wgt>
<wgt id='1148'> +1.2292115e-12 </wgt>
<wgt id='1149'> +1.2245010e-12 </wgt>
<wgt id='1150'> +1.1744766e-12 </wgt>
<wgt id='1151'> +1.1119988e-12 </wgt>
<wgt id='1152'> +1.4696485e-12 </wgt>
<wgt id='1153'> +1.4619552e-12 </wgt>
<wgt id='1154'> +1.4740982e-12 </wgt>
<wgt id='1155'> +1.4694471e-12 </wgt>
<wgt id='1156'> +1.4697620e-12 </wgt>
<wgt id='1157'> +1.4735006e-12 </wgt>
<wgt id='1158'> +1.4643988e-12 </wgt>
<wgt id='1159'> +1.4728004e-12 </wgt>
<wgt id='1160'> +1.4676141e-12 </wgt>
<wgt id='1161'> +1.4659559e-12 </wgt>
<wgt id='1162'> +1.4721604e-12 </wgt>
<wgt id='1163'> +1.4737277e-12 </wgt>
<wgt id='1164'> +1.4655528e-12 </wgt>
<wgt id='1165'> +1.4604535e-12 </wgt>
<wgt id='1166'> +1.4786138e-12 </wgt>
<wgt id='1167'> +1.4790524e-12 </wgt>
<wgt id='1168'> +1.4568047e-12 </wgt>
<wgt id='1169'> +1.4718296e-12 </wgt>
<wgt id='1170'> +1.4679740e-12 </wgt>
<wgt id='1171'> +1.4672742e-12 </wgt>
<wgt id='1172'> +1.4725545e-12 </wgt>
<wgt id='1173'> +1.4593948e-12 </wgt>
<wgt id='1174'> +1.4793905e-12 </wgt>
<wgt id='1175'> +1.4684173e-12 </wgt>
<wgt id='1176'> +1.4697920e-12 </wgt>
<wgt id='1177'> +1.4699276e-12 </wgt>
<wgt id='1178'> +1.4692049e-12 </wgt>
<wgt id='1179'> +1.4801215e-12 </wgt>
<wgt id='1180'> +1.4537424e-12 </wgt>
<wgt id='1181'> +1.4639424e-12 </wgt>
<wgt id='1182'> +1.4750415e-12 </wgt>
<wgt id='1183'> +1.4686559e-12 </wgt>
<wgt id='1184'> +1.4697906e-12 </wgt>
<wgt id='1185'> +1.4606378e-12 </wgt>
<wgt id='1186'> +1.4743131e-12 </wgt>
<wgt id='1187'> +1.4685682e-12 </wgt>
<wgt id='1188'> +1.4700182e-12 </wgt>
<wgt id='1189'> +1.4634613e-12 </wgt>
<wgt id='1190'> +1.4594552e-12 </wgt>
<wgt id='1191'> +1.4669120e-12 </wgt>
<wgt id='1192'> +1.4697176e-12 </wgt>
<wgt id='1193'> +1.2425428e-12 </wgt>
<wgt id='1194'> +1.2411032e-12 </wgt>
<wgt id='1195'> +1.2436957e-12 </wgt>
<wgt id='1196'> +1.2487446e-12 </wgt>
<wgt id='1197'> +1.2356823e-12 </wgt>
<wgt id='1198'> +1.2428154e-12 </wgt>
<wgt id='1199'> +1.2421486e-12 </wgt>
<wgt id='1200'> +1.2450424e-12 </wgt>
<wgt id='1201'> +1.2408926e-12 </wgt>
<wgt id='1202'> +1.2406784e-12 </wgt>
<wgt id='1203'> +1.2452257e-12 </wgt>
<wgt id='1204'> +1.2312050e-12 </wgt>
<wgt id='1205'> +1.2495850e-12 </wgt>
<wgt id='1206'> +1.2474520e-12 </wgt>
<wgt id='1207'> +1.2358849e-12 </wgt>
<wgt id='1208'> +1.2349419e-12 </wgt>
<wgt id='1209'> +1.2453411e-12 </wgt>
<wgt id='1210'> +1.2455325e-12 </wgt>
<wgt id='1211'> +1.2302783e-12 </wgt>
<wgt id='1212'> +1.2431737e-12 </wgt>
<wgt id='1213'> +1.2418798e-12 </wgt>
<wgt id='1214'> +1.2248671e-12 </wgt>
<wgt id='1215'> +1.2718699e-12 </wgt>
<wgt id='1216'> +1.2531977e-12 </wgt>
<wgt id='1217'> +1.2356816e-12 </wgt>
<wgt id='1218'> +1.2465580e-12 </wgt>
<wgt id='1219'> +1.2403745e-12 </wgt>
<wgt id='1220'> +1.2467643e-12 </wgt>
<wgt id='1221'> +1.2422149e-12 </wgt>
<wgt id='1222'> +1.2406477e-12 </wgt>
<wgt id='1223'> +1.2456933e-12 </wgt>
<wgt id='1224'> +1.2445178e-12 </wgt>
<wgt id='1225'> +1.2417829e-12 </wgt>
<wgt id='1226'> +1.2399335e-12 </wgt>
<wgt id='1227'> +1.2443503e-12 </wgt>
<wgt id='1228'> +1.2389037e-12 </wgt>
<wgt id='1229'> +1.2441143e-12 </wgt>
<wgt id='1230'> +1.2351392e-12 </wgt>
<wgt id='1231'> +1.2385049e-12 </wgt>
<wgt id='1232'> +1.2413328e-12 </wgt>
<wgt id='1233'> +1.2428858e-12 </wgt>
<wgt id='1234'> +1.2425428e-12 </wgt>
<wgt id='1235'> +1.2334035e-12 </wgt>
<wgt id='1236'> +1.2368089e-12 </wgt>
<wgt id='1237'> +1.2399027e-12 </wgt>
<wgt id='1238'> +1.2450808e-12 </wgt>
<wgt id='1239'> +1.2472525e-12 </wgt>
<wgt id='1240'> +1.2492928e-12 </wgt>
<wgt id='1241'> +1.2684636e-12 </wgt>
<wgt id='1242'> +1.2628545e-12 </wgt>
<wgt id='1243'> +1.2741424e-12 </wgt>
<wgt id='1244'> +1.2611627e-12 </wgt>
<wgt id='1245'> +1.2738929e-12 </wgt>
<wgt id='1246'> +1.2694712e-12 </wgt>
<wgt id='1247'> +1.2676206e-12 </wgt>
<wgt id='1248'> +1.2683854e-12 </wgt>
<wgt id='1249'> +1.2685568e-12 </wgt>
<wgt id='1250'> +1.2700930e-12 </wgt>
<wgt id='1251'> +1.2673927e-12 </wgt>
<wgt id='1252'> +1.2649997e-12 </wgt>
<wgt id='1253'> +1.2711680e-12 </wgt>
<wgt id='1254'> +1.2568634e-12 </wgt>
<wgt id='1255'> +1.2754926e-12 </wgt>
<wgt id='1256'> +1.2729260e-12 </wgt>
<wgt id='1257'> +1.2573393e-12 </wgt>
<wgt id='1258'> +1.2920363e-12 </wgt>
<wgt id='1259'> +1.2464696e-12 </wgt>
<wgt id='1260'> +1.2727608e-12 </wgt>
<wgt id='1261'> +1.2637028e-12 </wgt>
<wgt id='1262'> +1.2719128e-12 </wgt>
<wgt id='1263'> +1.2670010e-12 </wgt>
<wgt id='1264'> +1.2721399e-12 </wgt>
<wgt id='1265'> +1.2665942e-12 </wgt>
<wgt id='1266'> +1.2652116e-12 </wgt>
<wgt id='1267'> +1.2718854e-12 </wgt>
<wgt id='1268'> +1.2686115e-12 </wgt>
<wgt id='1269'> +1.2723168e-12 </wgt>
<wgt id='1270'> +1.2611398e-12 </wgt>
<wgt id='1271'> +1.2593147e-12 </wgt>
<wgt id='1272'> +1.2691915e-12 </wgt>
<wgt id='1273'> +1.2674865e-12 </wgt>
<wgt id='1274'> +1.2709104e-12 </wgt>
<wgt id='1275'> +1.2632244e-12 </wgt>
<wgt id='1276'> +1.2704213e-12 </wgt>
<wgt id='1277'> +1.2656228e-12 </wgt>
<wgt id='1278'> +1.2677469e-12 </wgt>
<wgt id='1279'> +1.2649783e-12 </wgt>
<wgt id='1280'> +1.2689893e-12 </wgt>
<wgt id='1281'> +1.2660769e-12 </wgt>
<wgt id='1282'> +1.2684636e-12 </wgt>
<wgt id='1283'> +1.2584313e-12 </wgt>
<wgt id='1284'> +1.2623153e-12 </wgt>
<wgt id='1285'> +1.2657615e-12 </wgt>
<wgt id='1286'> +1.2712981e-12 </wgt>
<wgt id='1287'> +1.2736341e-12 </wgt>
<wgt id='1288'> +1.2754723e-12 </wgt>
<wgt id='1289'> +1.2465448e-12 </wgt>
<wgt id='1290'> +1.2499807e-12 </wgt>
<wgt id='1291'> +1.2428341e-12 </wgt>
<wgt id='1292'> +1.2403919e-12 </wgt>
<wgt id='1293'> +1.2509733e-12 </wgt>
<wgt id='1294'> +1.2470460e-12 </wgt>
<wgt id='1295'> +1.2460355e-12 </wgt>
<wgt id='1296'> +1.2413908e-12 </wgt>
<wgt id='1297'> +1.2528721e-12 </wgt>
<wgt id='1298'> +1.2515527e-12 </wgt>
<wgt id='1299'> +1.2402045e-12 </wgt>
<wgt id='1300'> +1.2496320e-12 </wgt>
<wgt id='1301'> +1.2403487e-12 </wgt>
<wgt id='1302'> +1.2454501e-12 </wgt>
<wgt id='1303'> +1.2480678e-12 </wgt>
<wgt id='1304'> +1.2439818e-12 </wgt>
<wgt id='1305'> +1.2482844e-12 </wgt>
<wgt id='1306'> +1.2442012e-12 </wgt>
<wgt id='1307'> +1.2492982e-12 </wgt>
<wgt id='1308'> +1.2565061e-12 </wgt>
<wgt id='1309'> +1.2389275e-12 </wgt>
<wgt id='1310'> +1.2456974e-12 </wgt>
<wgt id='1311'> +1.2475820e-12 </wgt>
<wgt id='1312'> +1.2469179e-12 </wgt>
<wgt id='1313'> +1.2463800e-12 </wgt>
<wgt id='1314'> +1.2513998e-12 </wgt>
<wgt id='1315'> +1.2356856e-12 </wgt>
<wgt id='1316'> +1.2531207e-12 </wgt>
<wgt id='1317'> +1.2463585e-12 </wgt>
<wgt id='1318'> +1.2566221e-12 </wgt>
<wgt id='1319'> +1.2344372e-12 </wgt>
<wgt id='1320'> +1.2577979e-12 </wgt>
<wgt id='1321'> +1.2369510e-12 </wgt>
<wgt id='1322'> +1.2466616e-12 </wgt>
<wgt id='1323'> +1.2463604e-12 </wgt>
<wgt id='1324'> +1.2437871e-12 </wgt>
<wgt id='1325'> +1.2566586e-12 </wgt>
<wgt id='1326'> +1.2455686e-12 </wgt>
<wgt id='1327'> +1.2492294e-12 </wgt>
<wgt id='1328'> +1.2476096e-12 </wgt>
<wgt id='1329'> +1.2453268e-12 </wgt>
<wgt id='1330'> +1.2220837e-12 </wgt>
<wgt id='1331'> +1.2615836e-12 </wgt>
<wgt id='1332'> +1.2679828e-12 </wgt>
<wgt id='1333'> +1.2312599e-12 </wgt>
<wgt id='1334'> +1.2409561e-12 </wgt>
<wgt id='1335'> +1.2602285e-12 </wgt>
<wgt id='1336'> +1.2415693e-12 </wgt>
<wgt id='1337'> +1.2443991e-12 </wgt>
<wgt id='1338'> +1.2464832e-12 </wgt>
<wgt id='1339'> +1.2465952e-12 </wgt>
<wgt id='1340'> +1.2251592e-12 </wgt>
<wgt id='1341'> +1.2288189e-12 </wgt>
<wgt id='1342'> +1.2212269e-12 </wgt>
<wgt id='1343'> +1.2188765e-12 </wgt>
<wgt id='1344'> +1.2293834e-12 </wgt>
<wgt id='1345'> +1.2256362e-12 </wgt>
<wgt id='1346'> +1.2247128e-12 </wgt>
<wgt id='1347'> +1.2200452e-12 </wgt>
<wgt id='1348'> +1.2308352e-12 </wgt>
<wgt id='1349'> +1.2295433e-12 </wgt>
<wgt id='1350'> +1.2208136e-12 </wgt>
<wgt id='1351'> +1.2282277e-12 </wgt>
<wgt id='1352'> +1.2184435e-12 </wgt>
<wgt id='1353'> +1.2236062e-12 </wgt>
<wgt id='1354'> +1.2279335e-12 </wgt>
<wgt id='1355'> +1.2228060e-12 </wgt>
<wgt id='1356'> +1.2264713e-12 </wgt>
<wgt id='1357'> +1.2256482e-12 </wgt>
<wgt id='1358'> +1.2247378e-12 </wgt>
<wgt id='1359'> +1.2358868e-12 </wgt>
<wgt id='1360'> +1.2158946e-12 </wgt>
<wgt id='1361'> +1.2242607e-12 </wgt>
<wgt id='1362'> +1.2265023e-12 </wgt>
<wgt id='1363'> +1.2252836e-12 </wgt>
<wgt id='1364'> +1.2255101e-12 </wgt>
<wgt id='1365'> +1.2131505e-12 </wgt>
<wgt id='1366'> +1.2316255e-12 </wgt>
<wgt id='1367'> +1.2310244e-12 </wgt>
<wgt id='1368'> +1.2248277e-12 </wgt>
<wgt id='1369'> +1.2336516e-12 </wgt>
<wgt id='1370'> +1.2150136e-12 </wgt>
<wgt id='1371'> +1.2336038e-12 </wgt>
<wgt id='1372'> +1.2148956e-12 </wgt>
<wgt id='1373'> +1.2240169e-12 </wgt>
<wgt id='1374'> +1.2260626e-12 </wgt>
<wgt id='1375'> +1.2226548e-12 </wgt>
<wgt id='1376'> +1.2351878e-12 </wgt>
<wgt id='1377'> +1.2244007e-12 </wgt>
<wgt id='1378'> +1.2279622e-12 </wgt>
<wgt id='1379'> +1.2257655e-12 </wgt>
<wgt id='1380'> +1.2243089e-12 </wgt>
<wgt id='1381'> +1.1995365e-12 </wgt>
<wgt id='1382'> +1.2391708e-12 </wgt>
<wgt id='1383'> +1.2472449e-12 </wgt>
<wgt id='1384'> +1.2073861e-12 </wgt>
<wgt id='1385'> +1.2194297e-12 </wgt>
<wgt id='1386'> +1.2382545e-12 </wgt>
<wgt id='1387'> +1.2188679e-12 </wgt>
<wgt id='1388'> +1.2225077e-12 </wgt>
<wgt id='1389'> +1.2236216e-12 </wgt>
<wgt id='1390'> +1.2255574e-12 </wgt>
<wgt id='1391'> +1.2064976e-12 </wgt>
<wgt id='1392'> +1.1774555e-12 </wgt>
<wgt id='1393'> +1.1867776e-12 </wgt>
<wgt id='1394'> +1.1964626e-12 </wgt>
<wgt id='1395'> +1.2146321e-12 </wgt>
<wgt id='1396'> +1.2063555e-12 </wgt>
<wgt id='1397'> +1.1700729e-12 </wgt>
<wgt id='1398'> +1.1777238e-12 </wgt>
<wgt id='1399'> +1.1846170e-12 </wgt>
<wgt id='1400'> +1.1914466e-12 </wgt>
<wgt id='1401'> +1.1989061e-12 </wgt>
<wgt id='1402'> +1.2126664e-12 </wgt>
<wgt id='1403'> +1.2194453e-12 </wgt>
<wgt id='1404'> +1.2255515e-12 </wgt>
<wgt id='1405'> +1.2063555e-12 </wgt>
<wgt id='1406'> +1.2021171e-12 </wgt>
<wgt id='1407'> +1.2045422e-12 </wgt>
<wgt id='1408'> +1.2081210e-12 </wgt>
<wgt id='1409'> +1.2095591e-12 </wgt>
<wgt id='1410'> +1.2340537e-12 </wgt>
<wgt id='1411'> +1.2359993e-12 </wgt>
<wgt id='1412'> +1.2315749e-12 </wgt>
<wgt id='1413'> +1.2409797e-12 </wgt>
<wgt id='1414'> +1.2271963e-12 </wgt>
<wgt id='1415'> +1.2270336e-12 </wgt>
<wgt id='1416'> +1.2368892e-12 </wgt>
<wgt id='1417'> +1.2262887e-12 </wgt>
<wgt id='1418'> +1.2418088e-12 </wgt>
<wgt id='1419'> +1.2356167e-12 </wgt>
<wgt id='1420'> +1.2325421e-12 </wgt>
<wgt id='1421'> +1.2220365e-12 </wgt>
<wgt id='1422'> +1.2392495e-12 </wgt>
<wgt id='1423'> +1.2338321e-12 </wgt>
<wgt id='1424'> +1.2343178e-12 </wgt>
<wgt id='1425'> +1.2304552e-12 </wgt>
<wgt id='1426'> +1.2379453e-12 </wgt>
<wgt id='1427'> +1.2399076e-12 </wgt>
<wgt id='1428'> +1.2305858e-12 </wgt>
<wgt id='1429'> +1.2274464e-12 </wgt>
<wgt id='1430'> +1.2429763e-12 </wgt>
<wgt id='1431'> +1.2398910e-12 </wgt>
<wgt id='1432'> +1.2299063e-12 </wgt>
<wgt id='1433'> +1.2402609e-12 </wgt>
<wgt id='1434'> +1.2270822e-12 </wgt>
<wgt id='1435'> +1.2356568e-12 </wgt>
<wgt id='1436'> +1.2302420e-12 </wgt>
<wgt id='1437'> +1.2406454e-12 </wgt>
<wgt id='1438'> +1.2328542e-12 </wgt>
<wgt id='1439'> +1.2269394e-12 </wgt>
<wgt id='1440'> +1.2509706e-12 </wgt>
<wgt id='1441'> +1.2366362e-12 </wgt>
<wgt id='1442'> +1.2293003e-12 </wgt>
<wgt id='1443'> +1.2309629e-12 </wgt>
<wgt id='1444'> +1.2415853e-12 </wgt>
<wgt id='1445'> +1.2455366e-12 </wgt>
<wgt id='1446'> +1.2300667e-12 </wgt>
<wgt id='1447'> +1.2350539e-12 </wgt>
<wgt id='1448'> +1.2348356e-12 </wgt>
<wgt id='1449'> +1.2355770e-12 </wgt>
<wgt id='1450'> +1.2327208e-12 </wgt>
<wgt id='1451'> +1.2444396e-12 </wgt>
<wgt id='1452'> +1.2053006e-12 </wgt>
<wgt id='1453'> +1.2363197e-12 </wgt>
<wgt id='1454'> +1.2207810e-12 </wgt>
<wgt id='1455'> +1.2192304e-12 </wgt>
<wgt id='1456'> +1.2401140e-12 </wgt>
<wgt id='1457'> +1.2416077e-12 </wgt>
<wgt id='1458'> +1.2305005e-12 </wgt>
<wgt id='1459'> +1.2381721e-12 </wgt>
<wgt id='1460'> +1.2276693e-12 </wgt>
<wgt id='1461'> +1.2340537e-12 </wgt>
<wgt id='1462'> +1.2264149e-12 </wgt>
<wgt id='1463'> +1.2445497e-12 </wgt>
<wgt id='1464'> +1.2355477e-12 </wgt>
<wgt id='1465'> +1.2072095e-12 </wgt>
<wgt id='1466'> +1.2133054e-12 </wgt>
<wgt id='1467'> +1.2196410e-12 </wgt>
<wgt id='1468'> +1.2242187e-12 </wgt>
<wgt id='1469'> +1.2301398e-12 </wgt>
<wgt id='1470'> +1.2414945e-12 </wgt>
<wgt id='1471'> +1.2459130e-12 </wgt>
<wgt id='1472'> +1.2514135e-12 </wgt>
<wgt id='1473'> +1.2355477e-12 </wgt>
<wgt id='1474'> +1.2306214e-12 </wgt>
<wgt id='1475'> +1.2322874e-12 </wgt>
<wgt id='1476'> +1.2376825e-12 </wgt>
<wgt id='1477'> +1.2397158e-12 </wgt>
<wgt id='1478'> +1.1832974e-12 </wgt>
<wgt id='1479'> +1.1824922e-12 </wgt>
<wgt id='1480'> +1.2124257e-12 </wgt>
<wgt id='1481'> +1.1747095e-12 </wgt>
<wgt id='1482'> +1.1847141e-12 </wgt>
<wgt id='1483'> +1.1750492e-12 </wgt>
<wgt id='1484'> +1.1841437e-12 </wgt>
<wgt id='1485'> +1.1891943e-12 </wgt>
<wgt id='1486'> +1.1831013e-12 </wgt>
<wgt id='1487'> +1.1824051e-12 </wgt>
<wgt id='1488'> +1.1803066e-12 </wgt>
<wgt id='1489'> +1.2055874e-12 </wgt>
<wgt id='1490'> +1.1818681e-12 </wgt>
<wgt id='1491'> +1.1862465e-12 </wgt>
<wgt id='1492'> +1.1831214e-12 </wgt>
<wgt id='1493'> +1.1651197e-12 </wgt>
<wgt id='1494'> +1.1847859e-12 </wgt>
<wgt id='1495'> +1.1851002e-12 </wgt>
<wgt id='1496'> +1.1833834e-12 </wgt>
<wgt id='1497'> +1.1842489e-12 </wgt>
<wgt id='1498'> +1.1829995e-12 </wgt>
<wgt id='1499'> +1.1855603e-12 </wgt>
<wgt id='1500'> +1.1838684e-12 </wgt>
<wgt id='1501'> +1.1829644e-12 </wgt>
<wgt id='1502'> +1.1837328e-12 </wgt>
<wgt id='1503'> +1.1865861e-12 </wgt>
<wgt id='1504'> +1.1831307e-12 </wgt>
<wgt id='1505'> +1.1853481e-12 </wgt>
<wgt id='1506'> +1.1835108e-12 </wgt>
<wgt id='1507'> +1.1816584e-12 </wgt>
<wgt id='1508'> +1.1880694e-12 </wgt>
<wgt id='1509'> +1.2794815e-12 </wgt>
<wgt id='1510'> +1.2780560e-12 </wgt>
<wgt id='1511'> +1.2822485e-12 </wgt>
<wgt id='1512'> +1.2816757e-12 </wgt>
<wgt id='1513'> +1.2858514e-12 </wgt>
<wgt id='1514'> +1.2759982e-12 </wgt>
<wgt id='1515'> +1.2724547e-12 </wgt>
<wgt id='1516'> +1.2768964e-12 </wgt>
<wgt id='1517'> +1.2752074e-12 </wgt>
<wgt id='1518'> +1.2810781e-12 </wgt>
<wgt id='1519'> +1.2726885e-12 </wgt>
<wgt id='1520'> +1.2770987e-12 </wgt>
<wgt id='1521'> +1.2875025e-12 </wgt>
<wgt id='1522'> +1.2833355e-12 </wgt>
<wgt id='1523'> +1.2771982e-12 </wgt>
<wgt id='1524'> +1.2884714e-12 </wgt>
<wgt id='1525'> +1.2818518e-12 </wgt>
<wgt id='1526'> +1.2738766e-12 </wgt>
<wgt id='1527'> +1.2798535e-12 </wgt>
<wgt id='1528'> +1.2718543e-12 </wgt>
<wgt id='1529'> +1.2776150e-12 </wgt>
<wgt id='1530'> +1.2822537e-12 </wgt>
<wgt id='1531'> +1.2794762e-12 </wgt>
<wgt id='1532'> +1.2778416e-12 </wgt>
<wgt id='1533'> +1.2925535e-12 </wgt>
<wgt id='1534'> +1.2787150e-12 </wgt>
<wgt id='1535'> +1.2803627e-12 </wgt>
<wgt id='1536'> +1.2814030e-12 </wgt>
<wgt id='1537'> +1.2814810e-12 </wgt>
<wgt id='1538'> +1.2771297e-12 </wgt>
<wgt id='1539'> +1.2776980e-12 </wgt>
<wgt id='1540'> +1.2791293e-12 </wgt>
<wgt id='1541'> +1.2786665e-12 </wgt>
<wgt id='1542'> +1.2817169e-12 </wgt>
<wgt id='1543'> +1.2782985e-12 </wgt>
<wgt id='1544'> +1.2766121e-12 </wgt>
<wgt id='1545'> +1.2824186e-12 </wgt>
<wgt id='1546'> +1.2816812e-12 </wgt>
<wgt id='1547'> +1.2801897e-12 </wgt>
<wgt id='1548'> +1.2781059e-12 </wgt>
<wgt id='1549'> +1.2806718e-12 </wgt>
<wgt id='1550'> +1.2788202e-12 </wgt>
<wgt id='1551'> +1.2768558e-12 </wgt>
<wgt id='1552'> +1.2782514e-12 </wgt>
<wgt id='1553'> +1.2834960e-12 </wgt>
<wgt id='1554'> +1.2797936e-12 </wgt>
<wgt id='1555'> +1.2805675e-12 </wgt>
<wgt id='1556'> +1.2792645e-12 </wgt>
<wgt id='1557'> +1.2791089e-12 </wgt>
<wgt id='1558'> +1.2794215e-12 </wgt>
<wgt id='1559'> +1.2800384e-12 </wgt>
<wgt id='1560'> +1.2776231e-12 </wgt>
<wgt id='1561'> +1.2793972e-12 </wgt>
<wgt id='1562'> +1.2792748e-12 </wgt>
<wgt id='1563'> +1.2780381e-12 </wgt>
<wgt id='1564'> +1.2798942e-12 </wgt>
<wgt id='1565'> +1.2788300e-12 </wgt>
<wgt id='1566'> +1.2813173e-12 </wgt>
<wgt id='1567'> +1.2801130e-12 </wgt>
<wgt id='1568'> +1.2798320e-12 </wgt>
<wgt id='1569'> +1.2793800e-12 </wgt>
<wgt id='1570'> +1.2799611e-12 </wgt>
<wgt id='1571'> +1.2796059e-12 </wgt>
<wgt id='1572'> +1.2792148e-12 </wgt>
<wgt id='1573'> +1.2779606e-12 </wgt>
<wgt id='1574'> +1.2797097e-12 </wgt>
<wgt id='1575'> +1.2804101e-12 </wgt>
<wgt id='1576'> +1.2784690e-12 </wgt>
<wgt id='1577'> +1.2791946e-12 </wgt>
<wgt id='1578'> +1.2804069e-12 </wgt>
<wgt id='1579'> +1.2798623e-12 </wgt>
<wgt id='1580'> +1.2800140e-12 </wgt>
<wgt id='1581'> +1.2786265e-12 </wgt>
<wgt id='1582'> +1.2792545e-12 </wgt>
<wgt id='1583'> +1.2789862e-12 </wgt>
<wgt id='1584'> +1.2802851e-12 </wgt>
<wgt id='1585'> +1.2800134e-12 </wgt>
<wgt id='1586'> +1.2801483e-12 </wgt>
<wgt id='1587'> +1.2801289e-12 </wgt>
<wgt id='1588'> +1.2796242e-12 </wgt>
<wgt id='1589'> +1.2797255e-12 </wgt>
<wgt id='1590'> +1.2793928e-12 </wgt>
<wgt id='1591'> +1.2799636e-12 </wgt>
<wgt id='1592'> +1.2800895e-12 </wgt>
<wgt id='1593'> +1.2793208e-12 </wgt>
<wgt id='1594'> +1.2794073e-12 </wgt>
<wgt id='1595'> +1.2793012e-12 </wgt>
<wgt id='1596'> +1.2794051e-12 </wgt>
<wgt id='1597'> +1.2797479e-12 </wgt>
<wgt id='1598'> +1.2795493e-12 </wgt>
<wgt id='1599'> +1.2792920e-12 </wgt>
<wgt id='1600'> +1.2795666e-12 </wgt>
<wgt id='1601'> +1.2791501e-12 </wgt>
<wgt id='1602'> +1.2792188e-12 </wgt>
<wgt id='1603'> +1.2790457e-12 </wgt>
<wgt id='1604'> +1.2795021e-12 </wgt>
<wgt id='1605'> +1.2798131e-12 </wgt>
<wgt id='1606'> +1.2793710e-12 </wgt>
<wgt id='1607'> +1.2792323e-12 </wgt>
<wgt id='1608'> +1.2792138e-12 </wgt>
<wgt id='1609'> +1.2795176e-12 </wgt>
<wgt id='1610'> +1.2702912e-12 </wgt>
<wgt id='1611'> +1.2895373e-12 </wgt>
<wgt id='1612'> +1.4934297e-12 </wgt>
<wgt id='1613'> +1.4984673e-12 </wgt>
<wgt id='1614'> +1.5236713e-12 </wgt>
<wgt id='1615'> +1.4760871e-12 </wgt>
<wgt id='1616'> +1.5782329e-12 </wgt>
<wgt id='1617'> +1.5267159e-12 </wgt>
<wgt id='1618'> +1.4891444e-12 </wgt>
<wgt id='1619'> +1.4979264e-12 </wgt>
<wgt id='1620'> +1.4833836e-12 </wgt>
<wgt id='1621'> +1.4692110e-12 </wgt>
<wgt id='1622'> +1.4646772e-12 </wgt>
<wgt id='1623'> +1.5164578e-12 </wgt>
<wgt id='1624'> +1.4514187e-12 </wgt>
<wgt id='1625'> +1.4877553e-12 </wgt>
<wgt id='1626'> +1.4503218e-12 </wgt>
<wgt id='1627'> +1.4760065e-12 </wgt>
<wgt id='1628'> +1.4928682e-12 </wgt>
<wgt id='1629'> +1.4996066e-12 </wgt>
<wgt id='1630'> +1.5103736e-12 </wgt>
<wgt id='1631'> +1.4810900e-12 </wgt>
<wgt id='1632'> +1.4578882e-12 </wgt>
<wgt id='1633'> +1.4636738e-12 </wgt>
<wgt id='1634'> +1.4642774e-12 </wgt>
<wgt id='1635'> +1.5009533e-12 </wgt>
<wgt id='1636'> +1.5271045e-12 </wgt>
<wgt id='1637'> +1.4857089e-12 </wgt>
<wgt id='1638'> +1.4865271e-12 </wgt>
<wgt id='1639'> +1.5338659e-12 </wgt>
<wgt id='1640'> +1.4955740e-12 </wgt>
<wgt id='1641'> +1.4822796e-12 </wgt>
<wgt id='1642'> +1.4720587e-12 </wgt>
<wgt id='1643'> +1.5291298e-12 </wgt>
<wgt id='1644'> +1.4298295e-12 </wgt>
<wgt id='1645'> +1.4704558e-12 </wgt>
<wgt id='1646'> +1.5117033e-12 </wgt>
<wgt id='1647'> +1.5261061e-12 </wgt>
<wgt id='1648'> +1.4950369e-12 </wgt>
<wgt id='1649'> +1.4958556e-12 </wgt>
<wgt id='1650'> +1.4893525e-12 </wgt>
<wgt id='1651'> +1.4669161e-12 </wgt>
<wgt id='1652'> +1.4892149e-12 </wgt>
<wgt id='1653'> +1.5536088e-12 </wgt>
<wgt id='1654'> +1.5130202e-12 </wgt>
<wgt id='1655'> +1.4740091e-12 </wgt>
<wgt id='1656'> +1.4652960e-12 </wgt>
<wgt id='1657'> +1.5044180e-12 </wgt>
<wgt id='1658'> +1.4688864e-12 </wgt>
<wgt id='1659'> +1.4514187e-12 </wgt>
<wgt id='1660'> +1.4734819e-12 </wgt>
<wgt id='1661'> +1.4685002e-12 </wgt>
<wgt id='1662'> +1.4489219e-12 </wgt>
<wgt id='1663'> +1.4960776e-12 </wgt>
<wgt id='1664'> +1.4987879e-12 </wgt>
<wgt id='1665'> +1.4823445e-12 </wgt>
<wgt id='1666'> +1.4837265e-12 </wgt>
<wgt id='1667'> +1.5022960e-12 </wgt>
<wgt id='1668'> +1.5404676e-12 </wgt>
<wgt id='1669'> +1.4718136e-12 </wgt>
<wgt id='1670'> +1.5030745e-12 </wgt>
<wgt id='1671'> +1.4613575e-12 </wgt>
<wgt id='1672'> +1.4674594e-12 </wgt>
<wgt id='1673'> +1.5631925e-12 </wgt>
<wgt id='1674'> +1.5376898e-12 </wgt>
<wgt id='1675'> +1.4918861e-12 </wgt>
<wgt id='1676'> +1.5240903e-12 </wgt>
<wgt id='1677'> +1.5030522e-12 </wgt>
<wgt id='1678'> +1.5079253e-12 </wgt>
<wgt id='1679'> +1.5551519e-12 </wgt>
<wgt id='1680'> +1.5465106e-12 </wgt>
<wgt id='1681'> +1.4977161e-12 </wgt>
<wgt id='1682'> +1.4485238e-12 </wgt>
<wgt id='1683'> +1.5015528e-12 </wgt>
<wgt id='1684'> +1.4239426e-12 </wgt>
<wgt id='1685'> +1.4888156e-12 </wgt>
<wgt id='1686'> +1.4815935e-12 </wgt>
<wgt id='1687'> +1.5037752e-12 </wgt>
<wgt id='1688'> +1.5101750e-12 </wgt>
<wgt id='1689'> +1.4593766e-12 </wgt>
<wgt id='1690'> +1.4944588e-12 </wgt>
<wgt id='1691'> +1.5224820e-12 </wgt>
<wgt id='1692'> +1.5104222e-12 </wgt>
<wgt id='1693'> +1.4852894e-12 </wgt>
<wgt id='1694'> +1.3863481e-12 </wgt>
<wgt id='1695'> +1.4524823e-12 </wgt>
<wgt id='1696'> +1.5415612e-12 </wgt>
<wgt id='1697'> +1.5655722e-12 </wgt>
<wgt id='1698'> +1.4816972e-12 </wgt>
<wgt id='1699'> +1.5351496e-12 </wgt>
<wgt id='1700'> +1.4880945e-12 </wgt>
<wgt id='1701'> +1.5149337e-12 </wgt>
<wgt id='1702'> +1.5238185e-12 </wgt>
<wgt id='1703'> +1.4814099e-12 </wgt>
<wgt id='1704'> +1.4936730e-12 </wgt>
<wgt id='1705'> +1.4873607e-12 </wgt>
<wgt id='1706'> +1.5010857e-12 </wgt>
<wgt id='1707'> +1.4544859e-12 </wgt>
<wgt id='1708'> +1.4976891e-12 </wgt>
<wgt id='1709'> +1.5072120e-12 </wgt>
<wgt id='1710'> +1.5006273e-12 </wgt>
<wgt id='1711'> +1.5136162e-12 </wgt>
<wgt id='1712'> +1.4784645e-12 </wgt>
<wgt id='1713'> +1.1944527e-12 </wgt>
<wgt id='1714'> +1.1613928e-12 </wgt>
<wgt id='1715'> +1.2202800e-12 </wgt>
<wgt id='1716'> +1.2334755e-12 </wgt>
<wgt id='1717'> +1.2134838e-12 </wgt>
<wgt id='1718'> +1.1321959e-12 </wgt>
<wgt id='1719'> +1.1389534e-12 </wgt>
<wgt id='1720'> +1.2253419e-12 </wgt>
<wgt id='1721'> +1.2031360e-12 </wgt>
<wgt id='1722'> +1.1906153e-12 </wgt>
<wgt id='1723'> +1.1481415e-12 </wgt>
<wgt id='1724'> +1.1583766e-12 </wgt>
<wgt id='1725'> +1.1960680e-12 </wgt>
<wgt id='1726'> +1.2394984e-12 </wgt>
<wgt id='1727'> +1.1592853e-12 </wgt>
<wgt id='1728'> +1.1963692e-12 </wgt>
<wgt id='1729'> +1.1901015e-12 </wgt>
<wgt id='1730'> +1.1564391e-12 </wgt>
<wgt id='1731'> +1.1409554e-12 </wgt>
<wgt id='1732'> +1.2031676e-12 </wgt>
<wgt id='1733'> +1.2134990e-12 </wgt>
<wgt id='1734'> +1.2421002e-12 </wgt>
<wgt id='1735'> +1.2212626e-12 </wgt>
<wgt id='1736'> +1.2751425e-12 </wgt>
<wgt id='1737'> +1.1850062e-12 </wgt>
<wgt id='1738'> +1.2115702e-12 </wgt>
<wgt id='1739'> +1.1948211e-12 </wgt>
<wgt id='1740'> +1.1775958e-12 </wgt>
<wgt id='1741'> +1.1608344e-12 </wgt>
<wgt id='1742'> +1.1884275e-12 </wgt>
<wgt id='1743'> +1.2314424e-12 </wgt>
<wgt id='1744'> +1.2424231e-12 </wgt>
<wgt id='1745'> +1.1197398e-12 </wgt>
<wgt id='1746'> +1.2357929e-12 </wgt>
<wgt id='1747'> +1.1825374e-12 </wgt>
<wgt id='1748'> +1.2356583e-12 </wgt>
<wgt id='1749'> +1.2138096e-12 </wgt>
<wgt id='1750'> +1.2068014e-12 </wgt>
<wgt id='1751'> +1.1549764e-12 </wgt>
<wgt id='1752'> +1.1817528e-12 </wgt>
<wgt id='1753'> +1.2212108e-12 </wgt>
<wgt id='1754'> +1.2018363e-12 </wgt>
<wgt id='1755'> +1.2153791e-12 </wgt>
<wgt id='1756'> +1.2080991e-12 </wgt>
<wgt id='1757'> +1.1922496e-12 </wgt>
<wgt id='1758'> +1.2277506e-12 </wgt>
<wgt id='1759'> +1.1758475e-12 </wgt>
<wgt id='1760'> +1.1748442e-12 </wgt>
<wgt id='1761'> +1.1615614e-12 </wgt>
<wgt id='1762'> +1.2072879e-12 </wgt>
<wgt id='1763'> +1.2243167e-12 </wgt>
<wgt id='1764'> +1.2159214e-12 </wgt>
<wgt id='1765'> +1.1945547e-12 </wgt>
<wgt id='1766'> +1.1692739e-12 </wgt>
<wgt id='1767'> +1.1997483e-12 </wgt>
<wgt id='1768'> +1.1886365e-12 </wgt>
<wgt id='1769'> +1.1567102e-12 </wgt>
<wgt id='1770'> +1.2636300e-12 </wgt>
<wgt id='1771'> +1.2057849e-12 </wgt>
<wgt id='1772'> +1.2359454e-12 </wgt>
<wgt id='1773'> +1.2146514e-12 </wgt>
<wgt id='1774'> +1.2063177e-12 </wgt>
<wgt id='1775'> +1.2047754e-12 </wgt>
<wgt id='1776'> +1.1287636e-12 </wgt>
<wgt id='1777'> +1.1892022e-12 </wgt>
<wgt id='1778'> +1.1807142e-12 </wgt>
<wgt id='1779'> +1.2045825e-12 </wgt>
<wgt id='1780'> +1.2405905e-12 </wgt>
<wgt id='1781'> +1.1996908e-12 </wgt>
<wgt id='1782'> +1.1540563e-12 </wgt>
<wgt id='1783'> +1.1909770e-12 </wgt>
<wgt id='1784'> +1.2039606e-12 </wgt>
<wgt id='1785'> +1.1214262e-12 </wgt>
<wgt id='1786'> +1.0973678e-12 </wgt>
<wgt id='1787'> +1.1848570e-12 </wgt>
<wgt id='1788'> +1.1827686e-12 </wgt>
<wgt id='1789'> +1.0960542e-12 </wgt>
<wgt id='1790'> +1.1786070e-12 </wgt>
<wgt id='1791'> +1.2379387e-12 </wgt>
<wgt id='1792'> +1.1636445e-12 </wgt>
<wgt id='1793'> +1.2468559e-12 </wgt>
<wgt id='1794'> +1.2092911e-12 </wgt>
<wgt id='1795'> +1.2054467e-12 </wgt>
<wgt id='1796'> +1.1839594e-12 </wgt>
<wgt id='1797'> +1.2028090e-12 </wgt>
<wgt id='1798'> +1.1689424e-12 </wgt>
<wgt id='1799'> +1.1861775e-12 </wgt>
<wgt id='1800'> +1.1911651e-12 </wgt>
<wgt id='1801'> +1.2136791e-12 </wgt>
<wgt id='1802'> +1.1705487e-12 </wgt>
<wgt id='1803'> +1.2048930e-12 </wgt>
<wgt id='1804'> +1.2064357e-12 </wgt>
<wgt id='1805'> +1.2080077e-12 </wgt>
<wgt id='1806'> +1.1829683e-12 </wgt>
<wgt id='1807'> +1.2111286e-12 </wgt>
<wgt id='1808'> +1.1918930e-12 </wgt>
<wgt id='1809'> +1.1771214e-12 </wgt>
<wgt id='1810'> +1.2143941e-12 </wgt>
<wgt id='1811'> +1.2328214e-12 </wgt>
<wgt id='1812'> +1.2405902e-12 </wgt>
<wgt id='1813'> +1.2010349e-12 </wgt>
<wgt id='1814'> +1.2912253e-12 </wgt>
<wgt id='1815'> +1.4700384e-12 </wgt>
<wgt id='1816'> +1.1944527e-12 </wgt>
<wgt id='1817'> +1.1613928e-12 </wgt>
<wgt id='1818'> +1.2202800e-12 </wgt>
<wgt id='1819'> +1.2334755e-12 </wgt>
<wgt id='1820'> +1.2134838e-12 </wgt>
<wgt id='1821'> +1.1321959e-12 </wgt>
<wgt id='1822'> +1.1389534e-12 </wgt>
<wgt id='1823'> +1.2253419e-12 </wgt>
<wgt id='1824'> +1.2031360e-12 </wgt>
<wgt id='1825'> +1.1906153e-12 </wgt>
<wgt id='1826'> +1.1481415e-12 </wgt>
<wgt id='1827'> +1.1583766e-12 </wgt>
<wgt id='1828'> +1.1960680e-12 </wgt>
<wgt id='1829'> +1.2394984e-12 </wgt>
<wgt id='1830'> +1.1592853e-12 </wgt>
<wgt id='1831'> +1.1963692e-12 </wgt>
<wgt id='1832'> +1.1901015e-12 </wgt>
<wgt id='1833'> +1.1564391e-12 </wgt>
<wgt id='1834'> +1.1409554e-12 </wgt>
<wgt id='1835'> +1.2031676e-12 </wgt>
<wgt id='1836'> +1.2134990e-12 </wgt>
<wgt id='1837'> +1.2421002e-12 </wgt>
<wgt id='1838'> +1.2212626e-12 </wgt>
<wgt id='1839'> +1.2751425e-12 </wgt>
<wgt id='1840'> +1.1850062e-12 </wgt>
<wgt id='1841'> +1.2115702e-12 </wgt>
<wgt id='1842'> +1.1948211e-12 </wgt>
<wgt id='1843'> +1.1775958e-12 </wgt>
<wgt id='1844'> +1.1608344e-12 </wgt>
<wgt id='1845'> +1.1884275e-12 </wgt>
<wgt id='1846'> +1.2314424e-12 </wgt>
<wgt id='1847'> +1.2424231e-12 </wgt>
<wgt id='1848'> +1.1197398e-12 </wgt>
<wgt id='1849'> +1.2357929e-12 </wgt>
<wgt id='1850'> +1.1825374e-12 </wgt>
<wgt id='1851'> +1.2356583e-12 </wgt>
<wgt id='1852'> +1.2138096e-12 </wgt>
<wgt id='1853'> +1.2068014e-12 </wgt>
<wgt id='1854'> +1.1549764e-12 </wgt>
<wgt id='1855'> +1.1817528e-12 </wgt>
<wgt id='1856'> +1.2212108e-12 </wgt>
<wgt id='1857'> +1.2018363e-12 </wgt>
<wgt id='1858'> +1.2153791e-12 </wgt>
<wgt id='1859'> +1.2080991e-12 </wgt>
<wgt id='1860'> +1.1922496e-12 </wgt>
<wgt id='1861'> +1.2277506e-12 </wgt>
<wgt id='1862'> +1.1758475e-12 </wgt>
<wgt id='1863'> +1.1748442e-12 </wgt>
<wgt id='1864'> +1.1615614e-12 </wgt>
<wgt id='1865'> +1.2072879e-12 </wgt>
<wgt id='1866'> +1.2243167e-12 </wgt>
<wgt id='1867'> +1.2159214e-12 </wgt>
<wgt id='1868'> +1.1945547e-12 </wgt>
<wgt id='1869'> +1.1692739e-12 </wgt>
<wgt id='1870'> +1.1997483e-12 </wgt>
<wgt id='1871'> +1.1886365e-12 </wgt>
<wgt id='1872'> +1.1567102e-12 </wgt>
<wgt id='1873'> +1.2636300e-12 </wgt>
<wgt id='1874'> +1.2057849e-12 </wgt>
<wgt id='1875'> +1.2359454e-12 </wgt>
<wgt id='1876'> +1.2146514e-12 </wgt>
<wgt id='1877'> +1.2063177e-12 </wgt>
<wgt id='1878'> +1.2047754e-12 </wgt>
<wgt id='1879'> +1.1287636e-12 </wgt>
<wgt id='1880'> +1.1892022e-12 </wgt>
<wgt id='1881'> +1.1807142e-12 </wgt>
<wgt id='1882'> +1.2045825e-12 </wgt>
<wgt id='1883'> +1.2405905e-12 </wgt>
<wgt id='1884'> +1.1996908e-12 </wgt>
<wgt id='1885'> +1.1540563e-12 </wgt>
<wgt id='1886'> +1.1909770e-12 </wgt>
<wgt id='1887'> +1.2039606e-12 </wgt>
<wgt id='1888'> +1.1214262e-12 </wgt>
<wgt id='1889'> +1.0973678e-12 </wgt>
<wgt id='1890'> +1.1848570e-12 </wgt>
<wgt id='1891'> +1.1827686e-12 </wgt>
<wgt id='1892'> +1.0960542e-12 </wgt>
<wgt id='1893'> +1.1786070e-12 </wgt>
<wgt id='1894'> +1.2379387e-12 </wgt>
<wgt id='1895'> +1.1636445e-12 </wgt>
<wgt id='1896'> +1.2468559e-12 </wgt>
<wgt id='1897'> +1.2092911e-12 </wgt>
<wgt id='1898'> +1.2054467e-12 </wgt>
<wgt id='1899'> +1.1839594e-12 </wgt>
<wgt id='1900'> +1.2028090e-12 </wgt>
<wgt id='1901'> +1.1689424e-12 </wgt>
<wgt id='1902'> +1.1861775e-12 </wgt>
<wgt id='1903'> +1.1911651e-12 </wgt>
<wgt id='1904'> +1.2136791e-12 </wgt>
<wgt id='1905'> +1.1705487e-12 </wgt>
<wgt id='1906'> +1.2048930e-12 </wgt>
<wgt id='1907'> +1.2064357e-12 </wgt>
<wgt id='1908'> +1.2080077e-12 </wgt>
<wgt id='1909'> +1.1829683e-12 </wgt>
<wgt id='1910'> +1.2111286e-12 </wgt>
<wgt id='1911'> +1.1918930e-12 </wgt>
<wgt id='1912'> +1.1771214e-12 </wgt>
<wgt id='1913'> +1.2143941e-12 </wgt>
<wgt id='1914'> +1.2328214e-12 </wgt>
<wgt id='1915'> +1.2405902e-12 </wgt>
<wgt id='1916'> +1.2010349e-12 </wgt>
<wgt id='1917'> +1.1875997e-12 </wgt>
<wgt id='1918'> +1.2006272e-12 </wgt>
<wgt id='1919'> +1.2424850e-12 </wgt>
</rwgt>
</event>
<event>
 9      1 +1.5607000e-12 7.70459500e+01 7.81860800e-03 1.21406200e-01
       21 -1    0    0  501  502 +0.0000000000e+00 +0.0000000000e+00 +4.2625157174e+01 4.2625157174e+01 0.0000000000e+00 0.0000e+00 1.0000e+00
       -2 -1    0    0    0  501 -0.0000000000e+00 -0.0000000000e+00 -3.4815576939e+01 3.4815576939e+01 0.0000000000e+00 0.0000e+00 1.0000e+00
     1023  2    1    2    0    0 -3.6696478076e+00 +3.5455403002e+01 -6.1535647117e+00 3.9158605987e+01 1.4999271554e+01 0.0000e+00 0.0000e+00
  1000023  2    3    3    0    0 +1.0747868632e+00 +5.5098362750e+00 -2.3005324668e+00 8.1893876499e+00 5.5009233653e+00 0.0000e+00 0.0000e+00
       -2  1    1    2    0  502 +3.6696478076e+00 -3.5455403002e+01 +1.3963144947e+01 3.8282128126e+01 0.0000000000e+00 0.0000e+00 1.0000e+00
  1000022  1    4    4    0    0 +1.3719310234e+00 +5.1539342449e+00 -2.3609533262e+00 7.6824041512e+00 5.0000000000e+00 0.0000e+00 1.0000e+00
      -11  1    4    4    0    0 -8.7582456606e-02 +1.0726856143e-01 +1.1154554616e-01 1.7781985538e-01 5.1100000000e-04 0.0000e+00 -1.0000e+00
       11  1    4    4    0    0 -2.0956170360e-01 +2.4863346862e-01 -5.1124686767e-02 3.2916364327e-01 5.1100000000e-04 0.0000e+00 1.0000e+00
  1000022  1    3    3    0    0 -4.7444346708e+00 +2.9945566727e+01 -3.8530322449e+00 3.0969218337e+01 5.0000000000e+00 0.0000e+00 1.0000e+00
<mgrwt>
<rscale>  1 0.77045946E+02</rscale>
<asrwt>0</asrwt>
<pdfrwt beam="1">  1       21 0.65577165E-02 0.77045946E+02</pdfrwt>
<pdfrwt beam="2">  1       -2 0.53562426E-02 0.77045946E+02</pdfrwt>
<totfact> 0.25922439E+06</totfact>
</mgrwt>
<rwgt>
<wgt id='1001'> +1.5607000e-12 </wgt>
<wgt id='1002'> +1.5608362e-12 </wgt>
<wgt id='1003'> +1.5608273e-12 </wgt>
<wgt id='1004'> +1.5471810e-12 </wgt>
<wgt id='1005'> +1.5607000e-12 </wgt>
<wgt id='1006'> +1.3955423e-12 </wgt>
<wgt id='1007'> +1.3945280e-12 </wgt>
<wgt id='1008'> +1.3946268e-12 </wgt>
<wgt id='1009'> +1.3613842e-12 </wgt>
<wgt id='1010'> +1.3955423e-12 </wgt>
<wgt id='1011'> +1.7719902e-12 </wgt>
<wgt id='1012'> +1.7740301e-12 </wgt>
<wgt id='1013'> +1.7738434e-12 </wgt>
<wgt id='1014'> +1.7944619e-12 </wgt>
<wgt id='1015'> +1.7719902e-12 </wgt>
<wgt id='1016'> +1.7301177e-12 </wgt>
<wgt id='1017'> +1.7330632e-12 </wgt>
<wgt id='1018'> +1.7327902e-12 </wgt>
<wgt id='1019'> +1.7738434e-12 </wgt>
<wgt id='1020'> +1.7301177e-12 </wgt>
<wgt id='1021'> +1.5470318e-12 </wgt>
<wgt id='1022'> +1.5484041e-12 </wgt>
<wgt id='1023'> +1.5482787e-12 </wgt>
<wgt id='1024'> +1.5608273e-12 </wgt>
<wgt id='1025'> +1.5470318e-12 </wgt>
<wgt id='1026'> +1.9643440e-12 </wgt>
<wgt id='1027'> +1.9697816e-12 </wgt>
<wgt id='1028'> +1.9692751e-12 </wgt>
<wgt id='1029'> +2.0573509e-12 </wgt>
<wgt id='1030'> +1.9643440e-12 </wgt>
<wgt id='1031'> +1.3641707e-12 </wgt>
<wgt id='1032'> +1.3610907e-12 </wgt>
<wgt id='1033'> +1.3613842e-12 </wgt>
<wgt id='1034'> +1.2854184e-12 </wgt>
<wgt id='1035'> +1.3641707e-12 </wgt>
<wgt id='1036'> +1.2198103e-12 </wgt>
<wgt id='1037'> +1.2160655e-12 </wgt>
<wgt id='1038'> +1.2164209e-12 </wgt>
<wgt id='1039'> +1.1310560e-12 </wgt>
<wgt id='1040'> +1.2198103e-12 </wgt>
<wgt id='1041'> +1.5488544e-12 </wgt>
<wgt id='1042'> +1.5470015e-12 </wgt>
<wgt id='1043'> +1.5471810e-12 </wgt>
<wgt id='1044'> +1.4908626e-12 </wgt>
<wgt id='1045'> +1.5488544e-12 </wgt>
<wgt id='1046'> +1.5607000e-12 </wgt>
<wgt id='1047'> +1.5994102e-12 </wgt>
<wgt id='1048'> +1.5488376e-12 </wgt>
<wgt id='1049'> +1.5286285e-12 </wgt>
<wgt id='1050'> +1.5487872e-12 </wgt>
<wgt id='1051'> +1.5435641e-12 </wgt>
<wgt id='1052'> +1.5982282e-12 </wgt>
<wgt id='1053'> +1.5529600e-12 </wgt>
<wgt id='1054'> +1.5400728e-12 </wgt>
<wgt id='1055'> +1.5327159e-12 </wgt>
<wgt id='1056'> +1.5503568e-12 </wgt>
<wgt id='1057'> +1.5924301e-12 </wgt>
<wgt id='1058'> +1.5036865e-12 </wgt>
<wgt id='1059'> +1.5501972e-12 </wgt>
<wgt id='1060'> +1.5649196e-12 </wgt>
<wgt id='1061'> +1.5863616e-12 </wgt>
<wgt id='1062'> +1.5763751e-12 </wgt>
<wgt id='1063'> +1.5795303e-12 </wgt>
<wgt id='1064'> +1.5380581e-12 </wgt>
<wgt id='1065'> +1.5686497e-12 </wgt>
<wgt id='1066'> +1.5439852e-12 </wgt>
<wgt id='1067'> +1.5146501e-12 </wgt>
<wgt id='1068'> +1.5807642e-12 </wgt>
<wgt id='1069'> +1.5645015e-12 </wgt>
<wgt id='1070'> +1.5304929e-12 </wgt>
<wgt id='1071'> +1.5391079e-12 </wgt>
<wgt id='1072'> +1.6116223e-12 </wgt>
<wgt id='1073'> +1.5825001e-12 </wgt>
<wgt id='1074'> +1.5308580e-12 </wgt>
<wgt id='1075'> +1.5741449e-12 </wgt>
<wgt id='1076'> +1.5825879e-12 </wgt>
<wgt id='1077'> +1.5820228e-12 </wgt>
<wgt id='1078'> +1.5388327e-12 </wgt>
<wgt id='1079'> +1.5714944e-12 </wgt>
<wgt id='1080'> +1.5242299e-12 </wgt>
<wgt id='1081'> +1.6053511e-12 </wgt>
<wgt id='1082'> +1.5659243e-12 </wgt>
<wgt id='1083'> +1.5690796e-12 </wgt>
<wgt id='1084'> +1.5678503e-12 </wgt>
<wgt id='1085'> +1.5479545e-12 </wgt>
<wgt id='1086'> +1.5919491e-12 </wgt>
<wgt id='1087'> +1.5874919e-12 </wgt>
<wgt id='1088'> +1.5473697e-12 </wgt>
<wgt id='1089'> +1.5660468e-12 </wgt>
<wgt id='1090'> +1.5614598e-12 </wgt>
<wgt id='1091'> +1.5774173e-12 </wgt>
<wgt id='1092'> +1.5921457e-12 </wgt>
<wgt id='1093'> +1.5624917e-12 </wgt>
<wgt id='1094'> +1.5590839e-12 </wgt>
<wgt id='1095'> +1.5881243e-12 </wgt>
<wgt id='1096'> +1.5633728e-12 </wgt>
<wgt id='1097'> +1.5156734e-12 </wgt>
<wgt id='1098'> +1.5386596e-12 </wgt>
<wgt id='1099'> +1.5709132e-12 </wgt>
<wgt id='1100'> +1.5386017e-12 </wgt>
<wgt id='1101'> +1.5872856e-12 </wgt>
<wgt id='1102'> +1.5368448e-12 </wgt>
<wgt id='1103'> +1.5569302e-12 </wgt>
<wgt id='1104'> +1.5462151e-12 </wgt>
<wgt id='1105'> +1.6045417e-12 </wgt>
<wgt id='1106'> +1.5920479e-12 </wgt>
<wgt id='1107'> +1.5732799e-12 </wgt>
<wgt id='1108'> +1.5411029e-12 </wgt>
<wgt id='1109'> +1.5722526e-12 </wgt>
<wgt id='1110'> +1.5372320e-12 </wgt>
<wgt id='1111'> +1.5833746e-12 </wgt>
<wgt id='1112'> +1.6166663e-12 </wgt>
<wgt id='1113'> +1.5451329e-12 </wgt>
<wgt id='1114'> +1.5955541e-12 </wgt>
<wgt id='1115'> +1.5606274e-12 </wgt>
<wgt id='1116'> +1.5195265e-12 </wgt>
<wgt id='1117'> +1.5593581e-12 </wgt>
<wgt id='1118'> +1.5633219e-12 </wgt>
<wgt id='1119'> +1.5285390e-12 </wgt>
<wgt id='1120'> +1.5571385e-12 </wgt>
<wgt id='1121'> +1.5665201e-12 </wgt>
<wgt id='1122'> +1.6275524e-12 </wgt>
<wgt id='1123'> +1.5261343e-12 </wgt>
<wgt id='1124'> +1.5606960e-12 </wgt>
<wgt id='1125'> +1.5748958e-12 </wgt>
<wgt id='1126'> +1.5757481e-12 </wgt>
<wgt id='1127'> +1.5270513e-12 </wgt>
<wgt id='1128'> +1.5763751e-12 </wgt>
<wgt id='1129'> +1.5753205e-12 </wgt>
<wgt id='1130'> +1.5480171e-12 </wgt>
<wgt id='1131'> +1.5688706e-12 </wgt>
<wgt id='1132'> +1.5404513e-12 </wgt>
<wgt id='1133'> +1.5132514e-12 </wgt>
<wgt id='1134'> +1.5758783e-12 </wgt>
<wgt id='1135'> +1.5640260e-12 </wgt>
<wgt id='1136'> +1.5267928e-12 </wgt>
<wgt id='1137'> +1.5369540e-12 </wgt>
<wgt id='1138'> +1.5599197e-12 </wgt>
<wgt id='1139'> +1.5638633e-12 </wgt>
<wgt id='1140'> +1.5420382e-12 </wgt>
<wgt id='1141'> +1.5110554e-12 </wgt>
<wgt id='1142'> +1.5716080e-12 </wgt>
<wgt id='1143'> +1.5773932e-12 </wgt>
<wgt id='1144'> +1.5671888e-12 </wgt>
<wgt id='1145'> +1.5649038e-12 </wgt>
<wgt id='1146'> +1.5546985e-12 </wgt>
<wgt id='1147'> +1.2356126e-12 </wgt>
<wgt id='1148'> +1.2604938e-12 </wgt>
<wgt id='1149'> +1.3014194e-12 </wgt>
<wgt id='1150'> +1.2624480e-12 </wgt>
<wgt id='1151'> +1.1679893e-12 </wgt>
<wgt id='1152'> +1.4697561e-12 </wgt>
<wgt id='1153'> +1.4626855e-12 </wgt>
<wgt id='1154'> +1.4738777e-12 </wgt>
<wgt id='1155'> +1.4689760e-12 </wgt>
<wgt id='1156'> +1.4701551e-12 </wgt>
<wgt id='1157'> +1.4729063e-12 </wgt>
<wgt id='1158'> +1.4653961e-12 </wgt>
<wgt id='1159'> +1.4724393e-12 </wgt>
<wgt id='1160'> +1.4680723e-12 </wgt>
<wgt id='1161'> +1.4667077e-12 </wgt>
<wgt id='1162'> +1.4718677e-12 </wgt>
<wgt id='1163'> +1.4736616e-12 </wgt>
<wgt id='1164'> +1.4658596e-12 </wgt>
<wgt id='1165'> +1.4624496e-12 </wgt>
<wgt id='1166'> +1.4767795e-12 </wgt>
<wgt id='1167'> +1.4740619e-12 </wgt>
<wgt id='1168'> +1.4625226e-12 </wgt>
<wgt id='1169'> +1.4710411e-12 </wgt>
<wgt id='1170'> +1.4687044e-12 </wgt>
<wgt id='1171'> +1.4661925e-12 </wgt>
<wgt id='1172'> +1.4738726e-12 </wgt>
<wgt id='1173'> +1.4612283e-12 </wgt>
<wgt id='1174'> +1.4773336e-12 </wgt>
<wgt id='1175'> +1.4677682e-12 </wgt>
<wgt id='1176'> +1.4704041e-12 </wgt>
<wgt id='1177'> +1.4703891e-12 </wgt>
<wgt id='1178'> +1.4681374e-12 </wgt>
<wgt id='1179'> +1.4798715e-12 </wgt>
<wgt id='1180'> +1.4538684e-12 </wgt>
<wgt id='1181'> +1.4639081e-12 </wgt>
<wgt id='1182'> +1.4751846e-12 </wgt>
<wgt id='1183'> +1.4682145e-12 </wgt>
<wgt id='1184'> +1.4698606e-12 </wgt>
<wgt id='1185'> +1.4629292e-12 </wgt>
<wgt id='1186'> +1.4735207e-12 </wgt>
<wgt id='1187'> +1.4690236e-12 </wgt>
<wgt id='1188'> +1.4700487e-12 </wgt>
<wgt id='1189'> +1.4661648e-12 </wgt>
<wgt id='1190'> +1.4603652e-12 </wgt>
<wgt id='1191'> +1.4629606e-12 </wgt>
<wgt id='1192'> +1.4705554e-12 </wgt>
<wgt id='1193'> +1.2925619e-12 </wgt>
<wgt id='1194'> +1.2934071e-12 </wgt>
<wgt id='1195'> +1.2917823e-12 </wgt>
<wgt id='1196'> +1.2989030e-12 </wgt>
<wgt id='1197'> +1.2854454e-12 </wgt>
<wgt id='1198'> +1.2924414e-12 </wgt>
<wgt id='1199'> +1.2926130e-12 </wgt>
<wgt id='1200'> +1.2943005e-12 </wgt>
<wgt id='1201'> +1.2913968e-12 </wgt>
<wgt id='1202'> +1.2910154e-12 </wgt>
<wgt id='1203'> +1.2947520e-12 </wgt>
<wgt id='1204'> +1.2833673e-12 </wgt>
<wgt id='1205'> +1.2981977e-12 </wgt>
<wgt id='1206'> +1.2968108e-12 </wgt>
<wgt id='1207'> +1.2867433e-12 </wgt>
<wgt id='1208'> +1.2851309e-12 </wgt>
<wgt id='1209'> +1.2952118e-12 </wgt>
<wgt id='1210'> +1.2992097e-12 </wgt>
<wgt id='1211'> +1.2779404e-12 </wgt>
<wgt id='1212'> +1.2922743e-12 </wgt>
<wgt id='1213'> +1.2926665e-12 </wgt>
<wgt id='1214'> +1.2775735e-12 </wgt>
<wgt id='1215'> +1.3177758e-12 </wgt>
<wgt id='1216'> +1.2999487e-12 </wgt>
<wgt id='1217'> +1.2874215e-12 </wgt>
<wgt id='1218'> +1.2962079e-12 </wgt>
<wgt id='1219'> +1.2906332e-12 </wgt>
<wgt id='1220'> +1.2961601e-12 </wgt>
<wgt id='1221'> +1.2917967e-12 </wgt>
<wgt id='1222'> +1.2896909e-12 </wgt>
<wgt id='1223'> +1.2960355e-12 </wgt>
<wgt id='1224'> +1.2940796e-12 </wgt>
<wgt id='1225'> +1.2919732e-12 </wgt>
<wgt id='1226'> +1.2901182e-12 </wgt>
<wgt id='1227'> +1.2942263e-12 </wgt>
<wgt id='1228'> +1.2904972e-12 </wgt>
<wgt id='1229'> +1.2931224e-12 </wgt>
<wgt id='1230'> +1.2859506e-12 </wgt>
<wgt id='1231'> +1.2854814e-12 </wgt>
<wgt id='1232'> +1.2920266e-12 </wgt>
<wgt id='1233'> +1.2926370e-12 </wgt>
<wgt id='1234'> +1.2925619e-12 </wgt>
<wgt id='1235'> +1.2843183e-12 </wgt>
<wgt id='1236'> +1.2874104e-12 </wgt>
<wgt id='1237'> +1.2901952e-12 </wgt>
<wgt id='1238'> +1.2948702e-12 </wgt>
<wgt id='1239'> +1.2968478e-12 </wgt>
<wgt id='1240'> +1.2986610e-12 </wgt>
<wgt id='1241'> +1.2948397e-12 </wgt>
<wgt id='1242'> +1.2921683e-12 </wgt>
<wgt id='1243'> +1.2976316e-12 </wgt>
<wgt id='1244'> +1.2872082e-12 </wgt>
<wgt id='1245'> +1.3005624e-12 </wgt>
<wgt id='1246'> +1.2953531e-12 </wgt>
<wgt id='1247'> +1.2945086e-12 </wgt>
<wgt id='1248'> +1.2948085e-12 </wgt>
<wgt id='1249'> +1.2949726e-12 </wgt>
<wgt id='1250'> +1.2968877e-12 </wgt>
<wgt id='1251'> +1.2935162e-12 </wgt>
<wgt id='1252'> +1.2917948e-12 </wgt>
<wgt id='1253'> +1.2973133e-12 </wgt>
<wgt id='1254'> +1.2850294e-12 </wgt>
<wgt id='1255'> +1.3008241e-12 </wgt>
<wgt id='1256'> +1.2989654e-12 </wgt>
<wgt id='1257'> +1.2845996e-12 </wgt>
<wgt id='1258'> +1.3157093e-12 </wgt>
<wgt id='1259'> +1.2759909e-12 </wgt>
<wgt id='1260'> +1.2985935e-12 </wgt>
<wgt id='1261'> +1.2906914e-12 </wgt>
<wgt id='1262'> +1.2956836e-12 </wgt>
<wgt id='1263'> +1.2943143e-12 </wgt>
<wgt id='1264'> +1.2976659e-12 </wgt>
<wgt id='1265'> +1.2934552e-12 </wgt>
<wgt id='1266'> +1.2916560e-12 </wgt>
<wgt id='1267'> +1.2978254e-12 </wgt>
<wgt id='1268'> +1.2948154e-12 </wgt>
<wgt id='1269'> +1.2982461e-12 </wgt>
<wgt id='1270'> +1.2887675e-12 </wgt>
<wgt id='1271'> +1.2871712e-12 </wgt>
<wgt id='1272'> +1.2950859e-12 </wgt>
<wgt id='1273'> +1.2941072e-12 </wgt>
<wgt id='1274'> +1.2971221e-12 </wgt>
<wgt id='1275'> +1.2902537e-12 </wgt>
<wgt id='1276'> +1.2948814e-12 </wgt>
<wgt id='1277'> +1.2939083e-12 </wgt>
<wgt id='1278'> +1.2930389e-12 </wgt>
<wgt id='1279'> +1.2890270e-12 </wgt>
<wgt id='1280'> +1.2951400e-12 </wgt>
<wgt id='1281'> +1.2927078e-12 </wgt>
<wgt id='1282'> +1.2948397e-12 </wgt>
<wgt id='1283'> +1.2860503e-12 </wgt>
<wgt id='1284'> +1.2893905e-12 </wgt>
<wgt id='1285'> +1.2923911e-12 </wgt>
<wgt id='1286'> +1.2973042e-12 </wgt>
<wgt id='1287'> +1.2993697e-12 </wgt>
<wgt id='1288'> +1.3010093e-12 </wgt>
<wgt id='1289'> +1.3114961e-12 </wgt>
<wgt id='1290'> +1.3119168e-12 </wgt>
<wgt id='1291'> +1.3109671e-12 </wgt>
<wgt id='1292'> +1.3056910e-12 </wgt>
<wgt id='1293'> +1.3156550e-12 </wgt>
<wgt id='1294'> +1.3115022e-12 </wgt>
<wgt id='1295'> +1.3114828e-12 </wgt>
<wgt id='1296'> +1.3070102e-12 </wgt>
<wgt id='1297'> +1.3169452e-12 </wgt>
<wgt id='1298'> +1.3148191e-12 </wgt>
<wgt id='1299'> +1.3072842e-12 </wgt>
<wgt id='1300'> +1.3138558e-12 </wgt>
<wgt id='1301'> +1.3066506e-12 </wgt>
<wgt id='1302'> +1.3100062e-12 </wgt>
<wgt id='1303'> +1.3134770e-12 </wgt>
<wgt id='1304'> +1.3092292e-12 </wgt>
<wgt id='1305'> +1.3129609e-12 </wgt>
<wgt id='1306'> +1.3092569e-12 </wgt>
<wgt id='1307'> +1.3140778e-12 </wgt>
<wgt id='1308'> +1.3170956e-12 </wgt>
<wgt id='1309'> +1.3072233e-12 </wgt>
<wgt id='1310'> +1.3119072e-12 </wgt>
<wgt id='1311'> +1.3110814e-12 </wgt>
<wgt id='1312'> +1.3122996e-12 </wgt>
<wgt id='1313'> +1.3108322e-12 </wgt>
<wgt id='1314'> +1.3178791e-12 </wgt>
<wgt id='1315'> +1.3004564e-12 </wgt>
<wgt id='1316'> +1.3171297e-12 </wgt>
<wgt id='1317'> +1.3110246e-12 </wgt>
<wgt id='1318'> +1.3215239e-12 </wgt>
<wgt id='1319'> +1.2995753e-12 </wgt>
<wgt id='1320'> +1.3221209e-12 </wgt>
<wgt id='1321'> +1.3026854e-12 </wgt>
<wgt id='1322'> +1.3106179e-12 </wgt>
<wgt id='1323'> +1.3121576e-12 </wgt>
<wgt id='1324'> +1.3098794e-12 </wgt>
<wgt id='1325'> +1.3181841e-12 </wgt>
<wgt id='1326'> +1.3104335e-12 </wgt>
<wgt id='1327'> +1.3138893e-12 </wgt>
<wgt id='1328'> +1.3119248e-12 </wgt>
<wgt id='1329'> +1.3109126e-12 </wgt>
<wgt id='1330'> +1.2916210e-12 </wgt>
<wgt id='1331'> +1.3260706e-12 </wgt>
<wgt id='1332'> +1.3319485e-12 </wgt>
<wgt id='1333'> +1.2961965e-12 </wgt>
<wgt id='1334'> +1.3061626e-12 </wgt>
<wgt id='1335'> +1.3248377e-12 </wgt>
<wgt id='1336'> +1.3071112e-12 </wgt>
<wgt id='1337'> +1.3060846e-12 </wgt>
<wgt id='1338'> +1.3089658e-12 </wgt>
<wgt id='1339'> +1.3119291e-12 </wgt>
<wgt id='1340'> +1.2921390e-12 </wgt>
<wgt id='1341'> +1.2928209e-12 </wgt>
<wgt id='1342'> +1.2914302e-12 </wgt>
<wgt id='1343'> +1.2861620e-12 </wgt>
<wgt id='1344'> +1.2962481e-12 </wgt>
<wgt id='1345'> +1.2922795e-12 </wgt>
<wgt id='1346'> +1.2920879e-12 </wgt>
<wgt id='1347'> +1.2877410e-12 </wgt>
<wgt id='1348'> +1.2971433e-12 </wgt>
<wgt id='1349'> +1.2950252e-12 </wgt>
<wgt id='1350'> +1.2893189e-12 </wgt>
<wgt id='1351'> +1.2945228e-12 </wgt>
<wgt id='1352'> +1.2870421e-12 </wgt>
<wgt id='1353'> +1.2902900e-12 </wgt>
<wgt id='1354'> +1.2955909e-12 </wgt>
<wgt id='1355'> +1.2901816e-12 </wgt>
<wgt id='1356'> +1.2933005e-12 </wgt>
<wgt id='1357'> +1.2914360e-12 </wgt>
<wgt id='1358'> +1.2931916e-12 </wgt>
<wgt id='1359'> +1.2986461e-12 </wgt>
<wgt id='1360'> +1.2865952e-12 </wgt>
<wgt id='1361'> +1.2923578e-12 </wgt>
<wgt id='1362'> +1.2920345e-12 </wgt>
<wgt id='1363'> +1.2924509e-12 </wgt>
<wgt id='1364'> +1.2923546e-12 </wgt>
<wgt id='1365'> +1.2801177e-12 </wgt>
<wgt id='1366'> +1.3005675e-12 </wgt>
<wgt id='1367'> +1.2972907e-12 </wgt>
<wgt id='1368'> +1.2917016e-12 </wgt>
<wgt id='1369'> +1.3006307e-12 </wgt>
<wgt id='1370'> +1.2821645e-12 </wgt>
<wgt id='1371'> +1.2998406e-12 </wgt>
<wgt id='1372'> +1.2829145e-12 </wgt>
<wgt id='1373'> +1.2896399e-12 </wgt>
<wgt id='1374'> +1.2940173e-12 </wgt>
<wgt id='1375'> +1.2907212e-12 </wgt>
<wgt id='1376'> +1.2987903e-12 </wgt>
<wgt id='1377'> +1.2914053e-12 </wgt>
<wgt id='1378'> +1.2946307e-12 </wgt>
<wgt id='1379'> +1.2921611e-12 </wgt>
<wgt id='1380'> +1.2919934e-12 </wgt>
<wgt id='1381'> +1.2719278e-12 </wgt>
<wgt id='1382'> +1.3053098e-12 </wgt>
<wgt id='1383'> +1.3135362e-12 </wgt>
<wgt id='1384'> +1.2751671e-12 </wgt>
<wgt id='1385'> +1.2869175e-12 </wgt>
<wgt id='1386'> +1.3047119e-12 </wgt>
<wgt id='1387'> +1.2869044e-12 </wgt>
<wgt id='1388'> +1.2856013e-12 </wgt>
<wgt id='1389'> +1.2876810e-12 </wgt>
<wgt id='1390'> +1.2929848e-12 </wgt>
<wgt id='1391'> +1.2556169e-12 </wgt>
<wgt id='1392'> +1.2293729e-12 </wgt>
<wgt id='1393'> +1.2381851e-12 </wgt>
<wgt id='1394'> +1.2471052e-12 </wgt>
<wgt id='1395'> +1.2637496e-12 </wgt>
<wgt id='1396'> +1.2560130e-12 </wgt>
<wgt id='1397'> +1.2228905e-12 </wgt>
<wgt id='1398'> +1.2300836e-12 </wgt>
<wgt id='1399'> +1.2363764e-12 </wgt>
<wgt id='1400'> +1.2425708e-12 </wgt>
<wgt id='1401'> +1.2493772e-12 </wgt>
<wgt id='1402'> +1.2619447e-12 </wgt>
<wgt id='1403'> +1.2679238e-12 </wgt>
<wgt id='1404'> +1.2734515e-12 </wgt>
<wgt id='1405'> +1.2560130e-12 </wgt>
<wgt id='1406'> +1.2521573e-12 </wgt>
<wgt id='1407'> +1.2543235e-12 </wgt>
<wgt id='1408'> +1.2575960e-12 </wgt>
<wgt id='1409'> +1.2592399e-12 </wgt>
<wgt id='1410'> +1.2689570e-12 </wgt>
<wgt id='1411'> +1.2684461e-12 </wgt>
<wgt id='1412'> +1.2696047e-12 </wgt>
<wgt id='1413'> +1.2742099e-12 </wgt>
<wgt id='1414'> +1.2637395e-12 </wgt>
<wgt id='1415'> +1.2621117e-12 </wgt>
<wgt id='1416'> +1.2717402e-12 </wgt>
<wgt id='1417'> +1.2625936e-12 </wgt>
<wgt id='1418'> +1.2752937e-12 </wgt>
<wgt id='1419'> +1.2700226e-12 </wgt>
<wgt id='1420'> +1.2679971e-12 </wgt>
<wgt id='1421'> +1.2597401e-12 </wgt>
<wgt id='1422'> +1.2729700e-12 </wgt>
<wgt id='1423'> +1.2686774e-12 </wgt>
<wgt id='1424'> +1.2694091e-12 </wgt>
<wgt id='1425'> +1.2653740e-12 </wgt>
<wgt id='1426'> +1.2728567e-12 </wgt>
<wgt id='1427'> +1.2730199e-12 </wgt>
<wgt id='1428'> +1.2665235e-12 </wgt>
<wgt id='1429'> +1.2648036e-12 </wgt>
<wgt id='1430'> +1.2746073e-12 </wgt>
<wgt id='1431'> +1.2711689e-12 </wgt>
<wgt id='1432'> +1.2674246e-12 </wgt>
<wgt id='1433'> +1.2745624e-12 </wgt>
<wgt id='1434'> +1.2630805e-12 </wgt>
<wgt id='1435'> +1.2705339e-12 </wgt>
<wgt id='1436'> +1.2651875e-12 </wgt>
<wgt id='1437'> +1.2744081e-12 </wgt>
<wgt id='1438'> +1.2676325e-12 </wgt>
<wgt id='1439'> +1.2622975e-12 </wgt>
<wgt id='1440'> +1.2856882e-12 </wgt>
<wgt id='1441'> +1.2718313e-12 </wgt>
<wgt id='1442'> +1.2636454e-12 </wgt>
<wgt id='1443'> +1.2668536e-12 </wgt>
<wgt id='1444'> +1.2736665e-12 </wgt>
<wgt id='1445'> +1.2776850e-12 </wgt>
<wgt id='1446'> +1.2658863e-12 </wgt>
<wgt id='1447'> +1.2698389e-12 </wgt>
<wgt id='1448'> +1.2691436e-12 </wgt>
<wgt id='1449'> +1.2696567e-12 </wgt>
<wgt id='1450'> +1.2682275e-12 </wgt>
<wgt id='1451'> +1.2774791e-12 </wgt>
<wgt id='1452'> +1.2455684e-12 </wgt>
<wgt id='1453'> +1.2712611e-12 </wgt>
<wgt id='1454'> +1.2538009e-12 </wgt>
<wgt id='1455'> +1.2542156e-12 </wgt>
<wgt id='1456'> +1.2743072e-12 </wgt>
<wgt id='1457'> +1.2764111e-12 </wgt>
<wgt id='1458'> +1.2652299e-12 </wgt>
<wgt id='1459'> +1.2710278e-12 </wgt>
<wgt id='1460'> +1.2627415e-12 </wgt>
<wgt id='1461'> +1.2689570e-12 </wgt>
<wgt id='1462'> +1.2621080e-12 </wgt>
<wgt id='1463'> +1.2784049e-12 </wgt>
<wgt id='1464'> +1.2701410e-12 </wgt>
<wgt id='1465'> +1.2438824e-12 </wgt>
<wgt id='1466'> +1.2497800e-12 </wgt>
<wgt id='1467'> +1.2557892e-12 </wgt>
<wgt id='1468'> +1.2597118e-12 </wgt>
<wgt id='1469'> +1.2653767e-12 </wgt>
<wgt id='1470'> +1.2754011e-12 </wgt>
<wgt id='1471'> +1.2790216e-12 </wgt>
<wgt id='1472'> +1.2838784e-12 </wgt>
<wgt id='1473'> +1.2701410e-12 </wgt>
<wgt id='1474'> +1.2658466e-12 </wgt>
<wgt id='1475'> +1.2672312e-12 </wgt>
<wgt id='1476'> +1.2720380e-12 </wgt>
<wgt id='1477'> +1.2739200e-12 </wgt>
<wgt id='1478'> +1.2431239e-12 </wgt>
<wgt id='1479'> +1.2415298e-12 </wgt>
<wgt id='1480'> +1.2454053e-12 </wgt>
<wgt id='1481'> +1.2370109e-12 </wgt>
<wgt id='1482'> +1.2418129e-12 </wgt>
<wgt id='1483'> +1.2245573e-12 </wgt>
<wgt id='1484'> +1.2408577e-12 </wgt>
<wgt id='1485'> +1.2442514e-12 </wgt>
<wgt id='1486'> +1.2441020e-12 </wgt>
<wgt id='1487'> +1.2461223e-12 </wgt>
<wgt id='1488'> +1.2400793e-12 </wgt>
<wgt id='1489'> +1.2634023e-12 </wgt>
<wgt id='1490'> +1.2406454e-12 </wgt>
<wgt id='1491'> +1.2431318e-12 </wgt>
<wgt id='1492'> +1.2441550e-12 </wgt>
<wgt id='1493'> +1.2328651e-12 </wgt>
<wgt id='1494'> +1.2561742e-12 </wgt>
<wgt id='1495'> +1.2375149e-12 </wgt>
<wgt id='1496'> +1.2421356e-12 </wgt>
<wgt id='1497'> +1.2434118e-12 </wgt>
<wgt id='1498'> +1.2417037e-12 </wgt>
<wgt id='1499'> +1.2444734e-12 </wgt>
<wgt id='1500'> +1.2440912e-12 </wgt>
<wgt id='1501'> +1.2420763e-12 </wgt>
<wgt id='1502'> +1.2425725e-12 </wgt>
<wgt id='1503'> +1.2425140e-12 </wgt>
<wgt id='1504'> +1.2383690e-12 </wgt>
<wgt id='1505'> +1.2424624e-12 </wgt>
<wgt id='1506'> +1.2426328e-12 </wgt>
<wgt id='1507'> +1.2416464e-12 </wgt>
<wgt id='1508'> +1.2481999e-12 </wgt>
<wgt id='1509'> +1.3279052e-12 </wgt>
<wgt id='1510'> +1.3271451e-12 </wgt>
<wgt id='1511'> +1.3326541e-12 </wgt>
<wgt id='1512'> +1.3309172e-12 </wgt>
<wgt id='1513'> +1.3336940e-12 </wgt>
<wgt id='1514'> +1.3261054e-12 </wgt>
<wgt id='1515'> +1.3240144e-12 </wgt>
<wgt id='1516'> +1.3252878e-12 </wgt>
<wgt id='1517'> +1.3262462e-12 </wgt>
<wgt id='1518'> +1.3331990e-12 </wgt>
<wgt id='1519'> +1.3229460e-12 </wgt>
<wgt id='1520'> +1.3302537e-12 </wgt>
<wgt id='1521'> +1.3363504e-12 </wgt>
<wgt id='1522'> +1.3339127e-12 </wgt>
<wgt id='1523'> +1.3380978e-12 </wgt>
<wgt id='1524'> +1.3310450e-12 </wgt>
<wgt id='1525'> +1.3315534e-12 </wgt>
<wgt id='1526'> +1.3255870e-12 </wgt>
<wgt id='1527'> +1.3277499e-12 </wgt>
<wgt id='1528'> +1.3300719e-12 </wgt>
<wgt id='1529'> +1.3301737e-12 </wgt>
<wgt id='1530'> +1.3334954e-12 </wgt>
<wgt id='1531'> +1.3293404e-12 </wgt>
<wgt id='1532'> +1.3243343e-12 </wgt>
<wgt id='1533'> +1.3257167e-12 </wgt>
<wgt id='1534'> +1.3313349e-12 </wgt>
<wgt id='1535'> +1.3211999e-12 </wgt>
<wgt id='1536'> +1.3263370e-12 </wgt>
<wgt id='1537'> +1.3291861e-12 </wgt>
<wgt id='1538'> +1.3247422e-12 </wgt>
<wgt id='1539'> +1.3217577e-12 </wgt>
<wgt id='1540'> +1.3299065e-12 </wgt>
<wgt id='1541'> +1.3281460e-12 </wgt>
<wgt id='1542'> +1.3306203e-12 </wgt>
<wgt id='1543'> +1.3277635e-12 </wgt>
<wgt id='1544'> +1.3236560e-12 </wgt>
<wgt id='1545'> +1.3289215e-12 </wgt>
<wgt id='1546'> +1.3287192e-12 </wgt>
<wgt id='1547'> +1.3282745e-12 </wgt>
<wgt id='1548'> +1.3267112e-12 </wgt>
<wgt id='1549'> +1.3258463e-12 </wgt>
<wgt id='1550'> +1.3307408e-12 </wgt>
<wgt id='1551'> +1.3249334e-12 </wgt>
<wgt id='1552'> +1.3276849e-12 </wgt>
<wgt id='1553'> +1.3284978e-12 </wgt>
<wgt id='1554'> +1.3312257e-12 </wgt>
<wgt id='1555'> +1.3313804e-12 </wgt>
<wgt id='1556'> +1.3278923e-12 </wgt>
<wgt id='1557'> +1.3288439e-12 </wgt>
<wgt id='1558'> +1.3250878e-12 </wgt>
<wgt id='1559'> +1.3257651e-12 </wgt>
<wgt id='1560'> +1.3281868e-12 </wgt>
<wgt id='1561'> +1.3259235e-12 </wgt>
<wgt id='1562'> +1.3280924e-12 </wgt>
<wgt id='1563'> +1.3280185e-12 </wgt>
<wgt id='1564'> +1.3277613e-12 </wgt>
<wgt id='1565'> +1.3282866e-12 </wgt>
<wgt id='1566'> +1.3284437e-12 </wgt>
<wgt id='1567'> +1.3281840e-12 </wgt>
<wgt id='1568'> +1.3260735e-12 </wgt>
<wgt id='1569'> +1.3280084e-12 </wgt>
<wgt id='1570'> +1.3270376e-12 </wgt>
<wgt id='1571'> +1.3282943e-12 </wgt>
<wgt id='1572'> +1.3277070e-12 </wgt>
<wgt id='1573'> +1.3296787e-12 </wgt>
<wgt id='1574'> +1.3274076e-12 </wgt>
<wgt id='1575'> +1.3273711e-12 </wgt>
<wgt id='1576'> +1.3280064e-12 </wgt>
<wgt id='1577'> +1.3290942e-12 </wgt>
<wgt id='1578'> +1.3278878e-12 </wgt>
<wgt id='1579'> +1.3278540e-12 </wgt>
<wgt id='1580'> +1.3279882e-12 </wgt>
<wgt id='1581'> +1.3277214e-12 </wgt>
<wgt id='1582'> +1.3278295e-12 </wgt>
<wgt id='1583'> +1.3283608e-12 </wgt>
<wgt id='1584'> +1.3271724e-12 </wgt>
<wgt id='1585'> +1.3276088e-12 </wgt>
<wgt id='1586'> +1.3276871e-12 </wgt>
<wgt id='1587'> +1.3272204e-12 </wgt>
<wgt id='1588'> +1.3286783e-12 </wgt>
<wgt id='1589'> +1.3276664e-12 </wgt>
<wgt id='1590'> +1.3276197e-12 </wgt>
<wgt id='1591'> +1.3275675e-12 </wgt>
<wgt id='1592'> +1.3269468e-12 </wgt>
<wgt id='1593'> +1.3281993e-12 </wgt>
<wgt id='1594'> +1.3281312e-12 </wgt>
<wgt id='1595'> +1.3282025e-12 </wgt>
<wgt id='1596'> +1.3276874e-12 </wgt>
<wgt id='1597'> +1.3280484e-12 </wgt>
<wgt id='1598'> +1.3281235e-12 </wgt>
<wgt id='1599'> +1.3282070e-12 </wgt>
<wgt id='1600'> +1.3287152e-12 </wgt>
<wgt id='1601'> +1.3277245e-12 </wgt>
<wgt id='1602'> +1.3276213e-12 </wgt>
<wgt id='1603'> +1.3277543e-12 </wgt>
<wgt id='1604'> +1.3282272e-12 </wgt>
<wgt id='1605'> +1.3278864e-12 </wgt>
<wgt id='1606'> +1.3285967e-12 </wgt>
<wgt id='1607'> +1.3281605e-12 </wgt>
<wgt id='1608'> +1.3280475e-12 </wgt>
<wgt id='1609'> +1.3279296e-12 </wgt>
<wgt id='1610'> +1.3156918e-12 </wgt>
<wgt id='1611'> +1.3408564e-12 </wgt>
<wgt id='1612'> +1.5140998e-12 </wgt>
<wgt id='1613'> +1.4984009e-12 </wgt>
<wgt id='1614'> +1.5242970e-12 </wgt>
<wgt id='1615'> +1.4887812e-12 </wgt>
<wgt id='1616'> +1.5634867e-12 </wgt>
<wgt id='1617'> +1.5496929e-12 </wgt>
<wgt id='1618'> +1.4958524e-12 </wgt>
<wgt id='1619'> +1.5390153e-12 </wgt>
<wgt id='1620'> +1.4893066e-12 </wgt>
<wgt id='1621'> +1.5077413e-12 </wgt>
<wgt id='1622'> +1.5264077e-12 </wgt>
<wgt id='1623'> +1.5325768e-12 </wgt>
<wgt id='1624'> +1.4838391e-12 </wgt>
<wgt id='1625'> +1.4935108e-12 </wgt>
<wgt id='1626'> +1.4968854e-12 </wgt>
<wgt id='1627'> +1.4838113e-12 </wgt>
<wgt id='1628'> +1.4904096e-12 </wgt>
<wgt id='1629'> +1.5763745e-12 </wgt>
<wgt id='1630'> +1.5300366e-12 </wgt>
<wgt id='1631'> +1.4864575e-12 </wgt>
<wgt id='1632'> +1.4466104e-12 </wgt>
<wgt id='1633'> +1.4643829e-12 </wgt>
<wgt id='1634'> +1.5563556e-12 </wgt>
<wgt id='1635'> +1.5194707e-12 </wgt>
<wgt id='1636'> +1.5314563e-12 </wgt>
<wgt id='1637'> +1.4772848e-12 </wgt>
<wgt id='1638'> +1.5020235e-12 </wgt>
<wgt id='1639'> +1.5349885e-12 </wgt>
<wgt id='1640'> +1.5070109e-12 </wgt>
<wgt id='1641'> +1.4947087e-12 </wgt>
<wgt id='1642'> +1.4946879e-12 </wgt>
<wgt id='1643'> +1.5531089e-12 </wgt>
<wgt id='1644'> +1.4423884e-12 </wgt>
<wgt id='1645'> +1.5027205e-12 </wgt>
<wgt id='1646'> +1.5135779e-12 </wgt>
<wgt id='1647'> +1.5143172e-12 </wgt>
<wgt id='1648'> +1.4975397e-12 </wgt>
<wgt id='1649'> +1.5283348e-12 </wgt>
<wgt id='1650'> +1.5047386e-12 </wgt>
<wgt id='1651'> +1.4802712e-12 </wgt>
<wgt id='1652'> +1.5025520e-12 </wgt>
<wgt id='1653'> +1.5666881e-12 </wgt>
<wgt id='1654'> +1.5109754e-12 </wgt>
<wgt id='1655'> +1.4853218e-12 </wgt>
<wgt id='1656'> +1.4571998e-12 </wgt>
<wgt id='1657'> +1.4949545e-12 </wgt>
<wgt id='1658'> +1.4640557e-12 </wgt>
<wgt id='1659'> +1.4838391e-12 </wgt>
<wgt id='1660'> +1.5401047e-12 </wgt>
<wgt id='1661'> +1.5064955e-12 </wgt>
<wgt id='1662'> +1.5138821e-12 </wgt>
<wgt id='1663'> +1.5439850e-12 </wgt>
<wgt id='1664'> +1.4942755e-12 </wgt>
<wgt id='1665'> +1.4365799e-12 </wgt>
<wgt id='1666'> +1.5365786e-12 </wgt>
<wgt id='1667'> +1.5229730e-12 </wgt>
<wgt id='1668'> +1.5580154e-12 </wgt>
<wgt id='1669'> +1.4541629e-12 </wgt>
<wgt id='1670'> +1.5316266e-12 </wgt>
<wgt id='1671'> +1.5007057e-12 </wgt>
<wgt id='1672'> +1.5112621e-12 </wgt>
<wgt id='1673'> +1.5733242e-12 </wgt>
<wgt id='1674'> +1.5034156e-12 </wgt>
<wgt id='1675'> +1.5492229e-12 </wgt>
<wgt id='1676'> +1.5497088e-12 </wgt>
<wgt id='1677'> +1.5775649e-12 </wgt>
<wgt id='1678'> +1.5031387e-12 </wgt>
<wgt id='1679'> +1.5729551e-12 </wgt>
<wgt id='1680'> +1.5230836e-12 </wgt>
<wgt id='1681'> +1.5404669e-12 </wgt>
<wgt id='1682'> +1.5340081e-12 </wgt>
<wgt id='1683'> +1.5079824e-12 </wgt>
<wgt id='1684'> +1.5099901e-12 </wgt>
<wgt id='1685'> +1.4913697e-12 </wgt>
<wgt id='1686'> +1.5162131e-12 </wgt>
<wgt id='1687'> +1.5663343e-12 </wgt>
<wgt id='1688'> +1.5121683e-12 </wgt>
<wgt id='1689'> +1.5039803e-12 </wgt>
<wgt id='1690'> +1.5120977e-12 </wgt>
<wgt id='1691'> +1.5219058e-12 </wgt>
<wgt id='1692'> +1.5793772e-12 </wgt>
<wgt id='1693'> +1.5523040e-12 </wgt>
<wgt id='1694'> +1.4559865e-12 </wgt>
<wgt id='1695'> +1.5016324e-12 </wgt>
<wgt id='1696'> +1.5516634e-12 </wgt>
<wgt id='1697'> +1.5532979e-12 </wgt>
<wgt id='1698'> +1.4954033e-12 </wgt>
<wgt id='1699'> +1.5326754e-12 </wgt>
<wgt id='1700'> +1.4827240e-12 </wgt>
<wgt id='1701'> +1.5374489e-12 </wgt>
<wgt id='1702'> +1.5306009e-12 </wgt>
<wgt id='1703'> +1.5266398e-12 </wgt>
<wgt id='1704'> +1.4753567e-12 </wgt>
<wgt id='1705'> +1.4890422e-12 </wgt>
<wgt id='1706'> +1.5169979e-12 </wgt>
<wgt id='1707'> +1.5182420e-12 </wgt>
<wgt id='1708'> +1.5059780e-12 </wgt>
<wgt id='1709'> +1.4981434e-12 </wgt>
<wgt id='1710'> +1.5121210e-12 </wgt>
<wgt id='1711'> +1.5712713e-12 </wgt>
<wgt id='1712'> +1.5174815e-12 </wgt>
<wgt id='1713'> +1.2320790e-12 </wgt>
<wgt id='1714'> +1.2084569e-12 </wgt>
<wgt id='1715'> +1.2446449e-12 </wgt>
<wgt id='1716'> +1.2850843e-12 </wgt>
<wgt id='1717'> +1.2502831e-12 </wgt>
<wgt id='1718'> +1.2403142e-12 </wgt>
<wgt id='1719'> +1.2382750e-12 </wgt>
<wgt id='1720'> +1.2464238e-12 </wgt>
<wgt id='1721'> +1.2139346e-12 </wgt>
<wgt id='1722'> +1.2266360e-12 </wgt>
<wgt id='1723'> +1.1707224e-12 </wgt>
<wgt id='1724'> +1.1821330e-12 </wgt>
<wgt id='1725'> +1.2509475e-12 </wgt>
<wgt id='1726'> +1.2632664e-12 </wgt>
<wgt id='1727'> +1.2048099e-12 </wgt>
<wgt id='1728'> +1.2287328e-12 </wgt>
<wgt id='1729'> +1.2381912e-12 </wgt>
<wgt id='1730'> +1.2042697e-12 </wgt>
<wgt id='1731'> +1.1986048e-12 </wgt>
<wgt id='1732'> +1.2260785e-12 </wgt>
<wgt id='1733'> +1.2417223e-12 </wgt>
<wgt id='1734'> +1.2655111e-12 </wgt>
<wgt id='1735'> +1.2090464e-12 </wgt>
<wgt id='1736'> +1.3159356e-12 </wgt>
<wgt id='1737'> +1.2647110e-12 </wgt>
<wgt id='1738'> +1.2471710e-12 </wgt>
<wgt id='1739'> +1.2329267e-12 </wgt>
<wgt id='1740'> +1.2141220e-12 </wgt>
<wgt id='1741'> +1.2182803e-12 </wgt>
<wgt id='1742'> +1.2324410e-12 </wgt>
<wgt id='1743'> +1.2595213e-12 </wgt>
<wgt id='1744'> +1.2590943e-12 </wgt>
<wgt id='1745'> +1.1736802e-12 </wgt>
<wgt id='1746'> +1.2484062e-12 </wgt>
<wgt id='1747'> +1.2490250e-12 </wgt>
<wgt id='1748'> +1.2532733e-12 </wgt>
<wgt id='1749'> +1.2533238e-12 </wgt>
<wgt id='1750'> +1.2291014e-12 </wgt>
<wgt id='1751'> +1.1588569e-12 </wgt>
<wgt id='1752'> +1.2210324e-12 </wgt>
<wgt id='1753'> +1.2532158e-12 </wgt>
<wgt id='1754'> +1.2253561e-12 </wgt>
<wgt id='1755'> +1.2465161e-12 </wgt>
<wgt id='1756'> +1.2484555e-12 </wgt>
<wgt id='1757'> +1.2166630e-12 </wgt>
<wgt id='1758'> +1.2568979e-12 </wgt>
<wgt id='1759'> +1.2359451e-12 </wgt>
<wgt id='1760'> +1.1905728e-12 </wgt>
<wgt id='1761'> +1.2131368e-12 </wgt>
<wgt id='1762'> +1.2506326e-12 </wgt>
<wgt id='1763'> +1.2629741e-12 </wgt>
<wgt id='1764'> +1.2287972e-12 </wgt>
<wgt id='1765'> +1.2400538e-12 </wgt>
<wgt id='1766'> +1.2459632e-12 </wgt>
<wgt id='1767'> +1.2446672e-12 </wgt>
<wgt id='1768'> +1.2371192e-12 </wgt>
<wgt id='1769'> +1.2009269e-12 </wgt>
<wgt id='1770'> +1.2899836e-12 </wgt>
<wgt id='1771'> +1.2464592e-12 </wgt>
<wgt id='1772'> +1.2569672e-12 </wgt>
<wgt id='1773'> +1.2263399e-12 </wgt>
<wgt id='1774'> +1.2404486e-12 </wgt>
<wgt id='1775'> +1.2369594e-12 </wgt>
<wgt id='1776'> +1.2386010e-12 </wgt>
<wgt id='1777'> +1.1661808e-12 </wgt>
<wgt id='1778'> +1.2217929e-12 </wgt>
<wgt id='1779'> +1.2502285e-12 </wgt>
<wgt id='1780'> +1.2437992e-12 </wgt>
<wgt id='1781'> +1.2180334e-12 </wgt>
<wgt id='1782'> +1.1773676e-12 </wgt>
<wgt id='1783'> +1.2304985e-12 </wgt>
<wgt id='1784'> +1.2452806e-12 </wgt>
<wgt id='1785'> +1.1941302e-12 </wgt>
<wgt id='1786'> +1.1420970e-12 </wgt>
<wgt id='1787'> +1.2828209e-12 </wgt>
<wgt id='1788'> +1.2167897e-12 </wgt>
<wgt id='1789'> +1.1968098e-12 </wgt>
<wgt id='1790'> +1.2356521e-12 </wgt>
<wgt id='1791'> +1.2461677e-12 </wgt>
<wgt id='1792'> +1.1977732e-12 </wgt>
<wgt id='1793'> +1.2603854e-12 </wgt>
<wgt id='1794'> +1.2383907e-12 </wgt>
<wgt id='1795'> +1.2483901e-12 </wgt>
<wgt id='1796'> +1.2172360e-12 </wgt>
<wgt id='1797'> +1.2433414e-12 </wgt>
<wgt id='1798'> +1.2136258e-12 </wgt>
<wgt id='1799'> +1.2176909e-12 </wgt>
<wgt id='1800'> +1.2295315e-12 </wgt>
<wgt id='1801'> +1.2411983e-12 </wgt>
<wgt id='1802'> +1.2250884e-12 </wgt>
<wgt id='1803'> +1.2466780e-12 </wgt>
<wgt id='1804'> +1.2027713e-12 </wgt>
<wgt id='1805'> +1.2389464e-12 </wgt>
<wgt id='1806'> +1.2244924e-12 </wgt>
<wgt id='1807'> +1.2410327e-12 </wgt>
<wgt id='1808'> +1.2310496e-12 </wgt>
<wgt id='1809'> +1.2117465e-12 </wgt>
<wgt id='1810'> +1.2359832e-12 </wgt>
<wgt id='1811'> +1.2798143e-12 </wgt>
<wgt id='1812'> +1.2652540e-12 </wgt>
<wgt id='1813'> +1.2342003e-12 </wgt>
<wgt id='1814'> +1.3293193e-12 </wgt>
<wgt id='1815'> +1.4700403e-12 </wgt>
<wgt id='1816'> +1.2320790e-12 </wgt>
<wgt id='1817'> +1.2084569e-12 </wgt>
<wgt id='1818'> +1.2446449e-12 </wgt>
<wgt id='1819'> +1.2850843e-12 </wgt>
<wgt id='1820'> +1.2502831e-12 </wgt>
<wgt id='1821'> +1.2403142e-12 </wgt>
<wgt id='1822'> +1.2382750e-12 </wgt>
<wgt id='1823'> +1.2464238e-12 </wgt>
<wgt id='1824'> +1.2139346e-12 </wgt>
<wgt id='1825'> +1.2266360e-12 </wgt>
<wgt id='1826'> +1.1707224e-12 </wgt>
<wgt id='1827'> +1.1821330e-12 </wgt>
<wgt id='1828'> +1.2509475e-12 </wgt>
<wgt id='1829'> +1.2632664e-12 </wgt>
<wgt id='1830'> +1.2048099e-12 </wgt>
<wgt id='1831'> +1.2287328e-12 </wgt>
<wgt id='1832'> +1.2381912e-12 </wgt>
<wgt id='1833'> +1.2042697e-12 </wgt>
<wgt id='1834'> +1.1986048e-12 </wgt>
<wgt id='1835'> +1.2260785e-12 </wgt>
<wgt id='1836'> +1.2417223e-12 </wgt>
<wgt id='1837'> +1.2655111e-12 </wgt>
<wgt id='1838'> +1.2090464e-12 </wgt>
<wgt id='1839'> +1.3159356e-12 </wgt>
<wgt id='1840'> +1.2647110e-12 </wgt>
<wgt id='1841'> +1.2471710e-12 </wgt>
<wgt id='1842'> +1.2329267e-12 </wgt>
<wgt id='1843'> +1.2141220e-12 </wgt>
<wgt id='1844'> +1.2182803e-12 </wgt>
<wgt id='1845'> +1.2324410e-12 </wgt>
<wgt id='1846'> +1.2595213e-12 </wgt>
<wgt id='1847'> +1.2590943e-12 </wgt>
<wgt id='1848'> +1.1736802e-12 </wgt>
<wgt id='1849'> +1.2484062e-12 </wgt>
<wgt id='1850'> +1.2490250e-12 </wgt>
<wgt id='1851'> +1.2532733e-12 </wgt>
<wgt id='1852'> +1.2533238e-12 </wgt>
<wgt id='1853'> +1.2291014e-12 </wgt>
<wgt id='1854'> +1.1588569e-12 </wgt>
<wgt id='1855'> +1.2210324e-12 </wgt>
<wgt id='1856'> +1.2532158e-12 </wgt>
<wgt id='1857'> +1.2253561e-12 </wgt>
<wgt id='1858'> +1.2465161e-12 </wgt>
<wgt id='1859'> +1.2484555e-12 </wgt>
<wgt id='1860'> +1.2166630e-12 </wgt>
<wgt id='1861'> +1.2568979e-12 </wgt>
<wgt id='1862'> +1.2359451e-12 </wgt>
<wgt id='1863'> +1.1905728e-12 </wgt>
<wgt id='1864'> +1.2131368e-12 </wgt>
<wgt id='1865'> +1.2506326e-12 </wgt>
<wgt id='1866'> +1.2629741e-12 </wgt>
<wgt id='1867'> +1.2287972e-12 </wgt>
<wgt id='1868'> +1.2400538e-12 </wgt>
<wgt id='1869'> +1.2459632e-12 </wgt>
<wgt id='1870'> +1.2446672e-12 </wgt>
<wgt id='1871'> +1.2371192e-12 </wgt>
<wgt id='1872'> +1.2009269e-12 </wgt>
<wgt id='1873'> +1.2899836e-12 </wgt>
<wgt id='1874'> +1.2464592e-12 </wgt>
<wgt id='1875'> +1.2569672e-12 </wgt>
<wgt id='1876'> +1.2263399e-12 </wgt>
<wgt id='1877'> +1.2404486e-12 </wgt>
<wgt id='1878'> +1.2369594e-12 </wgt>
<wgt id='1879'> +1.2386010e-12 </wgt>
<wgt id='1880'> +1.1661808e-12 </wgt>
<wgt id='1881'> +1.2217929e-12 </wgt>
<wgt id='1882'> +1.2502285e-12 </wgt>
<wgt id='1883'> +1.2437992e-12 </wgt>
<wgt id='1884'> +1.2180334e-12 </wgt>
<wgt id='1885'> +1.1773676e-12 </wgt>
<wgt id='1886'> +1.2304985e-12 </wgt>
<wgt id='1887'> +1.2452806e-12 </wgt>
<wgt id='1888'> +1.1941302e-12 </wgt>
<wgt id='1889'> +1.1420970e-12 </wgt>
<wgt id='1890'> +1.2828209e-12 </wgt>
<wgt id='1891'> +1.2167897e-12 </wgt>
<wgt id='1892'> +1.1968098e-12 </wgt>
<wgt id='1893'> +1.2356521e-12 </wgt>
<wgt id='1894'> +1.2461677e-12 </wgt>
<wgt id='1895'> +1.1977732e-12 </wgt>
<wgt id='1896'> +1.2603854e-12 </wgt>
<wgt id='1897'> +1.2383907e-12 </wgt>
<wgt id='1898'> +1.2483901e-12 </wgt>
<wgt id='1899'> +1.2172360e-12 </wgt>
<wgt id='1900'> +1.2433414e-12 </wgt>
<wgt id='1901'> +1.2136258e-12 </wgt>
<wgt id='1902'> +1.2176909e-12 </wgt>
<wgt id='1903'> +1.2295315e-12 </wgt>
<wgt id='1904'> +1.2411983e-12 </wgt>
<wgt id='1905'> +1.2250884e-12 </wgt>
<wgt id='1906'> +1.2466780e-12 </wgt>
<wgt id='1907'> +1.2027713e-12 </wgt>
<wgt id='1908'> +1.2389464e-12 </wgt>
<wgt id='1909'> +1.2244924e-12 </wgt>
<wgt id='1910'> +1.2410327e-12 </wgt>
<wgt id='1911'> +1.2310496e-12 </wgt>
<wgt id='1912'> +1.2117465e-12 </wgt>
<wgt id='1913'> +1.2359832e-12 </wgt>
<wgt id='1914'> +1.2798143e-12 </wgt>
<wgt id='1915'> +1.2652540e-12 </wgt>
<wgt id='1916'> +1.2342003e-12 </wgt>
<wgt id='1917'> +1.2244014e-12 </wgt>
<wgt id='1918'> +1.2363019e-12 </wgt>
<wgt id='1919'> +1.2714310e-12 </wgt>
</rwgt>
</event>
<event>
 9      1 +1.5607000e-12 5.54316800e+01 7.81860800e-03 1.28679100e-01
       -4 -1    0    0    0  501 -0.0000000000e+00 +0.0000000000e+00 +2.6228689889e+00 2.9825897695e+00 0.0000000000e+00 0.0000e+00 1.0000e+00
       21 -1    0    0  501  502 +0.0000000000e+00 -0.0000000000e+00 -2.7389857925e+02 2.7389857925e+02 1.4200000000e+00 0.0000e+00 -1.0000e+00
     1023  2    1    2    0    0 +1.0411469302e+01 +2.3414222373e+01 -1.3827352585e+02 1.4142556020e+02 1.4999887489e+01 0.0000e+00 0.0000e+00
  1000023  2    3    3    0    0 +6.8106741949e+00 +1.3936770326e+01 -1.0505242738e+02 1.0633383459e+02 5.5002754734e+00 0.0000e+00 0.0000e+00
       -4  1    1    2    0  502 -1.0411469302e+01 -2.3414222373e+01 -1.3300218441e+02 1.3545560881e+02 1.4200000000e+00 0.0000e+00 1.0000e+00
  1000022  1    4    4    0    0 +6.5755935256e+00 +1.3772980534e+01 -1.0169344723e+02 1.0295382768e+02 5.0000000000e+00 0.0000e+00 -1.0000e+00
      -11  1    4    4    0    0 -3.2440002105e-02 -5.2977085838e-03 -9.1318743129e-02 9.7055620241e-02 5.1100000000e-04 0.0000e+00 -1.0000e+00
       11  1    4    4    0    0 +2.6752067134e-01 +1.6908750037e-01 -3.2676613986e+00 3.2829512895e+00 5.1100000000e-04 0.0000e+00 1.0000e+00
  1000022  1    3    3    0    0 +3.6007951067e+00 +9.4774520478e+00 -3.3221098474e+01 3.5091725613e+01 5.0000000000e+00 0.0000e+00 1.0000e+00
<mgrwt>
<rscale>  1 0.55431677E+02</rscale>
<asrwt>0</asrwt>
<pdfrwt beam="1">  1       21 0.42138282E-01 0.55431677E+02</pdfrwt>
<pdfrwt beam="2">  1       -4 0.43147189E-03 0.55431677E+02</pdfrwt>
<totfact> 0.25777742E+06</totfact>
</mgrwt>
<rwgt>
<wgt id='1001'> +1.5607000e-12 </wgt>
<wgt id='1002'> +1.5571935e-12 </wgt>
<wgt id='1003'> +1.5589612e-12 </wgt>
<wgt id='1004'> +1.5015930e-12 </wgt>
<wgt id='1005'> +1.5607000e-12 </wgt>
<wgt id='1006'> +1.3862344e-12 </wgt>
<wgt id='1007'> +1.3808983e-12 </wgt>
<wgt id='1008'> +1.3835568e-12 </wgt>
<wgt id='1009'> +1.3095984e-12 </wgt>
<wgt id='1010'> +1.3862344e-12 </wgt>
<wgt id='1011'> +1.7875643e-12 </wgt>
<wgt id='1012'> +1.7873694e-12 </wgt>
<wgt id='1013'> +1.7875138e-12 </wgt>
<wgt id='1014'> +1.7629333e-12 </wgt>
<wgt id='1015'> +1.7875643e-12 </wgt>
<wgt id='1016'> +1.7721348e-12 </wgt>
<wgt id='1017'> +1.7749846e-12 </wgt>
<wgt id='1018'> +1.7736250e-12 </wgt>
<wgt id='1019'> +1.7875138e-12 </wgt>
<wgt id='1020'> +1.7721348e-12 </wgt>
<wgt id='1021'> +1.5740337e-12 </wgt>
<wgt id='1022'> +1.5740325e-12 </wgt>
<wgt id='1023'> +1.5740680e-12 </wgt>
<wgt id='1024'> +1.5589612e-12 </wgt>
<wgt id='1025'> +1.5740337e-12 </wgt>
<wgt id='1026'> +2.0297334e-12 </wgt>
<wgt id='1027'> +2.0373531e-12 </wgt>
<wgt id='1028'> +2.0336484e-12 </wgt>
<wgt id='1029'> +2.0986164e-12 </wgt>
<wgt id='1030'> +2.0297334e-12 </wgt>
<wgt id='1031'> +1.3150463e-12 </wgt>
<wgt id='1032'> +1.3042700e-12 </wgt>
<wgt id='1033'> +1.3095984e-12 </wgt>
<wgt id='1034'> +1.1721061e-12 </wgt>
<wgt id='1035'> +1.3150463e-12 </wgt>
<wgt id='1036'> +1.1680416e-12 </wgt>
<wgt id='1037'> +1.1566091e-12 </wgt>
<wgt id='1038'> +1.1622507e-12 </wgt>
<wgt id='1039'> +1.0222399e-12 </wgt>
<wgt id='1040'> +1.1680416e-12 </wgt>
<wgt id='1041'> +1.5062022e-12 </wgt>
<wgt id='1042'> +1.4970600e-12 </wgt>
<wgt id='1043'> +1.5015930e-12 </wgt>
<wgt id='1044'> +1.3761018e-12 </wgt>
<wgt id='1045'> +1.5062022e-12 </wgt>
<wgt id='1046'> +1.5607000e-12 </wgt>
<wgt id='1047'> +1.5519127e-12 </wgt>
<wgt id='1048'> +1.5882466e-12 </wgt>
<wgt id='1049'> +1.5612352e-12 </wgt>
<wgt id='1050'> +1.5604228e-12 </wgt>
<wgt id='1051'> +1.5179784e-12 </wgt>
<wgt id='1052'> +1.5502797e-12 </wgt>
<wgt id='1053'> +1.5917673e-12 </wgt>
<wgt id='1054'> +1.5781944e-12 </wgt>
<wgt id='1055'> +1.5702930e-12 </wgt>
<wgt id='1056'> +1.5715920e-12 </wgt>
<wgt id='1057'> +1.5750557e-12 </wgt>
<wgt id='1058'> +1.5344951e-12 </wgt>
<wgt id='1059'> +1.5561969e-12 </wgt>
<wgt id='1060'> +1.5549310e-12 </wgt>
<wgt id='1061'> +1.5583025e-12 </wgt>
<wgt id='1062'> +1.5607103e-12 </wgt>
<wgt id='1063'> +1.5703930e-12 </wgt>
<wgt id='1064'> +1.5758213e-12 </wgt>
<wgt id='1065'> +1.5437270e-12 </wgt>
<wgt id='1066'> +1.5613454e-12 </wgt>
<wgt id='1067'> +1.5674179e-12 </wgt>
<wgt id='1068'> +1.5708576e-12 </wgt>
<wgt id='1069'> +1.5855384e-12 </wgt>
<wgt id='1070'> +1.5523228e-12 </wgt>
<wgt id='1071'> +1.5367149e-12 </wgt>
<wgt id='1072'> +1.5514125e-12 </wgt>
<wgt id='1073'> +1.5540543e-12 </wgt>
<wgt id='1074'> +1.5630274e-12 </wgt>
<wgt id='1075'> +1.5457334e-12 </wgt>
<wgt id='1076'> +1.5862729e-12 </wgt>
<wgt id='1077'> +1.6058365e-12 </wgt>
<wgt id='1078'> +1.5787694e-12 </wgt>
<wgt id='1079'> +1.5275555e-12 </wgt>
<wgt id='1080'> +1.5522164e-12 </wgt>
<wgt id='1081'> +1.5708776e-12 </wgt>
<wgt id='1082'> +1.5474411e-12 </wgt>
<wgt id='1083'> +1.5603530e-12 </wgt>
<wgt id='1084'> +1.5363760e-12 </wgt>
<wgt id='1085'> +1.5680844e-12 </wgt>
<wgt id='1086'> +1.5784760e-12 </wgt>
<wgt id='1087'> +1.5272647e-12 </wgt>
<wgt id='1088'> +1.5394252e-12 </wgt>
<wgt id='1089'> +1.5433651e-12 </wgt>
<wgt id='1090'> +1.5355217e-12 </wgt>
<wgt id='1091'> +1.5491619e-12 </wgt>
<wgt id='1092'> +1.5623722e-12 </wgt>
<wgt id='1093'> +1.5722110e-12 </wgt>
<wgt id='1094'> +1.5753539e-12 </wgt>
<wgt id='1095'> +1.5800648e-12 </wgt>
<wgt id='1096'> +1.5734463e-12 </wgt>
<wgt id='1097'> +1.5626509e-12 </wgt>
<wgt id='1098'> +1.5826078e-12 </wgt>
<wgt id='1099'> +1.5348234e-12 </wgt>
<wgt id='1100'> +1.5846063e-12 </wgt>
<wgt id='1101'> +1.5212719e-12 </wgt>
<wgt id='1102'> +1.5479401e-12 </wgt>
<wgt id='1103'> +1.5670921e-12 </wgt>
<wgt id='1104'> +1.5396807e-12 </wgt>
<wgt id='1105'> +1.5232136e-12 </wgt>
<wgt id='1106'> +1.5720356e-12 </wgt>
<wgt id='1107'> +1.6032868e-12 </wgt>
<wgt id='1108'> +1.5612595e-12 </wgt>
<wgt id='1109'> +1.5061097e-12 </wgt>
<wgt id='1110'> +1.5502542e-12 </wgt>
<wgt id='1111'> +1.5369929e-12 </wgt>
<wgt id='1112'> +1.5322264e-12 </wgt>
<wgt id='1113'> +1.5614850e-12 </wgt>
<wgt id='1114'> +1.5956186e-12 </wgt>
<wgt id='1115'> +1.5620576e-12 </wgt>
<wgt id='1116'> +1.6311694e-12 </wgt>
<wgt id='1117'> +1.5777522e-12 </wgt>
<wgt id='1118'> +1.5689669e-12 </wgt>
<wgt id='1119'> +1.5790147e-12 </wgt>
<wgt id='1120'> +1.5498885e-12 </wgt>
<wgt id='1121'> +1.5505716e-12 </wgt>
<wgt id='1122'> +1.5182978e-12 </wgt>
<wgt id='1123'> +1.5970223e-12 </wgt>
<wgt id='1124'> +1.5710731e-12 </wgt>
<wgt id='1125'> +1.5356178e-12 </wgt>
<wgt id='1126'> +1.5738959e-12 </wgt>
<wgt id='1127'> +1.5670617e-12 </wgt>
<wgt id='1128'> +1.5607103e-12 </wgt>
<wgt id='1129'> +1.5574006e-12 </wgt>
<wgt id='1130'> +1.5588079e-12 </wgt>
<wgt id='1131'> +1.6130476e-12 </wgt>
<wgt id='1132'> +1.5530825e-12 </wgt>
<wgt id='1133'> +1.5405986e-12 </wgt>
<wgt id='1134'> +1.5727973e-12 </wgt>
<wgt id='1135'> +1.5824125e-12 </wgt>
<wgt id='1136'> +1.5333792e-12 </wgt>
<wgt id='1137'> +1.5243526e-12 </wgt>
<wgt id='1138'> +1.5437686e-12 </wgt>
<wgt id='1139'> +1.5649846e-12 </wgt>
<wgt id='1140'> +1.5717384e-12 </wgt>
<wgt id='1141'> +1.5697743e-12 </wgt>
<wgt id='1142'> +1.5536015e-12 </wgt>
<wgt id='1143'> +1.5464030e-12 </wgt>
<wgt id='1144'> +1.5722051e-12 </wgt>
<wgt id='1145'> +1.5851586e-12 </wgt>
<wgt id='1146'> +1.5626583e-12 </wgt>
<wgt id='1147'> +1.2283089e-12 </wgt>
<wgt id='1148'> +1.2608032e-12 </wgt>
<wgt id='1149'> +1.2522616e-12 </wgt>
<wgt id='1150'> +1.2511954e-12 </wgt>
<wgt id='1151'> +1.0001929e-12 </wgt>
<wgt id='1152'> +1.5035575e-12 </wgt>
<wgt id='1153'> +1.4977313e-12 </wgt>
<wgt id='1154'> +1.5070210e-12 </wgt>
<wgt id='1155'> +1.5042619e-12 </wgt>
<wgt id='1156'> +1.5033421e-12 </wgt>
<wgt id='1157'> +1.5006829e-12 </wgt>
<wgt id='1158'> +1.5075010e-12 </wgt>
<wgt id='1159'> +1.5011422e-12 </wgt>
<wgt id='1160'> +1.5051725e-12 </wgt>
<wgt id='1161'> +1.4964808e-12 </wgt>
<wgt id='1162'> +1.5085822e-12 </wgt>
<wgt id='1163'> +1.5074157e-12 </wgt>
<wgt id='1164'> +1.4998401e-12 </wgt>
<wgt id='1165'> +1.4904810e-12 </wgt>
<wgt id='1166'> +1.5163350e-12 </wgt>
<wgt id='1167'> +1.5150662e-12 </wgt>
<wgt id='1168'> +1.4881759e-12 </wgt>
<wgt id='1169'> +1.5075424e-12 </wgt>
<wgt id='1170'> +1.5006626e-12 </wgt>
<wgt id='1171'> +1.5023554e-12 </wgt>
<wgt id='1172'> +1.5051402e-12 </wgt>
<wgt id='1173'> +1.4977181e-12 </wgt>
<wgt id='1174'> +1.5090100e-12 </wgt>
<wgt id='1175'> +1.5055106e-12 </wgt>
<wgt id='1176'> +1.5012729e-12 </wgt>
<wgt id='1177'> +1.5041072e-12 </wgt>
<wgt id='1178'> +1.5025669e-12 </wgt>
<wgt id='1179'> +1.5110299e-12 </wgt>
<wgt id='1180'> +1.4914874e-12 </wgt>
<wgt id='1181'> +1.4999718e-12 </wgt>
<wgt id='1182'> +1.5072285e-12 </wgt>
<wgt id='1183'> +1.5034540e-12 </wgt>
<wgt id='1184'> +1.5037013e-12 </wgt>
<wgt id='1185'> +1.5047741e-12 </wgt>
<wgt id='1186'> +1.5030668e-12 </wgt>
<wgt id='1187'> +1.5031068e-12 </wgt>
<wgt id='1188'> +1.5038323e-12 </wgt>
<wgt id='1189'> +1.5051159e-12 </wgt>
<wgt id='1190'> +1.4782414e-12 </wgt>
<wgt id='1191'> +1.4925986e-12 </wgt>
<wgt id='1192'> +1.5159305e-12 </wgt>
<wgt id='1193'> +1.2811678e-12 </wgt>
<wgt id='1194'> +1.2721229e-12 </wgt>
<wgt id='1195'> +1.2885545e-12 </wgt>
<wgt id='1196'> +1.2819176e-12 </wgt>
<wgt id='1197'> +1.2802939e-12 </wgt>
<wgt id='1198'> +1.2836532e-12 </wgt>
<wgt id='1199'> +1.2774118e-12 </wgt>
<wgt id='1200'> +1.2822952e-12 </wgt>
<wgt id='1201'> +1.2804044e-12 </wgt>
<wgt id='1202'> +1.2775840e-12 </wgt>
<wgt id='1203'> +1.2863057e-12 </wgt>
<wgt id='1204'> +1.2601075e-12 </wgt>
<wgt id='1205'> +1.2941855e-12 </wgt>
<wgt id='1206'> +1.2863887e-12 </wgt>
<wgt id='1207'> +1.2740463e-12 </wgt>
<wgt id='1208'> +1.2753417e-12 </wgt>
<wgt id='1209'> +1.2833614e-12 </wgt>
<wgt id='1210'> +1.2747007e-12 </wgt>
<wgt id='1211'> +1.2815411e-12 </wgt>
<wgt id='1212'> +1.2799301e-12 </wgt>
<wgt id='1213'> +1.2824681e-12 </wgt>
<wgt id='1214'> +1.2766744e-12 </wgt>
<wgt id='1215'> +1.2842443e-12 </wgt>
<wgt id='1216'> +1.2826102e-12 </wgt>
<wgt id='1217'> +1.2795206e-12 </wgt>
<wgt id='1218'> +1.2864188e-12 </wgt>
<wgt id='1219'> +1.2783153e-12 </wgt>
<wgt id='1220'> +1.2869566e-12 </wgt>
<wgt id='1221'> +1.2806628e-12 </wgt>
<wgt id='1222'> +1.2888839e-12 </wgt>
<wgt id='1223'> +1.2731272e-12 </wgt>
<wgt id='1224'> +1.2817950e-12 </wgt>
<wgt id='1225'> +1.2809108e-12 </wgt>
<wgt id='1226'> +1.2804672e-12 </wgt>
<wgt id='1227'> +1.2818143e-12 </wgt>
<wgt id='1228'> +1.2795010e-12 </wgt>
<wgt id='1229'> +1.2815060e-12 </wgt>
<wgt id='1230'> +1.2969464e-12 </wgt>
<wgt id='1231'> +1.2678761e-12 </wgt>
<wgt id='1232'> +1.2806773e-12 </wgt>
<wgt id='1233'> +1.2813439e-12 </wgt>
<wgt id='1234'> +1.2811678e-12 </wgt>
<wgt id='1235'> +1.2730577e-12 </wgt>
<wgt id='1236'> +1.2762076e-12 </wgt>
<wgt id='1237'> +1.2789301e-12 </wgt>
<wgt id='1238'> +1.2838017e-12 </wgt>
<wgt id='1239'> +1.2855193e-12 </wgt>
<wgt id='1240'> +1.2873488e-12 </wgt>
<wgt id='1241'> +1.2327260e-12 </wgt>
<wgt id='1242'> +1.2213406e-12 </wgt>
<wgt id='1243'> +1.2438923e-12 </wgt>
<wgt id='1244'> +1.2296327e-12 </wgt>
<wgt id='1245'> +1.2349632e-12 </wgt>
<wgt id='1246'> +1.2336434e-12 </wgt>
<wgt id='1247'> +1.2319741e-12 </wgt>
<wgt id='1248'> +1.2325513e-12 </wgt>
<wgt id='1249'> +1.2327673e-12 </wgt>
<wgt id='1250'> +1.2290477e-12 </wgt>
<wgt id='1251'> +1.2352838e-12 </wgt>
<wgt id='1252'> +1.2304897e-12 </wgt>
<wgt id='1253'> +1.2343850e-12 </wgt>
<wgt id='1254'> +1.2156408e-12 </wgt>
<wgt id='1255'> +1.2429985e-12 </wgt>
<wgt id='1256'> +1.2367082e-12 </wgt>
<wgt id='1257'> +1.2227001e-12 </wgt>
<wgt id='1258'> +1.2335741e-12 </wgt>
<wgt id='1259'> +1.2296920e-12 </wgt>
<wgt id='1260'> +1.2350635e-12 </wgt>
<wgt id='1261'> +1.2302917e-12 </wgt>
<wgt id='1262'> +1.2331542e-12 </wgt>
<wgt id='1263'> +1.2323637e-12 </wgt>
<wgt id='1264'> +1.2420097e-12 </wgt>
<wgt id='1265'> +1.2284078e-12 </wgt>
<wgt id='1266'> +1.2265844e-12 </wgt>
<wgt id='1267'> +1.2397899e-12 </wgt>
<wgt id='1268'> +1.2349633e-12 </wgt>
<wgt id='1269'> +1.2338909e-12 </wgt>
<wgt id='1270'> +1.2340867e-12 </wgt>
<wgt id='1271'> +1.2336922e-12 </wgt>
<wgt id='1272'> +1.2335302e-12 </wgt>
<wgt id='1273'> +1.2328402e-12 </wgt>
<wgt id='1274'> +1.2332502e-12 </wgt>
<wgt id='1275'> +1.2317470e-12 </wgt>
<wgt id='1276'> +1.2315911e-12 </wgt>
<wgt id='1277'> +1.2329012e-12 </wgt>
<wgt id='1278'> +1.2309035e-12 </wgt>
<wgt id='1279'> +1.2401350e-12 </wgt>
<wgt id='1280'> +1.2326106e-12 </wgt>
<wgt id='1281'> +1.2358150e-12 </wgt>
<wgt id='1282'> +1.2327260e-12 </wgt>
<wgt id='1283'> +1.2243957e-12 </wgt>
<wgt id='1284'> +1.2278294e-12 </wgt>
<wgt id='1285'> +1.2305016e-12 </wgt>
<wgt id='1286'> +1.2351588e-12 </wgt>
<wgt id='1287'> +1.2367722e-12 </wgt>
<wgt id='1288'> +1.2383081e-12 </wgt>
<wgt id='1289'> +1.3273706e-12 </wgt>
<wgt id='1290'> +1.3310699e-12 </wgt>
<wgt id='1291'> +1.3234888e-12 </wgt>
<wgt id='1292'> +1.3285845e-12 </wgt>
<wgt id='1293'> +1.3265105e-12 </wgt>
<wgt id='1294'> +1.3206487e-12 </wgt>
<wgt id='1295'> +1.3337558e-12 </wgt>
<wgt id='1296'> +1.3263165e-12 </wgt>
<wgt id='1297'> +1.3287002e-12 </wgt>
<wgt id='1298'> +1.3389201e-12 </wgt>
<wgt id='1299'> +1.3131012e-12 </wgt>
<wgt id='1300'> +1.3320728e-12 </wgt>
<wgt id='1301'> +1.3181007e-12 </wgt>
<wgt id='1302'> +1.3256896e-12 </wgt>
<wgt id='1303'> +1.3297371e-12 </wgt>
<wgt id='1304'> +1.3233897e-12 </wgt>
<wgt id='1305'> +1.3300545e-12 </wgt>
<wgt id='1306'> +1.3184683e-12 </wgt>
<wgt id='1307'> +1.3374546e-12 </wgt>
<wgt id='1308'> +1.3253101e-12 </wgt>
<wgt id='1309'> +1.3289138e-12 </wgt>
<wgt id='1310'> +1.3248943e-12 </wgt>
<wgt id='1311'> +1.3303154e-12 </wgt>
<wgt id='1312'> +1.3192485e-12 </wgt>
<wgt id='1313'> +1.3360959e-12 </wgt>
<wgt id='1314'> +1.3197601e-12 </wgt>
<wgt id='1315'> +1.3290270e-12 </wgt>
<wgt id='1316'> +1.3336081e-12 </wgt>
<wgt id='1317'> +1.3291066e-12 </wgt>
<wgt id='1318'> +1.3326842e-12 </wgt>
<wgt id='1319'> +1.3202117e-12 </wgt>
<wgt id='1320'> +1.3298483e-12 </wgt>
<wgt id='1321'> +1.3235394e-12 </wgt>
<wgt id='1322'> +1.3286327e-12 </wgt>
<wgt id='1323'> +1.3255341e-12 </wgt>
<wgt id='1324'> +1.3279582e-12 </wgt>
<wgt id='1325'> +1.3311626e-12 </wgt>
<wgt id='1326'> +1.3300261e-12 </wgt>
<wgt id='1327'> +1.3279491e-12 </wgt>
<wgt id='1328'> +1.3254622e-12 </wgt>
<wgt id='1329'> +1.3291043e-12 </wgt>
<wgt id='1330'> +1.3267421e-12 </wgt>
<wgt id='1331'> +1.3288419e-12 </wgt>
<wgt id='1332'> +1.3535748e-12 </wgt>
<wgt id='1333'> +1.3217783e-12 </wgt>
<wgt id='1334'> +1.3262948e-12 </wgt>
<wgt id='1335'> +1.3310336e-12 </wgt>
<wgt id='1336'> +1.3356128e-12 </wgt>
<wgt id='1337'> +1.3189803e-12 </wgt>
<wgt id='1338'> +1.3300717e-12 </wgt>
<wgt id='1339'> +1.3261604e-12 </wgt>
<wgt id='1340'> +1.2970104e-12 </wgt>
<wgt id='1341'> +1.3005585e-12 </wgt>
<wgt id='1342'> +1.2930788e-12 </wgt>
<wgt id='1343'> +1.2983281e-12 </wgt>
<wgt id='1344'> +1.2960848e-12 </wgt>
<wgt id='1345'> +1.2900323e-12 </wgt>
<wgt id='1346'> +1.3032934e-12 </wgt>
<wgt id='1347'> +1.2959495e-12 </wgt>
<wgt id='1348'> +1.2980179e-12 </wgt>
<wgt id='1349'> +1.3077335e-12 </wgt>
<wgt id='1350'> +1.2864656e-12 </wgt>
<wgt id='1351'> +1.3016475e-12 </wgt>
<wgt id='1352'> +1.2866587e-12 </wgt>
<wgt id='1353'> +1.2944355e-12 </wgt>
<wgt id='1354'> +1.3014195e-12 </wgt>
<wgt id='1355'> +1.2931112e-12 </wgt>
<wgt id='1356'> +1.2991788e-12 </wgt>
<wgt id='1357'> +1.2872396e-12 </wgt>
<wgt id='1358'> +1.3084011e-12 </wgt>
<wgt id='1359'> +1.2972022e-12 </wgt>
<wgt id='1360'> +1.2968136e-12 </wgt>
<wgt id='1361'> +1.2945793e-12 </wgt>
<wgt id='1362'> +1.3002464e-12 </wgt>
<wgt id='1363'> +1.2875972e-12 </wgt>
<wgt id='1364'> +1.3040097e-12 </wgt>
<wgt id='1365'> +1.3000769e-12 </wgt>
<wgt id='1366'> +1.2848944e-12 </wgt>
<wgt id='1367'> +1.3030349e-12 </wgt>
<wgt id='1368'> +1.2975839e-12 </wgt>
<wgt id='1369'> +1.3017941e-12 </wgt>
<wgt id='1370'> +1.2909177e-12 </wgt>
<wgt id='1371'> +1.3003389e-12 </wgt>
<wgt id='1372'> +1.2917995e-12 </wgt>
<wgt id='1373'> +1.2979439e-12 </wgt>
<wgt id='1374'> +1.2954664e-12 </wgt>
<wgt id='1375'> +1.2972034e-12 </wgt>
<wgt id='1376'> +1.3010660e-12 </wgt>
<wgt id='1377'> +1.2997270e-12 </wgt>
<wgt id='1378'> +1.2978292e-12 </wgt>
<wgt id='1379'> +1.2951722e-12 </wgt>
<wgt id='1380'> +1.2988057e-12 </wgt>
<wgt id='1381'> +1.2972568e-12 </wgt>
<wgt id='1382'> +1.2971732e-12 </wgt>
<wgt id='1383'> +1.3211213e-12 </wgt>
<wgt id='1384'> +1.2916645e-12 </wgt>
<wgt id='1385'> +1.2960182e-12 </wgt>
<wgt id='1386'> +1.2997488e-12 </wgt>
<wgt id='1387'> +1.3059257e-12 </wgt>
<wgt id='1388'> +1.2879093e-12 </wgt>
<wgt id='1389'> +1.3009790e-12 </wgt>
<wgt id='1390'> +1.2951456e-12 </wgt>
<wgt id='1391'> +1.2742623e-12 </wgt>
<wgt id='1392'> +1.2317412e-12 </wgt>
<wgt id='1393'> +1.2462170e-12 </wgt>
<wgt id='1394'> +1.2608719e-12 </wgt>
<wgt id='1395'> +1.2887588e-12 </wgt>
<wgt id='1396'> +1.2745764e-12 </wgt>
<wgt id='1397'> +1.2815195e-12 </wgt>
<wgt id='1398'> +1.2797092e-12 </wgt>
<wgt id='1399'> +1.2782878e-12 </wgt>
<wgt id='1400'> +1.2772017e-12 </wgt>
<wgt id='1401'> +1.2759669e-12 </wgt>
<wgt id='1402'> +1.2736242e-12 </wgt>
<wgt id='1403'> +1.2727638e-12 </wgt>
<wgt id='1404'> +1.2717873e-12 </wgt>
<wgt id='1405'> +1.2745764e-12 </wgt>
<wgt id='1406'> +1.2685504e-12 </wgt>
<wgt id='1407'> +1.2716292e-12 </wgt>
<wgt id='1408'> +1.2773464e-12 </wgt>
<wgt id='1409'> +1.2796411e-12 </wgt>
<wgt id='1410'> +1.2032761e-12 </wgt>
<wgt id='1411'> +1.2080228e-12 </wgt>
<wgt id='1412'> +1.1972923e-12 </wgt>
<wgt id='1413'> +1.2019169e-12 </wgt>
<wgt id='1414'> +1.2047096e-12 </wgt>
<wgt id='1415'> +1.2037837e-12 </wgt>
<wgt id='1416'> +1.2031038e-12 </wgt>
<wgt id='1417'> +1.1973683e-12 </wgt>
<wgt id='1418'> +1.2092157e-12 </wgt>
<wgt id='1419'> +1.2077823e-12 </wgt>
<wgt id='1420'> +1.1989466e-12 </wgt>
<wgt id='1421'> +1.1819407e-12 </wgt>
<wgt id='1422'> +1.2124845e-12 </wgt>
<wgt id='1423'> +1.2030992e-12 </wgt>
<wgt id='1424'> +1.2035464e-12 </wgt>
<wgt id='1425'> +1.1968116e-12 </wgt>
<wgt id='1426'> +1.2102839e-12 </wgt>
<wgt id='1427'> +1.1855530e-12 </wgt>
<wgt id='1428'> +1.2128500e-12 </wgt>
<wgt id='1429'> +1.2002926e-12 </wgt>
<wgt id='1430'> +1.2075637e-12 </wgt>
<wgt id='1431'> +1.2060836e-12 </wgt>
<wgt id='1432'> +1.2013067e-12 </wgt>
<wgt id='1433'> +1.2013399e-12 </wgt>
<wgt id='1434'> +1.2025481e-12 </wgt>
<wgt id='1435'> +1.2052954e-12 </wgt>
<wgt id='1436'> +1.1989604e-12 </wgt>
<wgt id='1437'> +1.2101130e-12 </wgt>
<wgt id='1438'> +1.2045172e-12 </wgt>
<wgt id='1439'> +1.2000638e-12 </wgt>
<wgt id='1440'> +1.2070811e-12 </wgt>
<wgt id='1441'> +1.2045265e-12 </wgt>
<wgt id='1442'> +1.2013814e-12 </wgt>
<wgt id='1443'> +1.2026224e-12 </wgt>
<wgt id='1444'> +1.2069938e-12 </wgt>
<wgt id='1445'> +1.2072647e-12 </wgt>
<wgt id='1446'> +1.2034240e-12 </wgt>
<wgt id='1447'> +1.2040812e-12 </wgt>
<wgt id='1448'> +1.2058615e-12 </wgt>
<wgt id='1449'> +1.2015520e-12 </wgt>
<wgt id='1450'> +1.2043417e-12 </wgt>
<wgt id='1451'> +1.2014995e-12 </wgt>
<wgt id='1452'> +1.2084256e-12 </wgt>
<wgt id='1453'> +1.2039711e-12 </wgt>
<wgt id='1454'> +1.1992281e-12 </wgt>
<wgt id='1455'> +1.1987849e-12 </wgt>
<wgt id='1456'> +1.2147421e-12 </wgt>
<wgt id='1457'> +1.2088798e-12 </wgt>
<wgt id='1458'> +1.2019975e-12 </wgt>
<wgt id='1459'> +1.2051207e-12 </wgt>
<wgt id='1460'> +1.2108985e-12 </wgt>
<wgt id='1461'> +1.2032761e-12 </wgt>
<wgt id='1462'> +1.1935897e-12 </wgt>
<wgt id='1463'> +1.2105749e-12 </wgt>
<wgt id='1464'> +1.2020098e-12 </wgt>
<wgt id='1465'> +1.2183604e-12 </wgt>
<wgt id='1466'> +1.2139387e-12 </wgt>
<wgt id='1467'> +1.2102222e-12 </wgt>
<wgt id='1468'> +1.2090569e-12 </wgt>
<wgt id='1469'> +1.2048715e-12 </wgt>
<wgt id='1470'> +1.1996920e-12 </wgt>
<wgt id='1471'> +1.1963754e-12 </wgt>
<wgt id='1472'> +1.1939150e-12 </wgt>
<wgt id='1473'> +1.2020098e-12 </wgt>
<wgt id='1474'> +1.1962865e-12 </wgt>
<wgt id='1475'> +1.1998487e-12 </wgt>
<wgt id='1476'> +1.2043125e-12 </wgt>
<wgt id='1477'> +1.2063135e-12 </wgt>
<wgt id='1478'> +1.2626859e-12 </wgt>
<wgt id='1479'> +1.2640830e-12 </wgt>
<wgt id='1480'> +1.2647019e-12 </wgt>
<wgt id='1481'> +1.2680722e-12 </wgt>
<wgt id='1482'> +1.2699125e-12 </wgt>
<wgt id='1483'> +1.2522176e-12 </wgt>
<wgt id='1484'> +1.2634970e-12 </wgt>
<wgt id='1485'> +1.2834099e-12 </wgt>
<wgt id='1486'> +1.2621956e-12 </wgt>
<wgt id='1487'> +1.2677303e-12 </wgt>
<wgt id='1488'> +1.2578084e-12 </wgt>
<wgt id='1489'> +1.2683157e-12 </wgt>
<wgt id='1490'> +1.2646739e-12 </wgt>
<wgt id='1491'> +1.2668221e-12 </wgt>
<wgt id='1492'> +1.2590445e-12 </wgt>
<wgt id='1493'> +1.2525884e-12 </wgt>
<wgt id='1494'> +1.2641207e-12 </wgt>
<wgt id='1495'> +1.2752608e-12 </wgt>
<wgt id='1496'> +1.2618451e-12 </wgt>
<wgt id='1497'> +1.2691682e-12 </wgt>
<wgt id='1498'> +1.2603562e-12 </wgt>
<wgt id='1499'> +1.2668375e-12 </wgt>
<wgt id='1500'> +1.2608609e-12 </wgt>
<wgt id='1501'> +1.2620741e-12 </wgt>
<wgt id='1502'> +1.2646105e-12 </wgt>
<wgt id='1503'> +1.2679241e-12 </wgt>
<wgt id='1504'> +1.2642538e-12 </wgt>
<wgt id='1505'> +1.2621307e-12 </wgt>
<wgt id='1506'> +1.2649961e-12 </wgt>
<wgt id='1507'> +1.2614159e-12 </wgt>
<wgt id='1508'> +1.2732793e-12 </wgt>
<wgt id='1509'> +1.2663929e-12 </wgt>
<wgt id='1510'> +1.2660571e-12 </wgt>
<wgt id='1511'> +1.2583678e-12 </wgt>
<wgt id='1512'> +1.2566323e-12 </wgt>
<wgt id='1513'> +1.2697526e-12 </wgt>
<wgt id='1514'> +1.2711202e-12 </wgt>
<wgt id='1515'> +1.2680917e-12 </wgt>
<wgt id='1516'> +1.2727320e-12 </wgt>
<wgt id='1517'> +1.2688011e-12 </wgt>
<wgt id='1518'> +1.2668034e-12 </wgt>
<wgt id='1519'> +1.2620965e-12 </wgt>
<wgt id='1520'> +1.2665348e-12 </wgt>
<wgt id='1521'> +1.2663149e-12 </wgt>
<wgt id='1522'> +1.2681948e-12 </wgt>
<wgt id='1523'> +1.2719343e-12 </wgt>
<wgt id='1524'> +1.2681461e-12 </wgt>
<wgt id='1525'> +1.2673937e-12 </wgt>
<wgt id='1526'> +1.2699434e-12 </wgt>
<wgt id='1527'> +1.2680707e-12 </wgt>
<wgt id='1528'> +1.2632400e-12 </wgt>
<wgt id='1529'> +1.2682926e-12 </wgt>
<wgt id='1530'> +1.2590521e-12 </wgt>
<wgt id='1531'> +1.2695073e-12 </wgt>
<wgt id='1532'> +1.2670234e-12 </wgt>
<wgt id='1533'> +1.2644221e-12 </wgt>
<wgt id='1534'> +1.2698777e-12 </wgt>
<wgt id='1535'> +1.2728624e-12 </wgt>
<wgt id='1536'> +1.2668465e-12 </wgt>
<wgt id='1537'> +1.2634976e-12 </wgt>
<wgt id='1538'> +1.2661939e-12 </wgt>
<wgt id='1539'> +1.2670352e-12 </wgt>
<wgt id='1540'> +1.2678536e-12 </wgt>
<wgt id='1541'> +1.2655241e-12 </wgt>
<wgt id='1542'> +1.2656616e-12 </wgt>
<wgt id='1543'> +1.2675152e-12 </wgt>
<wgt id='1544'> +1.2669252e-12 </wgt>
<wgt id='1545'> +1.2670851e-12 </wgt>
<wgt id='1546'> +1.2659461e-12 </wgt>
<wgt id='1547'> +1.2670450e-12 </wgt>
<wgt id='1548'> +1.2663872e-12 </wgt>
<wgt id='1549'> +1.2671015e-12 </wgt>
<wgt id='1550'> +1.2668186e-12 </wgt>
<wgt id='1551'> +1.2652027e-12 </wgt>
<wgt id='1552'> +1.2672356e-12 </wgt>
<wgt id='1553'> +1.2674211e-12 </wgt>
<wgt id='1554'> +1.2667781e-12 </wgt>
<wgt id='1555'> +1.2673652e-12 </wgt>
<wgt id='1556'> +1.2669807e-12 </wgt>
<wgt id='1557'> +1.2667116e-12 </wgt>
<wgt id='1558'> +1.2665775e-12 </wgt>
<wgt id='1559'> +1.2657083e-12 </wgt>
<wgt id='1560'> +1.2671427e-12 </wgt>
<wgt id='1561'> +1.2660048e-12 </wgt>
<wgt id='1562'> +1.2660147e-12 </wgt>
<wgt id='1563'> +1.2665182e-12 </wgt>
<wgt id='1564'> +1.2661846e-12 </wgt>
<wgt id='1565'> +1.2665139e-12 </wgt>
<wgt id='1566'> +1.2661669e-12 </wgt>
<wgt id='1567'> +1.2662437e-12 </wgt>
<wgt id='1568'> +1.2661238e-12 </wgt>
<wgt id='1569'> +1.2666597e-12 </wgt>
<wgt id='1570'> +1.2666001e-12 </wgt>
<wgt id='1571'> +1.2661453e-12 </wgt>
<wgt id='1572'> +1.2663646e-12 </wgt>
<wgt id='1573'> +1.2661867e-12 </wgt>
<wgt id='1574'> +1.2660823e-12 </wgt>
<wgt id='1575'> +1.2659166e-12 </wgt>
<wgt id='1576'> +1.2665701e-12 </wgt>
<wgt id='1577'> +1.2666167e-12 </wgt>
<wgt id='1578'> +1.2665225e-12 </wgt>
<wgt id='1579'> +1.2666922e-12 </wgt>
<wgt id='1580'> +1.2666946e-12 </wgt>
<wgt id='1581'> +1.2666221e-12 </wgt>
<wgt id='1582'> +1.2663942e-12 </wgt>
<wgt id='1583'> +1.2664889e-12 </wgt>
<wgt id='1584'> +1.2665781e-12 </wgt>
<wgt id='1585'> +1.2663891e-12 </wgt>
<wgt id='1586'> +1.2668992e-12 </wgt>
<wgt id='1587'> +1.2665745e-12 </wgt>
<wgt id='1588'> +1.2663911e-12 </wgt>
<wgt id='1589'> +1.2662305e-12 </wgt>
<wgt id='1590'> +1.2665444e-12 </wgt>
<wgt id='1591'> +1.2661727e-12 </wgt>
<wgt id='1592'> +1.2664691e-12 </wgt>
<wgt id='1593'> +1.2664664e-12 </wgt>
<wgt id='1594'> +1.2657260e-12 </wgt>
<wgt id='1595'> +1.2664757e-12 </wgt>
<wgt id='1596'> +1.2660807e-12 </wgt>
<wgt id='1597'> +1.2662829e-12 </wgt>
<wgt id='1598'> +1.2665771e-12 </wgt>
<wgt id='1599'> +1.2662075e-12 </wgt>
<wgt id='1600'> +1.2658998e-12 </wgt>
<wgt id='1601'> +1.2663704e-12 </wgt>
<wgt id='1602'> +1.2665975e-12 </wgt>
<wgt id='1603'> +1.2664733e-12 </wgt>
<wgt id='1604'> +1.2663068e-12 </wgt>
<wgt id='1605'> +1.2666368e-12 </wgt>
<wgt id='1606'> +1.2659703e-12 </wgt>
<wgt id='1607'> +1.2666984e-12 </wgt>
<wgt id='1608'> +1.2666771e-12 </wgt>
<wgt id='1609'> +1.2663075e-12 </wgt>
<wgt id='1610'> +1.2364281e-12 </wgt>
<wgt id='1611'> +1.2997145e-12 </wgt>
<wgt id='1612'> +1.4998423e-12 </wgt>
<wgt id='1613'> +1.4818215e-12 </wgt>
<wgt id='1614'> +1.4912573e-12 </wgt>
<wgt id='1615'> +1.5107306e-12 </wgt>
<wgt id='1616'> +1.4707863e-12 </wgt>
<wgt id='1617'> +1.4796560e-12 </wgt>
<wgt id='1618'> +1.4907639e-12 </wgt>
<wgt id='1619'> +1.4923046e-12 </wgt>
<wgt id='1620'> +1.4928391e-12 </wgt>
<wgt id='1621'> +1.5306476e-12 </wgt>
<wgt id='1622'> +1.5242831e-12 </wgt>
<wgt id='1623'> +1.5168518e-12 </wgt>
<wgt id='1624'> +1.5288783e-12 </wgt>
<wgt id='1625'> +1.4914438e-12 </wgt>
<wgt id='1626'> +1.4974927e-12 </wgt>
<wgt id='1627'> +1.5246613e-12 </wgt>
<wgt id='1628'> +1.5427245e-12 </wgt>
<wgt id='1629'> +1.5345724e-12 </wgt>
<wgt id='1630'> +1.4770859e-12 </wgt>
<wgt id='1631'> +1.5079806e-12 </wgt>
<wgt id='1632'> +1.4927395e-12 </wgt>
<wgt id='1633'> +1.4865209e-12 </wgt>
<wgt id='1634'> +1.4805227e-12 </wgt>
<wgt id='1635'> +1.4710498e-12 </wgt>
<wgt id='1636'> +1.5070717e-12 </wgt>
<wgt id='1637'> +1.4644281e-12 </wgt>
<wgt id='1638'> +1.4853240e-12 </wgt>
<wgt id='1639'> +1.5076156e-12 </wgt>
<wgt id='1640'> +1.4868468e-12 </wgt>
<wgt id='1641'> +1.4795844e-12 </wgt>
<wgt id='1642'> +1.4846355e-12 </wgt>
<wgt id='1643'> +1.4993208e-12 </wgt>
<wgt id='1644'> +1.4742199e-12 </wgt>
<wgt id='1645'> +1.5094084e-12 </wgt>
<wgt id='1646'> +1.5159470e-12 </wgt>
<wgt id='1647'> +1.4901409e-12 </wgt>
<wgt id='1648'> +1.5321624e-12 </wgt>
<wgt id='1649'> +1.5228825e-12 </wgt>
<wgt id='1650'> +1.4995114e-12 </wgt>
<wgt id='1651'> +1.5114346e-12 </wgt>
<wgt id='1652'> +1.4961682e-12 </wgt>
<wgt id='1653'> +1.5036439e-12 </wgt>
<wgt id='1654'> +1.4918371e-12 </wgt>
<wgt id='1655'> +1.5312308e-12 </wgt>
<wgt id='1656'> +1.5292201e-12 </wgt>
<wgt id='1657'> +1.4944515e-12 </wgt>
<wgt id='1658'> +1.5324909e-12 </wgt>
<wgt id='1659'> +1.5288783e-12 </wgt>
<wgt id='1660'> +1.5145247e-12 </wgt>
<wgt id='1661'> +1.4934666e-12 </wgt>
<wgt id='1662'> +1.5065647e-12 </wgt>
<wgt id='1663'> +1.4739035e-12 </wgt>
<wgt id='1664'> +1.5186484e-12 </wgt>
<wgt id='1665'> +1.4803442e-12 </wgt>
<wgt id='1666'> +1.4751598e-12 </wgt>
<wgt id='1667'> +1.5173594e-12 </wgt>
<wgt id='1668'> +1.4914388e-12 </wgt>
<wgt id='1669'> +1.5023934e-12 </wgt>
<wgt id='1670'> +1.4779635e-12 </wgt>
<wgt id='1671'> +1.4775868e-12 </wgt>
<wgt id='1672'> +1.5195782e-12 </wgt>
<wgt id='1673'> +1.4907252e-12 </wgt>
<wgt id='1674'> +1.4849076e-12 </wgt>
<wgt id='1675'> +1.4820900e-12 </wgt>
<wgt id='1676'> +1.5073288e-12 </wgt>
<wgt id='1677'> +1.4745111e-12 </wgt>
<wgt id='1678'> +1.4791351e-12 </wgt>
<wgt id='1679'> +1.4932830e-12 </wgt>
<wgt id='1680'> +1.5161737e-12 </wgt>
<wgt id='1681'> +1.4998507e-12 </wgt>
<wgt id='1682'> +1.4736304e-12 </wgt>
<wgt id='1683'> +1.5101317e-12 </wgt>
<wgt id='1684'> +1.4914967e-12 </wgt>
<wgt id='1685'> +1.5022075e-12 </wgt>
<wgt id='1686'> +1.4872657e-12 </wgt>
<wgt id='1687'> +1.4908386e-12 </wgt>
<wgt id='1688'> +1.4908991e-12 </wgt>
<wgt id='1689'> +1.5243919e-12 </wgt>
<wgt id='1690'> +1.4783601e-12 </wgt>
<wgt id='1691'> +1.5024672e-12 </wgt>
<wgt id='1692'> +1.5212683e-12 </wgt>
<wgt id='1693'> +1.4753748e-12 </wgt>
<wgt id='1694'> +1.5003495e-12 </wgt>
<wgt id='1695'> +1.5366605e-12 </wgt>
<wgt id='1696'> +1.4834572e-12 </wgt>
<wgt id='1697'> +1.5042353e-12 </wgt>
<wgt id='1698'> +1.4936174e-12 </wgt>
<wgt id='1699'> +1.5093249e-12 </wgt>
<wgt id='1700'> +1.4988100e-12 </wgt>
<wgt id='1701'> +1.5382137e-12 </wgt>
<wgt id='1702'> +1.4544408e-12 </wgt>
<wgt id='1703'> +1.5001660e-12 </wgt>
<wgt id='1704'> +1.5063058e-12 </wgt>
<wgt id='1705'> +1.5026148e-12 </wgt>
<wgt id='1706'> +1.5082960e-12 </wgt>
<wgt id='1707'> +1.4920301e-12 </wgt>
<wgt id='1708'> +1.5177264e-12 </wgt>
<wgt id='1709'> +1.5260551e-12 </wgt>
<wgt id='1710'> +1.4665528e-12 </wgt>
<wgt id='1711'> +1.4857066e-12 </wgt>
<wgt id='1712'> +1.5333886e-12 </wgt>
<wgt id='1713'> +1.3023275e-12 </wgt>
<wgt id='1714'> +1.2897914e-12 </wgt>
<wgt id='1715'> +1.2699349e-12 </wgt>
<wgt id='1716'> +1.3177545e-12 </wgt>
<wgt id='1717'> +1.2859228e-12 </wgt>
<wgt id='1718'> +1.3147482e-12 </wgt>
<wgt id='1719'> +1.3457435e-12 </wgt>
<wgt id='1720'> +1.2818349e-12 </wgt>
<wgt id='1721'> +1.3128246e-12 </wgt>
<wgt id='1722'> +1.3090092e-12 </wgt>
<wgt id='1723'> +1.2859776e-12 </wgt>
<wgt id='1724'> +1.2424293e-12 </wgt>
<wgt id='1725'> +1.3237553e-12 </wgt>
<wgt id='1726'> +1.3216037e-12 </wgt>
<wgt id='1727'> +1.2995271e-12 </wgt>
<wgt id='1728'> +1.3119348e-12 </wgt>
<wgt id='1729'> +1.2826513e-12 </wgt>
<wgt id='1730'> +1.2919342e-12 </wgt>
<wgt id='1731'> +1.2794163e-12 </wgt>
<wgt id='1732'> +1.3296473e-12 </wgt>
<wgt id='1733'> +1.3167404e-12 </wgt>
<wgt id='1734'> +1.3466934e-12 </wgt>
<wgt id='1735'> +1.2823070e-12 </wgt>
<wgt id='1736'> +1.3725577e-12 </wgt>
<wgt id='1737'> +1.3356783e-12 </wgt>
<wgt id='1738'> +1.3004433e-12 </wgt>
<wgt id='1739'> +1.3043948e-12 </wgt>
<wgt id='1740'> +1.2464369e-12 </wgt>
<wgt id='1741'> +1.3206904e-12 </wgt>
<wgt id='1742'> +1.3124527e-12 </wgt>
<wgt id='1743'> +1.3225013e-12 </wgt>
<wgt id='1744'> +1.3230421e-12 </wgt>
<wgt id='1745'> +1.2625546e-12 </wgt>
<wgt id='1746'> +1.2787997e-12 </wgt>
<wgt id='1747'> +1.3320073e-12 </wgt>
<wgt id='1748'> +1.2914274e-12 </wgt>
<wgt id='1749'> +1.3030628e-12 </wgt>
<wgt id='1750'> +1.3239729e-12 </wgt>
<wgt id='1751'> +1.2961451e-12 </wgt>
<wgt id='1752'> +1.2799456e-12 </wgt>
<wgt id='1753'> +1.3121093e-12 </wgt>
<wgt id='1754'> +1.3107557e-12 </wgt>
<wgt id='1755'> +1.2906963e-12 </wgt>
<wgt id='1756'> +1.3148955e-12 </wgt>
<wgt id='1757'> +1.3165258e-12 </wgt>
<wgt id='1758'> +1.3210079e-12 </wgt>
<wgt id='1759'> +1.3322588e-12 </wgt>
<wgt id='1760'> +1.2919125e-12 </wgt>
<wgt id='1761'> +1.3016685e-12 </wgt>
<wgt id='1762'> +1.2813044e-12 </wgt>
<wgt id='1763'> +1.3032966e-12 </wgt>
<wgt id='1764'> +1.3205558e-12 </wgt>
<wgt id='1765'> +1.2793036e-12 </wgt>
<wgt id='1766'> +1.3270015e-12 </wgt>
<wgt id='1767'> +1.3056055e-12 </wgt>
<wgt id='1768'> +1.2938997e-12 </wgt>
<wgt id='1769'> +1.3014806e-12 </wgt>
<wgt id='1770'> +1.3075635e-12 </wgt>
<wgt id='1771'> +1.3135740e-12 </wgt>
<wgt id='1772'> +1.3213721e-12 </wgt>
<wgt id='1773'> +1.3007242e-12 </wgt>
<wgt id='1774'> +1.2955366e-12 </wgt>
<wgt id='1775'> +1.3121159e-12 </wgt>
<wgt id='1776'> +1.3184755e-12 </wgt>
<wgt id='1777'> +1.2688950e-12 </wgt>
<wgt id='1778'> +1.2765957e-12 </wgt>
<wgt id='1779'> +1.3106301e-12 </wgt>
<wgt id='1780'> +1.3519298e-12 </wgt>
<wgt id='1781'> +1.2983498e-12 </wgt>
<wgt id='1782'> +1.2514623e-12 </wgt>
<wgt id='1783'> +1.3059167e-12 </wgt>
<wgt id='1784'> +1.2838317e-12 </wgt>
<wgt id='1785'> +1.3119542e-12 </wgt>
<wgt id='1786'> +1.2251014e-12 </wgt>
<wgt id='1787'> +1.3523199e-12 </wgt>
<wgt id='1788'> +1.2849628e-12 </wgt>
<wgt id='1789'> +1.3159483e-12 </wgt>
<wgt id='1790'> +1.3065595e-12 </wgt>
<wgt id='1791'> +1.3099633e-12 </wgt>
<wgt id='1792'> +1.2753290e-12 </wgt>
<wgt id='1793'> +1.2952531e-12 </wgt>
<wgt id='1794'> +1.3057018e-12 </wgt>
<wgt id='1795'> +1.2803477e-12 </wgt>
<wgt id='1796'> +1.3294744e-12 </wgt>
<wgt id='1797'> +1.3011636e-12 </wgt>
<wgt id='1798'> +1.2877321e-12 </wgt>
<wgt id='1799'> +1.2928009e-12 </wgt>
<wgt id='1800'> +1.2994105e-12 </wgt>
<wgt id='1801'> +1.2827434e-12 </wgt>
<wgt id='1802'> +1.3299012e-12 </wgt>
<wgt id='1803'> +1.3016600e-12 </wgt>
<wgt id='1804'> +1.3138501e-12 </wgt>
<wgt id='1805'> +1.2814630e-12 </wgt>
<wgt id='1806'> +1.2929401e-12 </wgt>
<wgt id='1807'> +1.3049087e-12 </wgt>
<wgt id='1808'> +1.2958267e-12 </wgt>
<wgt id='1809'> +1.2882455e-12 </wgt>
<wgt id='1810'> +1.2832373e-12 </wgt>
<wgt id='1811'> +1.3117222e-12 </wgt>
<wgt id='1812'> +1.3052390e-12 </wgt>
<wgt id='1813'> +1.2918757e-12 </wgt>
<wgt id='1814'> +1.1488018e-12 </wgt>
<wgt id='1815'> +1.3015727e-12 </wgt>
<wgt id='1816'> +1.3023275e-12 </wgt>
<wgt id='1817'> +1.2897914e-12 </wgt>
<wgt id='1818'> +1.2699349e-12 </wgt>
<wgt id='1819'> +1.3177545e-12 </wgt>
<wgt id='1820'> +1.2859228e-12 </wgt>
<wgt id='1821'> +1.3147482e-12 </wgt>
<wgt id='1822'> +1.3457435e-12 </wgt>
<wgt id='1823'> +1.2818349e-12 </wgt>
<wgt id='1824'> +1.3128246e-12 </wgt>
<wgt id='1825'> +1.3090092e-12 </wgt>
<wgt id='1826'> +1.2859776e-12 </wgt>
<wgt id='1827'> +1.2424293e-12 </wgt>
<wgt id='1828'> +1.3237553e-12 </wgt>
<wgt id='1829'> +1.3216037e-12 </wgt>
<wgt id='1830'> +1.2995271e-12 </wgt>
<wgt id='1831'> +1.3119348e-12 </wgt>
<wgt id='1832'> +1.2826513e-12 </wgt>
<wgt id='1833'> +1.2919342e-12 </wgt>
<wgt id='1834'> +1.2794163e-12 </wgt>
<wgt id='1835'> +1.3296473e-12 </wgt>
<wgt id='1836'> +1.3167404e-12 </wgt>
<wgt id='1837'> +1.3466934e-12 </wgt>
<wgt id='1838'> +1.2823070e-12 </wgt>
<wgt id='1839'> +1.3725577e-12 </wgt>
<wgt id='1840'> +1.3356783e-12 </wgt>
<wgt id='1841'> +1.3004433e-12 </wgt>
<wgt id='1842'> +1.3043948e-12 </wgt>
<wgt id='1843'> +1.2464369e-12 </wgt>
<wgt id='1844'> +1.3206904e-12 </wgt>
<wgt id='1845'> +1.3124527e-12 </wgt>
<wgt id='1846'> +1.3225013e-12 </wgt>
<wgt id='1847'> +1.3230421e-12 </wgt>
<wgt id='1848'> +1.2625546e-12 </wgt>
<wgt id='1849'> +1.2787997e-12 </wgt>
<wgt id='1850'> +1.3320073e-12 </wgt>
<wgt id='1851'> +1.2914274e-12 </wgt>
<wgt id='1852'> +1.3030628e-12 </wgt>
<wgt id='1853'> +1.3239729e-12 </wgt>
<wgt id='1854'> +1.2961451e-12 </wgt>
<wgt id='1855'> +1.2799456e-12 </wgt>
<wgt id='1856'> +1.3121093e-12 </wgt>
<wgt id='1857'> +1.3107557e-12 </wgt>
<wgt id='1858'> +1.2906963e-12 </wgt>
<wgt id='1859'> +1.3148955e-12 </wgt>
<wgt id='1860'> +1.3165258e-12 </wgt>
<wgt id='1861'> +1.3210079e-12 </wgt>
<wgt id='1862'> +1.3322588e-12 </wgt>
<wgt id='1863'> +1.2919125e-12 </wgt>
<wgt id='1864'> +1.3016685e-12 </wgt>
<wgt id='1865'> +1.2813044e-12 </wgt>
<wgt id='1866'> +1.3032966e-12 </wgt>
<wgt id='1867'> +1.3205558e-12 </wgt>
<wgt id='1868'> +1.2793036e-12 </wgt>
<wgt id='1869'> +1.3270015e-12 </wgt>
<wgt id='1870'> +1.3056055e-12 </wgt>
<wgt id='1871'> +1.2938997e-12 </wgt>
<wgt id='1872'> +1.3014806e-12 </wgt>
<wgt id='1873'> +1.3075635e-12 </wgt>
<wgt id='1874'> +1.3135740e-12 </wgt>
<wgt id='1875'> +1.3213721e-12 </wgt>
<wgt id='1876'> +1.3007242e-12 </wgt>
<wgt id='1877'> +1.2955366e-12 </wgt>
<wgt id='1878'> +1.3121159e-12 </wgt>
<wgt id='1879'> +1.3184755e-12 </wgt>
<wgt id='1880'> +1.2688950e-12 </wgt>
<wgt id='1881'> +1.2765957e-12 </wgt>
<wgt id='1882'> +1.3106301e-12 </wgt>
<wgt id='1883'> +1.3519298e-12 </wgt>
<wgt id='1884'> +1.2983498e-12 </wgt>
<wgt id='1885'> +1.2514623e-12 </wgt>
<wgt id='1886'> +1.3059167e-12 </wgt>
<wgt id='1887'> +1.2838317e-12 </wgt>
<wgt id='1888'> +1.3119542e-12 </wgt>
<wgt id='1889'> +1.2251014e-12 </wgt>
<wgt id='1890'> +1.3523199e-12 </wgt>
<wgt id='1891'> +1.2849628e-12 </wgt>
<wgt id='1892'> +1.3159483e-12 </wgt>
<wgt id='1893'> +1.3065595e-12 </wgt>
<wgt id='1894'> +1.3099633e-12 </wgt>
<wgt id='1895'> +1.2753290e-12 </wgt>
<wgt id='1896'> +1.2952531e-12 </wgt>
<wgt id='1897'> +1.3057018e-12 </wgt>
<wgt id='1898'> +1.2803477e-12 </wgt>
<wgt id='1899'> +1.3294744e-12 </wgt>
<wgt id='1900'> +1.3011636e-12 </wgt>
<wgt id='1901'> +1.2877321e-12 </wgt>
<wgt id='1902'> +1.2928009e-12 </wgt>
<wgt id='1903'> +1.2994105e-12 </wgt>
<wgt id='1904'> +1.2827434e-12 </wgt>
<wgt id='1905'> +1.3299012e-12 </wgt>
<wgt id='1906'> +1.3016600e-12 </wgt>
<wgt id='1907'> +1.3138501e-12 </wgt>
<wgt id='1908'> +1.2814630e-12 </wgt>
<wgt id='1909'> +1.2929401e-12 </wgt>
<wgt id='1910'> +1.3049087e-12 </wgt>
<wgt id='1911'> +1.2958267e-12 </wgt>
<wgt id='1912'> +1.2882455e-12 </wgt>
<wgt id='1913'> +1.2832373e-12 </wgt>
<wgt id='1914'> +1.3117222e-12 </wgt>
<wgt id='1915'> +1.3052390e-12 </wgt>
<wgt id='1916'> +1.2918757e-12 </wgt>
<wgt id='1917'> +1.2892000e-12 </wgt>
<wgt id='1918'> +1.3201927e-12 </wgt>
<wgt id='1919'> +1.2519085e-12 </wgt>
</rwgt>
</event>
<event>
 9      1 +1.5607000e-12 2.58683600e+01 7.81860800e-03 1.49560300e-01
       21 -1    0    0  501  502 +0.0000000000e+00 +0.0000000000e+00 +1.2622800040e+02 1.2622800040e+02 0.0000000000e+00 0.0000e+00 -1.0000e+00
       -2 -1    0    0    0  501 -0.0000000000e+00 -0.0000000000e+00 -6.9522390955e+00 6.9522390955e+00 0.0000000000e+00 0.0000e+00 -1.0000e+00
     1023  2    1    2    0    0 +1.8772091946e+01 +9.5791011663e+00 +2.2967428715e+01 3.4592991125e+01 1.5000721250e+01 0.0000e+00 0.0000e+00
  1000023  2    3    3    0    0 +3.6276973414e+00 +4.4754784678e+00 +2.9476309418e+00 8.4933368080e+00 5.5007405364e+00 0.0000e+00 0.0000e+00
       -2  1    1    2    0  502 -1.8772091946e+01 -9.5791011663e+00 +9.6308332592e+01 9.8587248373e+01 0.0000000000e+00 0.0000e+00 -1.0000e+00
  1000022  1    4    4    0    0 +3.1843911607e+00 +4.0613978392e+00 +3.1603271432e+00 7.8500297531e+00 5.0000000000e+00 0.0000e+00 1.0000e+00
      -11  1    4    4    0    0 +6.2089419545e-02 +5.2618926595e-02 -3.6600625575e-02 8.9239645724e-02 5.1100000000e-04 0.0000e+00 1.0000e+00
       11  1    4    4    0    0 +3.8121676111e-01 +3.6146170195e-01 -1.7609557581e-01 5.5406740914e-01 5.1100000000e-04 0.0000e+00 -1.0000e+00
  1000022  1    3    3    0    0 +1.5144394604e+01 +5.1036226985e+00 +2.0019797774e+01 2.6099654317e+01 5.0000000000e+00 0.0000e+00 -1.0000e+00
<mgrwt>
<rscale>  1 0.25868364E+02</rscale>
<asrwt>0</asrwt>
<pdfrwt beam="1">  1       21 0.19419691E-01 0.25868364E+02</pdfrwt>
<pdfrwt beam="2">  1       -2 0.10695753E-02 0.25868364E+02</pdfrwt>
<totfact> 0.32833754E+06</totfact>
</mgrwt>
<rwgt>
<wgt id='1001'> +1.5607000e-12 </wgt>
<wgt id='1002'> +1.5828381e-12 </wgt>
<wgt id='1003'> +1.5832251e-12 </wgt>
<wgt id='1004'> +1.5519193e-12 </wgt>
<wgt id='1005'> +1.5857478e-12 </wgt>
<wgt id='1006'> +1.3598999e-12 </wgt>
<wgt id='1007'> +1.3990822e-12 </wgt>
<wgt id='1008'> +1.4001110e-12 </wgt>
<wgt id='1009'> +1.3471275e-12 </wgt>
<wgt id='1010'> +1.4104820e-12 </wgt>
<wgt id='1011'> +1.8346446e-12 </wgt>
<wgt id='1012'> +1.8246662e-12 </wgt>
<wgt id='1013'> +1.8239086e-12 </wgt>
<wgt id='1014'> +1.8340535e-12 </wgt>
<wgt id='1015'> +1.8128798e-12 </wgt>
<wgt id='1016'> +1.8189910e-12 </wgt>
<wgt id='1017'> +1.7899873e-12 </wgt>
<wgt id='1018'> +1.7886613e-12 </wgt>
<wgt id='1019'> +1.8239086e-12 </wgt>
<wgt id='1020'> +1.7712501e-12 </wgt>
<wgt id='1021'> +1.5849591e-12 </wgt>
<wgt id='1022'> +1.5821828e-12 </wgt>
<wgt id='1023'> +1.5817867e-12 </wgt>
<wgt id='1024'> +1.5832251e-12 </wgt>
<wgt id='1025'> +1.5754816e-12 </wgt>
<wgt id='1026'> +2.1382726e-12 </wgt>
<wgt id='1027'> +2.0634638e-12 </wgt>
<wgt id='1028'> +2.0605755e-12 </wgt>
<wgt id='1029'> +2.1554898e-12 </wgt>
<wgt id='1030'> +2.0249523e-12 </wgt>
<wgt id='1031'> +1.2660216e-12 </wgt>
<wgt id='1032'> +1.3448219e-12 </wgt>
<wgt id='1033'> +1.3471275e-12 </wgt>
<wgt id='1034'> +1.2418957e-12 </wgt>
<wgt id='1035'> +1.3721180e-12 </wgt>
<wgt id='1036'> +1.1031349e-12 </wgt>
<wgt id='1037'> +1.1886979e-12 </wgt>
<wgt id='1038'> +1.1913202e-12 </wgt>
<wgt id='1039'> +1.0780147e-12 </wgt>
<wgt id='1040'> +1.2204637e-12 </wgt>
<wgt id='1041'> +1.4882422e-12 </wgt>
<wgt id='1042'> +1.5502855e-12 </wgt>
<wgt id='1043'> +1.5519193e-12 </wgt>
<wgt id='1044'> +1.4676686e-12 </wgt>
<wgt id='1045'> +1.5686511e-12 </wgt>
<wgt id='1046'> +1.5607000e-12 </wgt>
<wgt id='1047'> +1.5672721e-12 </wgt>
<wgt id='1048'> +1.5428489e-12 </wgt>
<wgt id='1049'> +1.5644601e-12 </wgt>
<wgt id='1050'> +1.5519040e-12 </wgt>
<wgt id='1051'> +1.5404670e-12 </wgt>
<wgt id='1052'> +1.5702936e-12 </wgt>
<wgt id='1053'> +1.5375116e-12 </wgt>
<wgt id='1054'> +1.5471043e-12 </wgt>
<wgt id='1055'> +1.5586214e-12 </wgt>
<wgt id='1056'> +1.5743657e-12 </wgt>
<wgt id='1057'> +1.5902783e-12 </wgt>
<wgt id='1058'> +1.5174683e-12 </wgt>
<wgt id='1059'> +1.5577844e-12 </wgt>
<wgt id='1060'> +1.5573079e-12 </wgt>
<wgt id='1061'> +1.5972965e-12 </wgt>
<wgt id='1062'> +1.5840586e-12 </wgt>
<wgt id='1063'> +1.6021571e-12 </wgt>
<wgt id='1064'> +1.5346609e-12 </wgt>
<wgt id='1065'> +1.5655512e-12 </wgt>
<wgt id='1066'> +1.5554322e-12 </wgt>
<wgt id='1067'> +1.5055595e-12 </wgt>
<wgt id='1068'> +1.5538149e-12 </wgt>
<wgt id='1069'> +1.5460104e-12 </wgt>
<wgt id='1070'> +1.5266250e-12 </wgt>
<wgt id='1071'> +1.5315709e-12 </wgt>
<wgt id='1072'> +1.5945124e-12 </wgt>
<wgt id='1073'> +1.6316066e-12 </wgt>
<wgt id='1074'> +1.5270935e-12 </wgt>
<wgt id='1075'> +1.5975715e-12 </wgt>
<wgt id='1076'> +1.6119188e-12 </wgt>
<wgt id='1077'> +1.5694545e-12 </wgt>
<wgt id='1078'> +1.5482974e-12 </wgt>
<wgt id='1079'> +1.5488170e-12 </wgt>
<wgt id='1080'> +1.5380419e-12 </wgt>
<wgt id='1081'> +1.5887070e-12 </wgt>
<wgt id='1082'> +1.5427320e-12 </wgt>
<wgt id='1083'> +1.5326728e-12 </wgt>
<wgt id='1084'> +1.5528147e-12 </wgt>
<wgt id='1085'> +1.5516601e-12 </wgt>
<wgt id='1086'> +1.5731329e-12 </wgt>
<wgt id='1087'> +1.5875922e-12 </wgt>
<wgt id='1088'> +1.5436987e-12 </wgt>
<wgt id='1089'> +1.5715785e-12 </wgt>
<wgt id='1090'> +1.5447058e-12 </wgt>
<wgt id='1091'> +1.5381279e-12 </wgt>
<wgt id='1092'> +1.5797803e-12 </wgt>
<wgt id='1093'> +1.5255217e-12 </wgt>
<wgt id='1094'> +1.5700710e-12 </wgt>
<wgt id='1095'> +1.5939156e-12 </wgt>
<wgt id='1096'> +1.5780866e-12 </wgt>
<wgt id='1097'> +1.5431132e-12 </wgt>
<wgt id='1098'> +1.5203858e-12 </wgt>
<wgt id='1099'> +1.6026694e-12 </wgt>
<wgt id='1100'> +1.5525114e-12 </wgt>
<wgt id='1101'> +1.5694333e-12 </wgt>
<wgt id='1102'> +1.5386873e-12 </wgt>
<wgt id='1103'> +1.5554272e-12 </wgt>
<wgt id='1104'> +1.5267378e-12 </wgt>
<wgt id='1105'> +1.6211491e-12 </wgt>
<wgt id='1106'> +1.5624778e-12 </wgt>
<wgt id='1107'> +1.5639204e-12 </wgt>
<wgt id='1108'> +1.5433154e-12 </wgt>
<wgt id='1109'> +1.5634540e-12 </wgt>
<wgt id='1110'> +1.5676090e-12 </wgt>
<wgt id='1111'> +1.5527238e-12 </wgt>
<wgt id='1112'> +1.5673639e-12 </wgt>
<wgt id='1113'> +1.5275930e-12 </wgt>
<wgt id='1114'> +1.5880555e-12 </wgt>
<wgt id='1115'> +1.5513457e-12 </wgt>
<wgt id='1116'> +1.5252984e-12 </wgt>
<wgt id='1117'> +1.5847157e-12 </wgt>
<wgt id='1118'> +1.5953239e-12 </wgt>
<wgt id='1119'> +1.5370287e-12 </wgt>
<wgt id='1120'> +1.5892293e-12 </wgt>
<wgt id='1121'> +1.5665236e-12 </wgt>
<wgt id='1122'> +1.6330991e-12 </wgt>
<wgt id='1123'> +1.5299886e-12 </wgt>
<wgt id='1124'> +1.5762423e-12 </wgt>
<wgt id='1125'> +1.5702155e-12 </wgt>
<wgt id='1126'> +1.5531636e-12 </wgt>
<wgt id='1127'> +1.5281944e-12 </wgt>
<wgt id='1128'> +1.5840586e-12 </wgt>
<wgt id='1129'> +1.5624187e-12 </wgt>
<wgt id='1130'> +1.5670551e-12 </wgt>
<wgt id='1131'> +1.5670581e-12 </wgt>
<wgt id='1132'> +1.5309113e-12 </wgt>
<wgt id='1133'> +1.5652337e-12 </wgt>
<wgt id='1134'> +1.5879605e-12 </wgt>
<wgt id='1135'> +1.5803148e-12 </wgt>
<wgt id='1136'> +1.5176612e-12 </wgt>
<wgt id='1137'> +1.5384080e-12 </wgt>
<wgt id='1138'> +1.5866727e-12 </wgt>
<wgt id='1139'> +1.5752088e-12 </wgt>
<wgt id='1140'> +1.5596400e-12 </wgt>
<wgt id='1141'> +1.5145493e-12 </wgt>
<wgt id='1142'> +1.5532029e-12 </wgt>
<wgt id='1143'> +1.5559410e-12 </wgt>
<wgt id='1144'> +1.5615759e-12 </wgt>
<wgt id='1145'> +1.5826690e-12 </wgt>
<wgt id='1146'> +1.5482287e-12 </wgt>
<wgt id='1147'> +1.1899369e-12 </wgt>
<wgt id='1148'> +1.2180723e-12 </wgt>
<wgt id='1149'> +1.3080253e-12 </wgt>
<wgt id='1150'> +1.2273487e-12 </wgt>
<wgt id='1151'> +1.1098515e-12 </wgt>
<wgt id='1152'> +1.4448205e-12 </wgt>
<wgt id='1153'> +1.4376822e-12 </wgt>
<wgt id='1154'> +1.4488814e-12 </wgt>
<wgt id='1155'> +1.4445694e-12 </wgt>
<wgt id='1156'> +1.4449184e-12 </wgt>
<wgt id='1157'> +1.4473731e-12 </wgt>
<wgt id='1158'> +1.4412324e-12 </wgt>
<wgt id='1159'> +1.4469351e-12 </wgt>
<wgt id='1160'> +1.4434546e-12 </wgt>
<wgt id='1161'> +1.4408046e-12 </wgt>
<wgt id='1162'> +1.4475306e-12 </wgt>
<wgt id='1163'> +1.4489469e-12 </wgt>
<wgt id='1164'> +1.4407597e-12 </wgt>
<wgt id='1165'> +1.4352754e-12 </wgt>
<wgt id='1166'> +1.4540966e-12 </wgt>
<wgt id='1167'> +1.4539789e-12 </wgt>
<wgt id='1168'> +1.4322475e-12 </wgt>
<wgt id='1169'> +1.4471479e-12 </wgt>
<wgt id='1170'> +1.4429110e-12 </wgt>
<wgt id='1171'> +1.4432903e-12 </wgt>
<wgt id='1172'> +1.4465834e-12 </wgt>
<wgt id='1173'> +1.4386435e-12 </wgt>
<wgt id='1174'> +1.4502292e-12 </wgt>
<wgt id='1175'> +1.4433418e-12 </wgt>
<wgt id='1176'> +1.4451875e-12 </wgt>
<wgt id='1177'> +1.4449393e-12 </wgt>
<wgt id='1178'> +1.4450051e-12 </wgt>
<wgt id='1179'> +1.4579390e-12 </wgt>
<wgt id='1180'> +1.4275268e-12 </wgt>
<wgt id='1181'> +1.4389786e-12 </wgt>
<wgt id='1182'> +1.4504519e-12 </wgt>
<wgt id='1183'> +1.4435738e-12 </wgt>
<wgt id='1184'> +1.4448933e-12 </wgt>
<wgt id='1185'> +1.4381565e-12 </wgt>
<wgt id='1186'> +1.4481162e-12 </wgt>
<wgt id='1187'> +1.4436478e-12 </wgt>
<wgt id='1188'> +1.4451847e-12 </wgt>
<wgt id='1189'> +1.4415472e-12 </wgt>
<wgt id='1190'> +1.4286869e-12 </wgt>
<wgt id='1191'> +1.4400514e-12 </wgt>
<wgt id='1192'> +1.4493709e-12 </wgt>
<wgt id='1193'> +1.2491012e-12 </wgt>
<wgt id='1194'> +1.2442954e-12 </wgt>
<wgt id='1195'> +1.2530010e-12 </wgt>
<wgt id='1196'> +1.2542450e-12 </wgt>
<wgt id='1197'> +1.2434611e-12 </wgt>
<wgt id='1198'> +1.2497041e-12 </wgt>
<wgt id='1199'> +1.2483285e-12 </wgt>
<wgt id='1200'> +1.2511296e-12 </wgt>
<wgt id='1201'> +1.2478426e-12 </wgt>
<wgt id='1202'> +1.2470005e-12 </wgt>
<wgt id='1203'> +1.2522551e-12 </wgt>
<wgt id='1204'> +1.2360912e-12 </wgt>
<wgt id='1205'> +1.2571887e-12 </wgt>
<wgt id='1206'> +1.2539083e-12 </wgt>
<wgt id='1207'> +1.2426111e-12 </wgt>
<wgt id='1208'> +1.2421684e-12 </wgt>
<wgt id='1209'> +1.2516674e-12 </wgt>
<wgt id='1210'> +1.2481898e-12 </wgt>
<wgt id='1211'> +1.2414628e-12 </wgt>
<wgt id='1212'> +1.2496368e-12 </wgt>
<wgt id='1213'> +1.2486706e-12 </wgt>
<wgt id='1214'> +1.2343224e-12 </wgt>
<wgt id='1215'> +1.2721413e-12 </wgt>
<wgt id='1216'> +1.2560931e-12 </wgt>
<wgt id='1217'> +1.2441962e-12 </wgt>
<wgt id='1218'> +1.2526266e-12 </wgt>
<wgt id='1219'> +1.2472005e-12 </wgt>
<wgt id='1220'> +1.2535729e-12 </wgt>
<wgt id='1221'> +1.2491794e-12 </wgt>
<wgt id='1222'> +1.2472594e-12 </wgt>
<wgt id='1223'> +1.2535047e-12 </wgt>
<wgt id='1224'> +1.2508370e-12 </wgt>
<wgt id='1225'> +1.2483908e-12 </wgt>
<wgt id='1226'> +1.2472887e-12 </wgt>
<wgt id='1227'> +1.2504279e-12 </wgt>
<wgt id='1228'> +1.2452423e-12 </wgt>
<wgt id='1229'> +1.2507842e-12 </wgt>
<wgt id='1230'> +1.2514535e-12 </wgt>
<wgt id='1231'> +1.2403737e-12 </wgt>
<wgt id='1232'> +1.2476557e-12 </wgt>
<wgt id='1233'> +1.2495056e-12 </wgt>
<wgt id='1234'> +1.2491012e-12 </wgt>
<wgt id='1235'> +1.2409427e-12 </wgt>
<wgt id='1236'> +1.2441049e-12 </wgt>
<wgt id='1237'> +1.2468543e-12 </wgt>
<wgt id='1238'> +1.2517152e-12 </wgt>
<wgt id='1239'> +1.2536803e-12 </wgt>
<wgt id='1240'> +1.2554596e-12 </wgt>
<wgt id='1241'> +1.2856128e-12 </wgt>
<wgt id='1242'> +1.2779146e-12 </wgt>
<wgt id='1243'> +1.2934378e-12 </wgt>
<wgt id='1244'> +1.2793565e-12 </wgt>
<wgt id='1245'> +1.2902546e-12 </wgt>
<wgt id='1246'> +1.2864349e-12 </wgt>
<wgt id='1247'> +1.2850273e-12 </wgt>
<wgt id='1248'> +1.2855623e-12 </wgt>
<wgt id='1249'> +1.2857884e-12 </wgt>
<wgt id='1250'> +1.2862862e-12 </wgt>
<wgt id='1251'> +1.2852138e-12 </wgt>
<wgt id='1252'> +1.2826020e-12 </wgt>
<wgt id='1253'> +1.2880788e-12 </wgt>
<wgt id='1254'> +1.2729846e-12 </wgt>
<wgt id='1255'> +1.2932660e-12 </wgt>
<wgt id='1256'> +1.2900348e-12 </wgt>
<wgt id='1257'> +1.2748764e-12 </wgt>
<wgt id='1258'> +1.3045589e-12 </wgt>
<wgt id='1259'> +1.2677768e-12 </wgt>
<wgt id='1260'> +1.2895337e-12 </wgt>
<wgt id='1261'> +1.2813789e-12 </wgt>
<wgt id='1262'> +1.2877039e-12 </wgt>
<wgt id='1263'> +1.2846895e-12 </wgt>
<wgt id='1264'> +1.2898334e-12 </wgt>
<wgt id='1265'> +1.2837263e-12 </wgt>
<wgt id='1266'> +1.2846291e-12 </wgt>
<wgt id='1267'> +1.2875229e-12 </wgt>
<wgt id='1268'> +1.2851132e-12 </wgt>
<wgt id='1269'> +1.2906747e-12 </wgt>
<wgt id='1270'> +1.2814180e-12 </wgt>
<wgt id='1271'> +1.2802938e-12 </wgt>
<wgt id='1272'> +1.2871267e-12 </wgt>
<wgt id='1273'> +1.2848230e-12 </wgt>
<wgt id='1274'> +1.2874840e-12 </wgt>
<wgt id='1275'> +1.2817034e-12 </wgt>
<wgt id='1276'> +1.2878068e-12 </wgt>
<wgt id='1277'> +1.2827188e-12 </wgt>
<wgt id='1278'> +1.2852375e-12 </wgt>
<wgt id='1279'> +1.2847622e-12 </wgt>
<wgt id='1280'> +1.2863629e-12 </wgt>
<wgt id='1281'> +1.2834343e-12 </wgt>
<wgt id='1282'> +1.2856128e-12 </wgt>
<wgt id='1283'> +1.2760773e-12 </wgt>
<wgt id='1284'> +1.2798236e-12 </wgt>
<wgt id='1285'> +1.2831436e-12 </wgt>
<wgt id='1286'> +1.2884648e-12 </wgt>
<wgt id='1287'> +1.2905132e-12 </wgt>
<wgt id='1288'> +1.2924306e-12 </wgt>
<wgt id='1289'> +1.2678171e-12 </wgt>
<wgt id='1290'> +1.2741524e-12 </wgt>
<wgt id='1291'> +1.2608175e-12 </wgt>
<wgt id='1292'> +1.2630518e-12 </wgt>
<wgt id='1293'> +1.2711134e-12 </wgt>
<wgt id='1294'> +1.2678770e-12 </wgt>
<wgt id='1295'> +1.2675048e-12 </wgt>
<wgt id='1296'> +1.2622371e-12 </wgt>
<wgt id='1297'> +1.2746199e-12 </wgt>
<wgt id='1298'> +1.2734364e-12 </wgt>
<wgt id='1299'> +1.2606074e-12 </wgt>
<wgt id='1300'> +1.2712501e-12 </wgt>
<wgt id='1301'> +1.2609100e-12 </wgt>
<wgt id='1302'> +1.2667180e-12 </wgt>
<wgt id='1303'> +1.2692707e-12 </wgt>
<wgt id='1304'> +1.2653961e-12 </wgt>
<wgt id='1305'> +1.2693669e-12 </wgt>
<wgt id='1306'> +1.2641163e-12 </wgt>
<wgt id='1307'> +1.2719463e-12 </wgt>
<wgt id='1308'> +1.2798939e-12 </wgt>
<wgt id='1309'> +1.2584772e-12 </wgt>
<wgt id='1310'> +1.2661045e-12 </wgt>
<wgt id='1311'> +1.2696576e-12 </wgt>
<wgt id='1312'> +1.2659747e-12 </wgt>
<wgt id='1313'> +1.2698792e-12 </wgt>
<wgt id='1314'> +1.2708710e-12 </wgt>
<wgt id='1315'> +1.2575500e-12 </wgt>
<wgt id='1316'> +1.2748149e-12 </wgt>
<wgt id='1317'> +1.2678449e-12 </wgt>
<wgt id='1318'> +1.2763510e-12 </wgt>
<wgt id='1319'> +1.2570139e-12 </wgt>
<wgt id='1320'> +1.2729077e-12 </wgt>
<wgt id='1321'> +1.2620535e-12 </wgt>
<wgt id='1322'> +1.2672149e-12 </wgt>
<wgt id='1323'> +1.2682246e-12 </wgt>
<wgt id='1324'> +1.2652758e-12 </wgt>
<wgt id='1325'> +1.2777238e-12 </wgt>
<wgt id='1326'> +1.2673595e-12 </wgt>
<wgt id='1327'> +1.2702820e-12 </wgt>
<wgt id='1328'> +1.2684923e-12 </wgt>
<wgt id='1329'> +1.2669180e-12 </wgt>
<wgt id='1330'> +1.2416438e-12 </wgt>
<wgt id='1331'> +1.2826892e-12 </wgt>
<wgt id='1332'> +1.2890923e-12 </wgt>
<wgt id='1333'> +1.2542272e-12 </wgt>
<wgt id='1334'> +1.2628847e-12 </wgt>
<wgt id='1335'> +1.2792390e-12 </wgt>
<wgt id='1336'> +1.2692706e-12 </wgt>
<wgt id='1337'> +1.2602888e-12 </wgt>
<wgt id='1338'> +1.2679213e-12 </wgt>
<wgt id='1339'> +1.2674958e-12 </wgt>
<wgt id='1340'> +1.2425819e-12 </wgt>
<wgt id='1341'> +1.2491436e-12 </wgt>
<wgt id='1342'> +1.2355624e-12 </wgt>
<wgt id='1343'> +1.2378787e-12 </wgt>
<wgt id='1344'> +1.2457471e-12 </wgt>
<wgt id='1345'> +1.2425290e-12 </wgt>
<wgt id='1346'> +1.2426590e-12 </wgt>
<wgt id='1347'> +1.2371291e-12 </wgt>
<wgt id='1348'> +1.2485975e-12 </wgt>
<wgt id='1349'> +1.2475573e-12 </wgt>
<wgt id='1350'> +1.2376516e-12 </wgt>
<wgt id='1351'> +1.2460426e-12 </wgt>
<wgt id='1352'> +1.2350884e-12 </wgt>
<wgt id='1353'> +1.2409899e-12 </wgt>
<wgt id='1354'> +1.2453075e-12 </wgt>
<wgt id='1355'> +1.2404895e-12 </wgt>
<wgt id='1356'> +1.2437003e-12 </wgt>
<wgt id='1357'> +1.2423287e-12 </wgt>
<wgt id='1358'> +1.2430266e-12 </wgt>
<wgt id='1359'> +1.2556613e-12 </wgt>
<wgt id='1360'> +1.2312425e-12 </wgt>
<wgt id='1361'> +1.2409013e-12 </wgt>
<wgt id='1362'> +1.2448797e-12 </wgt>
<wgt id='1363'> +1.2401461e-12 </wgt>
<wgt id='1364'> +1.2447370e-12 </wgt>
<wgt id='1365'> +1.2327886e-12 </wgt>
<wgt id='1366'> +1.2449661e-12 </wgt>
<wgt id='1367'> +1.2488635e-12 </wgt>
<wgt id='1368'> +1.2424309e-12 </wgt>
<wgt id='1369'> +1.2501764e-12 </wgt>
<wgt id='1370'> +1.2332432e-12 </wgt>
<wgt id='1371'> +1.2465466e-12 </wgt>
<wgt id='1372'> +1.2366030e-12 </wgt>
<wgt id='1373'> +1.2410530e-12 </wgt>
<wgt id='1374'> +1.2435942e-12 </wgt>
<wgt id='1375'> +1.2402913e-12 </wgt>
<wgt id='1376'> +1.2523040e-12 </wgt>
<wgt id='1377'> +1.2423065e-12 </wgt>
<wgt id='1378'> +1.2453402e-12 </wgt>
<wgt id='1379'> +1.2428238e-12 </wgt>
<wgt id='1380'> +1.2420957e-12 </wgt>
<wgt id='1381'> +1.2148869e-12 </wgt>
<wgt id='1382'> +1.2567485e-12 </wgt>
<wgt id='1383'> +1.2645888e-12 </wgt>
<wgt id='1384'> +1.2259921e-12 </wgt>
<wgt id='1385'> +1.2374273e-12 </wgt>
<wgt id='1386'> +1.2539976e-12 </wgt>
<wgt id='1387'> +1.2444393e-12 </wgt>
<wgt id='1388'> +1.2325295e-12 </wgt>
<wgt id='1389'> +1.2426471e-12 </wgt>
<wgt id='1390'> +1.2419044e-12 </wgt>
<wgt id='1391'> +1.2266340e-12 </wgt>
<wgt id='1392'> +1.1928460e-12 </wgt>
<wgt id='1393'> +1.2032155e-12 </wgt>
<wgt id='1394'> +1.2146486e-12 </wgt>
<wgt id='1395'> +1.2348445e-12 </wgt>
<wgt id='1396'> +1.2256162e-12 </wgt>
<wgt id='1397'> +1.1935064e-12 </wgt>
<wgt id='1398'> +1.2001339e-12 </wgt>
<wgt id='1399'> +1.2064632e-12 </wgt>
<wgt id='1400'> +1.2125352e-12 </wgt>
<wgt id='1401'> +1.2190691e-12 </wgt>
<wgt id='1402'> +1.2308741e-12 </wgt>
<wgt id='1403'> +1.2368318e-12 </wgt>
<wgt id='1404'> +1.2421118e-12 </wgt>
<wgt id='1405'> +1.2256162e-12 </wgt>
<wgt id='1406'> +1.2216609e-12 </wgt>
<wgt id='1407'> +1.2239003e-12 </wgt>
<wgt id='1408'> +1.2272565e-12 </wgt>
<wgt id='1409'> +1.2284333e-12 </wgt>
<wgt id='1410'> +1.2569866e-12 </wgt>
<wgt id='1411'> +1.2615205e-12 </wgt>
<wgt id='1412'> +1.2511037e-12 </wgt>
<wgt id='1413'> +1.2635039e-12 </wgt>
<wgt id='1414'> +1.2505893e-12 </wgt>
<wgt id='1415'> +1.2518542e-12 </wgt>
<wgt id='1416'> +1.2590179e-12 </wgt>
<wgt id='1417'> +1.2483336e-12 </wgt>
<wgt id='1418'> +1.2656263e-12 </wgt>
<wgt id='1419'> +1.2586137e-12 </wgt>
<wgt id='1420'> +1.2554666e-12 </wgt>
<wgt id='1421'> +1.2443910e-12 </wgt>
<wgt id='1422'> +1.2624859e-12 </wgt>
<wgt id='1423'> +1.2566548e-12 </wgt>
<wgt id='1424'> +1.2574069e-12 </wgt>
<wgt id='1425'> +1.2533484e-12 </wgt>
<wgt id='1426'> +1.2608517e-12 </wgt>
<wgt id='1427'> +1.2616608e-12 </wgt>
<wgt id='1428'> +1.2542347e-12 </wgt>
<wgt id='1429'> +1.2491677e-12 </wgt>
<wgt id='1430'> +1.2674869e-12 </wgt>
<wgt id='1431'> +1.2641605e-12 </wgt>
<wgt id='1432'> +1.2519271e-12 </wgt>
<wgt id='1433'> +1.2633609e-12 </wgt>
<wgt id='1434'> +1.2490937e-12 </wgt>
<wgt id='1435'> +1.2593350e-12 </wgt>
<wgt id='1436'> +1.2513903e-12 </wgt>
<wgt id='1437'> +1.2643100e-12 </wgt>
<wgt id='1438'> +1.2561931e-12 </wgt>
<wgt id='1439'> +1.2507934e-12 </wgt>
<wgt id='1440'> +1.2703115e-12 </wgt>
<wgt id='1441'> +1.2580259e-12 </wgt>
<wgt id='1442'> +1.2554524e-12 </wgt>
<wgt id='1443'> +1.2548152e-12 </wgt>
<wgt id='1444'> +1.2629345e-12 </wgt>
<wgt id='1445'> +1.2680619e-12 </wgt>
<wgt id='1446'> +1.2534697e-12 </wgt>
<wgt id='1447'> +1.2581380e-12 </wgt>
<wgt id='1448'> +1.2580614e-12 </wgt>
<wgt id='1449'> +1.2578698e-12 </wgt>
<wgt id='1450'> +1.2560614e-12 </wgt>
<wgt id='1451'> +1.2664225e-12 </wgt>
<wgt id='1452'> +1.2305714e-12 </wgt>
<wgt id='1453'> +1.2593980e-12 </wgt>
<wgt id='1454'> +1.2418237e-12 </wgt>
<wgt id='1455'> +1.2415244e-12 </wgt>
<wgt id='1456'> +1.2673131e-12 </wgt>
<wgt id='1457'> +1.2658427e-12 </wgt>
<wgt id='1458'> +1.2533654e-12 </wgt>
<wgt id='1459'> +1.2604786e-12 </wgt>
<wgt id='1460'> +1.2548104e-12 </wgt>
<wgt id='1461'> +1.2569866e-12 </wgt>
<wgt id='1462'> +1.2484027e-12 </wgt>
<wgt id='1463'> +1.2668365e-12 </wgt>
<wgt id='1464'> +1.2579294e-12 </wgt>
<wgt id='1465'> +1.2319451e-12 </wgt>
<wgt id='1466'> +1.2374350e-12 </wgt>
<wgt id='1467'> +1.2430849e-12 </wgt>
<wgt id='1468'> +1.2478958e-12 </wgt>
<wgt id='1469'> +1.2529598e-12 </wgt>
<wgt id='1470'> +1.2633413e-12 </wgt>
<wgt id='1471'> +1.2675461e-12 </wgt>
<wgt id='1472'> +1.2724602e-12 </wgt>
<wgt id='1473'> +1.2579294e-12 </wgt>
<wgt id='1474'> +1.2531843e-12 </wgt>
<wgt id='1475'> +1.2549794e-12 </wgt>
<wgt id='1476'> +1.2599224e-12 </wgt>
<wgt id='1477'> +1.2618456e-12 </wgt>
<wgt id='1478'> +1.2085918e-12 </wgt>
<wgt id='1479'> +1.2071121e-12 </wgt>
<wgt id='1480'> +1.2111459e-12 </wgt>
<wgt id='1481'> +1.2035223e-12 </wgt>
<wgt id='1482'> +1.2068879e-12 </wgt>
<wgt id='1483'> +1.1887294e-12 </wgt>
<wgt id='1484'> +1.2080968e-12 </wgt>
<wgt id='1485'> +1.2080306e-12 </wgt>
<wgt id='1486'> +1.2095432e-12 </wgt>
<wgt id='1487'> +1.2129234e-12 </wgt>
<wgt id='1488'> +1.2045513e-12 </wgt>
<wgt id='1489'> +1.2338165e-12 </wgt>
<wgt id='1490'> +1.2068123e-12 </wgt>
<wgt id='1491'> +1.2063104e-12 </wgt>
<wgt id='1492'> +1.2098740e-12 </wgt>
<wgt id='1493'> +1.2042352e-12 </wgt>
<wgt id='1494'> +1.2303262e-12 </wgt>
<wgt id='1495'> +1.2023390e-12 </wgt>
<wgt id='1496'> +1.2069705e-12 </wgt>
<wgt id='1497'> +1.2085157e-12 </wgt>
<wgt id='1498'> +1.2081021e-12 </wgt>
<wgt id='1499'> +1.2099871e-12 </wgt>
<wgt id='1500'> +1.2106605e-12 </wgt>
<wgt id='1501'> +1.2076159e-12 </wgt>
<wgt id='1502'> +1.2065915e-12 </wgt>
<wgt id='1503'> +1.2124518e-12 </wgt>
<wgt id='1504'> +1.2063611e-12 </wgt>
<wgt id='1505'> +1.2095392e-12 </wgt>
<wgt id='1506'> +1.2066351e-12 </wgt>
<wgt id='1507'> +1.2073450e-12 </wgt>
<wgt id='1508'> +1.2139133e-12 </wgt>
<wgt id='1509'> +1.2841779e-12 </wgt>
<wgt id='1510'> +1.2822137e-12 </wgt>
<wgt id='1511'> +1.2886368e-12 </wgt>
<wgt id='1512'> +1.2865200e-12 </wgt>
<wgt id='1513'> +1.2938195e-12 </wgt>
<wgt id='1514'> +1.2821228e-12 </wgt>
<wgt id='1515'> +1.2782887e-12 </wgt>
<wgt id='1516'> +1.2805924e-12 </wgt>
<wgt id='1517'> +1.2790772e-12 </wgt>
<wgt id='1518'> +1.2914790e-12 </wgt>
<wgt id='1519'> +1.2801883e-12 </wgt>
<wgt id='1520'> +1.2850460e-12 </wgt>
<wgt id='1521'> +1.2931765e-12 </wgt>
<wgt id='1522'> +1.2909230e-12 </wgt>
<wgt id='1523'> +1.2932241e-12 </wgt>
<wgt id='1524'> +1.2857432e-12 </wgt>
<wgt id='1525'> +1.2842536e-12 </wgt>
<wgt id='1526'> +1.2819447e-12 </wgt>
<wgt id='1527'> +1.2888561e-12 </wgt>
<wgt id='1528'> +1.2886999e-12 </wgt>
<wgt id='1529'> +1.2909302e-12 </wgt>
<wgt id='1530'> +1.2867457e-12 </wgt>
<wgt id='1531'> +1.2866197e-12 </wgt>
<wgt id='1532'> +1.2875646e-12 </wgt>
<wgt id='1533'> +1.2831312e-12 </wgt>
<wgt id='1534'> +1.2874014e-12 </wgt>
<wgt id='1535'> +1.2769452e-12 </wgt>
<wgt id='1536'> +1.2798180e-12 </wgt>
<wgt id='1537'> +1.2853440e-12 </wgt>
<wgt id='1538'> +1.2831745e-12 </wgt>
<wgt id='1539'> +1.2850760e-12 </wgt>
<wgt id='1540'> +1.2846882e-12 </wgt>
<wgt id='1541'> +1.2836918e-12 </wgt>
<wgt id='1542'> +1.2857530e-12 </wgt>
<wgt id='1543'> +1.2836280e-12 </wgt>
<wgt id='1544'> +1.2823342e-12 </wgt>
<wgt id='1545'> +1.2839012e-12 </wgt>
<wgt id='1546'> +1.2847890e-12 </wgt>
<wgt id='1547'> +1.2843176e-12 </wgt>
<wgt id='1548'> +1.2824571e-12 </wgt>
<wgt id='1549'> +1.2817485e-12 </wgt>
<wgt id='1550'> +1.2843552e-12 </wgt>
<wgt id='1551'> +1.2827480e-12 </wgt>
<wgt id='1552'> +1.2842760e-12 </wgt>
<wgt id='1553'> +1.2831882e-12 </wgt>
<wgt id='1554'> +1.2838354e-12 </wgt>
<wgt id='1555'> +1.2847399e-12 </wgt>
<wgt id='1556'> +1.2848490e-12 </wgt>
<wgt id='1557'> +1.2833929e-12 </wgt>
<wgt id='1558'> +1.2833354e-12 </wgt>
<wgt id='1559'> +1.2843063e-12 </wgt>
<wgt id='1560'> +1.2836731e-12 </wgt>
<wgt id='1561'> +1.2854930e-12 </wgt>
<wgt id='1562'> +1.2846713e-12 </wgt>
<wgt id='1563'> +1.2843546e-12 </wgt>
<wgt id='1564'> +1.2847683e-12 </wgt>
<wgt id='1565'> +1.2845386e-12 </wgt>
<wgt id='1566'> +1.2840655e-12 </wgt>
<wgt id='1567'> +1.2848440e-12 </wgt>
<wgt id='1568'> +1.2838769e-12 </wgt>
<wgt id='1569'> +1.2830563e-12 </wgt>
<wgt id='1570'> +1.2849893e-12 </wgt>
<wgt id='1571'> +1.2835204e-12 </wgt>
<wgt id='1572'> +1.2850955e-12 </wgt>
<wgt id='1573'> +1.2836871e-12 </wgt>
<wgt id='1574'> +1.2843832e-12 </wgt>
<wgt id='1575'> +1.2842570e-12 </wgt>
<wgt id='1576'> +1.2844730e-12 </wgt>
<wgt id='1577'> +1.2836250e-12 </wgt>
<wgt id='1578'> +1.2836997e-12 </wgt>
<wgt id='1579'> +1.2848639e-12 </wgt>
<wgt id='1580'> +1.2838573e-12 </wgt>
<wgt id='1581'> +1.2839979e-12 </wgt>
<wgt id='1582'> +1.2841630e-12 </wgt>
<wgt id='1583'> +1.2844294e-12 </wgt>
<wgt id='1584'> +1.2839739e-12 </wgt>
<wgt id='1585'> +1.2839804e-12 </wgt>
<wgt id='1586'> +1.2840144e-12 </wgt>
<wgt id='1587'> +1.2843134e-12 </wgt>
<wgt id='1588'> +1.2839416e-12 </wgt>
<wgt id='1589'> +1.2842393e-12 </wgt>
<wgt id='1590'> +1.2843408e-12 </wgt>
<wgt id='1591'> +1.2842344e-12 </wgt>
<wgt id='1592'> +1.2845470e-12 </wgt>
<wgt id='1593'> +1.2845351e-12 </wgt>
<wgt id='1594'> +1.2840307e-12 </wgt>
<wgt id='1595'> +1.2836772e-12 </wgt>
<wgt id='1596'> +1.2836113e-12 </wgt>
<wgt id='1597'> +1.2840611e-12 </wgt>
<wgt id='1598'> +1.2838795e-12 </wgt>
<wgt id='1599'> +1.2838304e-12 </wgt>
<wgt id='1600'> +1.2836294e-12 </wgt>
<wgt id='1601'> +1.2838883e-12 </wgt>
<wgt id='1602'> +1.2844020e-12 </wgt>
<wgt id='1603'> +1.2842428e-12 </wgt>
<wgt id='1604'> +1.2838381e-12 </wgt>
<wgt id='1605'> +1.2839504e-12 </wgt>
<wgt id='1606'> +1.2839378e-12 </wgt>
<wgt id='1607'> +1.2841403e-12 </wgt>
<wgt id='1608'> +1.2839171e-12 </wgt>
<wgt id='1609'> +1.2837557e-12 </wgt>
<wgt id='1610'> +1.2635531e-12 </wgt>
<wgt id='1611'> +1.3033468e-12 </wgt>
<wgt id='1612'> +1.4909625e-12 </wgt>
<wgt id='1613'> +1.4866689e-12 </wgt>
<wgt id='1614'> +1.5054176e-12 </wgt>
<wgt id='1615'> +1.4536825e-12 </wgt>
<wgt id='1616'> +1.5547260e-12 </wgt>
<wgt id='1617'> +1.5175731e-12 </wgt>
<wgt id='1618'> +1.4451463e-12 </wgt>
<wgt id='1619'> +1.5211889e-12 </wgt>
<wgt id='1620'> +1.4666715e-12 </wgt>
<wgt id='1621'> +1.4799731e-12 </wgt>
<wgt id='1622'> +1.4716211e-12 </wgt>
<wgt id='1623'> +1.5241332e-12 </wgt>
<wgt id='1624'> +1.4681344e-12 </wgt>
<wgt id='1625'> +1.4675832e-12 </wgt>
<wgt id='1626'> +1.4804768e-12 </wgt>
<wgt id='1627'> +1.4717691e-12 </wgt>
<wgt id='1628'> +1.5021994e-12 </wgt>
<wgt id='1629'> +1.5268841e-12 </wgt>
<wgt id='1630'> +1.5105431e-12 </wgt>
<wgt id='1631'> +1.4660719e-12 </wgt>
<wgt id='1632'> +1.4641006e-12 </wgt>
<wgt id='1633'> +1.4503968e-12 </wgt>
<wgt id='1634'> +1.5360010e-12 </wgt>
<wgt id='1635'> +1.5010057e-12 </wgt>
<wgt id='1636'> +1.5116189e-12 </wgt>
<wgt id='1637'> +1.4471701e-12 </wgt>
<wgt id='1638'> +1.4899257e-12 </wgt>
<wgt id='1639'> +1.5237816e-12 </wgt>
<wgt id='1640'> +1.5159847e-12 </wgt>
<wgt id='1641'> +1.4856461e-12 </wgt>
<wgt id='1642'> +1.4752376e-12 </wgt>
<wgt id='1643'> +1.5346112e-12 </wgt>
<wgt id='1644'> +1.4120704e-12 </wgt>
<wgt id='1645'> +1.4845428e-12 </wgt>
<wgt id='1646'> +1.5165741e-12 </wgt>
<wgt id='1647'> +1.5085403e-12 </wgt>
<wgt id='1648'> +1.4894955e-12 </wgt>
<wgt id='1649'> +1.4942254e-12 </wgt>
<wgt id='1650'> +1.4791496e-12 </wgt>
<wgt id='1651'> +1.4651184e-12 </wgt>
<wgt id='1652'> +1.4993271e-12 </wgt>
<wgt id='1653'> +1.5065421e-12 </wgt>
<wgt id='1654'> +1.4807947e-12 </wgt>
<wgt id='1655'> +1.4604050e-12 </wgt>
<wgt id='1656'> +1.4326873e-12 </wgt>
<wgt id='1657'> +1.4651206e-12 </wgt>
<wgt id='1658'> +1.4580230e-12 </wgt>
<wgt id='1659'> +1.4681344e-12 </wgt>
<wgt id='1660'> +1.4715560e-12 </wgt>
<wgt id='1661'> +1.4874979e-12 </wgt>
<wgt id='1662'> +1.4836090e-12 </wgt>
<wgt id='1663'> +1.5126886e-12 </wgt>
<wgt id='1664'> +1.4753744e-12 </wgt>
<wgt id='1665'> +1.4493585e-12 </wgt>
<wgt id='1666'> +1.5157883e-12 </wgt>
<wgt id='1667'> +1.4915129e-12 </wgt>
<wgt id='1668'> +1.5479278e-12 </wgt>
<wgt id='1669'> +1.4227595e-12 </wgt>
<wgt id='1670'> +1.5028965e-12 </wgt>
<wgt id='1671'> +1.4806955e-12 </wgt>
<wgt id='1672'> +1.4811970e-12 </wgt>
<wgt id='1673'> +1.4936246e-12 </wgt>
<wgt id='1674'> +1.4665067e-12 </wgt>
<wgt id='1675'> +1.5158430e-12 </wgt>
<wgt id='1676'> +1.5120621e-12 </wgt>
<wgt id='1677'> +1.5662431e-12 </wgt>
<wgt id='1678'> +1.4813450e-12 </wgt>
<wgt id='1679'> +1.5299939e-12 </wgt>
<wgt id='1680'> +1.4915679e-12 </wgt>
<wgt id='1681'> +1.5116703e-12 </wgt>
<wgt id='1682'> +1.5028316e-12 </wgt>
<wgt id='1683'> +1.4782091e-12 </wgt>
<wgt id='1684'> +1.4891857e-12 </wgt>
<wgt id='1685'> +1.4638818e-12 </wgt>
<wgt id='1686'> +1.4919842e-12 </wgt>
<wgt id='1687'> +1.5435089e-12 </wgt>
<wgt id='1688'> +1.4954149e-12 </wgt>
<wgt id='1689'> +1.4692092e-12 </wgt>
<wgt id='1690'> +1.4828793e-12 </wgt>
<wgt id='1691'> +1.5183821e-12 </wgt>
<wgt id='1692'> +1.5273201e-12 </wgt>
<wgt id='1693'> +1.5372287e-12 </wgt>
<wgt id='1694'> +1.4182831e-12 </wgt>
<wgt id='1695'> +1.5106128e-12 </wgt>
<wgt id='1696'> +1.5375873e-12 </wgt>
<wgt id='1697'> +1.4951134e-12 </wgt>
<wgt id='1698'> +1.4723954e-12 </wgt>
<wgt id='1699'> +1.4916991e-12 </wgt>
<wgt id='1700'> +1.4734576e-12 </wgt>
<wgt id='1701'> +1.5130294e-12 </wgt>
<wgt id='1702'> +1.4949083e-12 </wgt>
<wgt id='1703'> +1.5083323e-12 </wgt>
<wgt id='1704'> +1.4728053e-12 </wgt>
<wgt id='1705'> +1.4758631e-12 </wgt>
<wgt id='1706'> +1.4801284e-12 </wgt>
<wgt id='1707'> +1.5180049e-12 </wgt>
<wgt id='1708'> +1.4713175e-12 </wgt>
<wgt id='1709'> +1.4792525e-12 </wgt>
<wgt id='1710'> +1.4832494e-12 </wgt>
<wgt id='1711'> +1.5610006e-12 </wgt>
<wgt id='1712'> +1.4744991e-12 </wgt>
<wgt id='1713'> +1.2002403e-12 </wgt>
<wgt id='1714'> +1.1715563e-12 </wgt>
<wgt id='1715'> +1.2054108e-12 </wgt>
<wgt id='1716'> +1.2116888e-12 </wgt>
<wgt id='1717'> +1.2097946e-12 </wgt>
<wgt id='1718'> +1.1904946e-12 </wgt>
<wgt id='1719'> +1.2242689e-12 </wgt>
<wgt id='1720'> +1.2048449e-12 </wgt>
<wgt id='1721'> +1.1822073e-12 </wgt>
<wgt id='1722'> +1.1857324e-12 </wgt>
<wgt id='1723'> +1.1483278e-12 </wgt>
<wgt id='1724'> +1.0567354e-12 </wgt>
<wgt id='1725'> +1.2445264e-12 </wgt>
<wgt id='1726'> +1.2643380e-12 </wgt>
<wgt id='1727'> +1.1578520e-12 </wgt>
<wgt id='1728'> +1.1898756e-12 </wgt>
<wgt id='1729'> +1.1917669e-12 </wgt>
<wgt id='1730'> +1.1773854e-12 </wgt>
<wgt id='1731'> +1.1683865e-12 </wgt>
<wgt id='1732'> +1.2269183e-12 </wgt>
<wgt id='1733'> +1.2128806e-12 </wgt>
<wgt id='1734'> +1.2282297e-12 </wgt>
<wgt id='1735'> +1.1420438e-12 </wgt>
<wgt id='1736'> +1.2780859e-12 </wgt>
<wgt id='1737'> +1.2355543e-12 </wgt>
<wgt id='1738'> +1.2124871e-12 </wgt>
<wgt id='1739'> +1.2109916e-12 </wgt>
<wgt id='1740'> +1.1759024e-12 </wgt>
<wgt id='1741'> +1.2082519e-12 </wgt>
<wgt id='1742'> +1.1873814e-12 </wgt>
<wgt id='1743'> +1.2243387e-12 </wgt>
<wgt id='1744'> +1.2431542e-12 </wgt>
<wgt id='1745'> +1.1069135e-12 </wgt>
<wgt id='1746'> +1.2402660e-12 </wgt>
<wgt id='1747'> +1.2355178e-12 </wgt>
<wgt id='1748'> +1.2001034e-12 </wgt>
<wgt id='1749'> +1.2432756e-12 </wgt>
<wgt id='1750'> +1.2079765e-12 </wgt>
<wgt id='1751'> +1.1335222e-12 </wgt>
<wgt id='1752'> +1.1800825e-12 </wgt>
<wgt id='1753'> +1.2197098e-12 </wgt>
<wgt id='1754'> +1.2210462e-12 </wgt>
<wgt id='1755'> +1.2160922e-12 </wgt>
<wgt id='1756'> +1.2057426e-12 </wgt>
<wgt id='1757'> +1.1841923e-12 </wgt>
<wgt id='1758'> +1.2251600e-12 </wgt>
<wgt id='1759'> +1.2202789e-12 </wgt>
<wgt id='1760'> +1.1793262e-12 </wgt>
<wgt id='1761'> +1.1900257e-12 </wgt>
<wgt id='1762'> +1.2327453e-12 </wgt>
<wgt id='1763'> +1.2225048e-12 </wgt>
<wgt id='1764'> +1.2096377e-12 </wgt>
<wgt id='1765'> +1.1930698e-12 </wgt>
<wgt id='1766'> +1.2289589e-12 </wgt>
<wgt id='1767'> +1.2028216e-12 </wgt>
<wgt id='1768'> +1.2067909e-12 </wgt>
<wgt id='1769'> +1.1666741e-12 </wgt>
<wgt id='1770'> +1.2690349e-12 </wgt>
<wgt id='1771'> +1.2007859e-12 </wgt>
<wgt id='1772'> +1.2323509e-12 </wgt>
<wgt id='1773'> +1.2000234e-12 </wgt>
<wgt id='1774'> +1.2305102e-12 </wgt>
<wgt id='1775'> +1.1991457e-12 </wgt>
<wgt id='1776'> +1.2561139e-12 </wgt>
<wgt id='1777'> +1.1312016e-12 </wgt>
<wgt id='1778'> +1.1982832e-12 </wgt>
<wgt id='1779'> +1.2169218e-12 </wgt>
<wgt id='1780'> +1.1833595e-12 </wgt>
<wgt id='1781'> +1.2078258e-12 </wgt>
<wgt id='1782'> +1.1606809e-12 </wgt>
<wgt id='1783'> +1.1986261e-12 </wgt>
<wgt id='1784'> +1.2195081e-12 </wgt>
<wgt id='1785'> +1.1637418e-12 </wgt>
<wgt id='1786'> +1.0901354e-12 </wgt>
<wgt id='1787'> +1.2344460e-12 </wgt>
<wgt id='1788'> +1.1922493e-12 </wgt>
<wgt id='1789'> +1.1067692e-12 </wgt>
<wgt id='1790'> +1.1819026e-12 </wgt>
<wgt id='1791'> +1.2212227e-12 </wgt>
<wgt id='1792'> +1.1695568e-12 </wgt>
<wgt id='1793'> +1.2052057e-12 </wgt>
<wgt id='1794'> +1.2047584e-12 </wgt>
<wgt id='1795'> +1.2256942e-12 </wgt>
<wgt id='1796'> +1.1932171e-12 </wgt>
<wgt id='1797'> +1.2119023e-12 </wgt>
<wgt id='1798'> +1.1764634e-12 </wgt>
<wgt id='1799'> +1.1880118e-12 </wgt>
<wgt id='1800'> +1.1986626e-12 </wgt>
<wgt id='1801'> +1.2017022e-12 </wgt>
<wgt id='1802'> +1.1934939e-12 </wgt>
<wgt id='1803'> +1.2101477e-12 </wgt>
<wgt id='1804'> +1.1935439e-12 </wgt>
<wgt id='1805'> +1.2021004e-12 </wgt>
<wgt id='1806'> +1.1875361e-12 </wgt>
<wgt id='1807'> +1.2098546e-12 </wgt>
<wgt id='1808'> +1.1940653e-12 </wgt>
<wgt id='1809'> +1.2014019e-12 </wgt>
<wgt id='1810'> +1.2180736e-12 </wgt>
<wgt id='1811'> +1.2693646e-12 </wgt>
<wgt id='1812'> +1.2466271e-12 </wgt>
<wgt id='1813'> +1.1974723e-12 </wgt>
<wgt id='1814'> +1.2244299e-12 </wgt>
<wgt id='1815'> +1.3839157e-12 </wgt>
<wgt id='1816'> +1.2002403e-12 </wgt>
<wgt id='1817'> +1.1715563e-12 </wgt>
<wgt id='1818'> +1.2054108e-12 </wgt>
<wgt id='1819'> +1.2116888e-12 </wgt>
<wgt id='1820'> +1.2097946e-12 </wgt>
<wgt id='1821'> +1.1904946e-12 </wgt>
<wgt id='1822'> +1.2242689e-12 </wgt>
<wgt id='1823'> +1.2048449e-12 </wgt>
<wgt id='1824'> +1.1822073e-12 </wgt>
<wgt id='1825'> +1.1857324e-12 </wgt>
<wgt id='1826'> +1.1483278e-12 </wgt>
<wgt id='1827'> +1.0567354e-12 </wgt>
<wgt id='1828'> +1.2445264e-12 </wgt>
<wgt id='1829'> +1.2643380e-12 </wgt>
<wgt id='1830'> +1.1578520e-12 </wgt>
<wgt id='1831'> +1.1898756e-12 </wgt>
<wgt id='1832'> +1.1917669e-12 </wgt>
<wgt id='1833'> +1.1773854e-12 </wgt>
<wgt id='1834'> +1.1683865e-12 </wgt>
<wgt id='1835'> +1.2269183e-12 </wgt>
<wgt id='1836'> +1.2128806e-12 </wgt>
<wgt id='1837'> +1.2282297e-12 </wgt>
<wgt id='1838'> +1.1420438e-12 </wgt>
<wgt id='1839'> +1.2780859e-12 </wgt>
<wgt id='1840'> +1.2355543e-12 </wgt>
<wgt id='1841'> +1.2124871e-12 </wgt>
<wgt id='1842'> +1.2109916e-12 </wgt>
<wgt id='1843'> +1.1759024e-12 </wgt>
<wgt id='1844'> +1.2082519e-12 </wgt>
<wgt id='1845'> +1.1873814e-12 </wgt>
<wgt id='1846'> +1.2243387e-12 </wgt>
<wgt id='1847'> +1.2431542e-12 </wgt>
<wgt id='1848'> +1.1069135e-12 </wgt>
<wgt id='1849'> +1.2402660e-12 </wgt>
<wgt id='1850'> +1.2355178e-12 </wgt>
<wgt id='1851'> +1.2001034e-12 </wgt>
<wgt id='1852'> +1.2432756e-12 </wgt>
<wgt id='1853'> +1.2079765e-12 </wgt>
<wgt id='1854'> +1.1335222e-12 </wgt>
<wgt id='1855'> +1.1800825e-12 </wgt>
<wgt id='1856'> +1.2197098e-12 </wgt>
<wgt id='1857'> +1.2210462e-12 </wgt>
<wgt id='1858'> +1.2160922e-12 </wgt>
<wgt id='1859'> +1.2057426e-12 </wgt>
<wgt id='1860'> +1.1841923e-12 </wgt>
<wgt id='1861'> +1.2251600e-12 </wgt>
<wgt id='1862'> +1.2202789e-12 </wgt>
<wgt id='1863'> +1.1793262e-12 </wgt>
<wgt id='1864'> +1.1900257e-12 </wgt>
<wgt id='1865'> +1.2327453e-12 </wgt>
<wgt id='1866'> +1.2225048e-12 </wgt>
<wgt id='1867'> +1.2096377e-12 </wgt>
<wgt id='1868'> +1.1930698e-12 </wgt>
<wgt id='1869'> +1.2289589e-12 </wgt>
<wgt id='1870'> +1.2028216e-12 </wgt>
<wgt id='1871'> +1.2067909e-12 </wgt>
<wgt id='1872'> +1.1666741e-12 </wgt>
<wgt id='1873'> +1.2690349e-12 </wgt>
<wgt id='1874'> +1.2007859e-12 </wgt>
<wgt id='1875'> +1.2323509e-12 </wgt>
<wgt id='1876'> +1.2000234e-12 </wgt>
<wgt id='1877'> +1.2305102e-12 </wgt>
<wgt id='1878'> +1.1991457e-12 </wgt>
<wgt id='1879'> +1.2561139e-12 </wgt>
<wgt id='1880'> +1.1312016e-12 </wgt>
<wgt id='1881'> +1.1982832e-12 </wgt>
<wgt id='1882'> +1.2169218e-12 </wgt>
<wgt id='1883'> +1.1833595e-12 </wgt>
<wgt id='1884'> +1.2078258e-12 </wgt>
<wgt id='1885'> +1.1606809e-12 </wgt>
<wgt id='1886'> +1.1986261e-12 </wgt>
<wgt id='1887'> +1.2195081e-12 </wgt>
<wgt id='1888'> +1.1637418e-12 </wgt>
<wgt id='1889'> +1.0901354e-12 </wgt>
<wgt id='1890'> +1.2344460e-12 </wgt>
<wgt id='1891'> +1.1922493e-12 </wgt>
<wgt id='1892'> +1.1067692e-12 </wgt>
<wgt id='1893'> +1.1819026e-12 </wgt>
<wgt id='1894'> +1.2212227e-12 </wgt>
<wgt id='1895'> +1.1695568e-12 </wgt>
<wgt id='1896'> +1.2052057e-12 </wgt>
<wgt id='1897'> +1.2047584e-12 </wgt>
<wgt id='1898'> +1.2256942e-12 </wgt>
<wgt id='1899'> +1.1932171e-12 </wgt>
<wgt id='1900'> +1.2119023e-12 </wgt>
<wgt id='1901'> +1.1764634e-12 </wgt>
<wgt id='1902'> +1.1880118e-12 </wgt>
<wgt id='1903'> +1.1986626e-12 </wgt>
<wgt id='1904'> +1.2017022e-12 </wgt>
<wgt id='1905'> +1.1934939e-12 </wgt>
<wgt id='1906'> +1.2101477e-12 </wgt>
<wgt id='1907'> +1.1935439e-12 </wgt>
<wgt id='1908'> +1.2021004e-12 </wgt>
<wgt id='1909'> +1.1875361e-12 </wgt>
<wgt id='1910'> +1.2098546e-12 </wgt>
<wgt id='1911'> +1.1940653e-12 </wgt>
<wgt id='1912'> +1.2014019e-12 </wgt>
<wgt id='1913'> +1.2180736e-12 </wgt>
<wgt id='1914'> +1.2693646e-12 </wgt>
<wgt id='1915'> +1.2466271e-12 </wgt>
<wgt id='1916'> +1.1974723e-12 </wgt>
<wgt id='1917'> +1.1922652e-12 </wgt>
<wgt id='1918'> +1.2087737e-12 </wgt>
<wgt id='1919'> +1.2540917e-12 </wgt>
</rwgt>
</event>
<event>
 9      1 +1.5607000e-12 2.51239700e+01 7.81860800e-03 1.50501600e-01
       -2 -1    0    0    0  501 -0.0000000000e+00 +0.0000000000e+00 +8.8137677871e+01 8.8137677871e+01 0.0000000000e+00 0.0000e+00 1.0000e+00
        2 -1    0    0  502    0 +0.0000000000e+00 -0.0000000000e+00 -5.8587776619e+00 5.8587776619e+00 0.0000000000e+00 0.0000e+00 -1.0000e+00
     1023  2    1    2    0    0 +1.5947776983e+01 +1.2323580872e+01 +4.9652262975e+01 5.5646752881e+01 1.5000388380e+01 0.0000e+00 0.0000e+00
  1000023  2    3    3    0    0 +9.1715668103e+00 +3.5839739301e+00 +1.3956612111e+01 1.7944269616e+01 5.4997530446e+00 0.0000e+00 0.0000e+00
       21  1    1    2  502  501 -1.5947776983e+01 -1.2323580872e+01 +3.2626637235e+01 3.8349702651e+01 0.0000000000e+00 0.0000e+00 1.0000e+00
  1000022  1    4    4    0    0 +8.5998738811e+00 +3.0457757505e+00 +1.3430542762e+01 1.6988645019e+01 5.0000000000e+00 0.0000e+00 -1.0000e+00
      -11  1    4    4    0    0 +3.5807858534e-01 +2.6435637698e-01 +3.5011609550e-01 5.6629154044e-01 5.1100000000e-04 0.0000e+00 -1.0000e+00
       11  1    4    4    0    0 +2.1361434384e-01 +2.7384180257e-01 +1.7595325391e-01 3.8933305718e-01 5.1100000000e-04 0.0000e+00 1.0000e+00
  1000022  1    3    3    0    0 +6.7762101731e+00 +8.7396069416e+00 +3.5695650863e+01 3.7702483265e+01 5.0000000000e+00 0.0000e+00 1.0000e+00
<mgrwt>
<rscale>  1 0.25123970E+02</rscale>
<asrwt>0</asrwt>
<pdfrwt beam="1">  1        2 0.90135047E-03 0.25123970E+02</pdfrwt>
<pdfrwt beam="2">  1       -2 0.13559642E-01 0.25123970E+02</pdfrwt>
<totfact> 0.54234107E+05</totfact>
</mgrwt>
<rwgt>
<wgt id='1001'> +1.5607000e-12 </wgt>
<wgt id='1002'> +1.6239344e-12 </wgt>
<wgt id='1003'> +1.6284577e-12 </wgt>
<wgt id='1004'> +1.5393615e-12 </wgt>
<wgt id='1005'> +1.6329606e-12 </wgt>
<wgt id='1006'> +1.3587232e-12 </wgt>
<wgt id='1007'> +1.4330394e-12 </wgt>
<wgt id='1008'> +1.4385087e-12 </wgt>
<wgt id='1009'> +1.3342194e-12 </wgt>
<wgt id='1010'> +1.4439731e-12 </wgt>
<wgt id='1011'> +1.8368442e-12 </wgt>
<wgt id='1012'> +1.8762227e-12 </wgt>
<wgt id='1013'> +1.8788402e-12 </wgt>
<wgt id='1014'> +1.8230466e-12 </wgt>
<wgt id='1015'> +1.8814160e-12 </wgt>
<wgt id='1016'> +1.8870075e-12 </wgt>
<wgt id='1017'> +1.9079656e-12 </wgt>
<wgt id='1018'> +1.9092658e-12 </wgt>
<wgt id='1019'> +1.8788402e-12 </wgt>
<wgt id='1020'> +1.9105133e-12 </wgt>
<wgt id='1021'> +1.6428019e-12 </wgt>
<wgt id='1022'> +1.6836824e-12 </wgt>
<wgt id='1023'> +1.6865625e-12 </wgt>
<wgt id='1024'> +1.6284577e-12 </wgt>
<wgt id='1025'> +1.6894038e-12 </wgt>
<wgt id='1026'> +2.2208873e-12 </wgt>
<wgt id='1027'> +2.2043799e-12 </wgt>
<wgt id='1028'> +2.2028239e-12 </wgt>
<wgt id='1029'> +2.2250870e-12 </wgt>
<wgt id='1030'> +2.2011985e-12 </wgt>
<wgt id='1031'> +1.2229458e-12 </wgt>
<wgt id='1032'> +1.3265026e-12 </wgt>
<wgt id='1033'> +1.3342194e-12 </wgt>
<wgt id='1034'> +1.1885307e-12 </wgt>
<wgt id='1035'> +1.3419051e-12 </wgt>
<wgt id='1036'> +1.0646792e-12 </wgt>
<wgt id='1037'> +1.1705710e-12 </wgt>
<wgt id='1038'> +1.1785914e-12 </wgt>
<wgt id='1039'> +1.0301418e-12 </wgt>
<wgt id='1040'> +1.1866023e-12 </wgt>
<wgt id='1041'> +1.4393291e-12 </wgt>
<wgt id='1042'> +1.5325830e-12 </wgt>
<wgt id='1043'> +1.5393615e-12 </wgt>
<wgt id='1044'> +1.4075620e-12 </wgt>
<wgt id='1045'> +1.5460763e-12 </wgt>
<wgt id='1046'> +1.5607000e-12 </wgt>
<wgt id='1047'> +1.7349467e-12 </wgt>
<wgt id='1048'> +1.5684560e-12 </wgt>
<wgt id='1049'> +1.5729440e-12 </wgt>
<wgt id='1050'> +1.5465874e-12 </wgt>
<wgt id='1051'> +1.4899937e-12 </wgt>
<wgt id='1052'> +1.6488182e-12 </wgt>
<wgt id='1053'> +1.5605119e-12 </wgt>
<wgt id='1054'> +1.5031773e-12 </wgt>
<wgt id='1055'> +1.4861278e-12 </wgt>
<wgt id='1056'> +1.5174316e-12 </wgt>
<wgt id='1057'> +1.5793559e-12 </wgt>
<wgt id='1058'> +1.4941668e-12 </wgt>
<wgt id='1059'> +1.5422234e-12 </wgt>
<wgt id='1060'> +1.5879305e-12 </wgt>
<wgt id='1061'> +1.5540547e-12 </wgt>
<wgt id='1062'> +1.5531175e-12 </wgt>
<wgt id='1063'> +1.5935598e-12 </wgt>
<wgt id='1064'> +1.4909028e-12 </wgt>
<wgt id='1065'> +1.5664001e-12 </wgt>
<wgt id='1066'> +1.4575043e-12 </wgt>
<wgt id='1067'> +1.5223270e-12 </wgt>
<wgt id='1068'> +1.5966929e-12 </wgt>
<wgt id='1069'> +1.5672604e-12 </wgt>
<wgt id='1070'> +1.4794173e-12 </wgt>
<wgt id='1071'> +1.5272948e-12 </wgt>
<wgt id='1072'> +1.6300785e-12 </wgt>
<wgt id='1073'> +1.6644773e-12 </wgt>
<wgt id='1074'> +1.5360075e-12 </wgt>
<wgt id='1075'> +1.5736704e-12 </wgt>
<wgt id='1076'> +1.6251292e-12 </wgt>
<wgt id='1077'> +1.6450764e-12 </wgt>
<wgt id='1078'> +1.5536520e-12 </wgt>
<wgt id='1079'> +1.6043047e-12 </wgt>
<wgt id='1080'> +1.4884088e-12 </wgt>
<wgt id='1081'> +1.5649281e-12 </wgt>
<wgt id='1082'> +1.5775110e-12 </wgt>
<wgt id='1083'> +1.5151465e-12 </wgt>
<wgt id='1084'> +1.5428777e-12 </wgt>
<wgt id='1085'> +1.5477785e-12 </wgt>
<wgt id='1086'> +1.6208210e-12 </wgt>
<wgt id='1087'> +1.5816277e-12 </wgt>
<wgt id='1088'> +1.6029029e-12 </wgt>
<wgt id='1089'> +1.6026120e-12 </wgt>
<wgt id='1090'> +1.6104054e-12 </wgt>
<wgt id='1091'> +1.5533130e-12 </wgt>
<wgt id='1092'> +1.6145901e-12 </wgt>
<wgt id='1093'> +1.6071015e-12 </wgt>
<wgt id='1094'> +1.5745022e-12 </wgt>
<wgt id='1095'> +1.6150881e-12 </wgt>
<wgt id='1096'> +1.5380045e-12 </wgt>
<wgt id='1097'> +1.5122246e-12 </wgt>
<wgt id='1098'> +1.5174066e-12 </wgt>
<wgt id='1099'> +1.5831294e-12 </wgt>
<wgt id='1100'> +1.5746624e-12 </wgt>
<wgt id='1101'> +1.6136903e-12 </wgt>
<wgt id='1102'> +1.5479672e-12 </wgt>
<wgt id='1103'> +1.5757318e-12 </wgt>
<wgt id='1104'> +1.5327718e-12 </wgt>
<wgt id='1105'> +1.5810521e-12 </wgt>
<wgt id='1106'> +1.5976599e-12 </wgt>
<wgt id='1107'> +1.6134433e-12 </wgt>
<wgt id='1108'> +1.5235036e-12 </wgt>
<wgt id='1109'> +1.5667179e-12 </wgt>
<wgt id='1110'> +1.5154185e-12 </wgt>
<wgt id='1111'> +1.5857555e-12 </wgt>
<wgt id='1112'> +1.6129279e-12 </wgt>
<wgt id='1113'> +1.5763170e-12 </wgt>
<wgt id='1114'> +1.6075032e-12 </wgt>
<wgt id='1115'> +1.5841803e-12 </wgt>
<wgt id='1116'> +1.5373740e-12 </wgt>
<wgt id='1117'> +1.5173255e-12 </wgt>
<wgt id='1118'> +1.5253282e-12 </wgt>
<wgt id='1119'> +1.4583572e-12 </wgt>
<wgt id='1120'> +1.4981669e-12 </wgt>
<wgt id='1121'> +1.5169521e-12 </wgt>
<wgt id='1122'> +1.6615425e-12 </wgt>
<wgt id='1123'> +1.5095822e-12 </wgt>
<wgt id='1124'> +1.5612262e-12 </wgt>
<wgt id='1125'> +1.5552308e-12 </wgt>
<wgt id='1126'> +1.5914499e-12 </wgt>
<wgt id='1127'> +1.5659490e-12 </wgt>
<wgt id='1128'> +1.5531175e-12 </wgt>
<wgt id='1129'> +1.5945282e-12 </wgt>
<wgt id='1130'> +1.5225030e-12 </wgt>
<wgt id='1131'> +1.5522221e-12 </wgt>
<wgt id='1132'> +1.6180847e-12 </wgt>
<wgt id='1133'> +1.4639355e-12 </wgt>
<wgt id='1134'> +1.6278910e-12 </wgt>
<wgt id='1135'> +1.4737833e-12 </wgt>
<wgt id='1136'> +1.5254252e-12 </wgt>
<wgt id='1137'> +1.5356023e-12 </wgt>
<wgt id='1138'> +1.4857616e-12 </wgt>
<wgt id='1139'> +1.5218104e-12 </wgt>
<wgt id='1140'> +1.5341256e-12 </wgt>
<wgt id='1141'> +1.5360976e-12 </wgt>
<wgt id='1142'> +1.5855896e-12 </wgt>
<wgt id='1143'> +1.6241814e-12 </wgt>
<wgt id='1144'> +1.5745150e-12 </wgt>
<wgt id='1145'> +1.5818701e-12 </wgt>
<wgt id='1146'> +1.5269955e-12 </wgt>
<wgt id='1147'> +1.0912103e-12 </wgt>
<wgt id='1148'> +1.1233345e-12 </wgt>
<wgt id='1149'> +1.2587977e-12 </wgt>
<wgt id='1150'> +1.1522990e-12 </wgt>
<wgt id='1151'> +1.0509283e-12 </wgt>
<wgt id='1152'> +1.3670511e-12 </wgt>
<wgt id='1153'> +1.3573942e-12 </wgt>
<wgt id='1154'> +1.3726135e-12 </wgt>
<wgt id='1155'> +1.3645273e-12 </wgt>
<wgt id='1156'> +1.3683049e-12 </wgt>
<wgt id='1157'> +1.3765926e-12 </wgt>
<wgt id='1158'> +1.3542088e-12 </wgt>
<wgt id='1159'> +1.3751116e-12 </wgt>
<wgt id='1160'> +1.3619229e-12 </wgt>
<wgt id='1161'> +1.3681274e-12 </wgt>
<wgt id='1162'> +1.3662766e-12 </wgt>
<wgt id='1163'> +1.3707889e-12 </wgt>
<wgt id='1164'> +1.3633005e-12 </wgt>
<wgt id='1165'> +1.3603712e-12 </wgt>
<wgt id='1166'> +1.3736502e-12 </wgt>
<wgt id='1167'> +1.3715192e-12 </wgt>
<wgt id='1168'> +1.3611037e-12 </wgt>
<wgt id='1169'> +1.3674130e-12 </wgt>
<wgt id='1170'> +1.3667681e-12 </wgt>
<wgt id='1171'> +1.3614228e-12 </wgt>
<wgt id='1172'> +1.3735510e-12 </wgt>
<wgt id='1173'> +1.3571384e-12 </wgt>
<wgt id='1174'> +1.3757055e-12 </wgt>
<wgt id='1175'> +1.3682946e-12 </wgt>
<wgt id='1176'> +1.3653891e-12 </wgt>
<wgt id='1177'> +1.3691170e-12 </wgt>
<wgt id='1178'> +1.3612415e-12 </wgt>
<wgt id='1179'> +1.3695720e-12 </wgt>
<wgt id='1180'> +1.3588505e-12 </wgt>
<wgt id='1181'> +1.3618716e-12 </wgt>
<wgt id='1182'> +1.3723321e-12 </wgt>
<wgt id='1183'> +1.3661983e-12 </wgt>
<wgt id='1184'> +1.3670717e-12 </wgt>
<wgt id='1185'> +1.3531721e-12 </wgt>
<wgt id='1186'> +1.3748634e-12 </wgt>
<wgt id='1187'> +1.3659715e-12 </wgt>
<wgt id='1188'> +1.3674345e-12 </wgt>
<wgt id='1189'> +1.3630189e-12 </wgt>
<wgt id='1190'> +1.3531784e-12 </wgt>
<wgt id='1191'> +1.3680306e-12 </wgt>
<wgt id='1192'> +1.3692585e-12 </wgt>
<wgt id='1193'> +1.1781857e-12 </wgt>
<wgt id='1194'> +1.1723629e-12 </wgt>
<wgt id='1195'> +1.1829409e-12 </wgt>
<wgt id='1196'> +1.1885282e-12 </wgt>
<wgt id='1197'> +1.1667713e-12 </wgt>
<wgt id='1198'> +1.1758521e-12 </wgt>
<wgt id='1199'> +1.1817337e-12 </wgt>
<wgt id='1200'> +1.1797297e-12 </wgt>
<wgt id='1201'> +1.1772247e-12 </wgt>
<wgt id='1202'> +1.1780609e-12 </wgt>
<wgt id='1203'> +1.1784766e-12 </wgt>
<wgt id='1204'> +1.1765998e-12 </wgt>
<wgt id='1205'> +1.1792190e-12 </wgt>
<wgt id='1206'> +1.1809745e-12 </wgt>
<wgt id='1207'> +1.1744453e-12 </wgt>
<wgt id='1208'> +1.1702744e-12 </wgt>
<wgt id='1209'> +1.1811330e-12 </wgt>
<wgt id='1210'> +1.1771254e-12 </wgt>
<wgt id='1211'> +1.1713866e-12 </wgt>
<wgt id='1212'> +1.1814393e-12 </wgt>
<wgt id='1213'> +1.1751582e-12 </wgt>
<wgt id='1214'> +1.1590879e-12 </wgt>
<wgt id='1215'> +1.2093262e-12 </wgt>
<wgt id='1216'> +1.1808364e-12 </wgt>
<wgt id='1217'> +1.1754276e-12 </wgt>
<wgt id='1218'> +1.1802943e-12 </wgt>
<wgt id='1219'> +1.1769523e-12 </wgt>
<wgt id='1220'> +1.1843162e-12 </wgt>
<wgt id='1221'> +1.1765072e-12 </wgt>
<wgt id='1222'> +1.1821141e-12 </wgt>
<wgt id='1223'> +1.1687764e-12 </wgt>
<wgt id='1224'> +1.1796415e-12 </wgt>
<wgt id='1225'> +1.1776408e-12 </wgt>
<wgt id='1226'> +1.1710484e-12 </wgt>
<wgt id='1227'> +1.1829845e-12 </wgt>
<wgt id='1228'> +1.1823630e-12 </wgt>
<wgt id='1229'> +1.1750134e-12 </wgt>
<wgt id='1230'> +1.1768943e-12 </wgt>
<wgt id='1231'> +1.1756110e-12 </wgt>
<wgt id='1232'> +1.1827583e-12 </wgt>
<wgt id='1233'> +1.1769537e-12 </wgt>
<wgt id='1234'> +1.1781857e-12 </wgt>
<wgt id='1235'> +1.1689660e-12 </wgt>
<wgt id='1236'> +1.1725129e-12 </wgt>
<wgt id='1237'> +1.1756006e-12 </wgt>
<wgt id='1238'> +1.1809288e-12 </wgt>
<wgt id='1239'> +1.1830914e-12 </wgt>
<wgt id='1240'> +1.1850629e-12 </wgt>
<wgt id='1241'> +1.2332957e-12 </wgt>
<wgt id='1242'> +1.2245651e-12 </wgt>
<wgt id='1243'> +1.2420516e-12 </wgt>
<wgt id='1244'> +1.2255538e-12 </wgt>
<wgt id='1245'> +1.2390330e-12 </wgt>
<wgt id='1246'> +1.2319366e-12 </wgt>
<wgt id='1247'> +1.2345267e-12 </wgt>
<wgt id='1248'> +1.2332678e-12 </wgt>
<wgt id='1249'> +1.2333953e-12 </wgt>
<wgt id='1250'> +1.2409890e-12 </wgt>
<wgt id='1251'> +1.2279318e-12 </wgt>
<wgt id='1252'> +1.2309957e-12 </wgt>
<wgt id='1253'> +1.2351819e-12 </wgt>
<wgt id='1254'> +1.2329725e-12 </wgt>
<wgt id='1255'> +1.2334672e-12 </wgt>
<wgt id='1256'> +1.2366067e-12 </wgt>
<wgt id='1257'> +1.2253423e-12 </wgt>
<wgt id='1258'> +1.2570819e-12 </wgt>
<wgt id='1259'> +1.2118352e-12 </wgt>
<wgt id='1260'> +1.2358974e-12 </wgt>
<wgt id='1261'> +1.2305503e-12 </wgt>
<wgt id='1262'> +1.2297176e-12 </wgt>
<wgt id='1263'> +1.2344028e-12 </wgt>
<wgt id='1264'> +1.2330609e-12 </wgt>
<wgt id='1265'> +1.2333997e-12 </wgt>
<wgt id='1266'> +1.2261101e-12 </wgt>
<wgt id='1267'> +1.2388974e-12 </wgt>
<wgt id='1268'> +1.2348352e-12 </wgt>
<wgt id='1269'> +1.2347160e-12 </wgt>
<wgt id='1270'> +1.2299290e-12 </wgt>
<wgt id='1271'> +1.2287837e-12 </wgt>
<wgt id='1272'> +1.2316915e-12 </wgt>
<wgt id='1273'> +1.2334913e-12 </wgt>
<wgt id='1274'> +1.2374652e-12 </wgt>
<wgt id='1275'> +1.2260694e-12 </wgt>
<wgt id='1276'> +1.2287232e-12 </wgt>
<wgt id='1277'> +1.2366939e-12 </wgt>
<wgt id='1278'> +1.2328096e-12 </wgt>
<wgt id='1279'> +1.2350500e-12 </wgt>
<wgt id='1280'> +1.2317479e-12 </wgt>
<wgt id='1281'> +1.2424867e-12 </wgt>
<wgt id='1282'> +1.2332957e-12 </wgt>
<wgt id='1283'> +1.2224689e-12 </wgt>
<wgt id='1284'> +1.2266686e-12 </wgt>
<wgt id='1285'> +1.2302948e-12 </wgt>
<wgt id='1286'> +1.2362201e-12 </wgt>
<wgt id='1287'> +1.2384414e-12 </wgt>
<wgt id='1288'> +1.2403105e-12 </wgt>
<wgt id='1289'> +1.1644797e-12 </wgt>
<wgt id='1290'> +1.1665562e-12 </wgt>
<wgt id='1291'> +1.1621211e-12 </wgt>
<wgt id='1292'> +1.1541235e-12 </wgt>
<wgt id='1293'> +1.1719705e-12 </wgt>
<wgt id='1294'> +1.1571366e-12 </wgt>
<wgt id='1295'> +1.1715900e-12 </wgt>
<wgt id='1296'> +1.1621629e-12 </wgt>
<wgt id='1297'> +1.1672711e-12 </wgt>
<wgt id='1298'> +1.1655581e-12 </wgt>
<wgt id='1299'> +1.1630035e-12 </wgt>
<wgt id='1300'> +1.1657795e-12 </wgt>
<wgt id='1301'> +1.1618818e-12 </wgt>
<wgt id='1302'> +1.1626960e-12 </wgt>
<wgt id='1303'> +1.1669453e-12 </wgt>
<wgt id='1304'> +1.1646633e-12 </wgt>
<wgt id='1305'> +1.1642955e-12 </wgt>
<wgt id='1306'> +1.1654894e-12 </wgt>
<wgt id='1307'> +1.1635280e-12 </wgt>
<wgt id='1308'> +1.1739798e-12 </wgt>
<wgt id='1309'> +1.1571933e-12 </wgt>
<wgt id='1310'> +1.1690428e-12 </wgt>
<wgt id='1311'> +1.1598896e-12 </wgt>
<wgt id='1312'> +1.1664296e-12 </wgt>
<wgt id='1313'> +1.1629945e-12 </wgt>
<wgt id='1314'> +1.1554027e-12 </wgt>
<wgt id='1315'> +1.1693412e-12 </wgt>
<wgt id='1316'> +1.1703721e-12 </wgt>
<wgt id='1317'> +1.1651547e-12 </wgt>
<wgt id='1318'> +1.1699412e-12 </wgt>
<wgt id='1319'> +1.1570962e-12 </wgt>
<wgt id='1320'> +1.1820591e-12 </wgt>
<wgt id='1321'> +1.1500846e-12 </wgt>
<wgt id='1322'> +1.1602132e-12 </wgt>
<wgt id='1323'> +1.1695649e-12 </wgt>
<wgt id='1324'> +1.1650145e-12 </wgt>
<wgt id='1325'> +1.1677827e-12 </wgt>
<wgt id='1326'> +1.1602272e-12 </wgt>
<wgt id='1327'> +1.1699644e-12 </wgt>
<wgt id='1328'> +1.1653717e-12 </wgt>
<wgt id='1329'> +1.1633827e-12 </wgt>
<wgt id='1330'> +1.1266154e-12 </wgt>
<wgt id='1331'> +1.1928131e-12 </wgt>
<wgt id='1332'> +1.1865134e-12 </wgt>
<wgt id='1333'> +1.1446599e-12 </wgt>
<wgt id='1334'> +1.1552516e-12 </wgt>
<wgt id='1335'> +1.1878005e-12 </wgt>
<wgt id='1336'> +1.1672488e-12 </wgt>
<wgt id='1337'> +1.1564335e-12 </wgt>
<wgt id='1338'> +1.1620857e-12 </wgt>
<wgt id='1339'> +1.1644614e-12 </wgt>
<wgt id='1340'> +1.1261780e-12 </wgt>
<wgt id='1341'> +1.1284337e-12 </wgt>
<wgt id='1342'> +1.1237888e-12 </wgt>
<wgt id='1343'> +1.1157830e-12 </wgt>
<wgt id='1344'> +1.1332795e-12 </wgt>
<wgt id='1345'> +1.1189969e-12 </wgt>
<wgt id='1346'> +1.1329654e-12 </wgt>
<wgt id='1347'> +1.1242547e-12 </wgt>
<wgt id='1348'> +1.1282961e-12 </wgt>
<wgt id='1349'> +1.1268259e-12 </wgt>
<wgt id='1350'> +1.1255205e-12 </wgt>
<wgt id='1351'> +1.1273501e-12 </wgt>
<wgt id='1352'> +1.1237345e-12 </wgt>
<wgt id='1353'> +1.1242422e-12 </wgt>
<wgt id='1354'> +1.1296828e-12 </wgt>
<wgt id='1355'> +1.1271183e-12 </wgt>
<wgt id='1356'> +1.1256724e-12 </wgt>
<wgt id='1357'> +1.1303059e-12 </wgt>
<wgt id='1358'> +1.1217271e-12 </wgt>
<wgt id='1359'> +1.1358205e-12 </wgt>
<wgt id='1360'> +1.1178493e-12 </wgt>
<wgt id='1361'> +1.1301572e-12 </wgt>
<wgt id='1362'> +1.1211774e-12 </wgt>
<wgt id='1363'> +1.1298487e-12 </wgt>
<wgt id='1364'> +1.1243850e-12 </wgt>
<wgt id='1365'> +1.1263137e-12 </wgt>
<wgt id='1366'> +1.1189617e-12 </wgt>
<wgt id='1367'> +1.1318719e-12 </wgt>
<wgt id='1368'> +1.1260748e-12 </wgt>
<wgt id='1369'> +1.1305697e-12 </wgt>
<wgt id='1370'> +1.1205550e-12 </wgt>
<wgt id='1371'> +1.1382324e-12 </wgt>
<wgt id='1372'> +1.1116756e-12 </wgt>
<wgt id='1373'> +1.1175421e-12 </wgt>
<wgt id='1374'> +1.1338978e-12 </wgt>
<wgt id='1375'> +1.1267099e-12 </wgt>
<wgt id='1376'> +1.1290307e-12 </wgt>
<wgt id='1377'> +1.1229395e-12 </wgt>
<wgt id='1378'> +1.1309841e-12 </wgt>
<wgt id='1379'> +1.1266319e-12 </wgt>
<wgt id='1380'> +1.1255217e-12 </wgt>
<wgt id='1381'> +1.0871388e-12 </wgt>
<wgt id='1382'> +1.1523199e-12 </wgt>
<wgt id='1383'> +1.1505485e-12 </wgt>
<wgt id='1384'> +1.1029006e-12 </wgt>
<wgt id='1385'> +1.1169106e-12 </wgt>
<wgt id='1386'> +1.1483215e-12 </wgt>
<wgt id='1387'> +1.1292866e-12 </wgt>
<wgt id='1388'> +1.1153977e-12 </wgt>
<wgt id='1389'> +1.1226388e-12 </wgt>
<wgt id='1390'> +1.1262467e-12 </wgt>
<wgt id='1391'> +1.1270550e-12 </wgt>
<wgt id='1392'> +1.0732036e-12 </wgt>
<wgt id='1393'> +1.0908839e-12 </wgt>
<wgt id='1394'> +1.1091210e-12 </wgt>
<wgt id='1395'> +1.1452259e-12 </wgt>
<wgt id='1396'> +1.1279985e-12 </wgt>
<wgt id='1397'> +1.0815125e-12 </wgt>
<wgt id='1398'> +1.0919599e-12 </wgt>
<wgt id='1399'> +1.1006012e-12 </wgt>
<wgt id='1400'> +1.1090251e-12 </wgt>
<wgt id='1401'> +1.1185787e-12 </wgt>
<wgt id='1402'> +1.1358299e-12 </wgt>
<wgt id='1403'> +1.1436186e-12 </wgt>
<wgt id='1404'> +1.1503208e-12 </wgt>
<wgt id='1405'> +1.1279985e-12 </wgt>
<wgt id='1406'> +1.1248553e-12 </wgt>
<wgt id='1407'> +1.1268026e-12 </wgt>
<wgt id='1408'> +1.1291900e-12 </wgt>
<wgt id='1409'> +1.1309531e-12 </wgt>
<wgt id='1410'> +1.1973072e-12 </wgt>
<wgt id='1411'> +1.1985667e-12 </wgt>
<wgt id='1412'> +1.1955822e-12 </wgt>
<wgt id='1413'> +1.2005243e-12 </wgt>
<wgt id='1414'> +1.1941464e-12 </wgt>
<wgt id='1415'> +1.1816959e-12 </wgt>
<wgt id='1416'> +1.2035930e-12 </wgt>
<wgt id='1417'> +1.1885958e-12 </wgt>
<wgt id='1418'> +1.2060203e-12 </wgt>
<wgt id='1419'> +1.1964385e-12 </wgt>
<wgt id='1420'> +1.1981736e-12 </wgt>
<wgt id='1421'> +1.1940372e-12 </wgt>
<wgt id='1422'> +1.1987436e-12 </wgt>
<wgt id='1423'> +1.1967627e-12 </wgt>
<wgt id='1424'> +1.1979651e-12 </wgt>
<wgt id='1425'> +1.1938858e-12 </wgt>
<wgt id='1426'> +1.2009686e-12 </wgt>
<wgt id='1427'> +1.2009190e-12 </wgt>
<wgt id='1428'> +1.1951262e-12 </wgt>
<wgt id='1429'> +1.1906385e-12 </wgt>
<wgt id='1430'> +1.2062685e-12 </wgt>
<wgt id='1431'> +1.2019440e-12 </wgt>
<wgt id='1432'> +1.1939697e-12 </wgt>
<wgt id='1433'> +1.1861887e-12 </wgt>
<wgt id='1434'> +1.2063093e-12 </wgt>
<wgt id='1435'> +1.1954205e-12 </wgt>
<wgt id='1436'> +1.2024287e-12 </wgt>
<wgt id='1437'> +1.2016177e-12 </wgt>
<wgt id='1438'> +1.1990632e-12 </wgt>
<wgt id='1439'> +1.1921074e-12 </wgt>
<wgt id='1440'> +1.2077603e-12 </wgt>
<wgt id='1441'> +1.2044254e-12 </wgt>
<wgt id='1442'> +1.1836038e-12 </wgt>
<wgt id='1443'> +1.1977527e-12 </wgt>
<wgt id='1444'> +1.1977054e-12 </wgt>
<wgt id='1445'> +1.2059469e-12 </wgt>
<wgt id='1446'> +1.1949387e-12 </wgt>
<wgt id='1447'> +1.1985017e-12 </wgt>
<wgt id='1448'> +1.1984001e-12 </wgt>
<wgt id='1449'> +1.1988800e-12 </wgt>
<wgt id='1450'> +1.1958326e-12 </wgt>
<wgt id='1451'> +1.2200088e-12 </wgt>
<wgt id='1452'> +1.1475562e-12 </wgt>
<wgt id='1453'> +1.2007968e-12 </wgt>
<wgt id='1454'> +1.1725069e-12 </wgt>
<wgt id='1455'> +1.1808988e-12 </wgt>
<wgt id='1456'> +1.2103459e-12 </wgt>
<wgt id='1457'> +1.2153645e-12 </wgt>
<wgt id='1458'> +1.1897296e-12 </wgt>
<wgt id='1459'> +1.2038013e-12 </wgt>
<wgt id='1460'> +1.1924533e-12 </wgt>
<wgt id='1461'> +1.1973072e-12 </wgt>
<wgt id='1462'> +1.1784847e-12 </wgt>
<wgt id='1463'> +1.2230255e-12 </wgt>
<wgt id='1464'> +1.1998742e-12 </wgt>
<wgt id='1465'> +1.1574901e-12 </wgt>
<wgt id='1466'> +1.1677762e-12 </wgt>
<wgt id='1467'> +1.1777469e-12 </wgt>
<wgt id='1468'> +1.1835515e-12 </wgt>
<wgt id='1469'> +1.1927598e-12 </wgt>
<wgt id='1470'> +1.2068262e-12 </wgt>
<wgt id='1471'> +1.2118369e-12 </wgt>
<wgt id='1472'> +1.2185689e-12 </wgt>
<wgt id='1473'> +1.1998742e-12 </wgt>
<wgt id='1474'> +1.1954553e-12 </wgt>
<wgt id='1475'> +1.1959753e-12 </wgt>
<wgt id='1476'> +1.2019631e-12 </wgt>
<wgt id='1477'> +1.2043323e-12 </wgt>
<wgt id='1478'> +1.1159941e-12 </wgt>
<wgt id='1479'> +1.1148992e-12 </wgt>
<wgt id='1480'> +1.1234646e-12 </wgt>
<wgt id='1481'> +1.1220778e-12 </wgt>
<wgt id='1482'> +1.1127297e-12 </wgt>
<wgt id='1483'> +1.0804965e-12 </wgt>
<wgt id='1484'> +1.1146588e-12 </wgt>
<wgt id='1485'> +1.1150362e-12 </wgt>
<wgt id='1486'> +1.1175485e-12 </wgt>
<wgt id='1487'> +1.1231385e-12 </wgt>
<wgt id='1488'> +1.1146620e-12 </wgt>
<wgt id='1489'> +1.1226543e-12 </wgt>
<wgt id='1490'> +1.1097464e-12 </wgt>
<wgt id='1491'> +1.1160771e-12 </wgt>
<wgt id='1492'> +1.1186497e-12 </wgt>
<wgt id='1493'> +1.1011904e-12 </wgt>
<wgt id='1494'> +1.1421151e-12 </wgt>
<wgt id='1495'> +1.1012820e-12 </wgt>
<wgt id='1496'> +1.1142661e-12 </wgt>
<wgt id='1497'> +1.1048158e-12 </wgt>
<wgt id='1498'> +1.1163998e-12 </wgt>
<wgt id='1499'> +1.1155851e-12 </wgt>
<wgt id='1500'> +1.1203998e-12 </wgt>
<wgt id='1501'> +1.1147549e-12 </wgt>
<wgt id='1502'> +1.1154108e-12 </wgt>
<wgt id='1503'> +1.1179943e-12 </wgt>
<wgt id='1504'> +1.1049206e-12 </wgt>
<wgt id='1505'> +1.1179974e-12 </wgt>
<wgt id='1506'> +1.1134302e-12 </wgt>
<wgt id='1507'> +1.1149887e-12 </wgt>
<wgt id='1508'> +1.1199100e-12 </wgt>
<wgt id='1509'> +1.2930459e-12 </wgt>
<wgt id='1510'> +1.2920097e-12 </wgt>
<wgt id='1511'> +1.2937494e-12 </wgt>
<wgt id='1512'> +1.2901350e-12 </wgt>
<wgt id='1513'> +1.3076284e-12 </wgt>
<wgt id='1514'> +1.2941119e-12 </wgt>
<wgt id='1515'> +1.2866301e-12 </wgt>
<wgt id='1516'> +1.2949326e-12 </wgt>
<wgt id='1517'> +1.2905143e-12 </wgt>
<wgt id='1518'> +1.3057925e-12 </wgt>
<wgt id='1519'> +1.2820329e-12 </wgt>
<wgt id='1520'> +1.2857315e-12 </wgt>
<wgt id='1521'> +1.3033668e-12 </wgt>
<wgt id='1522'> +1.2887036e-12 </wgt>
<wgt id='1523'> +1.3085626e-12 </wgt>
<wgt id='1524'> +1.2971916e-12 </wgt>
<wgt id='1525'> +1.3052667e-12 </wgt>
<wgt id='1526'> +1.2850056e-12 </wgt>
<wgt id='1527'> +1.2881145e-12 </wgt>
<wgt id='1528'> +1.2986038e-12 </wgt>
<wgt id='1529'> +1.2960475e-12 </wgt>
<wgt id='1530'> +1.3056558e-12 </wgt>
<wgt id='1531'> +1.2962964e-12 </wgt>
<wgt id='1532'> +1.2872316e-12 </wgt>
<wgt id='1533'> +1.2898651e-12 </wgt>
<wgt id='1534'> +1.2985893e-12 </wgt>
<wgt id='1535'> +1.2799983e-12 </wgt>
<wgt id='1536'> +1.2902827e-12 </wgt>
<wgt id='1537'> +1.2961972e-12 </wgt>
<wgt id='1538'> +1.2890974e-12 </wgt>
<wgt id='1539'> +1.2787119e-12 </wgt>
<wgt id='1540'> +1.2980328e-12 </wgt>
<wgt id='1541'> +1.2967988e-12 </wgt>
<wgt id='1542'> +1.2991174e-12 </wgt>
<wgt id='1543'> +1.2925759e-12 </wgt>
<wgt id='1544'> +1.2903543e-12 </wgt>
<wgt id='1545'> +1.2952041e-12 </wgt>
<wgt id='1546'> +1.2955979e-12 </wgt>
<wgt id='1547'> +1.2943728e-12 </wgt>
<wgt id='1548'> +1.2909157e-12 </wgt>
<wgt id='1549'> +1.2909798e-12 </wgt>
<wgt id='1550'> +1.2953378e-12 </wgt>
<wgt id='1551'> +1.2901447e-12 </wgt>
<wgt id='1552'> +1.2920731e-12 </wgt>
<wgt id='1553'> +1.2909962e-12 </wgt>
<wgt id='1554'> +1.2992708e-12 </wgt>
<wgt id='1555'> +1.2957382e-12 </wgt>
<wgt id='1556'> +1.2919822e-12 </wgt>
<wgt id='1557'> +1.2949701e-12 </wgt>
<wgt id='1558'> +1.2917650e-12 </wgt>
<wgt id='1559'> +1.2938070e-12 </wgt>
<wgt id='1560'> +1.2946709e-12 </wgt>
<wgt id='1561'> +1.2936892e-12 </wgt>
<wgt id='1562'> +1.2931264e-12 </wgt>
<wgt id='1563'> +1.2922994e-12 </wgt>
<wgt id='1564'> +1.2904197e-12 </wgt>
<wgt id='1565'> +1.2928430e-12 </wgt>
<wgt id='1566'> +1.2940266e-12 </wgt>
<wgt id='1567'> +1.2935086e-12 </wgt>
<wgt id='1568'> +1.2927121e-12 </wgt>
<wgt id='1569'> +1.2952798e-12 </wgt>
<wgt id='1570'> +1.2911493e-12 </wgt>
<wgt id='1571'> +1.2936105e-12 </wgt>
<wgt id='1572'> +1.2927254e-12 </wgt>
<wgt id='1573'> +1.2923910e-12 </wgt>
<wgt id='1574'> +1.2931877e-12 </wgt>
<wgt id='1575'> +1.2924573e-12 </wgt>
<wgt id='1576'> +1.2929373e-12 </wgt>
<wgt id='1577'> +1.2930991e-12 </wgt>
<wgt id='1578'> +1.2944198e-12 </wgt>
<wgt id='1579'> +1.2922436e-12 </wgt>
<wgt id='1580'> +1.2921425e-12 </wgt>
<wgt id='1581'> +1.2941933e-12 </wgt>
<wgt id='1582'> +1.2957358e-12 </wgt>
<wgt id='1583'> +1.2921120e-12 </wgt>
<wgt id='1584'> +1.2925364e-12 </wgt>
<wgt id='1585'> +1.2944140e-12 </wgt>
<wgt id='1586'> +1.2919018e-12 </wgt>
<wgt id='1587'> +1.2942288e-12 </wgt>
<wgt id='1588'> +1.2919928e-12 </wgt>
<wgt id='1589'> +1.2923907e-12 </wgt>
<wgt id='1590'> +1.2929115e-12 </wgt>
<wgt id='1591'> +1.2926985e-12 </wgt>
<wgt id='1592'> +1.2930974e-12 </wgt>
<wgt id='1593'> +1.2919530e-12 </wgt>
<wgt id='1594'> +1.2930588e-12 </wgt>
<wgt id='1595'> +1.2944515e-12 </wgt>
<wgt id='1596'> +1.2940021e-12 </wgt>
<wgt id='1597'> +1.2934687e-12 </wgt>
<wgt id='1598'> +1.2929184e-12 </wgt>
<wgt id='1599'> +1.2922948e-12 </wgt>
<wgt id='1600'> +1.2954159e-12 </wgt>
<wgt id='1601'> +1.2935688e-12 </wgt>
<wgt id='1602'> +1.2936243e-12 </wgt>
<wgt id='1603'> +1.2917254e-12 </wgt>
<wgt id='1604'> +1.2931846e-12 </wgt>
<wgt id='1605'> +1.2923878e-12 </wgt>
<wgt id='1606'> +1.2923697e-12 </wgt>
<wgt id='1607'> +1.2933071e-12 </wgt>
<wgt id='1608'> +1.2929501e-12 </wgt>
<wgt id='1609'> +1.2916372e-12 </wgt>
<wgt id='1610'> +1.2657275e-12 </wgt>
<wgt id='1611'> +1.3273453e-12 </wgt>
<wgt id='1612'> +1.4775220e-12 </wgt>
<wgt id='1613'> +1.4483251e-12 </wgt>
<wgt id='1614'> +1.4938719e-12 </wgt>
<wgt id='1615'> +1.4490788e-12 </wgt>
<wgt id='1616'> +1.5116454e-12 </wgt>
<wgt id='1617'> +1.5597353e-12 </wgt>
<wgt id='1618'> +1.5621201e-12 </wgt>
<wgt id='1619'> +1.5030489e-12 </wgt>
<wgt id='1620'> +1.4253373e-12 </wgt>
<wgt id='1621'> +1.4877639e-12 </wgt>
<wgt id='1622'> +1.4837891e-12 </wgt>
<wgt id='1623'> +1.4631532e-12 </wgt>
<wgt id='1624'> +1.4687537e-12 </wgt>
<wgt id='1625'> +1.4347696e-12 </wgt>
<wgt id='1626'> +1.4445617e-12 </wgt>
<wgt id='1627'> +1.4356864e-12 </wgt>
<wgt id='1628'> +1.4888098e-12 </wgt>
<wgt id='1629'> +1.5638580e-12 </wgt>
<wgt id='1630'> +1.4759612e-12 </wgt>
<wgt id='1631'> +1.4719045e-12 </wgt>
<wgt id='1632'> +1.3631631e-12 </wgt>
<wgt id='1633'> +1.4169062e-12 </wgt>
<wgt id='1634'> +1.4784156e-12 </wgt>
<wgt id='1635'> +1.4839011e-12 </wgt>
<wgt id='1636'> +1.5727762e-12 </wgt>
<wgt id='1637'> +1.4454370e-12 </wgt>
<wgt id='1638'> +1.4599704e-12 </wgt>
<wgt id='1639'> +1.4649610e-12 </wgt>
<wgt id='1640'> +1.4064304e-12 </wgt>
<wgt id='1641'> +1.4744280e-12 </wgt>
<wgt id='1642'> +1.4368461e-12 </wgt>
<wgt id='1643'> +1.5619792e-12 </wgt>
<wgt id='1644'> +1.3916955e-12 </wgt>
<wgt id='1645'> +1.4449416e-12 </wgt>
<wgt id='1646'> +1.4458684e-12 </wgt>
<wgt id='1647'> +1.4415870e-12 </wgt>
<wgt id='1648'> +1.4786712e-12 </wgt>
<wgt id='1649'> +1.6415065e-12 </wgt>
<wgt id='1650'> +1.4669650e-12 </wgt>
<wgt id='1651'> +1.4686577e-12 </wgt>
<wgt id='1652'> +1.4504393e-12 </wgt>
<wgt id='1653'> +1.5516530e-12 </wgt>
<wgt id='1654'> +1.5038238e-12 </wgt>
<wgt id='1655'> +1.4772232e-12 </wgt>
<wgt id='1656'> +1.3927980e-12 </wgt>
<wgt id='1657'> +1.4527962e-12 </wgt>
<wgt id='1658'> +1.4218986e-12 </wgt>
<wgt id='1659'> +1.4687537e-12 </wgt>
<wgt id='1660'> +1.5110455e-12 </wgt>
<wgt id='1661'> +1.5049961e-12 </wgt>
<wgt id='1662'> +1.4661839e-12 </wgt>
<wgt id='1663'> +1.4945134e-12 </wgt>
<wgt id='1664'> +1.4155698e-12 </wgt>
<wgt id='1665'> +1.3804806e-12 </wgt>
<wgt id='1666'> +1.5062631e-12 </wgt>
<wgt id='1667'> +1.5082865e-12 </wgt>
<wgt id='1668'> +1.5305091e-12 </wgt>
<wgt id='1669'> +1.3942358e-12 </wgt>
<wgt id='1670'> +1.4646513e-12 </wgt>
<wgt id='1671'> +1.4200476e-12 </wgt>
<wgt id='1672'> +1.4579753e-12 </wgt>
<wgt id='1673'> +1.5139821e-12 </wgt>
<wgt id='1674'> +1.4575390e-12 </wgt>
<wgt id='1675'> +1.4538231e-12 </wgt>
<wgt id='1676'> +1.5423261e-12 </wgt>
<wgt id='1677'> +1.5713269e-12 </wgt>
<wgt id='1678'> +1.4158954e-12 </wgt>
<wgt id='1679'> +1.5394681e-12 </wgt>
<wgt id='1680'> +1.4592012e-12 </wgt>
<wgt id='1681'> +1.4948157e-12 </wgt>
<wgt id='1682'> +1.4866443e-12 </wgt>
<wgt id='1683'> +1.4625555e-12 </wgt>
<wgt id='1684'> +1.4538758e-12 </wgt>
<wgt id='1685'> +1.4372675e-12 </wgt>
<wgt id='1686'> +1.4560374e-12 </wgt>
<wgt id='1687'> +1.5459056e-12 </wgt>
<wgt id='1688'> +1.4594706e-12 </wgt>
<wgt id='1689'> +1.4383284e-12 </wgt>
<wgt id='1690'> +1.4392299e-12 </wgt>
<wgt id='1691'> +1.4739265e-12 </wgt>
<wgt id='1692'> +1.5109751e-12 </wgt>
<wgt id='1693'> +1.5488481e-12 </wgt>
<wgt id='1694'> +1.4704944e-12 </wgt>
<wgt id='1695'> +1.4687014e-12 </wgt>
<wgt id='1696'> +1.4793481e-12 </wgt>
<wgt id='1697'> +1.5371095e-12 </wgt>
<wgt id='1698'> +1.4568500e-12 </wgt>
<wgt id='1699'> +1.5227785e-12 </wgt>
<wgt id='1700'> +1.4587522e-12 </wgt>
<wgt id='1701'> +1.5008321e-12 </wgt>
<wgt id='1702'> +1.5421938e-12 </wgt>
<wgt id='1703'> +1.5213996e-12 </wgt>
<wgt id='1704'> +1.4572419e-12 </wgt>
<wgt id='1705'> +1.3845623e-12 </wgt>
<wgt id='1706'> +1.5188437e-12 </wgt>
<wgt id='1707'> +1.5183866e-12 </wgt>
<wgt id='1708'> +1.5146827e-12 </wgt>
<wgt id='1709'> +1.4577109e-12 </wgt>
<wgt id='1710'> +1.4826114e-12 </wgt>
<wgt id='1711'> +1.5379731e-12 </wgt>
<wgt id='1712'> +1.4901125e-12 </wgt>
<wgt id='1713'> +1.1058600e-12 </wgt>
<wgt id='1714'> +1.0645752e-12 </wgt>
<wgt id='1715'> +1.1082238e-12 </wgt>
<wgt id='1716'> +1.1714321e-12 </wgt>
<wgt id='1717'> +1.1464623e-12 </wgt>
<wgt id='1718'> +1.1346063e-12 </wgt>
<wgt id='1719'> +1.1150268e-12 </wgt>
<wgt id='1720'> +1.1179844e-12 </wgt>
<wgt id='1721'> +1.0856303e-12 </wgt>
<wgt id='1722'> +1.1045460e-12 </wgt>
<wgt id='1723'> +1.0730011e-12 </wgt>
<wgt id='1724'> +9.4149961e-13 </wgt>
<wgt id='1725'> +1.1404955e-12 </wgt>
<wgt id='1726'> +1.1731217e-12 </wgt>
<wgt id='1727'> +1.1051989e-12 </wgt>
<wgt id='1728'> +1.0910810e-12 </wgt>
<wgt id='1729'> +1.0736239e-12 </wgt>
<wgt id='1730'> +1.0881648e-12 </wgt>
<wgt id='1731'> +1.0541587e-12 </wgt>
<wgt id='1732'> +1.0948244e-12 </wgt>
<wgt id='1733'> +1.1249262e-12 </wgt>
<wgt id='1734'> +1.1488772e-12 </wgt>
<wgt id='1735'> +1.0615422e-12 </wgt>
<wgt id='1736'> +1.1358696e-12 </wgt>
<wgt id='1737'> +1.1933712e-12 </wgt>
<wgt id='1738'> +1.1187548e-12 </wgt>
<wgt id='1739'> +1.1141553e-12 </wgt>
<wgt id='1740'> +1.0913325e-12 </wgt>
<wgt id='1741'> +1.1089249e-12 </wgt>
<wgt id='1742'> +1.1197953e-12 </wgt>
<wgt id='1743'> +1.1262804e-12 </wgt>
<wgt id='1744'> +1.1845535e-12 </wgt>
<wgt id='1745'> +1.0393889e-12 </wgt>
<wgt id='1746'> +1.1220955e-12 </wgt>
<wgt id='1747'> +1.1410052e-12 </wgt>
<wgt id='1748'> +1.1323880e-12 </wgt>
<wgt id='1749'> +1.1106746e-12 </wgt>
<wgt id='1750'> +1.1033376e-12 </wgt>
<wgt id='1751'> +9.8568116e-13 </wgt>
<wgt id='1752'> +1.1057339e-12 </wgt>
<wgt id='1753'> +1.1279246e-12 </wgt>
<wgt id='1754'> +1.0978888e-12 </wgt>
<wgt id='1755'> +1.0883364e-12 </wgt>
<wgt id='1756'> +1.1142076e-12 </wgt>
<wgt id='1757'> +1.0922107e-12 </wgt>
<wgt id='1758'> +1.1324420e-12 </wgt>
<wgt id='1759'> +1.0959776e-12 </wgt>
<wgt id='1760'> +1.0509395e-12 </wgt>
<wgt id='1761'> +1.1066592e-12 </wgt>
<wgt id='1762'> +1.1597502e-12 </wgt>
<wgt id='1763'> +1.1533105e-12 </wgt>
<wgt id='1764'> +1.1160941e-12 </wgt>
<wgt id='1765'> +1.1180152e-12 </wgt>
<wgt id='1766'> +1.1084759e-12 </wgt>
<wgt id='1767'> +1.1167172e-12 </wgt>
<wgt id='1768'> +1.1181848e-12 </wgt>
<wgt id='1769'> +1.0915853e-12 </wgt>
<wgt id='1770'> +1.1574143e-12 </wgt>
<wgt id='1771'> +1.1274917e-12 </wgt>
<wgt id='1772'> +1.1310454e-12 </wgt>
<wgt id='1773'> +1.1108077e-12 </wgt>
<wgt id='1774'> +1.1148118e-12 </wgt>
<wgt id='1775'> +1.1059425e-12 </wgt>
<wgt id='1776'> +1.0902956e-12 </wgt>
<wgt id='1777'> +1.0102154e-12 </wgt>
<wgt id='1778'> +1.0925688e-12 </wgt>
<wgt id='1779'> +1.1477436e-12 </wgt>
<wgt id='1780'> +1.0785511e-12 </wgt>
<wgt id='1781'> +1.1221684e-12 </wgt>
<wgt id='1782'> +1.0732369e-12 </wgt>
<wgt id='1783'> +1.1105441e-12 </wgt>
<wgt id='1784'> +1.0946787e-12 </wgt>
<wgt id='1785'> +1.0522555e-12 </wgt>
<wgt id='1786'> +1.0244414e-12 </wgt>
<wgt id='1787'> +1.1745015e-12 </wgt>
<wgt id='1788'> +1.0915358e-12 </wgt>
<wgt id='1789'> +1.0384103e-12 </wgt>
<wgt id='1790'> +1.1039804e-12 </wgt>
<wgt id='1791'> +1.0798978e-12 </wgt>
<wgt id='1792'> +1.0519877e-12 </wgt>
<wgt id='1793'> +1.1309907e-12 </wgt>
<wgt id='1794'> +1.1151897e-12 </wgt>
<wgt id='1795'> +1.1618083e-12 </wgt>
<wgt id='1796'> +1.0867596e-12 </wgt>
<wgt id='1797'> +1.1337924e-12 </wgt>
<wgt id='1798'> +1.1188529e-12 </wgt>
<wgt id='1799'> +1.0908615e-12 </wgt>
<wgt id='1800'> +1.1128467e-12 </wgt>
<wgt id='1801'> +1.1182808e-12 </wgt>
<wgt id='1802'> +1.0707899e-12 </wgt>
<wgt id='1803'> +1.1457370e-12 </wgt>
<wgt id='1804'> +1.1155865e-12 </wgt>
<wgt id='1805'> +1.1078835e-12 </wgt>
<wgt id='1806'> +1.1037599e-12 </wgt>
<wgt id='1807'> +1.0634757e-12 </wgt>
<wgt id='1808'> +1.1156083e-12 </wgt>
<wgt id='1809'> +1.0831435e-12 </wgt>
<wgt id='1810'> +1.1171767e-12 </wgt>
<wgt id='1811'> +1.1443423e-12 </wgt>
<wgt id='1812'> +1.1362999e-12 </wgt>
<wgt id='1813'> +1.1125978e-12 </wgt>
<wgt id='1814'> +1.0997686e-12 </wgt>
<wgt id='1815'> +1.3293041e-12 </wgt>
<wgt id='1816'> +1.1058600e-12 </wgt>
<wgt id='1817'> +1.0645752e-12 </wgt>
<wgt id='1818'> +1.1082238e-12 </wgt>
<wgt id='1819'> +1.1714321e-12 </wgt>
<wgt id='1820'> +1.1464623e-12 </wgt>
<wgt id='1821'> +1.1346063e-12 </wgt>
<wgt id='1822'> +1.1150268e-12 </wgt>
<wgt id='1823'> +1.1179844e-12 </wgt>
<wgt id='1824'> +1.0856303e-12 </wgt>
<wgt id='1825'> +1.1045460e-12 </wgt>
<wgt id='1826'> +1.0730011e-12 </wgt>
<wgt id='1827'> +9.4149961e-13 </wgt>
<wgt id='1828'> +1.1404955e-12 </wgt>
<wgt id='1829'> +1.1731217e-12 </wgt>
<wgt id='1830'> +1.1051989e-12 </wgt>
<wgt id='1831'> +1.0910810e-12 </wgt>
<wgt id='1832'> +1.0736239e-12 </wgt>
<wgt id='1833'> +1.0881648e-12 </wgt>
<wgt id='1834'> +1.0541587e-12 </wgt>
<wgt id='1835'> +1.0948244e-12 </wgt>
<wgt id='1836'> +1.1249262e-12 </wgt>
<wgt id='1837'> +1.1488772e-12 </wgt>
<wgt id='1838'> +1.0615422e-12 </wgt>
<wgt id='1839'> +1.1358696e-12 </wgt>
<wgt id='1840'> +1.1933712e-12 </wgt>
<wgt id='1841'> +1.1187548e-12 </wgt>
<wgt id='1842'> +1.1141553e-12 </wgt>
<wgt id='1843'> +1.0913325e-12 </wgt>
<wgt id='1844'> +1.1089249e-12 </wgt>
<wgt id='1845'> +1.1197953e-12 </wgt>
<wgt id='1846'> +1.1262804e-12 </wgt>
<wgt id='1847'> +1.1845535e-12 </wgt>
<wgt id='1848'> +1.0393889e-12 </wgt>
<wgt id='1849'> +1.1220955e-12 </wgt>
<wgt id='1850'> +1.1410052e-12 </wgt>
<wgt id='1851'> +1.1323880e-12 </wgt>
<wgt id='1852'> +1.1106746e-12 </wgt>
<wgt id='1853'> +1.1033376e-12 </wgt>
<wgt id='1854'> +9.8568116e-13 </wgt>
<wgt id='1855'> +1.1057339e-12 </wgt>
<wgt id='1856'> +1.1279246e-12 </wgt>
<wgt id='1857'> +1.0978888e-12 </wgt>
<wgt id='1858'> +1.0883364e-12 </wgt>
<wgt id='1859'> +1.1142076e-12 </wgt>
<wgt id='1860'> +1.0922107e-12 </wgt>
<wgt id='1861'> +1.1324420e-12 </wgt>
<wgt id='1862'> +1.0959776e-12 </wgt>
<wgt id='1863'> +1.0509395e-12 </wgt>
<wgt id='1864'> +1.1066592e-12 </wgt>
<wgt id='1865'> +1.1597502e-12 </wgt>
<wgt id='1866'> +1.1533105e-12 </wgt>
<wgt id='1867'> +1.1160941e-12 </wgt>
<wgt id='1868'> +1.1180152e-12 </wgt>
<wgt id='1869'> +1.1084759e-12 </wgt>
<wgt id='1870'> +1.1167172e-12 </wgt>
<wgt id='1871'> +1.1181848e-12 </wgt>
<wgt id='1872'> +1.0915853e-12 </wgt>
<wgt id='1873'> +1.1574143e-12 </wgt>
<wgt id='1874'> +1.1274917e-12 </wgt>
<wgt id='1875'> +1.1310454e-12 </wgt>
<wgt id='1876'> +1.1108077e-12 </wgt>
<wgt id='1877'> +1.1148118e-12 </wgt>
<wgt id='1878'> +1.1059425e-12 </wgt>
<wgt id='1879'> +1.0902956e-12 </wgt>
<wgt id='1880'> +1.0102154e-12 </wgt>
<wgt id='1881'> +1.0925688e-12 </wgt>
<wgt id='1882'> +1.1477436e-12 </wgt>
<wgt id='1883'> +1.0785511e-12 </wgt>
<wgt id='1884'> +1.1221684e-12 </wgt>
<wgt id='1885'> +1.0732369e-12 </wgt>
<wgt id='1886'> +1.1105441e-12 </wgt>
<wgt id='1887'> +1.0946787e-12 </wgt>
<wgt id='1888'> +1.0522555e-12 </wgt>
<wgt id='1889'> +1.0244414e-12 </wgt>
<wgt id='1890'> +1.1745015e-12 </wgt>
<wgt id='1891'> +1.0915358e-12 </wgt>
<wgt id='1892'> +1.0384103e-12 </wgt>
<wgt id='1893'> +1.1039804e-12 </wgt>
<wgt id='1894'> +1.0798978e-12 </wgt>
<wgt id='1895'> +1.0519877e-12 </wgt>
<wgt id='1896'> +1.1309907e-12 </wgt>
<wgt id='1897'> +1.1151897e-12 </wgt>
<wgt id='1898'> +1.1618083e-12 </wgt>
<wgt id='1899'> +1.0867596e-12 </wgt>
<wgt id='1900'> +1.1337924e-12 </wgt>
<wgt id='1901'> +1.1188529e-12 </wgt>
<wgt id='1902'> +1.0908615e-12 </wgt>
<wgt id='1903'> +1.1128467e-12 </wgt>
<wgt id='1904'> +1.1182808e-12 </wgt>
<wgt id='1905'> +1.0707899e-12 </wgt>
<wgt id='1906'> +1.1457370e-12 </wgt>
<wgt id='1907'> +1.1155865e-12 </wgt>
<wgt id='1908'> +1.1078835e-12 </wgt>
<wgt id='1909'> +1.1037599e-12 </wgt>
<wgt id='1910'> +1.0634757e-12 </wgt>
<wgt id='1911'> +1.1156083e-12 </wgt>
<wgt id='1912'> +1.0831435e-12 </wgt>
<wgt id='1913'> +1.1171767e-12 </wgt>
<wgt id='1914'> +1.1443423e-12 </wgt>
<wgt id='1915'> +1.1362999e-12 </wgt>
<wgt id='1916'> +1.1125978e-12 </wgt>
<wgt id='1917'> +1.0938747e-12 </wgt>
<wgt id='1918'> +1.1237301e-12 </wgt>
<wgt id='1919'> +1.1804648e-12 </wgt>
</rwgt>
</event>
<event>
 9      1 +1.5607000e-12 2.55386400e+01 7.81860800e-03 1.49972400e-01
       21 -1    0    0  501  502 +0.0000000000e+00 +0.0000000000e+00 +2.8676270373e+00 2.8676270373e+00 0.0000000000e+00 0.0000e+00 -1.0000e+00
        2 -1    0    0  502    0 -0.0000000000e+00 -0.0000000000e+00 -1.8643079087e+02 1.8643079087e+02 0.0000000000e+00 0.0000e+00 1.0000e+00
     1023  2    1    2    0    0 +1.9654825856e+01 +6.3981506851e+00 -1.0508867429e+02 1.0814736110e+02 1.4999124563e+01 0.0000e+00 0.0000e+00
  1000023  2    3    3    0    0 +1.3041544271e+01 -1.0047405528e+00 -5.1550367283e+01 5.3467487207e+01 5.4991308999e+00 0.0000e+00 0.0000e+00
        2  1    1    2  501    0 -1.9654825856e+01 -6.3981506851e+00 -7.8474489545e+01 8.1151056807e+01 0.0000000000e+00 0.0000e+00 1.0000e+00
  1000022  1    4    4    0    0 +1.1270627942e+01 -1.1359104116e+00 -4.4277030273e+01 4.5975784458e+01 5.0000000000e+00 0.0000e+00 1.0000e+00
      -11  1    4    4    0    0 +8.6742717026e-01 -5.8738729574e-03 -3.0713692953e+00 3.1915159419e+00 5.1100000000e-04 0.0000e+00 -1.0000e+00
       11  1    4    4    0    0 +9.0348915886e-01 +1.3704373181e-01 -4.2019677142e+00 4.3001868072e+00 5.1100000000e-04 0.0000e+00 1.0000e+00
  1000022  1    3    3    0    0 +6.6132815849e+00 +7.4028912379e+00 -5.3538307008e+01 5.4679873896e+01 5.0000000000e+00 0.0000e+00 1.0000e+00
<mgrwt>
<rscale>  1 0.25538642E+02</rscale>
<asrwt>0</asrwt>
<pdfrwt beam="1">  1       21 0.44117339E-03 0.25538642E+02</pdfrwt>
<pdfrwt beam="2">  1        2 0.28681660E-01 0.25538642E+02</pdfrwt>
<totfact> 0.17981944E+07</totfact>
</mgrwt>
<rwgt>
<wgt id='1001'> +1.5607000e-12 </wgt>
<wgt id='1002'> +1.6726058e-12 </wgt>
<wgt id='1003'> +1.6806356e-12 </wgt>
<wgt id='1004'> +1.5342763e-12 </wgt>
<wgt id='1005'> +1.6816981e-12 </wgt>
<wgt id='1006'> +1.3593839e-12 </wgt>
<wgt id='1007'> +1.4777685e-12 </wgt>
<wgt id='1008'> +1.4865077e-12 </wgt>
<wgt id='1009'> +1.3321147e-12 </wgt>
<wgt id='1010'> +1.4876682e-12 </wgt>
<wgt id='1011'> +1.8356064e-12 </wgt>
<wgt id='1012'> +1.9293138e-12 </wgt>
<wgt id='1013'> +1.9356886e-12 </wgt>
<wgt id='1014'> +1.8126212e-12 </wgt>
<wgt id='1015'> +1.9365306e-12 </wgt>
<wgt id='1016'> +1.9490793e-12 </wgt>
<wgt id='1017'> +1.9999265e-12 </wgt>
<wgt id='1018'> +2.0031855e-12 </wgt>
<wgt id='1019'> +1.9356886e-12 </wgt>
<wgt id='1020'> +2.0036090e-12 </wgt>
<wgt id='1021'> +1.6976658e-12 </wgt>
<wgt id='1022'> +1.7669606e-12 </wgt>
<wgt id='1023'> +1.7718003e-12 </wgt>
<wgt id='1024'> +1.6806356e-12 </wgt>
<wgt id='1025'> +1.7724378e-12 </wgt>
<wgt id='1026'> +2.2923960e-12 </wgt>
<wgt id='1027'> +2.3068710e-12 </wgt>
<wgt id='1028'> +2.3071887e-12 </wgt>
<wgt id='1029'> +2.2868568e-12 </wgt>
<wgt id='1030'> +2.3072215e-12 </wgt>
<wgt id='1031'> +1.1484019e-12 </wgt>
<wgt id='1032'> +1.3193332e-12 </wgt>
<wgt id='1033'> +1.3321147e-12 </wgt>
<wgt id='1034'> +1.1090164e-12 </wgt>
<wgt id='1035'> +1.3338074e-12 </wgt>
<wgt id='1036'> +1.0002685e-12 </wgt>
<wgt id='1037'> +1.1656477e-12 </wgt>
<wgt id='1038'> +1.1782440e-12 </wgt>
<wgt id='1039'> +9.6288854e-13 </wgt>
<wgt id='1040'> +1.1799162e-12 </wgt>
<wgt id='1041'> +1.3506848e-12 </wgt>
<wgt id='1042'> +1.5218217e-12 </wgt>
<wgt id='1043'> +1.5342763e-12 </wgt>
<wgt id='1044'> +1.3102116e-12 </wgt>
<wgt id='1045'> +1.5359231e-12 </wgt>
<wgt id='1046'> +1.5607000e-12 </wgt>
<wgt id='1047'> +1.6049614e-12 </wgt>
<wgt id='1048'> +1.5834346e-12 </wgt>
<wgt id='1049'> +1.5079656e-12 </wgt>
<wgt id='1050'> +1.5341009e-12 </wgt>
<wgt id='1051'> +1.5135039e-12 </wgt>
<wgt id='1052'> +1.5509084e-12 </wgt>
<wgt id='1053'> +1.6008743e-12 </wgt>
<wgt id='1054'> +1.5701929e-12 </wgt>
<wgt id='1055'> +1.5071491e-12 </wgt>
<wgt id='1056'> +1.5213412e-12 </wgt>
<wgt id='1057'> +1.5556806e-12 </wgt>
<wgt id='1058'> +1.5034147e-12 </wgt>
<wgt id='1059'> +1.5681971e-12 </wgt>
<wgt id='1060'> +1.5633358e-12 </wgt>
<wgt id='1061'> +1.5846105e-12 </wgt>
<wgt id='1062'> +1.5596968e-12 </wgt>
<wgt id='1063'> +1.5433002e-12 </wgt>
<wgt id='1064'> +1.5505137e-12 </wgt>
<wgt id='1065'> +1.5874992e-12 </wgt>
<wgt id='1066'> +1.5450110e-12 </wgt>
<wgt id='1067'> +1.5551473e-12 </wgt>
<wgt id='1068'> +1.6064907e-12 </wgt>
<wgt id='1069'> +1.6085687e-12 </wgt>
<wgt id='1070'> +1.5600398e-12 </wgt>
<wgt id='1071'> +1.5292195e-12 </wgt>
<wgt id='1072'> +1.5911064e-12 </wgt>
<wgt id='1073'> +1.5813965e-12 </wgt>
<wgt id='1074'> +1.5432832e-12 </wgt>
<wgt id='1075'> +1.5705154e-12 </wgt>
<wgt id='1076'> +1.5423465e-12 </wgt>
<wgt id='1077'> +1.5822275e-12 </wgt>
<wgt id='1078'> +1.5165438e-12 </wgt>
<wgt id='1079'> +1.5407136e-12 </wgt>
<wgt id='1080'> +1.5506203e-12 </wgt>
<wgt id='1081'> +1.5604037e-12 </wgt>
<wgt id='1082'> +1.5340964e-12 </wgt>
<wgt id='1083'> +1.5488330e-12 </wgt>
<wgt id='1084'> +1.5340210e-12 </wgt>
<wgt id='1085'> +1.5671401e-12 </wgt>
<wgt id='1086'> +1.6131979e-12 </wgt>
<wgt id='1087'> +1.5315383e-12 </wgt>
<wgt id='1088'> +1.5726526e-12 </wgt>
<wgt id='1089'> +1.5540449e-12 </wgt>
<wgt id='1090'> +1.5559041e-12 </wgt>
<wgt id='1091'> +1.5803477e-12 </wgt>
<wgt id='1092'> +1.5965554e-12 </wgt>
<wgt id='1093'> +1.5758749e-12 </wgt>
<wgt id='1094'> +1.5868117e-12 </wgt>
<wgt id='1095'> +1.5960943e-12 </wgt>
<wgt id='1096'> +1.5722849e-12 </wgt>
<wgt id='1097'> +1.5712384e-12 </wgt>
<wgt id='1098'> +1.5626682e-12 </wgt>
<wgt id='1099'> +1.5447647e-12 </wgt>
<wgt id='1100'> +1.6135516e-12 </wgt>
<wgt id='1101'> +1.5814296e-12 </wgt>
<wgt id='1102'> +1.5398316e-12 </wgt>
<wgt id='1103'> +1.5854437e-12 </wgt>
<wgt id='1104'> +1.5245991e-12 </wgt>
<wgt id='1105'> +1.4893306e-12 </wgt>
<wgt id='1106'> +1.5742236e-12 </wgt>
<wgt id='1107'> +1.6093941e-12 </wgt>
<wgt id='1108'> +1.5607082e-12 </wgt>
<wgt id='1109'> +1.5774654e-12 </wgt>
<wgt id='1110'> +1.5492819e-12 </wgt>
<wgt id='1111'> +1.5495539e-12 </wgt>
<wgt id='1112'> +1.5295581e-12 </wgt>
<wgt id='1113'> +1.6512628e-12 </wgt>
<wgt id='1114'> +1.5865391e-12 </wgt>
<wgt id='1115'> +1.5854490e-12 </wgt>
<wgt id='1116'> +1.6369589e-12 </wgt>
<wgt id='1117'> +1.5293541e-12 </wgt>
<wgt id='1118'> +1.6504771e-12 </wgt>
<wgt id='1119'> +1.4701715e-12 </wgt>
<wgt id='1120'> +1.5372911e-12 </wgt>
<wgt id='1121'> +1.5333176e-12 </wgt>
<wgt id='1122'> +1.5538928e-12 </wgt>
<wgt id='1123'> +1.5811015e-12 </wgt>
<wgt id='1124'> +1.5595815e-12 </wgt>
<wgt id='1125'> +1.5084044e-12 </wgt>
<wgt id='1126'> +1.5614671e-12 </wgt>
<wgt id='1127'> +1.5849531e-12 </wgt>
<wgt id='1128'> +1.5596968e-12 </wgt>
<wgt id='1129'> +1.5718292e-12 </wgt>
<wgt id='1130'> +1.5417448e-12 </wgt>
<wgt id='1131'> +1.5659021e-12 </wgt>
<wgt id='1132'> +1.5878063e-12 </wgt>
<wgt id='1133'> +1.5296531e-12 </wgt>
<wgt id='1134'> +1.5611996e-12 </wgt>
<wgt id='1135'> +1.5158329e-12 </wgt>
<wgt id='1136'> +1.5184156e-12 </wgt>
<wgt id='1137'> +1.5581106e-12 </wgt>
<wgt id='1138'> +1.5400155e-12 </wgt>
<wgt id='1139'> +1.5583366e-12 </wgt>
<wgt id='1140'> +1.5952133e-12 </wgt>
<wgt id='1141'> +1.5688465e-12 </wgt>
<wgt id='1142'> +1.5602907e-12 </wgt>
<wgt id='1143'> +1.5510109e-12 </wgt>
<wgt id='1144'> +1.5361345e-12 </wgt>
<wgt id='1145'> +1.5897078e-12 </wgt>
<wgt id='1146'> +1.5551708e-12 </wgt>
<wgt id='1147'> +1.3398767e-12 </wgt>
<wgt id='1148'> +1.3717524e-12 </wgt>
<wgt id='1149'> +1.3151199e-12 </wgt>
<wgt id='1150'> +1.3562857e-12 </wgt>
<wgt id='1151'> +1.6446631e-12 </wgt>
<wgt id='1152'> +2.1150739e-12 </wgt>
<wgt id='1153'> +2.1074507e-12 </wgt>
<wgt id='1154'> +2.1194604e-12 </wgt>
<wgt id='1155'> +2.1118601e-12 </wgt>
<wgt id='1156'> +2.1167434e-12 </wgt>
<wgt id='1157'> +2.1188873e-12 </wgt>
<wgt id='1158'> +2.1099285e-12 </wgt>
<wgt id='1159'> +2.1183712e-12 </wgt>
<wgt id='1160'> +2.1129958e-12 </wgt>
<wgt id='1161'> +2.1111360e-12 </wgt>
<wgt id='1162'> +2.1177986e-12 </wgt>
<wgt id='1163'> +2.1174340e-12 </wgt>
<wgt id='1164'> +2.1127546e-12 </wgt>
<wgt id='1165'> +2.1077398e-12 </wgt>
<wgt id='1166'> +2.1220949e-12 </wgt>
<wgt id='1167'> +2.1333976e-12 </wgt>
<wgt id='1168'> +2.0920967e-12 </wgt>
<wgt id='1169'> +2.1195295e-12 </wgt>
<wgt id='1170'> +2.1117697e-12 </wgt>
<wgt id='1171'> +2.1049832e-12 </wgt>
<wgt id='1172'> +2.1274088e-12 </wgt>
<wgt id='1173'> +2.0952567e-12 </wgt>
<wgt id='1174'> +2.1344444e-12 </wgt>
<wgt id='1175'> +2.1211839e-12 </wgt>
<wgt id='1176'> +2.1093115e-12 </wgt>
<wgt id='1177'> +2.1127184e-12 </wgt>
<wgt id='1178'> +2.1216558e-12 </wgt>
<wgt id='1179'> +2.1126933e-12 </wgt>
<wgt id='1180'> +2.1099387e-12 </wgt>
<wgt id='1181'> +2.1175200e-12 </wgt>
<wgt id='1182'> +2.1119582e-12 </wgt>
<wgt id='1183'> +2.1070858e-12 </wgt>
<wgt id='1184'> +2.1157502e-12 </wgt>
<wgt id='1185'> +2.1096238e-12 </wgt>
<wgt id='1186'> +2.1187250e-12 </wgt>
<wgt id='1187'> +2.1163275e-12 </wgt>
<wgt id='1188'> +2.1146750e-12 </wgt>
<wgt id='1189'> +2.1101266e-12 </wgt>
<wgt id='1190'> +2.0937072e-12 </wgt>
<wgt id='1191'> +2.1143290e-12 </wgt>
<wgt id='1192'> +2.1211858e-12 </wgt>
<wgt id='1193'> +1.3293029e-12 </wgt>
<wgt id='1194'> +1.3176195e-12 </wgt>
<wgt id='1195'> +1.3388638e-12 </wgt>
<wgt id='1196'> +1.3333658e-12 </wgt>
<wgt id='1197'> +1.3247927e-12 </wgt>
<wgt id='1198'> +1.3292821e-12 </wgt>
<wgt id='1199'> +1.3293950e-12 </wgt>
<wgt id='1200'> +1.3285985e-12 </wgt>
<wgt id='1201'> +1.3298128e-12 </wgt>
<wgt id='1202'> +1.3277289e-12 </wgt>
<wgt id='1203'> +1.3315509e-12 </wgt>
<wgt id='1204'> +1.3199470e-12 </wgt>
<wgt id='1205'> +1.3349319e-12 </wgt>
<wgt id='1206'> +1.3327424e-12 </wgt>
<wgt id='1207'> +1.3246222e-12 </wgt>
<wgt id='1208'> +1.3273154e-12 </wgt>
<wgt id='1209'> +1.3300544e-12 </wgt>
<wgt id='1210'> +1.3267537e-12 </wgt>
<wgt id='1211'> +1.3260885e-12 </wgt>
<wgt id='1212'> +1.3305311e-12 </wgt>
<wgt id='1213'> +1.3283580e-12 </wgt>
<wgt id='1214'> +1.3158054e-12 </wgt>
<wgt id='1215'> +1.3481270e-12 </wgt>
<wgt id='1216'> +1.3295619e-12 </wgt>
<wgt id='1217'> +1.3281773e-12 </wgt>
<wgt id='1218'> +1.3351551e-12 </wgt>
<wgt id='1219'> +1.3261391e-12 </wgt>
<wgt id='1220'> +1.3371285e-12 </wgt>
<wgt id='1221'> +1.3271675e-12 </wgt>
<wgt id='1222'> +1.3459298e-12 </wgt>
<wgt id='1223'> +1.3037719e-12 </wgt>
<wgt id='1224'> +1.3323675e-12 </wgt>
<wgt id='1225'> +1.3280722e-12 </wgt>
<wgt id='1226'> +1.3260226e-12 </wgt>
<wgt id='1227'> +1.3317081e-12 </wgt>
<wgt id='1228'> +1.3175107e-12 </wgt>
<wgt id='1229'> +1.3340268e-12 </wgt>
<wgt id='1230'> +1.3293001e-12 </wgt>
<wgt id='1231'> +1.3340359e-12 </wgt>
<wgt id='1232'> +1.3274294e-12 </wgt>
<wgt id='1233'> +1.3297545e-12 </wgt>
<wgt id='1234'> +1.3293029e-12 </wgt>
<wgt id='1235'> +1.3212016e-12 </wgt>
<wgt id='1236'> +1.3242591e-12 </wgt>
<wgt id='1237'> +1.3270307e-12 </wgt>
<wgt id='1238'> +1.3315660e-12 </wgt>
<wgt id='1239'> +1.3334309e-12 </wgt>
<wgt id='1240'> +1.3352735e-12 </wgt>
<wgt id='1241'> +1.2713254e-12 </wgt>
<wgt id='1242'> +1.2575858e-12 </wgt>
<wgt id='1243'> +1.2848721e-12 </wgt>
<wgt id='1244'> +1.2688397e-12 </wgt>
<wgt id='1245'> +1.2731017e-12 </wgt>
<wgt id='1246'> +1.2695111e-12 </wgt>
<wgt id='1247'> +1.2728686e-12 </wgt>
<wgt id='1248'> +1.2712630e-12 </wgt>
<wgt id='1249'> +1.2713666e-12 </wgt>
<wgt id='1250'> +1.2725944e-12 </wgt>
<wgt id='1251'> +1.2703980e-12 </wgt>
<wgt id='1252'> +1.2692207e-12 </wgt>
<wgt id='1253'> +1.2729069e-12 </wgt>
<wgt id='1254'> +1.2646783e-12 </wgt>
<wgt id='1255'> +1.2752157e-12 </wgt>
<wgt id='1256'> +1.2726377e-12 </wgt>
<wgt id='1257'> +1.2678505e-12 </wgt>
<wgt id='1258'> +1.2837036e-12 </wgt>
<wgt id='1259'> +1.2584848e-12 </wgt>
<wgt id='1260'> +1.2734566e-12 </wgt>
<wgt id='1261'> +1.2691839e-12 </wgt>
<wgt id='1262'> +1.2672812e-12 </wgt>
<wgt id='1263'> +1.2728172e-12 </wgt>
<wgt id='1264'> +1.2794728e-12 </wgt>
<wgt id='1265'> +1.2674924e-12 </wgt>
<wgt id='1266'> +1.2542564e-12 </wgt>
<wgt id='1267'> +1.2868061e-12 </wgt>
<wgt id='1268'> +1.2772506e-12 </wgt>
<wgt id='1269'> +1.2670671e-12 </wgt>
<wgt id='1270'> +1.2708624e-12 </wgt>
<wgt id='1271'> +1.2730509e-12 </wgt>
<wgt id='1272'> +1.2706809e-12 </wgt>
<wgt id='1273'> +1.2718327e-12 </wgt>
<wgt id='1274'> +1.2730640e-12 </wgt>
<wgt id='1275'> +1.2685601e-12 </wgt>
<wgt id='1276'> +1.2785307e-12 </wgt>
<wgt id='1277'> +1.2605342e-12 </wgt>
<wgt id='1278'> +1.2788885e-12 </wgt>
<wgt id='1279'> +1.2751646e-12 </wgt>
<wgt id='1280'> +1.2720627e-12 </wgt>
<wgt id='1281'> +1.2702720e-12 </wgt>
<wgt id='1282'> +1.2713254e-12 </wgt>
<wgt id='1283'> +1.2636609e-12 </wgt>
<wgt id='1284'> +1.2667647e-12 </wgt>
<wgt id='1285'> +1.2692587e-12 </wgt>
<wgt id='1286'> +1.2734565e-12 </wgt>
<wgt id='1287'> +1.2750042e-12 </wgt>
<wgt id='1288'> +1.2762864e-12 </wgt>
<wgt id='1289'> +1.3990089e-12 </wgt>
<wgt id='1290'> +1.3992279e-12 </wgt>
<wgt id='1291'> +1.3987678e-12 </wgt>
<wgt id='1292'> +1.3973162e-12 </wgt>
<wgt id='1293'> +1.4002809e-12 </wgt>
<wgt id='1294'> +1.3836097e-12 </wgt>
<wgt id='1295'> +1.4139794e-12 </wgt>
<wgt id='1296'> +1.4000120e-12 </wgt>
<wgt id='1297'> +1.3976638e-12 </wgt>
<wgt id='1298'> +1.4062747e-12 </wgt>
<wgt id='1299'> +1.3899586e-12 </wgt>
<wgt id='1300'> +1.4020938e-12 </wgt>
<wgt id='1301'> +1.3929041e-12 </wgt>
<wgt id='1302'> +1.3961495e-12 </wgt>
<wgt id='1303'> +1.4030085e-12 </wgt>
<wgt id='1304'> +1.3969298e-12 </wgt>
<wgt id='1305'> +1.4004575e-12 </wgt>
<wgt id='1306'> +1.3947999e-12 </wgt>
<wgt id='1307'> +1.4037328e-12 </wgt>
<wgt id='1308'> +1.3916692e-12 </wgt>
<wgt id='1309'> +1.4046276e-12 </wgt>
<wgt id='1310'> +1.3975624e-12 </wgt>
<wgt id='1311'> +1.4007621e-12 </wgt>
<wgt id='1312'> +1.4005557e-12 </wgt>
<wgt id='1313'> +1.3976357e-12 </wgt>
<wgt id='1314'> +1.3809849e-12 </wgt>
<wgt id='1315'> +1.4133957e-12 </wgt>
<wgt id='1316'> +1.4083142e-12 </wgt>
<wgt id='1317'> +1.3984611e-12 </wgt>
<wgt id='1318'> +1.4084893e-12 </wgt>
<wgt id='1319'> +1.3868156e-12 </wgt>
<wgt id='1320'> +1.4099975e-12 </wgt>
<wgt id='1321'> +1.3893391e-12 </wgt>
<wgt id='1322'> +1.3980660e-12 </wgt>
<wgt id='1323'> +1.4001812e-12 </wgt>
<wgt id='1324'> +1.3936408e-12 </wgt>
<wgt id='1325'> +1.4180250e-12 </wgt>
<wgt id='1326'> +1.3988154e-12 </wgt>
<wgt id='1327'> +1.4019139e-12 </wgt>
<wgt id='1328'> +1.3992913e-12 </wgt>
<wgt id='1329'> +1.3985274e-12 </wgt>
<wgt id='1330'> +1.4041764e-12 </wgt>
<wgt id='1331'> +1.3965978e-12 </wgt>
<wgt id='1332'> +1.4162953e-12 </wgt>
<wgt id='1333'> +1.3968013e-12 </wgt>
<wgt id='1334'> +1.3971270e-12 </wgt>
<wgt id='1335'> +1.4055449e-12 </wgt>
<wgt id='1336'> +1.3995259e-12 </wgt>
<wgt id='1337'> +1.4044244e-12 </wgt>
<wgt id='1338'> +1.3963965e-12 </wgt>
<wgt id='1339'> +1.3996626e-12 </wgt>
<wgt id='1340'> +1.3705909e-12 </wgt>
<wgt id='1341'> +1.3707088e-12 </wgt>
<wgt id='1342'> +1.3704269e-12 </wgt>
<wgt id='1343'> +1.3688343e-12 </wgt>
<wgt id='1344'> +1.3717589e-12 </wgt>
<wgt id='1345'> +1.3547862e-12 </wgt>
<wgt id='1346'> +1.3853119e-12 </wgt>
<wgt id='1347'> +1.3723216e-12 </wgt>
<wgt id='1348'> +1.3685557e-12 </wgt>
<wgt id='1349'> +1.3773996e-12 </wgt>
<wgt id='1350'> +1.3639239e-12 </wgt>
<wgt id='1351'> +1.3735181e-12 </wgt>
<wgt id='1352'> +1.3642191e-12 </wgt>
<wgt id='1353'> +1.3669289e-12 </wgt>
<wgt id='1354'> +1.3771700e-12 </wgt>
<wgt id='1355'> +1.3690296e-12 </wgt>
<wgt id='1356'> +1.3714339e-12 </wgt>
<wgt id='1357'> +1.3648717e-12 </wgt>
<wgt id='1358'> +1.3772468e-12 </wgt>
<wgt id='1359'> +1.3645083e-12 </wgt>
<wgt id='1360'> +1.3758614e-12 </wgt>
<wgt id='1361'> +1.3697190e-12 </wgt>
<wgt id='1362'> +1.3719596e-12 </wgt>
<wgt id='1363'> +1.3762601e-12 </wgt>
<wgt id='1364'> +1.3672151e-12 </wgt>
<wgt id='1365'> +1.3790912e-12 </wgt>
<wgt id='1366'> +1.3529349e-12 </wgt>
<wgt id='1367'> +1.3798195e-12 </wgt>
<wgt id='1368'> +1.3691202e-12 </wgt>
<wgt id='1369'> +1.3787779e-12 </wgt>
<wgt id='1370'> +1.3603118e-12 </wgt>
<wgt id='1371'> +1.3796006e-12 </wgt>
<wgt id='1372'> +1.3596154e-12 </wgt>
<wgt id='1373'> +1.3668750e-12 </wgt>
<wgt id='1374'> +1.3738896e-12 </wgt>
<wgt id='1375'> +1.3652570e-12 </wgt>
<wgt id='1376'> +1.3903156e-12 </wgt>
<wgt id='1377'> +1.3700734e-12 </wgt>
<wgt id='1378'> +1.3739421e-12 </wgt>
<wgt id='1379'> +1.3708488e-12 </wgt>
<wgt id='1380'> +1.3700063e-12 </wgt>
<wgt id='1381'> +1.3761012e-12 </wgt>
<wgt id='1382'> +1.3674867e-12 </wgt>
<wgt id='1383'> +1.3857885e-12 </wgt>
<wgt id='1384'> +1.3704065e-12 </wgt>
<wgt id='1385'> +1.3690900e-12 </wgt>
<wgt id='1386'> +1.3755069e-12 </wgt>
<wgt id='1387'> +1.3702210e-12 </wgt>
<wgt id='1388'> +1.3759367e-12 </wgt>
<wgt id='1389'> +1.3670903e-12 </wgt>
<wgt id='1390'> +1.3715851e-12 </wgt>
<wgt id='1391'> +1.3537753e-12 </wgt>
<wgt id='1392'> +1.3140179e-12 </wgt>
<wgt id='1393'> +1.3273738e-12 </wgt>
<wgt id='1394'> +1.3416239e-12 </wgt>
<wgt id='1395'> +1.3685398e-12 </wgt>
<wgt id='1396'> +1.3552243e-12 </wgt>
<wgt id='1397'> +1.3206570e-12 </wgt>
<wgt id='1398'> +1.3270419e-12 </wgt>
<wgt id='1399'> +1.3330872e-12 </wgt>
<wgt id='1400'> +1.3399052e-12 </wgt>
<wgt id='1401'> +1.3475695e-12 </wgt>
<wgt id='1402'> +1.3627940e-12 </wgt>
<wgt id='1403'> +1.3706165e-12 </wgt>
<wgt id='1404'> +1.3784546e-12 </wgt>
<wgt id='1405'> +1.3552243e-12 </wgt>
<wgt id='1406'> +1.3504699e-12 </wgt>
<wgt id='1407'> +1.3529879e-12 </wgt>
<wgt id='1408'> +1.3572602e-12 </wgt>
<wgt id='1409'> +1.3593528e-12 </wgt>
<wgt id='1410'> +1.2794718e-12 </wgt>
<wgt id='1411'> +1.2819797e-12 </wgt>
<wgt id='1412'> +1.2762255e-12 </wgt>
<wgt id='1413'> +1.2735660e-12 </wgt>
<wgt id='1414'> +1.2853679e-12 </wgt>
<wgt id='1415'> +1.2741243e-12 </wgt>
<wgt id='1416'> +1.2816584e-12 </wgt>
<wgt id='1417'> +1.2714622e-12 </wgt>
<wgt id='1418'> +1.2874433e-12 </wgt>
<wgt id='1419'> +1.2818500e-12 </wgt>
<wgt id='1420'> +1.2771582e-12 </wgt>
<wgt id='1421'> +1.2647671e-12 </wgt>
<wgt id='1422'> +1.2857966e-12 </wgt>
<wgt id='1423'> +1.2788722e-12 </wgt>
<wgt id='1424'> +1.2802167e-12 </wgt>
<wgt id='1425'> +1.2722998e-12 </wgt>
<wgt id='1426'> +1.2871973e-12 </wgt>
<wgt id='1427'> +1.2566539e-12 </wgt>
<wgt id='1428'> +1.2918968e-12 </wgt>
<wgt id='1429'> +1.2808041e-12 </wgt>
<wgt id='1430'> +1.2778087e-12 </wgt>
<wgt id='1431'> +1.2801305e-12 </wgt>
<wgt id='1432'> +1.2789212e-12 </wgt>
<wgt id='1433'> +1.2679909e-12 </wgt>
<wgt id='1434'> +1.2878634e-12 </wgt>
<wgt id='1435'> +1.2748587e-12 </wgt>
<wgt id='1436'> +1.2909600e-12 </wgt>
<wgt id='1437'> +1.2880649e-12 </wgt>
<wgt id='1438'> +1.2799127e-12 </wgt>
<wgt id='1439'> +1.2744020e-12 </wgt>
<wgt id='1440'> +1.2875788e-12 </wgt>
<wgt id='1441'> +1.2821502e-12 </wgt>
<wgt id='1442'> +1.2753211e-12 </wgt>
<wgt id='1443'> +1.2756967e-12 </wgt>
<wgt id='1444'> +1.2895879e-12 </wgt>
<wgt id='1445'> +1.2995389e-12 </wgt>
<wgt id='1446'> +1.2731377e-12 </wgt>
<wgt id='1447'> +1.2788730e-12 </wgt>
<wgt id='1448'> +1.2846699e-12 </wgt>
<wgt id='1449'> +1.2803563e-12 </wgt>
<wgt id='1450'> +1.2784004e-12 </wgt>
<wgt id='1451'> +1.2783237e-12 </wgt>
<wgt id='1452'> +1.2845338e-12 </wgt>
<wgt id='1453'> +1.2800957e-12 </wgt>
<wgt id='1454'> +1.2735789e-12 </wgt>
<wgt id='1455'> +1.2853210e-12 </wgt>
<wgt id='1456'> +1.2852588e-12 </wgt>
<wgt id='1457'> +1.2841029e-12 </wgt>
<wgt id='1458'> +1.2786217e-12 </wgt>
<wgt id='1459'> +1.2854224e-12 </wgt>
<wgt id='1460'> +1.2844494e-12 </wgt>
<wgt id='1461'> +1.2794718e-12 </wgt>
<wgt id='1462'> +1.2692335e-12 </wgt>
<wgt id='1463'> +1.2861601e-12 </wgt>
<wgt id='1464'> +1.2780939e-12 </wgt>
<wgt id='1465'> +1.2439581e-12 </wgt>
<wgt id='1466'> +1.2502221e-12 </wgt>
<wgt id='1467'> +1.2572957e-12 </wgt>
<wgt id='1468'> +1.2650793e-12 </wgt>
<wgt id='1469'> +1.2711232e-12 </wgt>
<wgt id='1470'> +1.2853664e-12 </wgt>
<wgt id='1471'> +1.2916209e-12 </wgt>
<wgt id='1472'> +1.2986535e-12 </wgt>
<wgt id='1473'> +1.2780939e-12 </wgt>
<wgt id='1474'> +1.2739462e-12 </wgt>
<wgt id='1475'> +1.2761402e-12 </wgt>
<wgt id='1476'> +1.2796940e-12 </wgt>
<wgt id='1477'> +1.2811709e-12 </wgt>
<wgt id='1478'> +1.3140595e-12 </wgt>
<wgt id='1479'> +1.3127332e-12 </wgt>
<wgt id='1480'> +1.3009622e-12 </wgt>
<wgt id='1481'> +1.3304528e-12 </wgt>
<wgt id='1482'> +1.3125522e-12 </wgt>
<wgt id='1483'> +1.3003050e-12 </wgt>
<wgt id='1484'> +1.3116251e-12 </wgt>
<wgt id='1485'> +1.3137954e-12 </wgt>
<wgt id='1486'> +1.3140082e-12 </wgt>
<wgt id='1487'> +1.3185813e-12 </wgt>
<wgt id='1488'> +1.3116084e-12 </wgt>
<wgt id='1489'> +1.3185812e-12 </wgt>
<wgt id='1490'> +1.3085513e-12 </wgt>
<wgt id='1491'> +1.3173758e-12 </wgt>
<wgt id='1492'> +1.3175927e-12 </wgt>
<wgt id='1493'> +1.2924653e-12 </wgt>
<wgt id='1494'> +1.3139902e-12 </wgt>
<wgt id='1495'> +1.2969324e-12 </wgt>
<wgt id='1496'> +1.3130343e-12 </wgt>
<wgt id='1497'> +1.3142469e-12 </wgt>
<wgt id='1498'> +1.3148933e-12 </wgt>
<wgt id='1499'> +1.3151866e-12 </wgt>
<wgt id='1500'> +1.3129073e-12 </wgt>
<wgt id='1501'> +1.3147766e-12 </wgt>
<wgt id='1502'> +1.3180513e-12 </wgt>
<wgt id='1503'> +1.3184359e-12 </wgt>
<wgt id='1504'> +1.3115423e-12 </wgt>
<wgt id='1505'> +1.3149747e-12 </wgt>
<wgt id='1506'> +1.3136654e-12 </wgt>
<wgt id='1507'> +1.3138773e-12 </wgt>
<wgt id='1508'> +1.3186819e-12 </wgt>
<wgt id='1509'> +1.2901459e-12 </wgt>
<wgt id='1510'> +1.2923243e-12 </wgt>
<wgt id='1511'> +1.2790147e-12 </wgt>
<wgt id='1512'> +1.2791973e-12 </wgt>
<wgt id='1513'> +1.2905344e-12 </wgt>
<wgt id='1514'> +1.2971949e-12 </wgt>
<wgt id='1515'> +1.2931833e-12 </wgt>
<wgt id='1516'> +1.2969819e-12 </wgt>
<wgt id='1517'> +1.2925020e-12 </wgt>
<wgt id='1518'> +1.2919735e-12 </wgt>
<wgt id='1519'> +1.2867148e-12 </wgt>
<wgt id='1520'> +1.2895778e-12 </wgt>
<wgt id='1521'> +1.2922245e-12 </wgt>
<wgt id='1522'> +1.2902459e-12 </wgt>
<wgt id='1523'> +1.2959529e-12 </wgt>
<wgt id='1524'> +1.2915949e-12 </wgt>
<wgt id='1525'> +1.2936842e-12 </wgt>
<wgt id='1526'> +1.2888754e-12 </wgt>
<wgt id='1527'> +1.2882479e-12 </wgt>
<wgt id='1528'> +1.2912170e-12 </wgt>
<wgt id='1529'> +1.2887402e-12 </wgt>
<wgt id='1530'> +1.2953215e-12 </wgt>
<wgt id='1531'> +1.2920461e-12 </wgt>
<wgt id='1532'> +1.2846662e-12 </wgt>
<wgt id='1533'> +1.2899999e-12 </wgt>
<wgt id='1534'> +1.2931736e-12 </wgt>
<wgt id='1535'> +1.2825128e-12 </wgt>
<wgt id='1536'> +1.2892844e-12 </wgt>
<wgt id='1537'> +1.2884384e-12 </wgt>
<wgt id='1538'> +1.2873043e-12 </wgt>
<wgt id='1539'> +1.2987518e-12 </wgt>
<wgt id='1540'> +1.2922059e-12 </wgt>
<wgt id='1541'> +1.2891785e-12 </wgt>
<wgt id='1542'> +1.2882369e-12 </wgt>
<wgt id='1543'> +1.2914627e-12 </wgt>
<wgt id='1544'> +1.2905406e-12 </wgt>
<wgt id='1545'> +1.2885632e-12 </wgt>
<wgt id='1546'> +1.2866914e-12 </wgt>
<wgt id='1547'> +1.2906327e-12 </wgt>
<wgt id='1548'> +1.2893888e-12 </wgt>
<wgt id='1549'> +1.2896819e-12 </wgt>
<wgt id='1550'> +1.2903791e-12 </wgt>
<wgt id='1551'> +1.2909221e-12 </wgt>
<wgt id='1552'> +1.2919286e-12 </wgt>
<wgt id='1553'> +1.2888070e-12 </wgt>
<wgt id='1554'> +1.2905964e-12 </wgt>
<wgt id='1555'> +1.2907558e-12 </wgt>
<wgt id='1556'> +1.2895657e-12 </wgt>
<wgt id='1557'> +1.2921585e-12 </wgt>
<wgt id='1558'> +1.2868133e-12 </wgt>
<wgt id='1559'> +1.2891340e-12 </wgt>
<wgt id='1560'> +1.2914647e-12 </wgt>
<wgt id='1561'> +1.2890930e-12 </wgt>
<wgt id='1562'> +1.2911725e-12 </wgt>
<wgt id='1563'> +1.2909673e-12 </wgt>
<wgt id='1564'> +1.2922947e-12 </wgt>
<wgt id='1565'> +1.2882880e-12 </wgt>
<wgt id='1566'> +1.2909703e-12 </wgt>
<wgt id='1567'> +1.2914037e-12 </wgt>
<wgt id='1568'> +1.2886820e-12 </wgt>
<wgt id='1569'> +1.2901296e-12 </wgt>
<wgt id='1570'> +1.2902464e-12 </wgt>
<wgt id='1571'> +1.2894885e-12 </wgt>
<wgt id='1572'> +1.2896654e-12 </wgt>
<wgt id='1573'> +1.2906482e-12 </wgt>
<wgt id='1574'> +1.2891819e-12 </wgt>
<wgt id='1575'> +1.2901119e-12 </wgt>
<wgt id='1576'> +1.2897261e-12 </wgt>
<wgt id='1577'> +1.2914027e-12 </wgt>
<wgt id='1578'> +1.2914842e-12 </wgt>
<wgt id='1579'> +1.2895034e-12 </wgt>
<wgt id='1580'> +1.2893334e-12 </wgt>
<wgt id='1581'> +1.2911714e-12 </wgt>
<wgt id='1582'> +1.2926697e-12 </wgt>
<wgt id='1583'> +1.2896467e-12 </wgt>
<wgt id='1584'> +1.2907988e-12 </wgt>
<wgt id='1585'> +1.2904649e-12 </wgt>
<wgt id='1586'> +1.2901394e-12 </wgt>
<wgt id='1587'> +1.2913371e-12 </wgt>
<wgt id='1588'> +1.2907068e-12 </wgt>
<wgt id='1589'> +1.2895869e-12 </wgt>
<wgt id='1590'> +1.2903120e-12 </wgt>
<wgt id='1591'> +1.2900258e-12 </wgt>
<wgt id='1592'> +1.2911208e-12 </wgt>
<wgt id='1593'> +1.2895463e-12 </wgt>
<wgt id='1594'> +1.2896658e-12 </wgt>
<wgt id='1595'> +1.2899156e-12 </wgt>
<wgt id='1596'> +1.2894330e-12 </wgt>
<wgt id='1597'> +1.2903567e-12 </wgt>
<wgt id='1598'> +1.2901258e-12 </wgt>
<wgt id='1599'> +1.2890597e-12 </wgt>
<wgt id='1600'> +1.2908917e-12 </wgt>
<wgt id='1601'> +1.2903794e-12 </wgt>
<wgt id='1602'> +1.2903443e-12 </wgt>
<wgt id='1603'> +1.2893989e-12 </wgt>
<wgt id='1604'> +1.2893294e-12 </wgt>
<wgt id='1605'> +1.2900886e-12 </wgt>
<wgt id='1606'> +1.2900962e-12 </wgt>
<wgt id='1607'> +1.2906254e-12 </wgt>
<wgt id='1608'> +1.2903272e-12 </wgt>
<wgt id='1609'> +1.2904563e-12 </wgt>
<wgt id='1610'> +1.2812032e-12 </wgt>
<wgt id='1611'> +1.3004779e-12 </wgt>
<wgt id='1612'> +1.5413520e-12 </wgt>
<wgt id='1613'> +1.4957031e-12 </wgt>
<wgt id='1614'> +1.4968564e-12 </wgt>
<wgt id='1615'> +1.5458546e-12 </wgt>
<wgt id='1616'> +1.4930014e-12 </wgt>
<wgt id='1617'> +1.5606930e-12 </wgt>
<wgt id='1618'> +1.5895096e-12 </wgt>
<wgt id='1619'> +1.5356555e-12 </wgt>
<wgt id='1620'> +1.4813908e-12 </wgt>
<wgt id='1621'> +1.5855748e-12 </wgt>
<wgt id='1622'> +1.5326484e-12 </wgt>
<wgt id='1623'> +1.5342385e-12 </wgt>
<wgt id='1624'> +1.5621689e-12 </wgt>
<wgt id='1625'> +1.5289557e-12 </wgt>
<wgt id='1626'> +1.5090171e-12 </wgt>
<wgt id='1627'> +1.5478589e-12 </wgt>
<wgt id='1628'> +1.5185311e-12 </wgt>
<wgt id='1629'> +1.5872121e-12 </wgt>
<wgt id='1630'> +1.5042642e-12 </wgt>
<wgt id='1631'> +1.5389430e-12 </wgt>
<wgt id='1632'> +1.5036750e-12 </wgt>
<wgt id='1633'> +1.4978905e-12 </wgt>
<wgt id='1634'> +1.5415713e-12 </wgt>
<wgt id='1635'> +1.5654192e-12 </wgt>
<wgt id='1636'> +1.5926795e-12 </wgt>
<wgt id='1637'> +1.5574816e-12 </wgt>
<wgt id='1638'> +1.5680516e-12 </wgt>
<wgt id='1639'> +1.5100607e-12 </wgt>
<wgt id='1640'> +1.5429091e-12 </wgt>
<wgt id='1641'> +1.5196959e-12 </wgt>
<wgt id='1642'> +1.5202117e-12 </wgt>
<wgt id='1643'> +1.4946438e-12 </wgt>
<wgt id='1644'> +1.5608521e-12 </wgt>
<wgt id='1645'> +1.5503627e-12 </wgt>
<wgt id='1646'> +1.5204293e-12 </wgt>
<wgt id='1647'> +1.5411303e-12 </wgt>
<wgt id='1648'> +1.5725541e-12 </wgt>
<wgt id='1649'> +1.5981149e-12 </wgt>
<wgt id='1650'> +1.5260406e-12 </wgt>
<wgt id='1651'> +1.5296352e-12 </wgt>
<wgt id='1652'> +1.5087774e-12 </wgt>
<wgt id='1653'> +1.5543429e-12 </wgt>
<wgt id='1654'> +1.5620193e-12 </wgt>
<wgt id='1655'> +1.5566021e-12 </wgt>
<wgt id='1656'> +1.5226535e-12 </wgt>
<wgt id='1657'> +1.5364840e-12 </wgt>
<wgt id='1658'> +1.5345864e-12 </wgt>
<wgt id='1659'> +1.5621689e-12 </wgt>
<wgt id='1660'> +1.6007754e-12 </wgt>
<wgt id='1661'> +1.5374411e-12 </wgt>
<wgt id='1662'> +1.5766728e-12 </wgt>
<wgt id='1663'> +1.5176756e-12 </wgt>
<wgt id='1664'> +1.5495814e-12 </wgt>
<wgt id='1665'> +1.4877045e-12 </wgt>
<wgt id='1666'> +1.5350823e-12 </wgt>
<wgt id='1667'> +1.5247542e-12 </wgt>
<wgt id='1668'> +1.5852912e-12 </wgt>
<wgt id='1669'> +1.5697856e-12 </wgt>
<wgt id='1670'> +1.5538035e-12 </wgt>
<wgt id='1671'> +1.5513619e-12 </wgt>
<wgt id='1672'> +1.5807568e-12 </wgt>
<wgt id='1673'> +1.5246415e-12 </wgt>
<wgt id='1674'> +1.4681937e-12 </wgt>
<wgt id='1675'> +1.5514142e-12 </wgt>
<wgt id='1676'> +1.5593546e-12 </wgt>
<wgt id='1677'> +1.5718613e-12 </wgt>
<wgt id='1678'> +1.5270092e-12 </wgt>
<wgt id='1679'> +1.5196162e-12 </wgt>
<wgt id='1680'> +1.5722331e-12 </wgt>
<wgt id='1681'> +1.5567046e-12 </wgt>
<wgt id='1682'> +1.5378264e-12 </wgt>
<wgt id='1683'> +1.5089319e-12 </wgt>
<wgt id='1684'> +1.5640010e-12 </wgt>
<wgt id='1685'> +1.5256376e-12 </wgt>
<wgt id='1686'> +1.5334513e-12 </wgt>
<wgt id='1687'> +1.5589173e-12 </wgt>
<wgt id='1688'> +1.5272598e-12 </wgt>
<wgt id='1689'> +1.5809261e-12 </wgt>
<wgt id='1690'> +1.5456883e-12 </wgt>
<wgt id='1691'> +1.5343131e-12 </wgt>
<wgt id='1692'> +1.5863282e-12 </wgt>
<wgt id='1693'> +1.5466057e-12 </wgt>
<wgt id='1694'> +1.5574675e-12 </wgt>
<wgt id='1695'> +1.5664927e-12 </wgt>
<wgt id='1696'> +1.5340067e-12 </wgt>
<wgt id='1697'> +1.5209332e-12 </wgt>
<wgt id='1698'> +1.5433946e-12 </wgt>
<wgt id='1699'> +1.5488700e-12 </wgt>
<wgt id='1700'> +1.5197058e-12 </wgt>
<wgt id='1701'> +1.5771935e-12 </wgt>
<wgt id='1702'> +1.5051543e-12 </wgt>
<wgt id='1703'> +1.5383962e-12 </wgt>
<wgt id='1704'> +1.5451606e-12 </wgt>
<wgt id='1705'> +1.4708564e-12 </wgt>
<wgt id='1706'> +1.5733750e-12 </wgt>
<wgt id='1707'> +1.5406907e-12 </wgt>
<wgt id='1708'> +1.5742623e-12 </wgt>
<wgt id='1709'> +1.5716042e-12 </wgt>
<wgt id='1710'> +1.5123592e-12 </wgt>
<wgt id='1711'> +1.5037069e-12 </wgt>
<wgt id='1712'> +1.5582186e-12 </wgt>
<wgt id='1713'> +1.2649980e-12 </wgt>
<wgt id='1714'> +1.2378642e-12 </wgt>
<wgt id='1715'> +1.2361915e-12 </wgt>
<wgt id='1716'> +1.2862794e-12 </wgt>
<wgt id='1717'> +1.2638495e-12 </wgt>
<wgt id='1718'> +1.2765798e-12 </wgt>
<wgt id='1719'> +1.2655726e-12 </wgt>
<wgt id='1720'> +1.2445628e-12 </wgt>
<wgt id='1721'> +1.2400734e-12 </wgt>
<wgt id='1722'> +1.2488027e-12 </wgt>
<wgt id='1723'> +1.2865257e-12 </wgt>
<wgt id='1724'> +1.3144809e-12 </wgt>
<wgt id='1725'> +1.2611807e-12 </wgt>
<wgt id='1726'> +1.2534500e-12 </wgt>
<wgt id='1727'> +1.3168367e-12 </wgt>
<wgt id='1728'> +1.2543562e-12 </wgt>
<wgt id='1729'> +1.2080336e-12 </wgt>
<wgt id='1730'> +1.2689855e-12 </wgt>
<wgt id='1731'> +1.2036661e-12 </wgt>
<wgt id='1732'> +1.2858514e-12 </wgt>
<wgt id='1733'> +1.2108803e-12 </wgt>
<wgt id='1734'> +1.3182312e-12 </wgt>
<wgt id='1735'> +1.2482618e-12 </wgt>
<wgt id='1736'> +1.2847984e-12 </wgt>
<wgt id='1737'> +1.3116605e-12 </wgt>
<wgt id='1738'> +1.2681591e-12 </wgt>
<wgt id='1739'> +1.2509856e-12 </wgt>
<wgt id='1740'> +1.2037818e-12 </wgt>
<wgt id='1741'> +1.3317544e-12 </wgt>
<wgt id='1742'> +1.2511766e-12 </wgt>
<wgt id='1743'> +1.2348533e-12 </wgt>
<wgt id='1744'> +1.2885437e-12 </wgt>
<wgt id='1745'> +1.2691366e-12 </wgt>
<wgt id='1746'> +1.2589280e-12 </wgt>
<wgt id='1747'> +1.2901158e-12 </wgt>
<wgt id='1748'> +1.2425271e-12 </wgt>
<wgt id='1749'> +1.2517922e-12 </wgt>
<wgt id='1750'> +1.2466639e-12 </wgt>
<wgt id='1751'> +1.2344765e-12 </wgt>
<wgt id='1752'> +1.2492202e-12 </wgt>
<wgt id='1753'> +1.2767371e-12 </wgt>
<wgt id='1754'> +1.2937993e-12 </wgt>
<wgt id='1755'> +1.2770714e-12 </wgt>
<wgt id='1756'> +1.2816541e-12 </wgt>
<wgt id='1757'> +1.2646860e-12 </wgt>
<wgt id='1758'> +1.3106706e-12 </wgt>
<wgt id='1759'> +1.2733824e-12 </wgt>
<wgt id='1760'> +1.2541075e-12 </wgt>
<wgt id='1761'> +1.2647749e-12 </wgt>
<wgt id='1762'> +1.2286664e-12 </wgt>
<wgt id='1763'> +1.2833355e-12 </wgt>
<wgt id='1764'> +1.3035233e-12 </wgt>
<wgt id='1765'> +1.2385752e-12 </wgt>
<wgt id='1766'> +1.2893240e-12 </wgt>
<wgt id='1767'> +1.2725875e-12 </wgt>
<wgt id='1768'> +1.2829366e-12 </wgt>
<wgt id='1769'> +1.2712252e-12 </wgt>
<wgt id='1770'> +1.2366830e-12 </wgt>
<wgt id='1771'> +1.3078384e-12 </wgt>
<wgt id='1772'> +1.2635666e-12 </wgt>
<wgt id='1773'> +1.2607146e-12 </wgt>
<wgt id='1774'> +1.2379053e-12 </wgt>
<wgt id='1775'> +1.2702410e-12 </wgt>
<wgt id='1776'> +1.3213149e-12 </wgt>
<wgt id='1777'> +1.2225840e-12 </wgt>
<wgt id='1778'> +1.2683354e-12 </wgt>
<wgt id='1779'> +1.2652051e-12 </wgt>
<wgt id='1780'> +1.2711575e-12 </wgt>
<wgt id='1781'> +1.2771087e-12 </wgt>
<wgt id='1782'> +1.2647716e-12 </wgt>
<wgt id='1783'> +1.2708674e-12 </wgt>
<wgt id='1784'> +1.2625532e-12 </wgt>
<wgt id='1785'> +1.2720015e-12 </wgt>
<wgt id='1786'> +1.2651263e-12 </wgt>
<wgt id='1787'> +1.3268333e-12 </wgt>
<wgt id='1788'> +1.2742780e-12 </wgt>
<wgt id='1789'> +1.3240466e-12 </wgt>
<wgt id='1790'> +1.2726148e-12 </wgt>
<wgt id='1791'> +1.2498812e-12 </wgt>
<wgt id='1792'> +1.2432471e-12 </wgt>
<wgt id='1793'> +1.2531007e-12 </wgt>
<wgt id='1794'> +1.2933412e-12 </wgt>
<wgt id='1795'> +1.2710666e-12 </wgt>
<wgt id='1796'> +1.2431779e-12 </wgt>
<wgt id='1797'> +1.2713836e-12 </wgt>
<wgt id='1798'> +1.2744777e-12 </wgt>
<wgt id='1799'> +1.2803147e-12 </wgt>
<wgt id='1800'> +1.2930610e-12 </wgt>
<wgt id='1801'> +1.2601232e-12 </wgt>
<wgt id='1802'> +1.2455587e-12 </wgt>
<wgt id='1803'> +1.2990509e-12 </wgt>
<wgt id='1804'> +1.2609300e-12 </wgt>
<wgt id='1805'> +1.2169363e-12 </wgt>
<wgt id='1806'> +1.2325295e-12 </wgt>
<wgt id='1807'> +1.2716537e-12 </wgt>
<wgt id='1808'> +1.2528878e-12 </wgt>
<wgt id='1809'> +1.2551768e-12 </wgt>
<wgt id='1810'> +1.2463389e-12 </wgt>
<wgt id='1811'> +1.2637535e-12 </wgt>
<wgt id='1812'> +1.2383613e-12 </wgt>
<wgt id='1813'> +1.1891985e-12 </wgt>
<wgt id='1814'> +1.6146815e-12 </wgt>
<wgt id='1815'> +1.9255077e-12 </wgt>
<wgt id='1816'> +1.2649980e-12 </wgt>
<wgt id='1817'> +1.2378642e-12 </wgt>
<wgt id='1818'> +1.2361915e-12 </wgt>
<wgt id='1819'> +1.2862794e-12 </wgt>
<wgt id='1820'> +1.2638495e-12 </wgt>
<wgt id='1821'> +1.2765798e-12 </wgt>
<wgt id='1822'> +1.2655726e-12 </wgt>
<wgt id='1823'> +1.2445628e-12 </wgt>
<wgt id='1824'> +1.2400734e-12 </wgt>
<wgt id='1825'> +1.2488027e-12 </wgt>
<wgt id='1826'> +1.2865257e-12 </wgt>
<wgt id='1827'> +1.3144809e-12 </wgt>
<wgt id='1828'> +1.2611807e-12 </wgt>
<wgt id='1829'> +1.2534500e-12 </wgt>
<wgt id='1830'> +1.3168367e-12 </wgt>
<wgt id='1831'> +1.2543562e-12 </wgt>
<wgt id='1832'> +1.2080336e-12 </wgt>
<wgt id='1833'> +1.2689855e-12 </wgt>
<wgt id='1834'> +1.2036661e-12 </wgt>
<wgt id='1835'> +1.2858514e-12 </wgt>
<wgt id='1836'> +1.2108803e-12 </wgt>
<wgt id='1837'> +1.3182312e-12 </wgt>
<wgt id='1838'> +1.2482618e-12 </wgt>
<wgt id='1839'> +1.2847984e-12 </wgt>
<wgt id='1840'> +1.3116605e-12 </wgt>
<wgt id='1841'> +1.2681591e-12 </wgt>
<wgt id='1842'> +1.2509856e-12 </wgt>
<wgt id='1843'> +1.2037818e-12 </wgt>
<wgt id='1844'> +1.3317544e-12 </wgt>
<wgt id='1845'> +1.2511766e-12 </wgt>
<wgt id='1846'> +1.2348533e-12 </wgt>
<wgt id='1847'> +1.2885437e-12 </wgt>
<wgt id='1848'> +1.2691366e-12 </wgt>
<wgt id='1849'> +1.2589280e-12 </wgt>
<wgt id='1850'> +1.2901158e-12 </wgt>
<wgt id='1851'> +1.2425271e-12 </wgt>
<wgt id='1852'> +1.2517922e-12 </wgt>
<wgt id='1853'> +1.2466639e-12 </wgt>
<wgt id='1854'> +1.2344765e-12 </wgt>
<wgt id='1855'> +1.2492202e-12 </wgt>
<wgt id='1856'> +1.2767371e-12 </wgt>
<wgt id='1857'> +1.2937993e-12 </wgt>
<wgt id='1858'> +1.2770714e-12 </wgt>
<wgt id='1859'> +1.2816541e-12 </wgt>
<wgt id='1860'> +1.2646860e-12 </wgt>
<wgt id='1861'> +1.3106706e-12 </wgt>
<wgt id='1862'> +1.2733824e-12 </wgt>
<wgt id='1863'> +1.2541075e-12 </wgt>
<wgt id='1864'> +1.2647749e-12 </wgt>
<wgt id='1865'> +1.2286664e-12 </wgt>
<wgt id='1866'> +1.2833355e-12 </wgt>
<wgt id='1867'> +1.3035233e-12 </wgt>
<wgt id='1868'> +1.2385752e-12 </wgt>
<wgt id='1869'> +1.2893240e-12 </wgt>
<wgt id='1870'> +1.2725875e-12 </wgt>
<wgt id='1871'> +1.2829366e-12 </wgt>
<wgt id='1872'> +1.2712252e-12 </wgt>
<wgt id='1873'> +1.2366830e-12 </wgt>
<wgt id='1874'> +1.3078384e-12 </wgt>
<wgt id='1875'> +1.2635666e-12 </wgt>
<wgt id='1876'> +1.2607146e-12 </wgt>
<wgt id='1877'> +1.2379053e-12 </wgt>
<wgt id='1878'> +1.2702410e-12 </wgt>
<wgt id='1879'> +1.3213149e-12 </wgt>
<wgt id='1880'> +1.2225840e-12 </wgt>
<wgt id='1881'> +1.2683354e-12 </wgt>
<wgt id='1882'> +1.2652051e-12 </wgt>
<wgt id='1883'> +1.2711575e-12 </wgt>
<wgt id='1884'> +1.2771087e-12 </wgt>
<wgt id='1885'> +1.2647716e-12 </wgt>
<wgt id='1886'> +1.2708674e-12 </wgt>
<wgt id='1887'> +1.2625532e-12 </wgt>
<wgt id='1888'> +1.2720015e-12 </wgt>
<wgt id='1889'> +1.2651263e-12 </wgt>
<wgt id='1890'> +1.3268333e-12 </wgt>
<wgt id='1891'> +1.2742780e-12 </wgt>
<wgt id='1892'> +1.3240466e-12 </wgt>
<wgt id='1893'> +1.2726148e-12 </wgt>
<wgt id='1894'> +1.2498812e-12 </wgt>
<wgt id='1895'> +1.2432471e-12 </wgt>
<wgt id='1896'> +1.2531007e-12 </wgt>
<wgt id='1897'> +1.2933412e-12 </wgt>
<wgt id='1898'> +1.2710666e-12 </wgt>
<wgt id='1899'> +1.2431779e-12 </wgt>
<wgt id='1900'> +1.2713836e-12 </wgt>
<wgt id='1901'> +1.2744777e-12 </wgt>
<wgt id='1902'> +1.2803147e-12 </wgt>
<wgt id='1903'> +1.2930610e-12 </wgt>
<wgt id='1904'> +1.2601232e-12 </wgt>
<wgt id='1905'> +1.2455587e-12 </wgt>
<wgt id='1906'> +1.2990509e-12 </wgt>
<wgt id='1907'> +1.2609300e-12 </wgt>
<wgt id='1908'> +1.2169363e-12 </wgt>
<wgt id='1909'> +1.2325295e-12 </wgt>
<wgt id='1910'> +1.2716537e-12 </wgt>
<wgt id='1911'> +1.2528878e-12 </wgt>
<wgt id='1912'> +1.2551768e-12 </wgt>
<wgt id='1913'> +1.2463389e-12 </wgt>
<wgt id='1914'> +1.2637535e-12 </wgt>
<wgt id='1915'> +1.2383613e-12 </wgt>
<wgt id='1916'> +1.1891985e-12 </wgt>
<wgt id='1917'> +1.2549225e-12 </wgt>
<wgt id='1918'> +1.2750685e-12 </wgt>
<wgt id='1919'> +1.2450831e-12 </wgt>
</rwgt>
</event>
<event>
 9      1 +1.5607000e-12 5.83636800e+01 7.81860800e-03 1.27481200e-01
       21 -1    0    0  501  502 +0.0000000000e+00 +0.0000000000e+00 +1.0998483793e+01 1.0998483793e+01 0.0000000000e+00 0.0000e+00 1.0000e+00
        4 -1    0    0  502    0 -0.0000000000e+00 -0.0000000000e+00 -7.7374681107e+01 7.7387710113e+01 1.4200000000e+00 0.0000e+00 1.0000e+00
     1023  2    1    2    0    0 -1.5629964257e+01 +2.2121243893e+01 -3.1055793397e+01 4.3853143855e+01 1.4999690277e+01 0.0000e+00 0.0000e+00
  1000023  2    3    3    0    0 -7.0187665964e+00 +1.7670031441e+01 -1.7220328834e+01 2.6235365984e+01 5.5010551254e+00 0.0000e+00 0.0000e+00
        4  1    1    2  501    0 +1.5629964257e+01 -2.2121243893e+01 -3.5320403917e+01 4.4533050051e+01 1.4200000000e+00 0.0000e+00 1.0000e+00
  1000022  1    4    4    0    0 -6.8796756481e+00 +1.6469749832e+01 -1.6431601767e+01 2.4770549715e+01 5.0000000000e+00 0.0000e+00 1.0000e+00
      -11  1    4    4    0    0 -3.7173939722e-02 +8.6856950215e-01 -6.7160984030e-01 1.0985694883e+00 5.1100000000e-04 0.0000e+00 1.0000e+00
       11  1    4    4    0    0 -1.0191700853e-01 +3.3171210614e-01 -1.1711722658e-01 3.6624678001e-01 5.1100000000e-04 0.0000e+00 -1.0000e+00
  1000022  1    3    3    0    0 -8.6111976607e+00 +4.4512124519e+00 -1.3835464563e+01 1.7617777871e+01 5.0000000000e+00 0.0000e+00 1.0000e+00
<mgrwt>
<rscale>  1 0.58363685E+02</rscale>
<asrwt>0</asrwt>
<pdfrwt beam="1">  1       21 0.16920744E-02 0.58363685E+02</pdfrwt>
<pdfrwt beam="2">  1        4 0.11911851E-01 0.58363685E+02</pdfrwt>
<totfact> 0.36363307E+06</totfact>
</mgrwt>
<rwgt>
<wgt id='1001'> +1.5607000e-12 </wgt>
<wgt id='1002'> +1.5549820e-12 </wgt>
<wgt id='1003'> +1.5587934e-12 </wgt>
<wgt id='1004'> +1.3950539e-12 </wgt>
<wgt id='1005'> +1.5607000e-12 </wgt>
<wgt id='1006'> +1.3877615e-12 </wgt>
<wgt id='1007'> +1.3817994e-12 </wgt>
<wgt id='1008'> +1.3857714e-12 </wgt>
<wgt id='1009'> +1.2194260e-12 </wgt>
<wgt id='1010'> +1.3877615e-12 </wgt>
<wgt id='1011'> +1.7849850e-12 </wgt>
<wgt id='1012'> +1.7799219e-12 </wgt>
<wgt id='1013'> +1.7832988e-12 </wgt>
<wgt id='1014'> +1.6327426e-12 </wgt>
<wgt id='1015'> +1.7849850e-12 </wgt>
<wgt id='1016'> +1.8748103e-12 </wgt>
<wgt id='1017'> +1.8718938e-12 </wgt>
<wgt id='1018'> +1.8738388e-12 </wgt>
<wgt id='1019'> +1.7832988e-12 </wgt>
<wgt id='1020'> +1.8748103e-12 </wgt>
<wgt id='1021'> +1.6670657e-12 </wgt>
<wgt id='1022'> +1.6634158e-12 </wgt>
<wgt id='1023'> +1.6658475e-12 </wgt>
<wgt id='1024'> +1.5587934e-12 </wgt>
<wgt id='1025'> +1.6670657e-12 </wgt>
<wgt id='1026'> +2.1442354e-12 </wgt>
<wgt id='1027'> +2.1426774e-12 </wgt>
<wgt id='1028'> +2.1437185e-12 </wgt>
<wgt id='1029'> +2.0871364e-12 </wgt>
<wgt id='1030'> +2.1442354e-12 </wgt>
<wgt id='1031'> +1.2222847e-12 </wgt>
<wgt id='1032'> +1.2137279e-12 </wgt>
<wgt id='1033'> +1.2194260e-12 </wgt>
<wgt id='1034'> +9.8875394e-13 </wgt>
<wgt id='1035'> +1.2222847e-12 </wgt>
<wgt id='1036'> +1.0868454e-12 </wgt>
<wgt id='1037'> +1.0785517e-12 </wgt>
<wgt id='1038'> +1.0840729e-12 </wgt>
<wgt id='1039'> +8.6427646e-13 </wgt>
<wgt id='1040'> +1.0868454e-12 </wgt>
<wgt id='1041'> +1.3979368e-12 </wgt>
<wgt id='1042'> +1.3893028e-12 </wgt>
<wgt id='1043'> +1.3950539e-12 </wgt>
<wgt id='1044'> +1.1572174e-12 </wgt>
<wgt id='1045'> +1.3979368e-12 </wgt>
<wgt id='1046'> +1.5607000e-12 </wgt>
<wgt id='1047'> +1.4432271e-12 </wgt>
<wgt id='1048'> +1.5742078e-12 </wgt>
<wgt id='1049'> +1.6160863e-12 </wgt>
<wgt id='1050'> +1.5665225e-12 </wgt>
<wgt id='1051'> +1.5690844e-12 </wgt>
<wgt id='1052'> +1.4596502e-12 </wgt>
<wgt id='1053'> +1.5718540e-12 </wgt>
<wgt id='1054'> +1.6094422e-12 </wgt>
<wgt id='1055'> +1.6517142e-12 </wgt>
<wgt id='1056'> +1.5959665e-12 </wgt>
<wgt id='1057'> +1.5577211e-12 </wgt>
<wgt id='1058'> +1.5533139e-12 </wgt>
<wgt id='1059'> +1.5805175e-12 </wgt>
<wgt id='1060'> +1.5270361e-12 </wgt>
<wgt id='1061'> +1.6074103e-12 </wgt>
<wgt id='1062'> +1.5816196e-12 </wgt>
<wgt id='1063'> +1.5906280e-12 </wgt>
<wgt id='1064'> +1.5552057e-12 </wgt>
<wgt id='1065'> +1.5509376e-12 </wgt>
<wgt id='1066'> +1.6348024e-12 </wgt>
<wgt id='1067'> +1.5708525e-12 </wgt>
<wgt id='1068'> +1.5364516e-12 </wgt>
<wgt id='1069'> +1.5395069e-12 </wgt>
<wgt id='1070'> +1.5577221e-12 </wgt>
<wgt id='1071'> +1.6108953e-12 </wgt>
<wgt id='1072'> +1.5729715e-12 </wgt>
<wgt id='1073'> +1.5622691e-12 </wgt>
<wgt id='1074'> +1.5357779e-12 </wgt>
<wgt id='1075'> +1.5551122e-12 </wgt>
<wgt id='1076'> +1.5975037e-12 </wgt>
<wgt id='1077'> +1.4959625e-12 </wgt>
<wgt id='1078'> +1.5990493e-12 </wgt>
<wgt id='1079'> +1.5139817e-12 </wgt>
<wgt id='1080'> +1.5415831e-12 </wgt>
<wgt id='1081'> +1.5468495e-12 </wgt>
<wgt id='1082'> +1.5433587e-12 </wgt>
<wgt id='1083'> +1.5809349e-12 </wgt>
<wgt id='1084'> +1.5624463e-12 </wgt>
<wgt id='1085'> +1.5451013e-12 </wgt>
<wgt id='1086'> +1.5609139e-12 </wgt>
<wgt id='1087'> +1.5647064e-12 </wgt>
<wgt id='1088'> +1.5040342e-12 </wgt>
<wgt id='1089'> +1.5102966e-12 </wgt>
<wgt id='1090'> +1.4775851e-12 </wgt>
<wgt id='1091'> +1.5264359e-12 </wgt>
<wgt id='1092'> +1.5040548e-12 </wgt>
<wgt id='1093'> +1.5156098e-12 </wgt>
<wgt id='1094'> +1.5754326e-12 </wgt>
<wgt id='1095'> +1.5463195e-12 </wgt>
<wgt id='1096'> +1.5449577e-12 </wgt>
<wgt id='1097'> +1.5185869e-12 </wgt>
<wgt id='1098'> +1.6143498e-12 </wgt>
<wgt id='1099'> +1.5681067e-12 </wgt>
<wgt id='1100'> +1.5118555e-12 </wgt>
<wgt id='1101'> +1.5120791e-12 </wgt>
<wgt id='1102'> +1.5409377e-12 </wgt>
<wgt id='1103'> +1.5248624e-12 </wgt>
<wgt id='1104'> +1.5814496e-12 </wgt>
<wgt id='1105'> +1.6199103e-12 </wgt>
<wgt id='1106'> +1.5300044e-12 </wgt>
<wgt id='1107'> +1.5505244e-12 </wgt>
<wgt id='1108'> +1.5898027e-12 </wgt>
<wgt id='1109'> +1.5079585e-12 </wgt>
<wgt id='1110'> +1.5815676e-12 </wgt>
<wgt id='1111'> +1.5494130e-12 </wgt>
<wgt id='1112'> +1.4914974e-12 </wgt>
<wgt id='1113'> +1.4605014e-12 </wgt>
<wgt id='1114'> +1.5956087e-12 </wgt>
<wgt id='1115'> +1.5519461e-12 </wgt>
<wgt id='1116'> +1.5522887e-12 </wgt>
<wgt id='1117'> +1.6312526e-12 </wgt>
<wgt id='1118'> +1.5313881e-12 </wgt>
<wgt id='1119'> +1.6708563e-12 </wgt>
<wgt id='1120'> +1.6671354e-12 </wgt>
<wgt id='1121'> +1.5893266e-12 </wgt>
<wgt id='1122'> +1.4790199e-12 </wgt>
<wgt id='1123'> +1.6681641e-12 </wgt>
<wgt id='1124'> +1.5656055e-12 </wgt>
<wgt id='1125'> +1.5757593e-12 </wgt>
<wgt id='1126'> +1.5158505e-12 </wgt>
<wgt id='1127'> +1.5317542e-12 </wgt>
<wgt id='1128'> +1.5816196e-12 </wgt>
<wgt id='1129'> +1.5134844e-12 </wgt>
<wgt id='1130'> +1.6096118e-12 </wgt>
<wgt id='1131'> +1.5951228e-12 </wgt>
<wgt id='1132'> +1.4570796e-12 </wgt>
<wgt id='1133'> +1.5792148e-12 </wgt>
<wgt id='1134'> +1.5421455e-12 </wgt>
<wgt id='1135'> +1.7021971e-12 </wgt>
<wgt id='1136'> +1.5260963e-12 </wgt>
<wgt id='1137'> +1.5184141e-12 </wgt>
<wgt id='1138'> +1.6248155e-12 </wgt>
<wgt id='1139'> +1.5959516e-12 </wgt>
<wgt id='1140'> +1.6049561e-12 </wgt>
<wgt id='1141'> +1.5578491e-12 </wgt>
<wgt id='1142'> +1.5445060e-12 </wgt>
<wgt id='1143'> +1.4834282e-12 </wgt>
<wgt id='1144'> +1.6180348e-12 </wgt>
<wgt id='1145'> +1.6506650e-12 </wgt>
<wgt id='1146'> +1.5971017e-12 </wgt>
<wgt id='1147'> +1.3087974e-12 </wgt>
<wgt id='1148'> +1.3479201e-12 </wgt>
<wgt id='1149'> +1.3248378e-12 </wgt>
<wgt id='1150'> +1.3263763e-12 </wgt>
<wgt id='1151'> +1.1144209e-12 </wgt>
<wgt id='1152'> +1.6529982e-12 </wgt>
<wgt id='1153'> +1.6453283e-12 </wgt>
<wgt id='1154'> +1.6574637e-12 </wgt>
<wgt id='1155'> +1.6538648e-12 </wgt>
<wgt id='1156'> +1.6526095e-12 </wgt>
<wgt id='1157'> +1.6491618e-12 </wgt>
<wgt id='1158'> +1.6581461e-12 </wgt>
<wgt id='1159'> +1.6498323e-12 </wgt>
<wgt id='1160'> +1.6550647e-12 </wgt>
<wgt id='1161'> +1.6436835e-12 </wgt>
<wgt id='1162'> +1.6594072e-12 </wgt>
<wgt id='1163'> +1.6578964e-12 </wgt>
<wgt id='1164'> +1.6481408e-12 </wgt>
<wgt id='1165'> +1.6361825e-12 </wgt>
<wgt id='1166'> +1.6693798e-12 </wgt>
<wgt id='1167'> +1.6675340e-12 </wgt>
<wgt id='1168'> +1.6328065e-12 </wgt>
<wgt id='1169'> +1.6583932e-12 </wgt>
<wgt id='1170'> +1.6489630e-12 </wgt>
<wgt id='1171'> +1.6498296e-12 </wgt>
<wgt id='1172'> +1.6568278e-12 </wgt>
<wgt id='1173'> +1.6411752e-12 </wgt>
<wgt id='1174'> +1.6643389e-12 </wgt>
<wgt id='1175'> +1.6544640e-12 </wgt>
<wgt id='1176'> +1.6506409e-12 </wgt>
<wgt id='1177'> +1.6535838e-12 </wgt>
<wgt id='1178'> +1.6518254e-12 </wgt>
<wgt id='1179'> +1.6695241e-12 </wgt>
<wgt id='1180'> +1.6303873e-12 </wgt>
<wgt id='1181'> +1.6458454e-12 </wgt>
<wgt id='1182'> +1.6599270e-12 </wgt>
<wgt id='1183'> +1.6521836e-12 </wgt>
<wgt id='1184'> +1.6531553e-12 </wgt>
<wgt id='1185'> +1.6538629e-12 </wgt>
<wgt id='1186'> +1.6525963e-12 </wgt>
<wgt id='1187'> +1.6522337e-12 </wgt>
<wgt id='1188'> +1.6532470e-12 </wgt>
<wgt id='1189'> +1.6478298e-12 </wgt>
<wgt id='1190'> +1.6395028e-12 </wgt>
<wgt id='1191'> +1.6386262e-12 </wgt>
<wgt id='1192'> +1.6594831e-12 </wgt>
<wgt id='1193'> +1.3586281e-12 </wgt>
<wgt id='1194'> +1.3575430e-12 </wgt>
<wgt id='1195'> +1.3595079e-12 </wgt>
<wgt id='1196'> +1.3611505e-12 </wgt>
<wgt id='1197'> +1.3558998e-12 </wgt>
<wgt id='1198'> +1.3614420e-12 </wgt>
<wgt id='1199'> +1.3544758e-12 </wgt>
<wgt id='1200'> +1.3603569e-12 </wgt>
<wgt id='1201'> +1.3575065e-12 </wgt>
<wgt id='1202'> +1.3547845e-12 </wgt>
<wgt id='1203'> +1.3641309e-12 </wgt>
<wgt id='1204'> +1.3362201e-12 </wgt>
<wgt id='1205'> +1.3725666e-12 </wgt>
<wgt id='1206'> +1.3651371e-12 </wgt>
<wgt id='1207'> +1.3498341e-12 </wgt>
<wgt id='1208'> +1.3498537e-12 </wgt>
<wgt id='1209'> +1.3618432e-12 </wgt>
<wgt id='1210'> +1.3630595e-12 </wgt>
<wgt id='1211'> +1.3447553e-12 </wgt>
<wgt id='1212'> +1.3559305e-12 </wgt>
<wgt id='1213'> +1.3611830e-12 </wgt>
<wgt id='1214'> +1.3471305e-12 </wgt>
<wgt id='1215'> +1.3762610e-12 </wgt>
<wgt id='1216'> +1.3675375e-12 </wgt>
<wgt id='1217'> +1.3526494e-12 </wgt>
<wgt id='1218'> +1.3664432e-12 </wgt>
<wgt id='1219'> +1.3546315e-12 </wgt>
<wgt id='1220'> +1.3632503e-12 </wgt>
<wgt id='1221'> +1.3581618e-12 </wgt>
<wgt id='1222'> +1.3566448e-12 </wgt>
<wgt id='1223'> +1.3650481e-12 </wgt>
<wgt id='1224'> +1.3600519e-12 </wgt>
<wgt id='1225'> +1.3580897e-12 </wgt>
<wgt id='1226'> +1.3597021e-12 </wgt>
<wgt id='1227'> +1.3581299e-12 </wgt>
<wgt id='1228'> +1.3534235e-12 </wgt>
<wgt id='1229'> +1.3611566e-12 </wgt>
<wgt id='1230'> +1.3588122e-12 </wgt>
<wgt id='1231'> +1.3447313e-12 </wgt>
<wgt id='1232'> +1.3547954e-12 </wgt>
<wgt id='1233'> +1.3597238e-12 </wgt>
<wgt id='1234'> +1.3586281e-12 </wgt>
<wgt id='1235'> +1.3462438e-12 </wgt>
<wgt id='1236'> +1.3508700e-12 </wgt>
<wgt id='1237'> +1.3550532e-12 </wgt>
<wgt id='1238'> +1.3623913e-12 </wgt>
<wgt id='1239'> +1.3653483e-12 </wgt>
<wgt id='1240'> +1.3681511e-12 </wgt>
<wgt id='1241'> +1.2871654e-12 </wgt>
<wgt id='1242'> +1.2815804e-12 </wgt>
<wgt id='1243'> +1.2927466e-12 </wgt>
<wgt id='1244'> +1.2804631e-12 </wgt>
<wgt id='1245'> +1.2921543e-12 </wgt>
<wgt id='1246'> +1.2888698e-12 </wgt>
<wgt id='1247'> +1.2857512e-12 </wgt>
<wgt id='1248'> +1.2870098e-12 </wgt>
<wgt id='1249'> +1.2873356e-12 </wgt>
<wgt id='1250'> +1.2829904e-12 </wgt>
<wgt id='1251'> +1.2901309e-12 </wgt>
<wgt id='1252'> +1.2836353e-12 </wgt>
<wgt id='1253'> +1.2899144e-12 </wgt>
<wgt id='1254'> +1.2655198e-12 </wgt>
<wgt id='1255'> +1.3002662e-12 </wgt>
<wgt id='1256'> +1.2930697e-12 </wgt>
<wgt id='1257'> +1.2723315e-12 </wgt>
<wgt id='1258'> +1.3037318e-12 </wgt>
<wgt id='1259'> +1.2709058e-12 </wgt>
<wgt id='1260'> +1.2923370e-12 </wgt>
<wgt id='1261'> +1.2812646e-12 </wgt>
<wgt id='1262'> +1.2908961e-12 </wgt>
<wgt id='1263'> +1.2854771e-12 </wgt>
<wgt id='1264'> +1.2983569e-12 </wgt>
<wgt id='1265'> +1.2817680e-12 </wgt>
<wgt id='1266'> +1.2827972e-12 </wgt>
<wgt id='1267'> +1.2925583e-12 </wgt>
<wgt id='1268'> +1.2875317e-12 </wgt>
<wgt id='1269'> +1.2913374e-12 </wgt>
<wgt id='1270'> +1.2785279e-12 </wgt>
<wgt id='1271'> +1.2810050e-12 </wgt>
<wgt id='1272'> +1.2879080e-12 </wgt>
<wgt id='1273'> +1.2863135e-12 </wgt>
<wgt id='1274'> +1.2874603e-12 </wgt>
<wgt id='1275'> +1.2854191e-12 </wgt>
<wgt id='1276'> +1.2888690e-12 </wgt>
<wgt id='1277'> +1.2846252e-12 </wgt>
<wgt id='1278'> +1.2855776e-12 </wgt>
<wgt id='1279'> +1.2825508e-12 </wgt>
<wgt id='1280'> +1.2885051e-12 </wgt>
<wgt id='1281'> +1.2805500e-12 </wgt>
<wgt id='1282'> +1.2871654e-12 </wgt>
<wgt id='1283'> +1.2747723e-12 </wgt>
<wgt id='1284'> +1.2794828e-12 </wgt>
<wgt id='1285'> +1.2837011e-12 </wgt>
<wgt id='1286'> +1.2907401e-12 </wgt>
<wgt id='1287'> +1.2936084e-12 </wgt>
<wgt id='1288'> +1.2960666e-12 </wgt>
<wgt id='1289'> +1.4093764e-12 </wgt>
<wgt id='1290'> +1.4113351e-12 </wgt>
<wgt id='1291'> +1.4073476e-12 </wgt>
<wgt id='1292'> +1.4100628e-12 </wgt>
<wgt id='1293'> +1.4089300e-12 </wgt>
<wgt id='1294'> +1.4103234e-12 </wgt>
<wgt id='1295'> +1.4085019e-12 </wgt>
<wgt id='1296'> +1.4036368e-12 </wgt>
<wgt id='1297'> +1.4165117e-12 </wgt>
<wgt id='1298'> +1.4182282e-12 </wgt>
<wgt id='1299'> +1.3983542e-12 </wgt>
<wgt id='1300'> +1.4138414e-12 </wgt>
<wgt id='1301'> +1.4004537e-12 </wgt>
<wgt id='1302'> +1.4079397e-12 </wgt>
<wgt id='1303'> +1.4114728e-12 </wgt>
<wgt id='1304'> +1.4041051e-12 </wgt>
<wgt id='1305'> +1.4130109e-12 </wgt>
<wgt id='1306'> +1.3990825e-12 </wgt>
<wgt id='1307'> +1.4210253e-12 </wgt>
<wgt id='1308'> +1.4080662e-12 </wgt>
<wgt id='1309'> +1.4103920e-12 </wgt>
<wgt id='1310'> +1.4056220e-12 </wgt>
<wgt id='1311'> +1.4135701e-12 </wgt>
<wgt id='1312'> +1.4010664e-12 </wgt>
<wgt id='1313'> +1.4180491e-12 </wgt>
<wgt id='1314'> +1.4215613e-12 </wgt>
<wgt id='1315'> +1.3897392e-12 </wgt>
<wgt id='1316'> +1.4158210e-12 </wgt>
<wgt id='1317'> +1.4099038e-12 </wgt>
<wgt id='1318'> +1.4235857e-12 </wgt>
<wgt id='1319'> +1.3929041e-12 </wgt>
<wgt id='1320'> +1.4164462e-12 </wgt>
<wgt id='1321'> +1.4027099e-12 </wgt>
<wgt id='1322'> +1.4111595e-12 </wgt>
<wgt id='1323'> +1.4069070e-12 </wgt>
<wgt id='1324'> +1.4081142e-12 </wgt>
<wgt id='1325'> +1.4167013e-12 </wgt>
<wgt id='1326'> +1.4129437e-12 </wgt>
<wgt id='1327'> +1.4087770e-12 </wgt>
<wgt id='1328'> +1.4081365e-12 </wgt>
<wgt id='1329'> +1.4104382e-12 </wgt>
<wgt id='1330'> +1.4079143e-12 </wgt>
<wgt id='1331'> +1.4116278e-12 </wgt>
<wgt id='1332'> +1.4362580e-12 </wgt>
<wgt id='1333'> +1.3992685e-12 </wgt>
<wgt id='1334'> +1.4076629e-12 </wgt>
<wgt id='1335'> +1.4143477e-12 </wgt>
<wgt id='1336'> +1.4044421e-12 </wgt>
<wgt id='1337'> +1.4059314e-12 </wgt>
<wgt id='1338'> +1.4079504e-12 </wgt>
<wgt id='1339'> +1.4098325e-12 </wgt>
<wgt id='1340'> +1.3733680e-12 </wgt>
<wgt id='1341'> +1.3754097e-12 </wgt>
<wgt id='1342'> +1.3712564e-12 </wgt>
<wgt id='1343'> +1.3741082e-12 </wgt>
<wgt id='1344'> +1.3729079e-12 </wgt>
<wgt id='1345'> +1.3741033e-12 </wgt>
<wgt id='1346'> +1.3727192e-12 </wgt>
<wgt id='1347'> +1.3676625e-12 </wgt>
<wgt id='1348'> +1.3797650e-12 </wgt>
<wgt id='1349'> +1.3815841e-12 </wgt>
<wgt id='1350'> +1.3653630e-12 </wgt>
<wgt id='1351'> +1.3778443e-12 </wgt>
<wgt id='1352'> +1.3636547e-12 </wgt>
<wgt id='1353'> +1.3709689e-12 </wgt>
<wgt id='1354'> +1.3776007e-12 </wgt>
<wgt id='1355'> +1.3679993e-12 </wgt>
<wgt id='1356'> +1.3764111e-12 </wgt>
<wgt id='1357'> +1.3621969e-12 </wgt>
<wgt id='1358'> +1.3866269e-12 </wgt>
<wgt id='1359'> +1.3745994e-12 </wgt>
<wgt id='1360'> +1.3723223e-12 </wgt>
<wgt id='1361'> +1.3695040e-12 </wgt>
<wgt id='1362'> +1.3786208e-12 </wgt>
<wgt id='1363'> +1.3612564e-12 </wgt>
<wgt id='1364'> +1.3820810e-12 </wgt>
<wgt id='1365'> +1.3573282e-12 </wgt>
<wgt id='1366'> +1.3838335e-12 </wgt>
<wgt id='1367'> +1.3790431e-12 </wgt>
<wgt id='1368'> +1.3737120e-12 </wgt>
<wgt id='1369'> +1.3851378e-12 </wgt>
<wgt id='1370'> +1.3595458e-12 </wgt>
<wgt id='1371'> +1.3793890e-12 </wgt>
<wgt id='1372'> +1.3657121e-12 </wgt>
<wgt id='1373'> +1.3750446e-12 </wgt>
<wgt id='1374'> +1.3713597e-12 </wgt>
<wgt id='1375'> +1.3720156e-12 </wgt>
<wgt id='1376'> +1.3810066e-12 </wgt>
<wgt id='1377'> +1.3766636e-12 </wgt>
<wgt id='1378'> +1.3734448e-12 </wgt>
<wgt id='1379'> +1.3719984e-12 </wgt>
<wgt id='1380'> +1.3747569e-12 </wgt>
<wgt id='1381'> +1.3732521e-12 </wgt>
<wgt id='1382'> +1.3739800e-12 </wgt>
<wgt id='1383'> +1.3984197e-12 </wgt>
<wgt id='1384'> +1.3640052e-12 </wgt>
<wgt id='1385'> +1.3719912e-12 </wgt>
<wgt id='1386'> +1.3770953e-12 </wgt>
<wgt id='1387'> +1.3673949e-12 </wgt>
<wgt id='1388'> +1.3696060e-12 </wgt>
<wgt id='1389'> +1.3706306e-12 </wgt>
<wgt id='1390'> +1.3739996e-12 </wgt>
<wgt id='1391'> +1.3523799e-12 </wgt>
<wgt id='1392'> +1.3020618e-12 </wgt>
<wgt id='1393'> +1.3189941e-12 </wgt>
<wgt id='1394'> +1.3360151e-12 </wgt>
<wgt id='1395'> +1.3684066e-12 </wgt>
<wgt id='1396'> +1.3521660e-12 </wgt>
<wgt id='1397'> +1.4192677e-12 </wgt>
<wgt id='1398'> +1.4036796e-12 </wgt>
<wgt id='1399'> +1.3895511e-12 </wgt>
<wgt id='1400'> +1.3764722e-12 </wgt>
<wgt id='1401'> +1.3639788e-12 </wgt>
<wgt id='1402'> +1.3413616e-12 </wgt>
<wgt id='1403'> +1.3313037e-12 </wgt>
<wgt id='1404'> +1.3219158e-12 </wgt>
<wgt id='1405'> +1.3521660e-12 </wgt>
<wgt id='1406'> +1.3432533e-12 </wgt>
<wgt id='1407'> +1.3479014e-12 </wgt>
<wgt id='1408'> +1.3561964e-12 </wgt>
<wgt id='1409'> +1.3596076e-12 </wgt>
<wgt id='1410'> +1.2773028e-12 </wgt>
<wgt id='1411'> +1.2787448e-12 </wgt>
<wgt id='1412'> +1.2755043e-12 </wgt>
<wgt id='1413'> +1.2812920e-12 </wgt>
<wgt id='1414'> +1.2733879e-12 </wgt>
<wgt id='1415'> +1.2795819e-12 </wgt>
<wgt id='1416'> +1.2764387e-12 </wgt>
<wgt id='1417'> +1.2699153e-12 </wgt>
<wgt id='1418'> +1.2847855e-12 </wgt>
<wgt id='1419'> +1.2812664e-12 </wgt>
<wgt id='1420'> +1.2735229e-12 </wgt>
<wgt id='1421'> +1.2572371e-12 </wgt>
<wgt id='1422'> +1.2860588e-12 </wgt>
<wgt id='1423'> +1.2772271e-12 </wgt>
<wgt id='1424'> +1.2774125e-12 </wgt>
<wgt id='1425'> +1.2712103e-12 </wgt>
<wgt id='1426'> +1.2839679e-12 </wgt>
<wgt id='1427'> +1.2657523e-12 </wgt>
<wgt id='1428'> +1.2835652e-12 </wgt>
<wgt id='1429'> +1.2749270e-12 </wgt>
<wgt id='1430'> +1.2806216e-12 </wgt>
<wgt id='1431'> +1.2775604e-12 </wgt>
<wgt id='1432'> +1.2771454e-12 </wgt>
<wgt id='1433'> +1.2902081e-12 </wgt>
<wgt id='1434'> +1.2638653e-12 </wgt>
<wgt id='1435'> +1.2834062e-12 </wgt>
<wgt id='1436'> +1.2626169e-12 </wgt>
<wgt id='1437'> +1.2854521e-12 </wgt>
<wgt id='1438'> +1.2752425e-12 </wgt>
<wgt id='1439'> +1.2690023e-12 </wgt>
<wgt id='1440'> +1.2975273e-12 </wgt>
<wgt id='1441'> +1.2789496e-12 </wgt>
<wgt id='1442'> +1.2745015e-12 </wgt>
<wgt id='1443'> +1.2748303e-12 </wgt>
<wgt id='1444'> +1.2837097e-12 </wgt>
<wgt id='1445'> +1.2841494e-12 </wgt>
<wgt id='1446'> +1.2756283e-12 </wgt>
<wgt id='1447'> +1.2781088e-12 </wgt>
<wgt id='1448'> +1.2786101e-12 </wgt>
<wgt id='1449'> +1.2763225e-12 </wgt>
<wgt id='1450'> +1.2779221e-12 </wgt>
<wgt id='1451'> +1.2742149e-12 </wgt>
<wgt id='1452'> +1.2802999e-12 </wgt>
<wgt id='1453'> +1.2784686e-12 </wgt>
<wgt id='1454'> +1.2706952e-12 </wgt>
<wgt id='1455'> +1.2706214e-12 </wgt>
<wgt id='1456'> +1.2786090e-12 </wgt>
<wgt id='1457'> +1.2772884e-12 </wgt>
<wgt id='1458'> +1.2771274e-12 </wgt>
<wgt id='1459'> +1.2803969e-12 </wgt>
<wgt id='1460'> +1.2735188e-12 </wgt>
<wgt id='1461'> +1.2773028e-12 </wgt>
<wgt id='1462'> +1.2682480e-12 </wgt>
<wgt id='1463'> +1.2863750e-12 </wgt>
<wgt id='1464'> +1.2782109e-12 </wgt>
<wgt id='1465'> +1.3384481e-12 </wgt>
<wgt id='1466'> +1.3242415e-12 </wgt>
<wgt id='1467'> +1.3114090e-12 </wgt>
<wgt id='1468'> +1.3007466e-12 </wgt>
<wgt id='1469'> +1.2885899e-12 </wgt>
<wgt id='1470'> +1.2692692e-12 </wgt>
<wgt id='1471'> +1.2590296e-12 </wgt>
<wgt id='1472'> +1.2501600e-12 </wgt>
<wgt id='1473'> +1.2782109e-12 </wgt>
<wgt id='1474'> +1.2697734e-12 </wgt>
<wgt id='1475'> +1.2744539e-12 </wgt>
<wgt id='1476'> +1.2817621e-12 </wgt>
<wgt id='1477'> +1.2848172e-12 </wgt>
<wgt id='1478'> +1.3217722e-12 </wgt>
<wgt id='1479'> +1.3221770e-12 </wgt>
<wgt id='1480'> +1.3195778e-12 </wgt>
<wgt id='1481'> +1.3089328e-12 </wgt>
<wgt id='1482'> +1.3276287e-12 </wgt>
<wgt id='1483'> +1.3127573e-12 </wgt>
<wgt id='1484'> +1.3211527e-12 </wgt>
<wgt id='1485'> +1.3391001e-12 </wgt>
<wgt id='1486'> +1.3213757e-12 </wgt>
<wgt id='1487'> +1.3252250e-12 </wgt>
<wgt id='1488'> +1.3160871e-12 </wgt>
<wgt id='1489'> +1.3517516e-12 </wgt>
<wgt id='1490'> +1.3238209e-12 </wgt>
<wgt id='1491'> +1.3257290e-12 </wgt>
<wgt id='1492'> +1.3185314e-12 </wgt>
<wgt id='1493'> +1.3102814e-12 </wgt>
<wgt id='1494'> +1.3232666e-12 </wgt>
<wgt id='1495'> +1.3314317e-12 </wgt>
<wgt id='1496'> +1.3206718e-12 </wgt>
<wgt id='1497'> +1.3262672e-12 </wgt>
<wgt id='1498'> +1.3200146e-12 </wgt>
<wgt id='1499'> +1.3259604e-12 </wgt>
<wgt id='1500'> +1.3213629e-12 </wgt>
<wgt id='1501'> +1.3203832e-12 </wgt>
<wgt id='1502'> +1.3219845e-12 </wgt>
<wgt id='1503'> +1.3239061e-12 </wgt>
<wgt id='1504'> +1.3228342e-12 </wgt>
<wgt id='1505'> +1.3225120e-12 </wgt>
<wgt id='1506'> +1.3240768e-12 </wgt>
<wgt id='1507'> +1.3212348e-12 </wgt>
<wgt id='1508'> +1.3299583e-12 </wgt>
<wgt id='1509'> +1.2395386e-12 </wgt>
<wgt id='1510'> +1.2364580e-12 </wgt>
<wgt id='1511'> +1.2424054e-12 </wgt>
<wgt id='1512'> +1.2422619e-12 </wgt>
<wgt id='1513'> +1.2376206e-12 </wgt>
<wgt id='1514'> +1.2381275e-12 </wgt>
<wgt id='1515'> +1.2392755e-12 </wgt>
<wgt id='1516'> +1.2404189e-12 </wgt>
<wgt id='1517'> +1.2447617e-12 </wgt>
<wgt id='1518'> +1.2332178e-12 </wgt>
<wgt id='1519'> +1.2403843e-12 </wgt>
<wgt id='1520'> +1.2513962e-12 </wgt>
<wgt id='1521'> +1.2457097e-12 </wgt>
<wgt id='1522'> +1.2534806e-12 </wgt>
<wgt id='1523'> +1.2382962e-12 </wgt>
<wgt id='1524'> +1.2374768e-12 </wgt>
<wgt id='1525'> +1.2308707e-12 </wgt>
<wgt id='1526'> +1.2429780e-12 </wgt>
<wgt id='1527'> +1.2484310e-12 </wgt>
<wgt id='1528'> +1.2378466e-12 </wgt>
<wgt id='1529'> +1.2456665e-12 </wgt>
<wgt id='1530'> +1.2285452e-12 </wgt>
<wgt id='1531'> +1.2400048e-12 </wgt>
<wgt id='1532'> +1.2468375e-12 </wgt>
<wgt id='1533'> +1.2368095e-12 </wgt>
<wgt id='1534'> +1.2337313e-12 </wgt>
<wgt id='1535'> +1.2506598e-12 </wgt>
<wgt id='1536'> +1.2414466e-12 </wgt>
<wgt id='1537'> +1.2408337e-12 </wgt>
<wgt id='1538'> +1.2414438e-12 </wgt>
<wgt id='1539'> +1.2353972e-12 </wgt>
<wgt id='1540'> +1.2347958e-12 </wgt>
<wgt id='1541'> +1.2378032e-12 </wgt>
<wgt id='1542'> +1.2372104e-12 </wgt>
<wgt id='1543'> +1.2405091e-12 </wgt>
<wgt id='1544'> +1.2403803e-12 </wgt>
<wgt id='1545'> +1.2379984e-12 </wgt>
<wgt id='1546'> +1.2425485e-12 </wgt>
<wgt id='1547'> +1.2372112e-12 </wgt>
<wgt id='1548'> +1.2431217e-12 </wgt>
<wgt id='1549'> +1.2408068e-12 </wgt>
<wgt id='1550'> +1.2373950e-12 </wgt>
<wgt id='1551'> +1.2410824e-12 </wgt>
<wgt id='1552'> +1.2403042e-12 </wgt>
<wgt id='1553'> +1.2363316e-12 </wgt>
<wgt id='1554'> +1.2331847e-12 </wgt>
<wgt id='1555'> +1.2354148e-12 </wgt>
<wgt id='1556'> +1.2429675e-12 </wgt>
<wgt id='1557'> +1.2356580e-12 </wgt>
<wgt id='1558'> +1.2428371e-12 </wgt>
<wgt id='1559'> +1.2378349e-12 </wgt>
<wgt id='1560'> +1.2366329e-12 </wgt>
<wgt id='1561'> +1.2431971e-12 </wgt>
<wgt id='1562'> +1.2395395e-12 </wgt>
<wgt id='1563'> +1.2395878e-12 </wgt>
<wgt id='1564'> +1.2415006e-12 </wgt>
<wgt id='1565'> +1.2397596e-12 </wgt>
<wgt id='1566'> +1.2361301e-12 </wgt>
<wgt id='1567'> +1.2353170e-12 </wgt>
<wgt id='1568'> +1.2408721e-12 </wgt>
<wgt id='1569'> +1.2377571e-12 </wgt>
<wgt id='1570'> +1.2442849e-12 </wgt>
<wgt id='1571'> +1.2387538e-12 </wgt>
<wgt id='1572'> +1.2416596e-12 </wgt>
<wgt id='1573'> +1.2410399e-12 </wgt>
<wgt id='1574'> +1.2385530e-12 </wgt>
<wgt id='1575'> +1.2388850e-12 </wgt>
<wgt id='1576'> +1.2419509e-12 </wgt>
<wgt id='1577'> +1.2380524e-12 </wgt>
<wgt id='1578'> +1.2382219e-12 </wgt>
<wgt id='1579'> +1.2404204e-12 </wgt>
<wgt id='1580'> +1.2430117e-12 </wgt>
<wgt id='1581'> +1.2380467e-12 </wgt>
<wgt id='1582'> +1.2383778e-12 </wgt>
<wgt id='1583'> +1.2397525e-12 </wgt>
<wgt id='1584'> +1.2408964e-12 </wgt>
<wgt id='1585'> +1.2394422e-12 </wgt>
<wgt id='1586'> +1.2423649e-12 </wgt>
<wgt id='1587'> +1.2385839e-12 </wgt>
<wgt id='1588'> +1.2375405e-12 </wgt>
<wgt id='1589'> +1.2388118e-12 </wgt>
<wgt id='1590'> +1.2393079e-12 </wgt>
<wgt id='1591'> +1.2387790e-12 </wgt>
<wgt id='1592'> +1.2410806e-12 </wgt>
<wgt id='1593'> +1.2401512e-12 </wgt>
<wgt id='1594'> +1.2391264e-12 </wgt>
<wgt id='1595'> +1.2378669e-12 </wgt>
<wgt id='1596'> +1.2378907e-12 </wgt>
<wgt id='1597'> +1.2394969e-12 </wgt>
<wgt id='1598'> +1.2394990e-12 </wgt>
<wgt id='1599'> +1.2394236e-12 </wgt>
<wgt id='1600'> +1.2366079e-12 </wgt>
<wgt id='1601'> +1.2402455e-12 </wgt>
<wgt id='1602'> +1.2393388e-12 </wgt>
<wgt id='1603'> +1.2411359e-12 </wgt>
<wgt id='1604'> +1.2388529e-12 </wgt>
<wgt id='1605'> +1.2412624e-12 </wgt>
<wgt id='1606'> +1.2381875e-12 </wgt>
<wgt id='1607'> +1.2388903e-12 </wgt>
<wgt id='1608'> +1.2392824e-12 </wgt>
<wgt id='1609'> +1.2409841e-12 </wgt>
<wgt id='1610'> +1.2046055e-12 </wgt>
<wgt id='1611'> +1.2718771e-12 </wgt>
<wgt id='1612'> +1.4576161e-12 </wgt>
<wgt id='1613'> +1.5310880e-12 </wgt>
<wgt id='1614'> +1.4743546e-12 </wgt>
<wgt id='1615'> +1.4594775e-12 </wgt>
<wgt id='1616'> +1.5420563e-12 </wgt>
<wgt id='1617'> +1.3554191e-12 </wgt>
<wgt id='1618'> +1.2765405e-12 </wgt>
<wgt id='1619'> +1.4625577e-12 </wgt>
<wgt id='1620'> +1.5016783e-12 </wgt>
<wgt id='1621'> +1.4385931e-12 </wgt>
<wgt id='1622'> +1.4365105e-12 </wgt>
<wgt id='1623'> +1.4893154e-12 </wgt>
<wgt id='1624'> +1.4337118e-12 </wgt>
<wgt id='1625'> +1.5009583e-12 </wgt>
<wgt id='1626'> +1.5399565e-12 </wgt>
<wgt id='1627'> +1.4551318e-12 </wgt>
<wgt id='1628'> +1.5036367e-12 </wgt>
<wgt id='1629'> +1.5046407e-12 </wgt>
<wgt id='1630'> +1.4725357e-12 </wgt>
<wgt id='1631'> +1.4459833e-12 </wgt>
<wgt id='1632'> +1.5733625e-12 </wgt>
<wgt id='1633'> +1.4679494e-12 </wgt>
<wgt id='1634'> +1.4871171e-12 </wgt>
<wgt id='1635'> +1.4399061e-12 </wgt>
<wgt id='1636'> +1.4123186e-12 </wgt>
<wgt id='1637'> +1.4085992e-12 </wgt>
<wgt id='1638'> +1.4674450e-12 </wgt>
<wgt id='1639'> +1.4976498e-12 </wgt>
<wgt id='1640'> +1.5437330e-12 </wgt>
<wgt id='1641'> +1.4602140e-12 </wgt>
<wgt id='1642'> +1.4992840e-12 </wgt>
<wgt id='1643'> +1.5316038e-12 </wgt>
<wgt id='1644'> +1.4175561e-12 </wgt>
<wgt id='1645'> +1.4918204e-12 </wgt>
<wgt id='1646'> +1.5350843e-12 </wgt>
<wgt id='1647'> +1.5255813e-12 </wgt>
<wgt id='1648'> +1.4315207e-12 </wgt>
<wgt id='1649'> +1.2935628e-12 </wgt>
<wgt id='1650'> +1.5216849e-12 </wgt>
<wgt id='1651'> +1.4528805e-12 </wgt>
<wgt id='1652'> +1.5482976e-12 </wgt>
<wgt id='1653'> +1.3672091e-12 </wgt>
<wgt id='1654'> +1.3724934e-12 </wgt>
<wgt id='1655'> +1.3938740e-12 </wgt>
<wgt id='1656'> +1.5004160e-12 </wgt>
<wgt id='1657'> +1.4314024e-12 </wgt>
<wgt id='1658'> +1.4742220e-12 </wgt>
<wgt id='1659'> +1.4337118e-12 </wgt>
<wgt id='1660'> +1.3768960e-12 </wgt>
<wgt id='1661'> +1.4426017e-12 </wgt>
<wgt id='1662'> +1.4533944e-12 </wgt>
<wgt id='1663'> +1.4595531e-12 </wgt>
<wgt id='1664'> +1.5357847e-12 </wgt>
<wgt id='1665'> +1.5439203e-12 </wgt>
<wgt id='1666'> +1.4428386e-12 </wgt>
<wgt id='1667'> +1.4288206e-12 </wgt>
<wgt id='1668'> +1.4255376e-12 </wgt>
<wgt id='1669'> +1.4513654e-12 </wgt>
<wgt id='1670'> +1.4800258e-12 </wgt>
<wgt id='1671'> +1.5163237e-12 </wgt>
<wgt id='1672'> +1.4447808e-12 </wgt>
<wgt id='1673'> +1.3871708e-12 </wgt>
<wgt id='1674'> +1.4797758e-12 </wgt>
<wgt id='1675'> +1.5247934e-12 </wgt>
<wgt id='1676'> +1.4314008e-12 </wgt>
<wgt id='1677'> +1.4556106e-12 </wgt>
<wgt id='1678'> +1.4753489e-12 </wgt>
<wgt id='1679'> +1.4633179e-12 </wgt>
<wgt id='1680'> +1.4333451e-12 </wgt>
<wgt id='1681'> +1.4849808e-12 </wgt>
<wgt id='1682'> +1.4384058e-12 </wgt>
<wgt id='1683'> +1.4271764e-12 </wgt>
<wgt id='1684'> +1.4521173e-12 </wgt>
<wgt id='1685'> +1.4545369e-12 </wgt>
<wgt id='1686'> +1.4905422e-12 </wgt>
<wgt id='1687'> +1.4965961e-12 </wgt>
<wgt id='1688'> +1.4897631e-12 </wgt>
<wgt id='1689'> +1.4099602e-12 </wgt>
<wgt id='1690'> +1.4195662e-12 </wgt>
<wgt id='1691'> +1.4495355e-12 </wgt>
<wgt id='1692'> +1.4413353e-12 </wgt>
<wgt id='1693'> +1.5241572e-12 </wgt>
<wgt id='1694'> +1.3942817e-12 </wgt>
<wgt id='1695'> +1.4751212e-12 </wgt>
<wgt id='1696'> +1.5005673e-12 </wgt>
<wgt id='1697'> +1.3360551e-12 </wgt>
<wgt id='1698'> +1.4428198e-12 </wgt>
<wgt id='1699'> +1.3942606e-12 </wgt>
<wgt id='1700'> +1.4629015e-12 </wgt>
<wgt id='1701'> +1.4483534e-12 </wgt>
<wgt id='1702'> +1.3890266e-12 </wgt>
<wgt id='1703'> +1.4766271e-12 </wgt>
<wgt id='1704'> +1.4454417e-12 </wgt>
<wgt id='1705'> +1.5281271e-12 </wgt>
<wgt id='1706'> +1.3767815e-12 </wgt>
<wgt id='1707'> +1.4374358e-12 </wgt>
<wgt id='1708'> +1.4068568e-12 </wgt>
<wgt id='1709'> +1.4712187e-12 </wgt>
<wgt id='1710'> +1.4563252e-12 </wgt>
<wgt id='1711'> +1.4539136e-12 </wgt>
<wgt id='1712'> +1.4433418e-12 </wgt>
<wgt id='1713'> +1.3293875e-12 </wgt>
<wgt id='1714'> +1.2856295e-12 </wgt>
<wgt id='1715'> +1.3244777e-12 </wgt>
<wgt id='1716'> +1.3154979e-12 </wgt>
<wgt id='1717'> +1.3095165e-12 </wgt>
<wgt id='1718'> +1.2929573e-12 </wgt>
<wgt id='1719'> +1.3400349e-12 </wgt>
<wgt id='1720'> +1.3491469e-12 </wgt>
<wgt id='1721'> +1.3186843e-12 </wgt>
<wgt id='1722'> +1.3195731e-12 </wgt>
<wgt id='1723'> +1.2879280e-12 </wgt>
<wgt id='1724'> +1.3234500e-12 </wgt>
<wgt id='1725'> +1.3544060e-12 </wgt>
<wgt id='1726'> +1.3524350e-12 </wgt>
<wgt id='1727'> +1.2892877e-12 </wgt>
<wgt id='1728'> +1.3300215e-12 </wgt>
<wgt id='1729'> +1.3446062e-12 </wgt>
<wgt id='1730'> +1.3007912e-12 </wgt>
<wgt id='1731'> +1.3029841e-12 </wgt>
<wgt id='1732'> +1.3456906e-12 </wgt>
<wgt id='1733'> +1.3377812e-12 </wgt>
<wgt id='1734'> +1.3387032e-12 </wgt>
<wgt id='1735'> +1.3302813e-12 </wgt>
<wgt id='1736'> +1.4385161e-12 </wgt>
<wgt id='1737'> +1.3258216e-12 </wgt>
<wgt id='1738'> +1.3520778e-12 </wgt>
<wgt id='1739'> +1.2991188e-12 </wgt>
<wgt id='1740'> +1.2890588e-12 </wgt>
<wgt id='1741'> +1.3266874e-12 </wgt>
<wgt id='1742'> +1.3073588e-12 </wgt>
<wgt id='1743'> +1.3561050e-12 </wgt>
<wgt id='1744'> +1.3325402e-12 </wgt>
<wgt id='1745'> +1.2815522e-12 </wgt>
<wgt id='1746'> +1.3577793e-12 </wgt>
<wgt id='1747'> +1.3495925e-12 </wgt>
<wgt id='1748'> +1.3226428e-12 </wgt>
<wgt id='1749'> +1.3643029e-12 </wgt>
<wgt id='1750'> +1.3491683e-12 </wgt>
<wgt id='1751'> +1.3144257e-12 </wgt>
<wgt id='1752'> +1.2814507e-12 </wgt>
<wgt id='1753'> +1.3581181e-12 </wgt>
<wgt id='1754'> +1.3195462e-12 </wgt>
<wgt id='1755'> +1.3474326e-12 </wgt>
<wgt id='1756'> +1.3550218e-12 </wgt>
<wgt id='1757'> +1.3240993e-12 </wgt>
<wgt id='1758'> +1.3592504e-12 </wgt>
<wgt id='1759'> +1.3344194e-12 </wgt>
<wgt id='1760'> +1.3042511e-12 </wgt>
<wgt id='1761'> +1.3003366e-12 </wgt>
<wgt id='1762'> +1.3340043e-12 </wgt>
<wgt id='1763'> +1.3355370e-12 </wgt>
<wgt id='1764'> +1.3374591e-12 </wgt>
<wgt id='1765'> +1.3249638e-12 </wgt>
<wgt id='1766'> +1.3609674e-12 </wgt>
<wgt id='1767'> +1.3292024e-12 </wgt>
<wgt id='1768'> +1.3307272e-12 </wgt>
<wgt id='1769'> +1.2930372e-12 </wgt>
<wgt id='1770'> +1.3752041e-12 </wgt>
<wgt id='1771'> +1.3267665e-12 </wgt>
<wgt id='1772'> +1.3435331e-12 </wgt>
<wgt id='1773'> +1.3234741e-12 </wgt>
<wgt id='1774'> +1.3404244e-12 </wgt>
<wgt id='1775'> +1.3318605e-12 </wgt>
<wgt id='1776'> +1.3556595e-12 </wgt>
<wgt id='1777'> +1.3044622e-12 </wgt>
<wgt id='1778'> +1.3105629e-12 </wgt>
<wgt id='1779'> +1.3478408e-12 </wgt>
<wgt id='1780'> +1.3757704e-12 </wgt>
<wgt id='1781'> +1.3076449e-12 </wgt>
<wgt id='1782'> +1.2845955e-12 </wgt>
<wgt id='1783'> +1.3430933e-12 </wgt>
<wgt id='1784'> +1.3639637e-12 </wgt>
<wgt id='1785'> +1.3206157e-12 </wgt>
<wgt id='1786'> +1.2457475e-12 </wgt>
<wgt id='1787'> +1.3438291e-12 </wgt>
<wgt id='1788'> +1.3116882e-12 </wgt>
<wgt id='1789'> +1.3148320e-12 </wgt>
<wgt id='1790'> +1.3572221e-12 </wgt>
<wgt id='1791'> +1.3789557e-12 </wgt>
<wgt id='1792'> +1.3154736e-12 </wgt>
<wgt id='1793'> +1.3426570e-12 </wgt>
<wgt id='1794'> +1.3300287e-12 </wgt>
<wgt id='1795'> +1.3145168e-12 </wgt>
<wgt id='1796'> +1.3281698e-12 </wgt>
<wgt id='1797'> +1.3349687e-12 </wgt>
<wgt id='1798'> +1.2898530e-12 </wgt>
<wgt id='1799'> +1.3282676e-12 </wgt>
<wgt id='1800'> +1.3199261e-12 </wgt>
<wgt id='1801'> +1.3219722e-12 </wgt>
<wgt id='1802'> +1.3511625e-12 </wgt>
<wgt id='1803'> +1.3265756e-12 </wgt>
<wgt id='1804'> +1.2907522e-12 </wgt>
<wgt id='1805'> +1.3565840e-12 </wgt>
<wgt id='1806'> +1.3111527e-12 </wgt>
<wgt id='1807'> +1.3629515e-12 </wgt>
<wgt id='1808'> +1.3155463e-12 </wgt>
<wgt id='1809'> +1.3319154e-12 </wgt>
<wgt id='1810'> +1.3271945e-12 </wgt>
<wgt id='1811'> +1.3752173e-12 </wgt>
<wgt id='1812'> +1.3590245e-12 </wgt>
<wgt id='1813'> +1.3140081e-12 </wgt>
<wgt id='1814'> +1.2851623e-12 </wgt>
<wgt id='1815'> +1.5111017e-12 </wgt>
<wgt id='1816'> +1.3293875e-12 </wgt>
<wgt id='1817'> +1.2856295e-12 </wgt>
<wgt id='1818'> +1.3244777e-12 </wgt>
<wgt id='1819'> +1.3154979e-12 </wgt>
<wgt id='1820'> +1.3095165e-12 </wgt>
<wgt id='1821'> +1.2929573e-12 </wgt>
<wgt id='1822'> +1.3400349e-12 </wgt>
<wgt id='1823'> +1.3491469e-12 </wgt>
<wgt id='1824'> +1.3186843e-12 </wgt>
<wgt id='1825'> +1.3195731e-12 </wgt>
<wgt id='1826'> +1.2879280e-12 </wgt>
<wgt id='1827'> +1.3234500e-12 </wgt>
<wgt id='1828'> +1.3544060e-12 </wgt>
<wgt id='1829'> +1.3524350e-12 </wgt>
<wgt id='1830'> +1.2892877e-12 </wgt>
<wgt id='1831'> +1.3300215e-12 </wgt>
<wgt id='1832'> +1.3446062e-12 </wgt>
<wgt id='1833'> +1.3007912e-12 </wgt>
<wgt id='1834'> +1.3029841e-12 </wgt>
<wgt id='1835'> +1.3456906e-12 </wgt>
<wgt id='1836'> +1.3377812e-12 </wgt>
<wgt id='1837'> +1.3387032e-12 </wgt>
<wgt id='1838'> +1.3302813e-12 </wgt>
<wgt id='1839'> +1.4385161e-12 </wgt>
<wgt id='1840'> +1.3258216e-12 </wgt>
<wgt id='1841'> +1.3520778e-12 </wgt>
<wgt id='1842'> +1.2991188e-12 </wgt>
<wgt id='1843'> +1.2890588e-12 </wgt>
<wgt id='1844'> +1.3266874e-12 </wgt>
<wgt id='1845'> +1.3073588e-12 </wgt>
<wgt id='1846'> +1.3561050e-12 </wgt>
<wgt id='1847'> +1.3325402e-12 </wgt>
<wgt id='1848'> +1.2815522e-12 </wgt>
<wgt id='1849'> +1.3577793e-12 </wgt>
<wgt id='1850'> +1.3495925e-12 </wgt>
<wgt id='1851'> +1.3226428e-12 </wgt>
<wgt id='1852'> +1.3643029e-12 </wgt>
<wgt id='1853'> +1.3491683e-12 </wgt>
<wgt id='1854'> +1.3144257e-12 </wgt>
<wgt id='1855'> +1.2814507e-12 </wgt>
<wgt id='1856'> +1.3581181e-12 </wgt>
<wgt id='1857'> +1.3195462e-12 </wgt>
<wgt id='1858'> +1.3474326e-12 </wgt>
<wgt id='1859'> +1.3550218e-12 </wgt>
<wgt id='1860'> +1.3240993e-12 </wgt>
<wgt id='1861'> +1.3592504e-12 </wgt>
<wgt id='1862'> +1.3344194e-12 </wgt>
<wgt id='1863'> +1.3042511e-12 </wgt>
<wgt id='1864'> +1.3003366e-12 </wgt>
<wgt id='1865'> +1.3340043e-12 </wgt>
<wgt id='1866'> +1.3355370e-12 </wgt>
<wgt id='1867'> +1.3374591e-12 </wgt>
<wgt id='1868'> +1.3249638e-12 </wgt>
<wgt id='1869'> +1.3609674e-12 </wgt>
<wgt id='1870'> +1.3292024e-12 </wgt>
<wgt id='1871'> +1.3307272e-12 </wgt>
<wgt id='1872'> +1.2930372e-12 </wgt>
<wgt id='1873'> +1.3752041e-12 </wgt>
<wgt id='1874'> +1.3267665e-12 </wgt>
<wgt id='1875'> +1.3435331e-12 </wgt>
<wgt id='1876'> +1.3234741e-12 </wgt>
<wgt id='1877'> +1.3404244e-12 </wgt>
<wgt id='1878'> +1.3318605e-12 </wgt>
<wgt id='1879'> +1.3556595e-12 </wgt>
<wgt id='1880'> +1.3044622e-12 </wgt>
<wgt id='1881'> +1.3105629e-12 </wgt>
<wgt id='1882'> +1.3478408e-12 </wgt>
<wgt id='1883'> +1.3757704e-12 </wgt>
<wgt id='1884'> +1.3076449e-12 </wgt>
<wgt id='1885'> +1.2845955e-12 </wgt>
<wgt id='1886'> +1.3430933e-12 </wgt>
<wgt id='1887'> +1.3639637e-12 </wgt>
<wgt id='1888'> +1.3206157e-12 </wgt>
<wgt id='1889'> +1.2457475e-12 </wgt>
<wgt id='1890'> +1.3438291e-12 </wgt>
<wgt id='1891'> +1.3116882e-12 </wgt>
<wgt id='1892'> +1.3148320e-12 </wgt>
<wgt id='1893'> +1.3572221e-12 </wgt>
<wgt id='1894'> +1.3789557e-12 </wgt>
<wgt id='1895'> +1.3154736e-12 </wgt>
<wgt id='1896'> +1.3426570e-12 </wgt>
<wgt id='1897'> +1.3300287e-12 </wgt>
<wgt id='1898'> +1.3145168e-12 </wgt>
<wgt id='1899'> +1.3281698e-12 </wgt>
<wgt id='1900'> +1.3349687e-12 </wgt>
<wgt id='1901'> +1.2898530e-12 </wgt>
<wgt id='1902'> +1.3282676e-12 </wgt>
<wgt id='1903'> +1.3199261e-12 </wgt>
<wgt id='1904'> +1.3219722e-12 </wgt>
<wgt id='1905'> +1.3511625e-12 </wgt>
<wgt id='1906'> +1.3265756e-12 </wgt>
<wgt id='1907'> +1.2907522e-12 </wgt>
<wgt id='1908'> +1.3565840e-12 </wgt>
<wgt id='1909'> +1.3111527e-12 </wgt>
<wgt id='1910'> +1.3629515e-12 </wgt>
<wgt id='1911'> +1.3155463e-12 </wgt>
<wgt id='1912'> +1.3319154e-12 </wgt>
<wgt id='1913'> +1.3271945e-12 </wgt>
<wgt id='1914'> +1.3752173e-12 </wgt>
<wgt id='1915'> +1.3590245e-12 </wgt>
<wgt id='1916'> +1.3140081e-12 </wgt>
<wgt id='1917'> +1.3091085e-12 </wgt>
<wgt id='1918'> +1.3431011e-12 </wgt>
<wgt id='1919'> +1.3256720e-12 </wgt>
</rwgt>
</event>
<event>
 9      1 +1.5607000e-12 1.23534900e+02 7.81860800e-03 1.12341100e-01
       21 -1    0    0  501  502 +0.0000000000e+00 +0.0000000000e+00 +1.0301253007e+00 1.0301253007e+00 0.0000000000e+00 0.0000e+00 1.0000e+00
        2 -1    0    0  502    0 -0.0000000000e+00 -0.0000000000e+00 -3.7036419008e+03 3.7036419008e+03 0.0000000000e+00 0.0000e+00 1.0000e+00
     1023  2    1    2    0    0 -3.6363719481e+00 +5.7801729908e+01 -2.4390593260e+03 2.4397929584e+03 1.5000703462e+01 0.0000e+00 0.0000e+00
  1000023  2    3    3    0    0 +1.5537797264e+00 +4.0265315721e+01 -1.5680440272e+03 1.5685713367e+03 5.5006443926e+00 0.0000e+00 0.0000e+00
        2  1    1    2  501    0 +3.6363719481e+00 -5.7801729908e+01 -1.2635524496e+03 1.2648790677e+03 0.0000000000e+00 0.0000e+00 1.0000e+00
  1000022  1    4    4    0    0 +1.5029394305e+00 +3.4840621408e+01 -1.3523699352e+03 1.3528287288e+03 5.0000000000e+00 0.0000e+00 1.0000e+00
      -13  1    4    4    0    0 -1.0549857404e-01 +3.3945403043e+00 -1.3535683251e+02 1.3539947309e+02 1.0570000000e-01 0.0000e+00 -1.0000e+00
       13  1    4    4    0    0 +1.5633886987e-01 +2.0301540080e+00 -8.0317259490e+01 8.0343134813e+01 1.0570000000e-01 0.0000e+00 1.0000e+00
  1000022  1    3    3    0    0 -5.1901516745e+00 +1.7536414187e+01 -8.7101529876e+02 8.7122162173e+02 5.0000000000e+00 0.0000e+00 1.0000e+00
<mgrwt>
<rscale>  1 0.12353486E+03</rscale>
<asrwt>0</asrwt>
<pdfrwt beam="1">  1       21 0.15847946E-03 0.12353486E+03</pdfrwt>
<pdfrwt beam="2">  1        2 0.56979594E+00 0.12353486E+03</pdfrwt>
<totfact> 0.45307067E+05</totfact>
</mgrwt>
<rwgt>
<wgt id='1001'> +1.5607000e-12 </wgt>
<wgt id='1002'> +1.5719115e-12 </wgt>
<wgt id='1003'> +1.5702179e-12 </wgt>
<wgt id='1004'> +1.7028425e-12 </wgt>
<wgt id='1005'> +1.5607000e-12 </wgt>
<wgt id='1006'> +1.4072446e-12 </wgt>
<wgt id='1007'> +1.4159907e-12 </wgt>
<wgt id='1008'> +1.4146729e-12 </wgt>
<wgt id='1009'> +1.5143765e-12 </wgt>
<wgt id='1010'> +1.4072446e-12 </wgt>
<wgt id='1011'> +1.7531049e-12 </wgt>
<wgt id='1012'> +1.7678680e-12 </wgt>
<wgt id='1013'> +1.7656334e-12 </wgt>
<wgt id='1014'> +1.9471802e-12 </wgt>
<wgt id='1015'> +1.7531049e-12 </wgt>
<wgt id='1016'> +1.5855807e-12 </wgt>
<wgt id='1017'> +1.5991308e-12 </wgt>
<wgt id='1018'> +1.5970839e-12 </wgt>
<wgt id='1019'> +1.7656334e-12 </wgt>
<wgt id='1020'> +1.5855807e-12 </wgt>
<wgt id='1021'> +1.4296788e-12 </wgt>
<wgt id='1022'> +1.4405101e-12 </wgt>
<wgt id='1023'> +1.4388776e-12 </wgt>
<wgt id='1024'> +1.5702179e-12 </wgt>
<wgt id='1025'> +1.4296788e-12 </wgt>
<wgt id='1026'> +1.7810529e-12 </wgt>
<wgt id='1027'> +1.7984805e-12 </wgt>
<wgt id='1028'> +1.7958430e-12 </wgt>
<wgt id='1029'> +2.0189809e-12 </wgt>
<wgt id='1030'> +1.7810529e-12 </wgt>
<wgt id='1031'> +1.5076856e-12 </wgt>
<wgt id='1032'> +1.5155531e-12 </wgt>
<wgt id='1033'> +1.5143765e-12 </wgt>
<wgt id='1034'> +1.5916552e-12 </wgt>
<wgt id='1035'> +1.5076856e-12 </wgt>
<wgt id='1036'> +1.3594427e-12 </wgt>
<wgt id='1037'> +1.3652227e-12 </wgt>
<wgt id='1038'> +1.3643631e-12 </wgt>
<wgt id='1039'> +1.4154951e-12 </wgt>
<wgt id='1040'> +1.3594427e-12 </wgt>
<wgt id='1041'> +1.6935548e-12 </wgt>
<wgt id='1042'> +1.7044839e-12 </wgt>
<wgt id='1043'> +1.7028425e-12 </wgt>
<wgt id='1044'> +1.8200389e-12 </wgt>
<wgt id='1045'> +1.6935548e-12 </wgt>
<wgt id='1046'> +1.5607000e-12 </wgt>
<wgt id='1047'> +1.6640491e-12 </wgt>
<wgt id='1048'> +1.6181486e-12 </wgt>
<wgt id='1049'> +1.4574826e-12 </wgt>
<wgt id='1050'> +1.4895248e-12 </wgt>
<wgt id='1051'> +1.5844726e-12 </wgt>
<wgt id='1052'> +1.6439999e-12 </wgt>
<wgt id='1053'> +1.4187103e-12 </wgt>
<wgt id='1054'> +1.6216636e-12 </wgt>
<wgt id='1055'> +1.6874096e-12 </wgt>
<wgt id='1056'> +1.5970159e-12 </wgt>
<wgt id='1057'> +1.4539731e-12 </wgt>
<wgt id='1058'> +1.5331485e-12 </wgt>
<wgt id='1059'> +1.5642933e-12 </wgt>
<wgt id='1060'> +1.6771201e-12 </wgt>
<wgt id='1061'> +1.5613961e-12 </wgt>
<wgt id='1062'> +1.5321687e-12 </wgt>
<wgt id='1063'> +1.4241898e-12 </wgt>
<wgt id='1064'> +1.5935379e-12 </wgt>
<wgt id='1065'> +1.5345575e-12 </wgt>
<wgt id='1066'> +1.4289091e-12 </wgt>
<wgt id='1067'> +1.7600364e-12 </wgt>
<wgt id='1068'> +1.7637993e-12 </wgt>
<wgt id='1069'> +1.5500293e-12 </wgt>
<wgt id='1070'> +1.5289344e-12 </wgt>
<wgt id='1071'> +1.6756772e-12 </wgt>
<wgt id='1072'> +1.7089857e-12 </wgt>
<wgt id='1073'> +1.5719043e-12 </wgt>
<wgt id='1074'> +1.5653264e-12 </wgt>
<wgt id='1075'> +1.4217478e-12 </wgt>
<wgt id='1076'> +1.4486115e-12 </wgt>
<wgt id='1077'> +1.6060968e-12 </wgt>
<wgt id='1078'> +1.4049220e-12 </wgt>
<wgt id='1079'> +1.6896997e-12 </wgt>
<wgt id='1080'> +1.5145931e-12 </wgt>
<wgt id='1081'> +1.5411533e-12 </wgt>
<wgt id='1082'> +1.5113472e-12 </wgt>
<wgt id='1083'> +1.3345967e-12 </wgt>
<wgt id='1084'> +1.4863415e-12 </wgt>
<wgt id='1085'> +1.5123924e-12 </wgt>
<wgt id='1086'> +1.6902366e-12 </wgt>
<wgt id='1087'> +1.5301492e-12 </wgt>
<wgt id='1088'> +1.6082812e-12 </wgt>
<wgt id='1089'> +1.4879929e-12 </wgt>
<wgt id='1090'> +1.5370289e-12 </wgt>
<wgt id='1091'> +1.5508512e-12 </wgt>
<wgt id='1092'> +1.5744532e-12 </wgt>
<wgt id='1093'> +1.6647346e-12 </wgt>
<wgt id='1094'> +1.6335077e-12 </wgt>
<wgt id='1095'> +1.5168319e-12 </wgt>
<wgt id='1096'> +1.6354174e-12 </wgt>
<wgt id='1097'> +1.8375203e-12 </wgt>
<wgt id='1098'> +1.5535504e-12 </wgt>
<wgt id='1099'> +1.5663803e-12 </wgt>
<wgt id='1100'> +1.8947327e-12 </wgt>
<wgt id='1101'> +1.5660911e-12 </wgt>
<wgt id='1102'> +1.4936246e-12 </wgt>
<wgt id='1103'> +1.3815673e-12 </wgt>
<wgt id='1104'> +1.6758238e-12 </wgt>
<wgt id='1105'> +1.4831507e-12 </wgt>
<wgt id='1106'> +1.7339453e-12 </wgt>
<wgt id='1107'> +1.6054268e-12 </wgt>
<wgt id='1108'> +1.4878373e-12 </wgt>
<wgt id='1109'> +1.4396881e-12 </wgt>
<wgt id='1110'> +1.6172791e-12 </wgt>
<wgt id='1111'> +1.6897997e-12 </wgt>
<wgt id='1112'> +1.6223282e-12 </wgt>
<wgt id='1113'> +1.6969892e-12 </wgt>
<wgt id='1114'> +1.6072153e-12 </wgt>
<wgt id='1115'> +1.6268530e-12 </wgt>
<wgt id='1116'> +1.6159639e-12 </wgt>
<wgt id='1117'> +1.5361760e-12 </wgt>
<wgt id='1118'> +1.5183207e-12 </wgt>
<wgt id='1119'> +1.5794014e-12 </wgt>
<wgt id='1120'> +1.5719129e-12 </wgt>
<wgt id='1121'> +1.4684893e-12 </wgt>
<wgt id='1122'> +1.5990901e-12 </wgt>
<wgt id='1123'> +1.4879500e-12 </wgt>
<wgt id='1124'> +1.5203350e-12 </wgt>
<wgt id='1125'> +1.6363064e-12 </wgt>
<wgt id='1126'> +1.4192677e-12 </wgt>
<wgt id='1127'> +1.5917998e-12 </wgt>
<wgt id='1128'> +1.5321687e-12 </wgt>
<wgt id='1129'> +1.5482829e-12 </wgt>
<wgt id='1130'> +1.5140451e-12 </wgt>
<wgt id='1131'> +1.4764529e-12 </wgt>
<wgt id='1132'> +1.3648600e-12 </wgt>
<wgt id='1133'> +1.6062189e-12 </wgt>
<wgt id='1134'> +1.2764984e-12 </wgt>
<wgt id='1135'> +1.4100229e-12 </wgt>
<wgt id='1136'> +1.4142692e-12 </wgt>
<wgt id='1137'> +1.4610107e-12 </wgt>
<wgt id='1138'> +1.5576636e-12 </wgt>
<wgt id='1139'> +1.5593470e-12 </wgt>
<wgt id='1140'> +1.6881165e-12 </wgt>
<wgt id='1141'> +1.5239736e-12 </wgt>
<wgt id='1142'> +1.5600057e-12 </wgt>
<wgt id='1143'> +1.6257812e-12 </wgt>
<wgt id='1144'> +1.5572231e-12 </wgt>
<wgt id='1145'> +1.6255742e-12 </wgt>
<wgt id='1146'> +1.5296984e-12 </wgt>
<wgt id='1147'> +1.6077305e-12 </wgt>
<wgt id='1148'> +1.6078082e-12 </wgt>
<wgt id='1149'> +1.5017194e-12 </wgt>
<wgt id='1150'> +1.6313692e-12 </wgt>
<wgt id='1151'> +2.4312930e-12 </wgt>
<wgt id='1152'> +3.0561304e-12 </wgt>
<wgt id='1153'> +3.0835233e-12 </wgt>
<wgt id='1154'> +3.0404001e-12 </wgt>
<wgt id='1155'> +3.0518641e-12 </wgt>
<wgt id='1156'> +3.0582083e-12 </wgt>
<wgt id='1157'> +3.0685961e-12 </wgt>
<wgt id='1158'> +3.0396288e-12 </wgt>
<wgt id='1159'> +3.0654498e-12 </wgt>
<wgt id='1160'> +3.0502498e-12 </wgt>
<wgt id='1161'> +3.0503460e-12 </wgt>
<wgt id='1162'> +3.0600585e-12 </wgt>
<wgt id='1163'> +3.0511335e-12 </wgt>
<wgt id='1164'> +3.0612430e-12 </wgt>
<wgt id='1165'> +3.0341758e-12 </wgt>
<wgt id='1166'> +3.0773132e-12 </wgt>
<wgt id='1167'> +3.0694083e-12 </wgt>
<wgt id='1168'> +3.0396488e-12 </wgt>
<wgt id='1169'> +3.0872869e-12 </wgt>
<wgt id='1170'> +3.0328962e-12 </wgt>
<wgt id='1171'> +3.0485263e-12 </wgt>
<wgt id='1172'> +3.0654138e-12 </wgt>
<wgt id='1173'> +3.0231072e-12 </wgt>
<wgt id='1174'> +3.0910636e-12 </wgt>
<wgt id='1175'> +3.0612897e-12 </wgt>
<wgt id='1176'> +3.0517516e-12 </wgt>
<wgt id='1177'> +3.0631493e-12 </wgt>
<wgt id='1178'> +3.0396016e-12 </wgt>
<wgt id='1179'> +3.0659146e-12 </wgt>
<wgt id='1180'> +3.0432408e-12 </wgt>
<wgt id='1181'> +3.0734515e-12 </wgt>
<wgt id='1182'> +3.0422530e-12 </wgt>
<wgt id='1183'> +3.0647893e-12 </wgt>
<wgt id='1184'> +3.0558053e-12 </wgt>
<wgt id='1185'> +3.0497595e-12 </wgt>
<wgt id='1186'> +3.0592819e-12 </wgt>
<wgt id='1187'> +3.0578287e-12 </wgt>
<wgt id='1188'> +3.0555907e-12 </wgt>
<wgt id='1189'> +3.0497832e-12 </wgt>
<wgt id='1190'> +3.0282580e-12 </wgt>
<wgt id='1191'> +3.0569773e-12 </wgt>
<wgt id='1192'> +3.0695311e-12 </wgt>
<wgt id='1193'> +1.6369135e-12 </wgt>
<wgt id='1194'> +1.6218687e-12 </wgt>
<wgt id='1195'> +1.6493688e-12 </wgt>
<wgt id='1196'> +1.6263357e-12 </wgt>
<wgt id='1197'> +1.6486753e-12 </wgt>
<wgt id='1198'> +1.6331412e-12 </wgt>
<wgt id='1199'> +1.6425780e-12 </wgt>
<wgt id='1200'> +1.6350331e-12 </wgt>
<wgt id='1201'> +1.6381857e-12 </wgt>
<wgt id='1202'> +1.6379961e-12 </wgt>
<wgt id='1203'> +1.6353933e-12 </wgt>
<wgt id='1204'> +1.6414047e-12 </wgt>
<wgt id='1205'> +1.6339857e-12 </wgt>
<wgt id='1206'> +1.6405578e-12 </wgt>
<wgt id='1207'> +1.6319092e-12 </wgt>
<wgt id='1208'> +1.6241038e-12 </wgt>
<wgt id='1209'> +1.6414822e-12 </wgt>
<wgt id='1210'> +1.6366887e-12 </wgt>
<wgt id='1211'> +1.6353366e-12 </wgt>
<wgt id='1212'> +1.6266787e-12 </wgt>
<wgt id='1213'> +1.6473209e-12 </wgt>
<wgt id='1214'> +1.6197506e-12 </wgt>
<wgt id='1215'> +1.6613400e-12 </wgt>
<wgt id='1216'> +1.6521181e-12 </wgt>
<wgt id='1217'> +1.6268958e-12 </wgt>
<wgt id='1218'> +1.6408562e-12 </wgt>
<wgt id='1219'> +1.6347441e-12 </wgt>
<wgt id='1220'> +1.6587905e-12 </wgt>
<wgt id='1221'> +1.6215608e-12 </wgt>
<wgt id='1222'> +1.6562348e-12 </wgt>
<wgt id='1223'> +1.6112024e-12 </wgt>
<wgt id='1224'> +1.6414383e-12 </wgt>
<wgt id='1225'> +1.6350478e-12 </wgt>
<wgt id='1226'> +1.6354953e-12 </wgt>
<wgt id='1227'> +1.6380226e-12 </wgt>
<wgt id='1228'> +1.6379181e-12 </wgt>
<wgt id='1229'> +1.6398444e-12 </wgt>
<wgt id='1230'> +1.6359478e-12 </wgt>
<wgt id='1231'> +1.6492877e-12 </wgt>
<wgt id='1232'> +1.6389287e-12 </wgt>
<wgt id='1233'> +1.6367693e-12 </wgt>
<wgt id='1234'> +1.6369135e-12 </wgt>
<wgt id='1235'> +1.6324792e-12 </wgt>
<wgt id='1236'> +1.6341677e-12 </wgt>
<wgt id='1237'> +1.6357254e-12 </wgt>
<wgt id='1238'> +1.6382115e-12 </wgt>
<wgt id='1239'> +1.6394336e-12 </wgt>
<wgt id='1240'> +1.6405257e-12 </wgt>
<wgt id='1241'> +1.5244729e-12 </wgt>
<wgt id='1242'> +1.5112828e-12 </wgt>
<wgt id='1243'> +1.5374253e-12 </wgt>
<wgt id='1244'> +1.5436608e-12 </wgt>
<wgt id='1245'> +1.5104644e-12 </wgt>
<wgt id='1246'> +1.5208964e-12 </wgt>
<wgt id='1247'> +1.5274864e-12 </wgt>
<wgt id='1248'> +1.5246062e-12 </wgt>
<wgt id='1249'> +1.5243082e-12 </wgt>
<wgt id='1250'> +1.5279743e-12 </wgt>
<wgt id='1251'> +1.5220457e-12 </wgt>
<wgt id='1252'> +1.5199148e-12 </wgt>
<wgt id='1253'> +1.5280080e-12 </wgt>
<wgt id='1254'> +1.5280124e-12 </wgt>
<wgt id='1255'> +1.5222206e-12 </wgt>
<wgt id='1256'> +1.5287173e-12 </wgt>
<wgt id='1257'> +1.5131496e-12 </wgt>
<wgt id='1258'> +1.5312189e-12 </wgt>
<wgt id='1259'> +1.5152877e-12 </wgt>
<wgt id='1260'> +1.5369809e-12 </wgt>
<wgt id='1261'> +1.5098923e-12 </wgt>
<wgt id='1262'> +1.5329060e-12 </wgt>
<wgt id='1263'> +1.5209864e-12 </wgt>
<wgt id='1264'> +1.5286282e-12 </wgt>
<wgt id='1265'> +1.5229474e-12 </wgt>
<wgt id='1266'> +1.4992276e-12 </wgt>
<wgt id='1267'> +1.5488697e-12 </wgt>
<wgt id='1268'> +1.5256989e-12 </wgt>
<wgt id='1269'> +1.5270829e-12 </wgt>
<wgt id='1270'> +1.5304955e-12 </wgt>
<wgt id='1271'> +1.5265600e-12 </wgt>
<wgt id='1272'> +1.5303961e-12 </wgt>
<wgt id='1273'> +1.5234060e-12 </wgt>
<wgt id='1274'> +1.5258560e-12 </wgt>
<wgt id='1275'> +1.5221598e-12 </wgt>
<wgt id='1276'> +1.5312934e-12 </wgt>
<wgt id='1277'> +1.5240666e-12 </wgt>
<wgt id='1278'> +1.5391951e-12 </wgt>
<wgt id='1279'> +1.5272623e-12 </wgt>
<wgt id='1280'> +1.5252701e-12 </wgt>
<wgt id='1281'> +1.5289235e-12 </wgt>
<wgt id='1282'> +1.5244729e-12 </wgt>
<wgt id='1283'> +1.5211522e-12 </wgt>
<wgt id='1284'> +1.5224937e-12 </wgt>
<wgt id='1285'> +1.5236443e-12 </wgt>
<wgt id='1286'> +1.5257114e-12 </wgt>
<wgt id='1287'> +1.5263685e-12 </wgt>
<wgt id='1288'> +1.5272314e-12 </wgt>
<wgt id='1289'> +1.6905003e-12 </wgt>
<wgt id='1290'> +1.6951055e-12 </wgt>
<wgt id='1291'> +1.6855754e-12 </wgt>
<wgt id='1292'> +1.6909016e-12 </wgt>
<wgt id='1293'> +1.6902340e-12 </wgt>
<wgt id='1294'> +1.6783174e-12 </wgt>
<wgt id='1295'> +1.7021752e-12 </wgt>
<wgt id='1296'> +1.7104094e-12 </wgt>
<wgt id='1297'> +1.6660480e-12 </wgt>
<wgt id='1298'> +1.6925889e-12 </wgt>
<wgt id='1299'> +1.6876753e-12 </wgt>
<wgt id='1300'> +1.6901493e-12 </wgt>
<wgt id='1301'> +1.6911647e-12 </wgt>
<wgt id='1302'> +1.6876110e-12 </wgt>
<wgt id='1303'> +1.6945107e-12 </wgt>
<wgt id='1304'> +1.6870246e-12 </wgt>
<wgt id='1305'> +1.6928770e-12 </wgt>
<wgt id='1306'> +1.6780456e-12 </wgt>
<wgt id='1307'> +1.7045080e-12 </wgt>
<wgt id='1308'> +1.6881499e-12 </wgt>
<wgt id='1309'> +1.6922938e-12 </wgt>
<wgt id='1310'> +1.6961634e-12 </wgt>
<wgt id='1311'> +1.6846468e-12 </wgt>
<wgt id='1312'> +1.7082171e-12 </wgt>
<wgt id='1313'> +1.6730603e-12 </wgt>
<wgt id='1314'> +1.6707325e-12 </wgt>
<wgt id='1315'> +1.7088562e-12 </wgt>
<wgt id='1316'> +1.7018529e-12 </wgt>
<wgt id='1317'> +1.6887940e-12 </wgt>
<wgt id='1318'> +1.6982236e-12 </wgt>
<wgt id='1319'> +1.6798070e-12 </wgt>
<wgt id='1320'> +1.7201192e-12 </wgt>
<wgt id='1321'> +1.6676485e-12 </wgt>
<wgt id='1322'> +1.6904951e-12 </wgt>
<wgt id='1323'> +1.6903372e-12 </wgt>
<wgt id='1324'> +1.6905828e-12 </wgt>
<wgt id='1325'> +1.7004237e-12 </wgt>
<wgt id='1326'> +1.6897768e-12 </wgt>
<wgt id='1327'> +1.6940353e-12 </wgt>
<wgt id='1328'> +1.6909429e-12 </wgt>
<wgt id='1329'> +1.6898661e-12 </wgt>
<wgt id='1330'> +1.6980852e-12 </wgt>
<wgt id='1331'> +1.6822505e-12 </wgt>
<wgt id='1332'> +1.7091028e-12 </wgt>
<wgt id='1333'> +1.6924368e-12 </wgt>
<wgt id='1334'> +1.6907043e-12 </wgt>
<wgt id='1335'> +1.6915897e-12 </wgt>
<wgt id='1336'> +1.6917121e-12 </wgt>
<wgt id='1337'> +1.6996101e-12 </wgt>
<wgt id='1338'> +1.6901995e-12 </wgt>
<wgt id='1339'> +1.6911782e-12 </wgt>
<wgt id='1340'> +1.6854133e-12 </wgt>
<wgt id='1341'> +1.6899935e-12 </wgt>
<wgt id='1342'> +1.6805154e-12 </wgt>
<wgt id='1343'> +1.6859613e-12 </wgt>
<wgt id='1344'> +1.6850614e-12 </wgt>
<wgt id='1345'> +1.6726239e-12 </wgt>
<wgt id='1346'> +1.6971504e-12 </wgt>
<wgt id='1347'> +1.7059783e-12 </wgt>
<wgt id='1348'> +1.6626415e-12 </wgt>
<wgt id='1349'> +1.6879708e-12 </wgt>
<wgt id='1350'> +1.6827865e-12 </wgt>
<wgt id='1351'> +1.6849258e-12 </wgt>
<wgt id='1352'> +1.6863392e-12 </wgt>
<wgt id='1353'> +1.6819420e-12 </wgt>
<wgt id='1354'> +1.6915697e-12 </wgt>
<wgt id='1355'> +1.6826979e-12 </wgt>
<wgt id='1356'> +1.6869326e-12 </wgt>
<wgt id='1357'> +1.6726227e-12 </wgt>
<wgt id='1358'> +1.7003306e-12 </wgt>
<wgt id='1359'> +1.6861727e-12 </wgt>
<wgt id='1360'> +1.6847834e-12 </wgt>
<wgt id='1361'> +1.6911078e-12 </wgt>
<wgt id='1362'> +1.6780650e-12 </wgt>
<wgt id='1363'> +1.7129989e-12 </wgt>
<wgt id='1364'> +1.6673870e-12 </wgt>
<wgt id='1365'> +1.6923548e-12 </wgt>
<wgt id='1366'> +1.6710970e-12 </wgt>
<wgt id='1367'> +1.6961716e-12 </wgt>
<wgt id='1368'> +1.6833521e-12 </wgt>
<wgt id='1369'> +1.6909888e-12 </wgt>
<wgt id='1370'> +1.6778121e-12 </wgt>
<wgt id='1371'> +1.7085581e-12 </wgt>
<wgt id='1372'> +1.6595212e-12 </wgt>
<wgt id='1373'> +1.6808172e-12 </wgt>
<wgt id='1374'> +1.6895101e-12 </wgt>
<wgt id='1375'> +1.6852760e-12 </wgt>
<wgt id='1376'> +1.6952450e-12 </wgt>
<wgt id='1377'> +1.6830737e-12 </wgt>
<wgt id='1378'> +1.6904700e-12 </wgt>
<wgt id='1379'> +1.6860753e-12 </wgt>
<wgt id='1380'> +1.6844283e-12 </wgt>
<wgt id='1381'> +1.6939724e-12 </wgt>
<wgt id='1382'> +1.6763030e-12 </wgt>
<wgt id='1383'> +1.7023109e-12 </wgt>
<wgt id='1384'> +1.6880987e-12 </wgt>
<wgt id='1385'> +1.6859944e-12 </wgt>
<wgt id='1386'> +1.6850822e-12 </wgt>
<wgt id='1387'> +1.6862936e-12 </wgt>
<wgt id='1388'> +1.6948817e-12 </wgt>
<wgt id='1389'> +1.6846391e-12 </wgt>
<wgt id='1390'> +1.6866829e-12 </wgt>
<wgt id='1391'> +1.6130639e-12 </wgt>
<wgt id='1392'> +1.6061170e-12 </wgt>
<wgt id='1393'> +1.6096364e-12 </wgt>
<wgt id='1394'> +1.6118150e-12 </wgt>
<wgt id='1395'> +1.6151131e-12 </wgt>
<wgt id='1396'> +1.6136861e-12 </wgt>
<wgt id='1397'> +1.5995426e-12 </wgt>
<wgt id='1398'> +1.6009688e-12 </wgt>
<wgt id='1399'> +1.6030209e-12 </wgt>
<wgt id='1400'> +1.6058731e-12 </wgt>
<wgt id='1401'> +1.6096041e-12 </wgt>
<wgt id='1402'> +1.6179185e-12 </wgt>
<wgt id='1403'> +1.6228165e-12 </wgt>
<wgt id='1404'> +1.6279516e-12 </wgt>
<wgt id='1405'> +1.6136861e-12 </wgt>
<wgt id='1406'> +1.6114961e-12 </wgt>
<wgt id='1407'> +1.6126226e-12 </wgt>
<wgt id='1408'> +1.6147728e-12 </wgt>
<wgt id='1409'> +1.6152406e-12 </wgt>
<wgt id='1410'> +1.4654898e-12 </wgt>
<wgt id='1411'> +1.4722855e-12 </wgt>
<wgt id='1412'> +1.4566981e-12 </wgt>
<wgt id='1413'> +1.4593686e-12 </wgt>
<wgt id='1414'> +1.4715218e-12 </wgt>
<wgt id='1415'> +1.4624603e-12 </wgt>
<wgt id='1416'> +1.4666897e-12 </wgt>
<wgt id='1417'> +1.4769041e-12 </wgt>
<wgt id='1418'> +1.4540023e-12 </wgt>
<wgt id='1419'> +1.4648789e-12 </wgt>
<wgt id='1420'> +1.4659939e-12 </wgt>
<wgt id='1421'> +1.4623315e-12 </wgt>
<wgt id='1422'> +1.4666522e-12 </wgt>
<wgt id='1423'> +1.4663855e-12 </wgt>
<wgt id='1424'> +1.4643543e-12 </wgt>
<wgt id='1425'> +1.4564152e-12 </wgt>
<wgt id='1426'> +1.4752365e-12 </wgt>
<wgt id='1427'> +1.4454105e-12 </wgt>
<wgt id='1428'> +1.4763756e-12 </wgt>
<wgt id='1429'> +1.4552839e-12 </wgt>
<wgt id='1430'> +1.4795711e-12 </wgt>
<wgt id='1431'> +1.4591059e-12 </wgt>
<wgt id='1432'> +1.4698927e-12 </wgt>
<wgt id='1433'> +1.4551894e-12 </wgt>
<wgt id='1434'> +1.4728049e-12 </wgt>
<wgt id='1435'> +1.4555791e-12 </wgt>
<wgt id='1436'> +1.4903460e-12 </wgt>
<wgt id='1437'> +1.4778198e-12 </wgt>
<wgt id='1438'> +1.4635251e-12 </wgt>
<wgt id='1439'> +1.4590657e-12 </wgt>
<wgt id='1440'> +1.4767261e-12 </wgt>
<wgt id='1441'> +1.4760507e-12 </wgt>
<wgt id='1442'> +1.4459355e-12 </wgt>
<wgt id='1443'> +1.4619893e-12 </wgt>
<wgt id='1444'> +1.4761553e-12 </wgt>
<wgt id='1445'> +1.4777495e-12 </wgt>
<wgt id='1446'> +1.4633450e-12 </wgt>
<wgt id='1447'> +1.4678120e-12 </wgt>
<wgt id='1448'> +1.4673653e-12 </wgt>
<wgt id='1449'> +1.4671824e-12 </wgt>
<wgt id='1450'> +1.4638212e-12 </wgt>
<wgt id='1451'> +1.4624087e-12 </wgt>
<wgt id='1452'> +1.4749735e-12 </wgt>
<wgt id='1453'> +1.4661734e-12 </wgt>
<wgt id='1454'> +1.4639265e-12 </wgt>
<wgt id='1455'> +1.4746075e-12 </wgt>
<wgt id='1456'> +1.4719279e-12 </wgt>
<wgt id='1457'> +1.4683629e-12 </wgt>
<wgt id='1458'> +1.4661942e-12 </wgt>
<wgt id='1459'> +1.4716032e-12 </wgt>
<wgt id='1460'> +1.4748874e-12 </wgt>
<wgt id='1461'> +1.4654898e-12 </wgt>
<wgt id='1462'> +1.4697455e-12 </wgt>
<wgt id='1463'> +1.4580362e-12 </wgt>
<wgt id='1464'> +1.4640383e-12 </wgt>
<wgt id='1465'> +1.4446760e-12 </wgt>
<wgt id='1466'> +1.4473471e-12 </wgt>
<wgt id='1467'> +1.4508683e-12 </wgt>
<wgt id='1468'> +1.4569941e-12 </wgt>
<wgt id='1469'> +1.4597668e-12 </wgt>
<wgt id='1470'> +1.4688524e-12 </wgt>
<wgt id='1471'> +1.4733710e-12 </wgt>
<wgt id='1472'> +1.4780033e-12 </wgt>
<wgt id='1473'> +1.4640383e-12 </wgt>
<wgt id='1474'> +1.4632774e-12 </wgt>
<wgt id='1475'> +1.4642239e-12 </wgt>
<wgt id='1476'> +1.4641186e-12 </wgt>
<wgt id='1477'> +1.4641900e-12 </wgt>
<wgt id='1478'> +1.5831281e-12 </wgt>
<wgt id='1479'> +1.5767222e-12 </wgt>
<wgt id='1480'> +1.5646970e-12 </wgt>
<wgt id='1481'> +1.6032841e-12 </wgt>
<wgt id='1482'> +1.5807526e-12 </wgt>
<wgt id='1483'> +1.5744865e-12 </wgt>
<wgt id='1484'> +1.5559391e-12 </wgt>
<wgt id='1485'> +1.5698629e-12 </wgt>
<wgt id='1486'> +1.5870952e-12 </wgt>
<wgt id='1487'> +1.5847070e-12 </wgt>
<wgt id='1488'> +1.5796056e-12 </wgt>
<wgt id='1489'> +1.5927821e-12 </wgt>
<wgt id='1490'> +1.5831573e-12 </wgt>
<wgt id='1491'> +1.5828687e-12 </wgt>
<wgt id='1492'> +1.5912718e-12 </wgt>
<wgt id='1493'> +1.5622639e-12 </wgt>
<wgt id='1494'> +1.5820430e-12 </wgt>
<wgt id='1495'> +1.5746063e-12 </wgt>
<wgt id='1496'> +1.5856153e-12 </wgt>
<wgt id='1497'> +1.5817072e-12 </wgt>
<wgt id='1498'> +1.5871171e-12 </wgt>
<wgt id='1499'> +1.5722358e-12 </wgt>
<wgt id='1500'> +1.5823743e-12 </wgt>
<wgt id='1501'> +1.5924282e-12 </wgt>
<wgt id='1502'> +1.5884734e-12 </wgt>
<wgt id='1503'> +1.5845343e-12 </wgt>
<wgt id='1504'> +1.5796243e-12 </wgt>
<wgt id='1505'> +1.5840777e-12 </wgt>
<wgt id='1506'> +1.5737503e-12 </wgt>
<wgt id='1507'> +1.5839517e-12 </wgt>
<wgt id='1508'> +1.5780466e-12 </wgt>
<wgt id='1509'> +1.4943966e-12 </wgt>
<wgt id='1510'> +1.4859069e-12 </wgt>
<wgt id='1511'> +1.4939609e-12 </wgt>
<wgt id='1512'> +1.4880500e-12 </wgt>
<wgt id='1513'> +1.4940469e-12 </wgt>
<wgt id='1514'> +1.4995047e-12 </wgt>
<wgt id='1515'> +1.5064212e-12 </wgt>
<wgt id='1516'> +1.4945581e-12 </wgt>
<wgt id='1517'> +1.5033445e-12 </wgt>
<wgt id='1518'> +1.5019915e-12 </wgt>
<wgt id='1519'> +1.4953314e-12 </wgt>
<wgt id='1520'> +1.4925581e-12 </wgt>
<wgt id='1521'> +1.4940621e-12 </wgt>
<wgt id='1522'> +1.4964087e-12 </wgt>
<wgt id='1523'> +1.5032636e-12 </wgt>
<wgt id='1524'> +1.4847191e-12 </wgt>
<wgt id='1525'> +1.4980955e-12 </wgt>
<wgt id='1526'> +1.4966173e-12 </wgt>
<wgt id='1527'> +1.4947147e-12 </wgt>
<wgt id='1528'> +1.4972820e-12 </wgt>
<wgt id='1529'> +1.4897542e-12 </wgt>
<wgt id='1530'> +1.4925358e-12 </wgt>
<wgt id='1531'> +1.5006731e-12 </wgt>
<wgt id='1532'> +1.4926637e-12 </wgt>
<wgt id='1533'> +1.5003121e-12 </wgt>
<wgt id='1534'> +1.4905291e-12 </wgt>
<wgt id='1535'> +1.4965899e-12 </wgt>
<wgt id='1536'> +1.5082785e-12 </wgt>
<wgt id='1537'> +1.4957112e-12 </wgt>
<wgt id='1538'> +1.4707578e-12 </wgt>
<wgt id='1539'> +1.4895182e-12 </wgt>
<wgt id='1540'> +1.4836838e-12 </wgt>
<wgt id='1541'> +1.4684728e-12 </wgt>
<wgt id='1542'> +1.5182413e-12 </wgt>
<wgt id='1543'> +1.4833399e-12 </wgt>
<wgt id='1544'> +1.5009060e-12 </wgt>
<wgt id='1545'> +1.4944114e-12 </wgt>
<wgt id='1546'> +1.5082069e-12 </wgt>
<wgt id='1547'> +1.4776637e-12 </wgt>
<wgt id='1548'> +1.4914637e-12 </wgt>
<wgt id='1549'> +1.4935765e-12 </wgt>
<wgt id='1550'> +1.4990455e-12 </wgt>
<wgt id='1551'> +1.4912347e-12 </wgt>
<wgt id='1552'> +1.4986483e-12 </wgt>
<wgt id='1553'> +1.4925425e-12 </wgt>
<wgt id='1554'> +1.5067677e-12 </wgt>
<wgt id='1555'> +1.4822200e-12 </wgt>
<wgt id='1556'> +1.4826600e-12 </wgt>
<wgt id='1557'> +1.4721938e-12 </wgt>
<wgt id='1558'> +1.4838567e-12 </wgt>
<wgt id='1559'> +1.5044545e-12 </wgt>
<wgt id='1560'> +1.5049150e-12 </wgt>
<wgt id='1561'> +1.4847343e-12 </wgt>
<wgt id='1562'> +1.4970398e-12 </wgt>
<wgt id='1563'> +1.5066855e-12 </wgt>
<wgt id='1564'> +1.5014478e-12 </wgt>
<wgt id='1565'> +1.5031708e-12 </wgt>
<wgt id='1566'> +1.5001150e-12 </wgt>
<wgt id='1567'> +1.5064192e-12 </wgt>
<wgt id='1568'> +1.5033813e-12 </wgt>
<wgt id='1569'> +1.5135889e-12 </wgt>
<wgt id='1570'> +1.4983962e-12 </wgt>
<wgt id='1571'> +1.4746063e-12 </wgt>
<wgt id='1572'> +1.4807735e-12 </wgt>
<wgt id='1573'> +1.5041298e-12 </wgt>
<wgt id='1574'> +1.5036883e-12 </wgt>
<wgt id='1575'> +1.4910619e-12 </wgt>
<wgt id='1576'> +1.4950607e-12 </wgt>
<wgt id='1577'> +1.4894394e-12 </wgt>
<wgt id='1578'> +1.4793507e-12 </wgt>
<wgt id='1579'> +1.4950839e-12 </wgt>
<wgt id='1580'> +1.4975918e-12 </wgt>
<wgt id='1581'> +1.5016929e-12 </wgt>
<wgt id='1582'> +1.4862437e-12 </wgt>
<wgt id='1583'> +1.4921510e-12 </wgt>
<wgt id='1584'> +1.4929482e-12 </wgt>
<wgt id='1585'> +1.5021247e-12 </wgt>
<wgt id='1586'> +1.4985366e-12 </wgt>
<wgt id='1587'> +1.5017133e-12 </wgt>
<wgt id='1588'> +1.4971019e-12 </wgt>
<wgt id='1589'> +1.4962814e-12 </wgt>
<wgt id='1590'> +1.4925465e-12 </wgt>
<wgt id='1591'> +1.4946749e-12 </wgt>
<wgt id='1592'> +1.4999088e-12 </wgt>
<wgt id='1593'> +1.4997755e-12 </wgt>
<wgt id='1594'> +1.4885798e-12 </wgt>
<wgt id='1595'> +1.5007844e-12 </wgt>
<wgt id='1596'> +1.4949502e-12 </wgt>
<wgt id='1597'> +1.4906630e-12 </wgt>
<wgt id='1598'> +1.4864974e-12 </wgt>
<wgt id='1599'> +1.4923958e-12 </wgt>
<wgt id='1600'> +1.4908106e-12 </wgt>
<wgt id='1601'> +1.4897273e-12 </wgt>
<wgt id='1602'> +1.4868817e-12 </wgt>
<wgt id='1603'> +1.4969483e-12 </wgt>
<wgt id='1604'> +1.4965886e-12 </wgt>
<wgt id='1605'> +1.4892173e-12 </wgt>
<wgt id='1606'> +1.4903475e-12 </wgt>
<wgt id='1607'> +1.4963742e-12 </wgt>
<wgt id='1608'> +1.4995735e-12 </wgt>
<wgt id='1609'> +1.4913520e-12 </wgt>
<wgt id='1610'> +1.4955863e-12 </wgt>
<wgt id='1611'> +1.5230306e-12 </wgt>
<wgt id='1612'> +1.5914565e-12 </wgt>
<wgt id='1613'> +1.4732091e-12 </wgt>
<wgt id='1614'> +1.5829984e-12 </wgt>
<wgt id='1615'> +1.6402652e-12 </wgt>
<wgt id='1616'> +1.4840890e-12 </wgt>
<wgt id='1617'> +1.6766432e-12 </wgt>
<wgt id='1618'> +1.4708319e-12 </wgt>
<wgt id='1619'> +1.6920088e-12 </wgt>
<wgt id='1620'> +1.5679996e-12 </wgt>
<wgt id='1621'> +1.7185627e-12 </wgt>
<wgt id='1622'> +1.5723445e-12 </wgt>
<wgt id='1623'> +1.6357583e-12 </wgt>
<wgt id='1624'> +1.6569697e-12 </wgt>
<wgt id='1625'> +1.4755644e-12 </wgt>
<wgt id='1626'> +1.4727776e-12 </wgt>
<wgt id='1627'> +1.6436148e-12 </wgt>
<wgt id='1628'> +1.3809414e-12 </wgt>
<wgt id='1629'> +1.5827844e-12 </wgt>
<wgt id='1630'> +1.6403143e-12 </wgt>
<wgt id='1631'> +1.6372214e-12 </wgt>
<wgt id='1632'> +1.5295236e-12 </wgt>
<wgt id='1633'> +1.5011655e-12 </wgt>
<wgt id='1634'> +1.7122788e-12 </wgt>
<wgt id='1635'> +1.6695828e-12 </wgt>
<wgt id='1636'> +1.6342423e-12 </wgt>
<wgt id='1637'> +1.5743718e-12 </wgt>
<wgt id='1638'> +1.4745600e-12 </wgt>
<wgt id='1639'> +1.6420732e-12 </wgt>
<wgt id='1640'> +1.6351841e-12 </wgt>
<wgt id='1641'> +1.5540483e-12 </wgt>
<wgt id='1642'> +1.5709529e-12 </wgt>
<wgt id='1643'> +1.5481010e-12 </wgt>
<wgt id='1644'> +1.4212026e-12 </wgt>
<wgt id='1645'> +1.4637350e-12 </wgt>
<wgt id='1646'> +1.6162304e-12 </wgt>
<wgt id='1647'> +1.6473128e-12 </wgt>
<wgt id='1648'> +1.4933456e-12 </wgt>
<wgt id='1649'> +1.4982138e-12 </wgt>
<wgt id='1650'> +1.7178993e-12 </wgt>
<wgt id='1651'> +1.7325695e-12 </wgt>
<wgt id='1652'> +1.4908357e-12 </wgt>
<wgt id='1653'> +1.5763160e-12 </wgt>
<wgt id='1654'> +1.6871610e-12 </wgt>
<wgt id='1655'> +1.7517866e-12 </wgt>
<wgt id='1656'> +1.6731860e-12 </wgt>
<wgt id='1657'> +1.6933357e-12 </wgt>
<wgt id='1658'> +1.4070777e-12 </wgt>
<wgt id='1659'> +1.6569697e-12 </wgt>
<wgt id='1660'> +1.5043784e-12 </wgt>
<wgt id='1661'> +1.8880396e-12 </wgt>
<wgt id='1662'> +1.6718718e-12 </wgt>
<wgt id='1663'> +1.6333686e-12 </wgt>
<wgt id='1664'> +1.7022529e-12 </wgt>
<wgt id='1665'> +1.6512270e-12 </wgt>
<wgt id='1666'> +1.5581655e-12 </wgt>
<wgt id='1667'> +1.6735790e-12 </wgt>
<wgt id='1668'> +1.6807052e-12 </wgt>
<wgt id='1669'> +1.7793970e-12 </wgt>
<wgt id='1670'> +1.5454933e-12 </wgt>
<wgt id='1671'> +1.6800298e-12 </wgt>
<wgt id='1672'> +1.5974171e-12 </wgt>
<wgt id='1673'> +1.6283870e-12 </wgt>
<wgt id='1674'> +1.5913300e-12 </wgt>
<wgt id='1675'> +1.5243419e-12 </wgt>
<wgt id='1676'> +1.5456678e-12 </wgt>
<wgt id='1677'> +1.7529072e-12 </wgt>
<wgt id='1678'> +1.5276809e-12 </wgt>
<wgt id='1679'> +1.5678438e-12 </wgt>
<wgt id='1680'> +1.4856482e-12 </wgt>
<wgt id='1681'> +1.5858945e-12 </wgt>
<wgt id='1682'> +1.7855427e-12 </wgt>
<wgt id='1683'> +1.6199379e-12 </wgt>
<wgt id='1684'> +1.6546880e-12 </wgt>
<wgt id='1685'> +1.6788907e-12 </wgt>
<wgt id='1686'> +1.5684939e-12 </wgt>
<wgt id='1687'> +1.5695940e-12 </wgt>
<wgt id='1688'> +1.3951688e-12 </wgt>
<wgt id='1689'> +1.5799809e-12 </wgt>
<wgt id='1690'> +1.6941016e-12 </wgt>
<wgt id='1691'> +1.5567421e-12 </wgt>
<wgt id='1692'> +1.4725330e-12 </wgt>
<wgt id='1693'> +1.5460174e-12 </wgt>
<wgt id='1694'> +1.4907385e-12 </wgt>
<wgt id='1695'> +1.6906349e-12 </wgt>
<wgt id='1696'> +1.6930887e-12 </wgt>
<wgt id='1697'> +1.4806848e-12 </wgt>
<wgt id='1698'> +1.2366765e-12 </wgt>
<wgt id='1699'> +1.5204715e-12 </wgt>
<wgt id='1700'> +1.4351987e-12 </wgt>
<wgt id='1701'> +1.6057381e-12 </wgt>
<wgt id='1702'> +1.5739679e-12 </wgt>
<wgt id='1703'> +1.6415552e-12 </wgt>
<wgt id='1704'> +1.5169899e-12 </wgt>
<wgt id='1705'> +1.6442500e-12 </wgt>
<wgt id='1706'> +1.5208649e-12 </wgt>
<wgt id='1707'> +1.6160899e-12 </wgt>
<wgt id='1708'> +1.6576067e-12 </wgt>
<wgt id='1709'> +1.5503402e-12 </wgt>
<wgt id='1710'> +1.6736781e-12 </wgt>
<wgt id='1711'> +1.5170333e-12 </wgt>
<wgt id='1712'> +1.5783600e-12 </wgt>
<wgt id='1713'> +1.5132911e-12 </wgt>
<wgt id='1714'> +1.5048902e-12 </wgt>
<wgt id='1715'> +1.4713582e-12 </wgt>
<wgt id='1716'> +1.5115604e-12 </wgt>
<wgt id='1717'> +1.5637850e-12 </wgt>
<wgt id='1718'> +1.6214407e-12 </wgt>
<wgt id='1719'> +1.5495879e-12 </wgt>
<wgt id='1720'> +1.5375761e-12 </wgt>
<wgt id='1721'> +1.4019626e-12 </wgt>
<wgt id='1722'> +1.5018259e-12 </wgt>
<wgt id='1723'> +1.5610573e-12 </wgt>
<wgt id='1724'> +1.5125614e-12 </wgt>
<wgt id='1725'> +1.4999936e-12 </wgt>
<wgt id='1726'> +1.4471894e-12 </wgt>
<wgt id='1727'> +1.5905926e-12 </wgt>
<wgt id='1728'> +1.4866709e-12 </wgt>
<wgt id='1729'> +1.4661210e-12 </wgt>
<wgt id='1730'> +1.4361825e-12 </wgt>
<wgt id='1731'> +1.5136439e-12 </wgt>
<wgt id='1732'> +1.5078743e-12 </wgt>
<wgt id='1733'> +1.4530136e-12 </wgt>
<wgt id='1734'> +1.5103105e-12 </wgt>
<wgt id='1735'> +1.5681830e-12 </wgt>
<wgt id='1736'> +1.5664336e-12 </wgt>
<wgt id='1737'> +1.6077567e-12 </wgt>
<wgt id='1738'> +1.4900170e-12 </wgt>
<wgt id='1739'> +1.5345287e-12 </wgt>
<wgt id='1740'> +1.4356120e-12 </wgt>
<wgt id='1741'> +1.5326606e-12 </wgt>
<wgt id='1742'> +1.4664410e-12 </wgt>
<wgt id='1743'> +1.5189571e-12 </wgt>
<wgt id='1744'> +1.5335385e-12 </wgt>
<wgt id='1745'> +1.5295194e-12 </wgt>
<wgt id='1746'> +1.4408978e-12 </wgt>
<wgt id='1747'> +1.5669242e-12 </wgt>
<wgt id='1748'> +1.5231943e-12 </wgt>
<wgt id='1749'> +1.4964198e-12 </wgt>
<wgt id='1750'> +1.4578396e-12 </wgt>
<wgt id='1751'> +1.5092092e-12 </wgt>
<wgt id='1752'> +1.5987816e-12 </wgt>
<wgt id='1753'> +1.5035137e-12 </wgt>
<wgt id='1754'> +1.5819020e-12 </wgt>
<wgt id='1755'> +1.4944660e-12 </wgt>
<wgt id='1756'> +1.4931094e-12 </wgt>
<wgt id='1757'> +1.5282494e-12 </wgt>
<wgt id='1758'> +1.6189452e-12 </wgt>
<wgt id='1759'> +1.5317916e-12 </wgt>
<wgt id='1760'> +1.4976261e-12 </wgt>
<wgt id='1761'> +1.5392193e-12 </wgt>
<wgt id='1762'> +1.3936213e-12 </wgt>
<wgt id='1763'> +1.4590602e-12 </wgt>
<wgt id='1764'> +1.5759791e-12 </wgt>
<wgt id='1765'> +1.5040522e-12 </wgt>
<wgt id='1766'> +1.5631961e-12 </wgt>
<wgt id='1767'> +1.5328300e-12 </wgt>
<wgt id='1768'> +1.5678290e-12 </wgt>
<wgt id='1769'> +1.5513958e-12 </wgt>
<wgt id='1770'> +1.5169053e-12 </wgt>
<wgt id='1771'> +1.5136475e-12 </wgt>
<wgt id='1772'> +1.4671221e-12 </wgt>
<wgt id='1773'> +1.5145660e-12 </wgt>
<wgt id='1774'> +1.5158874e-12 </wgt>
<wgt id='1775'> +1.3949473e-12 </wgt>
<wgt id='1776'> +1.5980442e-12 </wgt>
<wgt id='1777'> +1.4507973e-12 </wgt>
<wgt id='1778'> +1.6055524e-12 </wgt>
<wgt id='1779'> +1.5702135e-12 </wgt>
<wgt id='1780'> +1.5178205e-12 </wgt>
<wgt id='1781'> +1.5218361e-12 </wgt>
<wgt id='1782'> +1.5736623e-12 </wgt>
<wgt id='1783'> +1.5153855e-12 </wgt>
<wgt id='1784'> +1.5751363e-12 </wgt>
<wgt id='1785'> +1.5224819e-12 </wgt>
<wgt id='1786'> +1.5726834e-12 </wgt>
<wgt id='1787'> +1.6173316e-12 </wgt>
<wgt id='1788'> +1.4331908e-12 </wgt>
<wgt id='1789'> +1.5080204e-12 </wgt>
<wgt id='1790'> +1.5525077e-12 </wgt>
<wgt id='1791'> +1.5083315e-12 </wgt>
<wgt id='1792'> +1.4823799e-12 </wgt>
<wgt id='1793'> +1.4969143e-12 </wgt>
<wgt id='1794'> +1.5211490e-12 </wgt>
<wgt id='1795'> +1.4805318e-12 </wgt>
<wgt id='1796'> +1.3889103e-12 </wgt>
<wgt id='1797'> +1.6150608e-12 </wgt>
<wgt id='1798'> +1.4536523e-12 </wgt>
<wgt id='1799'> +1.5233802e-12 </wgt>
<wgt id='1800'> +1.5269873e-12 </wgt>
<wgt id='1801'> +1.4853668e-12 </wgt>
<wgt id='1802'> +1.4312264e-12 </wgt>
<wgt id='1803'> +1.4944947e-12 </wgt>
<wgt id='1804'> +1.5016385e-12 </wgt>
<wgt id='1805'> +1.5130533e-12 </wgt>
<wgt id='1806'> +1.4970319e-12 </wgt>
<wgt id='1807'> +1.5461084e-12 </wgt>
<wgt id='1808'> +1.3917362e-12 </wgt>
<wgt id='1809'> +1.5175073e-12 </wgt>
<wgt id='1810'> +1.5678590e-12 </wgt>
<wgt id='1811'> +1.5408761e-12 </wgt>
<wgt id='1812'> +1.4342418e-12 </wgt>
<wgt id='1813'> +1.3913594e-12 </wgt>
<wgt id='1814'> +2.3869227e-12 </wgt>
<wgt id='1815'> +2.7703523e-12 </wgt>
<wgt id='1816'> +1.5132911e-12 </wgt>
<wgt id='1817'> +1.5048902e-12 </wgt>
<wgt id='1818'> +1.4713582e-12 </wgt>
<wgt id='1819'> +1.5115604e-12 </wgt>
<wgt id='1820'> +1.5637850e-12 </wgt>
<wgt id='1821'> +1.6214407e-12 </wgt>
<wgt id='1822'> +1.5495879e-12 </wgt>
<wgt id='1823'> +1.5375761e-12 </wgt>
<wgt id='1824'> +1.4019626e-12 </wgt>
<wgt id='1825'> +1.5018259e-12 </wgt>
<wgt id='1826'> +1.5610573e-12 </wgt>
<wgt id='1827'> +1.5125614e-12 </wgt>
<wgt id='1828'> +1.4999936e-12 </wgt>
<wgt id='1829'> +1.4471894e-12 </wgt>
<wgt id='1830'> +1.5905926e-12 </wgt>
<wgt id='1831'> +1.4866709e-12 </wgt>
<wgt id='1832'> +1.4661210e-12 </wgt>
<wgt id='1833'> +1.4361825e-12 </wgt>
<wgt id='1834'> +1.5136439e-12 </wgt>
<wgt id='1835'> +1.5078743e-12 </wgt>
<wgt id='1836'> +1.4530136e-12 </wgt>
<wgt id='1837'> +1.5103105e-12 </wgt>
<wgt id='1838'> +1.5681830e-12 </wgt>
<wgt id='1839'> +1.5664336e-12 </wgt>
<wgt id='1840'> +1.6077567e-12 </wgt>
<wgt id='1841'> +1.4900170e-12 </wgt>
<wgt id='1842'> +1.5345287e-12 </wgt>
<wgt id='1843'> +1.4356120e-12 </wgt>
<wgt id='1844'> +1.5326606e-12 </wgt>
<wgt id='1845'> +1.4664410e-12 </wgt>
<wgt id='1846'> +1.5189571e-12 </wgt>
<wgt id='1847'> +1.5335385e-12 </wgt>
<wgt id='1848'> +1.5295194e-12 </wgt>
<wgt id='1849'> +1.4408978e-12 </wgt>
<wgt id='1850'> +1.5669242e-12 </wgt>
<wgt id='1851'> +1.5231943e-12 </wgt>
<wgt id='1852'> +1.4964198e-12 </wgt>
<wgt id='1853'> +1.4578396e-12 </wgt>
<wgt id='1854'> +1.5092092e-12 </wgt>
<wgt id='1855'> +1.5987816e-12 </wgt>
<wgt id='1856'> +1.5035137e-12 </wgt>
<wgt id='1857'> +1.5819020e-12 </wgt>
<wgt id='1858'> +1.4944660e-12 </wgt>
<wgt id='1859'> +1.4931094e-12 </wgt>
<wgt id='1860'> +1.5282494e-12 </wgt>
<wgt id='1861'> +1.6189452e-12 </wgt>
<wgt id='1862'> +1.5317916e-12 </wgt>
<wgt id='1863'> +1.4976261e-12 </wgt>
<wgt id='1864'> +1.5392193e-12 </wgt>
<wgt id='1865'> +1.3936213e-12 </wgt>
<wgt id='1866'> +1.4590602e-12 </wgt>
<wgt id='1867'> +1.5759791e-12 </wgt>
<wgt id='1868'> +1.5040522e-12 </wgt>
<wgt id='1869'> +1.5631961e-12 </wgt>
<wgt id='1870'> +1.5328300e-12 </wgt>
<wgt id='1871'> +1.5678290e-12 </wgt>
<wgt id='1872'> +1.5513958e-12 </wgt>
<wgt id='1873'> +1.5169053e-12 </wgt>
<wgt id='1874'> +1.5136475e-12 </wgt>
<wgt id='1875'> +1.4671221e-12 </wgt>
<wgt id='1876'> +1.5145660e-12 </wgt>
<wgt id='1877'> +1.5158874e-12 </wgt>
<wgt id='1878'> +1.3949473e-12 </wgt>
<wgt id='1879'> +1.5980442e-12 </wgt>
<wgt id='1880'> +1.4507973e-12 </wgt>
<wgt id='1881'> +1.6055524e-12 </wgt>
<wgt id='1882'> +1.5702135e-12 </wgt>
<wgt id='1883'> +1.5178205e-12 </wgt>
<wgt id='1884'> +1.5218361e-12 </wgt>
<wgt id='1885'> +1.5736623e-12 </wgt>
<wgt id='1886'> +1.5153855e-12 </wgt>
<wgt id='1887'> +1.5751363e-12 </wgt>
<wgt id='1888'> +1.5224819e-12 </wgt>
<wgt id='1889'> +1.5726834e-12 </wgt>
<wgt id='1890'> +1.6173316e-12 </wgt>
<wgt id='1891'> +1.4331908e-12 </wgt>
<wgt id='1892'> +1.5080204e-12 </wgt>
<wgt id='1893'> +1.5525077e-12 </wgt>
<wgt id='1894'> +1.5083315e-12 </wgt>
<wgt id='1895'> +1.4823799e-12 </wgt>
<wgt id='1896'> +1.4969143e-12 </wgt>
<wgt id='1897'> +1.5211490e-12 </wgt>
<wgt id='1898'> +1.4805318e-12 </wgt>
<wgt id='1899'> +1.3889103e-12 </wgt>
<wgt id='1900'> +1.6150608e-12 </wgt>
<wgt id='1901'> +1.4536523e-12 </wgt>
<wgt id='1902'> +1.5233802e-12 </wgt>
<wgt id='1903'> +1.5269873e-12 </wgt>
<wgt id='1904'> +1.4853668e-12 </wgt>
<wgt id='1905'> +1.4312264e-12 </wgt>
<wgt id='1906'> +1.4944947e-12 </wgt>
<wgt id='1907'> +1.5016385e-12 </wgt>
<wgt id='1908'> +1.5130533e-12 </wgt>
<wgt id='1909'> +1.4970319e-12 </wgt>
<wgt id='1910'> +1.5461084e-12 </wgt>
<wgt id='1911'> +1.3917362e-12 </wgt>
<wgt id='1912'> +1.5175073e-12 </wgt>
<wgt id='1913'> +1.5678590e-12 </wgt>
<wgt id='1914'> +1.5408761e-12 </wgt>
<wgt id='1915'> +1.4342418e-12 </wgt>
<wgt id='1916'> +1.3913594e-12 </wgt>
<wgt id='1917'> +1.5172046e-12 </wgt>
<wgt id='1918'> +1.5268556e-12 </wgt>
<wgt id='1919'> +1.4178248e-12 </wgt>
</rwgt>
</event>
<event>
 9      1 +1.5607000e-12 2.51205000e+01 7.81860800e-03 1.50506100e-01
       21 -1    0    0  501  502 +0.0000000000e+00 +0.0000000000e+00 +1.2594489178e+00 1.2594489178e+00 0.0000000000e+00 0.0000e+00 -1.0000e+00
       -3 -1    0    0    0  501 -0.0000000000e+00 -0.0000000000e+00 -4.0693476580e+02 4.0693476580e+02 0.0000000000e+00 0.0000e+00 -1.0000e+00
     1023  2    1    2    0    0 +8.5474874372e+00 +1.8247797194e+01 -2.2855061417e+02 2.2992699408e+02 1.4999924136e+01 0.0000e+00 0.0000e+00
  1000023  2    3    3    0    0 +4.6333007331e+00 +6.8572348883e+00 -5.5255130581e+01 5.6141521728e+01 5.5001691311e+00 0.0000e+00 0.0000e+00
       -3  1    1    2    0  502 -8.5474874372e+00 -1.8247797194e+01 -1.7712470271e+02 1.7826722064e+02 0.0000000000e+00 0.0000e+00 -1.0000e+00
  1000022  1    4    4    0    0 +4.1939137165e+00 +5.9380913595e+00 -4.7386822987e+01 4.8201253449e+01 5.0000000000e+00 0.0000e+00 -1.0000e+00
      -13  1    4    4    0    0 +4.9904232458e-02 +1.1373392675e-01 -1.4207044777e+00 1.4300348042e+00 1.0570000000e-01 0.0000e+00 1.0000e+00
       13  1    4    4    0    0 +3.8948278421e-01 +8.0540960200e-01 -6.4476031164e+00 6.5102334753e+00 1.0570000000e-01 0.0000e+00 -1.0000e+00
  1000022  1    3    3    0    0 +3.9141867041e+00 +1.1390562306e+01 -1.7329548359e+02 1.7378547235e+02 5.0000000000e+00 0.0000e+00 -1.0000e+00
<mgrwt>
<rscale>  1 0.25120497E+02</rscale>
<asrwt>0</asrwt>
<pdfrwt beam="1">  1       21 0.19376150E-03 0.25120497E+02</pdfrwt>
<pdfrwt beam="2">  1       -3 0.62605307E-01 0.25120497E+02</pdfrwt>
<totfact> 0.39660996E+06</totfact>
</mgrwt>
<rwgt>
<wgt id='1001'> +1.5607000e-12 </wgt>
<wgt id='1002'> +1.6855640e-12 </wgt>
<wgt id='1003'> +1.6989061e-12 </wgt>
<wgt id='1004'> +1.5128953e-12 </wgt>
<wgt id='1005'> +1.7094126e-12 </wgt>
<wgt id='1006'> +1.3587176e-12 </wgt>
<wgt id='1007'> +1.4864408e-12 </wgt>
<wgt id='1008'> +1.5004052e-12 </wgt>
<wgt id='1009'> +1.3108844e-12 </wgt>
<wgt id='1010'> +1.5114453e-12 </wgt>
<wgt id='1011'> +1.8368547e-12 </wgt>
<wgt id='1012'> +1.9491577e-12 </wgt>
<wgt id='1013'> +1.9607121e-12 </wgt>
<wgt id='1014'> +1.7924581e-12 </wgt>
<wgt id='1015'> +1.9697305e-12 </wgt>
<wgt id='1016'> +1.9875663e-12 </wgt>
<wgt id='1017'> +2.0519750e-12 </wgt>
<wgt id='1018'> +2.0583605e-12 </wgt>
<wgt id='1019'> +1.9607121e-12 </wgt>
<wgt id='1020'> +2.0632833e-12 </wgt>
<wgt id='1021'> +1.7303397e-12 </wgt>
<wgt id='1022'> +1.8095661e-12 </wgt>
<wgt id='1023'> +1.8178608e-12 </wgt>
<wgt id='1024'> +1.6989061e-12 </wgt>
<wgt id='1025'> +1.8243342e-12 </wgt>
<wgt id='1026'> +2.3392519e-12 </wgt>
<wgt id='1027'> +2.3728693e-12 </wgt>
<wgt id='1028'> +2.3755595e-12 </wgt>
<wgt id='1029'> +2.3230256e-12 </wgt>
<wgt id='1030'> +2.3774904e-12 </wgt>
<wgt id='1031'> +1.1105072e-12 </wgt>
<wgt id='1032'> +1.2907483e-12 </wgt>
<wgt id='1033'> +1.3108844e-12 </wgt>
<wgt id='1034'> +1.0437584e-12 </wgt>
<wgt id='1035'> +1.3268103e-12 </wgt>
<wgt id='1036'> +9.6678778e-13 </wgt>
<wgt id='1037'> +1.1382665e-12 </wgt>
<wgt id='1038'> +1.1577201e-12 </wgt>
<wgt id='1039'> +9.0438950e-13 </wgt>
<wgt id='1040'> +1.1731522e-12 </wgt>
<wgt id='1041'> +1.3070035e-12 </wgt>
<wgt id='1042'> +1.4925996e-12 </wgt>
<wgt id='1043'> +1.5128953e-12 </wgt>
<wgt id='1044'> +1.2366310e-12 </wgt>
<wgt id='1045'> +1.5288636e-12 </wgt>
<wgt id='1046'> +1.5607000e-12 </wgt>
<wgt id='1047'> +1.2809025e-12 </wgt>
<wgt id='1048'> +1.5520667e-12 </wgt>
<wgt id='1049'> +1.3475990e-12 </wgt>
<wgt id='1050'> +1.4468422e-12 </wgt>
<wgt id='1051'> +1.5189450e-12 </wgt>
<wgt id='1052'> +1.5530484e-12 </wgt>
<wgt id='1053'> +1.5912922e-12 </wgt>
<wgt id='1054'> +1.6375960e-12 </wgt>
<wgt id='1055'> +1.6241694e-12 </wgt>
<wgt id='1056'> +1.7232724e-12 </wgt>
<wgt id='1057'> +1.4738286e-12 </wgt>
<wgt id='1058'> +1.6050943e-12 </wgt>
<wgt id='1059'> +1.5441066e-12 </wgt>
<wgt id='1060'> +1.5361867e-12 </wgt>
<wgt id='1061'> +1.5787300e-12 </wgt>
<wgt id='1062'> +1.4745930e-12 </wgt>
<wgt id='1063'> +1.3436388e-12 </wgt>
<wgt id='1064'> +1.4549770e-12 </wgt>
<wgt id='1065'> +1.5476270e-12 </wgt>
<wgt id='1066'> +1.8053948e-12 </wgt>
<wgt id='1067'> +1.5766529e-12 </wgt>
<wgt id='1068'> +1.5679940e-12 </wgt>
<wgt id='1069'> +1.6368838e-12 </wgt>
<wgt id='1070'> +1.4909866e-12 </wgt>
<wgt id='1071'> +1.5626451e-12 </wgt>
<wgt id='1072'> +1.4767101e-12 </wgt>
<wgt id='1073'> +1.6238906e-12 </wgt>
<wgt id='1074'> +1.5284614e-12 </wgt>
<wgt id='1075'> +1.6086983e-12 </wgt>
<wgt id='1076'> +1.4797383e-12 </wgt>
<wgt id='1077'> +1.5680369e-12 </wgt>
<wgt id='1078'> +1.5918766e-12 </wgt>
<wgt id='1079'> +1.4337497e-12 </wgt>
<wgt id='1080'> +1.6051469e-12 </wgt>
<wgt id='1081'> +1.4760608e-12 </wgt>
<wgt id='1082'> +1.4710883e-12 </wgt>
<wgt id='1083'> +1.4979108e-12 </wgt>
<wgt id='1084'> +1.4574939e-12 </wgt>
<wgt id='1085'> +1.6383968e-12 </wgt>
<wgt id='1086'> +1.5803876e-12 </wgt>
<wgt id='1087'> +1.5317803e-12 </wgt>
<wgt id='1088'> +1.5760116e-12 </wgt>
<wgt id='1089'> +1.4469512e-12 </wgt>
<wgt id='1090'> +1.5128789e-12 </wgt>
<wgt id='1091'> +1.6500367e-12 </wgt>
<wgt id='1092'> +1.6096632e-12 </wgt>
<wgt id='1093'> +1.4730759e-12 </wgt>
<wgt id='1094'> +1.4051679e-12 </wgt>
<wgt id='1095'> +1.6674593e-12 </wgt>
<wgt id='1096'> +1.5651345e-12 </wgt>
<wgt id='1097'> +1.6551280e-12 </wgt>
<wgt id='1098'> +1.7654661e-12 </wgt>
<wgt id='1099'> +1.4529736e-12 </wgt>
<wgt id='1100'> +1.5478199e-12 </wgt>
<wgt id='1101'> +1.4921006e-12 </wgt>
<wgt id='1102'> +1.5234783e-12 </wgt>
<wgt id='1103'> +1.5842321e-12 </wgt>
<wgt id='1104'> +1.4185929e-12 </wgt>
<wgt id='1105'> +1.4581169e-12 </wgt>
<wgt id='1106'> +1.6492646e-12 </wgt>
<wgt id='1107'> +1.6164882e-12 </wgt>
<wgt id='1108'> +1.5362647e-12 </wgt>
<wgt id='1109'> +1.4356749e-12 </wgt>
<wgt id='1110'> +1.4240889e-12 </wgt>
<wgt id='1111'> +1.4845689e-12 </wgt>
<wgt id='1112'> +1.7223376e-12 </wgt>
<wgt id='1113'> +1.6068950e-12 </wgt>
<wgt id='1114'> +1.8237521e-12 </wgt>
<wgt id='1115'> +1.6313213e-12 </wgt>
<wgt id='1116'> +1.7046025e-12 </wgt>
<wgt id='1117'> +1.5934659e-12 </wgt>
<wgt id='1118'> +1.5861633e-12 </wgt>
<wgt id='1119'> +1.7872600e-12 </wgt>
<wgt id='1120'> +1.5696391e-12 </wgt>
<wgt id='1121'> +1.7235149e-12 </wgt>
<wgt id='1122'> +1.4481001e-12 </wgt>
<wgt id='1123'> +1.4970437e-12 </wgt>
<wgt id='1124'> +1.5562220e-12 </wgt>
<wgt id='1125'> +1.5548861e-12 </wgt>
<wgt id='1126'> +1.3045014e-12 </wgt>
<wgt id='1127'> +1.5777227e-12 </wgt>
<wgt id='1128'> +1.4745930e-12 </wgt>
<wgt id='1129'> +1.7277601e-12 </wgt>
<wgt id='1130'> +1.5160911e-12 </wgt>
<wgt id='1131'> +1.5042294e-12 </wgt>
<wgt id='1132'> +1.3425492e-12 </wgt>
<wgt id='1133'> +1.5825062e-12 </wgt>
<wgt id='1134'> +1.5757311e-12 </wgt>
<wgt id='1135'> +2.1673800e-12 </wgt>
<wgt id='1136'> +1.5724581e-12 </wgt>
<wgt id='1137'> +1.6298946e-12 </wgt>
<wgt id='1138'> +1.8432706e-12 </wgt>
<wgt id='1139'> +1.6190793e-12 </wgt>
<wgt id='1140'> +1.5877755e-12 </wgt>
<wgt id='1141'> +1.4816172e-12 </wgt>
<wgt id='1142'> +1.6629265e-12 </wgt>
<wgt id='1143'> +1.5647584e-12 </wgt>
<wgt id='1144'> +1.4330630e-12 </wgt>
<wgt id='1145'> +1.5520416e-12 </wgt>
<wgt id='1146'> +1.5451696e-12 </wgt>
<wgt id='1147'> +1.6278378e-12 </wgt>
<wgt id='1148'> +1.6664129e-12 </wgt>
<wgt id='1149'> +1.4347223e-12 </wgt>
<wgt id='1150'> +1.4261768e-12 </wgt>
<wgt id='1151'> +1.5062686e-12 </wgt>
<wgt id='1152'> +2.3845716e-12 </wgt>
<wgt id='1153'> +2.3762520e-12 </wgt>
<wgt id='1154'> +2.3890759e-12 </wgt>
<wgt id='1155'> +2.3865702e-12 </wgt>
<wgt id='1156'> +2.3835104e-12 </wgt>
<wgt id='1157'> +2.4101986e-12 </wgt>
<wgt id='1158'> +2.3499095e-12 </wgt>
<wgt id='1159'> +2.3138060e-12 </wgt>
<wgt id='1160'> +2.4298647e-12 </wgt>
<wgt id='1161'> +2.3617030e-12 </wgt>
<wgt id='1162'> +2.4002074e-12 </wgt>
<wgt id='1163'> +2.3465664e-12 </wgt>
<wgt id='1164'> +2.4220612e-12 </wgt>
<wgt id='1165'> +2.3593503e-12 </wgt>
<wgt id='1166'> +2.4090819e-12 </wgt>
<wgt id='1167'> +2.4253864e-12 </wgt>
<wgt id='1168'> +2.3326552e-12 </wgt>
<wgt id='1169'> +2.3934858e-12 </wgt>
<wgt id='1170'> +2.3777952e-12 </wgt>
<wgt id='1171'> +2.3690256e-12 </wgt>
<wgt id='1172'> +2.4041030e-12 </wgt>
<wgt id='1173'> +2.3723684e-12 </wgt>
<wgt id='1174'> +2.3945850e-12 </wgt>
<wgt id='1175'> +2.3406782e-12 </wgt>
<wgt id='1176'> +2.4188679e-12 </wgt>
<wgt id='1177'> +2.3859213e-12 </wgt>
<wgt id='1178'> +2.3811177e-12 </wgt>
<wgt id='1179'> +2.3936475e-12 </wgt>
<wgt id='1180'> +2.3658177e-12 </wgt>
<wgt id='1181'> +2.3870248e-12 </wgt>
<wgt id='1182'> +2.3828775e-12 </wgt>
<wgt id='1183'> +2.3745595e-12 </wgt>
<wgt id='1184'> +2.3857177e-12 </wgt>
<wgt id='1185'> +2.3625747e-12 </wgt>
<wgt id='1186'> +2.3847145e-12 </wgt>
<wgt id='1187'> +2.3339036e-12 </wgt>
<wgt id='1188'> +2.4471603e-12 </wgt>
<wgt id='1189'> +2.3794595e-12 </wgt>
<wgt id='1190'> +2.3492126e-12 </wgt>
<wgt id='1191'> +2.3702358e-12 </wgt>
<wgt id='1192'> +2.4018856e-12 </wgt>
<wgt id='1193'> +1.4680997e-12 </wgt>
<wgt id='1194'> +1.4494915e-12 </wgt>
<wgt id='1195'> +1.4833199e-12 </wgt>
<wgt id='1196'> +1.4485792e-12 </wgt>
<wgt id='1197'> +1.4901296e-12 </wgt>
<wgt id='1198'> +1.4921879e-12 </wgt>
<wgt id='1199'> +1.4326130e-12 </wgt>
<wgt id='1200'> +1.4517563e-12 </wgt>
<wgt id='1201'> +1.4792550e-12 </wgt>
<wgt id='1202'> +1.4874104e-12 </wgt>
<wgt id='1203'> +1.4406271e-12 </wgt>
<wgt id='1204'> +1.4339279e-12 </wgt>
<wgt id='1205'> +1.4893194e-12 </wgt>
<wgt id='1206'> +1.4702277e-12 </wgt>
<wgt id='1207'> +1.4653230e-12 </wgt>
<wgt id='1208'> +1.4637848e-12 </wgt>
<wgt id='1209'> +1.4698116e-12 </wgt>
<wgt id='1210'> +1.4737875e-12 </wgt>
<wgt id='1211'> +1.4612286e-12 </wgt>
<wgt id='1212'> +1.4620311e-12 </wgt>
<wgt id='1213'> +1.4747276e-12 </wgt>
<wgt id='1214'> +1.4562823e-12 </wgt>
<wgt id='1215'> +1.4825158e-12 </wgt>
<wgt id='1216'> +1.4708136e-12 </wgt>
<wgt id='1217'> +1.4653246e-12 </wgt>
<wgt id='1218'> +1.4620169e-12 </wgt>
<wgt id='1219'> +1.4704403e-12 </wgt>
<wgt id='1220'> +1.4820798e-12 </wgt>
<wgt id='1221'> +1.4629979e-12 </wgt>
<wgt id='1222'> +1.4888026e-12 </wgt>
<wgt id='1223'> +1.4390863e-12 </wgt>
<wgt id='1224'> +1.4560631e-12 </wgt>
<wgt id='1225'> +1.4725131e-12 </wgt>
<wgt id='1226'> +1.4784743e-12 </wgt>
<wgt id='1227'> +1.4583338e-12 </wgt>
<wgt id='1228'> +1.4620270e-12 </wgt>
<wgt id='1229'> +1.4708627e-12 </wgt>
<wgt id='1230'> +1.4829612e-12 </wgt>
<wgt id='1231'> +1.4691441e-12 </wgt>
<wgt id='1232'> +1.4499206e-12 </wgt>
<wgt id='1233'> +1.5017537e-12 </wgt>
<wgt id='1234'> +1.4680997e-12 </wgt>
<wgt id='1235'> +1.4595444e-12 </wgt>
<wgt id='1236'> +1.4628262e-12 </wgt>
<wgt id='1237'> +1.4658511e-12 </wgt>
<wgt id='1238'> +1.4705266e-12 </wgt>
<wgt id='1239'> +1.4724659e-12 </wgt>
<wgt id='1240'> +1.4744612e-12 </wgt>
<wgt id='1241'> +1.3676231e-12 </wgt>
<wgt id='1242'> +1.3495392e-12 </wgt>
<wgt id='1243'> +1.3855033e-12 </wgt>
<wgt id='1244'> +1.3707672e-12 </wgt>
<wgt id='1245'> +1.3653829e-12 </wgt>
<wgt id='1246'> +1.3708465e-12 </wgt>
<wgt id='1247'> +1.3650009e-12 </wgt>
<wgt id='1248'> +1.3866855e-12 </wgt>
<wgt id='1249'> +1.3399154e-12 </wgt>
<wgt id='1250'> +1.3321355e-12 </wgt>
<wgt id='1251'> +1.3928050e-12 </wgt>
<wgt id='1252'> +1.3595096e-12 </wgt>
<wgt id='1253'> +1.3740505e-12 </wgt>
<wgt id='1254'> +1.3809387e-12 </wgt>
<wgt id='1255'> +1.3594287e-12 </wgt>
<wgt id='1256'> +1.3691340e-12 </wgt>
<wgt id='1257'> +1.3643225e-12 </wgt>
<wgt id='1258'> +1.3743004e-12 </wgt>
<wgt id='1259'> +1.3598253e-12 </wgt>
<wgt id='1260'> +1.3728251e-12 </wgt>
<wgt id='1261'> +1.3620461e-12 </wgt>
<wgt id='1262'> +1.3622913e-12 </wgt>
<wgt id='1263'> +1.3698853e-12 </wgt>
<wgt id='1264'> +1.3689637e-12 </wgt>
<wgt id='1265'> +1.3673751e-12 </wgt>
<wgt id='1266'> +1.3442673e-12 </wgt>
<wgt id='1267'> +1.3893660e-12 </wgt>
<wgt id='1268'> +1.3721219e-12 </wgt>
<wgt id='1269'> +1.3668973e-12 </wgt>
<wgt id='1270'> +1.3887525e-12 </wgt>
<wgt id='1271'> +1.3686370e-12 </wgt>
<wgt id='1272'> +1.3685016e-12 </wgt>
<wgt id='1273'> +1.3685463e-12 </wgt>
<wgt id='1274'> +1.3585883e-12 </wgt>
<wgt id='1275'> +1.3786781e-12 </wgt>
<wgt id='1276'> +1.3679204e-12 </wgt>
<wgt id='1277'> +1.3660837e-12 </wgt>
<wgt id='1278'> +1.3769662e-12 </wgt>
<wgt id='1279'> +1.3771146e-12 </wgt>
<wgt id='1280'> +1.3964870e-12 </wgt>
<wgt id='1281'> +1.3469858e-12 </wgt>
<wgt id='1282'> +1.3676231e-12 </wgt>
<wgt id='1283'> +1.3594319e-12 </wgt>
<wgt id='1284'> +1.3634555e-12 </wgt>
<wgt id='1285'> +1.3658160e-12 </wgt>
<wgt id='1286'> +1.3702645e-12 </wgt>
<wgt id='1287'> +1.3717862e-12 </wgt>
<wgt id='1288'> +1.3731358e-12 </wgt>
<wgt id='1289'> +1.6173495e-12 </wgt>
<wgt id='1290'> +1.6211654e-12 </wgt>
<wgt id='1291'> +1.6131096e-12 </wgt>
<wgt id='1292'> +1.6129492e-12 </wgt>
<wgt id='1293'> +1.6204925e-12 </wgt>
<wgt id='1294'> +1.5955355e-12 </wgt>
<wgt id='1295'> +1.6382085e-12 </wgt>
<wgt id='1296'> +1.6245276e-12 </wgt>
<wgt id='1297'> +1.6082521e-12 </wgt>
<wgt id='1298'> +1.6176924e-12 </wgt>
<wgt id='1299'> +1.6163205e-12 </wgt>
<wgt id='1300'> +1.6399380e-12 </wgt>
<wgt id='1301'> +1.5721923e-12 </wgt>
<wgt id='1302'> +1.6287436e-12 </wgt>
<wgt id='1303'> +1.6014256e-12 </wgt>
<wgt id='1304'> +1.6331193e-12 </wgt>
<wgt id='1305'> +1.6062860e-12 </wgt>
<wgt id='1306'> +1.6257527e-12 </wgt>
<wgt id='1307'> +1.6079758e-12 </wgt>
<wgt id='1308'> +1.7296035e-12 </wgt>
<wgt id='1309'> +1.5312114e-12 </wgt>
<wgt id='1310'> +1.6244344e-12 </wgt>
<wgt id='1311'> +1.6102201e-12 </wgt>
<wgt id='1312'> +1.6098229e-12 </wgt>
<wgt id='1313'> +1.6259245e-12 </wgt>
<wgt id='1314'> +1.6114589e-12 </wgt>
<wgt id='1315'> +1.6178488e-12 </wgt>
<wgt id='1316'> +1.6321119e-12 </wgt>
<wgt id='1317'> +1.6156163e-12 </wgt>
<wgt id='1318'> +1.6264563e-12 </wgt>
<wgt id='1319'> +1.6047156e-12 </wgt>
<wgt id='1320'> +1.6082329e-12 </wgt>
<wgt id='1321'> +1.6204766e-12 </wgt>
<wgt id='1322'> +1.6194374e-12 </wgt>
<wgt id='1323'> +1.6139713e-12 </wgt>
<wgt id='1324'> +1.6210555e-12 </wgt>
<wgt id='1325'> +1.6169961e-12 </wgt>
<wgt id='1326'> +1.6299826e-12 </wgt>
<wgt id='1327'> +1.6109896e-12 </wgt>
<wgt id='1328'> +1.6385476e-12 </wgt>
<wgt id='1329'> +1.5989195e-12 </wgt>
<wgt id='1330'> +1.6991193e-12 </wgt>
<wgt id='1331'> +1.4778580e-12 </wgt>
<wgt id='1332'> +1.5838766e-12 </wgt>
<wgt id='1333'> +1.6006940e-12 </wgt>
<wgt id='1334'> +1.6867639e-12 </wgt>
<wgt id='1335'> +1.4558104e-12 </wgt>
<wgt id='1336'> +1.6167515e-12 </wgt>
<wgt id='1337'> +1.6381917e-12 </wgt>
<wgt id='1338'> +1.6168342e-12 </wgt>
<wgt id='1339'> +1.6179308e-12 </wgt>
<wgt id='1340'> +1.5338179e-12 </wgt>
<wgt id='1341'> +1.5369575e-12 </wgt>
<wgt id='1342'> +1.5303310e-12 </wgt>
<wgt id='1343'> +1.5288020e-12 </wgt>
<wgt id='1344'> +1.5370886e-12 </wgt>
<wgt id='1345'> +1.5115584e-12 </wgt>
<wgt id='1346'> +1.5542646e-12 </wgt>
<wgt id='1347'> +1.5418872e-12 </wgt>
<wgt id='1348'> +1.5245291e-12 </wgt>
<wgt id='1349'> +1.5300864e-12 </wgt>
<wgt id='1350'> +1.5369855e-12 </wgt>
<wgt id='1351'> +1.5554451e-12 </wgt>
<wgt id='1352'> +1.4869761e-12 </wgt>
<wgt id='1353'> +1.5471493e-12 </wgt>
<wgt id='1354'> +1.5098287e-12 </wgt>
<wgt id='1355'> +1.5483225e-12 </wgt>
<wgt id='1356'> +1.5254112e-12 </wgt>
<wgt id='1357'> +1.5724786e-12 </wgt>
<wgt id='1358'> +1.4884878e-12 </wgt>
<wgt id='1359'> +1.6363347e-12 </wgt>
<wgt id='1360'> +1.4448754e-12 </wgt>
<wgt id='1361'> +1.5397910e-12 </wgt>
<wgt id='1362'> +1.5262001e-12 </wgt>
<wgt id='1363'> +1.5266732e-12 </wgt>
<wgt id='1364'> +1.5399531e-12 </wgt>
<wgt id='1365'> +1.5364981e-12 </wgt>
<wgt id='1366'> +1.5231393e-12 </wgt>
<wgt id='1367'> +1.5459433e-12 </wgt>
<wgt id='1368'> +1.5324870e-12 </wgt>
<wgt id='1369'> +1.5435584e-12 </wgt>
<wgt id='1370'> +1.5214695e-12 </wgt>
<wgt id='1371'> +1.5289229e-12 </wgt>
<wgt id='1372'> +1.5366744e-12 </wgt>
<wgt id='1373'> +1.5386241e-12 </wgt>
<wgt id='1374'> +1.5281257e-12 </wgt>
<wgt id='1375'> +1.5368818e-12 </wgt>
<wgt id='1376'> +1.5333337e-12 </wgt>
<wgt id='1377'> +1.5459886e-12 </wgt>
<wgt id='1378'> +1.5285974e-12 </wgt>
<wgt id='1379'> +1.5557723e-12 </wgt>
<wgt id='1380'> +1.5119310e-12 </wgt>
<wgt id='1381'> +1.6139374e-12 </wgt>
<wgt id='1382'> +1.4045893e-12 </wgt>
<wgt id='1383'> +1.4762995e-12 </wgt>
<wgt id='1384'> +1.5226979e-12 </wgt>
<wgt id='1385'> +1.6052649e-12 </wgt>
<wgt id='1386'> +1.3781778e-12 </wgt>
<wgt id='1387'> +1.5354512e-12 </wgt>
<wgt id='1388'> +1.5512284e-12 </wgt>
<wgt id='1389'> +1.5373739e-12 </wgt>
<wgt id='1390'> +1.5329594e-12 </wgt>
<wgt id='1391'> +1.5653730e-12 </wgt>
<wgt id='1392'> +1.4491192e-12 </wgt>
<wgt id='1393'> +1.4857510e-12 </wgt>
<wgt id='1394'> +1.5220347e-12 </wgt>
<wgt id='1395'> +1.5956498e-12 </wgt>
<wgt id='1396'> +1.5609143e-12 </wgt>
<wgt id='1397'> +1.5480660e-12 </wgt>
<wgt id='1398'> +1.5470630e-12 </wgt>
<wgt id='1399'> +1.5490732e-12 </wgt>
<wgt id='1400'> +1.5523293e-12 </wgt>
<wgt id='1401'> +1.5562352e-12 </wgt>
<wgt id='1402'> +1.5636927e-12 </wgt>
<wgt id='1403'> +1.5678934e-12 </wgt>
<wgt id='1404'> +1.5727316e-12 </wgt>
<wgt id='1405'> +1.5609143e-12 </wgt>
<wgt id='1406'> +1.5449050e-12 </wgt>
<wgt id='1407'> +1.5529578e-12 </wgt>
<wgt id='1408'> +1.5679223e-12 </wgt>
<wgt id='1409'> +1.5715455e-12 </wgt>
<wgt id='1410'> +1.3110244e-12 </wgt>
<wgt id='1411'> +1.3173001e-12 </wgt>
<wgt id='1412'> +1.3029764e-12 </wgt>
<wgt id='1413'> +1.3018395e-12 </wgt>
<wgt id='1414'> +1.3200852e-12 </wgt>
<wgt id='1415'> +1.2974685e-12 </wgt>
<wgt id='1416'> +1.3164921e-12 </wgt>
<wgt id='1417'> +1.3091334e-12 </wgt>
<wgt id='1418'> +1.3128310e-12 </wgt>
<wgt id='1419'> +1.2996198e-12 </wgt>
<wgt id='1420'> +1.3218786e-12 </wgt>
<wgt id='1421'> +1.2563683e-12 </wgt>
<wgt id='1422'> +1.3348053e-12 </wgt>
<wgt id='1423'> +1.3093755e-12 </wgt>
<wgt id='1424'> +1.3129095e-12 </wgt>
<wgt id='1425'> +1.3265870e-12 </wgt>
<wgt id='1426'> +1.2939993e-12 </wgt>
<wgt id='1427'> +1.3884676e-12 </wgt>
<wgt id='1428'> +1.2660123e-12 </wgt>
<wgt id='1429'> +1.2397805e-12 </wgt>
<wgt id='1430'> +1.4074720e-12 </wgt>
<wgt id='1431'> +1.3908247e-12 </wgt>
<wgt id='1432'> +1.2552993e-12 </wgt>
<wgt id='1433'> +1.2822270e-12 </wgt>
<wgt id='1434'> +1.3361822e-12 </wgt>
<wgt id='1435'> +1.3107157e-12 </wgt>
<wgt id='1436'> +1.3128057e-12 </wgt>
<wgt id='1437'> +1.3233338e-12 </wgt>
<wgt id='1438'> +1.3113213e-12 </wgt>
<wgt id='1439'> +1.3074035e-12 </wgt>
<wgt id='1440'> +1.3132276e-12 </wgt>
<wgt id='1441'> +1.3063620e-12 </wgt>
<wgt id='1442'> +1.3213683e-12 </wgt>
<wgt id='1443'> +1.3132929e-12 </wgt>
<wgt id='1444'> +1.3105051e-12 </wgt>
<wgt id='1445'> +1.3108426e-12 </wgt>
<wgt id='1446'> +1.3141791e-12 </wgt>
<wgt id='1447'> +1.3146494e-12 </wgt>
<wgt id='1448'> +1.3121059e-12 </wgt>
<wgt id='1449'> +1.3377835e-12 </wgt>
<wgt id='1450'> +1.2937195e-12 </wgt>
<wgt id='1451'> +1.2374271e-12 </wgt>
<wgt id='1452'> +1.4245760e-12 </wgt>
<wgt id='1453'> +1.3082561e-12 </wgt>
<wgt id='1454'> +1.3211730e-12 </wgt>
<wgt id='1455'> +1.3348025e-12 </wgt>
<wgt id='1456'> +1.3005667e-12 </wgt>
<wgt id='1457'> +1.2074793e-12 </wgt>
<wgt id='1458'> +1.3670064e-12 </wgt>
<wgt id='1459'> +1.2983690e-12 </wgt>
<wgt id='1460'> +1.3323553e-12 </wgt>
<wgt id='1461'> +1.3110244e-12 </wgt>
<wgt id='1462'> +1.2863408e-12 </wgt>
<wgt id='1463'> +1.3246664e-12 </wgt>
<wgt id='1464'> +1.3049259e-12 </wgt>
<wgt id='1465'> +1.2514500e-12 </wgt>
<wgt id='1466'> +1.2600056e-12 </wgt>
<wgt id='1467'> +1.2695195e-12 </wgt>
<wgt id='1468'> +1.2828125e-12 </wgt>
<wgt id='1469'> +1.2935391e-12 </wgt>
<wgt id='1470'> +1.3188125e-12 </wgt>
<wgt id='1471'> +1.3427658e-12 </wgt>
<wgt id='1472'> +1.3555248e-12 </wgt>
<wgt id='1473'> +1.3049259e-12 </wgt>
<wgt id='1474'> +1.2945629e-12 </wgt>
<wgt id='1475'> +1.3014057e-12 </wgt>
<wgt id='1476'> +1.3105192e-12 </wgt>
<wgt id='1477'> +1.3145046e-12 </wgt>
<wgt id='1478'> +1.3650082e-12 </wgt>
<wgt id='1479'> +1.3485884e-12 </wgt>
<wgt id='1480'> +1.3170662e-12 </wgt>
<wgt id='1481'> +1.3934590e-12 </wgt>
<wgt id='1482'> +1.3408872e-12 </wgt>
<wgt id='1483'> +1.5061286e-12 </wgt>
<wgt id='1484'> +1.3776631e-12 </wgt>
<wgt id='1485'> +1.3165237e-12 </wgt>
<wgt id='1486'> +1.3714435e-12 </wgt>
<wgt id='1487'> +1.3975615e-12 </wgt>
<wgt id='1488'> +1.3687895e-12 </wgt>
<wgt id='1489'> +1.3636179e-12 </wgt>
<wgt id='1490'> +1.3541574e-12 </wgt>
<wgt id='1491'> +1.3652553e-12 </wgt>
<wgt id='1492'> +1.3719506e-12 </wgt>
<wgt id='1493'> +1.3446529e-12 </wgt>
<wgt id='1494'> +1.3658178e-12 </wgt>
<wgt id='1495'> +1.3427957e-12 </wgt>
<wgt id='1496'> +1.3665191e-12 </wgt>
<wgt id='1497'> +1.3701397e-12 </wgt>
<wgt id='1498'> +1.4046717e-12 </wgt>
<wgt id='1499'> +1.3616968e-12 </wgt>
<wgt id='1500'> +1.3610133e-12 </wgt>
<wgt id='1501'> +1.3795662e-12 </wgt>
<wgt id='1502'> +1.3609444e-12 </wgt>
<wgt id='1503'> +1.3611397e-12 </wgt>
<wgt id='1504'> +1.3651000e-12 </wgt>
<wgt id='1505'> +1.3842136e-12 </wgt>
<wgt id='1506'> +1.3531692e-12 </wgt>
<wgt id='1507'> +1.3587800e-12 </wgt>
<wgt id='1508'> +1.3323937e-12 </wgt>
<wgt id='1509'> +1.2818619e-12 </wgt>
<wgt id='1510'> +1.2890553e-12 </wgt>
<wgt id='1511'> +1.2628954e-12 </wgt>
<wgt id='1512'> +1.2658100e-12 </wgt>
<wgt id='1513'> +1.2760436e-12 </wgt>
<wgt id='1514'> +1.2842278e-12 </wgt>
<wgt id='1515'> +1.2839912e-12 </wgt>
<wgt id='1516'> +1.2791359e-12 </wgt>
<wgt id='1517'> +1.2775872e-12 </wgt>
<wgt id='1518'> +1.2747223e-12 </wgt>
<wgt id='1519'> +1.2880436e-12 </wgt>
<wgt id='1520'> +1.2823706e-12 </wgt>
<wgt id='1521'> +1.2793510e-12 </wgt>
<wgt id='1522'> +1.2873098e-12 </wgt>
<wgt id='1523'> +1.2896573e-12 </wgt>
<wgt id='1524'> +1.2858616e-12 </wgt>
<wgt id='1525'> +1.2795581e-12 </wgt>
<wgt id='1526'> +1.2880571e-12 </wgt>
<wgt id='1527'> +1.2849853e-12 </wgt>
<wgt id='1528'> +1.2784162e-12 </wgt>
<wgt id='1529'> +1.2858876e-12 </wgt>
<wgt id='1530'> +1.2696235e-12 </wgt>
<wgt id='1531'> +1.2833440e-12 </wgt>
<wgt id='1532'> +1.2819762e-12 </wgt>
<wgt id='1533'> +1.2839469e-12 </wgt>
<wgt id='1534'> +1.2806814e-12 </wgt>
<wgt id='1535'> +1.2964600e-12 </wgt>
<wgt id='1536'> +1.2892387e-12 </wgt>
<wgt id='1537'> +1.2764855e-12 </wgt>
<wgt id='1538'> +1.2990075e-12 </wgt>
<wgt id='1539'> +1.3010842e-12 </wgt>
<wgt id='1540'> +1.2710471e-12 </wgt>
<wgt id='1541'> +1.2790402e-12 </wgt>
<wgt id='1542'> +1.2803734e-12 </wgt>
<wgt id='1543'> +1.2895358e-12 </wgt>
<wgt id='1544'> +1.2494642e-12 </wgt>
<wgt id='1545'> +1.2718461e-12 </wgt>
<wgt id='1546'> +1.3023033e-12 </wgt>
<wgt id='1547'> +1.2694283e-12 </wgt>
<wgt id='1548'> +1.2827077e-12 </wgt>
<wgt id='1549'> +1.2876867e-12 </wgt>
<wgt id='1550'> +1.2838691e-12 </wgt>
<wgt id='1551'> +1.2772963e-12 </wgt>
<wgt id='1552'> +1.2683698e-12 </wgt>
<wgt id='1553'> +1.2658259e-12 </wgt>
<wgt id='1554'> +1.3121437e-12 </wgt>
<wgt id='1555'> +1.2760137e-12 </wgt>
<wgt id='1556'> +1.2594019e-12 </wgt>
<wgt id='1557'> +1.2993045e-12 </wgt>
<wgt id='1558'> +1.2803728e-12 </wgt>
<wgt id='1559'> +1.3045410e-12 </wgt>
<wgt id='1560'> +1.2770330e-12 </wgt>
<wgt id='1561'> +1.2892635e-12 </wgt>
<wgt id='1562'> +1.2831930e-12 </wgt>
<wgt id='1563'> +1.2716146e-12 </wgt>
<wgt id='1564'> +1.2795830e-12 </wgt>
<wgt id='1565'> +1.2665855e-12 </wgt>
<wgt id='1566'> +1.2871508e-12 </wgt>
<wgt id='1567'> +1.2753763e-12 </wgt>
<wgt id='1568'> +1.2845594e-12 </wgt>
<wgt id='1569'> +1.2809082e-12 </wgt>
<wgt id='1570'> +1.2707429e-12 </wgt>
<wgt id='1571'> +1.2842181e-12 </wgt>
<wgt id='1572'> +1.2829244e-12 </wgt>
<wgt id='1573'> +1.2840861e-12 </wgt>
<wgt id='1574'> +1.2787778e-12 </wgt>
<wgt id='1575'> +1.2871880e-12 </wgt>
<wgt id='1576'> +1.2727220e-12 </wgt>
<wgt id='1577'> +1.2823671e-12 </wgt>
<wgt id='1578'> +1.2779900e-12 </wgt>
<wgt id='1579'> +1.2838880e-12 </wgt>
<wgt id='1580'> +1.2692516e-12 </wgt>
<wgt id='1581'> +1.2970426e-12 </wgt>
<wgt id='1582'> +1.2792549e-12 </wgt>
<wgt id='1583'> +1.2901577e-12 </wgt>
<wgt id='1584'> +1.2887735e-12 </wgt>
<wgt id='1585'> +1.2779226e-12 </wgt>
<wgt id='1586'> +1.2804738e-12 </wgt>
<wgt id='1587'> +1.2803417e-12 </wgt>
<wgt id='1588'> +1.2879261e-12 </wgt>
<wgt id='1589'> +1.2946689e-12 </wgt>
<wgt id='1590'> +1.2747787e-12 </wgt>
<wgt id='1591'> +1.2787580e-12 </wgt>
<wgt id='1592'> +1.2762206e-12 </wgt>
<wgt id='1593'> +1.2847075e-12 </wgt>
<wgt id='1594'> +1.2789866e-12 </wgt>
<wgt id='1595'> +1.2844687e-12 </wgt>
<wgt id='1596'> +1.2793860e-12 </wgt>
<wgt id='1597'> +1.2785037e-12 </wgt>
<wgt id='1598'> +1.2770604e-12 </wgt>
<wgt id='1599'> +1.2716321e-12 </wgt>
<wgt id='1600'> +1.2782696e-12 </wgt>
<wgt id='1601'> +1.2818527e-12 </wgt>
<wgt id='1602'> +1.2769873e-12 </wgt>
<wgt id='1603'> +1.2845738e-12 </wgt>
<wgt id='1604'> +1.2753994e-12 </wgt>
<wgt id='1605'> +1.2794067e-12 </wgt>
<wgt id='1606'> +1.2902684e-12 </wgt>
<wgt id='1607'> +1.2763663e-12 </wgt>
<wgt id='1608'> +1.2803494e-12 </wgt>
<wgt id='1609'> +1.2814982e-12 </wgt>
<wgt id='1610'> +1.2667178e-12 </wgt>
<wgt id='1611'> +1.3088317e-12 </wgt>
<wgt id='1612'> +1.4786572e-12 </wgt>
<wgt id='1613'> +1.2120274e-12 </wgt>
<wgt id='1614'> +1.3522674e-12 </wgt>
<wgt id='1615'> +1.5031529e-12 </wgt>
<wgt id='1616'> +1.4150230e-12 </wgt>
<wgt id='1617'> +1.4164888e-12 </wgt>
<wgt id='1618'> +1.3986344e-12 </wgt>
<wgt id='1619'> +1.3555051e-12 </wgt>
<wgt id='1620'> +1.4088839e-12 </wgt>
<wgt id='1621'> +1.5381610e-12 </wgt>
<wgt id='1622'> +1.4515399e-12 </wgt>
<wgt id='1623'> +1.5428443e-12 </wgt>
<wgt id='1624'> +1.5536531e-12 </wgt>
<wgt id='1625'> +1.3655553e-12 </wgt>
<wgt id='1626'> +1.5125359e-12 </wgt>
<wgt id='1627'> +1.4445124e-12 </wgt>
<wgt id='1628'> +1.4906681e-12 </wgt>
<wgt id='1629'> +1.4931395e-12 </wgt>
<wgt id='1630'> +1.4454019e-12 </wgt>
<wgt id='1631'> +1.4943507e-12 </wgt>
<wgt id='1632'> +1.5891689e-12 </wgt>
<wgt id='1633'> +1.4785907e-12 </wgt>
<wgt id='1634'> +1.3841459e-12 </wgt>
<wgt id='1635'> +1.5779502e-12 </wgt>
<wgt id='1636'> +1.4006661e-12 </wgt>
<wgt id='1637'> +1.5075930e-12 </wgt>
<wgt id='1638'> +1.6017216e-12 </wgt>
<wgt id='1639'> +1.4054486e-12 </wgt>
<wgt id='1640'> +1.3861940e-12 </wgt>
<wgt id='1641'> +1.4533757e-12 </wgt>
<wgt id='1642'> +1.5955369e-12 </wgt>
<wgt id='1643'> +1.3632388e-12 </wgt>
<wgt id='1644'> +1.5922741e-12 </wgt>
<wgt id='1645'> +1.4610992e-12 </wgt>
<wgt id='1646'> +1.3863035e-12 </wgt>
<wgt id='1647'> +1.5273723e-12 </wgt>
<wgt id='1648'> +1.5323703e-12 </wgt>
<wgt id='1649'> +1.3724681e-12 </wgt>
<wgt id='1650'> +1.3333353e-12 </wgt>
<wgt id='1651'> +1.5294180e-12 </wgt>
<wgt id='1652'> +1.4643507e-12 </wgt>
<wgt id='1653'> +1.6104154e-12 </wgt>
<wgt id='1654'> +1.5170639e-12 </wgt>
<wgt id='1655'> +1.4301340e-12 </wgt>
<wgt id='1656'> +1.4670199e-12 </wgt>
<wgt id='1657'> +1.4426294e-12 </wgt>
<wgt id='1658'> +1.7555858e-12 </wgt>
<wgt id='1659'> +1.5536531e-12 </wgt>
<wgt id='1660'> +1.3593555e-12 </wgt>
<wgt id='1661'> +1.3988295e-12 </wgt>
<wgt id='1662'> +1.5683094e-12 </wgt>
<wgt id='1663'> +1.4724581e-12 </wgt>
<wgt id='1664'> +1.5096476e-12 </wgt>
<wgt id='1665'> +1.5012854e-12 </wgt>
<wgt id='1666'> +1.3885076e-12 </wgt>
<wgt id='1667'> +1.4521785e-12 </wgt>
<wgt id='1668'> +1.4381355e-12 </wgt>
<wgt id='1669'> +1.4308953e-12 </wgt>
<wgt id='1670'> +1.3639012e-12 </wgt>
<wgt id='1671'> +1.5131954e-12 </wgt>
<wgt id='1672'> +1.3794679e-12 </wgt>
<wgt id='1673'> +1.5319300e-12 </wgt>
<wgt id='1674'> +1.4195218e-12 </wgt>
<wgt id='1675'> +1.3860704e-12 </wgt>
<wgt id='1676'> +1.5181526e-12 </wgt>
<wgt id='1677'> +1.4466219e-12 </wgt>
<wgt id='1678'> +1.3603122e-12 </wgt>
<wgt id='1679'> +1.4019630e-12 </wgt>
<wgt id='1680'> +1.3150637e-12 </wgt>
<wgt id='1681'> +1.4404424e-12 </wgt>
<wgt id='1682'> +1.4446112e-12 </wgt>
<wgt id='1683'> +1.5299201e-12 </wgt>
<wgt id='1684'> +1.6240120e-12 </wgt>
<wgt id='1685'> +1.5293873e-12 </wgt>
<wgt id='1686'> +1.4885625e-12 </wgt>
<wgt id='1687'> +1.3754552e-12 </wgt>
<wgt id='1688'> +1.5130811e-12 </wgt>
<wgt id='1689'> +1.5905211e-12 </wgt>
<wgt id='1690'> +1.5226455e-12 </wgt>
<wgt id='1691'> +1.4267422e-12 </wgt>
<wgt id='1692'> +1.6004322e-12 </wgt>
<wgt id='1693'> +1.5116508e-12 </wgt>
<wgt id='1694'> +1.5055329e-12 </wgt>
<wgt id='1695'> +1.5551565e-12 </wgt>
<wgt id='1696'> +1.5209298e-12 </wgt>
<wgt id='1697'> +1.4909884e-12 </wgt>
<wgt id='1698'> +1.4638355e-12 </wgt>
<wgt id='1699'> +1.5615093e-12 </wgt>
<wgt id='1700'> +1.4609184e-12 </wgt>
<wgt id='1701'> +1.4832572e-12 </wgt>
<wgt id='1702'> +1.4360350e-12 </wgt>
<wgt id='1703'> +1.5637239e-12 </wgt>
<wgt id='1704'> +1.4569331e-12 </wgt>
<wgt id='1705'> +1.6959720e-12 </wgt>
<wgt id='1706'> +1.5467111e-12 </wgt>
<wgt id='1707'> +1.5087840e-12 </wgt>
<wgt id='1708'> +1.6373568e-12 </wgt>
<wgt id='1709'> +1.5162249e-12 </wgt>
<wgt id='1710'> +1.5746956e-12 </wgt>
<wgt id='1711'> +1.5147025e-12 </wgt>
<wgt id='1712'> +1.4659818e-12 </wgt>
<wgt id='1713'> +1.1929061e-12 </wgt>
<wgt id='1714'> +1.3071084e-12 </wgt>
<wgt id='1715'> +1.1749004e-12 </wgt>
<wgt id='1716'> +1.2134959e-12 </wgt>
<wgt id='1717'> +1.1569149e-12 </wgt>
<wgt id='1718'> +1.1831004e-12 </wgt>
<wgt id='1719'> +1.2834828e-12 </wgt>
<wgt id='1720'> +1.2376715e-12 </wgt>
<wgt id='1721'> +1.1672218e-12 </wgt>
<wgt id='1722'> +1.1933736e-12 </wgt>
<wgt id='1723'> +1.0741535e-12 </wgt>
<wgt id='1724'> +1.1094283e-12 </wgt>
<wgt id='1725'> +1.1809046e-12 </wgt>
<wgt id='1726'> +1.1757851e-12 </wgt>
<wgt id='1727'> +1.1937203e-12 </wgt>
<wgt id='1728'> +1.2124717e-12 </wgt>
<wgt id='1729'> +1.0581009e-12 </wgt>
<wgt id='1730'> +1.1794257e-12 </wgt>
<wgt id='1731'> +1.3683224e-12 </wgt>
<wgt id='1732'> +1.1449096e-12 </wgt>
<wgt id='1733'> +1.1053943e-12 </wgt>
<wgt id='1734'> +1.2455645e-12 </wgt>
<wgt id='1735'> +1.0634921e-12 </wgt>
<wgt id='1736'> +1.1329497e-12 </wgt>
<wgt id='1737'> +1.2017706e-12 </wgt>
<wgt id='1738'> +1.1698638e-12 </wgt>
<wgt id='1739'> +1.2501803e-12 </wgt>
<wgt id='1740'> +1.1447398e-12 </wgt>
<wgt id='1741'> +1.1997042e-12 </wgt>
<wgt id='1742'> +1.2227295e-12 </wgt>
<wgt id='1743'> +1.2014859e-12 </wgt>
<wgt id='1744'> +1.2451984e-12 </wgt>
<wgt id='1745'> +1.0966369e-12 </wgt>
<wgt id='1746'> +1.2080148e-12 </wgt>
<wgt id='1747'> +1.1434691e-12 </wgt>
<wgt id='1748'> +1.2724163e-12 </wgt>
<wgt id='1749'> +1.2076803e-12 </wgt>
<wgt id='1750'> +1.2442145e-12 </wgt>
<wgt id='1751'> +1.1887789e-12 </wgt>
<wgt id='1752'> +1.1285464e-12 </wgt>
<wgt id='1753'> +1.1862125e-12 </wgt>
<wgt id='1754'> +1.2602736e-12 </wgt>
<wgt id='1755'> +1.1756472e-12 </wgt>
<wgt id='1756'> +1.2297364e-12 </wgt>
<wgt id='1757'> +1.2348662e-12 </wgt>
<wgt id='1758'> +1.2950564e-12 </wgt>
<wgt id='1759'> +1.2952190e-12 </wgt>
<wgt id='1760'> +1.2330887e-12 </wgt>
<wgt id='1761'> +1.1501269e-12 </wgt>
<wgt id='1762'> +1.2208372e-12 </wgt>
<wgt id='1763'> +1.2690840e-12 </wgt>
<wgt id='1764'> +1.1690076e-12 </wgt>
<wgt id='1765'> +1.1553430e-12 </wgt>
<wgt id='1766'> +1.0868063e-12 </wgt>
<wgt id='1767'> +1.2295458e-12 </wgt>
<wgt id='1768'> +1.1930449e-12 </wgt>
<wgt id='1769'> +1.1907066e-12 </wgt>
<wgt id='1770'> +1.2882019e-12 </wgt>
<wgt id='1771'> +1.2448860e-12 </wgt>
<wgt id='1772'> +1.1172553e-12 </wgt>
<wgt id='1773'> +1.1876205e-12 </wgt>
<wgt id='1774'> +1.2050545e-12 </wgt>
<wgt id='1775'> +1.2564049e-12 </wgt>
<wgt id='1776'> +1.2248969e-12 </wgt>
<wgt id='1777'> +1.3441558e-12 </wgt>
<wgt id='1778'> +1.1287225e-12 </wgt>
<wgt id='1779'> +1.2791142e-12 </wgt>
<wgt id='1780'> +1.1651794e-12 </wgt>
<wgt id='1781'> +1.1604806e-12 </wgt>
<wgt id='1782'> +1.0741254e-12 </wgt>
<wgt id='1783'> +1.0700951e-12 </wgt>
<wgt id='1784'> +1.1482133e-12 </wgt>
<wgt id='1785'> +1.0719748e-12 </wgt>
<wgt id='1786'> +1.0743314e-12 </wgt>
<wgt id='1787'> +1.2358860e-12 </wgt>
<wgt id='1788'> +1.1472776e-12 </wgt>
<wgt id='1789'> +1.1298437e-12 </wgt>
<wgt id='1790'> +1.1971943e-12 </wgt>
<wgt id='1791'> +1.1834464e-12 </wgt>
<wgt id='1792'> +1.2157183e-12 </wgt>
<wgt id='1793'> +1.1622269e-12 </wgt>
<wgt id='1794'> +1.1522067e-12 </wgt>
<wgt id='1795'> +1.1365083e-12 </wgt>
<wgt id='1796'> +1.2675826e-12 </wgt>
<wgt id='1797'> +1.1154135e-12 </wgt>
<wgt id='1798'> +1.2309065e-12 </wgt>
<wgt id='1799'> +1.2476989e-12 </wgt>
<wgt id='1800'> +1.2909519e-12 </wgt>
<wgt id='1801'> +1.1434821e-12 </wgt>
<wgt id='1802'> +1.2432891e-12 </wgt>
<wgt id='1803'> +1.1860110e-12 </wgt>
<wgt id='1804'> +1.2406798e-12 </wgt>
<wgt id='1805'> +1.0861502e-12 </wgt>
<wgt id='1806'> +1.1970367e-12 </wgt>
<wgt id='1807'> +1.1565278e-12 </wgt>
<wgt id='1808'> +1.2775724e-12 </wgt>
<wgt id='1809'> +1.1992855e-12 </wgt>
<wgt id='1810'> +1.0862107e-12 </wgt>
<wgt id='1811'> +1.3076746e-12 </wgt>
<wgt id='1812'> +1.2541037e-12 </wgt>
<wgt id='1813'> +1.2642292e-12 </wgt>
<wgt id='1814'> +1.2633418e-12 </wgt>
<wgt id='1815'> +1.5706730e-12 </wgt>
<wgt id='1816'> +1.1929061e-12 </wgt>
<wgt id='1817'> +1.3071084e-12 </wgt>
<wgt id='1818'> +1.1749004e-12 </wgt>
<wgt id='1819'> +1.2134959e-12 </wgt>
<wgt id='1820'> +1.1569149e-12 </wgt>
<wgt id='1821'> +1.1831004e-12 </wgt>
<wgt id='1822'> +1.2834828e-12 </wgt>
<wgt id='1823'> +1.2376715e-12 </wgt>
<wgt id='1824'> +1.1672218e-12 </wgt>
<wgt id='1825'> +1.1933736e-12 </wgt>
<wgt id='1826'> +1.0741535e-12 </wgt>
<wgt id='1827'> +1.1094283e-12 </wgt>
<wgt id='1828'> +1.1809046e-12 </wgt>
<wgt id='1829'> +1.1757851e-12 </wgt>
<wgt id='1830'> +1.1937203e-12 </wgt>
<wgt id='1831'> +1.2124717e-12 </wgt>
<wgt id='1832'> +1.0581009e-12 </wgt>
<wgt id='1833'> +1.1794257e-12 </wgt>
<wgt id='1834'> +1.3683224e-12 </wgt>
<wgt id='1835'> +1.1449096e-12 </wgt>
<wgt id='1836'> +1.1053943e-12 </wgt>
<wgt id='1837'> +1.2455645e-12 </wgt>
<wgt id='1838'> +1.0634921e-12 </wgt>
<wgt id='1839'> +1.1329497e-12 </wgt>
<wgt id='1840'> +1.2017706e-12 </wgt>
<wgt id='1841'> +1.1698638e-12 </wgt>
<wgt id='1842'> +1.2501803e-12 </wgt>
<wgt id='1843'> +1.1447398e-12 </wgt>
<wgt id='1844'> +1.1997042e-12 </wgt>
<wgt id='1845'> +1.2227295e-12 </wgt>
<wgt id='1846'> +1.2014859e-12 </wgt>
<wgt id='1847'> +1.2451984e-12 </wgt>
<wgt id='1848'> +1.0966369e-12 </wgt>
<wgt id='1849'> +1.2080148e-12 </wgt>
<wgt id='1850'> +1.1434691e-12 </wgt>
<wgt id='1851'> +1.2724163e-12 </wgt>
<wgt id='1852'> +1.2076803e-12 </wgt>
<wgt id='1853'> +1.2442145e-12 </wgt>
<wgt id='1854'> +1.1887789e-12 </wgt>
<wgt id='1855'> +1.1285464e-12 </wgt>
<wgt id='1856'> +1.1862125e-12 </wgt>
<wgt id='1857'> +1.2602736e-12 </wgt>
<wgt id='1858'> +1.1756472e-12 </wgt>
<wgt id='1859'> +1.2297364e-12 </wgt>
<wgt id='1860'> +1.2348662e-12 </wgt>
<wgt id='1861'> +1.2950564e-12 </wgt>
<wgt id='1862'> +1.2952190e-12 </wgt>
<wgt id='1863'> +1.2330887e-12 </wgt>
<wgt id='1864'> +1.1501269e-12 </wgt>
<wgt id='1865'> +1.2208372e-12 </wgt>
<wgt id='1866'> +1.2690840e-12 </wgt>
<wgt id='1867'> +1.1690076e-12 </wgt>
<wgt id='1868'> +1.1553430e-12 </wgt>
<wgt id='1869'> +1.0868063e-12 </wgt>
<wgt id='1870'> +1.2295458e-12 </wgt>
<wgt id='1871'> +1.1930449e-12 </wgt>
<wgt id='1872'> +1.1907066e-12 </wgt>
<wgt id='1873'> +1.2882019e-12 </wgt>
<wgt id='1874'> +1.2448860e-12 </wgt>
<wgt id='1875'> +1.1172553e-12 </wgt>
<wgt id='1876'> +1.1876205e-12 </wgt>
<wgt id='1877'> +1.2050545e-12 </wgt>
<wgt id='1878'> +1.2564049e-12 </wgt>
<wgt id='1879'> +1.2248969e-12 </wgt>
<wgt id='1880'> +1.3441558e-12 </wgt>
<wgt id='1881'> +1.1287225e-12 </wgt>
<wgt id='1882'> +1.2791142e-12 </wgt>
<wgt id='1883'> +1.1651794e-12 </wgt>
<wgt id='1884'> +1.1604806e-12 </wgt>
<wgt id='1885'> +1.0741254e-12 </wgt>
<wgt id='1886'> +1.0700951e-12 </wgt>
<wgt id='1887'> +1.1482133e-12 </wgt>
<wgt id='1888'> +1.0719748e-12 </wgt>
<wgt id='1889'> +1.0743314e-12 </wgt>
<wgt id='1890'> +1.2358860e-12 </wgt>
<wgt id='1891'> +1.1472776e-12 </wgt>
<wgt id='1892'> +1.1298437e-12 </wgt>
<wgt id='1893'> +1.1971943e-12 </wgt>
<wgt id='1894'> +1.1834464e-12 </wgt>
<wgt id='1895'> +1.2157183e-12 </wgt>
<wgt id='1896'> +1.1622269e-12 </wgt>
<wgt id='1897'> +1.1522067e-12 </wgt>
<wgt id='1898'> +1.1365083e-12 </wgt>
<wgt id='1899'> +1.2675826e-12 </wgt>
<wgt id='1900'> +1.1154135e-12 </wgt>
<wgt id='1901'> +1.2309065e-12 </wgt>
<wgt id='1902'> +1.2476989e-12 </wgt>
<wgt id='1903'> +1.2909519e-12 </wgt>
<wgt id='1904'> +1.1434821e-12 </wgt>
<wgt id='1905'> +1.2432891e-12 </wgt>
<wgt id='1906'> +1.1860110e-12 </wgt>
<wgt id='1907'> +1.2406798e-12 </wgt>
<wgt id='1908'> +1.0861502e-12 </wgt>
<wgt id='1909'> +1.1970367e-12 </wgt>
<wgt id='1910'> +1.1565278e-12 </wgt>
<wgt id='1911'> +1.2775724e-12 </wgt>
<wgt id='1912'> +1.1992855e-12 </wgt>
<wgt id='1913'> +1.0862107e-12 </wgt>
<wgt id='1914'> +1.3076746e-12 </wgt>
<wgt id='1915'> +1.2541037e-12 </wgt>
<wgt id='1916'> +1.2642292e-12 </wgt>
<wgt id='1917'> +1.1856606e-12 </wgt>
<wgt id='1918'> +1.2129960e-12 </wgt>
<wgt id='1919'> +1.1667174e-12 </wgt>
</rwgt>
</event>
<event>
 9      1 +1.5607000e-12 2.66376400e+01 7.81860800e-03 1.48627400e-01
       21 -1    0    0  501  502 +0.0000000000e+00 +0.0000000000e+00 +3.0430822694e+02 3.0430822694e+02 0.0000000000e+00 0.0000e+00 1.0000e+00
        2 -1    0    0  502    0 -0.0000000000e+00 -0.0000000000e+00 -1.9688167819e+00 1.9688167819e+00 0.0000000000e+00 0.0000e+00 1.0000e+00
     1023  2    1    2    0    0 -1.9289947553e+01 +1.0605214377e+01 +1.4841234477e+02 1.5078391169e+02 1.4999709909e+01 0.0000e+00 0.0000e+00
  1000023  2    3    3    0    0 -6.0992189722e+00 +9.3919659170e+00 +7.0526285587e+01 7.1621385792e+01 5.5005861679e+00 0.0000e+00 0.0000e+00
        2  1    1    2  501    0 +1.9289947553e+01 -1.0605214377e+01 +1.5392706539e+02 1.5549313203e+02 0.0000000000e+00 0.0000e+00 1.0000e+00
  1000022  1    4    4    0    0 -5.3687968059e+00 +7.9166586477e+00 +5.9808500614e+01 6.0774618131e+01 5.0000000000e+00 0.0000e+00 1.0000e+00
      -11  1    4    4    0    0 -4.5115781448e-01 +1.1692117963e+00 +7.9840025237e+00 8.0817631837e+00 5.1100000000e-04 0.0000e+00 1.0000e+00
       11  1    4    4    0    0 -2.7926435181e-01 +3.0609547302e-01 +2.7337824500e+00 2.7650044777e+00 5.1100000000e-04 0.0000e+00 -1.0000e+00
  1000022  1    3    3    0    0 -1.3190728581e+01 +1.2132484596e+00 +7.7886059180e+01 7.9162525900e+01 5.0000000000e+00 0.0000e+00 1.0000e+00
<mgrwt>
<rscale>  1 0.26637642E+02</rscale>
<asrwt>0</asrwt>
<pdfrwt beam="1">  1       21 0.46816613E-01 0.26637642E+02</pdfrwt>
<pdfrwt beam="2">  1        2 0.30289513E-03 0.26637642E+02</pdfrwt>
<totfact> 0.36404023E+06</totfact>
</mgrwt>
<rwgt>
<wgt id='1001'> +1.5607000e-12 </wgt>
<wgt id='1002'> +1.5567445e-12 </wgt>
<wgt id='1003'> +1.5557211e-12 </wgt>
<wgt id='1004'> +1.5594499e-12 </wgt>
<wgt id='1005'> +1.5555604e-12 </wgt>
<wgt id='1006'> +1.3610716e-12 </wgt>
<wgt id='1007'> +1.3773431e-12 </wgt>
<wgt id='1008'> +1.3778205e-12 </wgt>
<wgt id='1009'> +1.3563090e-12 </wgt>
<wgt id='1010'> +1.3778843e-12 </wgt>
<wgt id='1011'> +1.8324697e-12 </wgt>
<wgt id='1012'> +1.7922778e-12 </wgt>
<wgt id='1013'> +1.7887289e-12 </wgt>
<wgt id='1014'> +1.8378786e-12 </wgt>
<wgt id='1015'> +1.7881904e-12 </wgt>
<wgt id='1016'> +1.7811677e-12 </wgt>
<wgt id='1017'> +1.7313586e-12 </wgt>
<wgt id='1018'> +1.7272512e-12 </wgt>
<wgt id='1019'> +1.7887289e-12 </wgt>
<wgt id='1020'> +1.7266313e-12 </wgt>
<wgt id='1021'> +1.5533394e-12 </wgt>
<wgt id='1022'> +1.5318344e-12 </wgt>
<wgt id='1023'> +1.5297357e-12 </wgt>
<wgt id='1024'> +1.5557211e-12 </wgt>
<wgt id='1025'> +1.5294154e-12 </wgt>
<wgt id='1026'> +2.0913282e-12 </wgt>
<wgt id='1027'> +1.9933107e-12 </wgt>
<wgt id='1028'> +1.9859499e-12 </wgt>
<wgt id='1029'> +2.1080938e-12 </wgt>
<wgt id='1030'> +1.9848445e-12 </wgt>
<wgt id='1031'> +1.3052289e-12 </wgt>
<wgt id='1032'> +1.3537993e-12 </wgt>
<wgt id='1033'> +1.3563090e-12 </wgt>
<wgt id='1034'> +1.2939343e-12 </wgt>
<wgt id='1035'> +1.3566741e-12 </wgt>
<wgt id='1036'> +1.1382777e-12 </wgt>
<wgt id='1037'> +1.1977856e-12 </wgt>
<wgt id='1038'> +1.2012116e-12 </wgt>
<wgt id='1039'> +1.1253807e-12 </wgt>
<wgt id='1040'> +1.2017147e-12 </wgt>
<wgt id='1041'> +1.5325126e-12 </wgt>
<wgt id='1042'> +1.5586273e-12 </wgt>
<wgt id='1043'> +1.5594499e-12 </wgt>
<wgt id='1044'> +1.5249572e-12 </wgt>
<wgt id='1045'> +1.5595611e-12 </wgt>
<wgt id='1046'> +1.5607000e-12 </wgt>
<wgt id='1047'> +1.5742490e-12 </wgt>
<wgt id='1048'> +1.5691821e-12 </wgt>
<wgt id='1049'> +1.5817043e-12 </wgt>
<wgt id='1050'> +1.5650618e-12 </wgt>
<wgt id='1051'> +1.5131639e-12 </wgt>
<wgt id='1052'> +1.6098247e-12 </wgt>
<wgt id='1053'> +1.5694750e-12 </wgt>
<wgt id='1054'> +1.5561843e-12 </wgt>
<wgt id='1055'> +1.5494299e-12 </wgt>
<wgt id='1056'> +1.5946829e-12 </wgt>
<wgt id='1057'> +1.6060935e-12 </wgt>
<wgt id='1058'> +1.5415152e-12 </wgt>
<wgt id='1059'> +1.5596636e-12 </wgt>
<wgt id='1060'> +1.5611191e-12 </wgt>
<wgt id='1061'> +1.5514004e-12 </wgt>
<wgt id='1062'> +1.5543458e-12 </wgt>
<wgt id='1063'> +1.5695861e-12 </wgt>
<wgt id='1064'> +1.5326205e-12 </wgt>
<wgt id='1065'> +1.5412291e-12 </wgt>
<wgt id='1066'> +1.5397996e-12 </wgt>
<wgt id='1067'> +1.5391590e-12 </wgt>
<wgt id='1068'> +1.5487252e-12 </wgt>
<wgt id='1069'> +1.5450245e-12 </wgt>
<wgt id='1070'> +1.5131329e-12 </wgt>
<wgt id='1071'> +1.5198189e-12 </wgt>
<wgt id='1072'> +1.5662391e-12 </wgt>
<wgt id='1073'> +1.6167341e-12 </wgt>
<wgt id='1074'> +1.5653259e-12 </wgt>
<wgt id='1075'> +1.5695525e-12 </wgt>
<wgt id='1076'> +1.6317079e-12 </wgt>
<wgt id='1077'> +1.6100726e-12 </wgt>
<wgt id='1078'> +1.5800220e-12 </wgt>
<wgt id='1079'> +1.5423613e-12 </wgt>
<wgt id='1080'> +1.5543437e-12 </wgt>
<wgt id='1081'> +1.5626411e-12 </wgt>
<wgt id='1082'> +1.5514160e-12 </wgt>
<wgt id='1083'> +1.5229657e-12 </wgt>
<wgt id='1084'> +1.5594368e-12 </wgt>
<wgt id='1085'> +1.5550363e-12 </wgt>
<wgt id='1086'> +1.5903052e-12 </wgt>
<wgt id='1087'> +1.5546769e-12 </wgt>
<wgt id='1088'> +1.5627955e-12 </wgt>
<wgt id='1089'> +1.5653836e-12 </wgt>
<wgt id='1090'> +1.5651179e-12 </wgt>
<wgt id='1091'> +1.5066787e-12 </wgt>
<wgt id='1092'> +1.5683190e-12 </wgt>
<wgt id='1093'> +1.5847178e-12 </wgt>
<wgt id='1094'> +1.5675718e-12 </wgt>
<wgt id='1095'> +1.6105273e-12 </wgt>
<wgt id='1096'> +1.5677906e-12 </wgt>
<wgt id='1097'> +1.5646410e-12 </wgt>
<wgt id='1098'> +1.5370809e-12 </wgt>
<wgt id='1099'> +1.5827615e-12 </wgt>
<wgt id='1100'> +1.5841342e-12 </wgt>
<wgt id='1101'> +1.5454248e-12 </wgt>
<wgt id='1102'> +1.5325044e-12 </wgt>
<wgt id='1103'> +1.5287794e-12 </wgt>
<wgt id='1104'> +1.5063747e-12 </wgt>
<wgt id='1105'> +1.5821560e-12 </wgt>
<wgt id='1106'> +1.5370025e-12 </wgt>
<wgt id='1107'> +1.6061540e-12 </wgt>
<wgt id='1108'> +1.5357382e-12 </wgt>
<wgt id='1109'> +1.5483645e-12 </wgt>
<wgt id='1110'> +1.5606562e-12 </wgt>
<wgt id='1111'> +1.5384863e-12 </wgt>
<wgt id='1112'> +1.5428494e-12 </wgt>
<wgt id='1113'> +1.5376714e-12 </wgt>
<wgt id='1114'> +1.5902383e-12 </wgt>
<wgt id='1115'> +1.5713351e-12 </wgt>
<wgt id='1116'> +1.5719773e-12 </wgt>
<wgt id='1117'> +1.5726006e-12 </wgt>
<wgt id='1118'> +1.5625173e-12 </wgt>
<wgt id='1119'> +1.5279568e-12 </wgt>
<wgt id='1120'> +1.5992572e-12 </wgt>
<wgt id='1121'> +1.5631295e-12 </wgt>
<wgt id='1122'> +1.5885290e-12 </wgt>
<wgt id='1123'> +1.5687156e-12 </wgt>
<wgt id='1124'> +1.5726798e-12 </wgt>
<wgt id='1125'> +1.5201583e-12 </wgt>
<wgt id='1126'> +1.5607142e-12 </wgt>
<wgt id='1127'> +1.5410938e-12 </wgt>
<wgt id='1128'> +1.5543458e-12 </wgt>
<wgt id='1129'> +1.5786615e-12 </wgt>
<wgt id='1130'> +1.5470388e-12 </wgt>
<wgt id='1131'> +1.6243351e-12 </wgt>
<wgt id='1132'> +1.5594093e-12 </wgt>
<wgt id='1133'> +1.5584665e-12 </wgt>
<wgt id='1134'> +1.6244552e-12 </wgt>
<wgt id='1135'> +1.5804640e-12 </wgt>
<wgt id='1136'> +1.5209229e-12 </wgt>
<wgt id='1137'> +1.5298080e-12 </wgt>
<wgt id='1138'> +1.5515944e-12 </wgt>
<wgt id='1139'> +1.5552354e-12 </wgt>
<wgt id='1140'> +1.5673575e-12 </wgt>
<wgt id='1141'> +1.5403574e-12 </wgt>
<wgt id='1142'> +1.5639060e-12 </wgt>
<wgt id='1143'> +1.5245397e-12 </wgt>
<wgt id='1144'> +1.5768972e-12 </wgt>
<wgt id='1145'> +1.5601016e-12 </wgt>
<wgt id='1146'> +1.5302298e-12 </wgt>
<wgt id='1147'> +1.2021721e-12 </wgt>
<wgt id='1148'> +1.2290775e-12 </wgt>
<wgt id='1149'> +1.3307116e-12 </wgt>
<wgt id='1150'> +1.2465674e-12 </wgt>
<wgt id='1151'> +1.0958800e-12 </wgt>
<wgt id='1152'> +1.5500489e-12 </wgt>
<wgt id='1153'> +1.5423820e-12 </wgt>
<wgt id='1154'> +1.5544116e-12 </wgt>
<wgt id='1155'> +1.5501394e-12 </wgt>
<wgt id='1156'> +1.5499671e-12 </wgt>
<wgt id='1157'> +1.5510942e-12 </wgt>
<wgt id='1158'> +1.5485280e-12 </wgt>
<wgt id='1159'> +1.5509360e-12 </wgt>
<wgt id='1160'> +1.5494086e-12 </wgt>
<wgt id='1161'> +1.5452756e-12 </wgt>
<wgt id='1162'> +1.5532598e-12 </wgt>
<wgt id='1163'> +1.5545632e-12 </wgt>
<wgt id='1164'> +1.5455004e-12 </wgt>
<wgt id='1165'> +1.5386746e-12 </wgt>
<wgt id='1166'> +1.5611558e-12 </wgt>
<wgt id='1167'> +1.5577974e-12 </wgt>
<wgt id='1168'> +1.5395259e-12 </wgt>
<wgt id='1169'> +1.5518347e-12 </wgt>
<wgt id='1170'> +1.5486057e-12 </wgt>
<wgt id='1171'> +1.5506848e-12 </wgt>
<wgt id='1172'> +1.5491331e-12 </wgt>
<wgt id='1173'> +1.5494069e-12 </wgt>
<wgt id='1174'> +1.5497253e-12 </wgt>
<wgt id='1175'> +1.5490143e-12 </wgt>
<wgt id='1176'> +1.5502400e-12 </wgt>
<wgt id='1177'> +1.5506166e-12 </wgt>
<wgt id='1178'> +1.5490201e-12 </wgt>
<wgt id='1179'> +1.5633105e-12 </wgt>
<wgt id='1180'> +1.5337345e-12 </wgt>
<wgt id='1181'> +1.5439960e-12 </wgt>
<wgt id='1182'> +1.5562489e-12 </wgt>
<wgt id='1183'> +1.5498714e-12 </wgt>
<wgt id='1184'> +1.5500787e-12 </wgt>
<wgt id='1185'> +1.5469856e-12 </wgt>
<wgt id='1186'> +1.5515879e-12 </wgt>
<wgt id='1187'> +1.5485909e-12 </wgt>
<wgt id='1188'> +1.5505276e-12 </wgt>
<wgt id='1189'> +1.5522059e-12 </wgt>
<wgt id='1190'> +1.5211789e-12 </wgt>
<wgt id='1191'> +1.5387693e-12 </wgt>
<wgt id='1192'> +1.5666643e-12 </wgt>
<wgt id='1193'> +1.2757023e-12 </wgt>
<wgt id='1194'> +1.2621088e-12 </wgt>
<wgt id='1195'> +1.2867662e-12 </wgt>
<wgt id='1196'> +1.2788626e-12 </wgt>
<wgt id='1197'> +1.2721721e-12 </wgt>
<wgt id='1198'> +1.2766712e-12 </wgt>
<wgt id='1199'> +1.2743175e-12 </wgt>
<wgt id='1200'> +1.2772356e-12 </wgt>
<wgt id='1201'> +1.2747217e-12 </wgt>
<wgt id='1202'> +1.2731815e-12 </wgt>
<wgt id='1203'> +1.2793120e-12 </wgt>
<wgt id='1204'> +1.2607249e-12 </wgt>
<wgt id='1205'> +1.2848847e-12 </wgt>
<wgt id='1206'> +1.2797621e-12 </wgt>
<wgt id='1207'> +1.2701660e-12 </wgt>
<wgt id='1208'> +1.2697868e-12 </wgt>
<wgt id='1209'> +1.2779453e-12 </wgt>
<wgt id='1210'> +1.2726529e-12 </wgt>
<wgt id='1211'> +1.2752945e-12 </wgt>
<wgt id='1212'> +1.2755077e-12 </wgt>
<wgt id='1213'> +1.2761922e-12 </wgt>
<wgt id='1214'> +1.2717715e-12 </wgt>
<wgt id='1215'> +1.2767445e-12 </wgt>
<wgt id='1216'> +1.2756958e-12 </wgt>
<wgt id='1217'> +1.2747252e-12 </wgt>
<wgt id='1218'> +1.2779756e-12 </wgt>
<wgt id='1219'> +1.2742103e-12 </wgt>
<wgt id='1220'> +1.2805370e-12 </wgt>
<wgt id='1221'> +1.2768614e-12 </wgt>
<wgt id='1222'> +1.2779548e-12 </wgt>
<wgt id='1223'> +1.2755438e-12 </wgt>
<wgt id='1224'> +1.2763208e-12 </wgt>
<wgt id='1225'> +1.2754121e-12 </wgt>
<wgt id='1226'> +1.2735251e-12 </wgt>
<wgt id='1227'> +1.2772371e-12 </wgt>
<wgt id='1228'> +1.2755797e-12 </wgt>
<wgt id='1229'> +1.2751695e-12 </wgt>
<wgt id='1230'> +1.2961610e-12 </wgt>
<wgt id='1231'> +1.2626229e-12 </wgt>
<wgt id='1232'> +1.2762133e-12 </wgt>
<wgt id='1233'> +1.2755818e-12 </wgt>
<wgt id='1234'> +1.2757023e-12 </wgt>
<wgt id='1235'> +1.2691909e-12 </wgt>
<wgt id='1236'> +1.2717212e-12 </wgt>
<wgt id='1237'> +1.2739824e-12 </wgt>
<wgt id='1238'> +1.2779874e-12 </wgt>
<wgt id='1239'> +1.2794356e-12 </wgt>
<wgt id='1240'> +1.2809346e-12 </wgt>
<wgt id='1241'> +1.3095895e-12 </wgt>
<wgt id='1242'> +1.2961545e-12 </wgt>
<wgt id='1243'> +1.3229162e-12 </wgt>
<wgt id='1244'> +1.3057312e-12 </wgt>
<wgt id='1245'> +1.3125039e-12 </wgt>
<wgt id='1246'> +1.3101725e-12 </wgt>
<wgt id='1247'> +1.3092626e-12 </wgt>
<wgt id='1248'> +1.3095383e-12 </wgt>
<wgt id='1249'> +1.3097297e-12 </wgt>
<wgt id='1250'> +1.3092228e-12 </wgt>
<wgt id='1251'> +1.3099482e-12 </wgt>
<wgt id='1252'> +1.3075861e-12 </wgt>
<wgt id='1253'> +1.3112475e-12 </wgt>
<wgt id='1254'> +1.2972016e-12 </wgt>
<wgt id='1255'> +1.3170786e-12 </wgt>
<wgt id='1256'> +1.3133660e-12 </wgt>
<wgt id='1257'> +1.3004252e-12 </wgt>
<wgt id='1258'> +1.3106591e-12 </wgt>
<wgt id='1259'> +1.3066603e-12 </wgt>
<wgt id='1260'> +1.3108857e-12 </wgt>
<wgt id='1261'> +1.3086408e-12 </wgt>
<wgt id='1262'> +1.3088903e-12 </wgt>
<wgt id='1263'> +1.3098661e-12 </wgt>
<wgt id='1264'> +1.3136218e-12 </wgt>
<wgt id='1265'> +1.3080309e-12 </wgt>
<wgt id='1266'> +1.3099672e-12 </wgt>
<wgt id='1267'> +1.3109526e-12 </wgt>
<wgt id='1268'> +1.3103234e-12 </wgt>
<wgt id='1269'> +1.3132548e-12 </wgt>
<wgt id='1270'> +1.3185472e-12 </wgt>
<wgt id='1271'> +1.3105485e-12 </wgt>
<wgt id='1272'> +1.3132677e-12 </wgt>
<wgt id='1273'> +1.3092557e-12 </wgt>
<wgt id='1274'> +1.3115154e-12 </wgt>
<wgt id='1275'> +1.3066452e-12 </wgt>
<wgt id='1276'> +1.3078366e-12 </wgt>
<wgt id='1277'> +1.3105949e-12 </wgt>
<wgt id='1278'> +1.3099302e-12 </wgt>
<wgt id='1279'> +1.3169901e-12 </wgt>
<wgt id='1280'> +1.3095218e-12 </wgt>
<wgt id='1281'> +1.3138451e-12 </wgt>
<wgt id='1282'> +1.3095895e-12 </wgt>
<wgt id='1283'> +1.3020347e-12 </wgt>
<wgt id='1284'> +1.3050976e-12 </wgt>
<wgt id='1285'> +1.3077378e-12 </wgt>
<wgt id='1286'> +1.3118834e-12 </wgt>
<wgt id='1287'> +1.3134029e-12 </wgt>
<wgt id='1288'> +1.3147606e-12 </wgt>
<wgt id='1289'> +1.3048527e-12 </wgt>
<wgt id='1290'> +1.3144687e-12 </wgt>
<wgt id='1291'> +1.2946216e-12 </wgt>
<wgt id='1292'> +1.3023302e-12 </wgt>
<wgt id='1293'> +1.3067593e-12 </wgt>
<wgt id='1294'> +1.2984190e-12 </wgt>
<wgt id='1295'> +1.3109574e-12 </wgt>
<wgt id='1296'> +1.3022266e-12 </wgt>
<wgt id='1297'> +1.3082310e-12 </wgt>
<wgt id='1298'> +1.3131243e-12 </wgt>
<wgt id='1299'> +1.2947112e-12 </wgt>
<wgt id='1300'> +1.3086416e-12 </wgt>
<wgt id='1301'> +1.2972353e-12 </wgt>
<wgt id='1302'> +1.3038197e-12 </wgt>
<wgt id='1303'> +1.3064281e-12 </wgt>
<wgt id='1304'> +1.3029680e-12 </wgt>
<wgt id='1305'> +1.3061628e-12 </wgt>
<wgt id='1306'> +1.2999056e-12 </wgt>
<wgt id='1307'> +1.3106324e-12 </wgt>
<wgt id='1308'> +1.3153845e-12 </wgt>
<wgt id='1309'> +1.2968459e-12 </wgt>
<wgt id='1310'> +1.3036814e-12 </wgt>
<wgt id='1311'> +1.3064062e-12 </wgt>
<wgt id='1312'> +1.2999722e-12 </wgt>
<wgt id='1313'> +1.3104585e-12 </wgt>
<wgt id='1314'> +1.3017640e-12 </wgt>
<wgt id='1315'> +1.3017890e-12 </wgt>
<wgt id='1316'> +1.3118456e-12 </wgt>
<wgt id='1317'> +1.3066864e-12 </wgt>
<wgt id='1318'> +1.3061759e-12 </wgt>
<wgt id='1319'> +1.3017058e-12 </wgt>
<wgt id='1320'> +1.3032421e-12 </wgt>
<wgt id='1321'> +1.3034168e-12 </wgt>
<wgt id='1322'> +1.3045805e-12 </wgt>
<wgt id='1323'> +1.3050479e-12 </wgt>
<wgt id='1324'> +1.3054540e-12 </wgt>
<wgt id='1325'> +1.3095378e-12 </wgt>
<wgt id='1326'> +1.3050277e-12 </wgt>
<wgt id='1327'> +1.3076049e-12 </wgt>
<wgt id='1328'> +1.3040241e-12 </wgt>
<wgt id='1329'> +1.3054950e-12 </wgt>
<wgt id='1330'> +1.2788504e-12 </wgt>
<wgt id='1331'> +1.3203871e-12 </wgt>
<wgt id='1332'> +1.3300850e-12 </wgt>
<wgt id='1333'> +1.2939072e-12 </wgt>
<wgt id='1334'> +1.3007820e-12 </wgt>
<wgt id='1335'> +1.3149708e-12 </wgt>
<wgt id='1336'> +1.3197618e-12 </wgt>
<wgt id='1337'> +1.2904597e-12 </wgt>
<wgt id='1338'> +1.3092292e-12 </wgt>
<wgt id='1339'> +1.3029076e-12 </wgt>
<wgt id='1340'> +1.2731729e-12 </wgt>
<wgt id='1341'> +1.2825539e-12 </wgt>
<wgt id='1342'> +1.2630133e-12 </wgt>
<wgt id='1343'> +1.2706160e-12 </wgt>
<wgt id='1344'> +1.2748831e-12 </wgt>
<wgt id='1345'> +1.2662381e-12 </wgt>
<wgt id='1346'> +1.2794224e-12 </wgt>
<wgt id='1347'> +1.2706780e-12 </wgt>
<wgt id='1348'> +1.2759005e-12 </wgt>
<wgt id='1349'> +1.2807202e-12 </wgt>
<wgt id='1350'> +1.2658617e-12 </wgt>
<wgt id='1351'> +1.2770200e-12 </wgt>
<wgt id='1352'> +1.2646524e-12 </wgt>
<wgt id='1353'> +1.2716969e-12 </wgt>
<wgt id='1354'> +1.2758348e-12 </wgt>
<wgt id='1355'> +1.2714664e-12 </wgt>
<wgt id='1356'> +1.2741073e-12 </wgt>
<wgt id='1357'> +1.2711127e-12 </wgt>
<wgt id='1358'> +1.2756957e-12 </wgt>
<wgt id='1359'> +1.2850197e-12 </wgt>
<wgt id='1360'> +1.2629454e-12 </wgt>
<wgt id='1361'> +1.2719825e-12 </wgt>
<wgt id='1362'> +1.2749923e-12 </wgt>
<wgt id='1363'> +1.2672515e-12 </wgt>
<wgt id='1364'> +1.2779082e-12 </wgt>
<wgt id='1365'> +1.2723430e-12 </wgt>
<wgt id='1366'> +1.2656834e-12 </wgt>
<wgt id='1367'> +1.2795240e-12 </wgt>
<wgt id='1368'> +1.2740383e-12 </wgt>
<wgt id='1369'> +1.2747640e-12 </wgt>
<wgt id='1370'> +1.2706011e-12 </wgt>
<wgt id='1371'> +1.2726416e-12 </wgt>
<wgt id='1372'> +1.2717066e-12 </wgt>
<wgt id='1373'> +1.2726289e-12 </wgt>
<wgt id='1374'> +1.2730558e-12 </wgt>
<wgt id='1375'> +1.2736858e-12 </wgt>
<wgt id='1376'> +1.2773366e-12 </wgt>
<wgt id='1377'> +1.2738422e-12 </wgt>
<wgt id='1378'> +1.2758106e-12 </wgt>
<wgt id='1379'> +1.2720977e-12 </wgt>
<wgt id='1380'> +1.2741286e-12 </wgt>
<wgt id='1381'> +1.2456704e-12 </wgt>
<wgt id='1382'> +1.2878450e-12 </wgt>
<wgt id='1383'> +1.2988119e-12 </wgt>
<wgt id='1384'> +1.2587709e-12 </wgt>
<wgt id='1385'> +1.2685100e-12 </wgt>
<wgt id='1386'> +1.2835398e-12 </wgt>
<wgt id='1387'> +1.2905319e-12 </wgt>
<wgt id='1388'> +1.2556464e-12 </wgt>
<wgt id='1389'> +1.2803862e-12 </wgt>
<wgt id='1390'> +1.2698835e-12 </wgt>
<wgt id='1391'> +1.2620222e-12 </wgt>
<wgt id='1392'> +1.2190690e-12 </wgt>
<wgt id='1393'> +1.2324079e-12 </wgt>
<wgt id='1394'> +1.2468971e-12 </wgt>
<wgt id='1395'> +1.2734396e-12 </wgt>
<wgt id='1396'> +1.2607883e-12 </wgt>
<wgt id='1397'> +1.2309314e-12 </wgt>
<wgt id='1398'> +1.2369158e-12 </wgt>
<wgt id='1399'> +1.2428224e-12 </wgt>
<wgt id='1400'> +1.2486359e-12 </wgt>
<wgt id='1401'> +1.2546849e-12 </wgt>
<wgt id='1402'> +1.2656962e-12 </wgt>
<wgt id='1403'> +1.2711957e-12 </wgt>
<wgt id='1404'> +1.2758432e-12 </wgt>
<wgt id='1405'> +1.2607883e-12 </wgt>
<wgt id='1406'> +1.2572429e-12 </wgt>
<wgt id='1407'> +1.2591882e-12 </wgt>
<wgt id='1408'> +1.2623779e-12 </wgt>
<wgt id='1409'> +1.2632217e-12 </wgt>
<wgt id='1410'> +1.2738656e-12 </wgt>
<wgt id='1411'> +1.2826279e-12 </wgt>
<wgt id='1412'> +1.2626385e-12 </wgt>
<wgt id='1413'> +1.2747447e-12 </wgt>
<wgt id='1414'> +1.2729864e-12 </wgt>
<wgt id='1415'> +1.2691980e-12 </wgt>
<wgt id='1416'> +1.2757687e-12 </wgt>
<wgt id='1417'> +1.2655575e-12 </wgt>
<wgt id='1418'> +1.2821582e-12 </wgt>
<wgt id='1419'> +1.2762445e-12 </wgt>
<wgt id='1420'> +1.2715605e-12 </wgt>
<wgt id='1421'> +1.2591868e-12 </wgt>
<wgt id='1422'> +1.2802128e-12 </wgt>
<wgt id='1423'> +1.2735612e-12 </wgt>
<wgt id='1424'> +1.2742458e-12 </wgt>
<wgt id='1425'> +1.2698135e-12 </wgt>
<wgt id='1426'> +1.2782647e-12 </wgt>
<wgt id='1427'> +1.2706767e-12 </wgt>
<wgt id='1428'> +1.2753900e-12 </wgt>
<wgt id='1429'> +1.2662838e-12 </wgt>
<wgt id='1430'> +1.2841772e-12 </wgt>
<wgt id='1431'> +1.2808395e-12 </wgt>
<wgt id='1432'> +1.2688771e-12 </wgt>
<wgt id='1433'> +1.2741633e-12 </wgt>
<wgt id='1434'> +1.2707993e-12 </wgt>
<wgt id='1435'> +1.2762401e-12 </wgt>
<wgt id='1436'> +1.2687302e-12 </wgt>
<wgt id='1437'> +1.2812015e-12 </wgt>
<wgt id='1438'> +1.2757006e-12 </wgt>
<wgt id='1439'> +1.2711255e-12 </wgt>
<wgt id='1440'> +1.2752706e-12 </wgt>
<wgt id='1441'> +1.2743820e-12 </wgt>
<wgt id='1442'> +1.2734505e-12 </wgt>
<wgt id='1443'> +1.2739820e-12 </wgt>
<wgt id='1444'> +1.2764831e-12 </wgt>
<wgt id='1445'> +1.2794067e-12 </wgt>
<wgt id='1446'> +1.2736432e-12 </wgt>
<wgt id='1447'> +1.2751110e-12 </wgt>
<wgt id='1448'> +1.2764357e-12 </wgt>
<wgt id='1449'> +1.2726105e-12 </wgt>
<wgt id='1450'> +1.2744527e-12 </wgt>
<wgt id='1451'> +1.2815756e-12 </wgt>
<wgt id='1452'> +1.2557757e-12 </wgt>
<wgt id='1453'> +1.2759480e-12 </wgt>
<wgt id='1454'> +1.2609139e-12 </wgt>
<wgt id='1455'> +1.2594283e-12 </wgt>
<wgt id='1456'> +1.2952112e-12 </wgt>
<wgt id='1457'> +1.2875179e-12 </wgt>
<wgt id='1458'> +1.2695263e-12 </wgt>
<wgt id='1459'> +1.2770184e-12 </wgt>
<wgt id='1460'> +1.2824194e-12 </wgt>
<wgt id='1461'> +1.2738656e-12 </wgt>
<wgt id='1462'> +1.2630212e-12 </wgt>
<wgt id='1463'> +1.2837900e-12 </wgt>
<wgt id='1464'> +1.2732432e-12 </wgt>
<wgt id='1465'> +1.2453135e-12 </wgt>
<wgt id='1466'> +1.2509850e-12 </wgt>
<wgt id='1467'> +1.2568915e-12 </wgt>
<wgt id='1468'> +1.2632802e-12 </wgt>
<wgt id='1469'> +1.2681259e-12 </wgt>
<wgt id='1470'> +1.2784536e-12 </wgt>
<wgt id='1471'> +1.2827598e-12 </wgt>
<wgt id='1472'> +1.2875120e-12 </wgt>
<wgt id='1473'> +1.2732432e-12 </wgt>
<wgt id='1474'> +1.2691358e-12 </wgt>
<wgt id='1475'> +1.2711647e-12 </wgt>
<wgt id='1476'> +1.2747926e-12 </wgt>
<wgt id='1477'> +1.2765311e-12 </wgt>
<wgt id='1478'> +1.2441128e-12 </wgt>
<wgt id='1479'> +1.2431926e-12 </wgt>
<wgt id='1480'> +1.2540660e-12 </wgt>
<wgt id='1481'> +1.2497378e-12 </wgt>
<wgt id='1482'> +1.2458964e-12 </wgt>
<wgt id='1483'> +1.2236045e-12 </wgt>
<wgt id='1484'> +1.2462499e-12 </wgt>
<wgt id='1485'> +1.2513515e-12 </wgt>
<wgt id='1486'> +1.2447213e-12 </wgt>
<wgt id='1487'> +1.2494636e-12 </wgt>
<wgt id='1488'> +1.2395766e-12 </wgt>
<wgt id='1489'> +1.2538254e-12 </wgt>
<wgt id='1490'> +1.2441305e-12 </wgt>
<wgt id='1491'> +1.2428408e-12 </wgt>
<wgt id='1492'> +1.2435473e-12 </wgt>
<wgt id='1493'> +1.2419710e-12 </wgt>
<wgt id='1494'> +1.2666344e-12 </wgt>
<wgt id='1495'> +1.2471786e-12 </wgt>
<wgt id='1496'> +1.2426763e-12 </wgt>
<wgt id='1497'> +1.2465029e-12 </wgt>
<wgt id='1498'> +1.2430190e-12 </wgt>
<wgt id='1499'> +1.2466601e-12 </wgt>
<wgt id='1500'> +1.2445381e-12 </wgt>
<wgt id='1501'> +1.2436690e-12 </wgt>
<wgt id='1502'> +1.2435017e-12 </wgt>
<wgt id='1503'> +1.2488694e-12 </wgt>
<wgt id='1504'> +1.2452541e-12 </wgt>
<wgt id='1505'> +1.2440559e-12 </wgt>
<wgt id='1506'> +1.2432460e-12 </wgt>
<wgt id='1507'> +1.2414816e-12 </wgt>
<wgt id='1508'> +1.2539326e-12 </wgt>
<wgt id='1509'> +1.2926271e-12 </wgt>
<wgt id='1510'> +1.2922671e-12 </wgt>
<wgt id='1511'> +1.2851586e-12 </wgt>
<wgt id='1512'> +1.2867621e-12 </wgt>
<wgt id='1513'> +1.3064382e-12 </wgt>
<wgt id='1514'> +1.2922526e-12 </wgt>
<wgt id='1515'> +1.2862971e-12 </wgt>
<wgt id='1516'> +1.2913027e-12 </wgt>
<wgt id='1517'> +1.2867253e-12 </wgt>
<wgt id='1518'> +1.3004902e-12 </wgt>
<wgt id='1519'> +1.2910789e-12 </wgt>
<wgt id='1520'> +1.2893953e-12 </wgt>
<wgt id='1521'> +1.2985317e-12 </wgt>
<wgt id='1522'> +1.2932293e-12 </wgt>
<wgt id='1523'> +1.2968904e-12 </wgt>
<wgt id='1524'> +1.2925466e-12 </wgt>
<wgt id='1525'> +1.2927000e-12 </wgt>
<wgt id='1526'> +1.2897033e-12 </wgt>
<wgt id='1527'> +1.2957228e-12 </wgt>
<wgt id='1528'> +1.2986645e-12 </wgt>
<wgt id='1529'> +1.3005240e-12 </wgt>
<wgt id='1530'> +1.2959488e-12 </wgt>
<wgt id='1531'> +1.2976668e-12 </wgt>
<wgt id='1532'> +1.2984383e-12 </wgt>
<wgt id='1533'> +1.2917792e-12 </wgt>
<wgt id='1534'> +1.3008998e-12 </wgt>
<wgt id='1535'> +1.2940722e-12 </wgt>
<wgt id='1536'> +1.2890923e-12 </wgt>
<wgt id='1537'> +1.2896544e-12 </wgt>
<wgt id='1538'> +1.2941621e-12 </wgt>
<wgt id='1539'> +1.2907504e-12 </wgt>
<wgt id='1540'> +1.2947286e-12 </wgt>
<wgt id='1541'> +1.2909165e-12 </wgt>
<wgt id='1542'> +1.2933958e-12 </wgt>
<wgt id='1543'> +1.2945516e-12 </wgt>
<wgt id='1544'> +1.2923556e-12 </wgt>
<wgt id='1545'> +1.2939852e-12 </wgt>
<wgt id='1546'> +1.2945108e-12 </wgt>
<wgt id='1547'> +1.2924854e-12 </wgt>
<wgt id='1548'> +1.2930621e-12 </wgt>
<wgt id='1549'> +1.2940815e-12 </wgt>
<wgt id='1550'> +1.2926684e-12 </wgt>
<wgt id='1551'> +1.2918552e-12 </wgt>
<wgt id='1552'> +1.2932122e-12 </wgt>
<wgt id='1553'> +1.2930295e-12 </wgt>
<wgt id='1554'> +1.2920057e-12 </wgt>
<wgt id='1555'> +1.2917611e-12 </wgt>
<wgt id='1556'> +1.2933586e-12 </wgt>
<wgt id='1557'> +1.2924215e-12 </wgt>
<wgt id='1558'> +1.2937341e-12 </wgt>
<wgt id='1559'> +1.2930917e-12 </wgt>
<wgt id='1560'> +1.2928156e-12 </wgt>
<wgt id='1561'> +1.2922830e-12 </wgt>
<wgt id='1562'> +1.2922166e-12 </wgt>
<wgt id='1563'> +1.2919359e-12 </wgt>
<wgt id='1564'> +1.2933228e-12 </wgt>
<wgt id='1565'> +1.2925058e-12 </wgt>
<wgt id='1566'> +1.2931682e-12 </wgt>
<wgt id='1567'> +1.2933415e-12 </wgt>
<wgt id='1568'> +1.2925240e-12 </wgt>
<wgt id='1569'> +1.2932835e-12 </wgt>
<wgt id='1570'> +1.2920206e-12 </wgt>
<wgt id='1571'> +1.2923505e-12 </wgt>
<wgt id='1572'> +1.2927383e-12 </wgt>
<wgt id='1573'> +1.2924511e-12 </wgt>
<wgt id='1574'> +1.2923965e-12 </wgt>
<wgt id='1575'> +1.2918093e-12 </wgt>
<wgt id='1576'> +1.2924678e-12 </wgt>
<wgt id='1577'> +1.2933980e-12 </wgt>
<wgt id='1578'> +1.2931144e-12 </wgt>
<wgt id='1579'> +1.2925395e-12 </wgt>
<wgt id='1580'> +1.2924464e-12 </wgt>
<wgt id='1581'> +1.2929974e-12 </wgt>
<wgt id='1582'> +1.2928083e-12 </wgt>
<wgt id='1583'> +1.2928226e-12 </wgt>
<wgt id='1584'> +1.2927867e-12 </wgt>
<wgt id='1585'> +1.2929513e-12 </wgt>
<wgt id='1586'> +1.2926929e-12 </wgt>
<wgt id='1587'> +1.2927765e-12 </wgt>
<wgt id='1588'> +1.2930917e-12 </wgt>
<wgt id='1589'> +1.2928552e-12 </wgt>
<wgt id='1590'> +1.2927652e-12 </wgt>
<wgt id='1591'> +1.2931526e-12 </wgt>
<wgt id='1592'> +1.2920155e-12 </wgt>
<wgt id='1593'> +1.2923963e-12 </wgt>
<wgt id='1594'> +1.2925626e-12 </wgt>
<wgt id='1595'> +1.2927214e-12 </wgt>
<wgt id='1596'> +1.2929267e-12 </wgt>
<wgt id='1597'> +1.2925498e-12 </wgt>
<wgt id='1598'> +1.2927932e-12 </wgt>
<wgt id='1599'> +1.2929027e-12 </wgt>
<wgt id='1600'> +1.2924931e-12 </wgt>
<wgt id='1601'> +1.2925912e-12 </wgt>
<wgt id='1602'> +1.2925756e-12 </wgt>
<wgt id='1603'> +1.2923817e-12 </wgt>
<wgt id='1604'> +1.2927001e-12 </wgt>
<wgt id='1605'> +1.2927579e-12 </wgt>
<wgt id='1606'> +1.2928292e-12 </wgt>
<wgt id='1607'> +1.2926310e-12 </wgt>
<wgt id='1608'> +1.2927547e-12 </wgt>
<wgt id='1609'> +1.2927490e-12 </wgt>
<wgt id='1610'> +1.2654680e-12 </wgt>
<wgt id='1611'> +1.3219513e-12 </wgt>
<wgt id='1612'> +1.5060019e-12 </wgt>
<wgt id='1613'> +1.5045956e-12 </wgt>
<wgt id='1614'> +1.5422307e-12 </wgt>
<wgt id='1615'> +1.4820856e-12 </wgt>
<wgt id='1616'> +1.5523817e-12 </wgt>
<wgt id='1617'> +1.5239920e-12 </wgt>
<wgt id='1618'> +1.5258130e-12 </wgt>
<wgt id='1619'> +1.5160530e-12 </wgt>
<wgt id='1620'> +1.4929800e-12 </wgt>
<wgt id='1621'> +1.5366456e-12 </wgt>
<wgt id='1622'> +1.4923141e-12 </wgt>
<wgt id='1623'> +1.5630894e-12 </wgt>
<wgt id='1624'> +1.5328108e-12 </wgt>
<wgt id='1625'> +1.4475181e-12 </wgt>
<wgt id='1626'> +1.4689969e-12 </wgt>
<wgt id='1627'> +1.5379094e-12 </wgt>
<wgt id='1628'> +1.5422950e-12 </wgt>
<wgt id='1629'> +1.5178924e-12 </wgt>
<wgt id='1630'> +1.4733408e-12 </wgt>
<wgt id='1631'> +1.4939489e-12 </wgt>
<wgt id='1632'> +1.4843985e-12 </wgt>
<wgt id='1633'> +1.4782445e-12 </wgt>
<wgt id='1634'> +1.4928295e-12 </wgt>
<wgt id='1635'> +1.4860305e-12 </wgt>
<wgt id='1636'> +1.5570542e-12 </wgt>
<wgt id='1637'> +1.4795593e-12 </wgt>
<wgt id='1638'> +1.5044278e-12 </wgt>
<wgt id='1639'> +1.5189610e-12 </wgt>
<wgt id='1640'> +1.4584803e-12 </wgt>
<wgt id='1641'> +1.5041263e-12 </wgt>
<wgt id='1642'> +1.4753815e-12 </wgt>
<wgt id='1643'> +1.5547683e-12 </wgt>
<wgt id='1644'> +1.4259742e-12 </wgt>
<wgt id='1645'> +1.4799233e-12 </wgt>
<wgt id='1646'> +1.4990858e-12 </wgt>
<wgt id='1647'> +1.5255097e-12 </wgt>
<wgt id='1648'> +1.5086049e-12 </wgt>
<wgt id='1649'> +1.5876721e-12 </wgt>
<wgt id='1650'> +1.4991488e-12 </wgt>
<wgt id='1651'> +1.5479116e-12 </wgt>
<wgt id='1652'> +1.5134552e-12 </wgt>
<wgt id='1653'> +1.5112414e-12 </wgt>
<wgt id='1654'> +1.5281940e-12 </wgt>
<wgt id='1655'> +1.5382556e-12 </wgt>
<wgt id='1656'> +1.4133810e-12 </wgt>
<wgt id='1657'> +1.5240064e-12 </wgt>
<wgt id='1658'> +1.5284600e-12 </wgt>
<wgt id='1659'> +1.5328108e-12 </wgt>
<wgt id='1660'> +1.5187529e-12 </wgt>
<wgt id='1661'> +1.4843369e-12 </wgt>
<wgt id='1662'> +1.4987153e-12 </wgt>
<wgt id='1663'> +1.4814860e-12 </wgt>
<wgt id='1664'> +1.4685346e-12 </wgt>
<wgt id='1665'> +1.5056907e-12 </wgt>
<wgt id='1666'> +1.5327301e-12 </wgt>
<wgt id='1667'> +1.5143692e-12 </wgt>
<wgt id='1668'> +1.5623643e-12 </wgt>
<wgt id='1669'> +1.4467694e-12 </wgt>
<wgt id='1670'> +1.4915809e-12 </wgt>
<wgt id='1671'> +1.4402492e-12 </wgt>
<wgt id='1672'> +1.4591576e-12 </wgt>
<wgt id='1673'> +1.4826001e-12 </wgt>
<wgt id='1674'> +1.5002249e-12 </wgt>
<wgt id='1675'> +1.4671462e-12 </wgt>
<wgt id='1676'> +1.4666341e-12 </wgt>
<wgt id='1677'> +1.5346850e-12 </wgt>
<wgt id='1678'> +1.4933560e-12 </wgt>
<wgt id='1679'> +1.5318844e-12 </wgt>
<wgt id='1680'> +1.5205325e-12 </wgt>
<wgt id='1681'> +1.4855959e-12 </wgt>
<wgt id='1682'> +1.4996634e-12 </wgt>
<wgt id='1683'> +1.5066993e-12 </wgt>
<wgt id='1684'> +1.5303277e-12 </wgt>
<wgt id='1685'> +1.4837672e-12 </wgt>
<wgt id='1686'> +1.5101477e-12 </wgt>
<wgt id='1687'> +1.5371541e-12 </wgt>
<wgt id='1688'> +1.5208411e-12 </wgt>
<wgt id='1689'> +1.5021408e-12 </wgt>
<wgt id='1690'> +1.4451693e-12 </wgt>
<wgt id='1691'> +1.4809618e-12 </wgt>
<wgt id='1692'> +1.5240266e-12 </wgt>
<wgt id='1693'> +1.5242969e-12 </wgt>
<wgt id='1694'> +1.4461466e-12 </wgt>
<wgt id='1695'> +1.5427698e-12 </wgt>
<wgt id='1696'> +1.4800239e-12 </wgt>
<wgt id='1697'> +1.5461889e-12 </wgt>
<wgt id='1698'> +1.4931834e-12 </wgt>
<wgt id='1699'> +1.5241178e-12 </wgt>
<wgt id='1700'> +1.5171783e-12 </wgt>
<wgt id='1701'> +1.5258285e-12 </wgt>
<wgt id='1702'> +1.4855364e-12 </wgt>
<wgt id='1703'> +1.4889832e-12 </wgt>
<wgt id='1704'> +1.5040981e-12 </wgt>
<wgt id='1705'> +1.4825367e-12 </wgt>
<wgt id='1706'> +1.5282077e-12 </wgt>
<wgt id='1707'> +1.5546983e-12 </wgt>
<wgt id='1708'> +1.5276074e-12 </wgt>
<wgt id='1709'> +1.5022630e-12 </wgt>
<wgt id='1710'> +1.5032772e-12 </wgt>
<wgt id='1711'> +1.5757728e-12 </wgt>
<wgt id='1712'> +1.5173366e-12 </wgt>
<wgt id='1713'> +1.2632447e-12 </wgt>
<wgt id='1714'> +1.2585688e-12 </wgt>
<wgt id='1715'> +1.2447897e-12 </wgt>
<wgt id='1716'> +1.2815788e-12 </wgt>
<wgt id='1717'> +1.2629307e-12 </wgt>
<wgt id='1718'> +1.2961093e-12 </wgt>
<wgt id='1719'> +1.3209166e-12 </wgt>
<wgt id='1720'> +1.2396235e-12 </wgt>
<wgt id='1721'> +1.2668181e-12 </wgt>
<wgt id='1722'> +1.2793260e-12 </wgt>
<wgt id='1723'> +1.2470398e-12 </wgt>
<wgt id='1724'> +1.0386127e-12 </wgt>
<wgt id='1725'> +1.3129436e-12 </wgt>
<wgt id='1726'> +1.3146477e-12 </wgt>
<wgt id='1727'> +1.2340149e-12 </wgt>
<wgt id='1728'> +1.2717948e-12 </wgt>
<wgt id='1729'> +1.2439050e-12 </wgt>
<wgt id='1730'> +1.2458047e-12 </wgt>
<wgt id='1731'> +1.2394044e-12 </wgt>
<wgt id='1732'> +1.3007387e-12 </wgt>
<wgt id='1733'> +1.2972051e-12 </wgt>
<wgt id='1734'> +1.3058164e-12 </wgt>
<wgt id='1735'> +1.2014613e-12 </wgt>
<wgt id='1736'> +1.3412807e-12 </wgt>
<wgt id='1737'> +1.3096028e-12 </wgt>
<wgt id='1738'> +1.2574752e-12 </wgt>
<wgt id='1739'> +1.2813572e-12 </wgt>
<wgt id='1740'> +1.2272708e-12 </wgt>
<wgt id='1741'> +1.2704219e-12 </wgt>
<wgt id='1742'> +1.2889727e-12 </wgt>
<wgt id='1743'> +1.2916697e-12 </wgt>
<wgt id='1744'> +1.2991294e-12 </wgt>
<wgt id='1745'> +1.1671686e-12 </wgt>
<wgt id='1746'> +1.2759872e-12 </wgt>
<wgt id='1747'> +1.2978937e-12 </wgt>
<wgt id='1748'> +1.2608413e-12 </wgt>
<wgt id='1749'> +1.2753621e-12 </wgt>
<wgt id='1750'> +1.2800385e-12 </wgt>
<wgt id='1751'> +1.2109237e-12 </wgt>
<wgt id='1752'> +1.2641342e-12 </wgt>
<wgt id='1753'> +1.2695265e-12 </wgt>
<wgt id='1754'> +1.2846522e-12 </wgt>
<wgt id='1755'> +1.2535051e-12 </wgt>
<wgt id='1756'> +1.2543105e-12 </wgt>
<wgt id='1757'> +1.2642501e-12 </wgt>
<wgt id='1758'> +1.2798982e-12 </wgt>
<wgt id='1759'> +1.3046615e-12 </wgt>
<wgt id='1760'> +1.2477788e-12 </wgt>
<wgt id='1761'> +1.2726642e-12 </wgt>
<wgt id='1762'> +1.2947394e-12 </wgt>
<wgt id='1763'> +1.2707678e-12 </wgt>
<wgt id='1764'> +1.2750740e-12 </wgt>
<wgt id='1765'> +1.2374679e-12 </wgt>
<wgt id='1766'> +1.3060412e-12 </wgt>
<wgt id='1767'> +1.2759211e-12 </wgt>
<wgt id='1768'> +1.2478598e-12 </wgt>
<wgt id='1769'> +1.2508017e-12 </wgt>
<wgt id='1770'> +1.2971279e-12 </wgt>
<wgt id='1771'> +1.2616168e-12 </wgt>
<wgt id='1772'> +1.3091752e-12 </wgt>
<wgt id='1773'> +1.2634413e-12 </wgt>
<wgt id='1774'> +1.2670654e-12 </wgt>
<wgt id='1775'> +1.2670649e-12 </wgt>
<wgt id='1776'> +1.2911304e-12 </wgt>
<wgt id='1777'> +1.2075370e-12 </wgt>
<wgt id='1778'> +1.2455405e-12 </wgt>
<wgt id='1779'> +1.2629171e-12 </wgt>
<wgt id='1780'> +1.2756399e-12 </wgt>
<wgt id='1781'> +1.2745458e-12 </wgt>
<wgt id='1782'> +1.2087009e-12 </wgt>
<wgt id='1783'> +1.2480745e-12 </wgt>
<wgt id='1784'> +1.2410689e-12 </wgt>
<wgt id='1785'> +1.2462157e-12 </wgt>
<wgt id='1786'> +1.1734511e-12 </wgt>
<wgt id='1787'> +1.3118293e-12 </wgt>
<wgt id='1788'> +1.2475947e-12 </wgt>
<wgt id='1789'> +1.1656449e-12 </wgt>
<wgt id='1790'> +1.2371441e-12 </wgt>
<wgt id='1791'> +1.2627290e-12 </wgt>
<wgt id='1792'> +1.2214123e-12 </wgt>
<wgt id='1793'> +1.2582568e-12 </wgt>
<wgt id='1794'> +1.2588327e-12 </wgt>
<wgt id='1795'> +1.2812884e-12 </wgt>
<wgt id='1796'> +1.2917496e-12 </wgt>
<wgt id='1797'> +1.2658513e-12 </wgt>
<wgt id='1798'> +1.2478636e-12 </wgt>
<wgt id='1799'> +1.2484951e-12 </wgt>
<wgt id='1800'> +1.2536381e-12 </wgt>
<wgt id='1801'> +1.2485956e-12 </wgt>
<wgt id='1802'> +1.2806858e-12 </wgt>
<wgt id='1803'> +1.2773978e-12 </wgt>
<wgt id='1804'> +1.2816466e-12 </wgt>
<wgt id='1805'> +1.2418855e-12 </wgt>
<wgt id='1806'> +1.2580417e-12 </wgt>
<wgt id='1807'> +1.2488788e-12 </wgt>
<wgt id='1808'> +1.2599585e-12 </wgt>
<wgt id='1809'> +1.2582698e-12 </wgt>
<wgt id='1810'> +1.2971682e-12 </wgt>
<wgt id='1811'> +1.3045136e-12 </wgt>
<wgt id='1812'> +1.2930793e-12 </wgt>
<wgt id='1813'> +1.2959627e-12 </wgt>
<wgt id='1814'> +1.2433999e-12 </wgt>
<wgt id='1815'> +1.3958160e-12 </wgt>
<wgt id='1816'> +1.2632447e-12 </wgt>
<wgt id='1817'> +1.2585688e-12 </wgt>
<wgt id='1818'> +1.2447897e-12 </wgt>
<wgt id='1819'> +1.2815788e-12 </wgt>
<wgt id='1820'> +1.2629307e-12 </wgt>
<wgt id='1821'> +1.2961093e-12 </wgt>
<wgt id='1822'> +1.3209166e-12 </wgt>
<wgt id='1823'> +1.2396235e-12 </wgt>
<wgt id='1824'> +1.2668181e-12 </wgt>
<wgt id='1825'> +1.2793260e-12 </wgt>
<wgt id='1826'> +1.2470398e-12 </wgt>
<wgt id='1827'> +1.0386127e-12 </wgt>
<wgt id='1828'> +1.3129436e-12 </wgt>
<wgt id='1829'> +1.3146477e-12 </wgt>
<wgt id='1830'> +1.2340149e-12 </wgt>
<wgt id='1831'> +1.2717948e-12 </wgt>
<wgt id='1832'> +1.2439050e-12 </wgt>
<wgt id='1833'> +1.2458047e-12 </wgt>
<wgt id='1834'> +1.2394044e-12 </wgt>
<wgt id='1835'> +1.3007387e-12 </wgt>
<wgt id='1836'> +1.2972051e-12 </wgt>
<wgt id='1837'> +1.3058164e-12 </wgt>
<wgt id='1838'> +1.2014613e-12 </wgt>
<wgt id='1839'> +1.3412807e-12 </wgt>
<wgt id='1840'> +1.3096028e-12 </wgt>
<wgt id='1841'> +1.2574752e-12 </wgt>
<wgt id='1842'> +1.2813572e-12 </wgt>
<wgt id='1843'> +1.2272708e-12 </wgt>
<wgt id='1844'> +1.2704219e-12 </wgt>
<wgt id='1845'> +1.2889727e-12 </wgt>
<wgt id='1846'> +1.2916697e-12 </wgt>
<wgt id='1847'> +1.2991294e-12 </wgt>
<wgt id='1848'> +1.1671686e-12 </wgt>
<wgt id='1849'> +1.2759872e-12 </wgt>
<wgt id='1850'> +1.2978937e-12 </wgt>
<wgt id='1851'> +1.2608413e-12 </wgt>
<wgt id='1852'> +1.2753621e-12 </wgt>
<wgt id='1853'> +1.2800385e-12 </wgt>
<wgt id='1854'> +1.2109237e-12 </wgt>
<wgt id='1855'> +1.2641342e-12 </wgt>
<wgt id='1856'> +1.2695265e-12 </wgt>
<wgt id='1857'> +1.2846522e-12 </wgt>
<wgt id='1858'> +1.2535051e-12 </wgt>
<wgt id='1859'> +1.2543105e-12 </wgt>
<wgt id='1860'> +1.2642501e-12 </wgt>
<wgt id='1861'> +1.2798982e-12 </wgt>
<wgt id='1862'> +1.3046615e-12 </wgt>
<wgt id='1863'> +1.2477788e-12 </wgt>
<wgt id='1864'> +1.2726642e-12 </wgt>
<wgt id='1865'> +1.2947394e-12 </wgt>
<wgt id='1866'> +1.2707678e-12 </wgt>
<wgt id='1867'> +1.2750740e-12 </wgt>
<wgt id='1868'> +1.2374679e-12 </wgt>
<wgt id='1869'> +1.3060412e-12 </wgt>
<wgt id='1870'> +1.2759211e-12 </wgt>
<wgt id='1871'> +1.2478598e-12 </wgt>
<wgt id='1872'> +1.2508017e-12 </wgt>
<wgt id='1873'> +1.2971279e-12 </wgt>
<wgt id='1874'> +1.2616168e-12 </wgt>
<wgt id='1875'> +1.3091752e-12 </wgt>
<wgt id='1876'> +1.2634413e-12 </wgt>
<wgt id='1877'> +1.2670654e-12 </wgt>
<wgt id='1878'> +1.2670649e-12 </wgt>
<wgt id='1879'> +1.2911304e-12 </wgt>
<wgt id='1880'> +1.2075370e-12 </wgt>
<wgt id='1881'> +1.2455405e-12 </wgt>
<wgt id='1882'> +1.2629171e-12 </wgt>
<wgt id='1883'> +1.2756399e-12 </wgt>
<wgt id='1884'> +1.2745458e-12 </wgt>
<wgt id='1885'> +1.2087009e-12 </wgt>
<wgt id='1886'> +1.2480745e-12 </wgt>
<wgt id='1887'> +1.2410689e-12 </wgt>
<wgt id='1888'> +1.2462157e-12 </wgt>
<wgt id='1889'> +1.1734511e-12 </wgt>
<wgt id='1890'> +1.3118293e-12 </wgt>
<wgt id='1891'> +1.2475947e-12 </wgt>
<wgt id='1892'> +1.1656449e-12 </wgt>
<wgt id='1893'> +1.2371441e-12 </wgt>
<wgt id='1894'> +1.2627290e-12 </wgt>
<wgt id='1895'> +1.2214123e-12 </wgt>
<wgt id='1896'> +1.2582568e-12 </wgt>
<wgt id='1897'> +1.2588327e-12 </wgt>
<wgt id='1898'> +1.2812884e-12 </wgt>
<wgt id='1899'> +1.2917496e-12 </wgt>
<wgt id='1900'> +1.2658513e-12 </wgt>
<wgt id='1901'> +1.2478636e-12 </wgt>
<wgt id='1902'> +1.2484951e-12 </wgt>
<wgt id='1903'> +1.2536381e-12 </wgt>
<wgt id='1904'> +1.2485956e-12 </wgt>
<wgt id='1905'> +1.2806858e-12 </wgt>
<wgt id='1906'> +1.2773978e-12 </wgt>
<wgt id='1907'> +1.2816466e-12 </wgt>
<wgt id='1908'> +1.2418855e-12 </wgt>
<wgt id='1909'> +1.2580417e-12 </wgt>
<wgt id='1910'> +1.2488788e-12 </wgt>
<wgt id='1911'> +1.2599585e-12 </wgt>
<wgt id='1912'> +1.2582698e-12 </wgt>
<wgt id='1913'> +1.2971682e-12 </wgt>
<wgt id='1914'> +1.3045136e-12 </wgt>
<wgt id='1915'> +1.2930793e-12 </wgt>
<wgt id='1916'> +1.2959627e-12 </wgt>
<wgt id='1917'> +1.2535261e-12 </wgt>
<wgt id='1918'> +1.2790462e-12 </wgt>
<wgt id='1919'> +1.2815284e-12 </wgt>
</rwgt>
</event>
<event>
 9      1 +1.5607000e-12 2.90513700e+01 7.81860800e-03 1.45937500e-01
        2 -1    0    0  502    0 -0.0000000000e+00 +0.0000000000e+00 +1.2255516520e+00 1.2255516520e+00 0.0000000000e+00 0.0000e+00 -1.0000e+00
       21 -1    0    0  501  502 +0.0000000000e+00 -0.0000000000e+00 -6.3931996130e+02 6.3931996130e+02 0.0000000000e+00 0.0000e+00 1.0000e+00
     1023  2    1    2    0    0 -2.4268385467e+01 +5.4825702651e+00 -4.2761692608e+02 4.2860263339e+02 1.4998958796e+01 0.0000e+00 0.0000e+00
  1000023  2    3    3    0    0 -9.9978956525e+00 -1.5105988980e+00 -1.2557614143e+02 1.2610273771e+02 5.5039380289e+00 0.0000e+00 0.0000e+00
        2  1    1    2  501    0 +2.4268385467e+01 -5.4825702651e+00 -2.1047748356e+02 2.1194287956e+02 0.0000000000e+00 0.0000e+00 -1.0000e+00
  1000022  1    4    4    0    0 -9.2423791942e+00 -1.4353195959e+00 -1.1176135791e+02 1.1226345281e+02 5.0000000000e+00 0.0000e+00 1.0000e+00
      -13  1    4    4    0    0 -3.6628420212e-01 -8.1840990625e-02 -8.6445889641e+00 8.6533781214e+00 1.0570000000e-01 0.0000e+00 1.0000e+00
       13  1    4    4    0    0 -3.8923225620e-01 +6.5616885584e-03 -5.1701945607e+00 5.1859067761e+00 1.0570000000e-01 0.0000e+00 -1.0000e+00
  1000022  1    3    3    0    0 -1.4270489814e+01 +6.9931691631e+00 -3.0204078465e+02 3.0249989568e+02 5.0000000000e+00 0.0000e+00 1.0000e+00
<mgrwt>
<rscale>  1 0.29051366E+02</rscale>
<asrwt>0</asrwt>
<pdfrwt beam="1">  1       21 0.98357044E-01 0.29051366E+02</pdfrwt>
<pdfrwt beam="2">  1        2 0.18854617E-03 0.29051366E+02</pdfrwt>
<totfact> 0.13506967E+06</totfact>
</mgrwt>
<rwgt>
<wgt id='1001'> +1.5607000e-12 </wgt>
<wgt id='1002'> +1.5135372e-12 </wgt>
<wgt id='1003'> +1.5099975e-12 </wgt>
<wgt id='1004'> +1.5676318e-12 </wgt>
<wgt id='1005'> +1.5049072e-12 </wgt>
<wgt id='1006'> +1.3644273e-12 </wgt>
<wgt id='1007'> +1.3418365e-12 </wgt>
<wgt id='1008'> +1.3398599e-12 </wgt>
<wgt id='1009'> +1.3668638e-12 </wgt>
<wgt id='1010'> +1.3369628e-12 </wgt>
<wgt id='1011'> +1.8262228e-12 </wgt>
<wgt id='1012'> +1.7378604e-12 </wgt>
<wgt id='1013'> +1.7317892e-12 </wgt>
<wgt id='1014'> +1.8410792e-12 </wgt>
<wgt id='1015'> +1.7231778e-12 </wgt>
<wgt id='1016'> +1.7174734e-12 </wgt>
<wgt id='1017'> +1.6333960e-12 </wgt>
<wgt id='1018'> +1.6276734e-12 </wgt>
<wgt id='1019'> +1.7317892e-12 </wgt>
<wgt id='1020'> +1.6195620e-12 </wgt>
<wgt id='1021'> +1.5014850e-12 </wgt>
<wgt id='1022'> +1.4480981e-12 </wgt>
<wgt id='1023'> +1.4442769e-12 </wgt>
<wgt id='1024'> +1.5099975e-12 </wgt>
<wgt id='1025'> +1.4388223e-12 </wgt>
<wgt id='1026'> +2.0096682e-12 </wgt>
<wgt id='1027'> +1.8754836e-12 </wgt>
<wgt id='1028'> +1.8667497e-12 </wgt>
<wgt id='1029'> +2.0338711e-12 </wgt>
<wgt id='1030'> +1.8544621e-12 </wgt>
<wgt id='1031'> +1.3700639e-12 </wgt>
<wgt id='1032'> +1.3677654e-12 </wgt>
<wgt id='1033'> +1.3668638e-12 </wgt>
<wgt id='1034'> +1.3680796e-12 </wgt>
<wgt id='1035'> +1.3654536e-12 </wgt>
<wgt id='1036'> +1.1977655e-12 </wgt>
<wgt id='1037'> +1.2126015e-12 </wgt>
<wgt id='1038'> +1.2128537e-12 </wgt>
<wgt id='1039'> +1.1928685e-12 </wgt>
<wgt id='1040'> +1.2130719e-12 </wgt>
<wgt id='1041'> +1.6031536e-12 </wgt>
<wgt id='1042'> +1.5704836e-12 </wgt>
<wgt id='1043'> +1.5676318e-12 </wgt>
<wgt id='1044'> +1.6067184e-12 </wgt>
<wgt id='1045'> +1.5634979e-12 </wgt>
<wgt id='1046'> +1.5607000e-12 </wgt>
<wgt id='1047'> +1.5742431e-12 </wgt>
<wgt id='1048'> +1.5737341e-12 </wgt>
<wgt id='1049'> +1.5023039e-12 </wgt>
<wgt id='1050'> +1.5750458e-12 </wgt>
<wgt id='1051'> +1.5415387e-12 </wgt>
<wgt id='1052'> +1.5818085e-12 </wgt>
<wgt id='1053'> +1.5711229e-12 </wgt>
<wgt id='1054'> +1.5690933e-12 </wgt>
<wgt id='1055'> +1.5138779e-12 </wgt>
<wgt id='1056'> +1.5951870e-12 </wgt>
<wgt id='1057'> +1.5561765e-12 </wgt>
<wgt id='1058'> +1.5554096e-12 </wgt>
<wgt id='1059'> +1.5460682e-12 </wgt>
<wgt id='1060'> +1.5793060e-12 </wgt>
<wgt id='1061'> +1.5153830e-12 </wgt>
<wgt id='1062'> +1.5306305e-12 </wgt>
<wgt id='1063'> +1.5555447e-12 </wgt>
<wgt id='1064'> +1.5296439e-12 </wgt>
<wgt id='1065'> +1.5469386e-12 </wgt>
<wgt id='1066'> +1.5320850e-12 </wgt>
<wgt id='1067'> +1.5403545e-12 </wgt>
<wgt id='1068'> +1.5509968e-12 </wgt>
<wgt id='1069'> +1.5601900e-12 </wgt>
<wgt id='1070'> +1.5566897e-12 </wgt>
<wgt id='1071'> +1.5299297e-12 </wgt>
<wgt id='1072'> +1.5420337e-12 </wgt>
<wgt id='1073'> +1.6204769e-12 </wgt>
<wgt id='1074'> +1.5463170e-12 </wgt>
<wgt id='1075'> +1.5597846e-12 </wgt>
<wgt id='1076'> +1.6051922e-12 </wgt>
<wgt id='1077'> +1.5875560e-12 </wgt>
<wgt id='1078'> +1.5507075e-12 </wgt>
<wgt id='1079'> +1.5545245e-12 </wgt>
<wgt id='1080'> +1.6108174e-12 </wgt>
<wgt id='1081'> +1.4916188e-12 </wgt>
<wgt id='1082'> +1.5250001e-12 </wgt>
<wgt id='1083'> +1.4638152e-12 </wgt>
<wgt id='1084'> +1.5733679e-12 </wgt>
<wgt id='1085'> +1.5210032e-12 </wgt>
<wgt id='1086'> +1.6234458e-12 </wgt>
<wgt id='1087'> +1.5581241e-12 </wgt>
<wgt id='1088'> +1.6006299e-12 </wgt>
<wgt id='1089'> +1.5941952e-12 </wgt>
<wgt id='1090'> +1.6179733e-12 </wgt>
<wgt id='1091'> +1.5157324e-12 </wgt>
<wgt id='1092'> +1.5655475e-12 </wgt>
<wgt id='1093'> +1.6117563e-12 </wgt>
<wgt id='1094'> +1.6172622e-12 </wgt>
<wgt id='1095'> +1.5551166e-12 </wgt>
<wgt id='1096'> +1.5072689e-12 </wgt>
<wgt id='1097'> +1.5590916e-12 </wgt>
<wgt id='1098'> +1.5373416e-12 </wgt>
<wgt id='1099'> +1.5961623e-12 </wgt>
<wgt id='1100'> +1.5583360e-12 </wgt>
<wgt id='1101'> +1.5865186e-12 </wgt>
<wgt id='1102'> +1.5349494e-12 </wgt>
<wgt id='1103'> +1.4944974e-12 </wgt>
<wgt id='1104'> +1.5406631e-12 </wgt>
<wgt id='1105'> +1.5390749e-12 </wgt>
<wgt id='1106'> +1.5086900e-12 </wgt>
<wgt id='1107'> +1.6121415e-12 </wgt>
<wgt id='1108'> +1.5363425e-12 </wgt>
<wgt id='1109'> +1.5803506e-12 </wgt>
<wgt id='1110'> +1.5986421e-12 </wgt>
<wgt id='1111'> +1.5311220e-12 </wgt>
<wgt id='1112'> +1.5836094e-12 </wgt>
<wgt id='1113'> +1.5648699e-12 </wgt>
<wgt id='1114'> +1.5707271e-12 </wgt>
<wgt id='1115'> +1.6064654e-12 </wgt>
<wgt id='1116'> +1.6360033e-12 </wgt>
<wgt id='1117'> +1.5354524e-12 </wgt>
<wgt id='1118'> +1.5221592e-12 </wgt>
<wgt id='1119'> +1.5185350e-12 </wgt>
<wgt id='1120'> +1.5684041e-12 </wgt>
<wgt id='1121'> +1.5525716e-12 </wgt>
<wgt id='1122'> +1.5822082e-12 </wgt>
<wgt id='1123'> +1.6234448e-12 </wgt>
<wgt id='1124'> +1.5052112e-12 </wgt>
<wgt id='1125'> +1.4908991e-12 </wgt>
<wgt id='1126'> +1.6117981e-12 </wgt>
<wgt id='1127'> +1.5852663e-12 </wgt>
<wgt id='1128'> +1.5306305e-12 </wgt>
<wgt id='1129'> +1.6069177e-12 </wgt>
<wgt id='1130'> +1.5436397e-12 </wgt>
<wgt id='1131'> +1.5461806e-12 </wgt>
<wgt id='1132'> +1.6238296e-12 </wgt>
<wgt id='1133'> +1.5303044e-12 </wgt>
<wgt id='1134'> +1.6452271e-12 </wgt>
<wgt id='1135'> +1.6076034e-12 </wgt>
<wgt id='1136'> +1.5624798e-12 </wgt>
<wgt id='1137'> +1.5519451e-12 </wgt>
<wgt id='1138'> +1.5383894e-12 </wgt>
<wgt id='1139'> +1.5498759e-12 </wgt>
<wgt id='1140'> +1.6006247e-12 </wgt>
<wgt id='1141'> +1.5517359e-12 </wgt>
<wgt id='1142'> +1.5730111e-12 </wgt>
<wgt id='1143'> +1.5711963e-12 </wgt>
<wgt id='1144'> +1.5916416e-12 </wgt>
<wgt id='1145'> +1.5414133e-12 </wgt>
<wgt id='1146'> +1.5279593e-12 </wgt>
<wgt id='1147'> +1.2596141e-12 </wgt>
<wgt id='1148'> +1.2837591e-12 </wgt>
<wgt id='1149'> +1.4087458e-12 </wgt>
<wgt id='1150'> +1.3219310e-12 </wgt>
<wgt id='1151'> +1.2615931e-12 </wgt>
<wgt id='1152'> +1.7283725e-12 </wgt>
<wgt id='1153'> +1.7207158e-12 </wgt>
<wgt id='1154'> +1.7328190e-12 </wgt>
<wgt id='1155'> +1.7285676e-12 </wgt>
<wgt id='1156'> +1.7282925e-12 </wgt>
<wgt id='1157'> +1.7287001e-12 </wgt>
<wgt id='1158'> +1.7279014e-12 </wgt>
<wgt id='1159'> +1.7286560e-12 </wgt>
<wgt id='1160'> +1.7281643e-12 </wgt>
<wgt id='1161'> +1.7231367e-12 </wgt>
<wgt id='1162'> +1.7320112e-12 </wgt>
<wgt id='1163'> +1.7340941e-12 </wgt>
<wgt id='1164'> +1.7226992e-12 </wgt>
<wgt id='1165'> +1.7173919e-12 </wgt>
<wgt id='1166'> +1.7391730e-12 </wgt>
<wgt id='1167'> +1.7308718e-12 </wgt>
<wgt id='1168'> +1.7244889e-12 </wgt>
<wgt id='1169'> +1.7276339e-12 </wgt>
<wgt id='1170'> +1.7291286e-12 </wgt>
<wgt id='1171'> +1.7324930e-12 </wgt>
<wgt id='1172'> +1.7231611e-12 </wgt>
<wgt id='1173'> +1.7381625e-12 </wgt>
<wgt id='1174'> +1.7173308e-12 </wgt>
<wgt id='1175'> +1.7254663e-12 </wgt>
<wgt id='1176'> +1.7301930e-12 </wgt>
<wgt id='1177'> +1.7290898e-12 </wgt>
<wgt id='1178'> +1.7274049e-12 </wgt>
<wgt id='1179'> +1.7364461e-12 </wgt>
<wgt id='1180'> +1.7175848e-12 </wgt>
<wgt id='1181'> +1.7245801e-12 </wgt>
<wgt id='1182'> +1.7329959e-12 </wgt>
<wgt id='1183'> +1.7289478e-12 </wgt>
<wgt id='1184'> +1.7284135e-12 </wgt>
<wgt id='1185'> +1.7287503e-12 </wgt>
<wgt id='1186'> +1.7283657e-12 </wgt>
<wgt id='1187'> +1.7271290e-12 </wgt>
<wgt id='1188'> +1.7288062e-12 </wgt>
<wgt id='1189'> +1.7358808e-12 </wgt>
<wgt id='1190'> +1.6894335e-12 </wgt>
<wgt id='1191'> +1.7156728e-12 </wgt>
<wgt id='1192'> +1.7507934e-12 </wgt>
<wgt id='1193'> +1.3500458e-12 </wgt>
<wgt id='1194'> +1.3308558e-12 </wgt>
<wgt id='1195'> +1.3656623e-12 </wgt>
<wgt id='1196'> +1.3516832e-12 </wgt>
<wgt id='1197'> +1.3481119e-12 </wgt>
<wgt id='1198'> +1.3508594e-12 </wgt>
<wgt id='1199'> +1.3487600e-12 </wgt>
<wgt id='1200'> +1.3512978e-12 </wgt>
<wgt id='1201'> +1.3491665e-12 </wgt>
<wgt id='1202'> +1.3472014e-12 </wgt>
<wgt id='1203'> +1.3538513e-12 </wgt>
<wgt id='1204'> +1.3337761e-12 </wgt>
<wgt id='1205'> +1.3599577e-12 </wgt>
<wgt id='1206'> +1.3535787e-12 </wgt>
<wgt id='1207'> +1.3452133e-12 </wgt>
<wgt id='1208'> +1.3455138e-12 </wgt>
<wgt id='1209'> +1.3517658e-12 </wgt>
<wgt id='1210'> +1.3423657e-12 </wgt>
<wgt id='1211'> +1.3604865e-12 </wgt>
<wgt id='1212'> +1.3503350e-12 </wgt>
<wgt id='1213'> +1.3503155e-12 </wgt>
<wgt id='1214'> +1.3592731e-12 </wgt>
<wgt id='1215'> +1.3264600e-12 </wgt>
<wgt id='1216'> +1.3405653e-12 </wgt>
<wgt id='1217'> +1.3547398e-12 </wgt>
<wgt id='1218'> +1.3480550e-12 </wgt>
<wgt id='1219'> +1.3504986e-12 </wgt>
<wgt id='1220'> +1.3544311e-12 </wgt>
<wgt id='1221'> +1.3530201e-12 </wgt>
<wgt id='1222'> +1.3549002e-12 </wgt>
<wgt id='1223'> +1.3472449e-12 </wgt>
<wgt id='1224'> +1.3490668e-12 </wgt>
<wgt id='1225'> +1.3503059e-12 </wgt>
<wgt id='1226'> +1.3478080e-12 </wgt>
<wgt id='1227'> +1.3517009e-12 </wgt>
<wgt id='1228'> +1.3541227e-12 </wgt>
<wgt id='1229'> +1.3470037e-12 </wgt>
<wgt id='1230'> +1.3747844e-12 </wgt>
<wgt id='1231'> +1.3468998e-12 </wgt>
<wgt id='1232'> +1.3526989e-12 </wgt>
<wgt id='1233'> +1.3493427e-12 </wgt>
<wgt id='1234'> +1.3500458e-12 </wgt>
<wgt id='1235'> +1.3439913e-12 </wgt>
<wgt id='1236'> +1.3462128e-12 </wgt>
<wgt id='1237'> +1.3481314e-12 </wgt>
<wgt id='1238'> +1.3516107e-12 </wgt>
<wgt id='1239'> +1.3527956e-12 </wgt>
<wgt id='1240'> +1.3540352e-12 </wgt>
<wgt id='1241'> +1.3646953e-12 </wgt>
<wgt id='1242'> +1.3481899e-12 </wgt>
<wgt id='1243'> +1.3809993e-12 </wgt>
<wgt id='1244'> +1.3629086e-12 </wgt>
<wgt id='1245'> +1.3658668e-12 </wgt>
<wgt id='1246'> +1.3647686e-12 </wgt>
<wgt id='1247'> +1.3646480e-12 </wgt>
<wgt id='1248'> +1.3646115e-12 </wgt>
<wgt id='1249'> +1.3647589e-12 </wgt>
<wgt id='1250'> +1.3641988e-12 </wgt>
<wgt id='1251'> +1.3650203e-12 </wgt>
<wgt id='1252'> +1.3635918e-12 </wgt>
<wgt id='1253'> +1.3655203e-12 </wgt>
<wgt id='1254'> +1.3531067e-12 </wgt>
<wgt id='1255'> +1.3716300e-12 </wgt>
<wgt id='1256'> +1.3673218e-12 </wgt>
<wgt id='1257'> +1.3580643e-12 </wgt>
<wgt id='1258'> +1.3413055e-12 </wgt>
<wgt id='1259'> +1.3814026e-12 </wgt>
<wgt id='1260'> +1.3615209e-12 </wgt>
<wgt id='1261'> +1.3691368e-12 </wgt>
<wgt id='1262'> +1.3591763e-12 </wgt>
<wgt id='1263'> +1.3669111e-12 </wgt>
<wgt id='1264'> +1.3645300e-12 </wgt>
<wgt id='1265'> +1.3652087e-12 </wgt>
<wgt id='1266'> +1.3691653e-12 </wgt>
<wgt id='1267'> +1.3626462e-12 </wgt>
<wgt id='1268'> +1.3664064e-12 </wgt>
<wgt id='1269'> +1.3670496e-12 </wgt>
<wgt id='1270'> +1.3861614e-12 </wgt>
<wgt id='1271'> +1.3668216e-12 </wgt>
<wgt id='1272'> +1.3705945e-12 </wgt>
<wgt id='1273'> +1.3642688e-12 </wgt>
<wgt id='1274'> +1.3669005e-12 </wgt>
<wgt id='1275'> +1.3618250e-12 </wgt>
<wgt id='1276'> +1.3592178e-12 </wgt>
<wgt id='1277'> +1.3694866e-12 </wgt>
<wgt id='1278'> +1.3670241e-12 </wgt>
<wgt id='1279'> +1.3824295e-12 </wgt>
<wgt id='1280'> +1.3635323e-12 </wgt>
<wgt id='1281'> +1.3768519e-12 </wgt>
<wgt id='1282'> +1.3646953e-12 </wgt>
<wgt id='1283'> +1.3587413e-12 </wgt>
<wgt id='1284'> +1.3612488e-12 </wgt>
<wgt id='1285'> +1.3631222e-12 </wgt>
<wgt id='1286'> +1.3662574e-12 </wgt>
<wgt id='1287'> +1.3670932e-12 </wgt>
<wgt id='1288'> +1.3678663e-12 </wgt>
<wgt id='1289'> +1.3779378e-12 </wgt>
<wgt id='1290'> +1.3893728e-12 </wgt>
<wgt id='1291'> +1.3658032e-12 </wgt>
<wgt id='1292'> +1.3761219e-12 </wgt>
<wgt id='1293'> +1.3793298e-12 </wgt>
<wgt id='1294'> +1.3671197e-12 </wgt>
<wgt id='1295'> +1.3882242e-12 </wgt>
<wgt id='1296'> +1.3781388e-12 </wgt>
<wgt id='1297'> +1.3777465e-12 </wgt>
<wgt id='1298'> +1.3881908e-12 </wgt>
<wgt id='1299'> +1.3653876e-12 </wgt>
<wgt id='1300'> +1.3818902e-12 </wgt>
<wgt id='1301'> +1.3700121e-12 </wgt>
<wgt id='1302'> +1.3767015e-12 </wgt>
<wgt id='1303'> +1.3797430e-12 </wgt>
<wgt id='1304'> +1.3768673e-12 </wgt>
<wgt id='1305'> +1.3786762e-12 </wgt>
<wgt id='1306'> +1.3731724e-12 </wgt>
<wgt id='1307'> +1.3835254e-12 </wgt>
<wgt id='1308'> +1.3868757e-12 </wgt>
<wgt id='1309'> +1.3711207e-12 </wgt>
<wgt id='1310'> +1.3769505e-12 </wgt>
<wgt id='1311'> +1.3793459e-12 </wgt>
<wgt id='1312'> +1.3726867e-12 </wgt>
<wgt id='1313'> +1.3841681e-12 </wgt>
<wgt id='1314'> +1.3666827e-12 </wgt>
<wgt id='1315'> +1.3861915e-12 </wgt>
<wgt id='1316'> +1.3848084e-12 </wgt>
<wgt id='1317'> +1.3805790e-12 </wgt>
<wgt id='1318'> +1.3696256e-12 </wgt>
<wgt id='1319'> +1.3854149e-12 </wgt>
<wgt id='1320'> +1.3635288e-12 </wgt>
<wgt id='1321'> +1.3856814e-12 </wgt>
<wgt id='1322'> +1.3784524e-12 </wgt>
<wgt id='1323'> +1.3771713e-12 </wgt>
<wgt id='1324'> +1.3807465e-12 </wgt>
<wgt id='1325'> +1.3781916e-12 </wgt>
<wgt id='1326'> +1.3778385e-12 </wgt>
<wgt id='1327'> +1.3813383e-12 </wgt>
<wgt id='1328'> +1.3751167e-12 </wgt>
<wgt id='1329'> +1.3804482e-12 </wgt>
<wgt id='1330'> +1.3493772e-12 </wgt>
<wgt id='1331'> +1.3968812e-12 </wgt>
<wgt id='1332'> +1.4049422e-12 </wgt>
<wgt id='1333'> +1.3699908e-12 </wgt>
<wgt id='1334'> +1.3736861e-12 </wgt>
<wgt id='1335'> +1.3886932e-12 </wgt>
<wgt id='1336'> +1.3979662e-12 </wgt>
<wgt id='1337'> +1.3692858e-12 </wgt>
<wgt id='1338'> +1.3830397e-12 </wgt>
<wgt id='1339'> +1.3760989e-12 </wgt>
<wgt id='1340'> +1.3382424e-12 </wgt>
<wgt id='1341'> +1.3493269e-12 </wgt>
<wgt id='1342'> +1.3264037e-12 </wgt>
<wgt id='1343'> +1.3364110e-12 </wgt>
<wgt id='1344'> +1.3395001e-12 </wgt>
<wgt id='1345'> +1.3268777e-12 </wgt>
<wgt id='1346'> +1.3484897e-12 </wgt>
<wgt id='1347'> +1.3386060e-12 </wgt>
<wgt id='1348'> +1.3377557e-12 </wgt>
<wgt id='1349'> +1.3476993e-12 </wgt>
<wgt id='1350'> +1.3291184e-12 </wgt>
<wgt id='1351'> +1.3423580e-12 </wgt>
<wgt id='1352'> +1.3293161e-12 </wgt>
<wgt id='1353'> +1.3365378e-12 </wgt>
<wgt id='1354'> +1.3412909e-12 </wgt>
<wgt id='1355'> +1.3374451e-12 </wgt>
<wgt id='1356'> +1.3386672e-12 </wgt>
<wgt id='1357'> +1.3361403e-12 </wgt>
<wgt id='1358'> +1.3409334e-12 </wgt>
<wgt id='1359'> +1.3484390e-12 </wgt>
<wgt id='1360'> +1.3293856e-12 </wgt>
<wgt id='1361'> +1.3373960e-12 </wgt>
<wgt id='1362'> +1.3396294e-12 </wgt>
<wgt id='1363'> +1.3329340e-12 </wgt>
<wgt id='1364'> +1.3427687e-12 </wgt>
<wgt id='1365'> +1.3496648e-12 </wgt>
<wgt id='1366'> +1.3198074e-12 </wgt>
<wgt id='1367'> +1.3446860e-12 </wgt>
<wgt id='1368'> +1.3394817e-12 </wgt>
<wgt id='1369'> +1.3321696e-12 </wgt>
<wgt id='1370'> +1.3444703e-12 </wgt>
<wgt id='1371'> +1.3288386e-12 </wgt>
<wgt id='1372'> +1.3465777e-12 </wgt>
<wgt id='1373'> +1.3402353e-12 </wgt>
<wgt id='1374'> +1.3356784e-12 </wgt>
<wgt id='1375'> +1.3408717e-12 </wgt>
<wgt id='1376'> +1.3377711e-12 </wgt>
<wgt id='1377'> +1.3390187e-12 </wgt>
<wgt id='1378'> +1.3411794e-12 </wgt>
<wgt id='1379'> +1.3354204e-12 </wgt>
<wgt id='1380'> +1.3412230e-12 </wgt>
<wgt id='1381'> +1.3080632e-12 </wgt>
<wgt id='1382'> +1.3562780e-12 </wgt>
<wgt id='1383'> +1.3653770e-12 </wgt>
<wgt id='1384'> +1.3265687e-12 </wgt>
<wgt id='1385'> +1.3331346e-12 </wgt>
<wgt id='1386'> +1.3498429e-12 </wgt>
<wgt id='1387'> +1.3601520e-12 </wgt>
<wgt id='1388'> +1.3285254e-12 </wgt>
<wgt id='1389'> +1.3462582e-12 </wgt>
<wgt id='1390'> +1.3356083e-12 </wgt>
<wgt id='1391'> +1.3313629e-12 </wgt>
<wgt id='1392'> +1.2768665e-12 </wgt>
<wgt id='1393'> +1.2940989e-12 </wgt>
<wgt id='1394'> +1.3116795e-12 </wgt>
<wgt id='1395'> +1.3476305e-12 </wgt>
<wgt id='1396'> +1.3301103e-12 </wgt>
<wgt id='1397'> +1.3024087e-12 </wgt>
<wgt id='1398'> +1.3078864e-12 </wgt>
<wgt id='1399'> +1.3136620e-12 </wgt>
<wgt id='1400'> +1.3190639e-12 </wgt>
<wgt id='1401'> +1.3245947e-12 </wgt>
<wgt id='1402'> +1.3340367e-12 </wgt>
<wgt id='1403'> +1.3387832e-12 </wgt>
<wgt id='1404'> +1.3425182e-12 </wgt>
<wgt id='1405'> +1.3301103e-12 </wgt>
<wgt id='1406'> +1.3268182e-12 </wgt>
<wgt id='1407'> +1.3286096e-12 </wgt>
<wgt id='1408'> +1.3317001e-12 </wgt>
<wgt id='1409'> +1.3322489e-12 </wgt>
<wgt id='1410'> +1.3224875e-12 </wgt>
<wgt id='1411'> +1.3340089e-12 </wgt>
<wgt id='1412'> +1.3077955e-12 </wgt>
<wgt id='1413'> +1.3193937e-12 </wgt>
<wgt id='1414'> +1.3255156e-12 </wgt>
<wgt id='1415'> +1.3169281e-12 </wgt>
<wgt id='1416'> +1.3247932e-12 </wgt>
<wgt id='1417'> +1.3158750e-12 </wgt>
<wgt id='1418'> +1.3291094e-12 </wgt>
<wgt id='1419'> +1.3254728e-12 </wgt>
<wgt id='1420'> +1.3196580e-12 </wgt>
<wgt id='1421'> +1.3073325e-12 </wgt>
<wgt id='1422'> +1.3290446e-12 </wgt>
<wgt id='1423'> +1.3219306e-12 </wgt>
<wgt id='1424'> +1.3231978e-12 </wgt>
<wgt id='1425'> +1.3184304e-12 </wgt>
<wgt id='1426'> +1.3269638e-12 </wgt>
<wgt id='1427'> +1.3151134e-12 </wgt>
<wgt id='1428'> +1.3264800e-12 </wgt>
<wgt id='1429'> +1.3157924e-12 </wgt>
<wgt id='1430'> +1.3318622e-12 </wgt>
<wgt id='1431'> +1.3294159e-12 </wgt>
<wgt id='1432'> +1.3176400e-12 </wgt>
<wgt id='1433'> +1.3167163e-12 </wgt>
<wgt id='1434'> +1.3250808e-12 </wgt>
<wgt id='1435'> +1.3230901e-12 </wgt>
<wgt id='1436'> +1.3221270e-12 </wgt>
<wgt id='1437'> +1.3289246e-12 </wgt>
<wgt id='1438'> +1.3265572e-12 </wgt>
<wgt id='1439'> +1.3254864e-12 </wgt>
<wgt id='1440'> +1.3074442e-12 </wgt>
<wgt id='1441'> +1.3201420e-12 </wgt>
<wgt id='1442'> +1.3281898e-12 </wgt>
<wgt id='1443'> +1.3246942e-12 </wgt>
<wgt id='1444'> +1.3217356e-12 </wgt>
<wgt id='1445'> +1.3225247e-12 </wgt>
<wgt id='1446'> +1.3252620e-12 </wgt>
<wgt id='1447'> +1.3236596e-12 </wgt>
<wgt id='1448'> +1.3264009e-12 </wgt>
<wgt id='1449'> +1.3187638e-12 </wgt>
<wgt id='1450'> +1.3249373e-12 </wgt>
<wgt id='1451'> +1.3326030e-12 </wgt>
<wgt id='1452'> +1.3046333e-12 </wgt>
<wgt id='1453'> +1.3245008e-12 </wgt>
<wgt id='1454'> +1.3101901e-12 </wgt>
<wgt id='1455'> +1.3104701e-12 </wgt>
<wgt id='1456'> +1.3510805e-12 </wgt>
<wgt id='1457'> +1.3397849e-12 </wgt>
<wgt id='1458'> +1.3176507e-12 </wgt>
<wgt id='1459'> +1.3276498e-12 </wgt>
<wgt id='1460'> +1.3376385e-12 </wgt>
<wgt id='1461'> +1.3224875e-12 </wgt>
<wgt id='1462'> +1.3054425e-12 </wgt>
<wgt id='1463'> +1.3383178e-12 </wgt>
<wgt id='1464'> +1.3215077e-12 </wgt>
<wgt id='1465'> +1.2958604e-12 </wgt>
<wgt id='1466'> +1.3009792e-12 </wgt>
<wgt id='1467'> +1.3063509e-12 </wgt>
<wgt id='1468'> +1.3131388e-12 </wgt>
<wgt id='1469'> +1.3170416e-12 </wgt>
<wgt id='1470'> +1.3255114e-12 </wgt>
<wgt id='1471'> +1.3289490e-12 </wgt>
<wgt id='1472'> +1.3327919e-12 </wgt>
<wgt id='1473'> +1.3215077e-12 </wgt>
<wgt id='1474'> +1.3175607e-12 </wgt>
<wgt id='1475'> +1.3196283e-12 </wgt>
<wgt id='1476'> +1.3230438e-12 </wgt>
<wgt id='1477'> +1.3248189e-12 </wgt>
<wgt id='1478'> +1.3149154e-12 </wgt>
<wgt id='1479'> +1.3142097e-12 </wgt>
<wgt id='1480'> +1.3222753e-12 </wgt>
<wgt id='1481'> +1.3301571e-12 </wgt>
<wgt id='1482'> +1.3163539e-12 </wgt>
<wgt id='1483'> +1.2885081e-12 </wgt>
<wgt id='1484'> +1.3220610e-12 </wgt>
<wgt id='1485'> +1.3200634e-12 </wgt>
<wgt id='1486'> +1.3157291e-12 </wgt>
<wgt id='1487'> +1.3261678e-12 </wgt>
<wgt id='1488'> +1.3099392e-12 </wgt>
<wgt id='1489'> +1.3039986e-12 </wgt>
<wgt id='1490'> +1.3150564e-12 </wgt>
<wgt id='1491'> +1.3037468e-12 </wgt>
<wgt id='1492'> +1.3142498e-12 </wgt>
<wgt id='1493'> +1.3090222e-12 </wgt>
<wgt id='1494'> +1.3378904e-12 </wgt>
<wgt id='1495'> +1.3191059e-12 </wgt>
<wgt id='1496'> +1.3118036e-12 </wgt>
<wgt id='1497'> +1.3167055e-12 </wgt>
<wgt id='1498'> +1.3122147e-12 </wgt>
<wgt id='1499'> +1.3180789e-12 </wgt>
<wgt id='1500'> +1.3150855e-12 </wgt>
<wgt id='1501'> +1.3128357e-12 </wgt>
<wgt id='1502'> +1.3143979e-12 </wgt>
<wgt id='1503'> +1.3196685e-12 </wgt>
<wgt id='1504'> +1.3154625e-12 </wgt>
<wgt id='1505'> +1.3127672e-12 </wgt>
<wgt id='1506'> +1.3133389e-12 </wgt>
<wgt id='1507'> +1.3132999e-12 </wgt>
<wgt id='1508'> +1.3293328e-12 </wgt>
<wgt id='1509'> +1.3204422e-12 </wgt>
<wgt id='1510'> +1.3229009e-12 </wgt>
<wgt id='1511'> +1.3060493e-12 </wgt>
<wgt id='1512'> +1.3109635e-12 </wgt>
<wgt id='1513'> +1.3364228e-12 </wgt>
<wgt id='1514'> +1.3215915e-12 </wgt>
<wgt id='1515'> +1.3146094e-12 </wgt>
<wgt id='1516'> +1.3248906e-12 </wgt>
<wgt id='1517'> +1.3195953e-12 </wgt>
<wgt id='1518'> +1.3271706e-12 </wgt>
<wgt id='1519'> +1.3188613e-12 </wgt>
<wgt id='1520'> +1.3159268e-12 </wgt>
<wgt id='1521'> +1.3226382e-12 </wgt>
<wgt id='1522'> +1.3136834e-12 </wgt>
<wgt id='1523'> +1.3155346e-12 </wgt>
<wgt id='1524'> +1.3150989e-12 </wgt>
<wgt id='1525'> +1.3206390e-12 </wgt>
<wgt id='1526'> +1.3156629e-12 </wgt>
<wgt id='1527'> +1.3160590e-12 </wgt>
<wgt id='1528'> +1.3277563e-12 </wgt>
<wgt id='1529'> +1.3181039e-12 </wgt>
<wgt id='1530'> +1.3298634e-12 </wgt>
<wgt id='1531'> +1.3149628e-12 </wgt>
<wgt id='1532'> +1.3228629e-12 </wgt>
<wgt id='1533'> +1.3165205e-12 </wgt>
<wgt id='1534'> +1.3165610e-12 </wgt>
<wgt id='1535'> +1.3193516e-12 </wgt>
<wgt id='1536'> +1.3176353e-12 </wgt>
<wgt id='1537'> +1.3191200e-12 </wgt>
<wgt id='1538'> +1.3321732e-12 </wgt>
<wgt id='1539'> +1.3185188e-12 </wgt>
<wgt id='1540'> +1.3204165e-12 </wgt>
<wgt id='1541'> +1.3211936e-12 </wgt>
<wgt id='1542'> +1.3219014e-12 </wgt>
<wgt id='1543'> +1.3247366e-12 </wgt>
<wgt id='1544'> +1.3187600e-12 </wgt>
<wgt id='1545'> +1.3182525e-12 </wgt>
<wgt id='1546'> +1.3257566e-12 </wgt>
<wgt id='1547'> +1.3187004e-12 </wgt>
<wgt id='1548'> +1.3175909e-12 </wgt>
<wgt id='1549'> +1.3185971e-12 </wgt>
<wgt id='1550'> +1.3163576e-12 </wgt>
<wgt id='1551'> +1.3193059e-12 </wgt>
<wgt id='1552'> +1.3209323e-12 </wgt>
<wgt id='1553'> +1.3233752e-12 </wgt>
<wgt id='1554'> +1.3184913e-12 </wgt>
<wgt id='1555'> +1.3235915e-12 </wgt>
<wgt id='1556'> +1.3226355e-12 </wgt>
<wgt id='1557'> +1.3199311e-12 </wgt>
<wgt id='1558'> +1.3204217e-12 </wgt>
<wgt id='1559'> +1.3229398e-12 </wgt>
<wgt id='1560'> +1.3215206e-12 </wgt>
<wgt id='1561'> +1.3185192e-12 </wgt>
<wgt id='1562'> +1.3202421e-12 </wgt>
<wgt id='1563'> +1.3210979e-12 </wgt>
<wgt id='1564'> +1.3215606e-12 </wgt>
<wgt id='1565'> +1.3202301e-12 </wgt>
<wgt id='1566'> +1.3202507e-12 </wgt>
<wgt id='1567'> +1.3209383e-12 </wgt>
<wgt id='1568'> +1.3197034e-12 </wgt>
<wgt id='1569'> +1.3212801e-12 </wgt>
<wgt id='1570'> +1.3203930e-12 </wgt>
<wgt id='1571'> +1.3215501e-12 </wgt>
<wgt id='1572'> +1.3193662e-12 </wgt>
<wgt id='1573'> +1.3203643e-12 </wgt>
<wgt id='1574'> +1.3202718e-12 </wgt>
<wgt id='1575'> +1.3199390e-12 </wgt>
<wgt id='1576'> +1.3211378e-12 </wgt>
<wgt id='1577'> +1.3211378e-12 </wgt>
<wgt id='1578'> +1.3203665e-12 </wgt>
<wgt id='1579'> +1.3201790e-12 </wgt>
<wgt id='1580'> +1.3193849e-12 </wgt>
<wgt id='1581'> +1.3205759e-12 </wgt>
<wgt id='1582'> +1.3206081e-12 </wgt>
<wgt id='1583'> +1.3193735e-12 </wgt>
<wgt id='1584'> +1.3208595e-12 </wgt>
<wgt id='1585'> +1.3203731e-12 </wgt>
<wgt id='1586'> +1.3202371e-12 </wgt>
<wgt id='1587'> +1.3207614e-12 </wgt>
<wgt id='1588'> +1.3211900e-12 </wgt>
<wgt id='1589'> +1.3198369e-12 </wgt>
<wgt id='1590'> +1.3206081e-12 </wgt>
<wgt id='1591'> +1.3207701e-12 </wgt>
<wgt id='1592'> +1.3198962e-12 </wgt>
<wgt id='1593'> +1.3201590e-12 </wgt>
<wgt id='1594'> +1.3199109e-12 </wgt>
<wgt id='1595'> +1.3205791e-12 </wgt>
<wgt id='1596'> +1.3205418e-12 </wgt>
<wgt id='1597'> +1.3203316e-12 </wgt>
<wgt id='1598'> +1.3210086e-12 </wgt>
<wgt id='1599'> +1.3207195e-12 </wgt>
<wgt id='1600'> +1.3198340e-12 </wgt>
<wgt id='1601'> +1.3203804e-12 </wgt>
<wgt id='1602'> +1.3204633e-12 </wgt>
<wgt id='1603'> +1.3200974e-12 </wgt>
<wgt id='1604'> +1.3201067e-12 </wgt>
<wgt id='1605'> +1.3205692e-12 </wgt>
<wgt id='1606'> +1.3209079e-12 </wgt>
<wgt id='1607'> +1.3202628e-12 </wgt>
<wgt id='1608'> +1.3208750e-12 </wgt>
<wgt id='1609'> +1.3203167e-12 </wgt>
<wgt id='1610'> +1.2889458e-12 </wgt>
<wgt id='1611'> +1.3607703e-12 </wgt>
<wgt id='1612'> +1.5291421e-12 </wgt>
<wgt id='1613'> +1.5250353e-12 </wgt>
<wgt id='1614'> +1.6088404e-12 </wgt>
<wgt id='1615'> +1.5218749e-12 </wgt>
<wgt id='1616'> +1.5733624e-12 </wgt>
<wgt id='1617'> +1.5388139e-12 </wgt>
<wgt id='1618'> +1.6127169e-12 </wgt>
<wgt id='1619'> +1.5320721e-12 </wgt>
<wgt id='1620'> +1.4993159e-12 </wgt>
<wgt id='1621'> +1.5229891e-12 </wgt>
<wgt id='1622'> +1.4703345e-12 </wgt>
<wgt id='1623'> +1.5597137e-12 </wgt>
<wgt id='1624'> +1.5801829e-12 </wgt>
<wgt id='1625'> +1.4373005e-12 </wgt>
<wgt id='1626'> +1.4970394e-12 </wgt>
<wgt id='1627'> +1.5475765e-12 </wgt>
<wgt id='1628'> +1.6020750e-12 </wgt>
<wgt id='1629'> +1.4351748e-12 </wgt>
<wgt id='1630'> +1.4662288e-12 </wgt>
<wgt id='1631'> +1.5730493e-12 </wgt>
<wgt id='1632'> +1.5129705e-12 </wgt>
<wgt id='1633'> +1.5404546e-12 </wgt>
<wgt id='1634'> +1.5000928e-12 </wgt>
<wgt id='1635'> +1.5373677e-12 </wgt>
<wgt id='1636'> +1.5848839e-12 </wgt>
<wgt id='1637'> +1.5540084e-12 </wgt>
<wgt id='1638'> +1.5237331e-12 </wgt>
<wgt id='1639'> +1.4827331e-12 </wgt>
<wgt id='1640'> +1.4704418e-12 </wgt>
<wgt id='1641'> +1.5388427e-12 </wgt>
<wgt id='1642'> +1.5322662e-12 </wgt>
<wgt id='1643'> +1.5879177e-12 </wgt>
<wgt id='1644'> +1.4936095e-12 </wgt>
<wgt id='1645'> +1.4883664e-12 </wgt>
<wgt id='1646'> +1.4897630e-12 </wgt>
<wgt id='1647'> +1.5337708e-12 </wgt>
<wgt id='1648'> +1.5186418e-12 </wgt>
<wgt id='1649'> +1.6749517e-12 </wgt>
<wgt id='1650'> +1.5373411e-12 </wgt>
<wgt id='1651'> +1.5496583e-12 </wgt>
<wgt id='1652'> +1.5360539e-12 </wgt>
<wgt id='1653'> +1.6177744e-12 </wgt>
<wgt id='1654'> +1.5520812e-12 </wgt>
<wgt id='1655'> +1.6198396e-12 </wgt>
<wgt id='1656'> +1.4579748e-12 </wgt>
<wgt id='1657'> +1.5590127e-12 </wgt>
<wgt id='1658'> +1.5030466e-12 </wgt>
<wgt id='1659'> +1.5801829e-12 </wgt>
<wgt id='1660'> +1.5519737e-12 </wgt>
<wgt id='1661'> +1.5222634e-12 </wgt>
<wgt id='1662'> +1.5409169e-12 </wgt>
<wgt id='1663'> +1.4695026e-12 </wgt>
<wgt id='1664'> +1.4838974e-12 </wgt>
<wgt id='1665'> +1.4930872e-12 </wgt>
<wgt id='1666'> +1.5829475e-12 </wgt>
<wgt id='1667'> +1.4289387e-12 </wgt>
<wgt id='1668'> +1.5747846e-12 </wgt>
<wgt id='1669'> +1.4708362e-12 </wgt>
<wgt id='1670'> +1.5099958e-12 </wgt>
<wgt id='1671'> +1.4761770e-12 </wgt>
<wgt id='1672'> +1.5060446e-12 </wgt>
<wgt id='1673'> +1.5333296e-12 </wgt>
<wgt id='1674'> +1.4912416e-12 </wgt>
<wgt id='1675'> +1.5121179e-12 </wgt>
<wgt id='1676'> +1.4951372e-12 </wgt>
<wgt id='1677'> +1.5626391e-12 </wgt>
<wgt id='1678'> +1.5305653e-12 </wgt>
<wgt id='1679'> +1.4355604e-12 </wgt>
<wgt id='1680'> +1.5880034e-12 </wgt>
<wgt id='1681'> +1.4546991e-12 </wgt>
<wgt id='1682'> +1.5085581e-12 </wgt>
<wgt id='1683'> +1.4865781e-12 </wgt>
<wgt id='1684'> +1.5706260e-12 </wgt>
<wgt id='1685'> +1.5310749e-12 </wgt>
<wgt id='1686'> +1.5257718e-12 </wgt>
<wgt id='1687'> +1.5444201e-12 </wgt>
<wgt id='1688'> +1.6319031e-12 </wgt>
<wgt id='1689'> +1.5283289e-12 </wgt>
<wgt id='1690'> +1.4379292e-12 </wgt>
<wgt id='1691'> +1.4303961e-12 </wgt>
<wgt id='1692'> +1.5323482e-12 </wgt>
<wgt id='1693'> +1.5445652e-12 </wgt>
<wgt id='1694'> +1.5142046e-12 </wgt>
<wgt id='1695'> +1.5270017e-12 </wgt>
<wgt id='1696'> +1.4780918e-12 </wgt>
<wgt id='1697'> +1.5623228e-12 </wgt>
<wgt id='1698'> +1.5393539e-12 </wgt>
<wgt id='1699'> +1.5423280e-12 </wgt>
<wgt id='1700'> +1.5275740e-12 </wgt>
<wgt id='1701'> +1.5595761e-12 </wgt>
<wgt id='1702'> +1.5162854e-12 </wgt>
<wgt id='1703'> +1.5206192e-12 </wgt>
<wgt id='1704'> +1.5592011e-12 </wgt>
<wgt id='1705'> +1.4651297e-12 </wgt>
<wgt id='1706'> +1.6049475e-12 </wgt>
<wgt id='1707'> +1.5937628e-12 </wgt>
<wgt id='1708'> +1.5642819e-12 </wgt>
<wgt id='1709'> +1.5324683e-12 </wgt>
<wgt id='1710'> +1.5245218e-12 </wgt>
<wgt id='1711'> +1.5674512e-12 </wgt>
<wgt id='1712'> +1.5523037e-12 </wgt>
<wgt id='1713'> +1.3403962e-12 </wgt>
<wgt id='1714'> +1.3465145e-12 </wgt>
<wgt id='1715'> +1.3392973e-12 </wgt>
<wgt id='1716'> +1.3981599e-12 </wgt>
<wgt id='1717'> +1.3077602e-12 </wgt>
<wgt id='1718'> +1.4036338e-12 </wgt>
<wgt id='1719'> +1.3734815e-12 </wgt>
<wgt id='1720'> +1.3044088e-12 </wgt>
<wgt id='1721'> +1.3335142e-12 </wgt>
<wgt id='1722'> +1.3725410e-12 </wgt>
<wgt id='1723'> +1.4029105e-12 </wgt>
<wgt id='1724'> +1.1215955e-12 </wgt>
<wgt id='1725'> +1.3755394e-12 </wgt>
<wgt id='1726'> +1.3171393e-12 </wgt>
<wgt id='1727'> +1.3711718e-12 </wgt>
<wgt id='1728'> +1.3523650e-12 </wgt>
<wgt id='1729'> +1.3234239e-12 </wgt>
<wgt id='1730'> +1.3494971e-12 </wgt>
<wgt id='1731'> +1.3317374e-12 </wgt>
<wgt id='1732'> +1.3503117e-12 </wgt>
<wgt id='1733'> +1.3821117e-12 </wgt>
<wgt id='1734'> +1.3709845e-12 </wgt>
<wgt id='1735'> +1.2964188e-12 </wgt>
<wgt id='1736'> +1.3488336e-12 </wgt>
<wgt id='1737'> +1.4017080e-12 </wgt>
<wgt id='1738'> +1.3168019e-12 </wgt>
<wgt id='1739'> +1.3540232e-12 </wgt>
<wgt id='1740'> +1.3228406e-12 </wgt>
<wgt id='1741'> +1.3738634e-12 </wgt>
<wgt id='1742'> +1.4075562e-12 </wgt>
<wgt id='1743'> +1.3621084e-12 </wgt>
<wgt id='1744'> +1.3679403e-12 </wgt>
<wgt id='1745'> +1.2510636e-12 </wgt>
<wgt id='1746'> +1.3431633e-12 </wgt>
<wgt id='1747'> +1.3755055e-12 </wgt>
<wgt id='1748'> +1.3464963e-12 </wgt>
<wgt id='1749'> +1.3254378e-12 </wgt>
<wgt id='1750'> +1.3536843e-12 </wgt>
<wgt id='1751'> +1.2700832e-12 </wgt>
<wgt id='1752'> +1.3437807e-12 </wgt>
<wgt id='1753'> +1.3285656e-12 </wgt>
<wgt id='1754'> +1.3390643e-12 </wgt>
<wgt id='1755'> +1.3254945e-12 </wgt>
<wgt id='1756'> +1.3125888e-12 </wgt>
<wgt id='1757'> +1.3712753e-12 </wgt>
<wgt id='1758'> +1.4074884e-12 </wgt>
<wgt id='1759'> +1.3700515e-12 </wgt>
<wgt id='1760'> +1.3305320e-12 </wgt>
<wgt id='1761'> +1.3547106e-12 </wgt>
<wgt id='1762'> +1.3941133e-12 </wgt>
<wgt id='1763'> +1.3489838e-12 </wgt>
<wgt id='1764'> +1.3591191e-12 </wgt>
<wgt id='1765'> +1.3303890e-12 </wgt>
<wgt id='1766'> +1.4050829e-12 </wgt>
<wgt id='1767'> +1.2951989e-12 </wgt>
<wgt id='1768'> +1.3210611e-12 </wgt>
<wgt id='1769'> +1.3645926e-12 </wgt>
<wgt id='1770'> +1.3221151e-12 </wgt>
<wgt id='1771'> +1.3583811e-12 </wgt>
<wgt id='1772'> +1.4200617e-12 </wgt>
<wgt id='1773'> +1.3375473e-12 </wgt>
<wgt id='1774'> +1.3332914e-12 </wgt>
<wgt id='1775'> +1.3781327e-12 </wgt>
<wgt id='1776'> +1.3305153e-12 </wgt>
<wgt id='1777'> +1.3325503e-12 </wgt>
<wgt id='1778'> +1.2906563e-12 </wgt>
<wgt id='1779'> +1.3369063e-12 </wgt>
<wgt id='1780'> +1.3230561e-12 </wgt>
<wgt id='1781'> +1.3555903e-12 </wgt>
<wgt id='1782'> +1.2867448e-12 </wgt>
<wgt id='1783'> +1.3157486e-12 </wgt>
<wgt id='1784'> +1.2972904e-12 </wgt>
<wgt id='1785'> +1.3162691e-12 </wgt>
<wgt id='1786'> +1.2883348e-12 </wgt>
<wgt id='1787'> +1.4122831e-12 </wgt>
<wgt id='1788'> +1.3215696e-12 </wgt>
<wgt id='1789'> +1.2473211e-12 </wgt>
<wgt id='1790'> +1.2897953e-12 </wgt>
<wgt id='1791'> +1.2930797e-12 </wgt>
<wgt id='1792'> +1.2943923e-12 </wgt>
<wgt id='1793'> +1.3215118e-12 </wgt>
<wgt id='1794'> +1.3342072e-12 </wgt>
<wgt id='1795'> +1.3610699e-12 </wgt>
<wgt id='1796'> +1.3683608e-12 </wgt>
<wgt id='1797'> +1.3516677e-12 </wgt>
<wgt id='1798'> +1.3601520e-12 </wgt>
<wgt id='1799'> +1.3319994e-12 </wgt>
<wgt id='1800'> +1.3592005e-12 </wgt>
<wgt id='1801'> +1.3205289e-12 </wgt>
<wgt id='1802'> +1.3246545e-12 </wgt>
<wgt id='1803'> +1.3599300e-12 </wgt>
<wgt id='1804'> +1.3455842e-12 </wgt>
<wgt id='1805'> +1.2958875e-12 </wgt>
<wgt id='1806'> +1.3445716e-12 </wgt>
<wgt id='1807'> +1.3392115e-12 </wgt>
<wgt id='1808'> +1.3842215e-12 </wgt>
<wgt id='1809'> +1.3007137e-12 </wgt>
<wgt id='1810'> +1.3762048e-12 </wgt>
<wgt id='1811'> +1.3419399e-12 </wgt>
<wgt id='1812'> +1.3412526e-12 </wgt>
<wgt id='1813'> +1.3506927e-12 </wgt>
<wgt id='1814'> +1.3279151e-12 </wgt>
<wgt id='1815'> +1.4630300e-12 </wgt>
<wgt id='1816'> +1.3403962e-12 </wgt>
<wgt id='1817'> +1.3465145e-12 </wgt>
<wgt id='1818'> +1.3392973e-12 </wgt>
<wgt id='1819'> +1.3981599e-12 </wgt>
<wgt id='1820'> +1.3077602e-12 </wgt>
<wgt id='1821'> +1.4036338e-12 </wgt>
<wgt id='1822'> +1.3734815e-12 </wgt>
<wgt id='1823'> +1.3044088e-12 </wgt>
<wgt id='1824'> +1.3335142e-12 </wgt>
<wgt id='1825'> +1.3725410e-12 </wgt>
<wgt id='1826'> +1.4029105e-12 </wgt>
<wgt id='1827'> +1.1215955e-12 </wgt>
<wgt id='1828'> +1.3755394e-12 </wgt>
<wgt id='1829'> +1.3171393e-12 </wgt>
<wgt id='1830'> +1.3711718e-12 </wgt>
<wgt id='1831'> +1.3523650e-12 </wgt>
<wgt id='1832'> +1.3234239e-12 </wgt>
<wgt id='1833'> +1.3494971e-12 </wgt>
<wgt id='1834'> +1.3317374e-12 </wgt>
<wgt id='1835'> +1.3503117e-12 </wgt>
<wgt id='1836'> +1.3821117e-12 </wgt>
<wgt id='1837'> +1.3709845e-12 </wgt>
<wgt id='1838'> +1.2964188e-12 </wgt>
<wgt id='1839'> +1.3488336e-12 </wgt>
<wgt id='1840'> +1.4017080e-12 </wgt>
<wgt id='1841'> +1.3168019e-12 </wgt>
<wgt id='1842'> +1.3540232e-12 </wgt>
<wgt id='1843'> +1.3228406e-12 </wgt>
<wgt id='1844'> +1.3738634e-12 </wgt>
<wgt id='1845'> +1.4075562e-12 </wgt>
<wgt id='1846'> +1.3621084e-12 </wgt>
<wgt id='1847'> +1.3679403e-12 </wgt>
<wgt id='1848'> +1.2510636e-12 </wgt>
<wgt id='1849'> +1.3431633e-12 </wgt>
<wgt id='1850'> +1.3755055e-12 </wgt>
<wgt id='1851'> +1.3464963e-12 </wgt>
<wgt id='1852'> +1.3254378e-12 </wgt>
<wgt id='1853'> +1.3536843e-12 </wgt>
<wgt id='1854'> +1.2700832e-12 </wgt>
<wgt id='1855'> +1.3437807e-12 </wgt>
<wgt id='1856'> +1.3285656e-12 </wgt>
<wgt id='1857'> +1.3390643e-12 </wgt>
<wgt id='1858'> +1.3254945e-12 </wgt>
<wgt id='1859'> +1.3125888e-12 </wgt>
<wgt id='1860'> +1.3712753e-12 </wgt>
<wgt id='1861'> +1.4074884e-12 </wgt>
<wgt id='1862'> +1.3700515e-12 </wgt>
<wgt id='1863'> +1.3305320e-12 </wgt>
<wgt id='1864'> +1.3547106e-12 </wgt>
<wgt id='1865'> +1.3941133e-12 </wgt>
<wgt id='1866'> +1.3489838e-12 </wgt>
<wgt id='1867'> +1.3591191e-12 </wgt>
<wgt id='1868'> +1.3303890e-12 </wgt>
<wgt id='1869'> +1.4050829e-12 </wgt>
<wgt id='1870'> +1.2951989e-12 </wgt>
<wgt id='1871'> +1.3210611e-12 </wgt>
<wgt id='1872'> +1.3645926e-12 </wgt>
<wgt id='1873'> +1.3221151e-12 </wgt>
<wgt id='1874'> +1.3583811e-12 </wgt>
<wgt id='1875'> +1.4200617e-12 </wgt>
<wgt id='1876'> +1.3375473e-12 </wgt>
<wgt id='1877'> +1.3332914e-12 </wgt>
<wgt id='1878'> +1.3781327e-12 </wgt>
<wgt id='1879'> +1.3305153e-12 </wgt>
<wgt id='1880'> +1.3325503e-12 </wgt>
<wgt id='1881'> +1.2906563e-12 </wgt>
<wgt id='1882'> +1.3369063e-12 </wgt>
<wgt id='1883'> +1.3230561e-12 </wgt>
<wgt id='1884'> +1.3555903e-12 </wgt>
<wgt id='1885'> +1.2867448e-12 </wgt>
<wgt id='1886'> +1.3157486e-12 </wgt>
<wgt id='1887'> +1.2972904e-12 </wgt>
<wgt id='1888'> +1.3162691e-12 </wgt>
<wgt id='1889'> +1.2883348e-12 </wgt>
<wgt id='1890'> +1.4122831e-12 </wgt>
<wgt id='1891'> +1.3215696e-12 </wgt>
<wgt id='1892'> +1.2473211e-12 </wgt>
<wgt id='1893'> +1.2897953e-12 </wgt>
<wgt id='1894'> +1.2930797e-12 </wgt>
<wgt id='1895'> +1.2943923e-12 </wgt>
<wgt id='1896'> +1.3215118e-12 </wgt>
<wgt id='1897'> +1.3342072e-12 </wgt>
<wgt id='1898'> +1.3610699e-12 </wgt>
<wgt id='1899'> +1.3683608e-12 </wgt>
<wgt id='1900'> +1.3516677e-12 </wgt>
<wgt id='1901'> +1.3601520e-12 </wgt>
<wgt id='1902'> +1.3319994e-12 </wgt>
<wgt id='1903'> +1.3592005e-12 </wgt>
<wgt id='1904'> +1.3205289e-12 </wgt>
<wgt id='1905'> +1.3246545e-12 </wgt>
<wgt id='1906'> +1.3599300e-12 </wgt>
<wgt id='1907'> +1.3455842e-12 </wgt>
<wgt id='1908'> +1.2958875e-12 </wgt>
<wgt id='1909'> +1.3445716e-12 </wgt>
<wgt id='1910'> +1.3392115e-12 </wgt>
<wgt id='1911'> +1.3842215e-12 </wgt>
<wgt id='1912'> +1.3007137e-12 </wgt>
<wgt id='1913'> +1.3762048e-12 </wgt>
<wgt id='1914'> +1.3419399e-12 </wgt>
<wgt id='1915'> +1.3412526e-12 </wgt>
<wgt id='1916'> +1.3506927e-12 </wgt>
<wgt id='1917'> +1.3258650e-12 </wgt>
<wgt id='1918'> +1.3586724e-12 </wgt>
<wgt id='1919'> +1.3276615e-12 </wgt>
</rwgt>
</event>
<event>
 9      1 +1.5607000e-12 3.66996600e+01 7.81860800e-03 1.39167100e-01
        2 -1    0    0  502    0 -0.0000000000e+00 +0.0000000000e+00 +3.8707617027e+00 3.8707617027e+00 0.0000000000e+00 0.0000e+00 1.0000e+00
       21 -1    0    0  501  502 +0.0000000000e+00 -0.0000000000e+00 -3.4101330560e+02 3.4101330560e+02 0.0000000000e+00 0.0000e+00 1.0000e+00
     1023  2    1    2    0    0 -1.6853298612e+01 -2.8945926520e+01 -1.3123036476e+02 1.3626545391e+02 1.4998831901e+01 0.0000e+00 0.0000e+00
  1000023  2    3    3    0    0 -1.6125033545e+01 -2.3401688681e+01 -9.7228254226e+01 1.0144574019e+02 5.4999128976e+00 0.0000e+00 0.0000e+00
        2  1    1    2  501    0 +1.6853298612e+01 +2.8945926520e+01 -2.0591217914e+02 2.0861861340e+02 0.0000000000e+00 0.0000e+00 1.0000e+00
  1000022  1    4    4    0    0 -1.4860859221e+01 -2.2290762675e+01 -9.1687684747e+01 9.5652259627e+01 5.0000000000e+00 0.0000e+00 1.0000e+00
      -11  1    4    4    0    0 -4.4676996784e-01 -4.8960344488e-01 -1.9934818703e+00 2.1007820367e+00 5.1100000000e-04 0.0000e+00 1.0000e+00
       11  1    4    4    0    0 -8.1740435572e-01 -6.2132256110e-01 -3.5470876089e+00 3.6926985217e+00 5.1100000000e-04 0.0000e+00 -1.0000e+00
  1000022  1    3    3    0    0 -7.2826506721e-01 -5.5442378390e+00 -3.4002110530e+01 3.4819713722e+01 5.0000000000e+00 0.0000e+00 -1.0000e+00
<mgrwt>
<rscale>  1 0.36699663E+02</rscale>
<asrwt>0</asrwt>
<pdfrwt beam="1">  1       21 0.52463588E-01 0.36699663E+02</pdfrwt>
<pdfrwt beam="2">  1        2 0.59550177E-03 0.36699663E+02</pdfrwt>
<totfact> 0.12648803E+06</totfact>
</mgrwt>
<rwgt>
<wgt id='1001'> +1.5607000e-12 </wgt>
<wgt id='1002'> +1.5107100e-12 </wgt>
<wgt id='1003'> +1.5077640e-12 </wgt>
<wgt id='1004'> +1.5641752e-12 </wgt>
<wgt id='1005'> +1.5043358e-12 </wgt>
<wgt id='1006'> +1.3729283e-12 </wgt>
<wgt id='1007'> +1.3474089e-12 </wgt>
<wgt id='1008'> +1.3456695e-12 </wgt>
<wgt id='1009'> +1.3742970e-12 </wgt>
<wgt id='1010'> +1.3436221e-12 </wgt>
<wgt id='1011'> +1.8107739e-12 </wgt>
<wgt id='1012'> +1.7209118e-12 </wgt>
<wgt id='1013'> +1.7160826e-12 </wgt>
<wgt id='1014'> +1.8178602e-12 </wgt>
<wgt id='1015'> +1.7105154e-12 </wgt>
<wgt id='1016'> +1.7090478e-12 </wgt>
<wgt id='1017'> +1.6215366e-12 </wgt>
<wgt id='1018'> +1.6169134e-12 </wgt>
<wgt id='1019'> +1.7160826e-12 </wgt>
<wgt id='1020'> +1.6115774e-12 </wgt>
<wgt id='1021'> +1.5034281e-12 </wgt>
<wgt id='1022'> +1.4462556e-12 </wgt>
<wgt id='1023'> +1.4430847e-12 </wgt>
<wgt id='1024'> +1.5077640e-12 </wgt>
<wgt id='1025'> +1.4394067e-12 </wgt>
<wgt id='1026'> +1.9828917e-12 </wgt>
<wgt id='1027'> +1.8471590e-12 </wgt>
<wgt id='1028'> +1.8403125e-12 </wgt>
<wgt id='1029'> +1.9944046e-12 </wgt>
<wgt id='1030'> +1.8324553e-12 </wgt>
<wgt id='1031'> +1.3789063e-12 </wgt>
<wgt id='1032'> +1.3751618e-12 </wgt>
<wgt id='1033'> +1.3742970e-12 </wgt>
<wgt id='1034'> +1.3779977e-12 </wgt>
<wgt id='1035'> +1.3732233e-12 </wgt>
<wgt id='1036'> +1.2130067e-12 </wgt>
<wgt id='1037'> +1.2265128e-12 </wgt>
<wgt id='1038'> +1.2265511e-12 </wgt>
<wgt id='1039'> +1.2107199e-12 </wgt>
<wgt id='1040'> +1.2265168e-12 </wgt>
<wgt id='1041'> +1.5998511e-12 </wgt>
<wgt id='1042'> +1.5665033e-12 </wgt>
<wgt id='1043'> +1.5641752e-12 </wgt>
<wgt id='1044'> +1.6014875e-12 </wgt>
<wgt id='1045'> +1.5614330e-12 </wgt>
<wgt id='1046'> +1.5607000e-12 </wgt>
<wgt id='1047'> +1.5849108e-12 </wgt>
<wgt id='1048'> +1.5473362e-12 </wgt>
<wgt id='1049'> +1.5903576e-12 </wgt>
<wgt id='1050'> +1.5607702e-12 </wgt>
<wgt id='1051'> +1.5336884e-12 </wgt>
<wgt id='1052'> +1.6119352e-12 </wgt>
<wgt id='1053'> +1.5582696e-12 </wgt>
<wgt id='1054'> +1.5507998e-12 </wgt>
<wgt id='1055'> +1.5464311e-12 </wgt>
<wgt id='1056'> +1.5853121e-12 </wgt>
<wgt id='1057'> +1.6025981e-12 </wgt>
<wgt id='1058'> +1.5514284e-12 </wgt>
<wgt id='1059'> +1.5586095e-12 </wgt>
<wgt id='1060'> +1.5695738e-12 </wgt>
<wgt id='1061'> +1.5344156e-12 </wgt>
<wgt id='1062'> +1.5551976e-12 </wgt>
<wgt id='1063'> +1.5869603e-12 </wgt>
<wgt id='1064'> +1.5441190e-12 </wgt>
<wgt id='1065'> +1.5315981e-12 </wgt>
<wgt id='1066'> +1.5287226e-12 </wgt>
<wgt id='1067'> +1.5226839e-12 </wgt>
<wgt id='1068'> +1.5341893e-12 </wgt>
<wgt id='1069'> +1.5314742e-12 </wgt>
<wgt id='1070'> +1.5237991e-12 </wgt>
<wgt id='1071'> +1.5248556e-12 </wgt>
<wgt id='1072'> +1.5669032e-12 </wgt>
<wgt id='1073'> +1.6007527e-12 </wgt>
<wgt id='1074'> +1.5633345e-12 </wgt>
<wgt id='1075'> +1.5747587e-12 </wgt>
<wgt id='1076'> +1.6152056e-12 </wgt>
<wgt id='1077'> +1.5921309e-12 </wgt>
<wgt id='1078'> +1.5877974e-12 </wgt>
<wgt id='1079'> +1.5414138e-12 </wgt>
<wgt id='1080'> +1.5614527e-12 </wgt>
<wgt id='1081'> +1.5642272e-12 </wgt>
<wgt id='1082'> +1.5607253e-12 </wgt>
<wgt id='1083'> +1.5372296e-12 </wgt>
<wgt id='1084'> +1.5519393e-12 </wgt>
<wgt id='1085'> +1.5505500e-12 </wgt>
<wgt id='1086'> +1.5727288e-12 </wgt>
<wgt id='1087'> +1.5591489e-12 </wgt>
<wgt id='1088'> +1.5797416e-12 </wgt>
<wgt id='1089'> +1.5700984e-12 </wgt>
<wgt id='1090'> +1.5616763e-12 </wgt>
<wgt id='1091'> +1.5196929e-12 </wgt>
<wgt id='1092'> +1.5756257e-12 </wgt>
<wgt id='1093'> +1.5755035e-12 </wgt>
<wgt id='1094'> +1.5789781e-12 </wgt>
<wgt id='1095'> +1.5928799e-12 </wgt>
<wgt id='1096'> +1.5873311e-12 </wgt>
<wgt id='1097'> +1.5560912e-12 </wgt>
<wgt id='1098'> +1.5339057e-12 </wgt>
<wgt id='1099'> +1.5760245e-12 </wgt>
<wgt id='1100'> +1.5687858e-12 </wgt>
<wgt id='1101'> +1.5569836e-12 </wgt>
<wgt id='1102'> +1.5474640e-12 </wgt>
<wgt id='1103'> +1.5548326e-12 </wgt>
<wgt id='1104'> +1.5191202e-12 </wgt>
<wgt id='1105'> +1.5805212e-12 </wgt>
<wgt id='1106'> +1.5660603e-12 </wgt>
<wgt id='1107'> +1.5809529e-12 </wgt>
<wgt id='1108'> +1.5461762e-12 </wgt>
<wgt id='1109'> +1.5522130e-12 </wgt>
<wgt id='1110'> +1.5657447e-12 </wgt>
<wgt id='1111'> +1.5415873e-12 </wgt>
<wgt id='1112'> +1.5534457e-12 </wgt>
<wgt id='1113'> +1.5416116e-12 </wgt>
<wgt id='1114'> +1.5754699e-12 </wgt>
<wgt id='1115'> +1.5622271e-12 </wgt>
<wgt id='1116'> +1.5527387e-12 </wgt>
<wgt id='1117'> +1.5598635e-12 </wgt>
<wgt id='1118'> +1.5328455e-12 </wgt>
<wgt id='1119'> +1.5373885e-12 </wgt>
<wgt id='1120'> +1.5677353e-12 </wgt>
<wgt id='1121'> +1.5658823e-12 </wgt>
<wgt id='1122'> +1.5860930e-12 </wgt>
<wgt id='1123'> +1.5533010e-12 </wgt>
<wgt id='1124'> +1.5690627e-12 </wgt>
<wgt id='1125'> +1.5448390e-12 </wgt>
<wgt id='1126'> +1.5733671e-12 </wgt>
<wgt id='1127'> +1.5505241e-12 </wgt>
<wgt id='1128'> +1.5551976e-12 </wgt>
<wgt id='1129'> +1.5717697e-12 </wgt>
<wgt id='1130'> +1.5501099e-12 </wgt>
<wgt id='1131'> +1.5837195e-12 </wgt>
<wgt id='1132'> +1.5716265e-12 </wgt>
<wgt id='1133'> +1.5600555e-12 </wgt>
<wgt id='1134'> +1.6210037e-12 </wgt>
<wgt id='1135'> +1.5718938e-12 </wgt>
<wgt id='1136'> +1.5454791e-12 </wgt>
<wgt id='1137'> +1.5379419e-12 </wgt>
<wgt id='1138'> +1.5563480e-12 </wgt>
<wgt id='1139'> +1.5550745e-12 </wgt>
<wgt id='1140'> +1.5607701e-12 </wgt>
<wgt id='1141'> +1.5588774e-12 </wgt>
<wgt id='1142'> +1.5489043e-12 </wgt>
<wgt id='1143'> +1.5576406e-12 </wgt>
<wgt id='1144'> +1.5765333e-12 </wgt>
<wgt id='1145'> +1.5672136e-12 </wgt>
<wgt id='1146'> +1.5345995e-12 </wgt>
<wgt id='1147'> +1.2183768e-12 </wgt>
<wgt id='1148'> +1.2411596e-12 </wgt>
<wgt id='1149'> +1.3499292e-12 </wgt>
<wgt id='1150'> +1.2640497e-12 </wgt>
<wgt id='1151'> +1.1246219e-12 </wgt>
<wgt id='1152'> +1.5106860e-12 </wgt>
<wgt id='1153'> +1.5035548e-12 </wgt>
<wgt id='1154'> +1.5148298e-12 </wgt>
<wgt id='1155'> +1.5107783e-12 </wgt>
<wgt id='1156'> +1.5106582e-12 </wgt>
<wgt id='1157'> +1.5116262e-12 </wgt>
<wgt id='1158'> +1.5093763e-12 </wgt>
<wgt id='1159'> +1.5115163e-12 </wgt>
<wgt id='1160'> +1.5101600e-12 </wgt>
<wgt id='1161'> +1.5067550e-12 </wgt>
<wgt id='1162'> +1.5134401e-12 </wgt>
<wgt id='1163'> +1.5153056e-12 </wgt>
<wgt id='1164'> +1.5060532e-12 </wgt>
<wgt id='1165'> +1.5014453e-12 </wgt>
<wgt id='1166'> +1.5196889e-12 </wgt>
<wgt id='1167'> +1.5132766e-12 </wgt>
<wgt id='1168'> +1.5059597e-12 </wgt>
<wgt id='1169'> +1.5110638e-12 </wgt>
<wgt id='1170'> +1.5104800e-12 </wgt>
<wgt id='1171'> +1.5119081e-12 </wgt>
<wgt id='1172'> +1.5090684e-12 </wgt>
<wgt id='1173'> +1.5126182e-12 </wgt>
<wgt id='1174'> +1.5077995e-12 </wgt>
<wgt id='1175'> +1.5078745e-12 </wgt>
<wgt id='1176'> +1.5122718e-12 </wgt>
<wgt id='1177'> +1.5114811e-12 </wgt>
<wgt id='1178'> +1.5090228e-12 </wgt>
<wgt id='1179'> +1.5247718e-12 </wgt>
<wgt id='1180'> +1.4934897e-12 </wgt>
<wgt id='1181'> +1.5037626e-12 </wgt>
<wgt id='1182'> +1.5177159e-12 </wgt>
<wgt id='1183'> +1.5110149e-12 </wgt>
<wgt id='1184'> +1.5107321e-12 </wgt>
<wgt id='1185'> +1.5084083e-12 </wgt>
<wgt id='1186'> +1.5119428e-12 </wgt>
<wgt id='1187'> +1.5092764e-12 </wgt>
<wgt id='1188'> +1.5111688e-12 </wgt>
<wgt id='1189'> +1.5141839e-12 </wgt>
<wgt id='1190'> +1.4870954e-12 </wgt>
<wgt id='1191'> +1.5007868e-12 </wgt>
<wgt id='1192'> +1.5207467e-12 </wgt>
<wgt id='1193'> +1.2982457e-12 </wgt>
<wgt id='1194'> +1.2911294e-12 </wgt>
<wgt id='1195'> +1.3040857e-12 </wgt>
<wgt id='1196'> +1.3022358e-12 </wgt>
<wgt id='1197'> +1.2938646e-12 </wgt>
<wgt id='1198'> +1.2990469e-12 </wgt>
<wgt id='1199'> +1.2971452e-12 </wgt>
<wgt id='1200'> +1.3000572e-12 </wgt>
<wgt id='1201'> +1.2970901e-12 </wgt>
<wgt id='1202'> +1.2959215e-12 </wgt>
<wgt id='1203'> +1.3016967e-12 </wgt>
<wgt id='1204'> +1.2842656e-12 </wgt>
<wgt id='1205'> +1.3069019e-12 </wgt>
<wgt id='1206'> +1.3023218e-12 </wgt>
<wgt id='1207'> +1.2927747e-12 </wgt>
<wgt id='1208'> +1.2920253e-12 </wgt>
<wgt id='1209'> +1.3006254e-12 </wgt>
<wgt id='1210'> +1.2900201e-12 </wgt>
<wgt id='1211'> +1.3011245e-12 </wgt>
<wgt id='1212'> +1.2992846e-12 </wgt>
<wgt id='1213'> +1.2973819e-12 </wgt>
<wgt id='1214'> +1.2931204e-12 </wgt>
<wgt id='1215'> +1.3033657e-12 </wgt>
<wgt id='1216'> +1.2981656e-12 </wgt>
<wgt id='1217'> +1.2976462e-12 </wgt>
<wgt id='1218'> +1.2991274e-12 </wgt>
<wgt id='1219'> +1.2975288e-12 </wgt>
<wgt id='1220'> +1.3013637e-12 </wgt>
<wgt id='1221'> +1.2996179e-12 </wgt>
<wgt id='1222'> +1.2972175e-12 </wgt>
<wgt id='1223'> +1.3021667e-12 </wgt>
<wgt id='1224'> +1.2984775e-12 </wgt>
<wgt id='1225'> +1.2982055e-12 </wgt>
<wgt id='1226'> +1.2966305e-12 </wgt>
<wgt id='1227'> +1.2994262e-12 </wgt>
<wgt id='1228'> +1.2982659e-12 </wgt>
<wgt id='1229'> +1.2977911e-12 </wgt>
<wgt id='1230'> +1.3170558e-12 </wgt>
<wgt id='1231'> +1.2823339e-12 </wgt>
<wgt id='1232'> +1.2987994e-12 </wgt>
<wgt id='1233'> +1.2981666e-12 </wgt>
<wgt id='1234'> +1.2982457e-12 </wgt>
<wgt id='1235'> +1.2921473e-12 </wgt>
<wgt id='1236'> +1.2945227e-12 </wgt>
<wgt id='1237'> +1.2965362e-12 </wgt>
<wgt id='1238'> +1.3002265e-12 </wgt>
<wgt id='1239'> +1.3015484e-12 </wgt>
<wgt id='1240'> +1.3029398e-12 </wgt>
<wgt id='1241'> +1.3367945e-12 </wgt>
<wgt id='1242'> +1.3283091e-12 </wgt>
<wgt id='1243'> +1.3451897e-12 </wgt>
<wgt id='1244'> +1.3315526e-12 </wgt>
<wgt id='1245'> +1.3407319e-12 </wgt>
<wgt id='1246'> +1.3375155e-12 </wgt>
<wgt id='1247'> +1.3362261e-12 </wgt>
<wgt id='1248'> +1.3367348e-12 </wgt>
<wgt id='1249'> +1.3369510e-12 </wgt>
<wgt id='1250'> +1.3368544e-12 </wgt>
<wgt id='1251'> +1.3368823e-12 </wgt>
<wgt id='1252'> +1.3347711e-12 </wgt>
<wgt id='1253'> +1.3383974e-12 </wgt>
<wgt id='1254'> +1.3246009e-12 </wgt>
<wgt id='1255'> +1.3441796e-12 </wgt>
<wgt id='1256'> +1.3407277e-12 </wgt>
<wgt id='1257'> +1.3271791e-12 </wgt>
<wgt id='1258'> +1.3392762e-12 </wgt>
<wgt id='1259'> +1.3329606e-12 </wgt>
<wgt id='1260'> +1.3381133e-12 </wgt>
<wgt id='1261'> +1.3356882e-12 </wgt>
<wgt id='1262'> +1.3363929e-12 </wgt>
<wgt id='1263'> +1.3369557e-12 </wgt>
<wgt id='1264'> +1.3389606e-12 </wgt>
<wgt id='1265'> +1.3359538e-12 </wgt>
<wgt id='1266'> +1.3406764e-12 </wgt>
<wgt id='1267'> +1.3346492e-12 </wgt>
<wgt id='1268'> +1.3360990e-12 </wgt>
<wgt id='1269'> +1.3416549e-12 </wgt>
<wgt id='1270'> +1.3406856e-12 </wgt>
<wgt id='1271'> +1.3344616e-12 </wgt>
<wgt id='1272'> +1.3392315e-12 </wgt>
<wgt id='1273'> +1.3363434e-12 </wgt>
<wgt id='1274'> +1.3383822e-12 </wgt>
<wgt id='1275'> +1.3340349e-12 </wgt>
<wgt id='1276'> +1.3355238e-12 </wgt>
<wgt id='1277'> +1.3374706e-12 </wgt>
<wgt id='1278'> +1.3302013e-12 </wgt>
<wgt id='1279'> +1.3455469e-12 </wgt>
<wgt id='1280'> +1.3363140e-12 </wgt>
<wgt id='1281'> +1.3416538e-12 </wgt>
<wgt id='1282'> +1.3367945e-12 </wgt>
<wgt id='1283'> +1.3297583e-12 </wgt>
<wgt id='1284'> +1.3326826e-12 </wgt>
<wgt id='1285'> +1.3350404e-12 </wgt>
<wgt id='1286'> +1.3389680e-12 </wgt>
<wgt id='1287'> +1.3402867e-12 </wgt>
<wgt id='1288'> +1.3415560e-12 </wgt>
<wgt id='1289'> +1.3280639e-12 </wgt>
<wgt id='1290'> +1.3356430e-12 </wgt>
<wgt id='1291'> +1.3199920e-12 </wgt>
<wgt id='1292'> +1.3249034e-12 </wgt>
<wgt id='1293'> +1.3303854e-12 </wgt>
<wgt id='1294'> +1.3270618e-12 </wgt>
<wgt id='1295'> +1.3290098e-12 </wgt>
<wgt id='1296'> +1.3233297e-12 </wgt>
<wgt id='1297'> +1.3339476e-12 </wgt>
<wgt id='1298'> +1.3345608e-12 </wgt>
<wgt id='1299'> +1.3199752e-12 </wgt>
<wgt id='1300'> +1.3314533e-12 </wgt>
<wgt id='1301'> +1.3213445e-12 </wgt>
<wgt id='1302'> +1.3272312e-12 </wgt>
<wgt id='1303'> +1.3293396e-12 </wgt>
<wgt id='1304'> +1.3262359e-12 </wgt>
<wgt id='1305'> +1.3293699e-12 </wgt>
<wgt id='1306'> +1.3228773e-12 </wgt>
<wgt id='1307'> +1.3340601e-12 </wgt>
<wgt id='1308'> +1.3383164e-12 </wgt>
<wgt id='1309'> +1.3202975e-12 </wgt>
<wgt id='1310'> +1.3264899e-12 </wgt>
<wgt id='1311'> +1.3300066e-12 </wgt>
<wgt id='1312'> +1.3223478e-12 </wgt>
<wgt id='1313'> +1.3342191e-12 </wgt>
<wgt id='1314'> +1.3247421e-12 </wgt>
<wgt id='1315'> +1.3253881e-12 </wgt>
<wgt id='1316'> +1.3338243e-12 </wgt>
<wgt id='1317'> +1.3291243e-12 </wgt>
<wgt id='1318'> +1.3288132e-12 </wgt>
<wgt id='1319'> +1.3261168e-12 </wgt>
<wgt id='1320'> +1.3247706e-12 </wgt>
<wgt id='1321'> +1.3285625e-12 </wgt>
<wgt id='1322'> +1.3279127e-12 </wgt>
<wgt id='1323'> +1.3281124e-12 </wgt>
<wgt id='1324'> +1.3288215e-12 </wgt>
<wgt id='1325'> +1.3310680e-12 </wgt>
<wgt id='1326'> +1.3280230e-12 </wgt>
<wgt id='1327'> +1.3303864e-12 </wgt>
<wgt id='1328'> +1.3270387e-12 </wgt>
<wgt id='1329'> +1.3289890e-12 </wgt>
<wgt id='1330'> +1.3013336e-12 </wgt>
<wgt id='1331'> +1.3452413e-12 </wgt>
<wgt id='1332'> +1.3502303e-12 </wgt>
<wgt id='1333'> +1.3160990e-12 </wgt>
<wgt id='1334'> +1.3238677e-12 </wgt>
<wgt id='1335'> +1.3382424e-12 </wgt>
<wgt id='1336'> +1.3416707e-12 </wgt>
<wgt id='1337'> +1.3110602e-12 </wgt>
<wgt id='1338'> +1.3321875e-12 </wgt>
<wgt id='1339'> +1.3260468e-12 </wgt>
<wgt id='1340'> +1.2988882e-12 </wgt>
<wgt id='1341'> +1.3064132e-12 </wgt>
<wgt id='1342'> +1.2907979e-12 </wgt>
<wgt id='1343'> +1.2956699e-12 </wgt>
<wgt id='1344'> +1.3010457e-12 </wgt>
<wgt id='1345'> +1.2974560e-12 </wgt>
<wgt id='1346'> +1.3000665e-12 </wgt>
<wgt id='1347'> +1.2942135e-12 </wgt>
<wgt id='1348'> +1.3041533e-12 </wgt>
<wgt id='1349'> +1.3046822e-12 </wgt>
<wgt id='1350'> +1.2932072e-12 </wgt>
<wgt id='1351'> +1.3022611e-12 </wgt>
<wgt id='1352'> +1.2914715e-12 </wgt>
<wgt id='1353'> +1.2976202e-12 </wgt>
<wgt id='1354'> +1.3011534e-12 </wgt>
<wgt id='1355'> +1.2971379e-12 </wgt>
<wgt id='1356'> +1.2998604e-12 </wgt>
<wgt id='1357'> +1.2964794e-12 </wgt>
<wgt id='1358'> +1.3018588e-12 </wgt>
<wgt id='1359'> +1.3104688e-12 </wgt>
<wgt id='1360'> +1.2888460e-12 </wgt>
<wgt id='1361'> +1.2972990e-12 </wgt>
<wgt id='1362'> +1.3011513e-12 </wgt>
<wgt id='1363'> +1.2918650e-12 </wgt>
<wgt id='1364'> +1.3042819e-12 </wgt>
<wgt id='1365'> +1.2991910e-12 </wgt>
<wgt id='1366'> +1.2907251e-12 </wgt>
<wgt id='1367'> +1.3041423e-12 </wgt>
<wgt id='1368'> +1.2993247e-12 </wgt>
<wgt id='1369'> +1.3000204e-12 </wgt>
<wgt id='1370'> +1.2970700e-12 </wgt>
<wgt id='1371'> +1.2970453e-12 </wgt>
<wgt id='1372'> +1.2994355e-12 </wgt>
<wgt id='1373'> +1.2989586e-12 </wgt>
<wgt id='1374'> +1.2983494e-12 </wgt>
<wgt id='1375'> +1.2995486e-12 </wgt>
<wgt id='1376'> +1.3014532e-12 </wgt>
<wgt id='1377'> +1.2993285e-12 </wgt>
<wgt id='1378'> +1.3010301e-12 </wgt>
<wgt id='1379'> +1.2976144e-12 </wgt>
<wgt id='1380'> +1.3001971e-12 </wgt>
<wgt id='1381'> +1.2708578e-12 </wgt>
<wgt id='1382'> +1.3150525e-12 </wgt>
<wgt id='1383'> +1.3220531e-12 </wgt>
<wgt id='1384'> +1.2835801e-12 </wgt>
<wgt id='1385'> +1.2941849e-12 </wgt>
<wgt id='1386'> +1.3094721e-12 </wgt>
<wgt id='1387'> +1.3146333e-12 </wgt>
<wgt id='1388'> +1.2793730e-12 </wgt>
<wgt id='1389'> +1.3055652e-12 </wgt>
<wgt id='1390'> +1.2955573e-12 </wgt>
<wgt id='1391'> +1.2799369e-12 </wgt>
<wgt id='1392'> +1.2406519e-12 </wgt>
<wgt id='1393'> +1.2528990e-12 </wgt>
<wgt id='1394'> +1.2661210e-12 </wgt>
<wgt id='1395'> +1.2906988e-12 </wgt>
<wgt id='1396'> +1.2789442e-12 </wgt>
<wgt id='1397'> +1.2513876e-12 </wgt>
<wgt id='1398'> +1.2572452e-12 </wgt>
<wgt id='1399'> +1.2627941e-12 </wgt>
<wgt id='1400'> +1.2680739e-12 </wgt>
<wgt id='1401'> +1.2735256e-12 </wgt>
<wgt id='1402'> +1.2834347e-12 </wgt>
<wgt id='1403'> +1.2881966e-12 </wgt>
<wgt id='1404'> +1.2921877e-12 </wgt>
<wgt id='1405'> +1.2789442e-12 </wgt>
<wgt id='1406'> +1.2758371e-12 </wgt>
<wgt id='1407'> +1.2776094e-12 </wgt>
<wgt id='1408'> +1.2804324e-12 </wgt>
<wgt id='1409'> +1.2812739e-12 </wgt>
<wgt id='1410'> +1.3001918e-12 </wgt>
<wgt id='1411'> +1.3061554e-12 </wgt>
<wgt id='1412'> +1.2925205e-12 </wgt>
<wgt id='1413'> +1.3048743e-12 </wgt>
<wgt id='1414'> +1.2955839e-12 </wgt>
<wgt id='1415'> +1.2963997e-12 </wgt>
<wgt id='1416'> +1.3017093e-12 </wgt>
<wgt id='1417'> +1.2922410e-12 </wgt>
<wgt id='1418'> +1.3081639e-12 </wgt>
<wgt id='1419'> +1.3021751e-12 </wgt>
<wgt id='1420'> +1.2983090e-12 </wgt>
<wgt id='1421'> +1.2878539e-12 </wgt>
<wgt id='1422'> +1.3055033e-12 </wgt>
<wgt id='1423'> +1.2998404e-12 </wgt>
<wgt id='1424'> +1.3005853e-12 </wgt>
<wgt id='1425'> +1.2970281e-12 </wgt>
<wgt id='1426'> +1.3036589e-12 </wgt>
<wgt id='1427'> +1.2999644e-12 </wgt>
<wgt id='1428'> +1.3000871e-12 </wgt>
<wgt id='1429'> +1.2928040e-12 </wgt>
<wgt id='1430'> +1.3102102e-12 </wgt>
<wgt id='1431'> +1.3064356e-12 </wgt>
<wgt id='1432'> +1.2957070e-12 </wgt>
<wgt id='1433'> +1.3029689e-12 </wgt>
<wgt id='1434'> +1.2953999e-12 </wgt>
<wgt id='1435'> +1.3029406e-12 </wgt>
<wgt id='1436'> +1.2937445e-12 </wgt>
<wgt id='1437'> +1.3058574e-12 </wgt>
<wgt id='1438'> +1.3008884e-12 </wgt>
<wgt id='1439'> +1.2984403e-12 </wgt>
<wgt id='1440'> +1.3008737e-12 </wgt>
<wgt id='1441'> +1.2997581e-12 </wgt>
<wgt id='1442'> +1.3016052e-12 </wgt>
<wgt id='1443'> +1.3006409e-12 </wgt>
<wgt id='1444'> +1.3013534e-12 </wgt>
<wgt id='1445'> +1.3034995e-12 </wgt>
<wgt id='1446'> +1.3002305e-12 </wgt>
<wgt id='1447'> +1.3011327e-12 </wgt>
<wgt id='1448'> +1.3017549e-12 </wgt>
<wgt id='1449'> +1.2987411e-12 </wgt>
<wgt id='1450'> +1.3010324e-12 </wgt>
<wgt id='1451'> +1.3092477e-12 </wgt>
<wgt id='1452'> +1.2778743e-12 </wgt>
<wgt id='1453'> +1.3023819e-12 </wgt>
<wgt id='1454'> +1.2864617e-12 </wgt>
<wgt id='1455'> +1.2823369e-12 </wgt>
<wgt id='1456'> +1.3180335e-12 </wgt>
<wgt id='1457'> +1.3128466e-12 </wgt>
<wgt id='1458'> +1.2955700e-12 </wgt>
<wgt id='1459'> +1.3004212e-12 </wgt>
<wgt id='1460'> +1.3052365e-12 </wgt>
<wgt id='1461'> +1.3001918e-12 </wgt>
<wgt id='1462'> +1.2891313e-12 </wgt>
<wgt id='1463'> +1.3107555e-12 </wgt>
<wgt id='1464'> +1.2997898e-12 </wgt>
<wgt id='1465'> +1.2772309e-12 </wgt>
<wgt id='1466'> +1.2821368e-12 </wgt>
<wgt id='1467'> +1.2870076e-12 </wgt>
<wgt id='1468'> +1.2916526e-12 </wgt>
<wgt id='1469'> +1.2958316e-12 </wgt>
<wgt id='1470'> +1.3037935e-12 </wgt>
<wgt id='1471'> +1.3068709e-12 </wgt>
<wgt id='1472'> +1.3106253e-12 </wgt>
<wgt id='1473'> +1.2997898e-12 </wgt>
<wgt id='1474'> +1.2958766e-12 </wgt>
<wgt id='1475'> +1.2975200e-12 </wgt>
<wgt id='1476'> +1.3014100e-12 </wgt>
<wgt id='1477'> +1.3030606e-12 </wgt>
<wgt id='1478'> +1.2644995e-12 </wgt>
<wgt id='1479'> +1.2644246e-12 </wgt>
<wgt id='1480'> +1.2759584e-12 </wgt>
<wgt id='1481'> +1.2635387e-12 </wgt>
<wgt id='1482'> +1.2669921e-12 </wgt>
<wgt id='1483'> +1.2445715e-12 </wgt>
<wgt id='1484'> +1.2674784e-12 </wgt>
<wgt id='1485'> +1.2727453e-12 </wgt>
<wgt id='1486'> +1.2650335e-12 </wgt>
<wgt id='1487'> +1.2690995e-12 </wgt>
<wgt id='1488'> +1.2600180e-12 </wgt>
<wgt id='1489'> +1.2703969e-12 </wgt>
<wgt id='1490'> +1.2653011e-12 </wgt>
<wgt id='1491'> +1.2622264e-12 </wgt>
<wgt id='1492'> +1.2634626e-12 </wgt>
<wgt id='1493'> +1.2648546e-12 </wgt>
<wgt id='1494'> +1.2861466e-12 </wgt>
<wgt id='1495'> +1.2693060e-12 </wgt>
<wgt id='1496'> +1.2632413e-12 </wgt>
<wgt id='1497'> +1.2673167e-12 </wgt>
<wgt id='1498'> +1.2625757e-12 </wgt>
<wgt id='1499'> +1.2670036e-12 </wgt>
<wgt id='1500'> +1.2650921e-12 </wgt>
<wgt id='1501'> +1.2636606e-12 </wgt>
<wgt id='1502'> +1.2644467e-12 </wgt>
<wgt id='1503'> +1.2692743e-12 </wgt>
<wgt id='1504'> +1.2658750e-12 </wgt>
<wgt id='1505'> +1.2636905e-12 </wgt>
<wgt id='1506'> +1.2635892e-12 </wgt>
<wgt id='1507'> +1.2623408e-12 </wgt>
<wgt id='1508'> +1.2753313e-12 </wgt>
<wgt id='1509'> +1.3297304e-12 </wgt>
<wgt id='1510'> +1.3279221e-12 </wgt>
<wgt id='1511'> +1.3283675e-12 </wgt>
<wgt id='1512'> +1.3266442e-12 </wgt>
<wgt id='1513'> +1.3413324e-12 </wgt>
<wgt id='1514'> +1.3296443e-12 </wgt>
<wgt id='1515'> +1.3244400e-12 </wgt>
<wgt id='1516'> +1.3296677e-12 </wgt>
<wgt id='1517'> +1.3255852e-12 </wgt>
<wgt id='1518'> +1.3362171e-12 </wgt>
<wgt id='1519'> +1.3263306e-12 </wgt>
<wgt id='1520'> +1.3255816e-12 </wgt>
<wgt id='1521'> +1.3339142e-12 </wgt>
<wgt id='1522'> +1.3278972e-12 </wgt>
<wgt id='1523'> +1.3340951e-12 </wgt>
<wgt id='1524'> +1.3298126e-12 </wgt>
<wgt id='1525'> +1.3313948e-12 </wgt>
<wgt id='1526'> +1.3271823e-12 </wgt>
<wgt id='1527'> +1.3311939e-12 </wgt>
<wgt id='1528'> +1.3348726e-12 </wgt>
<wgt id='1529'> +1.3349768e-12 </wgt>
<wgt id='1530'> +1.3328760e-12 </wgt>
<wgt id='1531'> +1.3329674e-12 </wgt>
<wgt id='1532'> +1.3349143e-12 </wgt>
<wgt id='1533'> +1.3277652e-12 </wgt>
<wgt id='1534'> +1.3374568e-12 </wgt>
<wgt id='1535'> +1.3299908e-12 </wgt>
<wgt id='1536'> +1.3245456e-12 </wgt>
<wgt id='1537'> +1.3265172e-12 </wgt>
<wgt id='1538'> +1.3321836e-12 </wgt>
<wgt id='1539'> +1.3286821e-12 </wgt>
<wgt id='1540'> +1.3325628e-12 </wgt>
<wgt id='1541'> +1.3276907e-12 </wgt>
<wgt id='1542'> +1.3305784e-12 </wgt>
<wgt id='1543'> +1.3318246e-12 </wgt>
<wgt id='1544'> +1.3295417e-12 </wgt>
<wgt id='1545'> +1.3315377e-12 </wgt>
<wgt id='1546'> +1.3321997e-12 </wgt>
<wgt id='1547'> +1.3300167e-12 </wgt>
<wgt id='1548'> +1.3279987e-12 </wgt>
<wgt id='1549'> +1.3300188e-12 </wgt>
<wgt id='1550'> +1.3306826e-12 </wgt>
<wgt id='1551'> +1.3288053e-12 </wgt>
<wgt id='1552'> +1.3297814e-12 </wgt>
<wgt id='1553'> +1.3296301e-12 </wgt>
<wgt id='1554'> +1.3291063e-12 </wgt>
<wgt id='1555'> +1.3288734e-12 </wgt>
<wgt id='1556'> +1.3307681e-12 </wgt>
<wgt id='1557'> +1.3287534e-12 </wgt>
<wgt id='1558'> +1.3308699e-12 </wgt>
<wgt id='1559'> +1.3305393e-12 </wgt>
<wgt id='1560'> +1.3306096e-12 </wgt>
<wgt id='1561'> +1.3307866e-12 </wgt>
<wgt id='1562'> +1.3298750e-12 </wgt>
<wgt id='1563'> +1.3293300e-12 </wgt>
<wgt id='1564'> +1.3296170e-12 </wgt>
<wgt id='1565'> +1.3300651e-12 </wgt>
<wgt id='1566'> +1.3301502e-12 </wgt>
<wgt id='1567'> +1.3298971e-12 </wgt>
<wgt id='1568'> +1.3300968e-12 </wgt>
<wgt id='1569'> +1.3300003e-12 </wgt>
<wgt id='1570'> +1.3292096e-12 </wgt>
<wgt id='1571'> +1.3292573e-12 </wgt>
<wgt id='1572'> +1.3303723e-12 </wgt>
<wgt id='1573'> +1.3294703e-12 </wgt>
<wgt id='1574'> +1.3301353e-12 </wgt>
<wgt id='1575'> +1.3287653e-12 </wgt>
<wgt id='1576'> +1.3297205e-12 </wgt>
<wgt id='1577'> +1.3304603e-12 </wgt>
<wgt id='1578'> +1.3301510e-12 </wgt>
<wgt id='1579'> +1.3297838e-12 </wgt>
<wgt id='1580'> +1.3294915e-12 </wgt>
<wgt id='1581'> +1.3298286e-12 </wgt>
<wgt id='1582'> +1.3304349e-12 </wgt>
<wgt id='1583'> +1.3299523e-12 </wgt>
<wgt id='1584'> +1.3297530e-12 </wgt>
<wgt id='1585'> +1.3301467e-12 </wgt>
<wgt id='1586'> +1.3298042e-12 </wgt>
<wgt id='1587'> +1.3297328e-12 </wgt>
<wgt id='1588'> +1.3299484e-12 </wgt>
<wgt id='1589'> +1.3303230e-12 </wgt>
<wgt id='1590'> +1.3299985e-12 </wgt>
<wgt id='1591'> +1.3302668e-12 </wgt>
<wgt id='1592'> +1.3293727e-12 </wgt>
<wgt id='1593'> +1.3296495e-12 </wgt>
<wgt id='1594'> +1.3298027e-12 </wgt>
<wgt id='1595'> +1.3295326e-12 </wgt>
<wgt id='1596'> +1.3296350e-12 </wgt>
<wgt id='1597'> +1.3297411e-12 </wgt>
<wgt id='1598'> +1.3296674e-12 </wgt>
<wgt id='1599'> +1.3296592e-12 </wgt>
<wgt id='1600'> +1.3300794e-12 </wgt>
<wgt id='1601'> +1.3295372e-12 </wgt>
<wgt id='1602'> +1.3293809e-12 </wgt>
<wgt id='1603'> +1.3294171e-12 </wgt>
<wgt id='1604'> +1.3300453e-12 </wgt>
<wgt id='1605'> +1.3298592e-12 </wgt>
<wgt id='1606'> +1.3298246e-12 </wgt>
<wgt id='1607'> +1.3296768e-12 </wgt>
<wgt id='1608'> +1.3298303e-12 </wgt>
<wgt id='1609'> +1.3298314e-12 </wgt>
<wgt id='1610'> +1.3024540e-12 </wgt>
<wgt id='1611'> +1.3591085e-12 </wgt>
<wgt id='1612'> +1.5139577e-12 </wgt>
<wgt id='1613'> +1.5074984e-12 </wgt>
<wgt id='1614'> +1.5539380e-12 </wgt>
<wgt id='1615'> +1.5053785e-12 </wgt>
<wgt id='1616'> +1.5514001e-12 </wgt>
<wgt id='1617'> +1.5461977e-12 </wgt>
<wgt id='1618'> +1.5355725e-12 </wgt>
<wgt id='1619'> +1.5286529e-12 </wgt>
<wgt id='1620'> +1.5063768e-12 </wgt>
<wgt id='1621'> +1.5322914e-12 </wgt>
<wgt id='1622'> +1.5007940e-12 </wgt>
<wgt id='1623'> +1.5335234e-12 </wgt>
<wgt id='1624'> +1.5243127e-12 </wgt>
<wgt id='1625'> +1.4832025e-12 </wgt>
<wgt id='1626'> +1.4924921e-12 </wgt>
<wgt id='1627'> +1.5299246e-12 </wgt>
<wgt id='1628'> +1.5528211e-12 </wgt>
<wgt id='1629'> +1.5074374e-12 </wgt>
<wgt id='1630'> +1.4941978e-12 </wgt>
<wgt id='1631'> +1.5243682e-12 </wgt>
<wgt id='1632'> +1.4865921e-12 </wgt>
<wgt id='1633'> +1.5088316e-12 </wgt>
<wgt id='1634'> +1.5112069e-12 </wgt>
<wgt id='1635'> +1.4776738e-12 </wgt>
<wgt id='1636'> +1.5799005e-12 </wgt>
<wgt id='1637'> +1.4866084e-12 </wgt>
<wgt id='1638'> +1.5038872e-12 </wgt>
<wgt id='1639'> +1.5206399e-12 </wgt>
<wgt id='1640'> +1.4936884e-12 </wgt>
<wgt id='1641'> +1.5095283e-12 </wgt>
<wgt id='1642'> +1.5036410e-12 </wgt>
<wgt id='1643'> +1.5667395e-12 </wgt>
<wgt id='1644'> +1.4496291e-12 </wgt>
<wgt id='1645'> +1.4975778e-12 </wgt>
<wgt id='1646'> +1.5103276e-12 </wgt>
<wgt id='1647'> +1.5033036e-12 </wgt>
<wgt id='1648'> +1.5232627e-12 </wgt>
<wgt id='1649'> +1.5711169e-12 </wgt>
<wgt id='1650'> +1.5156819e-12 </wgt>
<wgt id='1651'> +1.5371617e-12 </wgt>
<wgt id='1652'> +1.5182404e-12 </wgt>
<wgt id='1653'> +1.5224886e-12 </wgt>
<wgt id='1654'> +1.5271036e-12 </wgt>
<wgt id='1655'> +1.5290836e-12 </wgt>
<wgt id='1656'> +1.4537877e-12 </wgt>
<wgt id='1657'> +1.5206356e-12 </wgt>
<wgt id='1658'> +1.5349534e-12 </wgt>
<wgt id='1659'> +1.5243127e-12 </wgt>
<wgt id='1660'> +1.5283361e-12 </wgt>
<wgt id='1661'> +1.5117098e-12 </wgt>
<wgt id='1662'> +1.4999960e-12 </wgt>
<wgt id='1663'> +1.4935416e-12 </wgt>
<wgt id='1664'> +1.4787538e-12 </wgt>
<wgt id='1665'> +1.5067617e-12 </wgt>
<wgt id='1666'> +1.5342229e-12 </wgt>
<wgt id='1667'> +1.5255005e-12 </wgt>
<wgt id='1668'> +1.5500148e-12 </wgt>
<wgt id='1669'> +1.4590012e-12 </wgt>
<wgt id='1670'> +1.5099373e-12 </wgt>
<wgt id='1671'> +1.4665264e-12 </wgt>
<wgt id='1672'> +1.4813990e-12 </wgt>
<wgt id='1673'> +1.4882835e-12 </wgt>
<wgt id='1674'> +1.5026871e-12 </wgt>
<wgt id='1675'> +1.4843126e-12 </wgt>
<wgt id='1676'> +1.5189163e-12 </wgt>
<wgt id='1677'> +1.5552627e-12 </wgt>
<wgt id='1678'> +1.4992487e-12 </wgt>
<wgt id='1679'> +1.5258064e-12 </wgt>
<wgt id='1680'> +1.4995637e-12 </wgt>
<wgt id='1681'> +1.4870826e-12 </wgt>
<wgt id='1682'> +1.5106276e-12 </wgt>
<wgt id='1683'> +1.5044154e-12 </wgt>
<wgt id='1684'> +1.5198252e-12 </wgt>
<wgt id='1685'> +1.4953638e-12 </wgt>
<wgt id='1686'> +1.5155671e-12 </wgt>
<wgt id='1687'> +1.5338971e-12 </wgt>
<wgt id='1688'> +1.5343304e-12 </wgt>
<wgt id='1689'> +1.4912380e-12 </wgt>
<wgt id='1690'> +1.4489825e-12 </wgt>
<wgt id='1691'> +1.5031270e-12 </wgt>
<wgt id='1692'> +1.5345269e-12 </wgt>
<wgt id='1693'> +1.5365513e-12 </wgt>
<wgt id='1694'> +1.4977291e-12 </wgt>
<wgt id='1695'> +1.5456733e-12 </wgt>
<wgt id='1696'> +1.5048959e-12 </wgt>
<wgt id='1697'> +1.5355239e-12 </wgt>
<wgt id='1698'> +1.4983856e-12 </wgt>
<wgt id='1699'> +1.5306967e-12 </wgt>
<wgt id='1700'> +1.5282351e-12 </wgt>
<wgt id='1701'> +1.5235940e-12 </wgt>
<wgt id='1702'> +1.5054692e-12 </wgt>
<wgt id='1703'> +1.5099348e-12 </wgt>
<wgt id='1704'> +1.5226080e-12 </wgt>
<wgt id='1705'> +1.5025464e-12 </wgt>
<wgt id='1706'> +1.5212175e-12 </wgt>
<wgt id='1707'> +1.5363129e-12 </wgt>
<wgt id='1708'> +1.5167903e-12 </wgt>
<wgt id='1709'> +1.4980562e-12 </wgt>
<wgt id='1710'> +1.5083651e-12 </wgt>
<wgt id='1711'> +1.5670447e-12 </wgt>
<wgt id='1712'> +1.5115022e-12 </wgt>
<wgt id='1713'> +1.2860841e-12 </wgt>
<wgt id='1714'> +1.2849715e-12 </wgt>
<wgt id='1715'> +1.2837785e-12 </wgt>
<wgt id='1716'> +1.3070517e-12 </wgt>
<wgt id='1717'> +1.2829721e-12 </wgt>
<wgt id='1718'> +1.3178368e-12 </wgt>
<wgt id='1719'> +1.3385311e-12 </wgt>
<wgt id='1720'> +1.2762637e-12 </wgt>
<wgt id='1721'> +1.2853480e-12 </wgt>
<wgt id='1722'> +1.2871738e-12 </wgt>
<wgt id='1723'> +1.2505419e-12 </wgt>
<wgt id='1724'> +1.0872444e-12 </wgt>
<wgt id='1725'> +1.3342957e-12 </wgt>
<wgt id='1726'> +1.3421954e-12 </wgt>
<wgt id='1727'> +1.2533493e-12 </wgt>
<wgt id='1728'> +1.3018199e-12 </wgt>
<wgt id='1729'> +1.2778295e-12 </wgt>
<wgt id='1730'> +1.2753009e-12 </wgt>
<wgt id='1731'> +1.2695612e-12 </wgt>
<wgt id='1732'> +1.3202708e-12 </wgt>
<wgt id='1733'> +1.3353637e-12 </wgt>
<wgt id='1734'> +1.3207520e-12 </wgt>
<wgt id='1735'> +1.2268551e-12 </wgt>
<wgt id='1736'> +1.3655245e-12 </wgt>
<wgt id='1737'> +1.3282878e-12 </wgt>
<wgt id='1738'> +1.2829083e-12 </wgt>
<wgt id='1739'> +1.2972435e-12 </wgt>
<wgt id='1740'> +1.2618828e-12 </wgt>
<wgt id='1741'> +1.2836543e-12 </wgt>
<wgt id='1742'> +1.3100629e-12 </wgt>
<wgt id='1743'> +1.3276056e-12 </wgt>
<wgt id='1744'> +1.3229180e-12 </wgt>
<wgt id='1745'> +1.1924681e-12 </wgt>
<wgt id='1746'> +1.2899263e-12 </wgt>
<wgt id='1747'> +1.3170539e-12 </wgt>
<wgt id='1748'> +1.2829252e-12 </wgt>
<wgt id='1749'> +1.2926667e-12 </wgt>
<wgt id='1750'> +1.3076469e-12 </wgt>
<wgt id='1751'> +1.2291090e-12 </wgt>
<wgt id='1752'> +1.2845278e-12 </wgt>
<wgt id='1753'> +1.2857766e-12 </wgt>
<wgt id='1754'> +1.3075041e-12 </wgt>
<wgt id='1755'> +1.2789521e-12 </wgt>
<wgt id='1756'> +1.2765845e-12 </wgt>
<wgt id='1757'> +1.2853144e-12 </wgt>
<wgt id='1758'> +1.2914369e-12 </wgt>
<wgt id='1759'> +1.3237382e-12 </wgt>
<wgt id='1760'> +1.2684474e-12 </wgt>
<wgt id='1761'> +1.2917529e-12 </wgt>
<wgt id='1762'> +1.3120946e-12 </wgt>
<wgt id='1763'> +1.2913421e-12 </wgt>
<wgt id='1764'> +1.2879996e-12 </wgt>
<wgt id='1765'> +1.2677527e-12 </wgt>
<wgt id='1766'> +1.3177184e-12 </wgt>
<wgt id='1767'> +1.2904414e-12 </wgt>
<wgt id='1768'> +1.2658676e-12 </wgt>
<wgt id='1769'> +1.2747156e-12 </wgt>
<wgt id='1770'> +1.3224382e-12 </wgt>
<wgt id='1771'> +1.2739157e-12 </wgt>
<wgt id='1772'> +1.3379439e-12 </wgt>
<wgt id='1773'> +1.2849429e-12 </wgt>
<wgt id='1774'> +1.2931810e-12 </wgt>
<wgt id='1775'> +1.2954388e-12 </wgt>
<wgt id='1776'> +1.2964948e-12 </wgt>
<wgt id='1777'> +1.2311586e-12 </wgt>
<wgt id='1778'> +1.2564338e-12 </wgt>
<wgt id='1779'> +1.2965053e-12 </wgt>
<wgt id='1780'> +1.3115565e-12 </wgt>
<wgt id='1781'> +1.2905827e-12 </wgt>
<wgt id='1782'> +1.2302441e-12 </wgt>
<wgt id='1783'> +1.2644091e-12 </wgt>
<wgt id='1784'> +1.2646394e-12 </wgt>
<wgt id='1785'> +1.2737750e-12 </wgt>
<wgt id='1786'> +1.1968709e-12 </wgt>
<wgt id='1787'> +1.3252592e-12 </wgt>
<wgt id='1788'> +1.2797382e-12 </wgt>
<wgt id='1789'> +1.1954808e-12 </wgt>
<wgt id='1790'> +1.2652677e-12 </wgt>
<wgt id='1791'> +1.2924852e-12 </wgt>
<wgt id='1792'> +1.2471204e-12 </wgt>
<wgt id='1793'> +1.2759092e-12 </wgt>
<wgt id='1794'> +1.2789339e-12 </wgt>
<wgt id='1795'> +1.2942337e-12 </wgt>
<wgt id='1796'> +1.3194251e-12 </wgt>
<wgt id='1797'> +1.2829394e-12 </wgt>
<wgt id='1798'> +1.2783435e-12 </wgt>
<wgt id='1799'> +1.2713072e-12 </wgt>
<wgt id='1800'> +1.2797693e-12 </wgt>
<wgt id='1801'> +1.2758981e-12 </wgt>
<wgt id='1802'> +1.3094016e-12 </wgt>
<wgt id='1803'> +1.2954233e-12 </wgt>
<wgt id='1804'> +1.2973059e-12 </wgt>
<wgt id='1805'> +1.2678357e-12 </wgt>
<wgt id='1806'> +1.2870382e-12 </wgt>
<wgt id='1807'> +1.2871455e-12 </wgt>
<wgt id='1808'> +1.2824825e-12 </wgt>
<wgt id='1809'> +1.2817214e-12 </wgt>
<wgt id='1810'> +1.3073016e-12 </wgt>
<wgt id='1811'> +1.3181426e-12 </wgt>
<wgt id='1812'> +1.3165286e-12 </wgt>
<wgt id='1813'> +1.3321228e-12 </wgt>
<wgt id='1814'> +1.2819645e-12 </wgt>
<wgt id='1815'> +1.4027606e-12 </wgt>
<wgt id='1816'> +1.2860841e-12 </wgt>
<wgt id='1817'> +1.2849715e-12 </wgt>
<wgt id='1818'> +1.2837785e-12 </wgt>
<wgt id='1819'> +1.3070517e-12 </wgt>
<wgt id='1820'> +1.2829721e-12 </wgt>
<wgt id='1821'> +1.3178368e-12 </wgt>
<wgt id='1822'> +1.3385311e-12 </wgt>
<wgt id='1823'> +1.2762637e-12 </wgt>
<wgt id='1824'> +1.2853480e-12 </wgt>
<wgt id='1825'> +1.2871738e-12 </wgt>
<wgt id='1826'> +1.2505419e-12 </wgt>
<wgt id='1827'> +1.0872444e-12 </wgt>
<wgt id='1828'> +1.3342957e-12 </wgt>
<wgt id='1829'> +1.3421954e-12 </wgt>
<wgt id='1830'> +1.2533493e-12 </wgt>
<wgt id='1831'> +1.3018199e-12 </wgt>
<wgt id='1832'> +1.2778295e-12 </wgt>
<wgt id='1833'> +1.2753009e-12 </wgt>
<wgt id='1834'> +1.2695612e-12 </wgt>
<wgt id='1835'> +1.3202708e-12 </wgt>
<wgt id='1836'> +1.3353637e-12 </wgt>
<wgt id='1837'> +1.3207520e-12 </wgt>
<wgt id='1838'> +1.2268551e-12 </wgt>
<wgt id='1839'> +1.3655245e-12 </wgt>
<wgt id='1840'> +1.3282878e-12 </wgt>
<wgt id='1841'> +1.2829083e-12 </wgt>
<wgt id='1842'> +1.2972435e-12 </wgt>
<wgt id='1843'> +1.2618828e-12 </wgt>
<wgt id='1844'> +1.2836543e-12 </wgt>
<wgt id='1845'> +1.3100629e-12 </wgt>
<wgt id='1846'> +1.3276056e-12 </wgt>
<wgt id='1847'> +1.3229180e-12 </wgt>
<wgt id='1848'> +1.1924681e-12 </wgt>
<wgt id='1849'> +1.2899263e-12 </wgt>
<wgt id='1850'> +1.3170539e-12 </wgt>
<wgt id='1851'> +1.2829252e-12 </wgt>
<wgt id='1852'> +1.2926667e-12 </wgt>
<wgt id='1853'> +1.3076469e-12 </wgt>
<wgt id='1854'> +1.2291090e-12 </wgt>
<wgt id='1855'> +1.2845278e-12 </wgt>
<wgt id='1856'> +1.2857766e-12 </wgt>
<wgt id='1857'> +1.3075041e-12 </wgt>
<wgt id='1858'> +1.2789521e-12 </wgt>
<wgt id='1859'> +1.2765845e-12 </wgt>
<wgt id='1860'> +1.2853144e-12 </wgt>
<wgt id='1861'> +1.2914369e-12 </wgt>
<wgt id='1862'> +1.3237382e-12 </wgt>
<wgt id='1863'> +1.2684474e-12 </wgt>
<wgt id='1864'> +1.2917529e-12 </wgt>
<wgt id='1865'> +1.3120946e-12 </wgt>
<wgt id='1866'> +1.2913421e-12 </wgt>
<wgt id='1867'> +1.2879996e-12 </wgt>
<wgt id='1868'> +1.2677527e-12 </wgt>
<wgt id='1869'> +1.3177184e-12 </wgt>
<wgt id='1870'> +1.2904414e-12 </wgt>
<wgt id='1871'> +1.2658676e-12 </wgt>
<wgt id='1872'> +1.2747156e-12 </wgt>
<wgt id='1873'> +1.3224382e-12 </wgt>
<wgt id='1874'> +1.2739157e-12 </wgt>
<wgt id='1875'> +1.3379439e-12 </wgt>
<wgt id='1876'> +1.2849429e-12 </wgt>
<wgt id='1877'> +1.2931810e-12 </wgt>
<wgt id='1878'> +1.2954388e-12 </wgt>
<wgt id='1879'> +1.2964948e-12 </wgt>
<wgt id='1880'> +1.2311586e-12 </wgt>
<wgt id='1881'> +1.2564338e-12 </wgt>
<wgt id='1882'> +1.2965053e-12 </wgt>
<wgt id='1883'> +1.3115565e-12 </wgt>
<wgt id='1884'> +1.2905827e-12 </wgt>
<wgt id='1885'> +1.2302441e-12 </wgt>
<wgt id='1886'> +1.2644091e-12 </wgt>
<wgt id='1887'> +1.2646394e-12 </wgt>
<wgt id='1888'> +1.2737750e-12 </wgt>
<wgt id='1889'> +1.1968709e-12 </wgt>
<wgt id='1890'> +1.3252592e-12 </wgt>
<wgt id='1891'> +1.2797382e-12 </wgt>
<wgt id='1892'> +1.1954808e-12 </wgt>
<wgt id='1893'> +1.2652677e-12 </wgt>
<wgt id='1894'> +1.2924852e-12 </wgt>
<wgt id='1895'> +1.2471204e-12 </wgt>
<wgt id='1896'> +1.2759092e-12 </wgt>
<wgt id='1897'> +1.2789339e-12 </wgt>
<wgt id='1898'> +1.2942337e-12 </wgt>
<wgt id='1899'> +1.3194251e-12 </wgt>
<wgt id='1900'> +1.2829394e-12 </wgt>
<wgt id='1901'> +1.2783435e-12 </wgt>
<wgt id='1902'> +1.2713072e-12 </wgt>
<wgt id='1903'> +1.2797693e-12 </wgt>
<wgt id='1904'> +1.2758981e-12 </wgt>
<wgt id='1905'> +1.3094016e-12 </wgt>
<wgt id='1906'> +1.2954233e-12 </wgt>
<wgt id='1907'> +1.2973059e-12 </wgt>
<wgt id='1908'> +1.2678357e-12 </wgt>
<wgt id='1909'> +1.2870382e-12 </wgt>
<wgt id='1910'> +1.2871455e-12 </wgt>
<wgt id='1911'> +1.2824825e-12 </wgt>
<wgt id='1912'> +1.2817214e-12 </wgt>
<wgt id='1913'> +1.3073016e-12 </wgt>
<wgt id='1914'> +1.3181426e-12 </wgt>
<wgt id='1915'> +1.3165286e-12 </wgt>
<wgt id='1916'> +1.3321228e-12 </wgt>
<wgt id='1917'> +1.2763128e-12 </wgt>
<wgt id='1918'> +1.2992307e-12 </wgt>
<wgt id='1919'> +1.3155373e-12 </wgt>
</rwgt>
</event>
<event>
 9      1 +1.5607000e-12 1.26646600e+02 7.81860800e-03 1.11902000e-01
        4 -1    0    0  502    0 -0.0000000000e+00 +0.0000000000e+00 +9.8136736469e+01 9.8147009352e+01 0.0000000000e+00 0.0000e+00 -1.0000e+00
       21 -1    0    0  501  502 +0.0000000000e+00 -0.0000000000e+00 -4.0852457289e+01 4.0852457289e+01 1.4200000000e+00 0.0000e+00 -1.0000e+00
     1023  2    1    2    0    0 -5.4613745439e+01 +3.0004046532e+01 +3.3176473238e+01 7.2170530494e+01 1.5000103201e+01 0.0000e+00 0.0000e+00
  1000023  2    3    3    0    0 -1.6894657814e+01 +5.8306176083e+00 +1.3049406488e+01 2.2802696298e+01 5.5000349479e+00 0.0000e+00 0.0000e+00
        4  1    1    2  501    0 +5.4613745439e+01 -3.0004046532e+01 +2.4107805943e+01 6.6828936147e+01 1.4200000000e+00 0.0000e+00 -1.0000e+00
  1000022  1    4    4    0    0 -1.6820172795e+01 +5.8678773729e+00 +1.3028050226e+01 2.2629191113e+01 5.0000000000e+00 0.0000e+00 -1.0000e+00
      -11  1    4    4    0    0 +2.0234172983e-02 -4.5759597683e-02 +5.3372845006e-02 7.3159307278e-02 5.1100000000e-04 0.0000e+00 -1.0000e+00
       11  1    4    4    0    0 -9.4719191686e-02 +8.4998331211e-03 -3.2016583552e-02 1.0034587774e-01 5.1100000000e-04 0.0000e+00 1.0000e+00
  1000022  1    3    3    0    0 -3.7719087625e+01 +2.4173428924e+01 +2.0127066750e+01 4.9367834196e+01 5.0000000000e+00 0.0000e+00 -1.0000e+00
<mgrwt>
<rscale>  1 0.12664661E+03</rscale>
<asrwt>0</asrwt>
<pdfrwt beam="1">  1       21 0.62849936E-02 0.12664661E+03</pdfrwt>
<pdfrwt beam="2">  1        4 0.15100648E-01 0.12664661E+03</pdfrwt>
<totfact> 0.35919471E+05</totfact>
</mgrwt>
<rwgt>
<wgt id='1001'> +1.5607000e-12 </wgt>
<wgt id='1002'> +1.5607196e-12 </wgt>
<wgt id='1003'> +1.5607135e-12 </wgt>
<wgt id='1004'> +1.5465020e-12 </wgt>
<wgt id='1005'> +1.5607000e-12 </wgt>
<wgt id='1006'> +1.4078101e-12 </wgt>
<wgt id='1007'> +1.4076702e-12 </wgt>
<wgt id='1008'> +1.4077162e-12 </wgt>
<wgt id='1009'> +1.3773463e-12 </wgt>
<wgt id='1010'> +1.4078101e-12 </wgt>
<wgt id='1011'> +1.7522055e-12 </wgt>
<wgt id='1012'> +1.7524777e-12 </wgt>
<wgt id='1013'> +1.7523890e-12 </wgt>
<wgt id='1014'> +1.7650222e-12 </wgt>
<wgt id='1015'> +1.7522055e-12 </wgt>
<wgt id='1016'> +1.7142648e-12 </wgt>
<wgt id='1017'> +1.7147288e-12 </wgt>
<wgt id='1018'> +1.7145774e-12 </wgt>
<wgt id='1019'> +1.7523890e-12 </wgt>
<wgt id='1020'> +1.7142648e-12 </wgt>
<wgt id='1021'> +1.5463313e-12 </wgt>
<wgt id='1022'> +1.5465767e-12 </wgt>
<wgt id='1023'> +1.5464968e-12 </wgt>
<wgt id='1024'> +1.5607135e-12 </wgt>
<wgt id='1025'> +1.5463313e-12 </wgt>
<wgt id='1026'> +1.9246134e-12 </wgt>
<wgt id='1027'> +1.9254093e-12 </wgt>
<wgt id='1028'> +1.9251495e-12 </wgt>
<wgt id='1029'> +2.0000010e-12 </wgt>
<wgt id='1030'> +1.9246134e-12 </wgt>
<wgt id='1031'> +1.3776788e-12 </wgt>
<wgt id='1032'> +1.3771843e-12 </wgt>
<wgt id='1033'> +1.3773463e-12 </wgt>
<wgt id='1034'> +1.3025551e-12 </wgt>
<wgt id='1035'> +1.3776788e-12 </wgt>
<wgt id='1036'> +1.2427181e-12 </wgt>
<wgt id='1037'> +1.2421329e-12 </wgt>
<wgt id='1038'> +1.2423245e-12 </wgt>
<wgt id='1039'> +1.1600822e-12 </wgt>
<wgt id='1040'> +1.2427181e-12 </wgt>
<wgt id='1041'> +1.5467267e-12 </wgt>
<wgt id='1042'> +1.5463923e-12 </wgt>
<wgt id='1043'> +1.5465020e-12 </wgt>
<wgt id='1044'> +1.4866056e-12 </wgt>
<wgt id='1045'> +1.5467267e-12 </wgt>
<wgt id='1046'> +1.5607000e-12 </wgt>
<wgt id='1047'> +1.4014300e-12 </wgt>
<wgt id='1048'> +1.5660467e-12 </wgt>
<wgt id='1049'> +1.6218638e-12 </wgt>
<wgt id='1050'> +1.5801781e-12 </wgt>
<wgt id='1051'> +1.5801920e-12 </wgt>
<wgt id='1052'> +1.4861018e-12 </wgt>
<wgt id='1053'> +1.5620683e-12 </wgt>
<wgt id='1054'> +1.5996266e-12 </wgt>
<wgt id='1055'> +1.6567941e-12 </wgt>
<wgt id='1056'> +1.6113078e-12 </wgt>
<wgt id='1057'> +1.5750204e-12 </wgt>
<wgt id='1058'> +1.5534412e-12 </wgt>
<wgt id='1059'> +1.5727212e-12 </wgt>
<wgt id='1060'> +1.5257182e-12 </wgt>
<wgt id='1061'> +1.6191722e-12 </wgt>
<wgt id='1062'> +1.5895506e-12 </wgt>
<wgt id='1063'> +1.5983596e-12 </wgt>
<wgt id='1064'> +1.5634739e-12 </wgt>
<wgt id='1065'> +1.5472827e-12 </wgt>
<wgt id='1066'> +1.6421148e-12 </wgt>
<wgt id='1067'> +1.5593639e-12 </wgt>
<wgt id='1068'> +1.5190264e-12 </wgt>
<wgt id='1069'> +1.5275364e-12 </wgt>
<wgt id='1070'> +1.5400376e-12 </wgt>
<wgt id='1071'> +1.5790376e-12 </wgt>
<wgt id='1072'> +1.5307940e-12 </wgt>
<wgt id='1073'> +1.5581781e-12 </wgt>
<wgt id='1074'> +1.5351556e-12 </wgt>
<wgt id='1075'> +1.5727699e-12 </wgt>
<wgt id='1076'> +1.6131430e-12 </wgt>
<wgt id='1077'> +1.4997147e-12 </wgt>
<wgt id='1078'> +1.6095748e-12 </wgt>
<wgt id='1079'> +1.5237576e-12 </wgt>
<wgt id='1080'> +1.5463072e-12 </wgt>
<wgt id='1081'> +1.5673026e-12 </wgt>
<wgt id='1082'> +1.5389368e-12 </wgt>
<wgt id='1083'> +1.5714157e-12 </wgt>
<wgt id='1084'> +1.5862299e-12 </wgt>
<wgt id='1085'> +1.5469933e-12 </wgt>
<wgt id='1086'> +1.5448137e-12 </wgt>
<wgt id='1087'> +1.5810245e-12 </wgt>
<wgt id='1088'> +1.5006208e-12 </wgt>
<wgt id='1089'> +1.5157885e-12 </wgt>
<wgt id='1090'> +1.4839536e-12 </wgt>
<wgt id='1091'> +1.5330977e-12 </wgt>
<wgt id='1092'> +1.4996167e-12 </wgt>
<wgt id='1093'> +1.5105466e-12 </wgt>
<wgt id='1094'> +1.5480408e-12 </wgt>
<wgt id='1095'> +1.5593401e-12 </wgt>
<wgt id='1096'> +1.5516561e-12 </wgt>
<wgt id='1097'> +1.5284180e-12 </wgt>
<wgt id='1098'> +1.5990217e-12 </wgt>
<wgt id='1099'> +1.5861872e-12 </wgt>
<wgt id='1100'> +1.4860780e-12 </wgt>
<wgt id='1101'> +1.4972505e-12 </wgt>
<wgt id='1102'> +1.5355287e-12 </wgt>
<wgt id='1103'> +1.4958577e-12 </wgt>
<wgt id='1104'> +1.5713654e-12 </wgt>
<wgt id='1105'> +1.6649112e-12 </wgt>
<wgt id='1106'> +1.5189920e-12 </wgt>
<wgt id='1107'> +1.5433706e-12 </wgt>
<wgt id='1108'> +1.5817227e-12 </wgt>
<wgt id='1109'> +1.5187487e-12 </wgt>
<wgt id='1110'> +1.5819661e-12 </wgt>
<wgt id='1111'> +1.5225754e-12 </wgt>
<wgt id='1112'> +1.5236636e-12 </wgt>
<wgt id='1113'> +1.4505858e-12 </wgt>
<wgt id='1114'> +1.5985055e-12 </wgt>
<wgt id='1115'> +1.5536216e-12 </wgt>
<wgt id='1116'> +1.5312851e-12 </wgt>
<wgt id='1117'> +1.6475073e-12 </wgt>
<wgt id='1118'> +1.5300440e-12 </wgt>
<wgt id='1119'> +1.6838741e-12 </wgt>
<wgt id='1120'> +1.6883375e-12 </wgt>
<wgt id='1121'> +1.6048137e-12 </wgt>
<wgt id='1122'> +1.5035445e-12 </wgt>
<wgt id='1123'> +1.6489237e-12 </wgt>
<wgt id='1124'> +1.5814205e-12 </wgt>
<wgt id='1125'> +1.5918270e-12 </wgt>
<wgt id='1126'> +1.5425396e-12 </wgt>
<wgt id='1127'> +1.5161435e-12 </wgt>
<wgt id='1128'> +1.5895506e-12 </wgt>
<wgt id='1129'> +1.5223147e-12 </wgt>
<wgt id='1130'> +1.5988647e-12 </wgt>
<wgt id='1131'> +1.6020243e-12 </wgt>
<wgt id='1132'> +1.4408705e-12 </wgt>
<wgt id='1133'> +1.5935847e-12 </wgt>
<wgt id='1134'> +1.5536286e-12 </wgt>
<wgt id='1135'> +1.7212181e-12 </wgt>
<wgt id='1136'> +1.5313356e-12 </wgt>
<wgt id='1137'> +1.5238998e-12 </wgt>
<wgt id='1138'> +1.6508520e-12 </wgt>
<wgt id='1139'> +1.6051488e-12 </wgt>
<wgt id='1140'> +1.5782512e-12 </wgt>
<wgt id='1141'> +1.5263099e-12 </wgt>
<wgt id='1142'> +1.5483302e-12 </wgt>
<wgt id='1143'> +1.4713828e-12 </wgt>
<wgt id='1144'> +1.6155386e-12 </wgt>
<wgt id='1145'> +1.5966293e-12 </wgt>
<wgt id='1146'> +1.5830395e-12 </wgt>
<wgt id='1147'> +1.3690585e-12 </wgt>
<wgt id='1148'> +1.3965091e-12 </wgt>
<wgt id='1149'> +1.4153652e-12 </wgt>
<wgt id='1150'> +1.3891408e-12 </wgt>
<wgt id='1151'> +1.0656653e-12 </wgt>
<wgt id='1152'> +1.4978893e-12 </wgt>
<wgt id='1153'> +1.4920523e-12 </wgt>
<wgt id='1154'> +1.5014203e-12 </wgt>
<wgt id='1155'> +1.4986640e-12 </wgt>
<wgt id='1156'> +1.4975841e-12 </wgt>
<wgt id='1157'> +1.4941287e-12 </wgt>
<wgt id='1158'> +1.5030255e-12 </wgt>
<wgt id='1159'> +1.4947909e-12 </wgt>
<wgt id='1160'> +1.4999223e-12 </wgt>
<wgt id='1161'> +1.4905991e-12 </wgt>
<wgt id='1162'> +1.5029214e-12 </wgt>
<wgt id='1163'> +1.5027412e-12 </wgt>
<wgt id='1164'> +1.4931047e-12 </wgt>
<wgt id='1165'> +1.4868525e-12 </wgt>
<wgt id='1166'> +1.5084847e-12 </wgt>
<wgt id='1167'> +1.5019570e-12 </wgt>
<wgt id='1168'> +1.4899563e-12 </wgt>
<wgt id='1169'> +1.5002714e-12 </wgt>
<wgt id='1170'> +1.4960693e-12 </wgt>
<wgt id='1171'> +1.4967570e-12 </wgt>
<wgt id='1172'> +1.4993547e-12 </wgt>
<wgt id='1173'> +1.4933156e-12 </wgt>
<wgt id='1174'> +1.5019111e-12 </wgt>
<wgt id='1175'> +1.4952614e-12 </wgt>
<wgt id='1176'> +1.4990018e-12 </wgt>
<wgt id='1177'> +1.4982318e-12 </wgt>
<wgt id='1178'> +1.4975861e-12 </wgt>
<wgt id='1179'> +1.5174406e-12 </wgt>
<wgt id='1180'> +1.4738086e-12 </wgt>
<wgt id='1181'> +1.4897182e-12 </wgt>
<wgt id='1182'> +1.5057432e-12 </wgt>
<wgt id='1183'> +1.4972950e-12 </wgt>
<wgt id='1184'> +1.4980754e-12 </wgt>
<wgt id='1185'> +1.5004783e-12 </wgt>
<wgt id='1186'> +1.4966879e-12 </wgt>
<wgt id='1187'> +1.4971745e-12 </wgt>
<wgt id='1188'> +1.4981828e-12 </wgt>
<wgt id='1189'> +1.4977960e-12 </wgt>
<wgt id='1190'> +1.4862534e-12 </wgt>
<wgt id='1191'> +1.4792395e-12 </wgt>
<wgt id='1192'> +1.5048255e-12 </wgt>
<wgt id='1193'> +1.4282616e-12 </wgt>
<wgt id='1194'> +1.4317721e-12 </wgt>
<wgt id='1195'> +1.4253048e-12 </wgt>
<wgt id='1196'> +1.4307972e-12 </wgt>
<wgt id='1197'> +1.4253996e-12 </wgt>
<wgt id='1198'> +1.4304513e-12 </wgt>
<wgt id='1199'> +1.4249441e-12 </wgt>
<wgt id='1200'> +1.4299510e-12 </wgt>
<wgt id='1201'> +1.4271530e-12 </wgt>
<wgt id='1202'> +1.4249997e-12 </wgt>
<wgt id='1203'> +1.4329348e-12 </wgt>
<wgt id='1204'> +1.4090818e-12 </wgt>
<wgt id='1205'> +1.4400616e-12 </wgt>
<wgt id='1206'> +1.4337854e-12 </wgt>
<wgt id='1207'> +1.4206046e-12 </wgt>
<wgt id='1208'> +1.4203043e-12 </wgt>
<wgt id='1209'> +1.4311361e-12 </wgt>
<wgt id='1210'> +1.4379977e-12 </wgt>
<wgt id='1211'> +1.4113945e-12 </wgt>
<wgt id='1212'> +1.4245573e-12 </wgt>
<wgt id='1213'> +1.4316447e-12 </wgt>
<wgt id='1214'> +1.4225003e-12 </wgt>
<wgt id='1215'> +1.4370339e-12 </wgt>
<wgt id='1216'> +1.4352078e-12 </wgt>
<wgt id='1217'> +1.4237215e-12 </wgt>
<wgt id='1218'> +1.4334776e-12 </wgt>
<wgt id='1219'> +1.4255764e-12 </wgt>
<wgt id='1220'> +1.4296131e-12 </wgt>
<wgt id='1221'> +1.4292485e-12 </wgt>
<wgt id='1222'> +1.4190252e-12 </wgt>
<wgt id='1223'> +1.4452019e-12 </wgt>
<wgt id='1224'> +1.4291325e-12 </wgt>
<wgt id='1225'> +1.4278618e-12 </wgt>
<wgt id='1226'> +1.4304793e-12 </wgt>
<wgt id='1227'> +1.4269302e-12 </wgt>
<wgt id='1228'> +1.4231658e-12 </wgt>
<wgt id='1229'> +1.4308870e-12 </wgt>
<wgt id='1230'> +1.4315007e-12 </wgt>
<wgt id='1231'> +1.4071416e-12 </wgt>
<wgt id='1232'> +1.4240349e-12 </wgt>
<wgt id='1233'> +1.4293818e-12 </wgt>
<wgt id='1234'> +1.4282616e-12 </wgt>
<wgt id='1235'> +1.4179608e-12 </wgt>
<wgt id='1236'> +1.4218028e-12 </wgt>
<wgt id='1237'> +1.4252902e-12 </wgt>
<wgt id='1238'> +1.4314916e-12 </wgt>
<wgt id='1239'> +1.4340452e-12 </wgt>
<wgt id='1240'> +1.4362519e-12 </wgt>
<wgt id='1241'> +1.3613210e-12 </wgt>
<wgt id='1242'> +1.3616853e-12 </wgt>
<wgt id='1243'> +1.3610358e-12 </wgt>
<wgt id='1244'> +1.3536473e-12 </wgt>
<wgt id='1245'> +1.3670902e-12 </wgt>
<wgt id='1246'> +1.3631754e-12 </wgt>
<wgt id='1247'> +1.3598681e-12 </wgt>
<wgt id='1248'> +1.3612112e-12 </wgt>
<wgt id='1249'> +1.3615184e-12 </wgt>
<wgt id='1250'> +1.3577423e-12 </wgt>
<wgt id='1251'> +1.3639658e-12 </wgt>
<wgt id='1252'> +1.3581828e-12 </wgt>
<wgt id='1253'> +1.3638838e-12 </wgt>
<wgt id='1254'> +1.3410485e-12 </wgt>
<wgt id='1255'> +1.3736585e-12 </wgt>
<wgt id='1256'> +1.3669039e-12 </wgt>
<wgt id='1257'> +1.3475960e-12 </wgt>
<wgt id='1258'> +1.3734245e-12 </wgt>
<wgt id='1259'> +1.3504063e-12 </wgt>
<wgt id='1260'> +1.3654190e-12 </wgt>
<wgt id='1261'> +1.3568313e-12 </wgt>
<wgt id='1262'> +1.3642624e-12 </wgt>
<wgt id='1263'> +1.3599748e-12 </wgt>
<wgt id='1264'> +1.3685622e-12 </wgt>
<wgt id='1265'> +1.3577571e-12 </wgt>
<wgt id='1266'> +1.3636106e-12 </wgt>
<wgt id='1267'> +1.3605242e-12 </wgt>
<wgt id='1268'> +1.3597423e-12 </wgt>
<wgt id='1269'> +1.3671632e-12 </wgt>
<wgt id='1270'> +1.3560304e-12 </wgt>
<wgt id='1271'> +1.3556715e-12 </wgt>
<wgt id='1272'> +1.3631999e-12 </wgt>
<wgt id='1273'> +1.3602893e-12 </wgt>
<wgt id='1274'> +1.3615056e-12 </wgt>
<wgt id='1275'> +1.3603418e-12 </wgt>
<wgt id='1276'> +1.3626032e-12 </wgt>
<wgt id='1277'> +1.3594099e-12 </wgt>
<wgt id='1278'> +1.3573152e-12 </wgt>
<wgt id='1279'> +1.3516286e-12 </wgt>
<wgt id='1280'> +1.3628879e-12 </wgt>
<wgt id='1281'> +1.3517703e-12 </wgt>
<wgt id='1282'> +1.3613210e-12 </wgt>
<wgt id='1283'> +1.3505839e-12 </wgt>
<wgt id='1284'> +1.3546016e-12 </wgt>
<wgt id='1285'> +1.3582695e-12 </wgt>
<wgt id='1286'> +1.3643505e-12 </wgt>
<wgt id='1287'> +1.3669393e-12 </wgt>
<wgt id='1288'> +1.3691206e-12 </wgt>
<wgt id='1289'> +1.4956202e-12 </wgt>
<wgt id='1290'> +1.4964134e-12 </wgt>
<wgt id='1291'> +1.4946547e-12 </wgt>
<wgt id='1292'> +1.4965893e-12 </wgt>
<wgt id='1293'> +1.4949008e-12 </wgt>
<wgt id='1294'> +1.5011915e-12 </wgt>
<wgt id='1295'> +1.4901500e-12 </wgt>
<wgt id='1296'> +1.4883296e-12 </wgt>
<wgt id='1297'> +1.5045881e-12 </wgt>
<wgt id='1298'> +1.5013957e-12 </wgt>
<wgt id='1299'> +1.4883070e-12 </wgt>
<wgt id='1300'> +1.4991060e-12 </wgt>
<wgt id='1301'> +1.4884831e-12 </wgt>
<wgt id='1302'> +1.4946222e-12 </wgt>
<wgt id='1303'> +1.4968884e-12 </wgt>
<wgt id='1304'> +1.4907325e-12 </wgt>
<wgt id='1305'> +1.4989459e-12 </wgt>
<wgt id='1306'> +1.4864613e-12 </wgt>
<wgt id='1307'> +1.5059105e-12 </wgt>
<wgt id='1308'> +1.4954692e-12 </wgt>
<wgt id='1309'> +1.4956569e-12 </wgt>
<wgt id='1310'> +1.4917957e-12 </wgt>
<wgt id='1311'> +1.4997604e-12 </wgt>
<wgt id='1312'> +1.4885561e-12 </wgt>
<wgt id='1313'> +1.5028865e-12 </wgt>
<wgt id='1314'> +1.5168333e-12 </wgt>
<wgt id='1315'> +1.4684370e-12 </wgt>
<wgt id='1316'> +1.5005874e-12 </wgt>
<wgt id='1317'> +1.4952147e-12 </wgt>
<wgt id='1318'> +1.5072850e-12 </wgt>
<wgt id='1319'> +1.4822214e-12 </wgt>
<wgt id='1320'> +1.4952480e-12 </wgt>
<wgt id='1321'> +1.4950399e-12 </wgt>
<wgt id='1322'> +1.4978666e-12 </wgt>
<wgt id='1323'> +1.4924704e-12 </wgt>
<wgt id='1324'> +1.4946494e-12 </wgt>
<wgt id='1325'> +1.5005643e-12 </wgt>
<wgt id='1326'> +1.4986225e-12 </wgt>
<wgt id='1327'> +1.4945924e-12 </wgt>
<wgt id='1328'> +1.4939282e-12 </wgt>
<wgt id='1329'> +1.4970943e-12 </wgt>
<wgt id='1330'> +1.4895408e-12 </wgt>
<wgt id='1331'> +1.5029592e-12 </wgt>
<wgt id='1332'> +1.5178732e-12 </wgt>
<wgt id='1333'> +1.4852005e-12 </wgt>
<wgt id='1334'> +1.4937012e-12 </wgt>
<wgt id='1335'> +1.5005186e-12 </wgt>
<wgt id='1336'> +1.4938110e-12 </wgt>
<wgt id='1337'> +1.4831777e-12 </wgt>
<wgt id='1338'> +1.4952746e-12 </wgt>
<wgt id='1339'> +1.4953458e-12 </wgt>
<wgt id='1340'> +1.4632984e-12 </wgt>
<wgt id='1341'> +1.4642371e-12 </wgt>
<wgt id='1342'> +1.4622849e-12 </wgt>
<wgt id='1343'> +1.4642676e-12 </wgt>
<wgt id='1344'> +1.4625904e-12 </wgt>
<wgt id='1345'> +1.4688395e-12 </wgt>
<wgt id='1346'> +1.4580586e-12 </wgt>
<wgt id='1347'> +1.4558096e-12 </wgt>
<wgt id='1348'> +1.4715823e-12 </wgt>
<wgt id='1349'> +1.4686048e-12 </wgt>
<wgt id='1350'> +1.4580506e-12 </wgt>
<wgt id='1351'> +1.4668733e-12 </wgt>
<wgt id='1352'> +1.4555928e-12 </wgt>
<wgt id='1353'> +1.4615646e-12 </wgt>
<wgt id='1354'> +1.4664395e-12 </wgt>
<wgt id='1355'> +1.4582056e-12 </wgt>
<wgt id='1356'> +1.4661443e-12 </wgt>
<wgt id='1357'> +1.4533409e-12 </wgt>
<wgt id='1358'> +1.4750031e-12 </wgt>
<wgt id='1359'> +1.4654960e-12 </wgt>
<wgt id='1360'> +1.4614724e-12 </wgt>
<wgt id='1361'> +1.4592238e-12 </wgt>
<wgt id='1362'> +1.4688063e-12 </wgt>
<wgt id='1363'> +1.4512025e-12 </wgt>
<wgt id='1364'> +1.4717213e-12 </wgt>
<wgt id='1365'> +1.4421198e-12 </wgt>
<wgt id='1366'> +1.4829188e-12 </wgt>
<wgt id='1367'> +1.4674243e-12 </wgt>
<wgt id='1368'> +1.4632925e-12 </wgt>
<wgt id='1369'> +1.4730701e-12 </wgt>
<wgt id='1370'> +1.4519075e-12 </wgt>
<wgt id='1371'> +1.4634052e-12 </wgt>
<wgt id='1372'> +1.4625448e-12 </wgt>
<wgt id='1373'> +1.4670832e-12 </wgt>
<wgt id='1374'> +1.4593481e-12 </wgt>
<wgt id='1375'> +1.4623445e-12 </wgt>
<wgt id='1376'> +1.4683391e-12 </wgt>
<wgt id='1377'> +1.4662489e-12 </wgt>
<wgt id='1378'> +1.4629077e-12 </wgt>
<wgt id='1379'> +1.4615052e-12 </wgt>
<wgt id='1380'> +1.4652292e-12 </wgt>
<wgt id='1381'> +1.4585921e-12 </wgt>
<wgt id='1382'> +1.4688560e-12 </wgt>
<wgt id='1383'> +1.4852369e-12 </wgt>
<wgt id='1384'> +1.4528243e-12 </wgt>
<wgt id='1385'> +1.4616108e-12 </wgt>
<wgt id='1386'> +1.4675464e-12 </wgt>
<wgt id='1387'> +1.4615663e-12 </wgt>
<wgt id='1388'> +1.4496557e-12 </wgt>
<wgt id='1389'> +1.4626659e-12 </wgt>
<wgt id='1390'> +1.4625740e-12 </wgt>
<wgt id='1391'> +1.4268768e-12 </wgt>
<wgt id='1392'> +1.3824768e-12 </wgt>
<wgt id='1393'> +1.3972783e-12 </wgt>
<wgt id='1394'> +1.4122226e-12 </wgt>
<wgt id='1395'> +1.4399147e-12 </wgt>
<wgt id='1396'> +1.4261507e-12 </wgt>
<wgt id='1397'> +1.5007402e-12 </wgt>
<wgt id='1398'> +1.4838608e-12 </wgt>
<wgt id='1399'> +1.4685325e-12 </wgt>
<wgt id='1400'> +1.4539913e-12 </wgt>
<wgt id='1401'> +1.4397110e-12 </wgt>
<wgt id='1402'> +1.4134373e-12 </wgt>
<wgt id='1403'> +1.4013091e-12 </wgt>
<wgt id='1404'> +1.3897707e-12 </wgt>
<wgt id='1405'> +1.4261507e-12 </wgt>
<wgt id='1406'> +1.4186354e-12 </wgt>
<wgt id='1407'> +1.4224530e-12 </wgt>
<wgt id='1408'> +1.4294026e-12 </wgt>
<wgt id='1409'> +1.4323627e-12 </wgt>
<wgt id='1410'> +1.3733510e-12 </wgt>
<wgt id='1411'> +1.3730950e-12 </wgt>
<wgt id='1412'> +1.3737180e-12 </wgt>
<wgt id='1413'> +1.3786180e-12 </wgt>
<wgt id='1414'> +1.3681413e-12 </wgt>
<wgt id='1415'> +1.3769366e-12 </wgt>
<wgt id='1416'> +1.3719653e-12 </wgt>
<wgt id='1417'> +1.3674283e-12 </wgt>
<wgt id='1418'> +1.3792682e-12 </wgt>
<wgt id='1419'> +1.3762014e-12 </wgt>
<wgt id='1420'> +1.3706529e-12 </wgt>
<wgt id='1421'> +1.3583898e-12 </wgt>
<wgt id='1422'> +1.3798491e-12 </wgt>
<wgt id='1423'> +1.3733550e-12 </wgt>
<wgt id='1424'> +1.3734395e-12 </wgt>
<wgt id='1425'> +1.3691774e-12 </wgt>
<wgt id='1426'> +1.3779006e-12 </wgt>
<wgt id='1427'> +1.3699124e-12 </wgt>
<wgt id='1428'> +1.3751793e-12 </wgt>
<wgt id='1429'> +1.3718037e-12 </wgt>
<wgt id='1430'> +1.3755563e-12 </wgt>
<wgt id='1431'> +1.3717377e-12 </wgt>
<wgt id='1432'> +1.3745946e-12 </wgt>
<wgt id='1433'> +1.3940560e-12 </wgt>
<wgt id='1434'> +1.3535677e-12 </wgt>
<wgt id='1435'> +1.3810205e-12 </wgt>
<wgt id='1436'> +1.3546133e-12 </wgt>
<wgt id='1437'> +1.3803149e-12 </wgt>
<wgt id='1438'> +1.3698399e-12 </wgt>
<wgt id='1439'> +1.3660680e-12 </wgt>
<wgt id='1440'> +1.3927346e-12 </wgt>
<wgt id='1441'> +1.3727080e-12 </wgt>
<wgt id='1442'> +1.3750194e-12 </wgt>
<wgt id='1443'> +1.3713007e-12 </wgt>
<wgt id='1444'> +1.3781474e-12 </wgt>
<wgt id='1445'> +1.3770952e-12 </wgt>
<wgt id='1446'> +1.3724107e-12 </wgt>
<wgt id='1447'> +1.3739102e-12 </wgt>
<wgt id='1448'> +1.3735766e-12 </wgt>
<wgt id='1449'> +1.3714794e-12 </wgt>
<wgt id='1450'> +1.3746680e-12 </wgt>
<wgt id='1451'> +1.3706841e-12 </wgt>
<wgt id='1452'> +1.3745952e-12 </wgt>
<wgt id='1453'> +1.3748866e-12 </wgt>
<wgt id='1454'> +1.3647386e-12 </wgt>
<wgt id='1455'> +1.3589171e-12 </wgt>
<wgt id='1456'> +1.3772867e-12 </wgt>
<wgt id='1457'> +1.3751187e-12 </wgt>
<wgt id='1458'> +1.3719180e-12 </wgt>
<wgt id='1459'> +1.3716387e-12 </wgt>
<wgt id='1460'> +1.3695878e-12 </wgt>
<wgt id='1461'> +1.3733510e-12 </wgt>
<wgt id='1462'> +1.3647343e-12 </wgt>
<wgt id='1463'> +1.3807753e-12 </wgt>
<wgt id='1464'> +1.3735314e-12 </wgt>
<wgt id='1465'> +1.4442943e-12 </wgt>
<wgt id='1466'> +1.4283609e-12 </wgt>
<wgt id='1467'> +1.4133320e-12 </wgt>
<wgt id='1468'> +1.3999612e-12 </wgt>
<wgt id='1469'> +1.3860673e-12 </wgt>
<wgt id='1470'> +1.3622790e-12 </wgt>
<wgt id='1471'> +1.3497766e-12 </wgt>
<wgt id='1472'> +1.3387218e-12 </wgt>
<wgt id='1473'> +1.3735314e-12 </wgt>
<wgt id='1474'> +1.3662348e-12 </wgt>
<wgt id='1475'> +1.3702758e-12 </wgt>
<wgt id='1476'> +1.3766102e-12 </wgt>
<wgt id='1477'> +1.3793789e-12 </wgt>
<wgt id='1478'> +1.3998945e-12 </wgt>
<wgt id='1479'> +1.4004040e-12 </wgt>
<wgt id='1480'> +1.4053032e-12 </wgt>
<wgt id='1481'> +1.3816004e-12 </wgt>
<wgt id='1482'> +1.4060321e-12 </wgt>
<wgt id='1483'> +1.3932116e-12 </wgt>
<wgt id='1484'> +1.3994535e-12 </wgt>
<wgt id='1485'> +1.4164383e-12 </wgt>
<wgt id='1486'> +1.3994472e-12 </wgt>
<wgt id='1487'> +1.4002409e-12 </wgt>
<wgt id='1488'> +1.3937605e-12 </wgt>
<wgt id='1489'> +1.4327629e-12 </wgt>
<wgt id='1490'> +1.4040207e-12 </wgt>
<wgt id='1491'> +1.4010931e-12 </wgt>
<wgt id='1492'> +1.3959445e-12 </wgt>
<wgt id='1493'> +1.4012482e-12 </wgt>
<wgt id='1494'> +1.4038190e-12 </wgt>
<wgt id='1495'> +1.4125242e-12 </wgt>
<wgt id='1496'> +1.3988464e-12 </wgt>
<wgt id='1497'> +1.4063463e-12 </wgt>
<wgt id='1498'> +1.3971041e-12 </wgt>
<wgt id='1499'> +1.4041812e-12 </wgt>
<wgt id='1500'> +1.3992941e-12 </wgt>
<wgt id='1501'> +1.3983306e-12 </wgt>
<wgt id='1502'> +1.4001144e-12 </wgt>
<wgt id='1503'> +1.4005663e-12 </wgt>
<wgt id='1504'> +1.4034493e-12 </wgt>
<wgt id='1505'> +1.3990805e-12 </wgt>
<wgt id='1506'> +1.4024540e-12 </wgt>
<wgt id='1507'> +1.3984622e-12 </wgt>
<wgt id='1508'> +1.4099604e-12 </wgt>
<wgt id='1509'> +1.3158870e-12 </wgt>
<wgt id='1510'> +1.3124648e-12 </wgt>
<wgt id='1511'> +1.3192980e-12 </wgt>
<wgt id='1512'> +1.3209246e-12 </wgt>
<wgt id='1513'> +1.3156050e-12 </wgt>
<wgt id='1514'> +1.3108803e-12 </wgt>
<wgt id='1515'> +1.3127335e-12 </wgt>
<wgt id='1516'> +1.3119715e-12 </wgt>
<wgt id='1517'> +1.3142477e-12 </wgt>
<wgt id='1518'> +1.3119566e-12 </wgt>
<wgt id='1519'> +1.3192938e-12 </wgt>
<wgt id='1520'> +1.3266918e-12 </wgt>
<wgt id='1521'> +1.3222439e-12 </wgt>
<wgt id='1522'> +1.3331674e-12 </wgt>
<wgt id='1523'> +1.3154378e-12 </wgt>
<wgt id='1524'> +1.3141878e-12 </wgt>
<wgt id='1525'> +1.3045019e-12 </wgt>
<wgt id='1526'> +1.3200839e-12 </wgt>
<wgt id='1527'> +1.3273902e-12 </wgt>
<wgt id='1528'> +1.3145322e-12 </wgt>
<wgt id='1529'> +1.3233980e-12 </wgt>
<wgt id='1530'> +1.3038785e-12 </wgt>
<wgt id='1531'> +1.3159408e-12 </wgt>
<wgt id='1532'> +1.3254646e-12 </wgt>
<wgt id='1533'> +1.3131686e-12 </wgt>
<wgt id='1534'> +1.3111153e-12 </wgt>
<wgt id='1535'> +1.3278471e-12 </wgt>
<wgt id='1536'> +1.3160213e-12 </wgt>
<wgt id='1537'> +1.3163449e-12 </wgt>
<wgt id='1538'> +1.3185479e-12 </wgt>
<wgt id='1539'> +1.3116080e-12 </wgt>
<wgt id='1540'> +1.3107734e-12 </wgt>
<wgt id='1541'> +1.3139110e-12 </wgt>
<wgt id='1542'> +1.3139572e-12 </wgt>
<wgt id='1543'> +1.3166508e-12 </wgt>
<wgt id='1544'> +1.3146575e-12 </wgt>
<wgt id='1545'> +1.3145501e-12 </wgt>
<wgt id='1546'> +1.3198925e-12 </wgt>
<wgt id='1547'> +1.3130875e-12 </wgt>
<wgt id='1548'> +1.3195670e-12 </wgt>
<wgt id='1549'> +1.3158817e-12 </wgt>
<wgt id='1550'> +1.3142936e-12 </wgt>
<wgt id='1551'> +1.3167769e-12 </wgt>
<wgt id='1552'> +1.3157360e-12 </wgt>
<wgt id='1553'> +1.3131295e-12 </wgt>
<wgt id='1554'> +1.3096111e-12 </wgt>
<wgt id='1555'> +1.3128922e-12 </wgt>
<wgt id='1556'> +1.3199267e-12 </wgt>
<wgt id='1557'> +1.3108748e-12 </wgt>
<wgt id='1558'> +1.3198187e-12 </wgt>
<wgt id='1559'> +1.3136184e-12 </wgt>
<wgt id='1560'> +1.3124752e-12 </wgt>
<wgt id='1561'> +1.3193355e-12 </wgt>
<wgt id='1562'> +1.3156940e-12 </wgt>
<wgt id='1563'> +1.3159963e-12 </wgt>
<wgt id='1564'> +1.3168645e-12 </wgt>
<wgt id='1565'> +1.3171923e-12 </wgt>
<wgt id='1566'> +1.3120948e-12 </wgt>
<wgt id='1567'> +1.3108331e-12 </wgt>
<wgt id='1568'> +1.3173939e-12 </wgt>
<wgt id='1569'> +1.3145225e-12 </wgt>
<wgt id='1570'> +1.3202845e-12 </wgt>
<wgt id='1571'> +1.3149871e-12 </wgt>
<wgt id='1572'> +1.3187125e-12 </wgt>
<wgt id='1573'> +1.3179426e-12 </wgt>
<wgt id='1574'> +1.3138125e-12 </wgt>
<wgt id='1575'> +1.3158444e-12 </wgt>
<wgt id='1576'> +1.3180691e-12 </wgt>
<wgt id='1577'> +1.3141137e-12 </wgt>
<wgt id='1578'> +1.3139114e-12 </wgt>
<wgt id='1579'> +1.3173993e-12 </wgt>
<wgt id='1580'> +1.3209132e-12 </wgt>
<wgt id='1581'> +1.3135012e-12 </wgt>
<wgt id='1582'> +1.3136280e-12 </wgt>
<wgt id='1583'> +1.3169433e-12 </wgt>
<wgt id='1584'> +1.3166106e-12 </wgt>
<wgt id='1585'> +1.3159285e-12 </wgt>
<wgt id='1586'> +1.3193176e-12 </wgt>
<wgt id='1587'> +1.3143555e-12 </wgt>
<wgt id='1588'> +1.3144195e-12 </wgt>
<wgt id='1589'> +1.3152623e-12 </wgt>
<wgt id='1590'> +1.3150944e-12 </wgt>
<wgt id='1591'> +1.3152197e-12 </wgt>
<wgt id='1592'> +1.3163827e-12 </wgt>
<wgt id='1593'> +1.3174555e-12 </wgt>
<wgt id='1594'> +1.3165923e-12 </wgt>
<wgt id='1595'> +1.3139491e-12 </wgt>
<wgt id='1596'> +1.3147602e-12 </wgt>
<wgt id='1597'> +1.3156094e-12 </wgt>
<wgt id='1598'> +1.3165733e-12 </wgt>
<wgt id='1599'> +1.3164916e-12 </wgt>
<wgt id='1600'> +1.3127309e-12 </wgt>
<wgt id='1601'> +1.3166113e-12 </wgt>
<wgt id='1602'> +1.3152564e-12 </wgt>
<wgt id='1603'> +1.3173572e-12 </wgt>
<wgt id='1604'> +1.3158911e-12 </wgt>
<wgt id='1605'> +1.3171489e-12 </wgt>
<wgt id='1606'> +1.3140420e-12 </wgt>
<wgt id='1607'> +1.3153424e-12 </wgt>
<wgt id='1608'> +1.3156419e-12 </wgt>
<wgt id='1609'> +1.3172349e-12 </wgt>
<wgt id='1610'> +1.2753646e-12 </wgt>
<wgt id='1611'> +1.3508056e-12 </wgt>
<wgt id='1612'> +1.4760755e-12 </wgt>
<wgt id='1613'> +1.5460808e-12 </wgt>
<wgt id='1614'> +1.4967134e-12 </wgt>
<wgt id='1615'> +1.4643466e-12 </wgt>
<wgt id='1616'> +1.5303000e-12 </wgt>
<wgt id='1617'> +1.3753830e-12 </wgt>
<wgt id='1618'> +1.2871195e-12 </wgt>
<wgt id='1619'> +1.5073328e-12 </wgt>
<wgt id='1620'> +1.5274781e-12 </wgt>
<wgt id='1621'> +1.4508691e-12 </wgt>
<wgt id='1622'> +1.4672562e-12 </wgt>
<wgt id='1623'> +1.5305706e-12 </wgt>
<wgt id='1624'> +1.4540964e-12 </wgt>
<wgt id='1625'> +1.5032086e-12 </wgt>
<wgt id='1626'> +1.5586312e-12 </wgt>
<wgt id='1627'> +1.4827441e-12 </wgt>
<wgt id='1628'> +1.5146709e-12 </wgt>
<wgt id='1629'> +1.5268338e-12 </wgt>
<wgt id='1630'> +1.5074871e-12 </wgt>
<wgt id='1631'> +1.4480273e-12 </wgt>
<wgt id='1632'> +1.5635947e-12 </wgt>
<wgt id='1633'> +1.4898213e-12 </wgt>
<wgt id='1634'> +1.5087747e-12 </wgt>
<wgt id='1635'> +1.4659007e-12 </wgt>
<wgt id='1636'> +1.4309670e-12 </wgt>
<wgt id='1637'> +1.4172871e-12 </wgt>
<wgt id='1638'> +1.5004008e-12 </wgt>
<wgt id='1639'> +1.5489465e-12 </wgt>
<wgt id='1640'> +1.5620057e-12 </wgt>
<wgt id='1641'> +1.4857152e-12 </wgt>
<wgt id='1642'> +1.5034929e-12 </wgt>
<wgt id='1643'> +1.5512349e-12 </wgt>
<wgt id='1644'> +1.4127126e-12 </wgt>
<wgt id='1645'> +1.4984116e-12 </wgt>
<wgt id='1646'> +1.5495094e-12 </wgt>
<wgt id='1647'> +1.5465028e-12 </wgt>
<wgt id='1648'> +1.4358795e-12 </wgt>
<wgt id='1649'> +1.2904613e-12 </wgt>
<wgt id='1650'> +1.5443939e-12 </wgt>
<wgt id='1651'> +1.4936628e-12 </wgt>
<wgt id='1652'> +1.5739818e-12 </wgt>
<wgt id='1653'> +1.3887570e-12 </wgt>
<wgt id='1654'> +1.3956371e-12 </wgt>
<wgt id='1655'> +1.4134744e-12 </wgt>
<wgt id='1656'> +1.4983902e-12 </wgt>
<wgt id='1657'> +1.4663687e-12 </wgt>
<wgt id='1658'> +1.4934714e-12 </wgt>
<wgt id='1659'> +1.4540964e-12 </wgt>
<wgt id='1660'> +1.3898252e-12 </wgt>
<wgt id='1661'> +1.4370635e-12 </wgt>
<wgt id='1662'> +1.4730366e-12 </wgt>
<wgt id='1663'> +1.4868582e-12 </wgt>
<wgt id='1664'> +1.5425318e-12 </wgt>
<wgt id='1665'> +1.5567431e-12 </wgt>
<wgt id='1666'> +1.4743570e-12 </wgt>
<wgt id='1667'> +1.4553847e-12 </wgt>
<wgt id='1668'> +1.4639238e-12 </wgt>
<wgt id='1669'> +1.4480850e-12 </wgt>
<wgt id='1670'> +1.4991327e-12 </wgt>
<wgt id='1671'> +1.5144027e-12 </wgt>
<wgt id='1672'> +1.4427696e-12 </wgt>
<wgt id='1673'> +1.4288847e-12 </wgt>
<wgt id='1674'> +1.5052527e-12 </wgt>
<wgt id='1675'> +1.5064506e-12 </wgt>
<wgt id='1676'> +1.4509584e-12 </wgt>
<wgt id='1677'> +1.4658535e-12 </wgt>
<wgt id='1678'> +1.5091410e-12 </wgt>
<wgt id='1679'> +1.5096326e-12 </wgt>
<wgt id='1680'> +1.4502462e-12 </wgt>
<wgt id='1681'> +1.5079138e-12 </wgt>
<wgt id='1682'> +1.4598736e-12 </wgt>
<wgt id='1683'> +1.4569218e-12 </wgt>
<wgt id='1684'> +1.4661208e-12 </wgt>
<wgt id='1685'> +1.4734126e-12 </wgt>
<wgt id='1686'> +1.5009246e-12 </wgt>
<wgt id='1687'> +1.5167705e-12 </wgt>
<wgt id='1688'> +1.5093571e-12 </wgt>
<wgt id='1689'> +1.4353102e-12 </wgt>
<wgt id='1690'> +1.4446946e-12 </wgt>
<wgt id='1691'> +1.4707040e-12 </wgt>
<wgt id='1692'> +1.4659738e-12 </wgt>
<wgt id='1693'> +1.5512046e-12 </wgt>
<wgt id='1694'> +1.3813482e-12 </wgt>
<wgt id='1695'> +1.4698345e-12 </wgt>
<wgt id='1696'> +1.5271016e-12 </wgt>
<wgt id='1697'> +1.3852968e-12 </wgt>
<wgt id='1698'> +1.4664584e-12 </wgt>
<wgt id='1699'> +1.4206075e-12 </wgt>
<wgt id='1700'> +1.4811265e-12 </wgt>
<wgt id='1701'> +1.4666032e-12 </wgt>
<wgt id='1702'> +1.4099937e-12 </wgt>
<wgt id='1703'> +1.4831367e-12 </wgt>
<wgt id='1704'> +1.4462752e-12 </wgt>
<wgt id='1705'> +1.5693213e-12 </wgt>
<wgt id='1706'> +1.3744271e-12 </wgt>
<wgt id='1707'> +1.4718237e-12 </wgt>
<wgt id='1708'> +1.4122984e-12 </wgt>
<wgt id='1709'> +1.4827002e-12 </wgt>
<wgt id='1710'> +1.4868642e-12 </wgt>
<wgt id='1711'> +1.5000637e-12 </wgt>
<wgt id='1712'> +1.4607578e-12 </wgt>
<wgt id='1713'> +1.4222649e-12 </wgt>
<wgt id='1714'> +1.3962982e-12 </wgt>
<wgt id='1715'> +1.4245379e-12 </wgt>
<wgt id='1716'> +1.3977610e-12 </wgt>
<wgt id='1717'> +1.4057077e-12 </wgt>
<wgt id='1718'> +1.3751868e-12 </wgt>
<wgt id='1719'> +1.4342938e-12 </wgt>
<wgt id='1720'> +1.4444711e-12 </wgt>
<wgt id='1721'> +1.4184153e-12 </wgt>
<wgt id='1722'> +1.4114522e-12 </wgt>
<wgt id='1723'> +1.3558244e-12 </wgt>
<wgt id='1724'> +1.3726459e-12 </wgt>
<wgt id='1725'> +1.4549605e-12 </wgt>
<wgt id='1726'> +1.4506005e-12 </wgt>
<wgt id='1727'> +1.3520659e-12 </wgt>
<wgt id='1728'> +1.4236423e-12 </wgt>
<wgt id='1729'> +1.4524138e-12 </wgt>
<wgt id='1730'> +1.3912188e-12 </wgt>
<wgt id='1731'> +1.4112053e-12 </wgt>
<wgt id='1732'> +1.4481307e-12 </wgt>
<wgt id='1733'> +1.4504740e-12 </wgt>
<wgt id='1734'> +1.4261520e-12 </wgt>
<wgt id='1735'> +1.4070051e-12 </wgt>
<wgt id='1736'> +1.5451961e-12 </wgt>
<wgt id='1737'> +1.4060481e-12 </wgt>
<wgt id='1738'> +1.4466477e-12 </wgt>
<wgt id='1739'> +1.3948046e-12 </wgt>
<wgt id='1740'> +1.3944763e-12 </wgt>
<wgt id='1741'> +1.4093555e-12 </wgt>
<wgt id='1742'> +1.4020247e-12 </wgt>
<wgt id='1743'> +1.4562267e-12 </wgt>
<wgt id='1744'> +1.4119654e-12 </wgt>
<wgt id='1745'> +1.3553614e-12 </wgt>
<wgt id='1746'> +1.4553657e-12 </wgt>
<wgt id='1747'> +1.4325888e-12 </wgt>
<wgt id='1748'> +1.4186858e-12 </wgt>
<wgt id='1749'> +1.4786291e-12 </wgt>
<wgt id='1750'> +1.4428783e-12 </wgt>
<wgt id='1751'> +1.4236193e-12 </wgt>
<wgt id='1752'> +1.3795981e-12 </wgt>
<wgt id='1753'> +1.4481683e-12 </wgt>
<wgt id='1754'> +1.4217342e-12 </wgt>
<wgt id='1755'> +1.4440101e-12 </wgt>
<wgt id='1756'> +1.4409579e-12 </wgt>
<wgt id='1757'> +1.4070614e-12 </wgt>
<wgt id='1758'> +1.4401219e-12 </wgt>
<wgt id='1759'> +1.4347245e-12 </wgt>
<wgt id='1760'> +1.3985187e-12 </wgt>
<wgt id='1761'> +1.3951553e-12 </wgt>
<wgt id='1762'> +1.4345941e-12 </wgt>
<wgt id='1763'> +1.4263672e-12 </wgt>
<wgt id='1764'> +1.4241622e-12 </wgt>
<wgt id='1765'> +1.4125174e-12 </wgt>
<wgt id='1766'> +1.4521110e-12 </wgt>
<wgt id='1767'> +1.4220724e-12 </wgt>
<wgt id='1768'> +1.4209664e-12 </wgt>
<wgt id='1769'> +1.3781556e-12 </wgt>
<wgt id='1770'> +1.4970855e-12 </wgt>
<wgt id='1771'> +1.4065565e-12 </wgt>
<wgt id='1772'> +1.4397361e-12 </wgt>
<wgt id='1773'> +1.4198025e-12 </wgt>
<wgt id='1774'> +1.4444975e-12 </wgt>
<wgt id='1775'> +1.4237106e-12 </wgt>
<wgt id='1776'> +1.4475005e-12 </wgt>
<wgt id='1777'> +1.3959900e-12 </wgt>
<wgt id='1778'> +1.4078722e-12 </wgt>
<wgt id='1779'> +1.4246869e-12 </wgt>
<wgt id='1780'> +1.4952313e-12 </wgt>
<wgt id='1781'> +1.3915339e-12 </wgt>
<wgt id='1782'> +1.3695630e-12 </wgt>
<wgt id='1783'> +1.4260181e-12 </wgt>
<wgt id='1784'> +1.4643873e-12 </wgt>
<wgt id='1785'> +1.4078124e-12 </wgt>
<wgt id='1786'> +1.3336039e-12 </wgt>
<wgt id='1787'> +1.4263180e-12 </wgt>
<wgt id='1788'> +1.4089222e-12 </wgt>
<wgt id='1789'> +1.3742810e-12 </wgt>
<wgt id='1790'> +1.4328673e-12 </wgt>
<wgt id='1791'> +1.4814345e-12 </wgt>
<wgt id='1792'> +1.4175539e-12 </wgt>
<wgt id='1793'> +1.4341925e-12 </wgt>
<wgt id='1794'> +1.4122663e-12 </wgt>
<wgt id='1795'> +1.4011814e-12 </wgt>
<wgt id='1796'> +1.4381381e-12 </wgt>
<wgt id='1797'> +1.4299536e-12 </wgt>
<wgt id='1798'> +1.3735836e-12 </wgt>
<wgt id='1799'> +1.4149737e-12 </wgt>
<wgt id='1800'> +1.3991208e-12 </wgt>
<wgt id='1801'> +1.4196677e-12 </wgt>
<wgt id='1802'> +1.4657407e-12 </wgt>
<wgt id='1803'> +1.4096510e-12 </wgt>
<wgt id='1804'> +1.3830033e-12 </wgt>
<wgt id='1805'> +1.4663239e-12 </wgt>
<wgt id='1806'> +1.4122150e-12 </wgt>
<wgt id='1807'> +1.4533057e-12 </wgt>
<wgt id='1808'> +1.3963827e-12 </wgt>
<wgt id='1809'> +1.4334445e-12 </wgt>
<wgt id='1810'> +1.4325037e-12 </wgt>
<wgt id='1811'> +1.4830825e-12 </wgt>
<wgt id='1812'> +1.4720930e-12 </wgt>
<wgt id='1813'> +1.4158342e-12 </wgt>
<wgt id='1814'> +1.2867086e-12 </wgt>
<wgt id='1815'> +1.4412348e-12 </wgt>
<wgt id='1816'> +1.4222649e-12 </wgt>
<wgt id='1817'> +1.3962982e-12 </wgt>
<wgt id='1818'> +1.4245379e-12 </wgt>
<wgt id='1819'> +1.3977610e-12 </wgt>
<wgt id='1820'> +1.4057077e-12 </wgt>
<wgt id='1821'> +1.3751868e-12 </wgt>
<wgt id='1822'> +1.4342938e-12 </wgt>
<wgt id='1823'> +1.4444711e-12 </wgt>
<wgt id='1824'> +1.4184153e-12 </wgt>
<wgt id='1825'> +1.4114522e-12 </wgt>
<wgt id='1826'> +1.3558244e-12 </wgt>
<wgt id='1827'> +1.3726459e-12 </wgt>
<wgt id='1828'> +1.4549605e-12 </wgt>
<wgt id='1829'> +1.4506005e-12 </wgt>
<wgt id='1830'> +1.3520659e-12 </wgt>
<wgt id='1831'> +1.4236423e-12 </wgt>
<wgt id='1832'> +1.4524138e-12 </wgt>
<wgt id='1833'> +1.3912188e-12 </wgt>
<wgt id='1834'> +1.4112053e-12 </wgt>
<wgt id='1835'> +1.4481307e-12 </wgt>
<wgt id='1836'> +1.4504740e-12 </wgt>
<wgt id='1837'> +1.4261520e-12 </wgt>
<wgt id='1838'> +1.4070051e-12 </wgt>
<wgt id='1839'> +1.5451961e-12 </wgt>
<wgt id='1840'> +1.4060481e-12 </wgt>
<wgt id='1841'> +1.4466477e-12 </wgt>
<wgt id='1842'> +1.3948046e-12 </wgt>
<wgt id='1843'> +1.3944763e-12 </wgt>
<wgt id='1844'> +1.4093555e-12 </wgt>
<wgt id='1845'> +1.4020247e-12 </wgt>
<wgt id='1846'> +1.4562267e-12 </wgt>
<wgt id='1847'> +1.4119654e-12 </wgt>
<wgt id='1848'> +1.3553614e-12 </wgt>
<wgt id='1849'> +1.4553657e-12 </wgt>
<wgt id='1850'> +1.4325888e-12 </wgt>
<wgt id='1851'> +1.4186858e-12 </wgt>
<wgt id='1852'> +1.4786291e-12 </wgt>
<wgt id='1853'> +1.4428783e-12 </wgt>
<wgt id='1854'> +1.4236193e-12 </wgt>
<wgt id='1855'> +1.3795981e-12 </wgt>
<wgt id='1856'> +1.4481683e-12 </wgt>
<wgt id='1857'> +1.4217342e-12 </wgt>
<wgt id='1858'> +1.4440101e-12 </wgt>
<wgt id='1859'> +1.4409579e-12 </wgt>
<wgt id='1860'> +1.4070614e-12 </wgt>
<wgt id='1861'> +1.4401219e-12 </wgt>
<wgt id='1862'> +1.4347245e-12 </wgt>
<wgt id='1863'> +1.3985187e-12 </wgt>
<wgt id='1864'> +1.3951553e-12 </wgt>
<wgt id='1865'> +1.4345941e-12 </wgt>
<wgt id='1866'> +1.4263672e-12 </wgt>
<wgt id='1867'> +1.4241622e-12 </wgt>
<wgt id='1868'> +1.4125174e-12 </wgt>
<wgt id='1869'> +1.4521110e-12 </wgt>
<wgt id='1870'> +1.4220724e-12 </wgt>
<wgt id='1871'> +1.4209664e-12 </wgt>
<wgt id='1872'> +1.3781556e-12 </wgt>
<wgt id='1873'> +1.4970855e-12 </wgt>
<wgt id='1874'> +1.4065565e-12 </wgt>
<wgt id='1875'> +1.4397361e-12 </wgt>
<wgt id='1876'> +1.4198025e-12 </wgt>
<wgt id='1877'> +1.4444975e-12 </wgt>
<wgt id='1878'> +1.4237106e-12 </wgt>
<wgt id='1879'> +1.4475005e-12 </wgt>
<wgt id='1880'> +1.3959900e-12 </wgt>
<wgt id='1881'> +1.4078722e-12 </wgt>
<wgt id='1882'> +1.4246869e-12 </wgt>
<wgt id='1883'> +1.4952313e-12 </wgt>
<wgt id='1884'> +1.3915339e-12 </wgt>
<wgt id='1885'> +1.3695630e-12 </wgt>
<wgt id='1886'> +1.4260181e-12 </wgt>
<wgt id='1887'> +1.4643873e-12 </wgt>
<wgt id='1888'> +1.4078124e-12 </wgt>
<wgt id='1889'> +1.3336039e-12 </wgt>
<wgt id='1890'> +1.4263180e-12 </wgt>
<wgt id='1891'> +1.4089222e-12 </wgt>
<wgt id='1892'> +1.3742810e-12 </wgt>
<wgt id='1893'> +1.4328673e-12 </wgt>
<wgt id='1894'> +1.4814345e-12 </wgt>
<wgt id='1895'> +1.4175539e-12 </wgt>
<wgt id='1896'> +1.4341925e-12 </wgt>
<wgt id='1897'> +1.4122663e-12 </wgt>
<wgt id='1898'> +1.4011814e-12 </wgt>
<wgt id='1899'> +1.4381381e-12 </wgt>
<wgt id='1900'> +1.4299536e-12 </wgt>
<wgt id='1901'> +1.3735836e-12 </wgt>
<wgt id='1902'> +1.4149737e-12 </wgt>
<wgt id='1903'> +1.3991208e-12 </wgt>
<wgt id='1904'> +1.4196677e-12 </wgt>
<wgt id='1905'> +1.4657407e-12 </wgt>
<wgt id='1906'> +1.4096510e-12 </wgt>
<wgt id='1907'> +1.3830033e-12 </wgt>
<wgt id='1908'> +1.4663239e-12 </wgt>
<wgt id='1909'> +1.4122150e-12 </wgt>
<wgt id='1910'> +1.4533057e-12 </wgt>
<wgt id='1911'> +1.3963827e-12 </wgt>
<wgt id='1912'> +1.4334445e-12 </wgt>
<wgt id='1913'> +1.4325037e-12 </wgt>
<wgt id='1914'> +1.4830825e-12 </wgt>
<wgt id='1915'> +1.4720930e-12 </wgt>
<wgt id='1916'> +1.4158342e-12 </wgt>
<wgt id='1917'> +1.4035537e-12 </wgt>
<wgt id='1918'> +1.4338218e-12 </wgt>
<wgt id='1919'> +1.4258134e-12 </wgt>
</rwgt>
</event>
<event>
 9      1 +1.5607000e-12 4.43612300e+01 7.81860800e-03 1.34133400e-01
        2 -1    0    0  502    0 -0.0000000000e+00 +0.0000000000e+00 +1.0055099100e+03 1.0055099100e+03 0.0000000000e+00 0.0000e+00 1.0000e+00
       21 -1    0    0  501  502 +0.0000000000e+00 -0.0000000000e+00 -1.8467127295e+00 1.8467127295e+00 0.0000000000e+00 0.0000e+00 1.0000e+00
     1023  2    1    2    0    0 -4.0505979953e+00 +4.1551428090e+01 +4.9622818515e+02 4.9820711616e+02 1.4999677617e+01 0.0000e+00 0.0000e+00
  1000023  2    3    3    0    0 -2.8400468530e+00 +8.1880687593e+00 +1.4385543614e+02 1.4422105227e+02 5.4968240265e+00 0.0000e+00 0.0000e+00
        2  1    1    2  501    0 +4.0505979953e+00 -4.1551428090e+01 +5.0743501208e+02 5.0914950654e+02 0.0000000000e+00 0.0000e+00 1.0000e+00
  1000022  1    4    4    0    0 -2.3587712381e+00 +7.3074272863e+00 +1.2658847631e+02 1.2691967787e+02 5.0000000000e+00 0.0000e+00 1.0000e+00
      -13  1    4    4    0    0 -4.5740566241e-01 +4.6416870055e-01 +1.0295495840e+01 1.0316640907e+01 1.0570000000e-01 0.0000e+00 1.0000e+00
       13  1    4    4    0    0 -2.3869952468e-02 +4.1647277248e-01 +6.9714639883e+00 6.9847334935e+00 1.0570000000e-01 0.0000e+00 -1.0000e+00
  1000022  1    3    3    0    0 -1.2105511423e+00 +3.3363359331e+01 +3.5237274901e+02 3.5398606389e+02 5.0000000000e+00 0.0000e+00 1.0000e+00
<mgrwt>
<rscale>  1 0.44361231E+02</rscale>
<asrwt>0</asrwt>
<pdfrwt beam="1">  1       21 0.28411045E-03 0.44361231E+02</pdfrwt>
<pdfrwt beam="2">  1        2 0.15469340E+00 0.44361231E+02</pdfrwt>
<totfact> 0.62662336E+06</totfact>
</mgrwt>
<rwgt>
<wgt id='1001'> +1.5607000e-12 </wgt>
<wgt id='1002'> +1.5806814e-12 </wgt>
<wgt id='1003'> +1.5808322e-12 </wgt>
<wgt id='1004'> +1.5586536e-12 </wgt>
<wgt id='1005'> +1.5808614e-12 </wgt>
<wgt id='1006'> +1.3792988e-12 </wgt>
<wgt id='1007'> +1.4156785e-12 </wgt>
<wgt id='1008'> +1.4163923e-12 </wgt>
<wgt id='1009'> +1.3763889e-12 </wgt>
<wgt id='1010'> +1.4165474e-12 </wgt>
<wgt id='1011'> +1.7995253e-12 </wgt>
<wgt id='1012'> +1.7909401e-12 </wgt>
<wgt id='1013'> +1.7901698e-12 </wgt>
<wgt id='1014'> +1.7991130e-12 </wgt>
<wgt id='1015'> +1.7899937e-12 </wgt>
<wgt id='1016'> +1.7889272e-12 </wgt>
<wgt id='1017'> +1.7562632e-12 </wgt>
<wgt id='1018'> +1.7548465e-12 </wgt>
<wgt id='1019'> +1.7901698e-12 </wgt>
<wgt id='1020'> +1.7545276e-12 </wgt>
<wgt id='1021'> +1.5809990e-12 </wgt>
<wgt id='1022'> +1.5729318e-12 </wgt>
<wgt id='1023'> +1.5723054e-12 </wgt>
<wgt id='1024'> +1.5808322e-12 </wgt>
<wgt id='1025'> +1.5721628e-12 </wgt>
<wgt id='1026'> +2.0626768e-12 </wgt>
<wgt id='1027'> +1.9898775e-12 </wgt>
<wgt id='1028'> +1.9872274e-12 </wgt>
<wgt id='1029'> +2.0663461e-12 </wgt>
<wgt id='1030'> +1.9866342e-12 </wgt>
<wgt id='1031'> +1.2933466e-12 </wgt>
<wgt id='1032'> +1.3744391e-12 </wgt>
<wgt id='1033'> +1.3763889e-12 </wgt>
<wgt id='1034'> +1.2875461e-12 </wgt>
<wgt id='1035'> +1.3768182e-12 </wgt>
<wgt id='1036'> +1.1430200e-12 </wgt>
<wgt id='1037'> +1.2309653e-12 </wgt>
<wgt id='1038'> +1.2332154e-12 </wgt>
<wgt id='1039'> +1.1369840e-12 </wgt>
<wgt id='1040'> +1.2337123e-12 </wgt>
<wgt id='1041'> +1.4912603e-12 </wgt>
<wgt id='1042'> +1.5572640e-12 </wgt>
<wgt id='1043'> +1.5586536e-12 </wgt>
<wgt id='1044'> +1.4861807e-12 </wgt>
<wgt id='1045'> +1.5589576e-12 </wgt>
<wgt id='1046'> +1.5607000e-12 </wgt>
<wgt id='1047'> +1.5634000e-12 </wgt>
<wgt id='1048'> +1.6190839e-12 </wgt>
<wgt id='1049'> +1.5254209e-12 </wgt>
<wgt id='1050'> +1.5397710e-12 </wgt>
<wgt id='1051'> +1.5194489e-12 </wgt>
<wgt id='1052'> +1.5304554e-12 </wgt>
<wgt id='1053'> +1.6204499e-12 </wgt>
<wgt id='1054'> +1.5977823e-12 </wgt>
<wgt id='1055'> +1.5383076e-12 </wgt>
<wgt id='1056'> +1.4666983e-12 </wgt>
<wgt id='1057'> +1.5541542e-12 </wgt>
<wgt id='1058'> +1.5272465e-12 </wgt>
<wgt id='1059'> +1.5652034e-12 </wgt>
<wgt id='1060'> +1.5882427e-12 </wgt>
<wgt id='1061'> +1.5864665e-12 </wgt>
<wgt id='1062'> +1.5393579e-12 </wgt>
<wgt id='1063'> +1.5054521e-12 </wgt>
<wgt id='1064'> +1.5673894e-12 </wgt>
<wgt id='1065'> +1.5949312e-12 </wgt>
<wgt id='1066'> +1.5585670e-12 </wgt>
<wgt id='1067'> +1.5924534e-12 </wgt>
<wgt id='1068'> +1.6160326e-12 </wgt>
<wgt id='1069'> +1.6151420e-12 </wgt>
<wgt id='1070'> +1.5469982e-12 </wgt>
<wgt id='1071'> +1.5808273e-12 </wgt>
<wgt id='1072'> +1.5882339e-12 </wgt>
<wgt id='1073'> +1.5190969e-12 </wgt>
<wgt id='1074'> +1.5701478e-12 </wgt>
<wgt id='1075'> +1.5296496e-12 </wgt>
<wgt id='1076'> +1.5613605e-12 </wgt>
<wgt id='1077'> +1.5667231e-12 </wgt>
<wgt id='1078'> +1.5551518e-12 </wgt>
<wgt id='1079'> +1.5695077e-12 </wgt>
<wgt id='1080'> +1.5361181e-12 </wgt>
<wgt id='1081'> +1.5214700e-12 </wgt>
<wgt id='1082'> +1.5741533e-12 </wgt>
<wgt id='1083'> +1.5488685e-12 </wgt>
<wgt id='1084'> +1.5444390e-12 </wgt>
<wgt id='1085'> +1.5815073e-12 </wgt>
<wgt id='1086'> +1.6077950e-12 </wgt>
<wgt id='1087'> +1.5467957e-12 </wgt>
<wgt id='1088'> +1.5624630e-12 </wgt>
<wgt id='1089'> +1.5263558e-12 </wgt>
<wgt id='1090'> +1.5459549e-12 </wgt>
<wgt id='1091'> +1.5896464e-12 </wgt>
<wgt id='1092'> +1.5491260e-12 </wgt>
<wgt id='1093'> +1.5863643e-12 </wgt>
<wgt id='1094'> +1.5985912e-12 </wgt>
<wgt id='1095'> +1.5931652e-12 </wgt>
<wgt id='1096'> +1.5119049e-12 </wgt>
<wgt id='1097'> +1.5683187e-12 </wgt>
<wgt id='1098'> +1.5945102e-12 </wgt>
<wgt id='1099'> +1.5572412e-12 </wgt>
<wgt id='1100'> +1.5948840e-12 </wgt>
<wgt id='1101'> +1.5729649e-12 </wgt>
<wgt id='1102'> +1.5397058e-12 </wgt>
<wgt id='1103'> +1.5518634e-12 </wgt>
<wgt id='1104'> +1.5806233e-12 </wgt>
<wgt id='1105'> +1.5254564e-12 </wgt>
<wgt id='1106'> +1.5660710e-12 </wgt>
<wgt id='1107'> +1.5862774e-12 </wgt>
<wgt id='1108'> +1.5507979e-12 </wgt>
<wgt id='1109'> +1.5416367e-12 </wgt>
<wgt id='1110'> +1.5744201e-12 </wgt>
<wgt id='1111'> +1.5619445e-12 </wgt>
<wgt id='1112'> +1.5759428e-12 </wgt>
<wgt id='1113'> +1.6163648e-12 </wgt>
<wgt id='1114'> +1.5741515e-12 </wgt>
<wgt id='1115'> +1.5854466e-12 </wgt>
<wgt id='1116'> +1.6095264e-12 </wgt>
<wgt id='1117'> +1.5564609e-12 </wgt>
<wgt id='1118'> +1.5566504e-12 </wgt>
<wgt id='1119'> +1.5361776e-12 </wgt>
<wgt id='1120'> +1.5537153e-12 </wgt>
<wgt id='1121'> +1.5291311e-12 </wgt>
<wgt id='1122'> +1.5392753e-12 </wgt>
<wgt id='1123'> +1.5726225e-12 </wgt>
<wgt id='1124'> +1.6026386e-12 </wgt>
<wgt id='1125'> +1.5204163e-12 </wgt>
<wgt id='1126'> +1.5249509e-12 </wgt>
<wgt id='1127'> +1.5755034e-12 </wgt>
<wgt id='1128'> +1.5393579e-12 </wgt>
<wgt id='1129'> +1.5287400e-12 </wgt>
<wgt id='1130'> +1.5534863e-12 </wgt>
<wgt id='1131'> +1.5902217e-12 </wgt>
<wgt id='1132'> +1.5644242e-12 </wgt>
<wgt id='1133'> +1.5604240e-12 </wgt>
<wgt id='1134'> +1.5193318e-12 </wgt>
<wgt id='1135'> +1.4966087e-12 </wgt>
<wgt id='1136'> +1.5352400e-12 </wgt>
<wgt id='1137'> +1.5650980e-12 </wgt>
<wgt id='1138'> +1.5462030e-12 </wgt>
<wgt id='1139'> +1.5597853e-12 </wgt>
<wgt id='1140'> +1.5638456e-12 </wgt>
<wgt id='1141'> +1.5569336e-12 </wgt>
<wgt id='1142'> +1.5937423e-12 </wgt>
<wgt id='1143'> +1.5187722e-12 </wgt>
<wgt id='1144'> +1.5584134e-12 </wgt>
<wgt id='1145'> +1.6035297e-12 </wgt>
<wgt id='1146'> +1.5745655e-12 </wgt>
<wgt id='1147'> +1.4201135e-12 </wgt>
<wgt id='1148'> +1.4423459e-12 </wgt>
<wgt id='1149'> +1.3799506e-12 </wgt>
<wgt id='1150'> +1.4330115e-12 </wgt>
<wgt id='1151'> +1.6535643e-12 </wgt>
<wgt id='1152'> +2.2422125e-12 </wgt>
<wgt id='1153'> +2.2485269e-12 </wgt>
<wgt id='1154'> +2.2384282e-12 </wgt>
<wgt id='1155'> +2.2373725e-12 </wgt>
<wgt id='1156'> +2.2446642e-12 </wgt>
<wgt id='1157'> +2.2465458e-12 </wgt>
<wgt id='1158'> +2.2363449e-12 </wgt>
<wgt id='1159'> +2.2456167e-12 </wgt>
<wgt id='1160'> +2.2399992e-12 </wgt>
<wgt id='1161'> +2.2371233e-12 </wgt>
<wgt id='1162'> +2.2456608e-12 </wgt>
<wgt id='1163'> +2.2412316e-12 </wgt>
<wgt id='1164'> +2.2431373e-12 </wgt>
<wgt id='1165'> +2.2480749e-12 </wgt>
<wgt id='1166'> +2.2362872e-12 </wgt>
<wgt id='1167'> +2.2701946e-12 </wgt>
<wgt id='1168'> +2.2081564e-12 </wgt>
<wgt id='1169'> +2.2512331e-12 </wgt>
<wgt id='1170'> +2.2354353e-12 </wgt>
<wgt id='1171'> +2.2352809e-12 </wgt>
<wgt id='1172'> +2.2510029e-12 </wgt>
<wgt id='1173'> +2.2158607e-12 </wgt>
<wgt id='1174'> +2.2697898e-12 </wgt>
<wgt id='1175'> +2.2431473e-12 </wgt>
<wgt id='1176'> +2.2411092e-12 </wgt>
<wgt id='1177'> +2.2388028e-12 </wgt>
<wgt id='1178'> +2.2501638e-12 </wgt>
<wgt id='1179'> +2.2403026e-12 </wgt>
<wgt id='1180'> +2.2387836e-12 </wgt>
<wgt id='1181'> +2.2434570e-12 </wgt>
<wgt id='1182'> +2.2395734e-12 </wgt>
<wgt id='1183'> +2.2434342e-12 </wgt>
<wgt id='1184'> +2.2420816e-12 </wgt>
<wgt id='1185'> +2.2365159e-12 </wgt>
<wgt id='1186'> +2.2444927e-12 </wgt>
<wgt id='1187'> +2.2461217e-12 </wgt>
<wgt id='1188'> +2.2408067e-12 </wgt>
<wgt id='1189'> +2.2363735e-12 </wgt>
<wgt id='1190'> +2.2216551e-12 </wgt>
<wgt id='1191'> +2.2446867e-12 </wgt>
<wgt id='1192'> +2.2480192e-12 </wgt>
<wgt id='1193'> +1.4242114e-12 </wgt>
<wgt id='1194'> +1.4108241e-12 </wgt>
<wgt id='1195'> +1.4351901e-12 </wgt>
<wgt id='1196'> +1.4213054e-12 </wgt>
<wgt id='1197'> +1.4273980e-12 </wgt>
<wgt id='1198'> +1.4229597e-12 </wgt>
<wgt id='1199'> +1.4260782e-12 </wgt>
<wgt id='1200'> +1.4213782e-12 </wgt>
<wgt id='1201'> +1.4261171e-12 </wgt>
<wgt id='1202'> +1.4235465e-12 </wgt>
<wgt id='1203'> +1.4251480e-12 </wgt>
<wgt id='1204'> +1.4197635e-12 </wgt>
<wgt id='1205'> +1.4267510e-12 </wgt>
<wgt id='1206'> +1.4277686e-12 </wgt>
<wgt id='1207'> +1.4193094e-12 </wgt>
<wgt id='1208'> +1.4337237e-12 </wgt>
<wgt id='1209'> +1.4208399e-12 </wgt>
<wgt id='1210'> +1.4231915e-12 </wgt>
<wgt id='1211'> +1.4210660e-12 </wgt>
<wgt id='1212'> +1.4243514e-12 </wgt>
<wgt id='1213'> +1.4244092e-12 </wgt>
<wgt id='1214'> +1.4078596e-12 </wgt>
<wgt id='1215'> +1.4482850e-12 </wgt>
<wgt id='1216'> +1.4348002e-12 </wgt>
<wgt id='1217'> +1.4171042e-12 </wgt>
<wgt id='1218'> +1.4270826e-12 </wgt>
<wgt id='1219'> +1.4225121e-12 </wgt>
<wgt id='1220'> +1.4320199e-12 </wgt>
<wgt id='1221'> +1.4223972e-12 </wgt>
<wgt id='1222'> +1.4444482e-12 </wgt>
<wgt id='1223'> +1.3959388e-12 </wgt>
<wgt id='1224'> +1.4271891e-12 </wgt>
<wgt id='1225'> +1.4230789e-12 </wgt>
<wgt id='1226'> +1.4223047e-12 </wgt>
<wgt id='1227'> +1.4256123e-12 </wgt>
<wgt id='1228'> +1.4208688e-12 </wgt>
<wgt id='1229'> +1.4259417e-12 </wgt>
<wgt id='1230'> +1.4259306e-12 </wgt>
<wgt id='1231'> +1.4316282e-12 </wgt>
<wgt id='1232'> +1.4278111e-12 </wgt>
<wgt id='1233'> +1.4233002e-12 </wgt>
<wgt id='1234'> +1.4242114e-12 </wgt>
<wgt id='1235'> +1.4178419e-12 </wgt>
<wgt id='1236'> +1.4203175e-12 </wgt>
<wgt id='1237'> +1.4225029e-12 </wgt>
<wgt id='1238'> +1.4260514e-12 </wgt>
<wgt id='1239'> +1.4274721e-12 </wgt>
<wgt id='1240'> +1.4288730e-12 </wgt>
<wgt id='1241'> +1.3739732e-12 </wgt>
<wgt id='1242'> +1.3600916e-12 </wgt>
<wgt id='1243'> +1.3876859e-12 </wgt>
<wgt id='1244'> +1.3813102e-12 </wgt>
<wgt id='1245'> +1.3685467e-12 </wgt>
<wgt id='1246'> +1.3702348e-12 </wgt>
<wgt id='1247'> +1.3771698e-12 </wgt>
<wgt id='1248'> +1.3740056e-12 </wgt>
<wgt id='1249'> +1.3739479e-12 </wgt>
<wgt id='1250'> +1.3750538e-12 </wgt>
<wgt id='1251'> +1.3732585e-12 </wgt>
<wgt id='1252'> +1.3706352e-12 </wgt>
<wgt id='1253'> +1.3765703e-12 </wgt>
<wgt id='1254'> +1.3695351e-12 </wgt>
<wgt id='1255'> +1.3765470e-12 </wgt>
<wgt id='1256'> +1.3705211e-12 </wgt>
<wgt id='1257'> +1.3826706e-12 </wgt>
<wgt id='1258'> +1.3897012e-12 </wgt>
<wgt id='1259'> +1.3584321e-12 </wgt>
<wgt id='1260'> +1.3774571e-12 </wgt>
<wgt id='1261'> +1.3702758e-12 </wgt>
<wgt id='1262'> +1.3785974e-12 </wgt>
<wgt id='1263'> +1.3721358e-12 </wgt>
<wgt id='1264'> +1.3782701e-12 </wgt>
<wgt id='1265'> +1.3721787e-12 </wgt>
<wgt id='1266'> +1.3531320e-12 </wgt>
<wgt id='1267'> +1.3938491e-12 </wgt>
<wgt id='1268'> +1.3810562e-12 </wgt>
<wgt id='1269'> +1.3683261e-12 </wgt>
<wgt id='1270'> +1.3781575e-12 </wgt>
<wgt id='1271'> +1.3754254e-12 </wgt>
<wgt id='1272'> +1.3763210e-12 </wgt>
<wgt id='1273'> +1.3739044e-12 </wgt>
<wgt id='1274'> +1.3750230e-12 </wgt>
<wgt id='1275'> +1.3722455e-12 </wgt>
<wgt id='1276'> +1.3780351e-12 </wgt>
<wgt id='1277'> +1.3700700e-12 </wgt>
<wgt id='1278'> +1.3835909e-12 </wgt>
<wgt id='1279'> +1.3800254e-12 </wgt>
<wgt id='1280'> +1.3737217e-12 </wgt>
<wgt id='1281'> +1.3805585e-12 </wgt>
<wgt id='1282'> +1.3739732e-12 </wgt>
<wgt id='1283'> +1.3675921e-12 </wgt>
<wgt id='1284'> +1.3702445e-12 </wgt>
<wgt id='1285'> +1.3722707e-12 </wgt>
<wgt id='1286'> +1.3757418e-12 </wgt>
<wgt id='1287'> +1.3768838e-12 </wgt>
<wgt id='1288'> +1.3778708e-12 </wgt>
<wgt id='1289'> +1.4653822e-12 </wgt>
<wgt id='1290'> +1.4690536e-12 </wgt>
<wgt id='1291'> +1.4614008e-12 </wgt>
<wgt id='1292'> +1.4662134e-12 </wgt>
<wgt id='1293'> +1.4647659e-12 </wgt>
<wgt id='1294'> +1.4534024e-12 </wgt>
<wgt id='1295'> +1.4768534e-12 </wgt>
<wgt id='1296'> +1.4724448e-12 </wgt>
<wgt id='1297'> +1.4565188e-12 </wgt>
<wgt id='1298'> +1.4710517e-12 </wgt>
<wgt id='1299'> +1.4581302e-12 </wgt>
<wgt id='1300'> +1.4680907e-12 </wgt>
<wgt id='1301'> +1.4598694e-12 </wgt>
<wgt id='1302'> +1.4613182e-12 </wgt>
<wgt id='1303'> +1.4709699e-12 </wgt>
<wgt id='1304'> +1.4632016e-12 </wgt>
<wgt id='1305'> +1.4668395e-12 </wgt>
<wgt id='1306'> +1.4689883e-12 </wgt>
<wgt id='1307'> +1.4611151e-12 </wgt>
<wgt id='1308'> +1.4599253e-12 </wgt>
<wgt id='1309'> +1.4695229e-12 </wgt>
<wgt id='1310'> +1.4680640e-12 </wgt>
<wgt id='1311'> +1.4627334e-12 </wgt>
<wgt id='1312'> +1.4721623e-12 </wgt>
<wgt id='1313'> +1.4589043e-12 </wgt>
<wgt id='1314'> +1.4461695e-12 </wgt>
<wgt id='1315'> +1.4821335e-12 </wgt>
<wgt id='1316'> +1.4716403e-12 </wgt>
<wgt id='1317'> +1.4670596e-12 </wgt>
<wgt id='1318'> +1.4762741e-12 </wgt>
<wgt id='1319'> +1.4516034e-12 </wgt>
<wgt id='1320'> +1.4844984e-12 </wgt>
<wgt id='1321'> +1.4483485e-12 </wgt>
<wgt id='1322'> +1.4655209e-12 </wgt>
<wgt id='1323'> +1.4652149e-12 </wgt>
<wgt id='1324'> +1.4628719e-12 </wgt>
<wgt id='1325'> +1.4684389e-12 </wgt>
<wgt id='1326'> +1.4645983e-12 </wgt>
<wgt id='1327'> +1.4686044e-12 </wgt>
<wgt id='1328'> +1.4646261e-12 </wgt>
<wgt id='1329'> +1.4654201e-12 </wgt>
<wgt id='1330'> +1.4707541e-12 </wgt>
<wgt id='1331'> +1.4594149e-12 </wgt>
<wgt id='1332'> +1.4770487e-12 </wgt>
<wgt id='1333'> +1.4686858e-12 </wgt>
<wgt id='1334'> +1.4634389e-12 </wgt>
<wgt id='1335'> +1.4706139e-12 </wgt>
<wgt id='1336'> +1.4671686e-12 </wgt>
<wgt id='1337'> +1.4724823e-12 </wgt>
<wgt id='1338'> +1.4662490e-12 </wgt>
<wgt id='1339'> +1.4680595e-12 </wgt>
<wgt id='1340'> +1.4358582e-12 </wgt>
<wgt id='1341'> +1.4393957e-12 </wgt>
<wgt id='1342'> +1.4320332e-12 </wgt>
<wgt id='1343'> +1.4368174e-12 </wgt>
<wgt id='1344'> +1.4352048e-12 </wgt>
<wgt id='1345'> +1.4233832e-12 </wgt>
<wgt id='1346'> +1.4473463e-12 </wgt>
<wgt id='1347'> +1.4434997e-12 </wgt>
<wgt id='1348'> +1.4272447e-12 </wgt>
<wgt id='1349'> +1.4411614e-12 </wgt>
<wgt id='1350'> +1.4305599e-12 </wgt>
<wgt id='1351'> +1.4383554e-12 </wgt>
<wgt id='1352'> +1.4303403e-12 </wgt>
<wgt id='1353'> +1.4308495e-12 </wgt>
<wgt id='1354'> +1.4447679e-12 </wgt>
<wgt id='1355'> +1.4345994e-12 </wgt>
<wgt id='1356'> +1.4365317e-12 </wgt>
<wgt id='1357'> +1.4385979e-12 </wgt>
<wgt id='1358'> +1.4323860e-12 </wgt>
<wgt id='1359'> +1.4298000e-12 </wgt>
<wgt id='1360'> +1.4410524e-12 </wgt>
<wgt id='1361'> +1.4388441e-12 </wgt>
<wgt id='1362'> +1.4321277e-12 </wgt>
<wgt id='1363'> +1.4482234e-12 </wgt>
<wgt id='1364'> +1.4281965e-12 </wgt>
<wgt id='1365'> +1.4441963e-12 </wgt>
<wgt id='1366'> +1.4193276e-12 </wgt>
<wgt id='1367'> +1.4423880e-12 </wgt>
<wgt id='1368'> +1.4361534e-12 </wgt>
<wgt id='1369'> +1.4445898e-12 </wgt>
<wgt id='1370'> +1.4249763e-12 </wgt>
<wgt id='1371'> +1.4514790e-12 </wgt>
<wgt id='1372'> +1.4163115e-12 </wgt>
<wgt id='1373'> +1.4325590e-12 </wgt>
<wgt id='1374'> +1.4386992e-12 </wgt>
<wgt id='1375'> +1.4332717e-12 </wgt>
<wgt id='1376'> +1.4394859e-12 </wgt>
<wgt id='1377'> +1.4354094e-12 </wgt>
<wgt id='1378'> +1.4390405e-12 </wgt>
<wgt id='1379'> +1.4353157e-12 </wgt>
<wgt id='1380'> +1.4357220e-12 </wgt>
<wgt id='1381'> +1.4415753e-12 </wgt>
<wgt id='1382'> +1.4300887e-12 </wgt>
<wgt id='1383'> +1.4452782e-12 </wgt>
<wgt id='1384'> +1.4399711e-12 </wgt>
<wgt id='1385'> +1.4342038e-12 </wgt>
<wgt id='1386'> +1.4399124e-12 </wgt>
<wgt id='1387'> +1.4379959e-12 </wgt>
<wgt id='1388'> +1.4434845e-12 </wgt>
<wgt id='1389'> +1.4365500e-12 </wgt>
<wgt id='1390'> +1.4397404e-12 </wgt>
<wgt id='1391'> +1.4096109e-12 </wgt>
<wgt id='1392'> +1.3679208e-12 </wgt>
<wgt id='1393'> +1.3824191e-12 </wgt>
<wgt id='1394'> +1.3964135e-12 </wgt>
<wgt id='1395'> +1.4240917e-12 </wgt>
<wgt id='1396'> +1.4102618e-12 </wgt>
<wgt id='1397'> +1.3945071e-12 </wgt>
<wgt id='1398'> +1.3965133e-12 </wgt>
<wgt id='1399'> +1.3988573e-12 </wgt>
<wgt id='1400'> +1.4021000e-12 </wgt>
<wgt id='1401'> +1.4060815e-12 </wgt>
<wgt id='1402'> +1.4145805e-12 </wgt>
<wgt id='1403'> +1.4195115e-12 </wgt>
<wgt id='1404'> +1.4246299e-12 </wgt>
<wgt id='1405'> +1.4102618e-12 </wgt>
<wgt id='1406'> +1.4064998e-12 </wgt>
<wgt id='1407'> +1.4084310e-12 </wgt>
<wgt id='1408'> +1.4119123e-12 </wgt>
<wgt id='1409'> +1.4131537e-12 </wgt>
<wgt id='1410'> +1.3389856e-12 </wgt>
<wgt id='1411'> +1.3448107e-12 </wgt>
<wgt id='1412'> +1.3315022e-12 </wgt>
<wgt id='1413'> +1.3337120e-12 </wgt>
<wgt id='1414'> +1.3442324e-12 </wgt>
<wgt id='1415'> +1.3371832e-12 </wgt>
<wgt id='1416'> +1.3396886e-12 </wgt>
<wgt id='1417'> +1.3387083e-12 </wgt>
<wgt id='1418'> +1.3391740e-12 </wgt>
<wgt id='1419'> +1.3402439e-12 </wgt>
<wgt id='1420'> +1.3377484e-12 </wgt>
<wgt id='1421'> +1.3272291e-12 </wgt>
<wgt id='1422'> +1.3439373e-12 </wgt>
<wgt id='1423'> +1.3380352e-12 </wgt>
<wgt id='1424'> +1.3401435e-12 </wgt>
<wgt id='1425'> +1.3308823e-12 </wgt>
<wgt id='1426'> +1.3477026e-12 </wgt>
<wgt id='1427'> +1.3274133e-12 </wgt>
<wgt id='1428'> +1.3449436e-12 </wgt>
<wgt id='1429'> +1.3422548e-12 </wgt>
<wgt id='1430'> +1.3345952e-12 </wgt>
<wgt id='1431'> +1.3399150e-12 </wgt>
<wgt id='1432'> +1.3382510e-12 </wgt>
<wgt id='1433'> +1.3211470e-12 </wgt>
<wgt id='1434'> +1.3536300e-12 </wgt>
<wgt id='1435'> +1.3323691e-12 </wgt>
<wgt id='1436'> +1.3558623e-12 </wgt>
<wgt id='1437'> +1.3440003e-12 </wgt>
<wgt id='1438'> +1.3427792e-12 </wgt>
<wgt id='1439'> +1.3322870e-12 </wgt>
<wgt id='1440'> +1.3513050e-12 </wgt>
<wgt id='1441'> +1.3445338e-12 </wgt>
<wgt id='1442'> +1.3261179e-12 </wgt>
<wgt id='1443'> +1.3350436e-12 </wgt>
<wgt id='1444'> +1.3469026e-12 </wgt>
<wgt id='1445'> +1.3470588e-12 </wgt>
<wgt id='1446'> +1.3352314e-12 </wgt>
<wgt id='1447'> +1.3404661e-12 </wgt>
<wgt id='1448'> +1.3410158e-12 </wgt>
<wgt id='1449'> +1.3388831e-12 </wgt>
<wgt id='1450'> +1.3381608e-12 </wgt>
<wgt id='1451'> +1.3381786e-12 </wgt>
<wgt id='1452'> +1.3418950e-12 </wgt>
<wgt id='1453'> +1.3397495e-12 </wgt>
<wgt id='1454'> +1.3414400e-12 </wgt>
<wgt id='1455'> +1.3483152e-12 </wgt>
<wgt id='1456'> +1.3440955e-12 </wgt>
<wgt id='1457'> +1.3449021e-12 </wgt>
<wgt id='1458'> +1.3378006e-12 </wgt>
<wgt id='1459'> +1.3441531e-12 </wgt>
<wgt id='1460'> +1.3473772e-12 </wgt>
<wgt id='1461'> +1.3389856e-12 </wgt>
<wgt id='1462'> +1.3286999e-12 </wgt>
<wgt id='1463'> +1.3460919e-12 </wgt>
<wgt id='1464'> +1.3374612e-12 </wgt>
<wgt id='1465'> +1.3185176e-12 </wgt>
<wgt id='1466'> +1.3211628e-12 </wgt>
<wgt id='1467'> +1.3245593e-12 </wgt>
<wgt id='1468'> +1.3302515e-12 </wgt>
<wgt id='1469'> +1.3331408e-12 </wgt>
<wgt id='1470'> +1.3422021e-12 </wgt>
<wgt id='1471'> +1.3465680e-12 </wgt>
<wgt id='1472'> +1.3511601e-12 </wgt>
<wgt id='1473'> +1.3374612e-12 </wgt>
<wgt id='1474'> +1.3341071e-12 </wgt>
<wgt id='1475'> +1.3363551e-12 </wgt>
<wgt id='1476'> +1.3386156e-12 </wgt>
<wgt id='1477'> +1.3396362e-12 </wgt>
<wgt id='1478'> +1.3905025e-12 </wgt>
<wgt id='1479'> +1.3912765e-12 </wgt>
<wgt id='1480'> +1.3779339e-12 </wgt>
<wgt id='1481'> +1.4075535e-12 </wgt>
<wgt id='1482'> +1.3933395e-12 </wgt>
<wgt id='1483'> +1.3756645e-12 </wgt>
<wgt id='1484'> +1.3788889e-12 </wgt>
<wgt id='1485'> +1.4022003e-12 </wgt>
<wgt id='1486'> +1.3898979e-12 </wgt>
<wgt id='1487'> +1.4015845e-12 </wgt>
<wgt id='1488'> +1.3879433e-12 </wgt>
<wgt id='1489'> +1.3921677e-12 </wgt>
<wgt id='1490'> +1.3874609e-12 </wgt>
<wgt id='1491'> +1.3964883e-12 </wgt>
<wgt id='1492'> +1.3904859e-12 </wgt>
<wgt id='1493'> +1.3715061e-12 </wgt>
<wgt id='1494'> +1.3876274e-12 </wgt>
<wgt id='1495'> +1.3825240e-12 </wgt>
<wgt id='1496'> +1.3914319e-12 </wgt>
<wgt id='1497'> +1.3904457e-12 </wgt>
<wgt id='1498'> +1.3907877e-12 </wgt>
<wgt id='1499'> +1.3937276e-12 </wgt>
<wgt id='1500'> +1.3930417e-12 </wgt>
<wgt id='1501'> +1.3917561e-12 </wgt>
<wgt id='1502'> +1.3887808e-12 </wgt>
<wgt id='1503'> +1.3957756e-12 </wgt>
<wgt id='1504'> +1.3850145e-12 </wgt>
<wgt id='1505'> +1.3954569e-12 </wgt>
<wgt id='1506'> +1.3926763e-12 </wgt>
<wgt id='1507'> +1.3906192e-12 </wgt>
<wgt id='1508'> +1.3932491e-12 </wgt>
<wgt id='1509'> +1.3601435e-12 </wgt>
<wgt id='1510'> +1.3631843e-12 </wgt>
<wgt id='1511'> +1.3470326e-12 </wgt>
<wgt id='1512'> +1.3497062e-12 </wgt>
<wgt id='1513'> +1.3579266e-12 </wgt>
<wgt id='1514'> +1.3653159e-12 </wgt>
<wgt id='1515'> +1.3650555e-12 </wgt>
<wgt id='1516'> +1.3643714e-12 </wgt>
<wgt id='1517'> +1.3623257e-12 </wgt>
<wgt id='1518'> +1.3587218e-12 </wgt>
<wgt id='1519'> +1.3616120e-12 </wgt>
<wgt id='1520'> +1.3611033e-12 </wgt>
<wgt id='1521'> +1.3597615e-12 </wgt>
<wgt id='1522'> +1.3629429e-12 </wgt>
<wgt id='1523'> +1.3633125e-12 </wgt>
<wgt id='1524'> +1.3584864e-12 </wgt>
<wgt id='1525'> +1.3591427e-12 </wgt>
<wgt id='1526'> +1.3616870e-12 </wgt>
<wgt id='1527'> +1.3603064e-12 </wgt>
<wgt id='1528'> +1.3612255e-12 </wgt>
<wgt id='1529'> +1.3613448e-12 </wgt>
<wgt id='1530'> +1.3607142e-12 </wgt>
<wgt id='1531'> +1.3629298e-12 </wgt>
<wgt id='1532'> +1.3570915e-12 </wgt>
<wgt id='1533'> +1.3599702e-12 </wgt>
<wgt id='1534'> +1.3608524e-12 </wgt>
<wgt id='1535'> +1.3563658e-12 </wgt>
<wgt id='1536'> +1.3645599e-12 </wgt>
<wgt id='1537'> +1.3634086e-12 </wgt>
<wgt id='1538'> +1.3462079e-12 </wgt>
<wgt id='1539'> +1.3572796e-12 </wgt>
<wgt id='1540'> +1.3591071e-12 </wgt>
<wgt id='1541'> +1.3570196e-12 </wgt>
<wgt id='1542'> +1.3582070e-12 </wgt>
<wgt id='1543'> +1.3609785e-12 </wgt>
<wgt id='1544'> +1.3580951e-12 </wgt>
<wgt id='1545'> +1.3590274e-12 </wgt>
<wgt id='1546'> +1.3612533e-12 </wgt>
<wgt id='1547'> +1.3589288e-12 </wgt>
<wgt id='1548'> +1.3610203e-12 </wgt>
<wgt id='1549'> +1.3589909e-12 </wgt>
<wgt id='1550'> +1.3603802e-12 </wgt>
<wgt id='1551'> +1.3596636e-12 </wgt>
<wgt id='1552'> +1.3617961e-12 </wgt>
<wgt id='1553'> +1.3603661e-12 </wgt>
<wgt id='1554'> +1.3594246e-12 </wgt>
<wgt id='1555'> +1.3615599e-12 </wgt>
<wgt id='1556'> +1.3629448e-12 </wgt>
<wgt id='1557'> +1.3600078e-12 </wgt>
<wgt id='1558'> +1.3602260e-12 </wgt>
<wgt id='1559'> +1.3591682e-12 </wgt>
<wgt id='1560'> +1.3609411e-12 </wgt>
<wgt id='1561'> +1.3606268e-12 </wgt>
<wgt id='1562'> +1.3603695e-12 </wgt>
<wgt id='1563'> +1.3608835e-12 </wgt>
<wgt id='1564'> +1.3588990e-12 </wgt>
<wgt id='1565'> +1.3599184e-12 </wgt>
<wgt id='1566'> +1.3600246e-12 </wgt>
<wgt id='1567'> +1.3584167e-12 </wgt>
<wgt id='1568'> +1.3603700e-12 </wgt>
<wgt id='1569'> +1.3628515e-12 </wgt>
<wgt id='1570'> +1.3607727e-12 </wgt>
<wgt id='1571'> +1.3603738e-12 </wgt>
<wgt id='1572'> +1.3596342e-12 </wgt>
<wgt id='1573'> +1.3590709e-12 </wgt>
<wgt id='1574'> +1.3605134e-12 </wgt>
<wgt id='1575'> +1.3605259e-12 </wgt>
<wgt id='1576'> +1.3611755e-12 </wgt>
<wgt id='1577'> +1.3625333e-12 </wgt>
<wgt id='1578'> +1.3598877e-12 </wgt>
<wgt id='1579'> +1.3595066e-12 </wgt>
<wgt id='1580'> +1.3602784e-12 </wgt>
<wgt id='1581'> +1.3603442e-12 </wgt>
<wgt id='1582'> +1.3603103e-12 </wgt>
<wgt id='1583'> +1.3593153e-12 </wgt>
<wgt id='1584'> +1.3586124e-12 </wgt>
<wgt id='1585'> +1.3595126e-12 </wgt>
<wgt id='1586'> +1.3603654e-12 </wgt>
<wgt id='1587'> +1.3612562e-12 </wgt>
<wgt id='1588'> +1.3590901e-12 </wgt>
<wgt id='1589'> +1.3611362e-12 </wgt>
<wgt id='1590'> +1.3610574e-12 </wgt>
<wgt id='1591'> +1.3607829e-12 </wgt>
<wgt id='1592'> +1.3611587e-12 </wgt>
<wgt id='1593'> +1.3602529e-12 </wgt>
<wgt id='1594'> +1.3602233e-12 </wgt>
<wgt id='1595'> +1.3589876e-12 </wgt>
<wgt id='1596'> +1.3597721e-12 </wgt>
<wgt id='1597'> +1.3588766e-12 </wgt>
<wgt id='1598'> +1.3608999e-12 </wgt>
<wgt id='1599'> +1.3606286e-12 </wgt>
<wgt id='1600'> +1.3592949e-12 </wgt>
<wgt id='1601'> +1.3602750e-12 </wgt>
<wgt id='1602'> +1.3592300e-12 </wgt>
<wgt id='1603'> +1.3603431e-12 </wgt>
<wgt id='1604'> +1.3598901e-12 </wgt>
<wgt id='1605'> +1.3604853e-12 </wgt>
<wgt id='1606'> +1.3606157e-12 </wgt>
<wgt id='1607'> +1.3603706e-12 </wgt>
<wgt id='1608'> +1.3602050e-12 </wgt>
<wgt id='1609'> +1.3601965e-12 </wgt>
<wgt id='1610'> +1.3451500e-12 </wgt>
<wgt id='1611'> +1.3745353e-12 </wgt>
<wgt id='1612'> +1.5430133e-12 </wgt>
<wgt id='1613'> +1.5103184e-12 </wgt>
<wgt id='1614'> +1.4713804e-12 </wgt>
<wgt id='1615'> +1.5245956e-12 </wgt>
<wgt id='1616'> +1.4764955e-12 </wgt>
<wgt id='1617'> +1.5440039e-12 </wgt>
<wgt id='1618'> +1.5243252e-12 </wgt>
<wgt id='1619'> +1.5024537e-12 </wgt>
<wgt id='1620'> +1.5147867e-12 </wgt>
<wgt id='1621'> +1.5542877e-12 </wgt>
<wgt id='1622'> +1.5580435e-12 </wgt>
<wgt id='1623'> +1.5618939e-12 </wgt>
<wgt id='1624'> +1.5697269e-12 </wgt>
<wgt id='1625'> +1.5140293e-12 </wgt>
<wgt id='1626'> +1.5405390e-12 </wgt>
<wgt id='1627'> +1.5549082e-12 </wgt>
<wgt id='1628'> +1.4458537e-12 </wgt>
<wgt id='1629'> +1.5816993e-12 </wgt>
<wgt id='1630'> +1.5096454e-12 </wgt>
<wgt id='1631'> +1.5252682e-12 </wgt>
<wgt id='1632'> +1.4814762e-12 </wgt>
<wgt id='1633'> +1.5059330e-12 </wgt>
<wgt id='1634'> +1.5433191e-12 </wgt>
<wgt id='1635'> +1.5633217e-12 </wgt>
<wgt id='1636'> +1.5411401e-12 </wgt>
<wgt id='1637'> +1.5706788e-12 </wgt>
<wgt id='1638'> +1.5413330e-12 </wgt>
<wgt id='1639'> +1.5470772e-12 </wgt>
<wgt id='1640'> +1.5331091e-12 </wgt>
<wgt id='1641'> +1.5487387e-12 </wgt>
<wgt id='1642'> +1.4898181e-12 </wgt>
<wgt id='1643'> +1.5243419e-12 </wgt>
<wgt id='1644'> +1.5773379e-12 </wgt>
<wgt id='1645'> +1.5145485e-12 </wgt>
<wgt id='1646'> +1.5701923e-12 </wgt>
<wgt id='1647'> +1.5770010e-12 </wgt>
<wgt id='1648'> +1.5393017e-12 </wgt>
<wgt id='1649'> +1.5820004e-12 </wgt>
<wgt id='1650'> +1.5265113e-12 </wgt>
<wgt id='1651'> +1.5625741e-12 </wgt>
<wgt id='1652'> +1.5444210e-12 </wgt>
<wgt id='1653'> +1.5247780e-12 </wgt>
<wgt id='1654'> +1.5411077e-12 </wgt>
<wgt id='1655'> +1.5689687e-12 </wgt>
<wgt id='1656'> +1.5554113e-12 </wgt>
<wgt id='1657'> +1.5396805e-12 </wgt>
<wgt id='1658'> +1.5454600e-12 </wgt>
<wgt id='1659'> +1.5697269e-12 </wgt>
<wgt id='1660'> +1.5518394e-12 </wgt>
<wgt id='1661'> +1.5852345e-12 </wgt>
<wgt id='1662'> +1.5982458e-12 </wgt>
<wgt id='1663'> +1.5537401e-12 </wgt>
<wgt id='1664'> +1.5401310e-12 </wgt>
<wgt id='1665'> +1.5239384e-12 </wgt>
<wgt id='1666'> +1.5625934e-12 </wgt>
<wgt id='1667'> +1.5639176e-12 </wgt>
<wgt id='1668'> +1.5445443e-12 </wgt>
<wgt id='1669'> +1.5501293e-12 </wgt>
<wgt id='1670'> +1.5308323e-12 </wgt>
<wgt id='1671'> +1.5098591e-12 </wgt>
<wgt id='1672'> +1.5726102e-12 </wgt>
<wgt id='1673'> +1.5488754e-12 </wgt>
<wgt id='1674'> +1.5294371e-12 </wgt>
<wgt id='1675'> +1.5302533e-12 </wgt>
<wgt id='1676'> +1.5226889e-12 </wgt>
<wgt id='1677'> +1.5552254e-12 </wgt>
<wgt id='1678'> +1.5325298e-12 </wgt>
<wgt id='1679'> +1.5552926e-12 </wgt>
<wgt id='1680'> +1.5518558e-12 </wgt>
<wgt id='1681'> +1.5740008e-12 </wgt>
<wgt id='1682'> +1.5340683e-12 </wgt>
<wgt id='1683'> +1.5575860e-12 </wgt>
<wgt id='1684'> +1.6044331e-12 </wgt>
<wgt id='1685'> +1.5287173e-12 </wgt>
<wgt id='1686'> +1.5471831e-12 </wgt>
<wgt id='1687'> +1.5788803e-12 </wgt>
<wgt id='1688'> +1.5020570e-12 </wgt>
<wgt id='1689'> +1.5987590e-12 </wgt>
<wgt id='1690'> +1.5429134e-12 </wgt>
<wgt id='1691'> +1.4879288e-12 </wgt>
<wgt id='1692'> +1.5168105e-12 </wgt>
<wgt id='1693'> +1.5552025e-12 </wgt>
<wgt id='1694'> +1.5425259e-12 </wgt>
<wgt id='1695'> +1.5574685e-12 </wgt>
<wgt id='1696'> +1.5303743e-12 </wgt>
<wgt id='1697'> +1.5228829e-12 </wgt>
<wgt id='1698'> +1.5487842e-12 </wgt>
<wgt id='1699'> +1.5521299e-12 </wgt>
<wgt id='1700'> +1.5258154e-12 </wgt>
<wgt id='1701'> +1.5892422e-12 </wgt>
<wgt id='1702'> +1.4997346e-12 </wgt>
<wgt id='1703'> +1.5211882e-12 </wgt>
<wgt id='1704'> +1.5300286e-12 </wgt>
<wgt id='1705'> +1.4953362e-12 </wgt>
<wgt id='1706'> +1.5638255e-12 </wgt>
<wgt id='1707'> +1.5454695e-12 </wgt>
<wgt id='1708'> +1.6118628e-12 </wgt>
<wgt id='1709'> +1.5878656e-12 </wgt>
<wgt id='1710'> +1.5453626e-12 </wgt>
<wgt id='1711'> +1.5560648e-12 </wgt>
<wgt id='1712'> +1.6152993e-12 </wgt>
<wgt id='1713'> +1.3626866e-12 </wgt>
<wgt id='1714'> +1.3438668e-12 </wgt>
<wgt id='1715'> +1.3181879e-12 </wgt>
<wgt id='1716'> +1.3955673e-12 </wgt>
<wgt id='1717'> +1.3755137e-12 </wgt>
<wgt id='1718'> +1.4067464e-12 </wgt>
<wgt id='1719'> +1.3829126e-12 </wgt>
<wgt id='1720'> +1.3305619e-12 </wgt>
<wgt id='1721'> +1.3402464e-12 </wgt>
<wgt id='1722'> +1.3609537e-12 </wgt>
<wgt id='1723'> +1.3984154e-12 </wgt>
<wgt id='1724'> +1.3746749e-12 </wgt>
<wgt id='1725'> +1.3821413e-12 </wgt>
<wgt id='1726'> +1.3721928e-12 </wgt>
<wgt id='1727'> +1.4019781e-12 </wgt>
<wgt id='1728'> +1.3471243e-12 </wgt>
<wgt id='1729'> +1.3061275e-12 </wgt>
<wgt id='1730'> +1.3404967e-12 </wgt>
<wgt id='1731'> +1.3032214e-12 </wgt>
<wgt id='1732'> +1.3623819e-12 </wgt>
<wgt id='1733'> +1.3041256e-12 </wgt>
<wgt id='1734'> +1.4238627e-12 </wgt>
<wgt id='1735'> +1.3415204e-12 </wgt>
<wgt id='1736'> +1.3945699e-12 </wgt>
<wgt id='1737'> +1.3991051e-12 </wgt>
<wgt id='1738'> +1.3588512e-12 </wgt>
<wgt id='1739'> +1.3764138e-12 </wgt>
<wgt id='1740'> +1.2921219e-12 </wgt>
<wgt id='1741'> +1.4008529e-12 </wgt>
<wgt id='1742'> +1.3468736e-12 </wgt>
<wgt id='1743'> +1.3455622e-12 </wgt>
<wgt id='1744'> +1.3814996e-12 </wgt>
<wgt id='1745'> +1.3887014e-12 </wgt>
<wgt id='1746'> +1.3561125e-12 </wgt>
<wgt id='1747'> +1.4092480e-12 </wgt>
<wgt id='1748'> +1.3685993e-12 </wgt>
<wgt id='1749'> +1.3587764e-12 </wgt>
<wgt id='1750'> +1.3393219e-12 </wgt>
<wgt id='1751'> +1.3490881e-12 </wgt>
<wgt id='1752'> +1.3386807e-12 </wgt>
<wgt id='1753'> +1.3694950e-12 </wgt>
<wgt id='1754'> +1.3766243e-12 </wgt>
<wgt id='1755'> +1.3712143e-12 </wgt>
<wgt id='1756'> +1.3861696e-12 </wgt>
<wgt id='1757'> +1.3799367e-12 </wgt>
<wgt id='1758'> +1.3976980e-12 </wgt>
<wgt id='1759'> +1.3818964e-12 </wgt>
<wgt id='1760'> +1.3575433e-12 </wgt>
<wgt id='1761'> +1.3507963e-12 </wgt>
<wgt id='1762'> +1.3582678e-12 </wgt>
<wgt id='1763'> +1.3805058e-12 </wgt>
<wgt id='1764'> +1.4089023e-12 </wgt>
<wgt id='1765'> +1.3692130e-12 </wgt>
<wgt id='1766'> +1.3971286e-12 </wgt>
<wgt id='1767'> +1.3491298e-12 </wgt>
<wgt id='1768'> +1.3860531e-12 </wgt>
<wgt id='1769'> +1.3487828e-12 </wgt>
<wgt id='1770'> +1.3546354e-12 </wgt>
<wgt id='1771'> +1.4138427e-12 </wgt>
<wgt id='1772'> +1.3399380e-12 </wgt>
<wgt id='1773'> +1.3682547e-12 </wgt>
<wgt id='1774'> +1.3610171e-12 </wgt>
<wgt id='1775'> +1.3623069e-12 </wgt>
<wgt id='1776'> +1.4180895e-12 </wgt>
<wgt id='1777'> +1.3034617e-12 </wgt>
<wgt id='1778'> +1.3751368e-12 </wgt>
<wgt id='1779'> +1.3527618e-12 </wgt>
<wgt id='1780'> +1.3697143e-12 </wgt>
<wgt id='1781'> +1.3816203e-12 </wgt>
<wgt id='1782'> +1.3509238e-12 </wgt>
<wgt id='1783'> +1.3603943e-12 </wgt>
<wgt id='1784'> +1.3628659e-12 </wgt>
<wgt id='1785'> +1.3828596e-12 </wgt>
<wgt id='1786'> +1.3515405e-12 </wgt>
<wgt id='1787'> +1.4396693e-12 </wgt>
<wgt id='1788'> +1.3475148e-12 </wgt>
<wgt id='1789'> +1.4399246e-12 </wgt>
<wgt id='1790'> +1.3571717e-12 </wgt>
<wgt id='1791'> +1.3520533e-12 </wgt>
<wgt id='1792'> +1.3519747e-12 </wgt>
<wgt id='1793'> +1.3444843e-12 </wgt>
<wgt id='1794'> +1.3795249e-12 </wgt>
<wgt id='1795'> +1.3722411e-12 </wgt>
<wgt id='1796'> +1.3188237e-12 </wgt>
<wgt id='1797'> +1.3573085e-12 </wgt>
<wgt id='1798'> +1.3625750e-12 </wgt>
<wgt id='1799'> +1.3466526e-12 </wgt>
<wgt id='1800'> +1.3793135e-12 </wgt>
<wgt id='1801'> +1.3632990e-12 </wgt>
<wgt id='1802'> +1.3185267e-12 </wgt>
<wgt id='1803'> +1.3665473e-12 </wgt>
<wgt id='1804'> +1.3688266e-12 </wgt>
<wgt id='1805'> +1.3333540e-12 </wgt>
<wgt id='1806'> +1.3286665e-12 </wgt>
<wgt id='1807'> +1.3399173e-12 </wgt>
<wgt id='1808'> +1.3376041e-12 </wgt>
<wgt id='1809'> +1.3405666e-12 </wgt>
<wgt id='1810'> +1.3309831e-12 </wgt>
<wgt id='1811'> +1.3781405e-12 </wgt>
<wgt id='1812'> +1.3415383e-12 </wgt>
<wgt id='1813'> +1.2838518e-12 </wgt>
<wgt id='1814'> +1.7016703e-12 </wgt>
<wgt id='1815'> +2.0470193e-12 </wgt>
<wgt id='1816'> +1.3626866e-12 </wgt>
<wgt id='1817'> +1.3438668e-12 </wgt>
<wgt id='1818'> +1.3181879e-12 </wgt>
<wgt id='1819'> +1.3955673e-12 </wgt>
<wgt id='1820'> +1.3755137e-12 </wgt>
<wgt id='1821'> +1.4067464e-12 </wgt>
<wgt id='1822'> +1.3829126e-12 </wgt>
<wgt id='1823'> +1.3305619e-12 </wgt>
<wgt id='1824'> +1.3402464e-12 </wgt>
<wgt id='1825'> +1.3609537e-12 </wgt>
<wgt id='1826'> +1.3984154e-12 </wgt>
<wgt id='1827'> +1.3746749e-12 </wgt>
<wgt id='1828'> +1.3821413e-12 </wgt>
<wgt id='1829'> +1.3721928e-12 </wgt>
<wgt id='1830'> +1.4019781e-12 </wgt>
<wgt id='1831'> +1.3471243e-12 </wgt>
<wgt id='1832'> +1.3061275e-12 </wgt>
<wgt id='1833'> +1.3404967e-12 </wgt>
<wgt id='1834'> +1.3032214e-12 </wgt>
<wgt id='1835'> +1.3623819e-12 </wgt>
<wgt id='1836'> +1.3041256e-12 </wgt>
<wgt id='1837'> +1.4238627e-12 </wgt>
<wgt id='1838'> +1.3415204e-12 </wgt>
<wgt id='1839'> +1.3945699e-12 </wgt>
<wgt id='1840'> +1.3991051e-12 </wgt>
<wgt id='1841'> +1.3588512e-12 </wgt>
<wgt id='1842'> +1.3764138e-12 </wgt>
<wgt id='1843'> +1.2921219e-12 </wgt>
<wgt id='1844'> +1.4008529e-12 </wgt>
<wgt id='1845'> +1.3468736e-12 </wgt>
<wgt id='1846'> +1.3455622e-12 </wgt>
<wgt id='1847'> +1.3814996e-12 </wgt>
<wgt id='1848'> +1.3887014e-12 </wgt>
<wgt id='1849'> +1.3561125e-12 </wgt>
<wgt id='1850'> +1.4092480e-12 </wgt>
<wgt id='1851'> +1.3685993e-12 </wgt>
<wgt id='1852'> +1.3587764e-12 </wgt>
<wgt id='1853'> +1.3393219e-12 </wgt>
<wgt id='1854'> +1.3490881e-12 </wgt>
<wgt id='1855'> +1.3386807e-12 </wgt>
<wgt id='1856'> +1.3694950e-12 </wgt>
<wgt id='1857'> +1.3766243e-12 </wgt>
<wgt id='1858'> +1.3712143e-12 </wgt>
<wgt id='1859'> +1.3861696e-12 </wgt>
<wgt id='1860'> +1.3799367e-12 </wgt>
<wgt id='1861'> +1.3976980e-12 </wgt>
<wgt id='1862'> +1.3818964e-12 </wgt>
<wgt id='1863'> +1.3575433e-12 </wgt>
<wgt id='1864'> +1.3507963e-12 </wgt>
<wgt id='1865'> +1.3582678e-12 </wgt>
<wgt id='1866'> +1.3805058e-12 </wgt>
<wgt id='1867'> +1.4089023e-12 </wgt>
<wgt id='1868'> +1.3692130e-12 </wgt>
<wgt id='1869'> +1.3971286e-12 </wgt>
<wgt id='1870'> +1.3491298e-12 </wgt>
<wgt id='1871'> +1.3860531e-12 </wgt>
<wgt id='1872'> +1.3487828e-12 </wgt>
<wgt id='1873'> +1.3546354e-12 </wgt>
<wgt id='1874'> +1.4138427e-12 </wgt>
<wgt id='1875'> +1.3399380e-12 </wgt>
<wgt id='1876'> +1.3682547e-12 </wgt>
<wgt id='1877'> +1.3610171e-12 </wgt>
<wgt id='1878'> +1.3623069e-12 </wgt>
<wgt id='1879'> +1.4180895e-12 </wgt>
<wgt id='1880'> +1.3034617e-12 </wgt>
<wgt id='1881'> +1.3751368e-12 </wgt>
<wgt id='1882'> +1.3527618e-12 </wgt>
<wgt id='1883'> +1.3697143e-12 </wgt>
<wgt id='1884'> +1.3816203e-12 </wgt>
<wgt id='1885'> +1.3509238e-12 </wgt>
<wgt id='1886'> +1.3603943e-12 </wgt>
<wgt id='1887'> +1.3628659e-12 </wgt>
<wgt id='1888'> +1.3828596e-12 </wgt>
<wgt id='1889'> +1.3515405e-12 </wgt>
<wgt id='1890'> +1.4396693e-12 </wgt>
<wgt id='1891'> +1.3475148e-12 </wgt>
<wgt id='1892'> +1.4399246e-12 </wgt>
<wgt id='1893'> +1.3571717e-12 </wgt>
<wgt id='1894'> +1.3520533e-12 </wgt>
<wgt id='1895'> +1.3519747e-12 </wgt>
<wgt id='1896'> +1.3444843e-12 </wgt>
<wgt id='1897'> +1.3795249e-12 </wgt>
<wgt id='1898'> +1.3722411e-12 </wgt>
<wgt id='1899'> +1.3188237e-12 </wgt>
<wgt id='1900'> +1.3573085e-12 </wgt>
<wgt id='1901'> +1.3625750e-12 </wgt>
<wgt id='1902'> +1.3466526e-12 </wgt>
<wgt id='1903'> +1.3793135e-12 </wgt>
<wgt id='1904'> +1.3632990e-12 </wgt>
<wgt id='1905'> +1.3185267e-12 </wgt>
<wgt id='1906'> +1.3665473e-12 </wgt>
<wgt id='1907'> +1.3688266e-12 </wgt>
<wgt id='1908'> +1.3333540e-12 </wgt>
<wgt id='1909'> +1.3286665e-12 </wgt>
<wgt id='1910'> +1.3399173e-12 </wgt>
<wgt id='1911'> +1.3376041e-12 </wgt>
<wgt id='1912'> +1.3405666e-12 </wgt>
<wgt id='1913'> +1.3309831e-12 </wgt>
<wgt id='1914'> +1.3781405e-12 </wgt>
<wgt id='1915'> +1.3415383e-12 </wgt>
<wgt id='1916'> +1.2838518e-12 </wgt>
<wgt id='1917'> +1.3555205e-12 </wgt>
<wgt id='1918'> +1.3772013e-12 </wgt>
<wgt id='1919'> +1.3364825e-12 </wgt>
</rwgt>
</event>
<event>
 9      1 +1.5607000e-12 6.39560300e+01 7.81860800e-03 1.25411500e-01
       -2 -1    0    0    0  501 -0.0000000000e+00 +0.0000000000e+00 +7.5940492253e+01 7.5940492253e+01 0.0000000000e+00 0.0000e+00 1.0000e+00
       21 -1    0    0  501  502 +0.0000000000e+00 -0.0000000000e+00 -1.3465719543e+01 1.3465719543e+01 0.0000000000e+00 0.0000e+00 1.0000e+00
     1023  2    1    2    0    0 -2.9048130903e+00 +2.9203150205e+01 +2.2882045996e+01 4.0122888758e+01 1.4999875076e+01 0.0000e+00 0.0000e+00
  1000023  2    3    3    0    0 -4.8516677930e+00 +2.1674816928e+01 +2.0132542777e+01 3.0477899742e+01 5.4997022426e+00 0.0000e+00 0.0000e+00
       -2  1    1    2    0  502 +2.9048130903e+00 -2.9203150205e+01 +3.9592726715e+01 4.9283323038e+01 0.0000000000e+00 0.0000e+00 1.0000e+00
  1000022  1    4    4    0    0 -4.1200252226e+00 +1.9250828335e+01 +1.8285624466e+01 2.7330076135e+01 5.0000000000e+00 0.0000e+00 1.0000e+00
      -13  1    4    4    0    0 -2.4385231821e-01 +6.2007520095e-01 +5.5461545479e-01 8.7334300285e-01 1.0570000000e-01 0.0000e+00 1.0000e+00
       13  1    4    4    0    0 -4.8779025226e-01 +1.8039133918e+00 +1.2923028563e+00 2.2744806039e+00 1.0570000000e-01 0.0000e+00 1.0000e+00
  1000022  1    3    3    0    0 +1.9468547027e+00 +7.5283332776e+00 +2.7495032186e+00 9.6449890161e+00 5.0000000000e+00 0.0000e+00 -1.0000e+00
<mgrwt>
<rscale>  1 0.63956028E+02</rscale>
<asrwt>0</asrwt>
<pdfrwt beam="1">  1       21 0.20716492E-02 0.63956028E+02</pdfrwt>
<pdfrwt beam="2">  1       -2 0.11683152E-01 0.63956028E+02</pdfrwt>
<totfact> 0.47314982E+06</totfact>
</mgrwt>
<rwgt>
<wgt id='1001'> +1.5607000e-12 </wgt>
<wgt id='1002'> +1.5580137e-12 </wgt>
<wgt id='1003'> +1.5584364e-12 </wgt>
<wgt id='1004'> +1.4968454e-12 </wgt>
<wgt id='1005'> +1.5607000e-12 </wgt>
<wgt id='1006'> +1.3904082e-12 </wgt>
<wgt id='1007'> +1.3866634e-12 </wgt>
<wgt id='1008'> +1.3872483e-12 </wgt>
<wgt id='1009'> +1.3106208e-12 </wgt>
<wgt id='1010'> +1.3904082e-12 </wgt>
<wgt id='1011'> +1.7805206e-12 </wgt>
<wgt id='1012'> +1.7797421e-12 </wgt>
<wgt id='1013'> +1.7798728e-12 </wgt>
<wgt id='1014'> +1.7477860e-12 </wgt>
<wgt id='1015'> +1.7805206e-12 </wgt>
<wgt id='1016'> +1.7772445e-12 </wgt>
<wgt id='1017'> +1.7781781e-12 </wgt>
<wgt id='1018'> +1.7780405e-12 </wgt>
<wgt id='1019'> +1.7798728e-12 </wgt>
<wgt id='1020'> +1.7772445e-12 </wgt>
<wgt id='1021'> +1.5833250e-12 </wgt>
<wgt id='1022'> +1.5826141e-12 </wgt>
<wgt id='1023'> +1.5827297e-12 </wgt>
<wgt id='1024'> +1.5584364e-12 </wgt>
<wgt id='1025'> +1.5833250e-12 </wgt>
<wgt id='1026'> +2.0275648e-12 </wgt>
<wgt id='1027'> +2.0312392e-12 </wgt>
<wgt id='1028'> +2.0306801e-12 </wgt>
<wgt id='1029'> +2.0782618e-12 </wgt>
<wgt id='1030'> +2.0275648e-12 </wgt>
<wgt id='1031'> +1.3163511e-12 </wgt>
<wgt id='1032'> +1.3095604e-12 </wgt>
<wgt id='1033'> +1.3106208e-12 </wgt>
<wgt id='1034'> +1.1809784e-12 </wgt>
<wgt id='1035'> +1.3163511e-12 </wgt>
<wgt id='1036'> +1.1727208e-12 </wgt>
<wgt id='1037'> +1.1655349e-12 </wgt>
<wgt id='1038'> +1.1666543e-12 </wgt>
<wgt id='1039'> +1.0340513e-12 </wgt>
<wgt id='1040'> +1.1727208e-12 </wgt>
<wgt id='1041'> +1.5017557e-12 </wgt>
<wgt id='1042'> +1.4959302e-12 </wgt>
<wgt id='1043'> +1.4968454e-12 </wgt>
<wgt id='1044'> +1.3789651e-12 </wgt>
<wgt id='1045'> +1.5017557e-12 </wgt>
<wgt id='1046'> +1.5607000e-12 </wgt>
<wgt id='1047'> +1.6685150e-12 </wgt>
<wgt id='1048'> +1.5730944e-12 </wgt>
<wgt id='1049'> +1.5385109e-12 </wgt>
<wgt id='1050'> +1.5492795e-12 </wgt>
<wgt id='1051'> +1.5102920e-12 </wgt>
<wgt id='1052'> +1.6050536e-12 </wgt>
<wgt id='1053'> +1.5684397e-12 </wgt>
<wgt id='1054'> +1.5241049e-12 </wgt>
<wgt id='1055'> +1.5180470e-12 </wgt>
<wgt id='1056'> +1.5212732e-12 </wgt>
<wgt id='1057'> +1.5728048e-12 </wgt>
<wgt id='1058'> +1.5084378e-12 </wgt>
<wgt id='1059'> +1.5525574e-12 </wgt>
<wgt id='1060'> +1.5626965e-12 </wgt>
<wgt id='1061'> +1.5704804e-12 </wgt>
<wgt id='1062'> +1.5734579e-12 </wgt>
<wgt id='1063'> +1.5728498e-12 </wgt>
<wgt id='1064'> +1.5196936e-12 </wgt>
<wgt id='1065'> +1.5722677e-12 </wgt>
<wgt id='1066'> +1.5039169e-12 </wgt>
<wgt id='1067'> +1.5346962e-12 </wgt>
<wgt id='1068'> +1.6060416e-12 </wgt>
<wgt id='1069'> +1.5795643e-12 </wgt>
<wgt id='1070'> +1.5218580e-12 </wgt>
<wgt id='1071'> +1.5466802e-12 </wgt>
<wgt id='1072'> +1.6220959e-12 </wgt>
<wgt id='1073'> +1.5874032e-12 </wgt>
<wgt id='1074'> +1.5361986e-12 </wgt>
<wgt id='1075'> +1.5579234e-12 </wgt>
<wgt id='1076'> +1.5824248e-12 </wgt>
<wgt id='1077'> +1.6118462e-12 </wgt>
<wgt id='1078'> +1.5469981e-12 </wgt>
<wgt id='1079'> +1.5846502e-12 </wgt>
<wgt id='1080'> +1.4971031e-12 </wgt>
<wgt id='1081'> +1.5744370e-12 </wgt>
<wgt id='1082'> +1.5767515e-12 </wgt>
<wgt id='1083'> +1.5711292e-12 </wgt>
<wgt id='1084'> +1.5395886e-12 </wgt>
<wgt id='1085'> +1.5501415e-12 </wgt>
<wgt id='1086'> +1.6020414e-12 </wgt>
<wgt id='1087'> +1.5724400e-12 </wgt>
<wgt id='1088'> +1.5738998e-12 </wgt>
<wgt id='1089'> +1.5800103e-12 </wgt>
<wgt id='1090'> +1.5708101e-12 </wgt>
<wgt id='1091'> +1.5855941e-12 </wgt>
<wgt id='1092'> +1.6078441e-12 </wgt>
<wgt id='1093'> +1.5707464e-12 </wgt>
<wgt id='1094'> +1.5650231e-12 </wgt>
<wgt id='1095'> +1.5811149e-12 </wgt>
<wgt id='1096'> +1.5415358e-12 </wgt>
<wgt id='1097'> +1.5099216e-12 </wgt>
<wgt id='1098'> +1.5489761e-12 </wgt>
<wgt id='1099'> +1.5466762e-12 </wgt>
<wgt id='1100'> +1.5695744e-12 </wgt>
<wgt id='1101'> +1.5940144e-12 </wgt>
<wgt id='1102'> +1.5528149e-12 </wgt>
<wgt id='1103'> +1.5959188e-12 </wgt>
<wgt id='1104'> +1.5560482e-12 </wgt>
<wgt id='1105'> +1.5708503e-12 </wgt>
<wgt id='1106'> +1.6013281e-12 </wgt>
<wgt id='1107'> +1.5829133e-12 </wgt>
<wgt id='1108'> +1.5485935e-12 </wgt>
<wgt id='1109'> +1.5465210e-12 </wgt>
<wgt id='1110'> +1.5150468e-12 </wgt>
<wgt id='1111'> +1.5920978e-12 </wgt>
<wgt id='1112'> +1.6088893e-12 </wgt>
<wgt id='1113'> +1.5567610e-12 </wgt>
<wgt id='1114'> +1.6011657e-12 </wgt>
<wgt id='1115'> +1.5743985e-12 </wgt>
<wgt id='1116'> +1.5392918e-12 </wgt>
<wgt id='1117'> +1.5325248e-12 </wgt>
<wgt id='1118'> +1.5577137e-12 </wgt>
<wgt id='1119'> +1.5105393e-12 </wgt>
<wgt id='1120'> +1.5208195e-12 </wgt>
<wgt id='1121'> +1.5381974e-12 </wgt>
<wgt id='1122'> +1.6160468e-12 </wgt>
<wgt id='1123'> +1.5289730e-12 </wgt>
<wgt id='1124'> +1.5506392e-12 </wgt>
<wgt id='1125'> +1.5558619e-12 </wgt>
<wgt id='1126'> +1.5642155e-12 </wgt>
<wgt id='1127'> +1.5559104e-12 </wgt>
<wgt id='1128'> +1.5734579e-12 </wgt>
<wgt id='1129'> +1.5749956e-12 </wgt>
<wgt id='1130'> +1.5446078e-12 </wgt>
<wgt id='1131'> +1.5696667e-12 </wgt>
<wgt id='1132'> +1.5757052e-12 </wgt>
<wgt id='1133'> +1.4845165e-12 </wgt>
<wgt id='1134'> +1.5772757e-12 </wgt>
<wgt id='1135'> +1.5205796e-12 </wgt>
<wgt id='1136'> +1.5308752e-12 </wgt>
<wgt id='1137'> +1.5322536e-12 </wgt>
<wgt id='1138'> +1.5103090e-12 </wgt>
<wgt id='1139'> +1.5417104e-12 </wgt>
<wgt id='1140'> +1.5378726e-12 </wgt>
<wgt id='1141'> +1.5616835e-12 </wgt>
<wgt id='1142'> +1.5768863e-12 </wgt>
<wgt id='1143'> +1.5978630e-12 </wgt>
<wgt id='1144'> +1.5871485e-12 </wgt>
<wgt id='1145'> +1.5842688e-12 </wgt>
<wgt id='1146'> +1.5740986e-12 </wgt>
<wgt id='1147'> +1.2308481e-12 </wgt>
<wgt id='1148'> +1.2577203e-12 </wgt>
<wgt id='1149'> +1.2731008e-12 </wgt>
<wgt id='1150'> +1.2651660e-12 </wgt>
<wgt id='1151'> +1.2716477e-12 </wgt>
<wgt id='1152'> +1.6216383e-12 </wgt>
<wgt id='1153'> +1.6130477e-12 </wgt>
<wgt id='1154'> +1.6266207e-12 </wgt>
<wgt id='1155'> +1.6197689e-12 </wgt>
<wgt id='1156'> +1.6226464e-12 </wgt>
<wgt id='1157'> +1.6264026e-12 </wgt>
<wgt id='1158'> +1.6152569e-12 </wgt>
<wgt id='1159'> +1.6257119e-12 </wgt>
<wgt id='1160'> +1.6190538e-12 </wgt>
<wgt id='1161'> +1.6190772e-12 </wgt>
<wgt id='1162'> +1.6234074e-12 </wgt>
<wgt id='1163'> +1.6256367e-12 </wgt>
<wgt id='1164'> +1.6177333e-12 </wgt>
<wgt id='1165'> +1.6135550e-12 </wgt>
<wgt id='1166'> +1.6295634e-12 </wgt>
<wgt id='1167'> +1.6262930e-12 </wgt>
<wgt id='1168'> +1.6139862e-12 </wgt>
<wgt id='1169'> +1.6232886e-12 </wgt>
<wgt id='1170'> +1.6204291e-12 </wgt>
<wgt id='1171'> +1.6149284e-12 </wgt>
<wgt id='1172'> +1.6296168e-12 </wgt>
<wgt id='1173'> +1.6087658e-12 </wgt>
<wgt id='1174'> +1.6334787e-12 </wgt>
<wgt id='1175'> +1.6222926e-12 </wgt>
<wgt id='1176'> +1.6201149e-12 </wgt>
<wgt id='1177'> +1.6231125e-12 </wgt>
<wgt id='1178'> +1.6174754e-12 </wgt>
<wgt id='1179'> +1.6279861e-12 </wgt>
<wgt id='1180'> +1.6079673e-12 </wgt>
<wgt id='1181'> +1.6160721e-12 </wgt>
<wgt id='1182'> +1.6269546e-12 </wgt>
<wgt id='1183'> +1.6200040e-12 </wgt>
<wgt id='1184'> +1.6217961e-12 </wgt>
<wgt id='1185'> +1.6140829e-12 </wgt>
<wgt id='1186'> +1.6262597e-12 </wgt>
<wgt id='1187'> +1.6213044e-12 </wgt>
<wgt id='1188'> +1.6217846e-12 </wgt>
<wgt id='1189'> +1.6182727e-12 </wgt>
<wgt id='1190'> +1.6099171e-12 </wgt>
<wgt id='1191'> +1.6140111e-12 </wgt>
<wgt id='1192'> +1.6236972e-12 </wgt>
<wgt id='1193'> +1.2936164e-12 </wgt>
<wgt id='1194'> +1.2928668e-12 </wgt>
<wgt id='1195'> +1.2942351e-12 </wgt>
<wgt id='1196'> +1.3011370e-12 </wgt>
<wgt id='1197'> +1.2853005e-12 </wgt>
<wgt id='1198'> +1.2929482e-12 </wgt>
<wgt id='1199'> +1.2946517e-12 </wgt>
<wgt id='1200'> +1.2947626e-12 </wgt>
<wgt id='1201'> +1.2928741e-12 </wgt>
<wgt id='1202'> +1.2923958e-12 </wgt>
<wgt id='1203'> +1.2953672e-12 </wgt>
<wgt id='1204'> +1.2862022e-12 </wgt>
<wgt id='1205'> +1.2982156e-12 </wgt>
<wgt id='1206'> +1.2976274e-12 </wgt>
<wgt id='1207'> +1.2882668e-12 </wgt>
<wgt id='1208'> +1.2858963e-12 </wgt>
<wgt id='1209'> +1.2964511e-12 </wgt>
<wgt id='1210'> +1.2979411e-12 </wgt>
<wgt id='1211'> +1.2810810e-12 </wgt>
<wgt id='1212'> +1.2941281e-12 </wgt>
<wgt id='1213'> +1.2931100e-12 </wgt>
<wgt id='1214'> +1.2771474e-12 </wgt>
<wgt id='1215'> +1.3210459e-12 </wgt>
<wgt id='1216'> +1.2985596e-12 </wgt>
<wgt id='1217'> +1.2897649e-12 </wgt>
<wgt id='1218'> +1.2982040e-12 </wgt>
<wgt id='1219'> +1.2911671e-12 </wgt>
<wgt id='1220'> +1.2990515e-12 </wgt>
<wgt id='1221'> +1.2915387e-12 </wgt>
<wgt id='1222'> +1.2965253e-12 </wgt>
<wgt id='1223'> +1.2870480e-12 </wgt>
<wgt id='1224'> +1.2950738e-12 </wgt>
<wgt id='1225'> +1.2930791e-12 </wgt>
<wgt id='1226'> +1.2896235e-12 </wgt>
<wgt id='1227'> +1.2963735e-12 </wgt>
<wgt id='1228'> +1.2945387e-12 </wgt>
<wgt id='1229'> +1.2924175e-12 </wgt>
<wgt id='1230'> +1.2894130e-12 </wgt>
<wgt id='1231'> +1.2864713e-12 </wgt>
<wgt id='1232'> +1.2954895e-12 </wgt>
<wgt id='1233'> +1.2930974e-12 </wgt>
<wgt id='1234'> +1.2936164e-12 </wgt>
<wgt id='1235'> +1.2854740e-12 </wgt>
<wgt id='1236'> +1.2885309e-12 </wgt>
<wgt id='1237'> +1.2913179e-12 </wgt>
<wgt id='1238'> +1.2959975e-12 </wgt>
<wgt id='1239'> +1.2979394e-12 </wgt>
<wgt id='1240'> +1.2997572e-12 </wgt>
<wgt id='1241'> +1.2817427e-12 </wgt>
<wgt id='1242'> +1.2771164e-12 </wgt>
<wgt id='1243'> +1.2863698e-12 </wgt>
<wgt id='1244'> +1.2741324e-12 </wgt>
<wgt id='1245'> +1.2873634e-12 </wgt>
<wgt id='1246'> +1.2813013e-12 </wgt>
<wgt id='1247'> +1.2820953e-12 </wgt>
<wgt id='1248'> +1.2816390e-12 </wgt>
<wgt id='1249'> +1.2818095e-12 </wgt>
<wgt id='1250'> +1.2849068e-12 </wgt>
<wgt id='1251'> +1.2794682e-12 </wgt>
<wgt id='1252'> +1.2787719e-12 </wgt>
<wgt id='1253'> +1.2840401e-12 </wgt>
<wgt id='1254'> +1.2741083e-12 </wgt>
<wgt id='1255'> +1.2862991e-12 </wgt>
<wgt id='1256'> +1.2856513e-12 </wgt>
<wgt id='1257'> +1.2719604e-12 </wgt>
<wgt id='1258'> +1.3032804e-12 </wgt>
<wgt id='1259'> +1.2621809e-12 </wgt>
<wgt id='1260'> +1.2853864e-12 </wgt>
<wgt id='1261'> +1.2776154e-12 </wgt>
<wgt id='1262'> +1.2801483e-12 </wgt>
<wgt id='1263'> +1.2820129e-12 </wgt>
<wgt id='1264'> +1.2859991e-12 </wgt>
<wgt id='1265'> +1.2795275e-12 </wgt>
<wgt id='1266'> +1.2729154e-12 </wgt>
<wgt id='1267'> +1.2891322e-12 </wgt>
<wgt id='1268'> +1.2835248e-12 </wgt>
<wgt id='1269'> +1.2826712e-12 </wgt>
<wgt id='1270'> +1.2748356e-12 </wgt>
<wgt id='1271'> +1.2759787e-12 </wgt>
<wgt id='1272'> +1.2800804e-12 </wgt>
<wgt id='1273'> +1.2815905e-12 </wgt>
<wgt id='1274'> +1.2841620e-12 </wgt>
<wgt id='1275'> +1.2769761e-12 </wgt>
<wgt id='1276'> +1.2789239e-12 </wgt>
<wgt id='1277'> +1.2832805e-12 </wgt>
<wgt id='1278'> +1.2792136e-12 </wgt>
<wgt id='1279'> +1.2788709e-12 </wgt>
<wgt id='1280'> +1.2810702e-12 </wgt>
<wgt id='1281'> +1.2848048e-12 </wgt>
<wgt id='1282'> +1.2817427e-12 </wgt>
<wgt id='1283'> +1.2731720e-12 </wgt>
<wgt id='1284'> +1.2764249e-12 </wgt>
<wgt id='1285'> +1.2793081e-12 </wgt>
<wgt id='1286'> +1.2841106e-12 </wgt>
<wgt id='1287'> +1.2860524e-12 </wgt>
<wgt id='1288'> +1.2876372e-12 </wgt>
<wgt id='1289'> +1.3080999e-12 </wgt>
<wgt id='1290'> +1.3059139e-12 </wgt>
<wgt id='1291'> +1.3105002e-12 </wgt>
<wgt id='1292'> +1.3020454e-12 </wgt>
<wgt id='1293'> +1.3124522e-12 </wgt>
<wgt id='1294'> +1.3029218e-12 </wgt>
<wgt id='1295'> +1.3131695e-12 </wgt>
<wgt id='1296'> +1.3056694e-12 </wgt>
<wgt id='1297'> +1.3110510e-12 </wgt>
<wgt id='1298'> +1.3105334e-12 </wgt>
<wgt id='1299'> +1.3049899e-12 </wgt>
<wgt id='1300'> +1.3099002e-12 </wgt>
<wgt id='1301'> +1.3044888e-12 </wgt>
<wgt id='1302'> +1.3060473e-12 </wgt>
<wgt id='1303'> +1.3109919e-12 </wgt>
<wgt id='1304'> +1.3058781e-12 </wgt>
<wgt id='1305'> +1.3095948e-12 </wgt>
<wgt id='1306'> +1.3055905e-12 </wgt>
<wgt id='1307'> +1.3109750e-12 </wgt>
<wgt id='1308'> +1.3071434e-12 </wgt>
<wgt id='1309'> +1.3087869e-12 </wgt>
<wgt id='1310'> +1.3105452e-12 </wgt>
<wgt id='1311'> +1.3056786e-12 </wgt>
<wgt id='1312'> +1.3079692e-12 </wgt>
<wgt id='1313'> +1.3085325e-12 </wgt>
<wgt id='1314'> +1.3065568e-12 </wgt>
<wgt id='1315'> +1.3056764e-12 </wgt>
<wgt id='1316'> +1.3136835e-12 </wgt>
<wgt id='1317'> +1.3082461e-12 </wgt>
<wgt id='1318'> +1.3189142e-12 </wgt>
<wgt id='1319'> +1.2953022e-12 </wgt>
<wgt id='1320'> +1.3255479e-12 </wgt>
<wgt id='1321'> +1.2943279e-12 </wgt>
<wgt id='1322'> +1.3061829e-12 </wgt>
<wgt id='1323'> +1.3101531e-12 </wgt>
<wgt id='1324'> +1.3079907e-12 </wgt>
<wgt id='1325'> +1.3118815e-12 </wgt>
<wgt id='1326'> +1.3067377e-12 </wgt>
<wgt id='1327'> +1.3109671e-12 </wgt>
<wgt id='1328'> +1.3078990e-12 </wgt>
<wgt id='1329'> +1.3081292e-12 </wgt>
<wgt id='1330'> +1.2924751e-12 </wgt>
<wgt id='1331'> +1.3231892e-12 </wgt>
<wgt id='1332'> +1.3307215e-12 </wgt>
<wgt id='1333'> +1.2924516e-12 </wgt>
<wgt id='1334'> +1.3020514e-12 </wgt>
<wgt id='1335'> +1.3242406e-12 </wgt>
<wgt id='1336'> +1.3050254e-12 </wgt>
<wgt id='1337'> +1.3029063e-12 </wgt>
<wgt id='1338'> +1.3044583e-12 </wgt>
<wgt id='1339'> +1.3087206e-12 </wgt>
<wgt id='1340'> +1.2886626e-12 </wgt>
<wgt id='1341'> +1.2866399e-12 </wgt>
<wgt id='1342'> +1.2908963e-12 </wgt>
<wgt id='1343'> +1.2824789e-12 </wgt>
<wgt id='1344'> +1.2929107e-12 </wgt>
<wgt id='1345'> +1.2836250e-12 </wgt>
<wgt id='1346'> +1.2934668e-12 </wgt>
<wgt id='1347'> +1.2864589e-12 </wgt>
<wgt id='1348'> +1.2911107e-12 </wgt>
<wgt id='1349'> +1.2908726e-12 </wgt>
<wgt id='1350'> +1.2865132e-12 </wgt>
<wgt id='1351'> +1.2903833e-12 </wgt>
<wgt id='1352'> +1.2850004e-12 </wgt>
<wgt id='1353'> +1.2860140e-12 </wgt>
<wgt id='1354'> +1.2934115e-12 </wgt>
<wgt id='1355'> +1.2868022e-12 </wgt>
<wgt id='1356'> +1.2897145e-12 </wgt>
<wgt id='1357'> +1.2859206e-12 </wgt>
<wgt id='1358'> +1.2920682e-12 </wgt>
<wgt id='1359'> +1.2887712e-12 </wgt>
<wgt id='1360'> +1.2886096e-12 </wgt>
<wgt id='1361'> +1.2907000e-12 </wgt>
<wgt id='1362'> +1.2862314e-12 </wgt>
<wgt id='1363'> +1.2886746e-12 </wgt>
<wgt id='1364'> +1.2891403e-12 </wgt>
<wgt id='1365'> +1.2831647e-12 </wgt>
<wgt id='1366'> +1.2891467e-12 </wgt>
<wgt id='1367'> +1.2941336e-12 </wgt>
<wgt id='1368'> +1.2883407e-12 </wgt>
<wgt id='1369'> +1.2974468e-12 </wgt>
<wgt id='1370'> +1.2782083e-12 </wgt>
<wgt id='1371'> +1.3014864e-12 </wgt>
<wgt id='1372'> +1.2738718e-12 </wgt>
<wgt id='1373'> +1.2834182e-12 </wgt>
<wgt id='1374'> +1.2931440e-12 </wgt>
<wgt id='1375'> +1.2885169e-12 </wgt>
<wgt id='1376'> +1.2925768e-12 </wgt>
<wgt id='1377'> +1.2878198e-12 </wgt>
<wgt id='1378'> +1.2914639e-12 </wgt>
<wgt id='1379'> +1.2882122e-12 </wgt>
<wgt id='1380'> +1.2890368e-12 </wgt>
<wgt id='1381'> +1.2733902e-12 </wgt>
<wgt id='1382'> +1.3017489e-12 </wgt>
<wgt id='1383'> +1.3122346e-12 </wgt>
<wgt id='1384'> +1.2723605e-12 </wgt>
<wgt id='1385'> +1.2828941e-12 </wgt>
<wgt id='1386'> +1.3032854e-12 </wgt>
<wgt id='1387'> +1.2846602e-12 </wgt>
<wgt id='1388'> +1.2824632e-12 </wgt>
<wgt id='1389'> +1.2827772e-12 </wgt>
<wgt id='1390'> +1.2897770e-12 </wgt>
<wgt id='1391'> +1.2542357e-12 </wgt>
<wgt id='1392'> +1.2268516e-12 </wgt>
<wgt id='1393'> +1.2366949e-12 </wgt>
<wgt id='1394'> +1.2461248e-12 </wgt>
<wgt id='1395'> +1.2645878e-12 </wgt>
<wgt id='1396'> +1.2555845e-12 </wgt>
<wgt id='1397'> +1.2177066e-12 </wgt>
<wgt id='1398'> +1.2258206e-12 </wgt>
<wgt id='1399'> +1.2328448e-12 </wgt>
<wgt id='1400'> +1.2399831e-12 </wgt>
<wgt id='1401'> +1.2479049e-12 </wgt>
<wgt id='1402'> +1.2631586e-12 </wgt>
<wgt id='1403'> +1.2704573e-12 </wgt>
<wgt id='1404'> +1.2773678e-12 </wgt>
<wgt id='1405'> +1.2555845e-12 </wgt>
<wgt id='1406'> +1.2517979e-12 </wgt>
<wgt id='1407'> +1.2540027e-12 </wgt>
<wgt id='1408'> +1.2571908e-12 </wgt>
<wgt id='1409'> +1.2592983e-12 </wgt>
<wgt id='1410'> +1.2475283e-12 </wgt>
<wgt id='1411'> +1.2454701e-12 </wgt>
<wgt id='1412'> +1.2501929e-12 </wgt>
<wgt id='1413'> +1.2493274e-12 </wgt>
<wgt id='1414'> +1.2457518e-12 </wgt>
<wgt id='1415'> +1.2392495e-12 </wgt>
<wgt id='1416'> +1.2509049e-12 </wgt>
<wgt id='1417'> +1.2409280e-12 </wgt>
<wgt id='1418'> +1.2541374e-12 </wgt>
<wgt id='1419'> +1.2482197e-12 </wgt>
<wgt id='1420'> +1.2468501e-12 </wgt>
<wgt id='1421'> +1.2393623e-12 </wgt>
<wgt id='1422'> +1.2510656e-12 </wgt>
<wgt id='1423'> +1.2472468e-12 </wgt>
<wgt id='1424'> +1.2478537e-12 </wgt>
<wgt id='1425'> +1.2424559e-12 </wgt>
<wgt id='1426'> +1.2529956e-12 </wgt>
<wgt id='1427'> +1.2415797e-12 </wgt>
<wgt id='1428'> +1.2506574e-12 </wgt>
<wgt id='1429'> +1.2462742e-12 </wgt>
<wgt id='1430'> +1.2493072e-12 </wgt>
<wgt id='1431'> +1.2465491e-12 </wgt>
<wgt id='1432'> +1.2482053e-12 </wgt>
<wgt id='1433'> +1.2441947e-12 </wgt>
<wgt id='1434'> +1.2498415e-12 </wgt>
<wgt id='1435'> +1.2476699e-12 </wgt>
<wgt id='1436'> +1.2473990e-12 </wgt>
<wgt id='1437'> +1.2525076e-12 </wgt>
<wgt id='1438'> +1.2472509e-12 </wgt>
<wgt id='1439'> +1.2406045e-12 </wgt>
<wgt id='1440'> +1.2643530e-12 </wgt>
<wgt id='1441'> +1.2533125e-12 </wgt>
<wgt id='1442'> +1.2363052e-12 </wgt>
<wgt id='1443'> +1.2464468e-12 </wgt>
<wgt id='1444'> +1.2503662e-12 </wgt>
<wgt id='1445'> +1.2545396e-12 </wgt>
<wgt id='1446'> +1.2454365e-12 </wgt>
<wgt id='1447'> +1.2482257e-12 </wgt>
<wgt id='1448'> +1.2484025e-12 </wgt>
<wgt id='1449'> +1.2478417e-12 </wgt>
<wgt id='1450'> +1.2471061e-12 </wgt>
<wgt id='1451'> +1.2565336e-12 </wgt>
<wgt id='1452'> +1.2266742e-12 </wgt>
<wgt id='1453'> +1.2497228e-12 </wgt>
<wgt id='1454'> +1.2318270e-12 </wgt>
<wgt id='1455'> +1.2377309e-12 </wgt>
<wgt id='1456'> +1.2518442e-12 </wgt>
<wgt id='1457'> +1.2562769e-12 </wgt>
<wgt id='1458'> +1.2434035e-12 </wgt>
<wgt id='1459'> +1.2510590e-12 </wgt>
<wgt id='1460'> +1.2417575e-12 </wgt>
<wgt id='1461'> +1.2475283e-12 </wgt>
<wgt id='1462'> +1.2409471e-12 </wgt>
<wgt id='1463'> +1.2576564e-12 </wgt>
<wgt id='1464'> +1.2490023e-12 </wgt>
<wgt id='1465'> +1.2156611e-12 </wgt>
<wgt id='1466'> +1.2230465e-12 </wgt>
<wgt id='1467'> +1.2305285e-12 </wgt>
<wgt id='1468'> +1.2357877e-12 </wgt>
<wgt id='1469'> +1.2428679e-12 </wgt>
<wgt id='1470'> +1.2554739e-12 </wgt>
<wgt id='1471'> +1.2599521e-12 </wgt>
<wgt id='1472'> +1.2661443e-12 </wgt>
<wgt id='1473'> +1.2490023e-12 </wgt>
<wgt id='1474'> +1.2448519e-12 </wgt>
<wgt id='1475'> +1.2460903e-12 </wgt>
<wgt id='1476'> +1.2508419e-12 </wgt>
<wgt id='1477'> +1.2526234e-12 </wgt>
<wgt id='1478'> +1.2412700e-12 </wgt>
<wgt id='1479'> +1.2400247e-12 </wgt>
<wgt id='1480'> +1.2428824e-12 </wgt>
<wgt id='1481'> +1.2396597e-12 </wgt>
<wgt id='1482'> +1.2410823e-12 </wgt>
<wgt id='1483'> +1.2205051e-12 </wgt>
<wgt id='1484'> +1.2389865e-12 </wgt>
<wgt id='1485'> +1.2457424e-12 </wgt>
<wgt id='1486'> +1.2417906e-12 </wgt>
<wgt id='1487'> +1.2426731e-12 </wgt>
<wgt id='1488'> +1.2391057e-12 </wgt>
<wgt id='1489'> +1.2537579e-12 </wgt>
<wgt id='1490'> +1.2376921e-12 </wgt>
<wgt id='1491'> +1.2439124e-12 </wgt>
<wgt id='1492'> +1.2423518e-12 </wgt>
<wgt id='1493'> +1.2241191e-12 </wgt>
<wgt id='1494'> +1.2501354e-12 </wgt>
<wgt id='1495'> +1.2350333e-12 </wgt>
<wgt id='1496'> +1.2412081e-12 </wgt>
<wgt id='1497'> +1.2368798e-12 </wgt>
<wgt id='1498'> +1.2405418e-12 </wgt>
<wgt id='1499'> +1.2426739e-12 </wgt>
<wgt id='1500'> +1.2423486e-12 </wgt>
<wgt id='1501'> +1.2408400e-12 </wgt>
<wgt id='1502'> +1.2433603e-12 </wgt>
<wgt id='1503'> +1.2409120e-12 </wgt>
<wgt id='1504'> +1.2343556e-12 </wgt>
<wgt id='1505'> +1.2414859e-12 </wgt>
<wgt id='1506'> +1.2413390e-12 </wgt>
<wgt id='1507'> +1.2393895e-12 </wgt>
<wgt id='1508'> +1.2471003e-12 </wgt>
<wgt id='1509'> +1.3166896e-12 </wgt>
<wgt id='1510'> +1.3155129e-12 </wgt>
<wgt id='1511'> +1.3194623e-12 </wgt>
<wgt id='1512'> +1.3168693e-12 </wgt>
<wgt id='1513'> +1.3204320e-12 </wgt>
<wgt id='1514'> +1.3177635e-12 </wgt>
<wgt id='1515'> +1.3149734e-12 </wgt>
<wgt id='1516'> +1.3187500e-12 </wgt>
<wgt id='1517'> +1.3205662e-12 </wgt>
<wgt id='1518'> +1.3205070e-12 </wgt>
<wgt id='1519'> +1.3087228e-12 </wgt>
<wgt id='1520'> +1.3171054e-12 </wgt>
<wgt id='1521'> +1.3249124e-12 </wgt>
<wgt id='1522'> +1.3168194e-12 </wgt>
<wgt id='1523'> +1.3275650e-12 </wgt>
<wgt id='1524'> +1.3215266e-12 </wgt>
<wgt id='1525'> +1.3258288e-12 </wgt>
<wgt id='1526'> +1.3118776e-12 </wgt>
<wgt id='1527'> +1.3131131e-12 </wgt>
<wgt id='1528'> +1.3173343e-12 </wgt>
<wgt id='1529'> +1.3188118e-12 </wgt>
<wgt id='1530'> +1.3231273e-12 </wgt>
<wgt id='1531'> +1.3204496e-12 </wgt>
<wgt id='1532'> +1.3099767e-12 </wgt>
<wgt id='1533'> +1.3149932e-12 </wgt>
<wgt id='1534'> +1.3199777e-12 </wgt>
<wgt id='1535'> +1.3097354e-12 </wgt>
<wgt id='1536'> +1.3176906e-12 </wgt>
<wgt id='1537'> +1.3193777e-12 </wgt>
<wgt id='1538'> +1.3129842e-12 </wgt>
<wgt id='1539'> +1.3049993e-12 </wgt>
<wgt id='1540'> +1.3197588e-12 </wgt>
<wgt id='1541'> +1.3200598e-12 </wgt>
<wgt id='1542'> +1.3212422e-12 </wgt>
<wgt id='1543'> +1.3172345e-12 </wgt>
<wgt id='1544'> +1.3138584e-12 </wgt>
<wgt id='1545'> +1.3174515e-12 </wgt>
<wgt id='1546'> +1.3181710e-12 </wgt>
<wgt id='1547'> +1.3171076e-12 </wgt>
<wgt id='1548'> +1.3151736e-12 </wgt>
<wgt id='1549'> +1.3159456e-12 </wgt>
<wgt id='1550'> +1.3183639e-12 </wgt>
<wgt id='1551'> +1.3142184e-12 </wgt>
<wgt id='1552'> +1.3158818e-12 </wgt>
<wgt id='1553'> +1.3160587e-12 </wgt>
<wgt id='1554'> +1.3221572e-12 </wgt>
<wgt id='1555'> +1.3202361e-12 </wgt>
<wgt id='1556'> +1.3161481e-12 </wgt>
<wgt id='1557'> +1.3189409e-12 </wgt>
<wgt id='1558'> +1.3142951e-12 </wgt>
<wgt id='1559'> +1.3160419e-12 </wgt>
<wgt id='1560'> +1.3182996e-12 </wgt>
<wgt id='1561'> +1.3155306e-12 </wgt>
<wgt id='1562'> +1.3166121e-12 </wgt>
<wgt id='1563'> +1.3162102e-12 </wgt>
<wgt id='1564'> +1.3148474e-12 </wgt>
<wgt id='1565'> +1.3165896e-12 </wgt>
<wgt id='1566'> +1.3180928e-12 </wgt>
<wgt id='1567'> +1.3179130e-12 </wgt>
<wgt id='1568'> +1.3151808e-12 </wgt>
<wgt id='1569'> +1.3184748e-12 </wgt>
<wgt id='1570'> +1.3148680e-12 </wgt>
<wgt id='1571'> +1.3172785e-12 </wgt>
<wgt id='1572'> +1.3159343e-12 </wgt>
<wgt id='1573'> +1.3161936e-12 </wgt>
<wgt id='1574'> +1.3164654e-12 </wgt>
<wgt id='1575'> +1.3164489e-12 </wgt>
<wgt id='1576'> +1.3163282e-12 </wgt>
<wgt id='1577'> +1.3169264e-12 </wgt>
<wgt id='1578'> +1.3174707e-12 </wgt>
<wgt id='1579'> +1.3158437e-12 </wgt>
<wgt id='1580'> +1.3162200e-12 </wgt>
<wgt id='1581'> +1.3177164e-12 </wgt>
<wgt id='1582'> +1.3182279e-12 </wgt>
<wgt id='1583'> +1.3162192e-12 </wgt>
<wgt id='1584'> +1.3159712e-12 </wgt>
<wgt id='1585'> +1.3176657e-12 </wgt>
<wgt id='1586'> +1.3157592e-12 </wgt>
<wgt id='1587'> +1.3175654e-12 </wgt>
<wgt id='1588'> +1.3159118e-12 </wgt>
<wgt id='1589'> +1.3159710e-12 </wgt>
<wgt id='1590'> +1.3164719e-12 </wgt>
<wgt id='1591'> +1.3162895e-12 </wgt>
<wgt id='1592'> +1.3165041e-12 </wgt>
<wgt id='1593'> +1.3161438e-12 </wgt>
<wgt id='1594'> +1.3170771e-12 </wgt>
<wgt id='1595'> +1.3179541e-12 </wgt>
<wgt id='1596'> +1.3178851e-12 </wgt>
<wgt id='1597'> +1.3171024e-12 </wgt>
<wgt id='1598'> +1.3167457e-12 </wgt>
<wgt id='1599'> +1.3164252e-12 </wgt>
<wgt id='1600'> +1.3184767e-12 </wgt>
<wgt id='1601'> +1.3172085e-12 </wgt>
<wgt id='1602'> +1.3173353e-12 </wgt>
<wgt id='1603'> +1.3160449e-12 </wgt>
<wgt id='1604'> +1.3167476e-12 </wgt>
<wgt id='1605'> +1.3159656e-12 </wgt>
<wgt id='1606'> +1.3162678e-12 </wgt>
<wgt id='1607'> +1.3169864e-12 </wgt>
<wgt id='1608'> +1.3163048e-12 </wgt>
<wgt id='1609'> +1.3159207e-12 </wgt>
<wgt id='1610'> +1.3100554e-12 </wgt>
<wgt id='1611'> +1.3254475e-12 </wgt>
<wgt id='1612'> +1.5273561e-12 </wgt>
<wgt id='1613'> +1.5063641e-12 </wgt>
<wgt id='1614'> +1.5401597e-12 </wgt>
<wgt id='1615'> +1.5070189e-12 </wgt>
<wgt id='1616'> +1.5508250e-12 </wgt>
<wgt id='1617'> +1.5633690e-12 </wgt>
<wgt id='1618'> +1.5562784e-12 </wgt>
<wgt id='1619'> +1.5318890e-12 </wgt>
<wgt id='1620'> +1.4993167e-12 </wgt>
<wgt id='1621'> +1.5343547e-12 </wgt>
<wgt id='1622'> +1.5519507e-12 </wgt>
<wgt id='1623'> +1.5138175e-12 </wgt>
<wgt id='1624'> +1.5065780e-12 </wgt>
<wgt id='1625'> +1.5157018e-12 </wgt>
<wgt id='1626'> +1.5062181e-12 </wgt>
<wgt id='1627'> +1.4894615e-12 </wgt>
<wgt id='1628'> +1.5165508e-12 </wgt>
<wgt id='1629'> +1.6196341e-12 </wgt>
<wgt id='1630'> +1.5324812e-12 </wgt>
<wgt id='1631'> +1.5225141e-12 </wgt>
<wgt id='1632'> +1.4459851e-12 </wgt>
<wgt id='1633'> +1.4754580e-12 </wgt>
<wgt id='1634'> +1.5397896e-12 </wgt>
<wgt id='1635'> +1.5276891e-12 </wgt>
<wgt id='1636'> +1.5630990e-12 </wgt>
<wgt id='1637'> +1.4929369e-12 </wgt>
<wgt id='1638'> +1.5231125e-12 </wgt>
<wgt id='1639'> +1.5194434e-12 </wgt>
<wgt id='1640'> +1.4803106e-12 </wgt>
<wgt id='1641'> +1.5152728e-12 </wgt>
<wgt id='1642'> +1.5092008e-12 </wgt>
<wgt id='1643'> +1.5765821e-12 </wgt>
<wgt id='1644'> +1.4773588e-12 </wgt>
<wgt id='1645'> +1.5143744e-12 </wgt>
<wgt id='1646'> +1.5243904e-12 </wgt>
<wgt id='1647'> +1.5035899e-12 </wgt>
<wgt id='1648'> +1.5199602e-12 </wgt>
<wgt id='1649'> +1.5910486e-12 </wgt>
<wgt id='1650'> +1.5175027e-12 </wgt>
<wgt id='1651'> +1.5040209e-12 </wgt>
<wgt id='1652'> +1.5116505e-12 </wgt>
<wgt id='1653'> +1.5791505e-12 </wgt>
<wgt id='1654'> +1.5404780e-12 </wgt>
<wgt id='1655'> +1.5150202e-12 </wgt>
<wgt id='1656'> +1.4795137e-12 </wgt>
<wgt id='1657'> +1.4942824e-12 </wgt>
<wgt id='1658'> +1.4858521e-12 </wgt>
<wgt id='1659'> +1.5065780e-12 </wgt>
<wgt id='1660'> +1.5470695e-12 </wgt>
<wgt id='1661'> +1.5460629e-12 </wgt>
<wgt id='1662'> +1.5100626e-12 </wgt>
<wgt id='1663'> +1.5558701e-12 </wgt>
<wgt id='1664'> +1.5050031e-12 </wgt>
<wgt id='1665'> +1.4539155e-12 </wgt>
<wgt id='1666'> +1.5316870e-12 </wgt>
<wgt id='1667'> +1.5557108e-12 </wgt>
<wgt id='1668'> +1.5459676e-12 </wgt>
<wgt id='1669'> +1.5035199e-12 </wgt>
<wgt id='1670'> +1.5209399e-12 </wgt>
<wgt id='1671'> +1.4977941e-12 </wgt>
<wgt id='1672'> +1.5423568e-12 </wgt>
<wgt id='1673'> +1.5814289e-12 </wgt>
<wgt id='1674'> +1.5266710e-12 </wgt>
<wgt id='1675'> +1.5417238e-12 </wgt>
<wgt id='1676'> +1.5705986e-12 </wgt>
<wgt id='1677'> +1.5824894e-12 </wgt>
<wgt id='1678'> +1.4807223e-12 </wgt>
<wgt id='1679'> +1.5845781e-12 </wgt>
<wgt id='1680'> +1.5139115e-12 </wgt>
<wgt id='1681'> +1.5533535e-12 </wgt>
<wgt id='1682'> +1.5286633e-12 </wgt>
<wgt id='1683'> +1.5207943e-12 </wgt>
<wgt id='1684'> +1.4991512e-12 </wgt>
<wgt id='1685'> +1.5053518e-12 </wgt>
<wgt id='1686'> +1.5127240e-12 </wgt>
<wgt id='1687'> +1.5745357e-12 </wgt>
<wgt id='1688'> +1.5051915e-12 </wgt>
<wgt id='1689'> +1.5126039e-12 </wgt>
<wgt id='1690'> +1.5196714e-12 </wgt>
<wgt id='1691'> +1.5310412e-12 </wgt>
<wgt id='1692'> +1.5716592e-12 </wgt>
<wgt id='1693'> +1.5757520e-12 </wgt>
<wgt id='1694'> +1.5231088e-12 </wgt>
<wgt id='1695'> +1.5216272e-12 </wgt>
<wgt id='1696'> +1.5489463e-12 </wgt>
<wgt id='1697'> +1.5722023e-12 </wgt>
<wgt id='1698'> +1.5044659e-12 </wgt>
<wgt id='1699'> +1.5417624e-12 </wgt>
<wgt id='1700'> +1.5048033e-12 </wgt>
<wgt id='1701'> +1.5460144e-12 </wgt>
<wgt id='1702'> +1.5667715e-12 </wgt>
<wgt id='1703'> +1.5627025e-12 </wgt>
<wgt id='1704'> +1.5045572e-12 </wgt>
<wgt id='1705'> +1.4738356e-12 </wgt>
<wgt id='1706'> +1.5450356e-12 </wgt>
<wgt id='1707'> +1.5269226e-12 </wgt>
<wgt id='1708'> +1.5530034e-12 </wgt>
<wgt id='1709'> +1.5117900e-12 </wgt>
<wgt id='1710'> +1.5189637e-12 </wgt>
<wgt id='1711'> +1.5481247e-12 </wgt>
<wgt id='1712'> +1.5467683e-12 </wgt>
<wgt id='1713'> +1.2258872e-12 </wgt>
<wgt id='1714'> +1.1813984e-12 </wgt>
<wgt id='1715'> +1.2221546e-12 </wgt>
<wgt id='1716'> +1.2756546e-12 </wgt>
<wgt id='1717'> +1.2463090e-12 </wgt>
<wgt id='1718'> +1.2357871e-12 </wgt>
<wgt id='1719'> +1.2249341e-12 </wgt>
<wgt id='1720'> +1.2462153e-12 </wgt>
<wgt id='1721'> +1.2101481e-12 </wgt>
<wgt id='1722'> +1.2286182e-12 </wgt>
<wgt id='1723'> +1.1930944e-12 </wgt>
<wgt id='1724'> +1.1973741e-12 </wgt>
<wgt id='1725'> +1.2410217e-12 </wgt>
<wgt id='1726'> +1.2574478e-12 </wgt>
<wgt id='1727'> +1.2257031e-12 </wgt>
<wgt id='1728'> +1.2253970e-12 </wgt>
<wgt id='1729'> +1.2135457e-12 </wgt>
<wgt id='1730'> +1.2058303e-12 </wgt>
<wgt id='1731'> +1.1819590e-12 </wgt>
<wgt id='1732'> +1.2063453e-12 </wgt>
<wgt id='1733'> +1.2313500e-12 </wgt>
<wgt id='1734'> +1.2581317e-12 </wgt>
<wgt id='1735'> +1.2288885e-12 </wgt>
<wgt id='1736'> +1.2880503e-12 </wgt>
<wgt id='1737'> +1.2753368e-12 </wgt>
<wgt id='1738'> +1.2417486e-12 </wgt>
<wgt id='1739'> +1.2238741e-12 </wgt>
<wgt id='1740'> +1.1959544e-12 </wgt>
<wgt id='1741'> +1.2180001e-12 </wgt>
<wgt id='1742'> +1.2276110e-12 </wgt>
<wgt id='1743'> +1.2450624e-12 </wgt>
<wgt id='1744'> +1.2647934e-12 </wgt>
<wgt id='1745'> +1.1989206e-12 </wgt>
<wgt id='1746'> +1.2255703e-12 </wgt>
<wgt id='1747'> +1.2467679e-12 </wgt>
<wgt id='1748'> +1.2414631e-12 </wgt>
<wgt id='1749'> +1.2240064e-12 </wgt>
<wgt id='1750'> +1.2267109e-12 </wgt>
<wgt id='1751'> +1.1571139e-12 </wgt>
<wgt id='1752'> +1.2077545e-12 </wgt>
<wgt id='1753'> +1.2520429e-12 </wgt>
<wgt id='1754'> +1.2037022e-12 </wgt>
<wgt id='1755'> +1.2150838e-12 </wgt>
<wgt id='1756'> +1.2488202e-12 </wgt>
<wgt id='1757'> +1.2171904e-12 </wgt>
<wgt id='1758'> +1.2500866e-12 </wgt>
<wgt id='1759'> +1.2077854e-12 </wgt>
<wgt id='1760'> +1.1720461e-12 </wgt>
<wgt id='1761'> +1.2120907e-12 </wgt>
<wgt id='1762'> +1.2420179e-12 </wgt>
<wgt id='1763'> +1.2577141e-12 </wgt>
<wgt id='1764'> +1.2306304e-12 </wgt>
<wgt id='1765'> +1.2367733e-12 </wgt>
<wgt id='1766'> +1.2295733e-12 </wgt>
<wgt id='1767'> +1.2396519e-12 </wgt>
<wgt id='1768'> +1.2339726e-12 </wgt>
<wgt id='1769'> +1.2059261e-12 </wgt>
<wgt id='1770'> +1.2551304e-12 </wgt>
<wgt id='1771'> +1.2464438e-12 </wgt>
<wgt id='1772'> +1.2345820e-12 </wgt>
<wgt id='1773'> +1.2230712e-12 </wgt>
<wgt id='1774'> +1.2211530e-12 </wgt>
<wgt id='1775'> +1.2279954e-12 </wgt>
<wgt id='1776'> +1.2026986e-12 </wgt>
<wgt id='1777'> +1.1605120e-12 </wgt>
<wgt id='1778'> +1.2036982e-12 </wgt>
<wgt id='1779'> +1.2635837e-12 </wgt>
<wgt id='1780'> +1.2517348e-12 </wgt>
<wgt id='1781'> +1.2155345e-12 </wgt>
<wgt id='1782'> +1.1863845e-12 </wgt>
<wgt id='1783'> +1.2343267e-12 </wgt>
<wgt id='1784'> +1.2315188e-12 </wgt>
<wgt id='1785'> +1.1989951e-12 </wgt>
<wgt id='1786'> +1.1694671e-12 </wgt>
<wgt id='1787'> +1.2802456e-12 </wgt>
<wgt id='1788'> +1.2008978e-12 </wgt>
<wgt id='1789'> +1.2292517e-12 </wgt>
<wgt id='1790'> +1.2574721e-12 </wgt>
<wgt id='1791'> +1.2248899e-12 </wgt>
<wgt id='1792'> +1.1910930e-12 </wgt>
<wgt id='1793'> +1.2623744e-12 </wgt>
<wgt id='1794'> +1.2357619e-12 </wgt>
<wgt id='1795'> +1.2472902e-12 </wgt>
<wgt id='1796'> +1.2085123e-12 </wgt>
<wgt id='1797'> +1.2444395e-12 </wgt>
<wgt id='1798'> +1.2187078e-12 </wgt>
<wgt id='1799'> +1.2167869e-12 </wgt>
<wgt id='1800'> +1.2305870e-12 </wgt>
<wgt id='1801'> +1.2324315e-12 </wgt>
<wgt id='1802'> +1.2158496e-12 </wgt>
<wgt id='1803'> +1.2497438e-12 </wgt>
<wgt id='1804'> +1.2067272e-12 </wgt>
<wgt id='1805'> +1.2361850e-12 </wgt>
<wgt id='1806'> +1.2155340e-12 </wgt>
<wgt id='1807'> +1.2134964e-12 </wgt>
<wgt id='1808'> +1.2203994e-12 </wgt>
<wgt id='1809'> +1.2042680e-12 </wgt>
<wgt id='1810'> +1.2182741e-12 </wgt>
<wgt id='1811'> +1.2498280e-12 </wgt>
<wgt id='1812'> +1.2402994e-12 </wgt>
<wgt id='1813'> +1.2137808e-12 </wgt>
<wgt id='1814'> +1.4338521e-12 </wgt>
<wgt id='1815'> +1.6151419e-12 </wgt>
<wgt id='1816'> +1.2258872e-12 </wgt>
<wgt id='1817'> +1.1813984e-12 </wgt>
<wgt id='1818'> +1.2221546e-12 </wgt>
<wgt id='1819'> +1.2756546e-12 </wgt>
<wgt id='1820'> +1.2463090e-12 </wgt>
<wgt id='1821'> +1.2357871e-12 </wgt>
<wgt id='1822'> +1.2249341e-12 </wgt>
<wgt id='1823'> +1.2462153e-12 </wgt>
<wgt id='1824'> +1.2101481e-12 </wgt>
<wgt id='1825'> +1.2286182e-12 </wgt>
<wgt id='1826'> +1.1930944e-12 </wgt>
<wgt id='1827'> +1.1973741e-12 </wgt>
<wgt id='1828'> +1.2410217e-12 </wgt>
<wgt id='1829'> +1.2574478e-12 </wgt>
<wgt id='1830'> +1.2257031e-12 </wgt>
<wgt id='1831'> +1.2253970e-12 </wgt>
<wgt id='1832'> +1.2135457e-12 </wgt>
<wgt id='1833'> +1.2058303e-12 </wgt>
<wgt id='1834'> +1.1819590e-12 </wgt>
<wgt id='1835'> +1.2063453e-12 </wgt>
<wgt id='1836'> +1.2313500e-12 </wgt>
<wgt id='1837'> +1.2581317e-12 </wgt>
<wgt id='1838'> +1.2288885e-12 </wgt>
<wgt id='1839'> +1.2880503e-12 </wgt>
<wgt id='1840'> +1.2753368e-12 </wgt>
<wgt id='1841'> +1.2417486e-12 </wgt>
<wgt id='1842'> +1.2238741e-12 </wgt>
<wgt id='1843'> +1.1959544e-12 </wgt>
<wgt id='1844'> +1.2180001e-12 </wgt>
<wgt id='1845'> +1.2276110e-12 </wgt>
<wgt id='1846'> +1.2450624e-12 </wgt>
<wgt id='1847'> +1.2647934e-12 </wgt>
<wgt id='1848'> +1.1989206e-12 </wgt>
<wgt id='1849'> +1.2255703e-12 </wgt>
<wgt id='1850'> +1.2467679e-12 </wgt>
<wgt id='1851'> +1.2414631e-12 </wgt>
<wgt id='1852'> +1.2240064e-12 </wgt>
<wgt id='1853'> +1.2267109e-12 </wgt>
<wgt id='1854'> +1.1571139e-12 </wgt>
<wgt id='1855'> +1.2077545e-12 </wgt>
<wgt id='1856'> +1.2520429e-12 </wgt>
<wgt id='1857'> +1.2037022e-12 </wgt>
<wgt id='1858'> +1.2150838e-12 </wgt>
<wgt id='1859'> +1.2488202e-12 </wgt>
<wgt id='1860'> +1.2171904e-12 </wgt>
<wgt id='1861'> +1.2500866e-12 </wgt>
<wgt id='1862'> +1.2077854e-12 </wgt>
<wgt id='1863'> +1.1720461e-12 </wgt>
<wgt id='1864'> +1.2120907e-12 </wgt>
<wgt id='1865'> +1.2420179e-12 </wgt>
<wgt id='1866'> +1.2577141e-12 </wgt>
<wgt id='1867'> +1.2306304e-12 </wgt>
<wgt id='1868'> +1.2367733e-12 </wgt>
<wgt id='1869'> +1.2295733e-12 </wgt>
<wgt id='1870'> +1.2396519e-12 </wgt>
<wgt id='1871'> +1.2339726e-12 </wgt>
<wgt id='1872'> +1.2059261e-12 </wgt>
<wgt id='1873'> +1.2551304e-12 </wgt>
<wgt id='1874'> +1.2464438e-12 </wgt>
<wgt id='1875'> +1.2345820e-12 </wgt>
<wgt id='1876'> +1.2230712e-12 </wgt>
<wgt id='1877'> +1.2211530e-12 </wgt>
<wgt id='1878'> +1.2279954e-12 </wgt>
<wgt id='1879'> +1.2026986e-12 </wgt>
<wgt id='1880'> +1.1605120e-12 </wgt>
<wgt id='1881'> +1.2036982e-12 </wgt>
<wgt id='1882'> +1.2635837e-12 </wgt>
<wgt id='1883'> +1.2517348e-12 </wgt>
<wgt id='1884'> +1.2155345e-12 </wgt>
<wgt id='1885'> +1.1863845e-12 </wgt>
<wgt id='1886'> +1.2343267e-12 </wgt>
<wgt id='1887'> +1.2315188e-12 </wgt>
<wgt id='1888'> +1.1989951e-12 </wgt>
<wgt id='1889'> +1.1694671e-12 </wgt>
<wgt id='1890'> +1.2802456e-12 </wgt>
<wgt id='1891'> +1.2008978e-12 </wgt>
<wgt id='1892'> +1.2292517e-12 </wgt>
<wgt id='1893'> +1.2574721e-12 </wgt>
<wgt id='1894'> +1.2248899e-12 </wgt>
<wgt id='1895'> +1.1910930e-12 </wgt>
<wgt id='1896'> +1.2623744e-12 </wgt>
<wgt id='1897'> +1.2357619e-12 </wgt>
<wgt id='1898'> +1.2472902e-12 </wgt>
<wgt id='1899'> +1.2085123e-12 </wgt>
<wgt id='1900'> +1.2444395e-12 </wgt>
<wgt id='1901'> +1.2187078e-12 </wgt>
<wgt id='1902'> +1.2167869e-12 </wgt>
<wgt id='1903'> +1.2305870e-12 </wgt>
<wgt id='1904'> +1.2324315e-12 </wgt>
<wgt id='1905'> +1.2158496e-12 </wgt>
<wgt id='1906'> +1.2497438e-12 </wgt>
<wgt id='1907'> +1.2067272e-12 </wgt>
<wgt id='1908'> +1.2361850e-12 </wgt>
<wgt id='1909'> +1.2155340e-12 </wgt>
<wgt id='1910'> +1.2134964e-12 </wgt>
<wgt id='1911'> +1.2203994e-12 </wgt>
<wgt id='1912'> +1.2042680e-12 </wgt>
<wgt id='1913'> +1.2182741e-12 </wgt>
<wgt id='1914'> +1.2498280e-12 </wgt>
<wgt id='1915'> +1.2402994e-12 </wgt>
<wgt id='1916'> +1.2137808e-12 </wgt>
<wgt id='1917'> +1.2179741e-12 </wgt>
<wgt id='1918'> +1.2321863e-12 </wgt>
<wgt id='1919'> +1.2480367e-12 </wgt>
</rwgt>
</event>
<event>
 9      1 +1.5607000e-12 2.57019100e+01 7.81860800e-03 1.49767400e-01
       21 -1    0    0  501  502 +0.0000000000e+00 +0.0000000000e+00 +1.2744086254e+02 1.2744086254e+02 0.0000000000e+00 0.0000e+00 1.0000e+00
       -4 -1    0    0    0  501 -0.0000000000e+00 -0.0000000000e+00 -2.2504168659e+01 2.2548924743e+01 1.4200000000e+00 0.0000e+00 1.0000e+00
     1023  2    1    2    0    0 -1.9133663505e+01 +8.3417559190e+00 -1.3972337954e+01 2.9254306902e+01 1.4996875457e+01 0.0000e+00 0.0000e+00
  1000023  2    3    3    0    0 -6.6454392146e+00 -9.5615106020e-01 -1.7882584217e+00 8.8616951474e+00 5.5005168391e+00 0.0000e+00 0.0000e+00
       -4  1    1    2    0  502 +1.9133663505e+01 -8.3417559190e+00 +1.1890903183e+02 1.2073548038e+02 1.4200000000e+00 0.0000e+00 1.0000e+00
  1000022  1    4    4    0    0 -5.9322577891e+00 -9.7608298154e-01 -1.8842333179e+00 8.0433050209e+00 5.0000000000e+00 0.0000e+00 1.0000e+00
      -13  1    4    4    0    0 -6.2442269806e-01 -8.1637984407e-02 +4.7562709847e-02 6.4031489731e-01 1.0570000000e-01 0.0000e+00 -1.0000e+00
       13  1    4    4    0    0 -8.8758727507e-02 +1.0156990575e-01 +4.8412186301e-02 1.7807522917e-01 1.0570000000e-01 0.0000e+00 1.0000e+00
  1000022  1    3    3    0    0 -1.2488224291e+01 +9.2979069792e+00 -1.2184079532e+01 2.0392611755e+01 5.0000000000e+00 0.0000e+00 1.0000e+00
<mgrwt>
<rscale>  1 0.25701911E+02</rscale>
<asrwt>0</asrwt>
<pdfrwt beam="1">  1       21 0.19606286E-01 0.25701911E+02</pdfrwt>
<pdfrwt beam="2">  1       -4 0.34662312E-02 0.25701911E+02</pdfrwt>
<totfact> 0.42277269E+05</totfact>
</mgrwt>
<rwgt>
<wgt id='1001'> +1.5607000e-12 </wgt>
<wgt id='1002'> +1.6087112e-12 </wgt>
<wgt id='1003'> +1.6092244e-12 </wgt>
<wgt id='1004'> +1.5457060e-12 </wgt>
<wgt id='1005'> +1.6183822e-12 </wgt>
<wgt id='1006'> +1.3596404e-12 </wgt>
<wgt id='1007'> +1.4225065e-12 </wgt>
<wgt id='1008'> +1.4233129e-12 </wgt>
<wgt id='1009'> +1.3419979e-12 </wgt>
<wgt id='1010'> +1.4557858e-12 </wgt>
<wgt id='1011'> +1.8351277e-12 </wgt>
<wgt id='1012'> +1.8535184e-12 </wgt>
<wgt id='1013'> +1.8534961e-12 </wgt>
<wgt id='1014'> +1.8262026e-12 </wgt>
<wgt id='1015'> +1.8234035e-12 </wgt>
<wgt id='1016'> +1.8526374e-12 </wgt>
<wgt id='1017'> +1.8329045e-12 </wgt>
<wgt id='1018'> +1.8323341e-12 </wgt>
<wgt id='1019'> +1.8534961e-12 </wgt>
<wgt id='1020'> +1.7718932e-12 </wgt>
<wgt id='1021'> +1.6139685e-12 </wgt>
<wgt id='1022'> +1.6207499e-12 </wgt>
<wgt id='1023'> +1.6206469e-12 </wgt>
<wgt id='1024'> +1.6092244e-12 </wgt>
<wgt id='1025'> +1.5938738e-12 </wgt>
<wgt id='1026'> +2.1783983e-12 </wgt>
<wgt id='1027'> +2.1118285e-12 </wgt>
<wgt id='1028'> +2.1104726e-12 </wgt>
<wgt id='1029'> +2.1898468e-12 </wgt>
<wgt id='1030'> +1.9963618e-12 </wgt>
<wgt id='1031'> +1.2144889e-12 </wgt>
<wgt id='1032'> +1.3402281e-12 </wgt>
<wgt id='1033'> +1.3419979e-12 </wgt>
<wgt id='1034'> +1.1811333e-12 </wgt>
<wgt id='1035'> +1.4337676e-12 </wgt>
<wgt id='1036'> +1.0580305e-12 </wgt>
<wgt id='1037'> +1.1850997e-12 </wgt>
<wgt id='1038'> +1.1869587e-12 </wgt>
<wgt id='1039'> +1.0254721e-12 </wgt>
<wgt id='1040'> +1.2897192e-12 </wgt>
<wgt id='1041'> +1.4280402e-12 </wgt>
<wgt id='1042'> +1.5441786e-12 </wgt>
<wgt id='1043'> +1.5457060e-12 </wgt>
<wgt id='1044'> +1.3954715e-12 </wgt>
<wgt id='1045'> +1.6154014e-12 </wgt>
<wgt id='1046'> +1.5607000e-12 </wgt>
<wgt id='1047'> +1.4948737e-12 </wgt>
<wgt id='1048'> +1.5818639e-12 </wgt>
<wgt id='1049'> +1.5866446e-12 </wgt>
<wgt id='1050'> +1.5613637e-12 </wgt>
<wgt id='1051'> +1.5790058e-12 </wgt>
<wgt id='1052'> +1.4963702e-12 </wgt>
<wgt id='1053'> +1.5734426e-12 </wgt>
<wgt id='1054'> +1.5892905e-12 </wgt>
<wgt id='1055'> +1.6258895e-12 </wgt>
<wgt id='1056'> +1.6060905e-12 </wgt>
<wgt id='1057'> +1.5498633e-12 </wgt>
<wgt id='1058'> +1.5285083e-12 </wgt>
<wgt id='1059'> +1.5576660e-12 </wgt>
<wgt id='1060'> +1.5206057e-12 </wgt>
<wgt id='1061'> +1.6175780e-12 </wgt>
<wgt id='1062'> +1.5885148e-12 </wgt>
<wgt id='1063'> +1.6266507e-12 </wgt>
<wgt id='1064'> +1.5424269e-12 </wgt>
<wgt id='1065'> +1.5604435e-12 </wgt>
<wgt id='1066'> +1.6220469e-12 </wgt>
<wgt id='1067'> +1.5822762e-12 </wgt>
<wgt id='1068'> +1.5718610e-12 </wgt>
<wgt id='1069'> +1.5661006e-12 </wgt>
<wgt id='1070'> +1.5490674e-12 </wgt>
<wgt id='1071'> +1.5571563e-12 </wgt>
<wgt id='1072'> +1.6005401e-12 </wgt>
<wgt id='1073'> +1.5689570e-12 </wgt>
<wgt id='1074'> +1.5139687e-12 </wgt>
<wgt id='1075'> +1.5722601e-12 </wgt>
<wgt id='1076'> +1.5827724e-12 </wgt>
<wgt id='1077'> +1.5616869e-12 </wgt>
<wgt id='1078'> +1.5581627e-12 </wgt>
<wgt id='1079'> +1.5201693e-12 </wgt>
<wgt id='1080'> +1.5171390e-12 </wgt>
<wgt id='1081'> +1.5904663e-12 </wgt>
<wgt id='1082'> +1.5423937e-12 </wgt>
<wgt id='1083'> +1.5823773e-12 </wgt>
<wgt id='1084'> +1.5685778e-12 </wgt>
<wgt id='1085'> +1.5404275e-12 </wgt>
<wgt id='1086'> +1.5352988e-12 </wgt>
<wgt id='1087'> +1.5567718e-12 </wgt>
<wgt id='1088'> +1.4641319e-12 </wgt>
<wgt id='1089'> +1.5307810e-12 </wgt>
<wgt id='1090'> +1.4973917e-12 </wgt>
<wgt id='1091'> +1.5462921e-12 </wgt>
<wgt id='1092'> +1.5501326e-12 </wgt>
<wgt id='1093'> +1.4546917e-12 </wgt>
<wgt id='1094'> +1.5396642e-12 </wgt>
<wgt id='1095'> +1.5539057e-12 </wgt>
<wgt id='1096'> +1.5734118e-12 </wgt>
<wgt id='1097'> +1.5323728e-12 </wgt>
<wgt id='1098'> +1.6038522e-12 </wgt>
<wgt id='1099'> +1.5537284e-12 </wgt>
<wgt id='1100'> +1.5311268e-12 </wgt>
<wgt id='1101'> +1.5241208e-12 </wgt>
<wgt id='1102'> +1.5437534e-12 </wgt>
<wgt id='1103'> +1.5454079e-12 </wgt>
<wgt id='1104'> +1.5711876e-12 </wgt>
<wgt id='1105'> +1.6272836e-12 </wgt>
<wgt id='1106'> +1.5827306e-12 </wgt>
<wgt id='1107'> +1.5501868e-12 </wgt>
<wgt id='1108'> +1.5731014e-12 </wgt>
<wgt id='1109'> +1.5489866e-12 </wgt>
<wgt id='1110'> +1.5496091e-12 </wgt>
<wgt id='1111'> +1.5558999e-12 </wgt>
<wgt id='1112'> +1.4920527e-12 </wgt>
<wgt id='1113'> +1.4737208e-12 </wgt>
<wgt id='1114'> +1.6255170e-12 </wgt>
<wgt id='1115'> +1.5382946e-12 </wgt>
<wgt id='1116'> +1.5560903e-12 </wgt>
<wgt id='1117'> +1.6383639e-12 </wgt>
<wgt id='1118'> +1.5932727e-12 </wgt>
<wgt id='1119'> +1.6335980e-12 </wgt>
<wgt id='1120'> +1.6429151e-12 </wgt>
<wgt id='1121'> +1.5552721e-12 </wgt>
<wgt id='1122'> +1.5294349e-12 </wgt>
<wgt id='1123'> +1.6036256e-12 </wgt>
<wgt id='1124'> +1.5562424e-12 </wgt>
<wgt id='1125'> +1.5769433e-12 </wgt>
<wgt id='1126'> +1.4943069e-12 </wgt>
<wgt id='1127'> +1.5132657e-12 </wgt>
<wgt id='1128'> +1.5885148e-12 </wgt>
<wgt id='1129'> +1.5164982e-12 </wgt>
<wgt id='1130'> +1.5957696e-12 </wgt>
<wgt id='1131'> +1.5906210e-12 </wgt>
<wgt id='1132'> +1.4552750e-12 </wgt>
<wgt id='1133'> +1.5323513e-12 </wgt>
<wgt id='1134'> +1.5454273e-12 </wgt>
<wgt id='1135'> +1.6640490e-12 </wgt>
<wgt id='1136'> +1.5263802e-12 </wgt>
<wgt id='1137'> +1.5302394e-12 </wgt>
<wgt id='1138'> +1.6010134e-12 </wgt>
<wgt id='1139'> +1.5970336e-12 </wgt>
<wgt id='1140'> +1.5757355e-12 </wgt>
<wgt id='1141'> +1.5582510e-12 </wgt>
<wgt id='1142'> +1.5399558e-12 </wgt>
<wgt id='1143'> +1.5097479e-12 </wgt>
<wgt id='1144'> +1.6185005e-12 </wgt>
<wgt id='1145'> +1.6091014e-12 </wgt>
<wgt id='1146'> +1.6556813e-12 </wgt>
<wgt id='1147'> +1.2704127e-12 </wgt>
<wgt id='1148'> +1.3041293e-12 </wgt>
<wgt id='1149'> +1.2681212e-12 </wgt>
<wgt id='1150'> +1.2873888e-12 </wgt>
<wgt id='1151'> +9.5938070e-13 </wgt>
<wgt id='1152'> +1.3545585e-12 </wgt>
<wgt id='1153'> +1.3485565e-12 </wgt>
<wgt id='1154'> +1.3580569e-12 </wgt>
<wgt id='1155'> +1.3552489e-12 </wgt>
<wgt id='1156'> +1.3542480e-12 </wgt>
<wgt id='1157'> +1.3513980e-12 </wgt>
<wgt id='1158'> +1.3588223e-12 </wgt>
<wgt id='1159'> +1.3519322e-12 </wgt>
<wgt id='1160'> +1.3562867e-12 </wgt>
<wgt id='1161'> +1.3471579e-12 </wgt>
<wgt id='1162'> +1.3596518e-12 </wgt>
<wgt id='1163'> +1.3587178e-12 </wgt>
<wgt id='1164'> +1.3504520e-12 </wgt>
<wgt id='1165'> +1.3408487e-12 </wgt>
<wgt id='1166'> +1.3678979e-12 </wgt>
<wgt id='1167'> +1.3670050e-12 </wgt>
<wgt id='1168'> +1.3373780e-12 </wgt>
<wgt id='1169'> +1.3593745e-12 </wgt>
<wgt id='1170'> +1.3509198e-12 </wgt>
<wgt id='1171'> +1.3520013e-12 </wgt>
<wgt id='1172'> +1.3576996e-12 </wgt>
<wgt id='1173'> +1.3446863e-12 </wgt>
<wgt id='1174'> +1.3640985e-12 </wgt>
<wgt id='1175'> +1.3563547e-12 </wgt>
<wgt id='1176'> +1.3521378e-12 </wgt>
<wgt id='1177'> +1.3549894e-12 </wgt>
<wgt id='1178'> +1.3537033e-12 </wgt>
<wgt id='1179'> +1.3666800e-12 </wgt>
<wgt id='1180'> +1.3373424e-12 </wgt>
<wgt id='1181'> +1.3491466e-12 </wgt>
<wgt id='1182'> +1.3596575e-12 </wgt>
<wgt id='1183'> +1.3538896e-12 </wgt>
<wgt id='1184'> +1.3546736e-12 </wgt>
<wgt id='1185'> +1.3542979e-12 </wgt>
<wgt id='1186'> +1.3547122e-12 </wgt>
<wgt id='1187'> +1.3538118e-12 </wgt>
<wgt id='1188'> +1.3548257e-12 </wgt>
<wgt id='1189'> +1.3499670e-12 </wgt>
<wgt id='1190'> +1.3438145e-12 </wgt>
<wgt id='1191'> +1.3439728e-12 </wgt>
<wgt id='1192'> +1.3590208e-12 </wgt>
<wgt id='1193'> +1.3164927e-12 </wgt>
<wgt id='1194'> +1.3169603e-12 </wgt>
<wgt id='1195'> +1.3160627e-12 </wgt>
<wgt id='1196'> +1.3189915e-12 </wgt>
<wgt id='1197'> +1.3137493e-12 </wgt>
<wgt id='1198'> +1.3191152e-12 </wgt>
<wgt id='1199'> +1.3126360e-12 </wgt>
<wgt id='1200'> +1.3182405e-12 </wgt>
<wgt id='1201'> +1.3153435e-12 </wgt>
<wgt id='1202'> +1.3127768e-12 </wgt>
<wgt id='1203'> +1.3218346e-12 </wgt>
<wgt id='1204'> +1.2947281e-12 </wgt>
<wgt id='1205'> +1.3299885e-12 </wgt>
<wgt id='1206'> +1.3227424e-12 </wgt>
<wgt id='1207'> +1.3080036e-12 </wgt>
<wgt id='1208'> +1.3079569e-12 </wgt>
<wgt id='1209'> +1.3196387e-12 </wgt>
<wgt id='1210'> +1.3232948e-12 </wgt>
<wgt id='1211'> +1.3004983e-12 </wgt>
<wgt id='1212'> +1.3133292e-12 </wgt>
<wgt id='1213'> +1.3194764e-12 </wgt>
<wgt id='1214'> +1.3047943e-12 </wgt>
<wgt id='1215'> +1.3348769e-12 </wgt>
<wgt id='1216'> +1.3262325e-12 </wgt>
<wgt id='1217'> +1.3100816e-12 </wgt>
<wgt id='1218'> +1.3244601e-12 </wgt>
<wgt id='1219'> +1.3124479e-12 </wgt>
<wgt id='1220'> +1.3204887e-12 </wgt>
<wgt id='1221'> +1.3160103e-12 </wgt>
<wgt id='1222'> +1.3126025e-12 </wgt>
<wgt id='1223'> +1.3256464e-12 </wgt>
<wgt id='1224'> +1.3181952e-12 </wgt>
<wgt id='1225'> +1.3158232e-12 </wgt>
<wgt id='1226'> +1.3176383e-12 </wgt>
<wgt id='1227'> +1.3158810e-12 </wgt>
<wgt id='1228'> +1.3107548e-12 </wgt>
<wgt id='1229'> +1.3193877e-12 </wgt>
<wgt id='1230'> +1.3141697e-12 </wgt>
<wgt id='1231'> +1.3027901e-12 </wgt>
<wgt id='1232'> +1.3120849e-12 </wgt>
<wgt id='1233'> +1.3177154e-12 </wgt>
<wgt id='1234'> +1.3164927e-12 </wgt>
<wgt id='1235'> +1.3047917e-12 </wgt>
<wgt id='1236'> +1.3091686e-12 </wgt>
<wgt id='1237'> +1.3130993e-12 </wgt>
<wgt id='1238'> +1.3199893e-12 </wgt>
<wgt id='1239'> +1.3228040e-12 </wgt>
<wgt id='1240'> +1.3254853e-12 </wgt>
<wgt id='1241'> +1.2384108e-12 </wgt>
<wgt id='1242'> +1.2342759e-12 </wgt>
<wgt id='1243'> +1.2425343e-12 </wgt>
<wgt id='1244'> +1.2317476e-12 </wgt>
<wgt id='1245'> +1.2433885e-12 </wgt>
<wgt id='1246'> +1.2401095e-12 </wgt>
<wgt id='1247'> +1.2370280e-12 </wgt>
<wgt id='1248'> +1.2383048e-12 </wgt>
<wgt id='1249'> +1.2385654e-12 </wgt>
<wgt id='1250'> +1.2344960e-12 </wgt>
<wgt id='1251'> +1.2412167e-12 </wgt>
<wgt id='1252'> +1.2351635e-12 </wgt>
<wgt id='1253'> +1.2410034e-12 </wgt>
<wgt id='1254'> +1.2173019e-12 </wgt>
<wgt id='1255'> +1.2512268e-12 </wgt>
<wgt id='1256'> +1.2440938e-12 </wgt>
<wgt id='1257'> +1.2241897e-12 </wgt>
<wgt id='1258'> +1.2548511e-12 </wgt>
<wgt id='1259'> +1.2224745e-12 </wgt>
<wgt id='1260'> +1.2436099e-12 </wgt>
<wgt id='1261'> +1.2324978e-12 </wgt>
<wgt id='1262'> +1.2422662e-12 </wgt>
<wgt id='1263'> +1.2366675e-12 </wgt>
<wgt id='1264'> +1.2491251e-12 </wgt>
<wgt id='1265'> +1.2332374e-12 </wgt>
<wgt id='1266'> +1.2345872e-12 </wgt>
<wgt id='1267'> +1.2432250e-12 </wgt>
<wgt id='1268'> +1.2384031e-12 </wgt>
<wgt id='1269'> +1.2426494e-12 </wgt>
<wgt id='1270'> +1.2294563e-12 </wgt>
<wgt id='1271'> +1.2316734e-12 </wgt>
<wgt id='1272'> +1.2393113e-12 </wgt>
<wgt id='1273'> +1.2374690e-12 </wgt>
<wgt id='1274'> +1.2389314e-12 </wgt>
<wgt id='1275'> +1.2363715e-12 </wgt>
<wgt id='1276'> +1.2404134e-12 </wgt>
<wgt id='1277'> +1.2356578e-12 </wgt>
<wgt id='1278'> +1.2364951e-12 </wgt>
<wgt id='1279'> +1.2326937e-12 </wgt>
<wgt id='1280'> +1.2398164e-12 </wgt>
<wgt id='1281'> +1.2310114e-12 </wgt>
<wgt id='1282'> +1.2384108e-12 </wgt>
<wgt id='1283'> +1.2269415e-12 </wgt>
<wgt id='1284'> +1.2313129e-12 </wgt>
<wgt id='1285'> +1.2352550e-12 </wgt>
<wgt id='1286'> +1.2417702e-12 </wgt>
<wgt id='1287'> +1.2444390e-12 </wgt>
<wgt id='1288'> +1.2467805e-12 </wgt>
<wgt id='1289'> +1.3571092e-12 </wgt>
<wgt id='1290'> +1.3585580e-12 </wgt>
<wgt id='1291'> +1.3555996e-12 </wgt>
<wgt id='1292'> +1.3581800e-12 </wgt>
<wgt id='1293'> +1.3563682e-12 </wgt>
<wgt id='1294'> +1.3595844e-12 </wgt>
<wgt id='1295'> +1.3547461e-12 </wgt>
<wgt id='1296'> +1.3509040e-12 </wgt>
<wgt id='1297'> +1.3648294e-12 </wgt>
<wgt id='1298'> +1.3649996e-12 </wgt>
<wgt id='1299'> +1.3473327e-12 </wgt>
<wgt id='1300'> +1.3613672e-12 </wgt>
<wgt id='1301'> +1.3486936e-12 </wgt>
<wgt id='1302'> +1.3559132e-12 </wgt>
<wgt id='1303'> +1.3588369e-12 </wgt>
<wgt id='1304'> +1.3519171e-12 </wgt>
<wgt id='1305'> +1.3607080e-12 </wgt>
<wgt id='1306'> +1.3472402e-12 </wgt>
<wgt id='1307'> +1.3683088e-12 </wgt>
<wgt id='1308'> +1.3571074e-12 </wgt>
<wgt id='1309'> +1.3571798e-12 </wgt>
<wgt id='1310'> +1.3532455e-12 </wgt>
<wgt id='1311'> +1.3613485e-12 </wgt>
<wgt id='1312'> +1.3491094e-12 </wgt>
<wgt id='1313'> +1.3654235e-12 </wgt>
<wgt id='1314'> +1.3734229e-12 </wgt>
<wgt id='1315'> +1.3337464e-12 </wgt>
<wgt id='1316'> +1.3631386e-12 </wgt>
<wgt id='1317'> +1.3572985e-12 </wgt>
<wgt id='1318'> +1.3722369e-12 </wgt>
<wgt id='1319'> +1.3396862e-12 </wgt>
<wgt id='1320'> +1.3642135e-12 </wgt>
<wgt id='1321'> +1.3506203e-12 </wgt>
<wgt id='1322'> +1.3588302e-12 </wgt>
<wgt id='1323'> +1.3547525e-12 </wgt>
<wgt id='1324'> +1.3554803e-12 </wgt>
<wgt id='1325'> +1.3646067e-12 </wgt>
<wgt id='1326'> +1.3605625e-12 </wgt>
<wgt id='1327'> +1.3563131e-12 </wgt>
<wgt id='1328'> +1.3561966e-12 </wgt>
<wgt id='1329'> +1.3579267e-12 </wgt>
<wgt id='1330'> +1.3537876e-12 </wgt>
<wgt id='1331'> +1.3614688e-12 </wgt>
<wgt id='1332'> +1.3839870e-12 </wgt>
<wgt id='1333'> +1.3456496e-12 </wgt>
<wgt id='1334'> +1.3550189e-12 </wgt>
<wgt id='1335'> +1.3629359e-12 </wgt>
<wgt id='1336'> +1.3502388e-12 </wgt>
<wgt id='1337'> +1.3545003e-12 </wgt>
<wgt id='1338'> +1.3551416e-12 </wgt>
<wgt id='1339'> +1.3578117e-12 </wgt>
<wgt id='1340'> +1.3287813e-12 </wgt>
<wgt id='1341'> +1.3302631e-12 </wgt>
<wgt id='1342'> +1.3271567e-12 </wgt>
<wgt id='1343'> +1.3298622e-12 </wgt>
<wgt id='1344'> +1.3280258e-12 </wgt>
<wgt id='1345'> +1.3311934e-12 </wgt>
<wgt id='1346'> +1.3265290e-12 </wgt>
<wgt id='1347'> +1.3224734e-12 </wgt>
<wgt id='1348'> +1.3358221e-12 </wgt>
<wgt id='1349'> +1.3359959e-12 </wgt>
<wgt id='1350'> +1.3217327e-12 </wgt>
<wgt id='1351'> +1.3329703e-12 </wgt>
<wgt id='1352'> +1.3196065e-12 </wgt>
<wgt id='1353'> +1.3266778e-12 </wgt>
<wgt id='1354'> +1.3324827e-12 </wgt>
<wgt id='1355'> +1.3234376e-12 </wgt>
<wgt id='1356'> +1.3317889e-12 </wgt>
<wgt id='1357'> +1.3182298e-12 </wgt>
<wgt id='1358'> +1.3412383e-12 </wgt>
<wgt id='1359'> +1.3311236e-12 </wgt>
<wgt id='1360'> +1.3267394e-12 </wgt>
<wgt id='1361'> +1.3247285e-12 </wgt>
<wgt id='1362'> +1.3341971e-12 </wgt>
<wgt id='1363'> +1.3163679e-12 </wgt>
<wgt id='1364'> +1.3375615e-12 </wgt>
<wgt id='1365'> +1.3089256e-12 </wgt>
<wgt id='1366'> +1.3445136e-12 </wgt>
<wgt id='1367'> +1.3339398e-12 </wgt>
<wgt id='1368'> +1.3289092e-12 </wgt>
<wgt id='1369'> +1.3413808e-12 </wgt>
<wgt id='1370'> +1.3140430e-12 </wgt>
<wgt id='1371'> +1.3344805e-12 </wgt>
<wgt id='1372'> +1.3215004e-12 </wgt>
<wgt id='1373'> +1.3305504e-12 </wgt>
<wgt id='1374'> +1.3266842e-12 </wgt>
<wgt id='1375'> +1.3271207e-12 </wgt>
<wgt id='1376'> +1.3365447e-12 </wgt>
<wgt id='1377'> +1.3319493e-12 </wgt>
<wgt id='1378'> +1.3286494e-12 </wgt>
<wgt id='1379'> +1.3276092e-12 </wgt>
<wgt id='1380'> +1.3299392e-12 </wgt>
<wgt id='1381'> +1.3267478e-12 </wgt>
<wgt id='1382'> +1.3313551e-12 </wgt>
<wgt id='1383'> +1.3540917e-12 </wgt>
<wgt id='1384'> +1.3178498e-12 </wgt>
<wgt id='1385'> +1.3270277e-12 </wgt>
<wgt id='1386'> +1.3333024e-12 </wgt>
<wgt id='1387'> +1.3206426e-12 </wgt>
<wgt id='1388'> +1.3255706e-12 </wgt>
<wgt id='1389'> +1.3250116e-12 </wgt>
<wgt id='1390'> +1.3297217e-12 </wgt>
<wgt id='1391'> +1.3131285e-12 </wgt>
<wgt id='1392'> +1.2731553e-12 </wgt>
<wgt id='1393'> +1.2867837e-12 </wgt>
<wgt id='1394'> +1.3002110e-12 </wgt>
<wgt id='1395'> +1.3252740e-12 </wgt>
<wgt id='1396'> +1.3128036e-12 </wgt>
<wgt id='1397'> +1.3677506e-12 </wgt>
<wgt id='1398'> +1.3556057e-12 </wgt>
<wgt id='1399'> +1.3443661e-12 </wgt>
<wgt id='1400'> +1.3336724e-12 </wgt>
<wgt id='1401'> +1.3230950e-12 </wgt>
<wgt id='1402'> +1.3032185e-12 </wgt>
<wgt id='1403'> +1.2941996e-12 </wgt>
<wgt id='1404'> +1.2855240e-12 </wgt>
<wgt id='1405'> +1.3128036e-12 </wgt>
<wgt id='1406'> +1.3045141e-12 </wgt>
<wgt id='1407'> +1.3088159e-12 </wgt>
<wgt id='1408'> +1.3165090e-12 </wgt>
<wgt id='1409'> +1.3195705e-12 </wgt>
<wgt id='1410'> +1.2307330e-12 </wgt>
<wgt id='1411'> +1.2315172e-12 </wgt>
<wgt id='1412'> +1.2297216e-12 </wgt>
<wgt id='1413'> +1.2349128e-12 </wgt>
<wgt id='1414'> +1.2265560e-12 </wgt>
<wgt id='1415'> +1.2338485e-12 </wgt>
<wgt id='1416'> +1.2294680e-12 </wgt>
<wgt id='1417'> +1.2238048e-12 </wgt>
<wgt id='1418'> +1.2376456e-12 </wgt>
<wgt id='1419'> +1.2343622e-12 </wgt>
<wgt id='1420'> +1.2272444e-12 </wgt>
<wgt id='1421'> +1.2118402e-12 </wgt>
<wgt id='1422'> +1.2389400e-12 </wgt>
<wgt id='1423'> +1.2307000e-12 </wgt>
<wgt id='1424'> +1.2307614e-12 </wgt>
<wgt id='1425'> +1.2251873e-12 </wgt>
<wgt id='1426'> +1.2366997e-12 </wgt>
<wgt id='1427'> +1.2217386e-12 </wgt>
<wgt id='1428'> +1.2355687e-12 </wgt>
<wgt id='1429'> +1.2279488e-12 </wgt>
<wgt id='1430'> +1.2345932e-12 </wgt>
<wgt id='1431'> +1.2314668e-12 </wgt>
<wgt id='1432'> +1.2301551e-12 </wgt>
<wgt id='1433'> +1.2450238e-12 </wgt>
<wgt id='1434'> +1.2162336e-12 </wgt>
<wgt id='1435'> +1.2371652e-12 </wgt>
<wgt id='1436'> +1.2151475e-12 </wgt>
<wgt id='1437'> +1.2385126e-12 </wgt>
<wgt id='1438'> +1.2282256e-12 </wgt>
<wgt id='1439'> +1.2222956e-12 </wgt>
<wgt id='1440'> +1.2518579e-12 </wgt>
<wgt id='1441'> +1.2321151e-12 </wgt>
<wgt id='1442'> +1.2283445e-12 </wgt>
<wgt id='1443'> +1.2282007e-12 </wgt>
<wgt id='1444'> +1.2368930e-12 </wgt>
<wgt id='1445'> +1.2373559e-12 </wgt>
<wgt id='1446'> +1.2289069e-12 </wgt>
<wgt id='1447'> +1.2315043e-12 </wgt>
<wgt id='1448'> +1.2316188e-12 </wgt>
<wgt id='1449'> +1.2299454e-12 </wgt>
<wgt id='1450'> +1.2311390e-12 </wgt>
<wgt id='1451'> +1.2288081e-12 </wgt>
<wgt id='1452'> +1.2313970e-12 </wgt>
<wgt id='1453'> +1.2320188e-12 </wgt>
<wgt id='1454'> +1.2232991e-12 </wgt>
<wgt id='1455'> +1.2228485e-12 </wgt>
<wgt id='1456'> +1.2316683e-12 </wgt>
<wgt id='1457'> +1.2305829e-12 </wgt>
<wgt id='1458'> +1.2304140e-12 </wgt>
<wgt id='1459'> +1.2342008e-12 </wgt>
<wgt id='1460'> +1.2253820e-12 </wgt>
<wgt id='1461'> +1.2307330e-12 </wgt>
<wgt id='1462'> +1.2249460e-12 </wgt>
<wgt id='1463'> +1.2371286e-12 </wgt>
<wgt id='1464'> +1.2320746e-12 </wgt>
<wgt id='1465'> +1.2834255e-12 </wgt>
<wgt id='1466'> +1.2716521e-12 </wgt>
<wgt id='1467'> +1.2608287e-12 </wgt>
<wgt id='1468'> +1.2518111e-12 </wgt>
<wgt id='1469'> +1.2411621e-12 </wgt>
<wgt id='1470'> +1.2242026e-12 </wgt>
<wgt id='1471'> +1.2147175e-12 </wgt>
<wgt id='1472'> +1.2064425e-12 </wgt>
<wgt id='1473'> +1.2320746e-12 </wgt>
<wgt id='1474'> +1.2243302e-12 </wgt>
<wgt id='1475'> +1.2286966e-12 </wgt>
<wgt id='1476'> +1.2353058e-12 </wgt>
<wgt id='1477'> +1.2380058e-12 </wgt>
<wgt id='1478'> +1.2911123e-12 </wgt>
<wgt id='1479'> +1.2910172e-12 </wgt>
<wgt id='1480'> +1.2889186e-12 </wgt>
<wgt id='1481'> +1.2749488e-12 </wgt>
<wgt id='1482'> +1.2962637e-12 </wgt>
<wgt id='1483'> +1.2834948e-12 </wgt>
<wgt id='1484'> +1.2907502e-12 </wgt>
<wgt id='1485'> +1.3055836e-12 </wgt>
<wgt id='1486'> +1.2908695e-12 </wgt>
<wgt id='1487'> +1.2915171e-12 </wgt>
<wgt id='1488'> +1.2855759e-12 </wgt>
<wgt id='1489'> +1.3257190e-12 </wgt>
<wgt id='1490'> +1.2935063e-12 </wgt>
<wgt id='1491'> +1.2940913e-12 </wgt>
<wgt id='1492'> +1.2884205e-12 </wgt>
<wgt id='1493'> +1.2799594e-12 </wgt>
<wgt id='1494'> +1.2940158e-12 </wgt>
<wgt id='1495'> +1.3006860e-12 </wgt>
<wgt id='1496'> +1.2904671e-12 </wgt>
<wgt id='1497'> +1.2957042e-12 </wgt>
<wgt id='1498'> +1.2892828e-12 </wgt>
<wgt id='1499'> +1.2950767e-12 </wgt>
<wgt id='1500'> +1.2907021e-12 </wgt>
<wgt id='1501'> +1.2898257e-12 </wgt>
<wgt id='1502'> +1.2912804e-12 </wgt>
<wgt id='1503'> +1.2922546e-12 </wgt>
<wgt id='1504'> +1.2929824e-12 </wgt>
<wgt id='1505'> +1.2913004e-12 </wgt>
<wgt id='1506'> +1.2933833e-12 </wgt>
<wgt id='1507'> +1.2903368e-12 </wgt>
<wgt id='1508'> +1.2990285e-12 </wgt>
<wgt id='1509'> +1.2478322e-12 </wgt>
<wgt id='1510'> +1.2447311e-12 </wgt>
<wgt id='1511'> +1.2523860e-12 </wgt>
<wgt id='1512'> +1.2529417e-12 </wgt>
<wgt id='1513'> +1.2486299e-12 </wgt>
<wgt id='1514'> +1.2454725e-12 </wgt>
<wgt id='1515'> +1.2462227e-12 </wgt>
<wgt id='1516'> +1.2456554e-12 </wgt>
<wgt id='1517'> +1.2512962e-12 </wgt>
<wgt id='1518'> +1.2472337e-12 </wgt>
<wgt id='1519'> +1.2445077e-12 </wgt>
<wgt id='1520'> +1.2599169e-12 </wgt>
<wgt id='1521'> +1.2573588e-12 </wgt>
<wgt id='1522'> +1.2641862e-12 </wgt>
<wgt id='1523'> +1.2544070e-12 </wgt>
<wgt id='1524'> +1.2510066e-12 </wgt>
<wgt id='1525'> +1.2439221e-12 </wgt>
<wgt id='1526'> +1.2508084e-12 </wgt>
<wgt id='1527'> +1.2545225e-12 </wgt>
<wgt id='1528'> +1.2441829e-12 </wgt>
<wgt id='1529'> +1.2515940e-12 </wgt>
<wgt id='1530'> +1.2388732e-12 </wgt>
<wgt id='1531'> +1.2491483e-12 </wgt>
<wgt id='1532'> +1.2486439e-12 </wgt>
<wgt id='1533'> +1.2452451e-12 </wgt>
<wgt id='1534'> +1.2431333e-12 </wgt>
<wgt id='1535'> +1.2569842e-12 </wgt>
<wgt id='1536'> +1.2522657e-12 </wgt>
<wgt id='1537'> +1.2477418e-12 </wgt>
<wgt id='1538'> +1.2483815e-12 </wgt>
<wgt id='1539'> +1.2457681e-12 </wgt>
<wgt id='1540'> +1.2448005e-12 </wgt>
<wgt id='1541'> +1.2483625e-12 </wgt>
<wgt id='1542'> +1.2459107e-12 </wgt>
<wgt id='1543'> +1.2487578e-12 </wgt>
<wgt id='1544'> +1.2506110e-12 </wgt>
<wgt id='1545'> +1.2448613e-12 </wgt>
<wgt id='1546'> +1.2478483e-12 </wgt>
<wgt id='1547'> +1.2458863e-12 </wgt>
<wgt id='1548'> +1.2508463e-12 </wgt>
<wgt id='1549'> +1.2490661e-12 </wgt>
<wgt id='1550'> +1.2445601e-12 </wgt>
<wgt id='1551'> +1.2504331e-12 </wgt>
<wgt id='1552'> +1.2473618e-12 </wgt>
<wgt id='1553'> +1.2439707e-12 </wgt>
<wgt id='1554'> +1.2438016e-12 </wgt>
<wgt id='1555'> +1.2458227e-12 </wgt>
<wgt id='1556'> +1.2491668e-12 </wgt>
<wgt id='1557'> +1.2476179e-12 </wgt>
<wgt id='1558'> +1.2495142e-12 </wgt>
<wgt id='1559'> +1.2470544e-12 </wgt>
<wgt id='1560'> +1.2470520e-12 </wgt>
<wgt id='1561'> +1.2494828e-12 </wgt>
<wgt id='1562'> +1.2482478e-12 </wgt>
<wgt id='1563'> +1.2490377e-12 </wgt>
<wgt id='1564'> +1.2493655e-12 </wgt>
<wgt id='1565'> +1.2478106e-12 </wgt>
<wgt id='1566'> +1.2472457e-12 </wgt>
<wgt id='1567'> +1.2480319e-12 </wgt>
<wgt id='1568'> +1.2473692e-12 </wgt>
<wgt id='1569'> +1.2474786e-12 </wgt>
<wgt id='1570'> +1.2490381e-12 </wgt>
<wgt id='1571'> +1.2470747e-12 </wgt>
<wgt id='1572'> +1.2482940e-12 </wgt>
<wgt id='1573'> +1.2475302e-12 </wgt>
<wgt id='1574'> +1.2477919e-12 </wgt>
<wgt id='1575'> +1.2473303e-12 </wgt>
<wgt id='1576'> +1.2482795e-12 </wgt>
<wgt id='1577'> +1.2487859e-12 </wgt>
<wgt id='1578'> +1.2472526e-12 </wgt>
<wgt id='1579'> +1.2480447e-12 </wgt>
<wgt id='1580'> +1.2485147e-12 </wgt>
<wgt id='1581'> +1.2485285e-12 </wgt>
<wgt id='1582'> +1.2485495e-12 </wgt>
<wgt id='1583'> +1.2484666e-12 </wgt>
<wgt id='1584'> +1.2480719e-12 </wgt>
<wgt id='1585'> +1.2474953e-12 </wgt>
<wgt id='1586'> +1.2490078e-12 </wgt>
<wgt id='1587'> +1.2490389e-12 </wgt>
<wgt id='1588'> +1.2465084e-12 </wgt>
<wgt id='1589'> +1.2479434e-12 </wgt>
<wgt id='1590'> +1.2477819e-12 </wgt>
<wgt id='1591'> +1.2472344e-12 </wgt>
<wgt id='1592'> +1.2478564e-12 </wgt>
<wgt id='1593'> +1.2487546e-12 </wgt>
<wgt id='1594'> +1.2476962e-12 </wgt>
<wgt id='1595'> +1.2480244e-12 </wgt>
<wgt id='1596'> +1.2472980e-12 </wgt>
<wgt id='1597'> +1.2476282e-12 </wgt>
<wgt id='1598'> +1.2480560e-12 </wgt>
<wgt id='1599'> +1.2473856e-12 </wgt>
<wgt id='1600'> +1.2476148e-12 </wgt>
<wgt id='1601'> +1.2478898e-12 </wgt>
<wgt id='1602'> +1.2482044e-12 </wgt>
<wgt id='1603'> +1.2481788e-12 </wgt>
<wgt id='1604'> +1.2480458e-12 </wgt>
<wgt id='1605'> +1.2483954e-12 </wgt>
<wgt id='1606'> +1.2462072e-12 </wgt>
<wgt id='1607'> +1.2484674e-12 </wgt>
<wgt id='1608'> +1.2477714e-12 </wgt>
<wgt id='1609'> +1.2473791e-12 </wgt>
<wgt id='1610'> +1.2150176e-12 </wgt>
<wgt id='1611'> +1.2782637e-12 </wgt>
<wgt id='1612'> +1.4562092e-12 </wgt>
<wgt id='1613'> +1.5288362e-12 </wgt>
<wgt id='1614'> +1.4720561e-12 </wgt>
<wgt id='1615'> +1.4410238e-12 </wgt>
<wgt id='1616'> +1.4640716e-12 </wgt>
<wgt id='1617'> +1.3719597e-12 </wgt>
<wgt id='1618'> +1.3292549e-12 </wgt>
<wgt id='1619'> +1.4784616e-12 </wgt>
<wgt id='1620'> +1.4936231e-12 </wgt>
<wgt id='1621'> +1.4342290e-12 </wgt>
<wgt id='1622'> +1.4481229e-12 </wgt>
<wgt id='1623'> +1.4333001e-12 </wgt>
<wgt id='1624'> +1.4314677e-12 </wgt>
<wgt id='1625'> +1.4847082e-12 </wgt>
<wgt id='1626'> +1.4937346e-12 </wgt>
<wgt id='1627'> +1.4318578e-12 </wgt>
<wgt id='1628'> +1.4872572e-12 </wgt>
<wgt id='1629'> +1.5160226e-12 </wgt>
<wgt id='1630'> +1.4736652e-12 </wgt>
<wgt id='1631'> +1.4467844e-12 </wgt>
<wgt id='1632'> +1.5573772e-12 </wgt>
<wgt id='1633'> +1.4439834e-12 </wgt>
<wgt id='1634'> +1.4559869e-12 </wgt>
<wgt id='1635'> +1.4473411e-12 </wgt>
<wgt id='1636'> +1.4095197e-12 </wgt>
<wgt id='1637'> +1.3933894e-12 </wgt>
<wgt id='1638'> +1.4742612e-12 </wgt>
<wgt id='1639'> +1.5017951e-12 </wgt>
<wgt id='1640'> +1.5154493e-12 </wgt>
<wgt id='1641'> +1.4428564e-12 </wgt>
<wgt id='1642'> +1.4788602e-12 </wgt>
<wgt id='1643'> +1.5148953e-12 </wgt>
<wgt id='1644'> +1.3982574e-12 </wgt>
<wgt id='1645'> +1.4862087e-12 </wgt>
<wgt id='1646'> +1.5160951e-12 </wgt>
<wgt id='1647'> +1.5149128e-12 </wgt>
<wgt id='1648'> +1.4451339e-12 </wgt>
<wgt id='1649'> +1.3438679e-12 </wgt>
<wgt id='1650'> +1.4850693e-12 </wgt>
<wgt id='1651'> +1.4147510e-12 </wgt>
<wgt id='1652'> +1.5182121e-12 </wgt>
<wgt id='1653'> +1.3916063e-12 </wgt>
<wgt id='1654'> +1.3902121e-12 </wgt>
<wgt id='1655'> +1.4000839e-12 </wgt>
<wgt id='1656'> +1.4621352e-12 </wgt>
<wgt id='1657'> +1.4185049e-12 </wgt>
<wgt id='1658'> +1.4676818e-12 </wgt>
<wgt id='1659'> +1.4314677e-12 </wgt>
<wgt id='1660'> +1.4010666e-12 </wgt>
<wgt id='1661'> +1.3999042e-12 </wgt>
<wgt id='1662'> +1.4585028e-12 </wgt>
<wgt id='1663'> +1.4602639e-12 </wgt>
<wgt id='1664'> +1.5416689e-12 </wgt>
<wgt id='1665'> +1.4835965e-12 </wgt>
<wgt id='1666'> +1.4274996e-12 </wgt>
<wgt id='1667'> +1.4432592e-12 </wgt>
<wgt id='1668'> +1.4496227e-12 </wgt>
<wgt id='1669'> +1.4340372e-12 </wgt>
<wgt id='1670'> +1.4761190e-12 </wgt>
<wgt id='1671'> +1.5098338e-12 </wgt>
<wgt id='1672'> +1.4616441e-12 </wgt>
<wgt id='1673'> +1.3990134e-12 </wgt>
<wgt id='1674'> +1.4819072e-12 </wgt>
<wgt id='1675'> +1.5480961e-12 </wgt>
<wgt id='1676'> +1.4431223e-12 </wgt>
<wgt id='1677'> +1.4729676e-12 </wgt>
<wgt id='1678'> +1.4430800e-12 </wgt>
<wgt id='1679'> +1.4925750e-12 </wgt>
<wgt id='1680'> +1.4535945e-12 </wgt>
<wgt id='1681'> +1.5005536e-12 </wgt>
<wgt id='1682'> +1.4582259e-12 </wgt>
<wgt id='1683'> +1.4455808e-12 </wgt>
<wgt id='1684'> +1.4496882e-12 </wgt>
<wgt id='1685'> +1.4597924e-12 </wgt>
<wgt id='1686'> +1.4814763e-12 </wgt>
<wgt id='1687'> +1.5125283e-12 </wgt>
<wgt id='1688'> +1.4661265e-12 </wgt>
<wgt id='1689'> +1.4278215e-12 </wgt>
<wgt id='1690'> +1.4563265e-12 </wgt>
<wgt id='1691'> +1.4901632e-12 </wgt>
<wgt id='1692'> +1.4768914e-12 </wgt>
<wgt id='1693'> +1.4871382e-12 </wgt>
<wgt id='1694'> +1.3672222e-12 </wgt>
<wgt id='1695'> +1.4688893e-12 </wgt>
<wgt id='1696'> +1.5158790e-12 </wgt>
<wgt id='1697'> +1.4160922e-12 </wgt>
<wgt id='1698'> +1.4382522e-12 </wgt>
<wgt id='1699'> +1.4218930e-12 </wgt>
<wgt id='1700'> +1.4510432e-12 </wgt>
<wgt id='1701'> +1.4549929e-12 </wgt>
<wgt id='1702'> +1.4019345e-12 </wgt>
<wgt id='1703'> +1.4890109e-12 </wgt>
<wgt id='1704'> +1.4380905e-12 </wgt>
<wgt id='1705'> +1.4977796e-12 </wgt>
<wgt id='1706'> +1.4248153e-12 </wgt>
<wgt id='1707'> +1.4367647e-12 </wgt>
<wgt id='1708'> +1.4320989e-12 </wgt>
<wgt id='1709'> +1.4565181e-12 </wgt>
<wgt id='1710'> +1.4451351e-12 </wgt>
<wgt id='1711'> +1.4442138e-12 </wgt>
<wgt id='1712'> +1.4591391e-12 </wgt>
<wgt id='1713'> +1.3105124e-12 </wgt>
<wgt id='1714'> +1.2648140e-12 </wgt>
<wgt id='1715'> +1.3189507e-12 </wgt>
<wgt id='1716'> +1.2925105e-12 </wgt>
<wgt id='1717'> +1.2896586e-12 </wgt>
<wgt id='1718'> +1.2713637e-12 </wgt>
<wgt id='1719'> +1.3138539e-12 </wgt>
<wgt id='1720'> +1.3393178e-12 </wgt>
<wgt id='1721'> +1.3005542e-12 </wgt>
<wgt id='1722'> +1.2960373e-12 </wgt>
<wgt id='1723'> +1.2579941e-12 </wgt>
<wgt id='1724'> +1.3079703e-12 </wgt>
<wgt id='1725'> +1.3384157e-12 </wgt>
<wgt id='1726'> +1.3379497e-12 </wgt>
<wgt id='1727'> +1.2591338e-12 </wgt>
<wgt id='1728'> +1.3159463e-12 </wgt>
<wgt id='1729'> +1.3336320e-12 </wgt>
<wgt id='1730'> +1.2748208e-12 </wgt>
<wgt id='1731'> +1.2837905e-12 </wgt>
<wgt id='1732'> +1.3242569e-12 </wgt>
<wgt id='1733'> +1.3207369e-12 </wgt>
<wgt id='1734'> +1.3144549e-12 </wgt>
<wgt id='1735'> +1.3106315e-12 </wgt>
<wgt id='1736'> +1.4301026e-12 </wgt>
<wgt id='1737'> +1.3004667e-12 </wgt>
<wgt id='1738'> +1.3384875e-12 </wgt>
<wgt id='1739'> +1.2701495e-12 </wgt>
<wgt id='1740'> +1.2774872e-12 </wgt>
<wgt id='1741'> +1.2987697e-12 </wgt>
<wgt id='1742'> +1.2880738e-12 </wgt>
<wgt id='1743'> +1.3400293e-12 </wgt>
<wgt id='1744'> +1.3113855e-12 </wgt>
<wgt id='1745'> +1.2521679e-12 </wgt>
<wgt id='1746'> +1.3465046e-12 </wgt>
<wgt id='1747'> +1.3270412e-12 </wgt>
<wgt id='1748'> +1.3141965e-12 </wgt>
<wgt id='1749'> +1.3527264e-12 </wgt>
<wgt id='1750'> +1.3320797e-12 </wgt>
<wgt id='1751'> +1.3045827e-12 </wgt>
<wgt id='1752'> +1.2595510e-12 </wgt>
<wgt id='1753'> +1.3446448e-12 </wgt>
<wgt id='1754'> +1.2952435e-12 </wgt>
<wgt id='1755'> +1.3362884e-12 </wgt>
<wgt id='1756'> +1.3377394e-12 </wgt>
<wgt id='1757'> +1.2994741e-12 </wgt>
<wgt id='1758'> +1.3368135e-12 </wgt>
<wgt id='1759'> +1.3154119e-12 </wgt>
<wgt id='1760'> +1.2794335e-12 </wgt>
<wgt id='1761'> +1.2741606e-12 </wgt>
<wgt id='1762'> +1.3205933e-12 </wgt>
<wgt id='1763'> +1.3189678e-12 </wgt>
<wgt id='1764'> +1.3146871e-12 </wgt>
<wgt id='1765'> +1.3104402e-12 </wgt>
<wgt id='1766'> +1.3364871e-12 </wgt>
<wgt id='1767'> +1.3088931e-12 </wgt>
<wgt id='1768'> +1.3088727e-12 </wgt>
<wgt id='1769'> +1.2657406e-12 </wgt>
<wgt id='1770'> +1.3682178e-12 </wgt>
<wgt id='1771'> +1.3040462e-12 </wgt>
<wgt id='1772'> +1.3283718e-12 </wgt>
<wgt id='1773'> +1.3017593e-12 </wgt>
<wgt id='1774'> +1.3227000e-12 </wgt>
<wgt id='1775'> +1.3129139e-12 </wgt>
<wgt id='1776'> +1.3367723e-12 </wgt>
<wgt id='1777'> +1.2865686e-12 </wgt>
<wgt id='1778'> +1.2908032e-12 </wgt>
<wgt id='1779'> +1.3288830e-12 </wgt>
<wgt id='1780'> +1.3589677e-12 </wgt>
<wgt id='1781'> +1.2816021e-12 </wgt>
<wgt id='1782'> +1.2667834e-12 </wgt>
<wgt id='1783'> +1.3242035e-12 </wgt>
<wgt id='1784'> +1.3500753e-12 </wgt>
<wgt id='1785'> +1.2897916e-12 </wgt>
<wgt id='1786'> +1.2305063e-12 </wgt>
<wgt id='1787'> +1.3193411e-12 </wgt>
<wgt id='1788'> +1.2927797e-12 </wgt>
<wgt id='1789'> +1.2816006e-12 </wgt>
<wgt id='1790'> +1.3383541e-12 </wgt>
<wgt id='1791'> +1.3699580e-12 </wgt>
<wgt id='1792'> +1.2970803e-12 </wgt>
<wgt id='1793'> +1.3291080e-12 </wgt>
<wgt id='1794'> +1.3089301e-12 </wgt>
<wgt id='1795'> +1.2997449e-12 </wgt>
<wgt id='1796'> +1.3026836e-12 </wgt>
<wgt id='1797'> +1.3159776e-12 </wgt>
<wgt id='1798'> +1.2652995e-12 </wgt>
<wgt id='1799'> +1.3083026e-12 </wgt>
<wgt id='1800'> +1.2980971e-12 </wgt>
<wgt id='1801'> +1.3058103e-12 </wgt>
<wgt id='1802'> +1.3304961e-12 </wgt>
<wgt id='1803'> +1.3094683e-12 </wgt>
<wgt id='1804'> +1.2607032e-12 </wgt>
<wgt id='1805'> +1.3479163e-12 </wgt>
<wgt id='1806'> +1.2900460e-12 </wgt>
<wgt id='1807'> +1.3498382e-12 </wgt>
<wgt id='1808'> +1.2957512e-12 </wgt>
<wgt id='1809'> +1.3135833e-12 </wgt>
<wgt id='1810'> +1.3126602e-12 </wgt>
<wgt id='1811'> +1.3673410e-12 </wgt>
<wgt id='1812'> +1.3458602e-12 </wgt>
<wgt id='1813'> +1.3094039e-12 </wgt>
<wgt id='1814'> +1.0945901e-12 </wgt>
<wgt id='1815'> +1.2490151e-12 </wgt>
<wgt id='1816'> +1.3105124e-12 </wgt>
<wgt id='1817'> +1.2648140e-12 </wgt>
<wgt id='1818'> +1.3189507e-12 </wgt>
<wgt id='1819'> +1.2925105e-12 </wgt>
<wgt id='1820'> +1.2896586e-12 </wgt>
<wgt id='1821'> +1.2713637e-12 </wgt>
<wgt id='1822'> +1.3138539e-12 </wgt>
<wgt id='1823'> +1.3393178e-12 </wgt>
<wgt id='1824'> +1.3005542e-12 </wgt>
<wgt id='1825'> +1.2960373e-12 </wgt>
<wgt id='1826'> +1.2579941e-12 </wgt>
<wgt id='1827'> +1.3079703e-12 </wgt>
<wgt id='1828'> +1.3384157e-12 </wgt>
<wgt id='1829'> +1.3379497e-12 </wgt>
<wgt id='1830'> +1.2591338e-12 </wgt>
<wgt id='1831'> +1.3159463e-12 </wgt>
<wgt id='1832'> +1.3336320e-12 </wgt>
<wgt id='1833'> +1.2748208e-12 </wgt>
<wgt id='1834'> +1.2837905e-12 </wgt>
<wgt id='1835'> +1.3242569e-12 </wgt>
<wgt id='1836'> +1.3207369e-12 </wgt>
<wgt id='1837'> +1.3144549e-12 </wgt>
<wgt id='1838'> +1.3106315e-12 </wgt>
<wgt id='1839'> +1.4301026e-12 </wgt>
<wgt id='1840'> +1.3004667e-12 </wgt>
<wgt id='1841'> +1.3384875e-12 </wgt>
<wgt id='1842'> +1.2701495e-12 </wgt>
<wgt id='1843'> +1.2774872e-12 </wgt>
<wgt id='1844'> +1.2987697e-12 </wgt>
<wgt id='1845'> +1.2880738e-12 </wgt>
<wgt id='1846'> +1.3400293e-12 </wgt>
<wgt id='1847'> +1.3113855e-12 </wgt>
<wgt id='1848'> +1.2521679e-12 </wgt>
<wgt id='1849'> +1.3465046e-12 </wgt>
<wgt id='1850'> +1.3270412e-12 </wgt>
<wgt id='1851'> +1.3141965e-12 </wgt>
<wgt id='1852'> +1.3527264e-12 </wgt>
<wgt id='1853'> +1.3320797e-12 </wgt>
<wgt id='1854'> +1.3045827e-12 </wgt>
<wgt id='1855'> +1.2595510e-12 </wgt>
<wgt id='1856'> +1.3446448e-12 </wgt>
<wgt id='1857'> +1.2952435e-12 </wgt>
<wgt id='1858'> +1.3362884e-12 </wgt>
<wgt id='1859'> +1.3377394e-12 </wgt>
<wgt id='1860'> +1.2994741e-12 </wgt>
<wgt id='1861'> +1.3368135e-12 </wgt>
<wgt id='1862'> +1.3154119e-12 </wgt>
<wgt id='1863'> +1.2794335e-12 </wgt>
<wgt id='1864'> +1.2741606e-12 </wgt>
<wgt id='1865'> +1.3205933e-12 </wgt>
<wgt id='1866'> +1.3189678e-12 </wgt>
<wgt id='1867'> +1.3146871e-12 </wgt>
<wgt id='1868'> +1.3104402e-12 </wgt>
<wgt id='1869'> +1.3364871e-12 </wgt>
<wgt id='1870'> +1.3088931e-12 </wgt>
<wgt id='1871'> +1.3088727e-12 </wgt>
<wgt id='1872'> +1.2657406e-12 </wgt>
<wgt id='1873'> +1.3682178e-12 </wgt>
<wgt id='1874'> +1.3040462e-12 </wgt>
<wgt id='1875'> +1.3283718e-12 </wgt>
<wgt id='1876'> +1.3017593e-12 </wgt>
<wgt id='1877'> +1.3227000e-12 </wgt>
<wgt id='1878'> +1.3129139e-12 </wgt>
<wgt id='1879'> +1.3367723e-12 </wgt>
<wgt id='1880'> +1.2865686e-12 </wgt>
<wgt id='1881'> +1.2908032e-12 </wgt>
<wgt id='1882'> +1.3288830e-12 </wgt>
<wgt id='1883'> +1.3589677e-12 </wgt>
<wgt id='1884'> +1.2816021e-12 </wgt>
<wgt id='1885'> +1.2667834e-12 </wgt>
<wgt id='1886'> +1.3242035e-12 </wgt>
<wgt id='1887'> +1.3500753e-12 </wgt>
<wgt id='1888'> +1.2897916e-12 </wgt>
<wgt id='1889'> +1.2305063e-12 </wgt>
<wgt id='1890'> +1.3193411e-12 </wgt>
<wgt id='1891'> +1.2927797e-12 </wgt>
<wgt id='1892'> +1.2816006e-12 </wgt>
<wgt id='1893'> +1.3383541e-12 </wgt>
<wgt id='1894'> +1.3699580e-12 </wgt>
<wgt id='1895'> +1.2970803e-12 </wgt>
<wgt id='1896'> +1.3291080e-12 </wgt>
<wgt id='1897'> +1.3089301e-12 </wgt>
<wgt id='1898'> +1.2997449e-12 </wgt>
<wgt id='1899'> +1.3026836e-12 </wgt>
<wgt id='1900'> +1.3159776e-12 </wgt>
<wgt id='1901'> +1.2652995e-12 </wgt>
<wgt id='1902'> +1.3083026e-12 </wgt>
<wgt id='1903'> +1.2980971e-12 </wgt>
<wgt id='1904'> +1.3058103e-12 </wgt>
<wgt id='1905'> +1.3304961e-12 </wgt>
<wgt id='1906'> +1.3094683e-12 </wgt>
<wgt id='1907'> +1.2607032e-12 </wgt>
<wgt id='1908'> +1.3479163e-12 </wgt>
<wgt id='1909'> +1.2900460e-12 </wgt>
<wgt id='1910'> +1.3498382e-12 </wgt>
<wgt id='1911'> +1.2957512e-12 </wgt>
<wgt id='1912'> +1.3135833e-12 </wgt>
<wgt id='1913'> +1.3126602e-12 </wgt>
<wgt id='1914'> +1.3673410e-12 </wgt>
<wgt id='1915'> +1.3458602e-12 </wgt>
<wgt id='1916'> +1.3094039e-12 </wgt>
<wgt id='1917'> +1.2917158e-12 </wgt>
<wgt id='1918'> +1.3200930e-12 </wgt>
<wgt id='1919'> +1.2802147e-12 </wgt>
</rwgt>
</event>
<event>
 9      1 +1.5607000e-12 2.52441700e+01 7.81860800e-03 1.50346900e-01
       21 -1    0    0  501  502 +0.0000000000e+00 +0.0000000000e+00 +1.6343041908e+01 1.6343041908e+01 0.0000000000e+00 0.0000e+00 -1.0000e+00
        3 -1    0    0  502    0 -0.0000000000e+00 -0.0000000000e+00 -3.5312966455e+01 3.5312966455e+01 0.0000000000e+00 0.0000e+00 -1.0000e+00
     1023  2    1    2    0    0 -1.3495802072e+01 +1.5172385331e+01 -2.2355749276e+00 2.5342962028e+01 1.4997665783e+01 0.0000e+00 0.0000e+00
  1000023  2    3    3    0    0 -2.9969648394e+00 +1.0077340237e+01 -4.0076129533e+00 1.2524023441e+01 5.5005106187e+00 0.0000e+00 0.0000e+00
        3  1    1    2  501    0 +1.3495802072e+01 -1.5172385331e+01 -1.6734349620e+01 2.6313046334e+01 0.0000000000e+00 0.0000e+00 -1.0000e+00
  1000022  1    4    4    0    0 -2.5473791180e+00 +9.1557441882e+00 -3.9322380699e+00 1.1435877240e+01 5.0000000000e+00 0.0000e+00 -1.0000e+00
      -11  1    4    4    0    0 -4.7234114153e-01 +8.9858596942e-01 -1.3120776955e-01 1.0236105892e+00 5.1100000000e-04 0.0000e+00 -1.0000e+00
       11  1    4    4    0    0 +2.2755420071e-02 +2.3010079496e-02 +5.5832886169e-02 6.4535611874e-02 5.1100000000e-04 0.0000e+00 1.0000e+00
  1000022  1    3    3    0    0 -1.0498837232e+01 +5.0950450936e+00 +1.7720380257e+00 1.2818938587e+01 5.0000000000e+00 0.0000e+00 -1.0000e+00
<mgrwt>
<rscale>  1 0.25244166E+02</rscale>
<asrwt>0</asrwt>
<pdfrwt beam="1">  1       21 0.25143142E-02 0.25244166E+02</pdfrwt>
<pdfrwt beam="2">  1        3 0.54327640E-02 0.25244166E+02</pdfrwt>
<totfact> 0.76456685E+06</totfact>
</mgrwt>
<rwgt>
<wgt id='1001'> +1.5607000e-12 </wgt>
<wgt id='1002'> +1.6703916e-12 </wgt>
<wgt id='1003'> +1.6710725e-12 </wgt>
<wgt id='1004'> +1.5324265e-12 </wgt>
<wgt id='1005'> +1.6818302e-12 </wgt>
<wgt id='1006'> +1.3589161e-12 </wgt>
<wgt id='1007'> +1.4764215e-12 </wgt>
<wgt id='1008'> +1.4771724e-12 </wgt>
<wgt id='1009'> +1.3294503e-12 </wgt>
<wgt id='1010'> +1.4890972e-12 </wgt>
<wgt id='1011'> +1.8364820e-12 </wgt>
<wgt id='1012'> +1.9256840e-12 </wgt>
<wgt id='1013'> +1.9262064e-12 </wgt>
<wgt id='1014'> +1.8124688e-12 </wgt>
<wgt id='1015'> +1.9344320e-12 </wgt>
<wgt id='1016'> +1.9399547e-12 </wgt>
<wgt id='1017'> +1.9866985e-12 </wgt>
<wgt id='1018'> +1.9869515e-12 </wgt>
<wgt id='1019'> +1.9262064e-12 </wgt>
<wgt id='1020'> +1.9908282e-12 </wgt>
<wgt id='1021'> +1.6891367e-12 </wgt>
<wgt id='1022'> +1.7559979e-12 </wgt>
<wgt id='1023'> +1.7563989e-12 </wgt>
<wgt id='1024'> +1.6710725e-12 </wgt>
<wgt id='1025'> +1.7626849e-12 </wgt>
<wgt id='1026'> +2.2827526e-12 </wgt>
<wgt id='1027'> +2.2903332e-12 </wgt>
<wgt id='1028'> +2.2903128e-12 </wgt>
<wgt id='1029'> +2.2782099e-12 </wgt>
<wgt id='1030'> +2.2898398e-12 </wgt>
<wgt id='1031'> +1.1582485e-12 </wgt>
<wgt id='1032'> +1.3283452e-12 </wgt>
<wgt id='1033'> +1.3294503e-12 </wgt>
<wgt id='1034'> +1.1157927e-12 </wgt>
<wgt id='1035'> +1.3469439e-12 </wgt>
<wgt id='1036'> +1.0084978e-12 </wgt>
<wgt id='1037'> +1.1740943e-12 </wgt>
<wgt id='1038'> +1.1751898e-12 </wgt>
<wgt id='1039'> +9.6800136e-13 </wgt>
<wgt id='1040'> +1.1925879e-12 </wgt>
<wgt id='1041'> +1.3629157e-12 </wgt>
<wgt id='1042'> +1.5313613e-12 </wgt>
<wgt id='1043'> +1.5324265e-12 </wgt>
<wgt id='1044'> +1.3196975e-12 </wgt>
<wgt id='1045'> +1.5492476e-12 </wgt>
<wgt id='1046'> +1.5607000e-12 </wgt>
<wgt id='1047'> +1.3178516e-12 </wgt>
<wgt id='1048'> +1.5571594e-12 </wgt>
<wgt id='1049'> +1.5188843e-12 </wgt>
<wgt id='1050'> +1.5616970e-12 </wgt>
<wgt id='1051'> +1.5928773e-12 </wgt>
<wgt id='1052'> +1.3526804e-12 </wgt>
<wgt id='1053'> +1.5145971e-12 </wgt>
<wgt id='1054'> +1.7123067e-12 </wgt>
<wgt id='1055'> +1.5607154e-12 </wgt>
<wgt id='1056'> +1.4952844e-12 </wgt>
<wgt id='1057'> +1.5360282e-12 </wgt>
<wgt id='1058'> +1.6421238e-12 </wgt>
<wgt id='1059'> +1.6427299e-12 </wgt>
<wgt id='1060'> +1.5682348e-12 </wgt>
<wgt id='1061'> +1.5017728e-12 </wgt>
<wgt id='1062'> +1.5736890e-12 </wgt>
<wgt id='1063'> +1.3777449e-12 </wgt>
<wgt id='1064'> +1.6863221e-12 </wgt>
<wgt id='1065'> +1.6096415e-12 </wgt>
<wgt id='1066'> +1.6954104e-12 </wgt>
<wgt id='1067'> +1.5355789e-12 </wgt>
<wgt id='1068'> +1.5841444e-12 </wgt>
<wgt id='1069'> +1.5176190e-12 </wgt>
<wgt id='1070'> +1.7003605e-12 </wgt>
<wgt id='1071'> +1.6639421e-12 </wgt>
<wgt id='1072'> +1.5664816e-12 </wgt>
<wgt id='1073'> +1.4265798e-12 </wgt>
<wgt id='1074'> +1.5899020e-12 </wgt>
<wgt id='1075'> +1.5574122e-12 </wgt>
<wgt id='1076'> +1.3720524e-12 </wgt>
<wgt id='1077'> +1.4156585e-12 </wgt>
<wgt id='1078'> +1.5544966e-12 </wgt>
<wgt id='1079'> +1.5172749e-12 </wgt>
<wgt id='1080'> +1.7310980e-12 </wgt>
<wgt id='1081'> +1.5322247e-12 </wgt>
<wgt id='1082'> +1.5854713e-12 </wgt>
<wgt id='1083'> +1.6867147e-12 </wgt>
<wgt id='1084'> +1.5586185e-12 </wgt>
<wgt id='1085'> +1.4645423e-12 </wgt>
<wgt id='1086'> +1.5395747e-12 </wgt>
<wgt id='1087'> +1.5788522e-12 </wgt>
<wgt id='1088'> +1.5616031e-12 </wgt>
<wgt id='1089'> +1.4927018e-12 </wgt>
<wgt id='1090'> +1.4222010e-12 </wgt>
<wgt id='1091'> +1.5921606e-12 </wgt>
<wgt id='1092'> +1.5634690e-12 </wgt>
<wgt id='1093'> +1.6206453e-12 </wgt>
<wgt id='1094'> +1.6674763e-12 </wgt>
<wgt id='1095'> +1.4698422e-12 </wgt>
<wgt id='1096'> +1.5609578e-12 </wgt>
<wgt id='1097'> +1.5940092e-12 </wgt>
<wgt id='1098'> +1.5509206e-12 </wgt>
<wgt id='1099'> +1.5431749e-12 </wgt>
<wgt id='1100'> +1.5016792e-12 </wgt>
<wgt id='1101'> +1.6911006e-12 </wgt>
<wgt id='1102'> +1.6004970e-12 </wgt>
<wgt id='1103'> +1.6050771e-12 </wgt>
<wgt id='1104'> +1.6262999e-12 </wgt>
<wgt id='1105'> +1.4592465e-12 </wgt>
<wgt id='1106'> +1.4892326e-12 </wgt>
<wgt id='1107'> +1.3790524e-12 </wgt>
<wgt id='1108'> +1.6215766e-12 </wgt>
<wgt id='1109'> +1.6242086e-12 </wgt>
<wgt id='1110'> +1.6769695e-12 </wgt>
<wgt id='1111'> +1.5686077e-12 </wgt>
<wgt id='1112'> +1.5829855e-12 </wgt>
<wgt id='1113'> +1.5775158e-12 </wgt>
<wgt id='1114'> +1.4054420e-12 </wgt>
<wgt id='1115'> +1.5536577e-12 </wgt>
<wgt id='1116'> +1.5681769e-12 </wgt>
<wgt id='1117'> +1.4803103e-12 </wgt>
<wgt id='1118'> +1.4981965e-12 </wgt>
<wgt id='1119'> +1.6243620e-12 </wgt>
<wgt id='1120'> +1.6060894e-12 </wgt>
<wgt id='1121'> +1.6193532e-12 </wgt>
<wgt id='1122'> +1.5190841e-12 </wgt>
<wgt id='1123'> +1.6044556e-12 </wgt>
<wgt id='1124'> +1.5196060e-12 </wgt>
<wgt id='1125'> +1.5736571e-12 </wgt>
<wgt id='1126'> +1.4544095e-12 </wgt>
<wgt id='1127'> +1.6183052e-12 </wgt>
<wgt id='1128'> +1.5736890e-12 </wgt>
<wgt id='1129'> +1.5035227e-12 </wgt>
<wgt id='1130'> +1.6562988e-12 </wgt>
<wgt id='1131'> +1.5659081e-12 </wgt>
<wgt id='1132'> +1.5035398e-12 </wgt>
<wgt id='1133'> +1.7233660e-12 </wgt>
<wgt id='1134'> +1.3752082e-12 </wgt>
<wgt id='1135'> +1.6779919e-12 </wgt>
<wgt id='1136'> +1.5902016e-12 </wgt>
<wgt id='1137'> +1.6758443e-12 </wgt>
<wgt id='1138'> +1.6925014e-12 </wgt>
<wgt id='1139'> +1.5867395e-12 </wgt>
<wgt id='1140'> +1.4856788e-12 </wgt>
<wgt id='1141'> +1.6907391e-12 </wgt>
<wgt id='1142'> +1.5796494e-12 </wgt>
<wgt id='1143'> +1.4694025e-12 </wgt>
<wgt id='1144'> +1.4812959e-12 </wgt>
<wgt id='1145'> +1.6509121e-12 </wgt>
<wgt id='1146'> +1.6223204e-12 </wgt>
<wgt id='1147'> +1.2504673e-12 </wgt>
<wgt id='1148'> +1.2855167e-12 </wgt>
<wgt id='1149'> +1.1699402e-12 </wgt>
<wgt id='1150'> +1.1651544e-12 </wgt>
<wgt id='1151'> +1.1134604e-12 </wgt>
<wgt id='1152'> +1.4324165e-12 </wgt>
<wgt id='1153'> +1.4272762e-12 </wgt>
<wgt id='1154'> +1.4353371e-12 </wgt>
<wgt id='1155'> +1.4340206e-12 </wgt>
<wgt id='1156'> +1.4315814e-12 </wgt>
<wgt id='1157'> +1.4219728e-12 </wgt>
<wgt id='1158'> +1.4463036e-12 </wgt>
<wgt id='1159'> +1.4226169e-12 </wgt>
<wgt id='1160'> +1.4386700e-12 </wgt>
<wgt id='1161'> +1.4179163e-12 </wgt>
<wgt id='1162'> +1.4422741e-12 </wgt>
<wgt id='1163'> +1.4180163e-12 </wgt>
<wgt id='1164'> +1.4466267e-12 </wgt>
<wgt id='1165'> +1.4166121e-12 </wgt>
<wgt id='1166'> +1.4478240e-12 </wgt>
<wgt id='1167'> +1.4579177e-12 </wgt>
<wgt id='1168'> +1.4002097e-12 </wgt>
<wgt id='1169'> +1.4375455e-12 </wgt>
<wgt id='1170'> +1.4284994e-12 </wgt>
<wgt id='1171'> +1.4248926e-12 </wgt>
<wgt id='1172'> +1.4416962e-12 </wgt>
<wgt id='1173'> +1.4178397e-12 </wgt>
<wgt id='1174'> +1.4466322e-12 </wgt>
<wgt id='1175'> +1.4313589e-12 </wgt>
<wgt id='1176'> +1.4322992e-12 </wgt>
<wgt id='1177'> +1.4337067e-12 </wgt>
<wgt id='1178'> +1.4284876e-12 </wgt>
<wgt id='1179'> +1.4395392e-12 </wgt>
<wgt id='1180'> +1.4189095e-12 </wgt>
<wgt id='1181'> +1.4315187e-12 </wgt>
<wgt id='1182'> +1.4331497e-12 </wgt>
<wgt id='1183'> +1.4327934e-12 </wgt>
<wgt id='1184'> +1.4323454e-12 </wgt>
<wgt id='1185'> +1.4771919e-12 </wgt>
<wgt id='1186'> +1.4087713e-12 </wgt>
<wgt id='1187'> +1.4476984e-12 </wgt>
<wgt id='1188'> +1.4288330e-12 </wgt>
<wgt id='1189'> +1.4204162e-12 </wgt>
<wgt id='1190'> +1.4250266e-12 </wgt>
<wgt id='1191'> +1.4366535e-12 </wgt>
<wgt id='1192'> +1.4272243e-12 </wgt>
<wgt id='1193'> +1.1435044e-12 </wgt>
<wgt id='1194'> +1.1408501e-12 </wgt>
<wgt id='1195'> +1.1455601e-12 </wgt>
<wgt id='1196'> +1.1404866e-12 </wgt>
<wgt id='1197'> +1.1468082e-12 </wgt>
<wgt id='1198'> +1.1516594e-12 </wgt>
<wgt id='1199'> +1.1313895e-12 </wgt>
<wgt id='1200'> +1.1407599e-12 </wgt>
<wgt id='1201'> +1.1453251e-12 </wgt>
<wgt id='1202'> +1.1416616e-12 </wgt>
<wgt id='1203'> +1.1460345e-12 </wgt>
<wgt id='1204'> +1.1333413e-12 </wgt>
<wgt id='1205'> +1.1497025e-12 </wgt>
<wgt id='1206'> +1.1490434e-12 </wgt>
<wgt id='1207'> +1.1359614e-12 </wgt>
<wgt id='1208'> +1.1359229e-12 </wgt>
<wgt id='1209'> +1.1462440e-12 </wgt>
<wgt id='1210'> +1.1456491e-12 </wgt>
<wgt id='1211'> +1.1310609e-12 </wgt>
<wgt id='1212'> +1.1415195e-12 </wgt>
<wgt id='1213'> +1.1452611e-12 </wgt>
<wgt id='1214'> +1.1238890e-12 </wgt>
<wgt id='1215'> +1.1758082e-12 </wgt>
<wgt id='1216'> +1.1557986e-12 </wgt>
<wgt id='1217'> +1.1352759e-12 </wgt>
<wgt id='1218'> +1.1526088e-12 </wgt>
<wgt id='1219'> +1.1388043e-12 </wgt>
<wgt id='1220'> +1.1506294e-12 </wgt>
<wgt id='1221'> +1.1408138e-12 </wgt>
<wgt id='1222'> +1.1480692e-12 </wgt>
<wgt id='1223'> +1.1386576e-12 </wgt>
<wgt id='1224'> +1.1378977e-12 </wgt>
<wgt id='1225'> +1.1456460e-12 </wgt>
<wgt id='1226'> +1.1564744e-12 </wgt>
<wgt id='1227'> +1.1350470e-12 </wgt>
<wgt id='1228'> +1.1382732e-12 </wgt>
<wgt id='1229'> +1.1459350e-12 </wgt>
<wgt id='1230'> +1.1323579e-12 </wgt>
<wgt id='1231'> +1.1450165e-12 </wgt>
<wgt id='1232'> +1.1476723e-12 </wgt>
<wgt id='1233'> +1.1437977e-12 </wgt>
<wgt id='1234'> +1.1435044e-12 </wgt>
<wgt id='1235'> +1.1330323e-12 </wgt>
<wgt id='1236'> +1.1369151e-12 </wgt>
<wgt id='1237'> +1.1403794e-12 </wgt>
<wgt id='1238'> +1.1462397e-12 </wgt>
<wgt id='1239'> +1.1487002e-12 </wgt>
<wgt id='1240'> +1.1510491e-12 </wgt>
<wgt id='1241'> +1.1518368e-12 </wgt>
<wgt id='1242'> +1.1445871e-12 </wgt>
<wgt id='1243'> +1.1591222e-12 </wgt>
<wgt id='1244'> +1.1478258e-12 </wgt>
<wgt id='1245'> +1.1548743e-12 </wgt>
<wgt id='1246'> +1.1542243e-12 </wgt>
<wgt id='1247'> +1.1499353e-12 </wgt>
<wgt id='1248'> +1.1523398e-12 </wgt>
<wgt id='1249'> +1.1511913e-12 </wgt>
<wgt id='1250'> +1.1380306e-12 </wgt>
<wgt id='1251'> +1.1616844e-12 </wgt>
<wgt id='1252'> +1.1453776e-12 </wgt>
<wgt id='1253'> +1.1569230e-12 </wgt>
<wgt id='1254'> +1.1447795e-12 </wgt>
<wgt id='1255'> +1.1561070e-12 </wgt>
<wgt id='1256'> +1.1563547e-12 </wgt>
<wgt id='1257'> +1.1407710e-12 </wgt>
<wgt id='1258'> +1.1780471e-12 </wgt>
<wgt id='1259'> +1.1274094e-12 </wgt>
<wgt id='1260'> +1.1589861e-12 </wgt>
<wgt id='1261'> +1.1436863e-12 </wgt>
<wgt id='1262'> +1.1564714e-12 </wgt>
<wgt id='1263'> +1.1497471e-12 </wgt>
<wgt id='1264'> +1.1639906e-12 </wgt>
<wgt id='1265'> +1.1460772e-12 </wgt>
<wgt id='1266'> +1.1429602e-12 </wgt>
<wgt id='1267'> +1.1609329e-12 </wgt>
<wgt id='1268'> +1.1528538e-12 </wgt>
<wgt id='1269'> +1.1549415e-12 </wgt>
<wgt id='1270'> +1.1445208e-12 </wgt>
<wgt id='1271'> +1.1426370e-12 </wgt>
<wgt id='1272'> +1.1531380e-12 </wgt>
<wgt id='1273'> +1.1507233e-12 </wgt>
<wgt id='1274'> +1.1423586e-12 </wgt>
<wgt id='1275'> +1.1656823e-12 </wgt>
<wgt id='1276'> +1.1552362e-12 </wgt>
<wgt id='1277'> +1.1476589e-12 </wgt>
<wgt id='1278'> +1.1556540e-12 </wgt>
<wgt id='1279'> +1.1478983e-12 </wgt>
<wgt id='1280'> +1.1542015e-12 </wgt>
<wgt id='1281'> +1.1480792e-12 </wgt>
<wgt id='1282'> +1.1518368e-12 </wgt>
<wgt id='1283'> +1.1405734e-12 </wgt>
<wgt id='1284'> +1.1450062e-12 </wgt>
<wgt id='1285'> +1.1487170e-12 </wgt>
<wgt id='1286'> +1.1552287e-12 </wgt>
<wgt id='1287'> +1.1578818e-12 </wgt>
<wgt id='1288'> +1.1600699e-12 </wgt>
<wgt id='1289'> +1.2428249e-12 </wgt>
<wgt id='1290'> +1.2439714e-12 </wgt>
<wgt id='1291'> +1.2415246e-12 </wgt>
<wgt id='1292'> +1.2421835e-12 </wgt>
<wgt id='1293'> +1.2432025e-12 </wgt>
<wgt id='1294'> +1.2398428e-12 </wgt>
<wgt id='1295'> +1.2456389e-12 </wgt>
<wgt id='1296'> +1.2374377e-12 </wgt>
<wgt id='1297'> +1.2494474e-12 </wgt>
<wgt id='1298'> +1.2478707e-12 </wgt>
<wgt id='1299'> +1.2365440e-12 </wgt>
<wgt id='1300'> +1.2449377e-12 </wgt>
<wgt id='1301'> +1.2385589e-12 </wgt>
<wgt id='1302'> +1.2399621e-12 </wgt>
<wgt id='1303'> +1.2466337e-12 </wgt>
<wgt id='1304'> +1.2357246e-12 </wgt>
<wgt id='1305'> +1.2476814e-12 </wgt>
<wgt id='1306'> +1.2284154e-12 </wgt>
<wgt id='1307'> +1.2589804e-12 </wgt>
<wgt id='1308'> +1.1996397e-12 </wgt>
<wgt id='1309'> +1.2758042e-12 </wgt>
<wgt id='1310'> +1.2419304e-12 </wgt>
<wgt id='1311'> +1.2438316e-12 </wgt>
<wgt id='1312'> +1.2378219e-12 </wgt>
<wgt id='1313'> +1.2480487e-12 </wgt>
<wgt id='1314'> +1.2435970e-12 </wgt>
<wgt id='1315'> +1.2357269e-12 </wgt>
<wgt id='1316'> +1.2459142e-12 </wgt>
<wgt id='1317'> +1.2463418e-12 </wgt>
<wgt id='1318'> +1.2610559e-12 </wgt>
<wgt id='1319'> +1.2216998e-12 </wgt>
<wgt id='1320'> +1.2623645e-12 </wgt>
<wgt id='1321'> +1.2270996e-12 </wgt>
<wgt id='1322'> +1.2475989e-12 </wgt>
<wgt id='1323'> +1.2363012e-12 </wgt>
<wgt id='1324'> +1.2436258e-12 </wgt>
<wgt id='1325'> +1.2455318e-12 </wgt>
<wgt id='1326'> +1.2538374e-12 </wgt>
<wgt id='1327'> +1.2363090e-12 </wgt>
<wgt id='1328'> +1.2388894e-12 </wgt>
<wgt id='1329'> +1.2464848e-12 </wgt>
<wgt id='1330'> +1.3465400e-12 </wgt>
<wgt id='1331'> +1.1474913e-12 </wgt>
<wgt id='1332'> +1.1992826e-12 </wgt>
<wgt id='1333'> +1.2885062e-12 </wgt>
<wgt id='1334'> +1.2628170e-12 </wgt>
<wgt id='1335'> +1.1938662e-12 </wgt>
<wgt id='1336'> +1.2243075e-12 </wgt>
<wgt id='1337'> +1.2641954e-12 </wgt>
<wgt id='1338'> +1.2343816e-12 </wgt>
<wgt id='1339'> +1.2470004e-12 </wgt>
<wgt id='1340'> +1.2068868e-12 </wgt>
<wgt id='1341'> +1.2080186e-12 </wgt>
<wgt id='1342'> +1.2057071e-12 </wgt>
<wgt id='1343'> +1.2063092e-12 </wgt>
<wgt id='1344'> +1.2073297e-12 </wgt>
<wgt id='1345'> +1.2037098e-12 </wgt>
<wgt id='1346'> +1.2098797e-12 </wgt>
<wgt id='1347'> +1.2020275e-12 </wgt>
<wgt id='1348'> +1.2123665e-12 </wgt>
<wgt id='1349'> +1.2122422e-12 </wgt>
<wgt id='1350'> +1.2017049e-12 </wgt>
<wgt id='1351'> +1.2087306e-12 </wgt>
<wgt id='1352'> +1.2030674e-12 </wgt>
<wgt id='1353'> +1.2025890e-12 </wgt>
<wgt id='1354'> +1.2145848e-12 </wgt>
<wgt id='1355'> +1.1997878e-12 </wgt>
<wgt id='1356'> +1.2109570e-12 </wgt>
<wgt id='1357'> +1.1794624e-12 </wgt>
<wgt id='1358'> +1.2390973e-12 </wgt>
<wgt id='1359'> +1.1664196e-12 </wgt>
<wgt id='1360'> +1.2419718e-12 </wgt>
<wgt id='1361'> +1.2058823e-12 </wgt>
<wgt id='1362'> +1.2084955e-12 </wgt>
<wgt id='1363'> +1.2014292e-12 </wgt>
<wgt id='1364'> +1.2111468e-12 </wgt>
<wgt id='1365'> +1.1987024e-12 </wgt>
<wgt id='1366'> +1.2080863e-12 </wgt>
<wgt id='1367'> +1.2102646e-12 </wgt>
<wgt id='1368'> +1.2090150e-12 </wgt>
<wgt id='1369'> +1.2204085e-12 </wgt>
<wgt id='1370'> +1.1910480e-12 </wgt>
<wgt id='1371'> +1.2240727e-12 </wgt>
<wgt id='1372'> +1.1872422e-12 </wgt>
<wgt id='1373'> +1.2102085e-12 </wgt>
<wgt id='1374'> +1.2033397e-12 </wgt>
<wgt id='1375'> +1.2069864e-12 </wgt>
<wgt id='1376'> +1.2110807e-12 </wgt>
<wgt id='1377'> +1.2157585e-12 </wgt>
<wgt id='1378'> +1.2028049e-12 </wgt>
<wgt id='1379'> +1.2046638e-12 </wgt>
<wgt id='1380'> +1.2093699e-12 </wgt>
<wgt id='1381'> +1.3145963e-12 </wgt>
<wgt id='1382'> +1.1149966e-12 </wgt>
<wgt id='1383'> +1.1534476e-12 </wgt>
<wgt id='1384'> +1.2643451e-12 </wgt>
<wgt id='1385'> +1.2283473e-12 </wgt>
<wgt id='1386'> +1.1568715e-12 </wgt>
<wgt id='1387'> +1.1841034e-12 </wgt>
<wgt id='1388'> +1.2317621e-12 </wgt>
<wgt id='1389'> +1.1950993e-12 </wgt>
<wgt id='1390'> +1.2125335e-12 </wgt>
<wgt id='1391'> +1.2028119e-12 </wgt>
<wgt id='1392'> +1.1510612e-12 </wgt>
<wgt id='1393'> +1.1689956e-12 </wgt>
<wgt id='1394'> +1.1843058e-12 </wgt>
<wgt id='1395'> +1.2179219e-12 </wgt>
<wgt id='1396'> +1.2015396e-12 </wgt>
<wgt id='1397'> +1.1615403e-12 </wgt>
<wgt id='1398'> +1.1672212e-12 </wgt>
<wgt id='1399'> +1.1742407e-12 </wgt>
<wgt id='1400'> +1.1829625e-12 </wgt>
<wgt id='1401'> +1.1913195e-12 </wgt>
<wgt id='1402'> +1.2122162e-12 </wgt>
<wgt id='1403'> +1.2235510e-12 </wgt>
<wgt id='1404'> +1.2363523e-12 </wgt>
<wgt id='1405'> +1.2015396e-12 </wgt>
<wgt id='1406'> +1.1883768e-12 </wgt>
<wgt id='1407'> +1.1949201e-12 </wgt>
<wgt id='1408'> +1.2070373e-12 </wgt>
<wgt id='1409'> +1.2121976e-12 </wgt>
<wgt id='1410'> +1.2021288e-12 </wgt>
<wgt id='1411'> +1.2029085e-12 </wgt>
<wgt id='1412'> +1.2010670e-12 </wgt>
<wgt id='1413'> +1.2047888e-12 </wgt>
<wgt id='1414'> +1.1994033e-12 </wgt>
<wgt id='1415'> +1.2014826e-12 </wgt>
<wgt id='1416'> +1.2023484e-12 </wgt>
<wgt id='1417'> +1.1924389e-12 </wgt>
<wgt id='1418'> +1.2118297e-12 </wgt>
<wgt id='1419'> +1.2044577e-12 </wgt>
<wgt id='1420'> +1.1997857e-12 </wgt>
<wgt id='1421'> +1.1911483e-12 </wgt>
<wgt id='1422'> +1.2069259e-12 </wgt>
<wgt id='1423'> +1.2026990e-12 </wgt>
<wgt id='1424'> +1.2013529e-12 </wgt>
<wgt id='1425'> +1.1930649e-12 </wgt>
<wgt id='1426'> +1.2118639e-12 </wgt>
<wgt id='1427'> +1.1543525e-12 </wgt>
<wgt id='1428'> +1.2286726e-12 </wgt>
<wgt id='1429'> +1.2231307e-12 </wgt>
<wgt id='1430'> +1.1740648e-12 </wgt>
<wgt id='1431'> +1.1730189e-12 </wgt>
<wgt id='1432'> +1.2223829e-12 </wgt>
<wgt id='1433'> +1.2092325e-12 </wgt>
<wgt id='1434'> +1.1937802e-12 </wgt>
<wgt id='1435'> +1.2048330e-12 </wgt>
<wgt id='1436'> +1.1956370e-12 </wgt>
<wgt id='1437'> +1.2076553e-12 </wgt>
<wgt id='1438'> +1.2027921e-12 </wgt>
<wgt id='1439'> +1.1925403e-12 </wgt>
<wgt id='1440'> +1.2252969e-12 </wgt>
<wgt id='1441'> +1.2078511e-12 </wgt>
<wgt id='1442'> +1.1909445e-12 </wgt>
<wgt id='1443'> +1.1979063e-12 </wgt>
<wgt id='1444'> +1.2118566e-12 </wgt>
<wgt id='1445'> +1.2044974e-12 </wgt>
<wgt id='1446'> +1.2025443e-12 </wgt>
<wgt id='1447'> +1.2037966e-12 </wgt>
<wgt id='1448'> +1.2024245e-12 </wgt>
<wgt id='1449'> +1.1995243e-12 </wgt>
<wgt id='1450'> +1.2038446e-12 </wgt>
<wgt id='1451'> +1.1371576e-12 </wgt>
<wgt id='1452'> +1.3227573e-12 </wgt>
<wgt id='1453'> +1.1954242e-12 </wgt>
<wgt id='1454'> +1.2421370e-12 </wgt>
<wgt id='1455'> +1.2552284e-12 </wgt>
<wgt id='1456'> +1.1582723e-12 </wgt>
<wgt id='1457'> +1.1629367e-12 </wgt>
<wgt id='1458'> +1.2188425e-12 </wgt>
<wgt id='1459'> +1.1835253e-12 </wgt>
<wgt id='1460'> +1.2157165e-12 </wgt>
<wgt id='1461'> +1.2021288e-12 </wgt>
<wgt id='1462'> +1.1811825e-12 </wgt>
<wgt id='1463'> +1.2057073e-12 </wgt>
<wgt id='1464'> +1.1936299e-12 </wgt>
<wgt id='1465'> +1.1390482e-12 </wgt>
<wgt id='1466'> +1.1471583e-12 </wgt>
<wgt id='1467'> +1.1575422e-12 </wgt>
<wgt id='1468'> +1.1704641e-12 </wgt>
<wgt id='1469'> +1.1814678e-12 </wgt>
<wgt id='1470'> +1.2067446e-12 </wgt>
<wgt id='1471'> +1.2251497e-12 </wgt>
<wgt id='1472'> +1.2391023e-12 </wgt>
<wgt id='1473'> +1.1936299e-12 </wgt>
<wgt id='1474'> +1.1816313e-12 </wgt>
<wgt id='1475'> +1.1890136e-12 </wgt>
<wgt id='1476'> +1.1991343e-12 </wgt>
<wgt id='1477'> +1.2031956e-12 </wgt>
<wgt id='1478'> +1.1397796e-12 </wgt>
<wgt id='1479'> +1.1384828e-12 </wgt>
<wgt id='1480'> +1.0800109e-12 </wgt>
<wgt id='1481'> +1.1267147e-12 </wgt>
<wgt id='1482'> +1.1418112e-12 </wgt>
<wgt id='1483'> +1.1906495e-12 </wgt>
<wgt id='1484'> +1.1314780e-12 </wgt>
<wgt id='1485'> +1.1414541e-12 </wgt>
<wgt id='1486'> +1.1377724e-12 </wgt>
<wgt id='1487'> +1.1493526e-12 </wgt>
<wgt id='1488'> +1.1404267e-12 </wgt>
<wgt id='1489'> +1.1422483e-12 </wgt>
<wgt id='1490'> +1.1335551e-12 </wgt>
<wgt id='1491'> +1.1574093e-12 </wgt>
<wgt id='1492'> +1.1396772e-12 </wgt>
<wgt id='1493'> +1.1280847e-12 </wgt>
<wgt id='1494'> +1.0766435e-12 </wgt>
<wgt id='1495'> +1.1291097e-12 </wgt>
<wgt id='1496'> +1.1489238e-12 </wgt>
<wgt id='1497'> +1.1453404e-12 </wgt>
<wgt id='1498'> +1.1491587e-12 </wgt>
<wgt id='1499'> +1.1401810e-12 </wgt>
<wgt id='1500'> +1.1372032e-12 </wgt>
<wgt id='1501'> +1.1476344e-12 </wgt>
<wgt id='1502'> +1.1454051e-12 </wgt>
<wgt id='1503'> +1.1341271e-12 </wgt>
<wgt id='1504'> +1.1424483e-12 </wgt>
<wgt id='1505'> +1.1505433e-12 </wgt>
<wgt id='1506'> +1.1389367e-12 </wgt>
<wgt id='1507'> +1.1386809e-12 </wgt>
<wgt id='1508'> +1.1354532e-12 </wgt>
<wgt id='1509'> +1.2512535e-12 </wgt>
<wgt id='1510'> +1.2517594e-12 </wgt>
<wgt id='1511'> +1.2543735e-12 </wgt>
<wgt id='1512'> +1.2519892e-12 </wgt>
<wgt id='1513'> +1.2254970e-12 </wgt>
<wgt id='1514'> +1.2550146e-12 </wgt>
<wgt id='1515'> +1.2701383e-12 </wgt>
<wgt id='1516'> +1.2607724e-12 </wgt>
<wgt id='1517'> +1.2738994e-12 </wgt>
<wgt id='1518'> +1.2254980e-12 </wgt>
<wgt id='1519'> +1.2705797e-12 </wgt>
<wgt id='1520'> +1.2710320e-12 </wgt>
<wgt id='1521'> +1.2349895e-12 </wgt>
<wgt id='1522'> +1.2519705e-12 </wgt>
<wgt id='1523'> +1.2167689e-12 </wgt>
<wgt id='1524'> +1.2321474e-12 </wgt>
<wgt id='1525'> +1.2283934e-12 </wgt>
<wgt id='1526'> +1.2622796e-12 </wgt>
<wgt id='1527'> +1.2547018e-12 </wgt>
<wgt id='1528'> +1.2581535e-12 </wgt>
<wgt id='1529'> +1.2473397e-12 </wgt>
<wgt id='1530'> +1.2458998e-12 </wgt>
<wgt id='1531'> +1.2431517e-12 </wgt>
<wgt id='1532'> +1.2670679e-12 </wgt>
<wgt id='1533'> +1.2546736e-12 </wgt>
<wgt id='1534'> +1.2524355e-12 </wgt>
<wgt id='1535'> +1.2479587e-12 </wgt>
<wgt id='1536'> +1.2475543e-12 </wgt>
<wgt id='1537'> +1.2510020e-12 </wgt>
<wgt id='1538'> +1.2457235e-12 </wgt>
<wgt id='1539'> +1.2602507e-12 </wgt>
<wgt id='1540'> +1.2515374e-12 </wgt>
<wgt id='1541'> +1.2437555e-12 </wgt>
<wgt id='1542'> +1.2553289e-12 </wgt>
<wgt id='1543'> +1.2539479e-12 </wgt>
<wgt id='1544'> +1.2494097e-12 </wgt>
<wgt id='1545'> +1.2496597e-12 </wgt>
<wgt id='1546'> +1.2463487e-12 </wgt>
<wgt id='1547'> +1.2529017e-12 </wgt>
<wgt id='1548'> +1.2467819e-12 </wgt>
<wgt id='1549'> +1.2516154e-12 </wgt>
<wgt id='1550'> +1.2504100e-12 </wgt>
<wgt id='1551'> +1.2453530e-12 </wgt>
<wgt id='1552'> +1.2480654e-12 </wgt>
<wgt id='1553'> +1.2533783e-12 </wgt>
<wgt id='1554'> +1.2480129e-12 </wgt>
<wgt id='1555'> +1.2508567e-12 </wgt>
<wgt id='1556'> +1.2480367e-12 </wgt>
<wgt id='1557'> +1.2542654e-12 </wgt>
<wgt id='1558'> +1.2500014e-12 </wgt>
<wgt id='1559'> +1.2521862e-12 </wgt>
<wgt id='1560'> +1.2515699e-12 </wgt>
<wgt id='1561'> +1.2507024e-12 </wgt>
<wgt id='1562'> +1.2509399e-12 </wgt>
<wgt id='1563'> +1.2511661e-12 </wgt>
<wgt id='1564'> +1.2509277e-12 </wgt>
<wgt id='1565'> +1.2503979e-12 </wgt>
<wgt id='1566'> +1.2510277e-12 </wgt>
<wgt id='1567'> +1.2516952e-12 </wgt>
<wgt id='1568'> +1.2510844e-12 </wgt>
<wgt id='1569'> +1.2520827e-12 </wgt>
<wgt id='1570'> +1.2501437e-12 </wgt>
<wgt id='1571'> +1.2514639e-12 </wgt>
<wgt id='1572'> +1.2519778e-12 </wgt>
<wgt id='1573'> +1.2513257e-12 </wgt>
<wgt id='1574'> +1.2508101e-12 </wgt>
<wgt id='1575'> +1.2520515e-12 </wgt>
<wgt id='1576'> +1.2522846e-12 </wgt>
<wgt id='1577'> +1.2514865e-12 </wgt>
<wgt id='1578'> +1.2504474e-12 </wgt>
<wgt id='1579'> +1.2506466e-12 </wgt>
<wgt id='1580'> +1.2503443e-12 </wgt>
<wgt id='1581'> +1.2518630e-12 </wgt>
<wgt id='1582'> +1.2509491e-12 </wgt>
<wgt id='1583'> +1.2514770e-12 </wgt>
<wgt id='1584'> +1.2508547e-12 </wgt>
<wgt id='1585'> +1.2530425e-12 </wgt>
<wgt id='1586'> +1.2521248e-12 </wgt>
<wgt id='1587'> +1.2508980e-12 </wgt>
<wgt id='1588'> +1.2498645e-12 </wgt>
<wgt id='1589'> +1.2511289e-12 </wgt>
<wgt id='1590'> +1.2514065e-12 </wgt>
<wgt id='1591'> +1.2515541e-12 </wgt>
<wgt id='1592'> +1.2515465e-12 </wgt>
<wgt id='1593'> +1.2506939e-12 </wgt>
<wgt id='1594'> +1.2522880e-12 </wgt>
<wgt id='1595'> +1.2527385e-12 </wgt>
<wgt id='1596'> +1.2524983e-12 </wgt>
<wgt id='1597'> +1.2523206e-12 </wgt>
<wgt id='1598'> +1.2520436e-12 </wgt>
<wgt id='1599'> +1.2516878e-12 </wgt>
<wgt id='1600'> +1.2519522e-12 </wgt>
<wgt id='1601'> +1.2498901e-12 </wgt>
<wgt id='1602'> +1.2506879e-12 </wgt>
<wgt id='1603'> +1.2524988e-12 </wgt>
<wgt id='1604'> +1.2513684e-12 </wgt>
<wgt id='1605'> +1.2514377e-12 </wgt>
<wgt id='1606'> +1.2512176e-12 </wgt>
<wgt id='1607'> +1.2501964e-12 </wgt>
<wgt id='1608'> +1.2510760e-12 </wgt>
<wgt id='1609'> +1.2513770e-12 </wgt>
<wgt id='1610'> +1.2292979e-12 </wgt>
<wgt id='1611'> +1.2598845e-12 </wgt>
<wgt id='1612'> +1.4554455e-12 </wgt>
<wgt id='1613'> +1.3259335e-12 </wgt>
<wgt id='1614'> +1.4466882e-12 </wgt>
<wgt id='1615'> +1.4852968e-12 </wgt>
<wgt id='1616'> +1.3101791e-12 </wgt>
<wgt id='1617'> +1.3602477e-12 </wgt>
<wgt id='1618'> +1.3089494e-12 </wgt>
<wgt id='1619'> +1.3389270e-12 </wgt>
<wgt id='1620'> +1.4386860e-12 </wgt>
<wgt id='1621'> +1.4350349e-12 </wgt>
<wgt id='1622'> +1.4636728e-12 </wgt>
<wgt id='1623'> +1.4886430e-12 </wgt>
<wgt id='1624'> +1.4819946e-12 </wgt>
<wgt id='1625'> +1.4339611e-12 </wgt>
<wgt id='1626'> +1.5205910e-12 </wgt>
<wgt id='1627'> +1.5555673e-12 </wgt>
<wgt id='1628'> +1.3367307e-12 </wgt>
<wgt id='1629'> +1.2416141e-12 </wgt>
<wgt id='1630'> +1.4734466e-12 </wgt>
<wgt id='1631'> +1.4580032e-12 </wgt>
<wgt id='1632'> +1.5679027e-12 </wgt>
<wgt id='1633'> +1.5073337e-12 </wgt>
<wgt id='1634'> +1.4688475e-12 </wgt>
<wgt id='1635'> +1.3905003e-12 </wgt>
<wgt id='1636'> +1.2679800e-12 </wgt>
<wgt id='1637'> +1.5513249e-12 </wgt>
<wgt id='1638'> +1.4922059e-12 </wgt>
<wgt id='1639'> +1.3957501e-12 </wgt>
<wgt id='1640'> +1.5322894e-12 </wgt>
<wgt id='1641'> +1.4791469e-12 </wgt>
<wgt id='1642'> +1.5270750e-12 </wgt>
<wgt id='1643'> +1.3440694e-12 </wgt>
<wgt id='1644'> +1.6765036e-12 </wgt>
<wgt id='1645'> +1.4924231e-12 </wgt>
<wgt id='1646'> +1.5488098e-12 </wgt>
<wgt id='1647'> +1.5589318e-12 </wgt>
<wgt id='1648'> +1.4076004e-12 </wgt>
<wgt id='1649'> +1.3044491e-12 </wgt>
<wgt id='1650'> +1.4610989e-12 </wgt>
<wgt id='1651'> +1.4433031e-12 </wgt>
<wgt id='1652'> +1.5098511e-12 </wgt>
<wgt id='1653'> +1.4007997e-12 </wgt>
<wgt id='1654'> +1.4356174e-12 </wgt>
<wgt id='1655'> +1.4865627e-12 </wgt>
<wgt id='1656'> +1.6519154e-12 </wgt>
<wgt id='1657'> +1.4251323e-12 </wgt>
<wgt id='1658'> +1.5394338e-12 </wgt>
<wgt id='1659'> +1.4819946e-12 </wgt>
<wgt id='1660'> +1.3752313e-12 </wgt>
<wgt id='1661'> +1.6404006e-12 </wgt>
<wgt id='1662'> +1.4763002e-12 </wgt>
<wgt id='1663'> +1.4948171e-12 </wgt>
<wgt id='1664'> +1.4864652e-12 </wgt>
<wgt id='1665'> +1.6445506e-12 </wgt>
<wgt id='1666'> +1.4844246e-12 </wgt>
<wgt id='1667'> +1.4660469e-12 </wgt>
<wgt id='1668'> +1.3578134e-12 </wgt>
<wgt id='1669'> +1.6486153e-12 </wgt>
<wgt id='1670'> +1.4686470e-12 </wgt>
<wgt id='1671'> +1.6124000e-12 </wgt>
<wgt id='1672'> +1.5572007e-12 </wgt>
<wgt id='1673'> +1.4783024e-12 </wgt>
<wgt id='1674'> +1.3765948e-12 </wgt>
<wgt id='1675'> +1.4197997e-12 </wgt>
<wgt id='1676'> +1.3992743e-12 </wgt>
<wgt id='1677'> +1.3618616e-12 </wgt>
<wgt id='1678'> +1.4688671e-12 </wgt>
<wgt id='1679'> +1.3674886e-12 </wgt>
<wgt id='1680'> +1.4039268e-12 </wgt>
<wgt id='1681'> +1.4325717e-12 </wgt>
<wgt id='1682'> +1.4656021e-12 </wgt>
<wgt id='1683'> +1.4561784e-12 </wgt>
<wgt id='1684'> +1.5788772e-12 </wgt>
<wgt id='1685'> +1.5033964e-12 </wgt>
<wgt id='1686'> +1.4761018e-12 </wgt>
<wgt id='1687'> +1.3519154e-12 </wgt>
<wgt id='1688'> +1.4558851e-12 </wgt>
<wgt id='1689'> +1.4962058e-12 </wgt>
<wgt id='1690'> +1.4690446e-12 </wgt>
<wgt id='1691'> +1.3197005e-12 </wgt>
<wgt id='1692'> +1.4048902e-12 </wgt>
<wgt id='1693'> +1.4165570e-12 </wgt>
<wgt id='1694'> +1.6024085e-12 </wgt>
<wgt id='1695'> +1.4974806e-12 </wgt>
<wgt id='1696'> +1.4285904e-12 </wgt>
<wgt id='1697'> +1.2981605e-12 </wgt>
<wgt id='1698'> +1.4889743e-12 </wgt>
<wgt id='1699'> +1.3341238e-12 </wgt>
<wgt id='1700'> +1.5122498e-12 </wgt>
<wgt id='1701'> +1.3665323e-12 </wgt>
<wgt id='1702'> +1.3964758e-12 </wgt>
<wgt id='1703'> +1.3674044e-12 </wgt>
<wgt id='1704'> +1.5620538e-12 </wgt>
<wgt id='1705'> +1.5357584e-12 </wgt>
<wgt id='1706'> +1.4143477e-12 </wgt>
<wgt id='1707'> +1.3836719e-12 </wgt>
<wgt id='1708'> +1.4590097e-12 </wgt>
<wgt id='1709'> +1.4911089e-12 </wgt>
<wgt id='1710'> +1.4324036e-12 </wgt>
<wgt id='1711'> +1.4615603e-12 </wgt>
<wgt id='1712'> +1.4536267e-12 </wgt>
<wgt id='1713'> +1.1090451e-12 </wgt>
<wgt id='1714'> +1.0604250e-12 </wgt>
<wgt id='1715'> +9.9296142e-13 </wgt>
<wgt id='1716'> +8.8716463e-13 </wgt>
<wgt id='1717'> +1.0332514e-12 </wgt>
<wgt id='1718'> +1.0748547e-12 </wgt>
<wgt id='1719'> +1.1464745e-12 </wgt>
<wgt id='1720'> +1.0980842e-12 </wgt>
<wgt id='1721'> +1.0836812e-12 </wgt>
<wgt id='1722'> +1.1095481e-12 </wgt>
<wgt id='1723'> +1.4083279e-12 </wgt>
<wgt id='1724'> +1.4255289e-12 </wgt>
<wgt id='1725'> +1.0616701e-12 </wgt>
<wgt id='1726'> +9.7580337e-13 </wgt>
<wgt id='1727'> +1.2020503e-12 </wgt>
<wgt id='1728'> +1.1555677e-12 </wgt>
<wgt id='1729'> +1.1282024e-12 </wgt>
<wgt id='1730'> +1.1810842e-12 </wgt>
<wgt id='1731'> +1.1091462e-12 </wgt>
<wgt id='1732'> +1.0767639e-12 </wgt>
<wgt id='1733'> +9.7202127e-13 </wgt>
<wgt id='1734'> +1.0220191e-12 </wgt>
<wgt id='1735'> +1.2075453e-12 </wgt>
<wgt id='1736'> +1.1538417e-12 </wgt>
<wgt id='1737'> +1.0051693e-12 </wgt>
<wgt id='1738'> +1.0400327e-12 </wgt>
<wgt id='1739'> +1.1499566e-12 </wgt>
<wgt id='1740'> +1.0013326e-12 </wgt>
<wgt id='1741'> +1.1515943e-12 </wgt>
<wgt id='1742'> +9.7550452e-13 </wgt>
<wgt id='1743'> +1.0039633e-12 </wgt>
<wgt id='1744'> +9.4237328e-13 </wgt>
<wgt id='1745'> +1.4473180e-12 </wgt>
<wgt id='1746'> +1.1213603e-12 </wgt>
<wgt id='1747'> +1.1505169e-12 </wgt>
<wgt id='1748'> +9.7666782e-13 </wgt>
<wgt id='1749'> +9.9459437e-13 </wgt>
<wgt id='1750'> +1.0743574e-12 </wgt>
<wgt id='1751'> +1.3106984e-12 </wgt>
<wgt id='1752'> +1.0511776e-12 </wgt>
<wgt id='1753'> +1.0656586e-12 </wgt>
<wgt id='1754'> +1.0724925e-12 </wgt>
<wgt id='1755'> +1.0786488e-12 </wgt>
<wgt id='1756'> +1.1193491e-12 </wgt>
<wgt id='1757'> +1.1486906e-12 </wgt>
<wgt id='1758'> +1.1568567e-12 </wgt>
<wgt id='1759'> +1.0322888e-12 </wgt>
<wgt id='1760'> +1.1773213e-12 </wgt>
<wgt id='1761'> +1.1003405e-12 </wgt>
<wgt id='1762'> +9.9499518e-13 </wgt>
<wgt id='1763'> +9.8733843e-13 </wgt>
<wgt id='1764'> +1.1251970e-12 </wgt>
<wgt id='1765'> +1.0805335e-12 </wgt>
<wgt id='1766'> +1.3538697e-12 </wgt>
<wgt id='1767'> +1.1219115e-12 </wgt>
<wgt id='1768'> +1.1113922e-12 </wgt>
<wgt id='1769'> +1.0951323e-12 </wgt>
<wgt id='1770'> +8.8913941e-13 </wgt>
<wgt id='1771'> +1.0532735e-12 </wgt>
<wgt id='1772'> +1.0147451e-12 </wgt>
<wgt id='1773'> +1.0921812e-12 </wgt>
<wgt id='1774'> +1.0368249e-12 </wgt>
<wgt id='1775'> +1.0447550e-12 </wgt>
<wgt id='1776'> +1.1119427e-12 </wgt>
<wgt id='1777'> +1.2473304e-12 </wgt>
<wgt id='1778'> +1.0580636e-12 </wgt>
<wgt id='1779'> +1.0699667e-12 </wgt>
<wgt id='1780'> +1.4229826e-12 </wgt>
<wgt id='1781'> +1.0519767e-12 </wgt>
<wgt id='1782'> +1.1862855e-12 </wgt>
<wgt id='1783'> +1.0907643e-12 </wgt>
<wgt id='1784'> +1.1839991e-12 </wgt>
<wgt id='1785'> +1.3742819e-12 </wgt>
<wgt id='1786'> +1.5434468e-12 </wgt>
<wgt id='1787'> +1.1168459e-12 </wgt>
<wgt id='1788'> +1.0316283e-12 </wgt>
<wgt id='1789'> +1.4168027e-12 </wgt>
<wgt id='1790'> +1.2364350e-12 </wgt>
<wgt id='1791'> +1.1186551e-12 </wgt>
<wgt id='1792'> +1.2030661e-12 </wgt>
<wgt id='1793'> +1.0561421e-12 </wgt>
<wgt id='1794'> +1.1179270e-12 </wgt>
<wgt id='1795'> +1.0271021e-12 </wgt>
<wgt id='1796'> +1.1021729e-12 </wgt>
<wgt id='1797'> +1.0214518e-12 </wgt>
<wgt id='1798'> +1.0655561e-12 </wgt>
<wgt id='1799'> +1.1701828e-12 </wgt>
<wgt id='1800'> +1.1469400e-12 </wgt>
<wgt id='1801'> +1.0312938e-12 </wgt>
<wgt id='1802'> +1.1602171e-12 </wgt>
<wgt id='1803'> +1.0702304e-12 </wgt>
<wgt id='1804'> +1.0156594e-12 </wgt>
<wgt id='1805'> +1.1116997e-12 </wgt>
<wgt id='1806'> +1.0643824e-12 </wgt>
<wgt id='1807'> +1.1776589e-12 </wgt>
<wgt id='1808'> +1.0161174e-12 </wgt>
<wgt id='1809'> +1.1941287e-12 </wgt>
<wgt id='1810'> +1.0625409e-12 </wgt>
<wgt id='1811'> +1.0337360e-12 </wgt>
<wgt id='1812'> +9.9031758e-13 </wgt>
<wgt id='1813'> +8.9347644e-13 </wgt>
<wgt id='1814'> +1.1365087e-12 </wgt>
<wgt id='1815'> +1.3877485e-12 </wgt>
<wgt id='1816'> +1.1090451e-12 </wgt>
<wgt id='1817'> +1.0604250e-12 </wgt>
<wgt id='1818'> +9.9296142e-13 </wgt>
<wgt id='1819'> +8.8716463e-13 </wgt>
<wgt id='1820'> +1.0332514e-12 </wgt>
<wgt id='1821'> +1.0748547e-12 </wgt>
<wgt id='1822'> +1.1464745e-12 </wgt>
<wgt id='1823'> +1.0980842e-12 </wgt>
<wgt id='1824'> +1.0836812e-12 </wgt>
<wgt id='1825'> +1.1095481e-12 </wgt>
<wgt id='1826'> +1.4083279e-12 </wgt>
<wgt id='1827'> +1.4255289e-12 </wgt>
<wgt id='1828'> +1.0616701e-12 </wgt>
<wgt id='1829'> +9.7580337e-13 </wgt>
<wgt id='1830'> +1.2020503e-12 </wgt>
<wgt id='1831'> +1.1555677e-12 </wgt>
<wgt id='1832'> +1.1282024e-12 </wgt>
<wgt id='1833'> +1.1810842e-12 </wgt>
<wgt id='1834'> +1.1091462e-12 </wgt>
<wgt id='1835'> +1.0767639e-12 </wgt>
<wgt id='1836'> +9.7202127e-13 </wgt>
<wgt id='1837'> +1.0220191e-12 </wgt>
<wgt id='1838'> +1.2075453e-12 </wgt>
<wgt id='1839'> +1.1538417e-12 </wgt>
<wgt id='1840'> +1.0051693e-12 </wgt>
<wgt id='1841'> +1.0400327e-12 </wgt>
<wgt id='1842'> +1.1499566e-12 </wgt>
<wgt id='1843'> +1.0013326e-12 </wgt>
<wgt id='1844'> +1.1515943e-12 </wgt>
<wgt id='1845'> +9.7550452e-13 </wgt>
<wgt id='1846'> +1.0039633e-12 </wgt>
<wgt id='1847'> +9.4237328e-13 </wgt>
<wgt id='1848'> +1.4473180e-12 </wgt>
<wgt id='1849'> +1.1213603e-12 </wgt>
<wgt id='1850'> +1.1505169e-12 </wgt>
<wgt id='1851'> +9.7666782e-13 </wgt>
<wgt id='1852'> +9.9459437e-13 </wgt>
<wgt id='1853'> +1.0743574e-12 </wgt>
<wgt id='1854'> +1.3106984e-12 </wgt>
<wgt id='1855'> +1.0511776e-12 </wgt>
<wgt id='1856'> +1.0656586e-12 </wgt>
<wgt id='1857'> +1.0724925e-12 </wgt>
<wgt id='1858'> +1.0786488e-12 </wgt>
<wgt id='1859'> +1.1193491e-12 </wgt>
<wgt id='1860'> +1.1486906e-12 </wgt>
<wgt id='1861'> +1.1568567e-12 </wgt>
<wgt id='1862'> +1.0322888e-12 </wgt>
<wgt id='1863'> +1.1773213e-12 </wgt>
<wgt id='1864'> +1.1003405e-12 </wgt>
<wgt id='1865'> +9.9499518e-13 </wgt>
<wgt id='1866'> +9.8733843e-13 </wgt>
<wgt id='1867'> +1.1251970e-12 </wgt>
<wgt id='1868'> +1.0805335e-12 </wgt>
<wgt id='1869'> +1.3538697e-12 </wgt>
<wgt id='1870'> +1.1219115e-12 </wgt>
<wgt id='1871'> +1.1113922e-12 </wgt>
<wgt id='1872'> +1.0951323e-12 </wgt>
<wgt id='1873'> +8.8913941e-13 </wgt>
<wgt id='1874'> +1.0532735e-12 </wgt>
<wgt id='1875'> +1.0147451e-12 </wgt>
<wgt id='1876'> +1.0921812e-12 </wgt>
<wgt id='1877'> +1.0368249e-12 </wgt>
<wgt id='1878'> +1.0447550e-12 </wgt>
<wgt id='1879'> +1.1119427e-12 </wgt>
<wgt id='1880'> +1.2473304e-12 </wgt>
<wgt id='1881'> +1.0580636e-12 </wgt>
<wgt id='1882'> +1.0699667e-12 </wgt>
<wgt id='1883'> +1.4229826e-12 </wgt>
<wgt id='1884'> +1.0519767e-12 </wgt>
<wgt id='1885'> +1.1862855e-12 </wgt>
<wgt id='1886'> +1.0907643e-12 </wgt>
<wgt id='1887'> +1.1839991e-12 </wgt>
<wgt id='1888'> +1.3742819e-12 </wgt>
<wgt id='1889'> +1.5434468e-12 </wgt>
<wgt id='1890'> +1.1168459e-12 </wgt>
<wgt id='1891'> +1.0316283e-12 </wgt>
<wgt id='1892'> +1.4168027e-12 </wgt>
<wgt id='1893'> +1.2364350e-12 </wgt>
<wgt id='1894'> +1.1186551e-12 </wgt>
<wgt id='1895'> +1.2030661e-12 </wgt>
<wgt id='1896'> +1.0561421e-12 </wgt>
<wgt id='1897'> +1.1179270e-12 </wgt>
<wgt id='1898'> +1.0271021e-12 </wgt>
<wgt id='1899'> +1.1021729e-12 </wgt>
<wgt id='1900'> +1.0214518e-12 </wgt>
<wgt id='1901'> +1.0655561e-12 </wgt>
<wgt id='1902'> +1.1701828e-12 </wgt>
<wgt id='1903'> +1.1469400e-12 </wgt>
<wgt id='1904'> +1.0312938e-12 </wgt>
<wgt id='1905'> +1.1602171e-12 </wgt>
<wgt id='1906'> +1.0702304e-12 </wgt>
<wgt id='1907'> +1.0156594e-12 </wgt>
<wgt id='1908'> +1.1116997e-12 </wgt>
<wgt id='1909'> +1.0643824e-12 </wgt>
<wgt id='1910'> +1.1776589e-12 </wgt>
<wgt id='1911'> +1.0161174e-12 </wgt>
<wgt id='1912'> +1.1941287e-12 </wgt>
<wgt id='1913'> +1.0625409e-12 </wgt>
<wgt id='1914'> +1.0337360e-12 </wgt>
<wgt id='1915'> +9.9031758e-13 </wgt>
<wgt id='1916'> +8.9347644e-13 </wgt>
<wgt id='1917'> +1.0713562e-12 </wgt>
<wgt id='1918'> +1.1024124e-12 </wgt>
<wgt id='1919'> +1.1353970e-12 </wgt>
</rwgt>
</event>
<event>
 9      1 +1.5607000e-12 2.60623400e+01 7.81860800e-03 1.49321400e-01
       21 -1    0    0  501  502 +0.0000000000e+00 +0.0000000000e+00 +1.4238290396e+01 1.4238290396e+01 0.0000000000e+00 0.0000e+00 -1.0000e+00
        2 -1    0    0  502    0 -0.0000000000e+00 -0.0000000000e+00 -6.5153201152e+01 6.5153201152e+01 0.0000000000e+00 0.0000e+00 -1.0000e+00
     1023  2    1    2    0    0 +1.9692063492e+01 +8.1525207293e+00 -5.1878191481e+01 5.8056804568e+01 1.5000161548e+01 0.0000e+00 0.0000e+00
  1000023  2    3    3    0    0 +1.7106207526e+01 +9.3405249293e+00 -4.1942225147e+01 4.6575453077e+01 5.5004397286e+00 0.0000e+00 0.0000e+00
        2  1    1    2  501    0 -1.9692063492e+01 -8.1525207293e+00 +9.6328072483e-01 2.1334686981e+01 0.0000000000e+00 0.0000e+00 -1.0000e+00
  1000022  1    4    4    0    0 +1.5090323499e+01 +8.5917589505e+00 -3.7796555100e+01 4.1894101764e+01 5.0000000000e+00 0.0000e+00 -1.0000e+00
      -11  1    4    4    0    0 +9.7608826779e-01 +5.0388475491e-01 -2.2994366415e+00 2.5483440274e+00 5.1100000000e-04 0.0000e+00 -1.0000e+00
       11  1    4    4    0    0 +1.0397957585e+00 +2.4488122390e-01 -1.8462334059e+00 2.1330072863e+00 5.1100000000e-04 0.0000e+00 1.0000e+00
  1000022  1    3    3    0    0 +2.5858559662e+00 -1.1880042000e+00 -9.9359663340e+00 1.1481351490e+01 5.0000000000e+00 0.0000e+00 -1.0000e+00
<mgrwt>
<rscale>  1 0.26062345E+02</rscale>
<asrwt>0</asrwt>
<pdfrwt beam="1">  1       21 0.21905062E-02 0.26062345E+02</pdfrwt>
<pdfrwt beam="2">  1        2 0.10023569E-01 0.26062345E+02</pdfrwt>
<totfact> 0.60969753E+06</totfact>
</mgrwt>
<rwgt>
<wgt id='1001'> +1.5607000e-12 </wgt>
<wgt id='1002'> +1.6224125e-12 </wgt>
<wgt id='1003'> +1.6283367e-12 </wgt>
<wgt id='1004'> +1.5459270e-12 </wgt>
<wgt id='1005'> +1.6464747e-12 </wgt>
<wgt id='1006'> +1.3601998e-12 </wgt>
<wgt id='1007'> +1.4336635e-12 </wgt>
<wgt id='1008'> +1.4412181e-12 </wgt>
<wgt id='1009'> +1.3434228e-12 </wgt>
<wgt id='1010'> +1.4653494e-12 </wgt>
<wgt id='1011'> +1.8340877e-12 </wgt>
<wgt id='1012'> +1.8709899e-12 </wgt>
<wgt id='1013'> +1.8737882e-12 </wgt>
<wgt id='1014'> +1.8240898e-12 </wgt>
<wgt id='1015'> +1.8808701e-12 </wgt>
<wgt id='1016'> +1.8770925e-12 </wgt>
<wgt id='1017'> +1.8832337e-12 </wgt>
<wgt id='1018'> +1.8827797e-12 </wgt>
<wgt id='1019'> +1.8737882e-12 </wgt>
<wgt id='1020'> +1.8791794e-12 </wgt>
<wgt id='1021'> +1.6359460e-12 </wgt>
<wgt id='1022'> +1.6641412e-12 </wgt>
<wgt id='1023'> +1.6664220e-12 </wgt>
<wgt id='1024'> +1.6283367e-12 </wgt>
<wgt id='1025'> +1.6724547e-12 </wgt>
<wgt id='1026'> +2.2059026e-12 </wgt>
<wgt id='1027'> +2.1717727e-12 </wgt>
<wgt id='1028'> +2.1665852e-12 </wgt>
<wgt id='1029'> +2.2109439e-12 </wgt>
<wgt id='1030'> +2.1467031e-12 </wgt>
<wgt id='1031'> +1.2107676e-12 </wgt>
<wgt id='1032'> +1.3307208e-12 </wgt>
<wgt id='1033'> +1.3434228e-12 </wgt>
<wgt id='1034'> +1.1836863e-12 </wgt>
<wgt id='1035'> +1.3852703e-12 </wgt>
<wgt id='1036'> +1.0552226e-12 </wgt>
<wgt id='1037'> +1.1759068e-12 </wgt>
<wgt id='1038'> +1.1890447e-12 </wgt>
<wgt id='1039'> +1.0286328e-12 </wgt>
<wgt id='1040'> +1.2328796e-12 </wgt>
<wgt id='1041'> +1.4228577e-12 </wgt>
<wgt id='1042'> +1.5346067e-12 </wgt>
<wgt id='1043'> +1.5459270e-12 </wgt>
<wgt id='1044'> +1.3966702e-12 </wgt>
<wgt id='1045'> +1.5824801e-12 </wgt>
<wgt id='1046'> +1.5607000e-12 </wgt>
<wgt id='1047'> +1.6110475e-12 </wgt>
<wgt id='1048'> +1.5417842e-12 </wgt>
<wgt id='1049'> +1.5198566e-12 </wgt>
<wgt id='1050'> +1.5288970e-12 </wgt>
<wgt id='1051'> +1.5723579e-12 </wgt>
<wgt id='1052'> +1.5354408e-12 </wgt>
<wgt id='1053'> +1.5547341e-12 </wgt>
<wgt id='1054'> +1.5447288e-12 </wgt>
<wgt id='1055'> +1.5174556e-12 </wgt>
<wgt id='1056'> +1.5574894e-12 </wgt>
<wgt id='1057'> +1.5825544e-12 </wgt>
<wgt id='1058'> +1.5171727e-12 </wgt>
<wgt id='1059'> +1.5731637e-12 </wgt>
<wgt id='1060'> +1.5713692e-12 </wgt>
<wgt id='1061'> +1.5475952e-12 </wgt>
<wgt id='1062'> +1.5729812e-12 </wgt>
<wgt id='1063'> +1.5808691e-12 </wgt>
<wgt id='1064'> +1.5564149e-12 </wgt>
<wgt id='1065'> +1.5574431e-12 </wgt>
<wgt id='1066'> +1.5380809e-12 </wgt>
<wgt id='1067'> +1.5226385e-12 </wgt>
<wgt id='1068'> +1.5835954e-12 </wgt>
<wgt id='1069'> +1.5823818e-12 </wgt>
<wgt id='1070'> +1.5568860e-12 </wgt>
<wgt id='1071'> +1.5023498e-12 </wgt>
<wgt id='1072'> +1.5963542e-12 </wgt>
<wgt id='1073'> +1.5781200e-12 </wgt>
<wgt id='1074'> +1.5454339e-12 </wgt>
<wgt id='1075'> +1.5681459e-12 </wgt>
<wgt id='1076'> +1.5507386e-12 </wgt>
<wgt id='1077'> +1.5771564e-12 </wgt>
<wgt id='1078'> +1.5227451e-12 </wgt>
<wgt id='1079'> +1.5289302e-12 </wgt>
<wgt id='1080'> +1.5415766e-12 </wgt>
<wgt id='1081'> +1.5865312e-12 </wgt>
<wgt id='1082'> +1.5394418e-12 </wgt>
<wgt id='1083'> +1.5964382e-12 </wgt>
<wgt id='1084'> +1.5260166e-12 </wgt>
<wgt id='1085'> +1.5500955e-12 </wgt>
<wgt id='1086'> +1.5640607e-12 </wgt>
<wgt id='1087'> +1.5535998e-12 </wgt>
<wgt id='1088'> +1.5602458e-12 </wgt>
<wgt id='1089'> +1.5871362e-12 </wgt>
<wgt id='1090'> +1.5506068e-12 </wgt>
<wgt id='1091'> +1.5763558e-12 </wgt>
<wgt id='1092'> +1.5894750e-12 </wgt>
<wgt id='1093'> +1.5371350e-12 </wgt>
<wgt id='1094'> +1.5914877e-12 </wgt>
<wgt id='1095'> +1.5756727e-12 </wgt>
<wgt id='1096'> +1.6094177e-12 </wgt>
<wgt id='1097'> +1.5584973e-12 </wgt>
<wgt id='1098'> +1.5417484e-12 </wgt>
<wgt id='1099'> +1.5516539e-12 </wgt>
<wgt id='1100'> +1.5740478e-12 </wgt>
<wgt id='1101'> +1.5894746e-12 </wgt>
<wgt id='1102'> +1.5662953e-12 </wgt>
<wgt id='1103'> +1.6136117e-12 </wgt>
<wgt id='1104'> +1.5363201e-12 </wgt>
<wgt id='1105'> +1.5506673e-12 </wgt>
<wgt id='1106'> +1.5939772e-12 </wgt>
<wgt id='1107'> +1.5456191e-12 </wgt>
<wgt id='1108'> +1.5641391e-12 </wgt>
<wgt id='1109'> +1.6035465e-12 </wgt>
<wgt id='1110'> +1.5545364e-12 </wgt>
<wgt id='1111'> +1.5626231e-12 </wgt>
<wgt id='1112'> +1.6013674e-12 </wgt>
<wgt id='1113'> +1.6025285e-12 </wgt>
<wgt id='1114'> +1.5661961e-12 </wgt>
<wgt id='1115'> +1.5339074e-12 </wgt>
<wgt id='1116'> +1.5594527e-12 </wgt>
<wgt id='1117'> +1.5404254e-12 </wgt>
<wgt id='1118'> +1.6577477e-12 </wgt>
<wgt id='1119'> +1.5058438e-12 </wgt>
<wgt id='1120'> +1.5280981e-12 </wgt>
<wgt id='1121'> +1.5463044e-12 </wgt>
<wgt id='1122'> +1.5784295e-12 </wgt>
<wgt id='1123'> +1.5231140e-12 </wgt>
<wgt id='1124'> +1.5214849e-12 </wgt>
<wgt id='1125'> +1.5330286e-12 </wgt>
<wgt id='1126'> +1.5915701e-12 </wgt>
<wgt id='1127'> +1.5586427e-12 </wgt>
<wgt id='1128'> +1.5729812e-12 </wgt>
<wgt id='1129'> +1.5688302e-12 </wgt>
<wgt id='1130'> +1.5666400e-12 </wgt>
<wgt id='1131'> +1.5518575e-12 </wgt>
<wgt id='1132'> +1.5856108e-12 </wgt>
<wgt id='1133'> +1.5434061e-12 </wgt>
<wgt id='1134'> +1.5868409e-12 </wgt>
<wgt id='1135'> +1.5060987e-12 </wgt>
<wgt id='1136'> +1.5511753e-12 </wgt>
<wgt id='1137'> +1.5279350e-12 </wgt>
<wgt id='1138'> +1.5520103e-12 </wgt>
<wgt id='1139'> +1.5568432e-12 </wgt>
<wgt id='1140'> +1.5898306e-12 </wgt>
<wgt id='1141'> +1.5687539e-12 </wgt>
<wgt id='1142'> +1.5317829e-12 </wgt>
<wgt id='1143'> +1.5922846e-12 </wgt>
<wgt id='1144'> +1.5733377e-12 </wgt>
<wgt id='1145'> +1.5733747e-12 </wgt>
<wgt id='1146'> +1.5801174e-12 </wgt>
<wgt id='1147'> +1.2695874e-12 </wgt>
<wgt id='1148'> +1.2987320e-12 </wgt>
<wgt id='1149'> +1.2991522e-12 </wgt>
<wgt id='1150'> +1.2975186e-12 </wgt>
<wgt id='1151'> +1.4125767e-12 </wgt>
<wgt id='1152'> +1.7564709e-12 </wgt>
<wgt id='1153'> +1.7470631e-12 </wgt>
<wgt id='1154'> +1.7618450e-12 </wgt>
<wgt id='1155'> +1.7555239e-12 </wgt>
<wgt id='1156'> +1.7569592e-12 </wgt>
<wgt id='1157'> +1.7595106e-12 </wgt>
<wgt id='1158'> +1.7522069e-12 </wgt>
<wgt id='1159'> +1.7591121e-12 </wgt>
<wgt id='1160'> +1.7547951e-12 </wgt>
<wgt id='1161'> +1.7527197e-12 </wgt>
<wgt id='1162'> +1.7589809e-12 </wgt>
<wgt id='1163'> +1.7602380e-12 </wgt>
<wgt id='1164'> +1.7526527e-12 </wgt>
<wgt id='1165'> +1.7458868e-12 </wgt>
<wgt id='1166'> +1.7665589e-12 </wgt>
<wgt id='1167'> +1.7663434e-12 </wgt>
<wgt id='1168'> +1.7429133e-12 </wgt>
<wgt id='1169'> +1.7585410e-12 </wgt>
<wgt id='1170'> +1.7548692e-12 </wgt>
<wgt id='1171'> +1.7506773e-12 </wgt>
<wgt id='1172'> +1.7631628e-12 </wgt>
<wgt id='1173'> +1.7436659e-12 </wgt>
<wgt id='1174'> +1.7683543e-12 </wgt>
<wgt id='1175'> +1.7586759e-12 </wgt>
<wgt id='1176'> +1.7536538e-12 </wgt>
<wgt id='1177'> +1.7582464e-12 </wgt>
<wgt id='1178'> +1.7513036e-12 </wgt>
<wgt id='1179'> +1.7605324e-12 </wgt>
<wgt id='1180'> +1.7454736e-12 </wgt>
<wgt id='1181'> +1.7504744e-12 </wgt>
<wgt id='1182'> +1.7623190e-12 </wgt>
<wgt id='1183'> +1.7567462e-12 </wgt>
<wgt id='1184'> +1.7563937e-12 </wgt>
<wgt id='1185'> +1.7494451e-12 </wgt>
<wgt id='1186'> +1.7604316e-12 </wgt>
<wgt id='1187'> +1.7558980e-12 </wgt>
<wgt id='1188'> +1.7566001e-12 </wgt>
<wgt id='1189'> +1.7511344e-12 </wgt>
<wgt id='1190'> +1.7451406e-12 </wgt>
<wgt id='1191'> +1.7516515e-12 </wgt>
<wgt id='1192'> +1.7585119e-12 </wgt>
<wgt id='1193'> +1.2797068e-12 </wgt>
<wgt id='1194'> +1.2770321e-12 </wgt>
<wgt id='1195'> +1.2817971e-12 </wgt>
<wgt id='1196'> +1.2858805e-12 </wgt>
<wgt id='1197'> +1.2727561e-12 </wgt>
<wgt id='1198'> +1.2800583e-12 </wgt>
<wgt id='1199'> +1.2791302e-12 </wgt>
<wgt id='1200'> +1.2811005e-12 </wgt>
<wgt id='1201'> +1.2787373e-12 </wgt>
<wgt id='1202'> +1.2778759e-12 </wgt>
<wgt id='1203'> +1.2822186e-12 </wgt>
<wgt id='1204'> +1.2690089e-12 </wgt>
<wgt id='1205'> +1.2862217e-12 </wgt>
<wgt id='1206'> +1.2838434e-12 </wgt>
<wgt id='1207'> +1.2740684e-12 </wgt>
<wgt id='1208'> +1.2724908e-12 </wgt>
<wgt id='1209'> +1.2822694e-12 </wgt>
<wgt id='1210'> +1.2806497e-12 </wgt>
<wgt id='1211'> +1.2704166e-12 </wgt>
<wgt id='1212'> +1.2805736e-12 </wgt>
<wgt id='1213'> +1.2787694e-12 </wgt>
<wgt id='1214'> +1.2641596e-12 </wgt>
<wgt id='1215'> +1.3046257e-12 </wgt>
<wgt id='1216'> +1.2849210e-12 </wgt>
<wgt id='1217'> +1.2755962e-12 </wgt>
<wgt id='1218'> +1.2849056e-12 </wgt>
<wgt id='1219'> +1.2768829e-12 </wgt>
<wgt id='1220'> +1.2848585e-12 </wgt>
<wgt id='1221'> +1.2782751e-12 </wgt>
<wgt id='1222'> +1.2841249e-12 </wgt>
<wgt id='1223'> +1.2718815e-12 </wgt>
<wgt id='1224'> +1.2814793e-12 </wgt>
<wgt id='1225'> +1.2789440e-12 </wgt>
<wgt id='1226'> +1.2765891e-12 </wgt>
<wgt id='1227'> +1.2818448e-12 </wgt>
<wgt id='1228'> +1.2724560e-12 </wgt>
<wgt id='1229'> +1.2825370e-12 </wgt>
<wgt id='1230'> +1.2723128e-12 </wgt>
<wgt id='1231'> +1.2787003e-12 </wgt>
<wgt id='1232'> +1.2777423e-12 </wgt>
<wgt id='1233'> +1.2801378e-12 </wgt>
<wgt id='1234'> +1.2797068e-12 </wgt>
<wgt id='1235'> +1.2706287e-12 </wgt>
<wgt id='1236'> +1.2739421e-12 </wgt>
<wgt id='1237'> +1.2769123e-12 </wgt>
<wgt id='1238'> +1.2818858e-12 </wgt>
<wgt id='1239'> +1.2839506e-12 </wgt>
<wgt id='1240'> +1.2859174e-12 </wgt>
<wgt id='1241'> +1.2623510e-12 </wgt>
<wgt id='1242'> +1.2556320e-12 </wgt>
<wgt id='1243'> +1.2690587e-12 </wgt>
<wgt id='1244'> +1.2553722e-12 </wgt>
<wgt id='1245'> +1.2675173e-12 </wgt>
<wgt id='1246'> +1.2626180e-12 </wgt>
<wgt id='1247'> +1.2622140e-12 </wgt>
<wgt id='1248'> +1.2623105e-12 </wgt>
<wgt id='1249'> +1.2624474e-12 </wgt>
<wgt id='1250'> +1.2637245e-12 </wgt>
<wgt id='1251'> +1.2614337e-12 </wgt>
<wgt id='1252'> +1.2597241e-12 </wgt>
<wgt id='1253'> +1.2644449e-12 </wgt>
<wgt id='1254'> +1.2528132e-12 </wgt>
<wgt id='1255'> +1.2681060e-12 </wgt>
<wgt id='1256'> +1.2663075e-12 </wgt>
<wgt id='1257'> +1.2524879e-12 </wgt>
<wgt id='1258'> +1.2817262e-12 </wgt>
<wgt id='1259'> +1.2439465e-12 </wgt>
<wgt id='1260'> +1.2657921e-12 </wgt>
<wgt id='1261'> +1.2585805e-12 </wgt>
<wgt id='1262'> +1.2620163e-12 </wgt>
<wgt id='1263'> +1.2621723e-12 </wgt>
<wgt id='1264'> +1.2683947e-12 </wgt>
<wgt id='1265'> +1.2593835e-12 </wgt>
<wgt id='1266'> +1.2539355e-12 </wgt>
<wgt id='1267'> +1.2699783e-12 </wgt>
<wgt id='1268'> +1.2645077e-12 </wgt>
<wgt id='1269'> +1.2629589e-12 </wgt>
<wgt id='1270'> +1.2546569e-12 </wgt>
<wgt id='1271'> +1.2567435e-12 </wgt>
<wgt id='1272'> +1.2607451e-12 </wgt>
<wgt id='1273'> +1.2623113e-12 </wgt>
<wgt id='1274'> +1.2643712e-12 </wgt>
<wgt id='1275'> +1.2582370e-12 </wgt>
<wgt id='1276'> +1.2665074e-12 </wgt>
<wgt id='1277'> +1.2556917e-12 </wgt>
<wgt id='1278'> +1.2629976e-12 </wgt>
<wgt id='1279'> +1.2607324e-12 </wgt>
<wgt id='1280'> +1.2629674e-12 </wgt>
<wgt id='1281'> +1.2594939e-12 </wgt>
<wgt id='1282'> +1.2623510e-12 </wgt>
<wgt id='1283'> +1.2534951e-12 </wgt>
<wgt id='1284'> +1.2569229e-12 </wgt>
<wgt id='1285'> +1.2598950e-12 </wgt>
<wgt id='1286'> +1.2648612e-12 </wgt>
<wgt id='1287'> +1.2668679e-12 </wgt>
<wgt id='1288'> +1.2684727e-12 </wgt>
<wgt id='1289'> +1.3412440e-12 </wgt>
<wgt id='1290'> +1.3408016e-12 </wgt>
<wgt id='1291'> +1.3416592e-12 </wgt>
<wgt id='1292'> +1.3362297e-12 </wgt>
<wgt id='1293'> +1.3448012e-12 </wgt>
<wgt id='1294'> +1.3357905e-12 </wgt>
<wgt id='1295'> +1.3464900e-12 </wgt>
<wgt id='1296'> +1.3376876e-12 </wgt>
<wgt id='1297'> +1.3455358e-12 </wgt>
<wgt id='1298'> +1.3469304e-12 </wgt>
<wgt id='1299'> +1.3341005e-12 </wgt>
<wgt id='1300'> +1.3439787e-12 </wgt>
<wgt id='1301'> +1.3356865e-12 </wgt>
<wgt id='1302'> +1.3397453e-12 </wgt>
<wgt id='1303'> +1.3432132e-12 </wgt>
<wgt id='1304'> +1.3389057e-12 </wgt>
<wgt id='1305'> +1.3427728e-12 </wgt>
<wgt id='1306'> +1.3352817e-12 </wgt>
<wgt id='1307'> +1.3479635e-12 </wgt>
<wgt id='1308'> +1.3420047e-12 </wgt>
<wgt id='1309'> +1.3406759e-12 </wgt>
<wgt id='1310'> +1.3412588e-12 </wgt>
<wgt id='1311'> +1.3412406e-12 </wgt>
<wgt id='1312'> +1.3375115e-12 </wgt>
<wgt id='1313'> +1.3449975e-12 </wgt>
<wgt id='1314'> +1.3391981e-12 </wgt>
<wgt id='1315'> +1.3383675e-12 </wgt>
<wgt id='1316'> +1.3476824e-12 </wgt>
<wgt id='1317'> +1.3409791e-12 </wgt>
<wgt id='1318'> +1.3499443e-12 </wgt>
<wgt id='1319'> +1.3306113e-12 </wgt>
<wgt id='1320'> +1.3520452e-12 </wgt>
<wgt id='1321'> +1.3322493e-12 </wgt>
<wgt id='1322'> +1.3406024e-12 </wgt>
<wgt id='1323'> +1.3416299e-12 </wgt>
<wgt id='1324'> +1.3374254e-12 </wgt>
<wgt id='1325'> +1.3549026e-12 </wgt>
<wgt id='1326'> +1.3413453e-12 </wgt>
<wgt id='1327'> +1.3430435e-12 </wgt>
<wgt id='1328'> +1.3417947e-12 </wgt>
<wgt id='1329'> +1.3405065e-12 </wgt>
<wgt id='1330'> +1.3320866e-12 </wgt>
<wgt id='1331'> +1.3481246e-12 </wgt>
<wgt id='1332'> +1.3627243e-12 </wgt>
<wgt id='1333'> +1.3288103e-12 </wgt>
<wgt id='1334'> +1.3377780e-12 </wgt>
<wgt id='1335'> +1.3505724e-12 </wgt>
<wgt id='1336'> +1.3358066e-12 </wgt>
<wgt id='1337'> +1.3426339e-12 </wgt>
<wgt id='1338'> +1.3390674e-12 </wgt>
<wgt id='1339'> +1.3415244e-12 </wgt>
<wgt id='1340'> +1.3217225e-12 </wgt>
<wgt id='1341'> +1.3214459e-12 </wgt>
<wgt id='1342'> +1.3220546e-12 </wgt>
<wgt id='1343'> +1.3166982e-12 </wgt>
<wgt id='1344'> +1.3251472e-12 </wgt>
<wgt id='1345'> +1.3163017e-12 </wgt>
<wgt id='1346'> +1.3268155e-12 </wgt>
<wgt id='1347'> +1.3184481e-12 </wgt>
<wgt id='1348'> +1.3253925e-12 </wgt>
<wgt id='1349'> +1.3269978e-12 </wgt>
<wgt id='1350'> +1.3165622e-12 </wgt>
<wgt id='1351'> +1.3245003e-12 </wgt>
<wgt id='1352'> +1.3157784e-12 </wgt>
<wgt id='1353'> +1.3197189e-12 </wgt>
<wgt id='1354'> +1.3253180e-12 </wgt>
<wgt id='1355'> +1.3197037e-12 </wgt>
<wgt id='1356'> +1.3228750e-12 </wgt>
<wgt id='1357'> +1.3160133e-12 </wgt>
<wgt id='1358'> +1.3285380e-12 </wgt>
<wgt id='1359'> +1.3241060e-12 </wgt>
<wgt id='1360'> +1.3197161e-12 </wgt>
<wgt id='1361'> +1.3215817e-12 </wgt>
<wgt id='1362'> +1.3221687e-12 </wgt>
<wgt id='1363'> +1.3176050e-12 </wgt>
<wgt id='1364'> +1.3247649e-12 </wgt>
<wgt id='1365'> +1.3173234e-12 </wgt>
<wgt id='1366'> +1.3199504e-12 </wgt>
<wgt id='1367'> +1.3279846e-12 </wgt>
<wgt id='1368'> +1.3210584e-12 </wgt>
<wgt id='1369'> +1.3292414e-12 </wgt>
<wgt id='1370'> +1.3126471e-12 </wgt>
<wgt id='1371'> +1.3296757e-12 </wgt>
<wgt id='1372'> +1.3122718e-12 </wgt>
<wgt id='1373'> +1.3192347e-12 </wgt>
<wgt id='1374'> +1.3235831e-12 </wgt>
<wgt id='1375'> +1.3178249e-12 </wgt>
<wgt id='1376'> +1.3364326e-12 </wgt>
<wgt id='1377'> +1.3218634e-12 </wgt>
<wgt id='1378'> +1.3238473e-12 </wgt>
<wgt id='1379'> +1.3220677e-12 </wgt>
<wgt id='1380'> +1.3212328e-12 </wgt>
<wgt id='1381'> +1.3128019e-12 </wgt>
<wgt id='1382'> +1.3271865e-12 </wgt>
<wgt id='1383'> +1.3421717e-12 </wgt>
<wgt id='1384'> +1.3097909e-12 </wgt>
<wgt id='1385'> +1.3186191e-12 </wgt>
<wgt id='1386'> +1.3296655e-12 </wgt>
<wgt id='1387'> +1.3144180e-12 </wgt>
<wgt id='1388'> +1.3236363e-12 </wgt>
<wgt id='1389'> +1.3174782e-12 </wgt>
<wgt id='1390'> +1.3225936e-12 </wgt>
<wgt id='1391'> +1.2975585e-12 </wgt>
<wgt id='1392'> +1.2708955e-12 </wgt>
<wgt id='1393'> +1.2797345e-12 </wgt>
<wgt id='1394'> +1.2893601e-12 </wgt>
<wgt id='1395'> +1.3071479e-12 </wgt>
<wgt id='1396'> +1.2986571e-12 </wgt>
<wgt id='1397'> +1.2594645e-12 </wgt>
<wgt id='1398'> +1.2674943e-12 </wgt>
<wgt id='1399'> +1.2747858e-12 </wgt>
<wgt id='1400'> +1.2823614e-12 </wgt>
<wgt id='1401'> +1.2904983e-12 </wgt>
<wgt id='1402'> +1.3065057e-12 </wgt>
<wgt id='1403'> +1.3144114e-12 </wgt>
<wgt id='1404'> +1.3219604e-12 </wgt>
<wgt id='1405'> +1.2986571e-12 </wgt>
<wgt id='1406'> +1.2939675e-12 </wgt>
<wgt id='1407'> +1.2965786e-12 </wgt>
<wgt id='1408'> +1.3006345e-12 </wgt>
<wgt id='1409'> +1.3028264e-12 </wgt>
<wgt id='1410'> +1.2679920e-12 </wgt>
<wgt id='1411'> +1.2676749e-12 </wgt>
<wgt id='1412'> +1.2683394e-12 </wgt>
<wgt id='1413'> +1.2699732e-12 </wgt>
<wgt id='1414'> +1.2659502e-12 </wgt>
<wgt id='1415'> +1.2610638e-12 </wgt>
<wgt id='1416'> +1.2707609e-12 </wgt>
<wgt id='1417'> +1.2598096e-12 </wgt>
<wgt id='1418'> +1.2761173e-12 </wgt>
<wgt id='1419'> +1.2701497e-12 </wgt>
<wgt id='1420'> +1.2658371e-12 </wgt>
<wgt id='1421'> +1.2548632e-12 </wgt>
<wgt id='1422'> +1.2736076e-12 </wgt>
<wgt id='1423'> +1.2676784e-12 </wgt>
<wgt id='1424'> +1.2683096e-12 </wgt>
<wgt id='1425'> +1.2631976e-12 </wgt>
<wgt id='1426'> +1.2731412e-12 </wgt>
<wgt id='1427'> +1.2583375e-12 </wgt>
<wgt id='1428'> +1.2731331e-12 </wgt>
<wgt id='1429'> +1.2641400e-12 </wgt>
<wgt id='1430'> +1.2732169e-12 </wgt>
<wgt id='1431'> +1.2696678e-12 </wgt>
<wgt id='1432'> +1.2667077e-12 </wgt>
<wgt id='1433'> +1.2669451e-12 </wgt>
<wgt id='1434'> +1.2676208e-12 </wgt>
<wgt id='1435'> +1.2692802e-12 </wgt>
<wgt id='1436'> +1.2646761e-12 </wgt>
<wgt id='1437'> +1.2743256e-12 </wgt>
<wgt id='1438'> +1.2671127e-12 </wgt>
<wgt id='1439'> +1.2625907e-12 </wgt>
<wgt id='1440'> +1.2798213e-12 </wgt>
<wgt id='1441'> +1.2708404e-12 </wgt>
<wgt id='1442'> +1.2629052e-12 </wgt>
<wgt id='1443'> +1.2646827e-12 </wgt>
<wgt id='1444'> +1.2756981e-12 </wgt>
<wgt id='1445'> +1.2815867e-12 </wgt>
<wgt id='1446'> +1.2633650e-12 </wgt>
<wgt id='1447'> +1.2674509e-12 </wgt>
<wgt id='1448'> +1.2710635e-12 </wgt>
<wgt id='1449'> +1.2690009e-12 </wgt>
<wgt id='1450'> +1.2669678e-12 </wgt>
<wgt id='1451'> +1.2721892e-12 </wgt>
<wgt id='1452'> +1.2556584e-12 </wgt>
<wgt id='1453'> +1.2690693e-12 </wgt>
<wgt id='1454'> +1.2596446e-12 </wgt>
<wgt id='1455'> +1.2617901e-12 </wgt>
<wgt id='1456'> +1.2708624e-12 </wgt>
<wgt id='1457'> +1.2711130e-12 </wgt>
<wgt id='1458'> +1.2664826e-12 </wgt>
<wgt id='1459'> +1.2729159e-12 </wgt>
<wgt id='1460'> +1.2631233e-12 </wgt>
<wgt id='1461'> +1.2679920e-12 </wgt>
<wgt id='1462'> +1.2610588e-12 </wgt>
<wgt id='1463'> +1.2759901e-12 </wgt>
<wgt id='1464'> +1.2691961e-12 </wgt>
<wgt id='1465'> +1.2362426e-12 </wgt>
<wgt id='1466'> +1.2428086e-12 </wgt>
<wgt id='1467'> +1.2501581e-12 </wgt>
<wgt id='1468'> +1.2562155e-12 </wgt>
<wgt id='1469'> +1.2626335e-12 </wgt>
<wgt id='1470'> +1.2762440e-12 </wgt>
<wgt id='1471'> +1.2817378e-12 </wgt>
<wgt id='1472'> +1.2884637e-12 </wgt>
<wgt id='1473'> +1.2691961e-12 </wgt>
<wgt id='1474'> +1.2644093e-12 </wgt>
<wgt id='1475'> +1.2662919e-12 </wgt>
<wgt id='1476'> +1.2712579e-12 </wgt>
<wgt id='1477'> +1.2731597e-12 </wgt>
<wgt id='1478'> +1.2646334e-12 </wgt>
<wgt id='1479'> +1.2618331e-12 </wgt>
<wgt id='1480'> +1.2581704e-12 </wgt>
<wgt id='1481'> +1.2650131e-12 </wgt>
<wgt id='1482'> +1.2613228e-12 </wgt>
<wgt id='1483'> +1.2509663e-12 </wgt>
<wgt id='1484'> +1.2668465e-12 </wgt>
<wgt id='1485'> +1.2585327e-12 </wgt>
<wgt id='1486'> +1.2652822e-12 </wgt>
<wgt id='1487'> +1.2651366e-12 </wgt>
<wgt id='1488'> +1.2628858e-12 </wgt>
<wgt id='1489'> +1.2784686e-12 </wgt>
<wgt id='1490'> +1.2593762e-12 </wgt>
<wgt id='1491'> +1.2646806e-12 </wgt>
<wgt id='1492'> +1.2685744e-12 </wgt>
<wgt id='1493'> +1.2455442e-12 </wgt>
<wgt id='1494'> +1.2722335e-12 </wgt>
<wgt id='1495'> +1.2534868e-12 </wgt>
<wgt id='1496'> +1.2634428e-12 </wgt>
<wgt id='1497'> +1.2635807e-12 </wgt>
<wgt id='1498'> +1.2652195e-12 </wgt>
<wgt id='1499'> +1.2646326e-12 </wgt>
<wgt id='1500'> +1.2638436e-12 </wgt>
<wgt id='1501'> +1.2655257e-12 </wgt>
<wgt id='1502'> +1.2679448e-12 </wgt>
<wgt id='1503'> +1.2642046e-12 </wgt>
<wgt id='1504'> +1.2617038e-12 </wgt>
<wgt id='1505'> +1.2644511e-12 </wgt>
<wgt id='1506'> +1.2624787e-12 </wgt>
<wgt id='1507'> +1.2643225e-12 </wgt>
<wgt id='1508'> +1.2682786e-12 </wgt>
<wgt id='1509'> +1.2936602e-12 </wgt>
<wgt id='1510'> +1.2925671e-12 </wgt>
<wgt id='1511'> +1.2965548e-12 </wgt>
<wgt id='1512'> +1.2940372e-12 </wgt>
<wgt id='1513'> +1.2951065e-12 </wgt>
<wgt id='1514'> +1.2954100e-12 </wgt>
<wgt id='1515'> +1.2938234e-12 </wgt>
<wgt id='1516'> +1.2964490e-12 </wgt>
<wgt id='1517'> +1.2992251e-12 </wgt>
<wgt id='1518'> +1.2949053e-12 </wgt>
<wgt id='1519'> +1.2868441e-12 </wgt>
<wgt id='1520'> +1.2974391e-12 </wgt>
<wgt id='1521'> +1.2991811e-12 </wgt>
<wgt id='1522'> +1.2936822e-12 </wgt>
<wgt id='1523'> +1.2995658e-12 </wgt>
<wgt id='1524'> +1.2963559e-12 </wgt>
<wgt id='1525'> +1.2996040e-12 </wgt>
<wgt id='1526'> +1.2907742e-12 </wgt>
<wgt id='1527'> +1.2895361e-12 </wgt>
<wgt id='1528'> +1.2955230e-12 </wgt>
<wgt id='1529'> +1.2932956e-12 </wgt>
<wgt id='1530'> +1.2998078e-12 </wgt>
<wgt id='1531'> +1.2956474e-12 </wgt>
<wgt id='1532'> +1.2884273e-12 </wgt>
<wgt id='1533'> +1.2933574e-12 </wgt>
<wgt id='1534'> +1.2972535e-12 </wgt>
<wgt id='1535'> +1.2845125e-12 </wgt>
<wgt id='1536'> +1.2907878e-12 </wgt>
<wgt id='1537'> +1.2913009e-12 </wgt>
<wgt id='1538'> +1.2950780e-12 </wgt>
<wgt id='1539'> +1.3029183e-12 </wgt>
<wgt id='1540'> +1.2954646e-12 </wgt>
<wgt id='1541'> +1.2943717e-12 </wgt>
<wgt id='1542'> +1.2916658e-12 </wgt>
<wgt id='1543'> +1.2933549e-12 </wgt>
<wgt id='1544'> +1.2932436e-12 </wgt>
<wgt id='1545'> +1.2933853e-12 </wgt>
<wgt id='1546'> +1.2911265e-12 </wgt>
<wgt id='1547'> +1.2939447e-12 </wgt>
<wgt id='1548'> +1.2930078e-12 </wgt>
<wgt id='1549'> +1.2929783e-12 </wgt>
<wgt id='1550'> +1.2951963e-12 </wgt>
<wgt id='1551'> +1.2960953e-12 </wgt>
<wgt id='1552'> +1.2940513e-12 </wgt>
<wgt id='1553'> +1.2937878e-12 </wgt>
<wgt id='1554'> +1.2966106e-12 </wgt>
<wgt id='1555'> +1.2955735e-12 </wgt>
<wgt id='1556'> +1.2934932e-12 </wgt>
<wgt id='1557'> +1.2956214e-12 </wgt>
<wgt id='1558'> +1.2929774e-12 </wgt>
<wgt id='1559'> +1.2937354e-12 </wgt>
<wgt id='1560'> +1.2959988e-12 </wgt>
<wgt id='1561'> +1.2921307e-12 </wgt>
<wgt id='1562'> +1.2927252e-12 </wgt>
<wgt id='1563'> +1.2944023e-12 </wgt>
<wgt id='1564'> +1.2919962e-12 </wgt>
<wgt id='1565'> +1.2945164e-12 </wgt>
<wgt id='1566'> +1.2935575e-12 </wgt>
<wgt id='1567'> +1.2950167e-12 </wgt>
<wgt id='1568'> +1.2926295e-12 </wgt>
<wgt id='1569'> +1.2932023e-12 </wgt>
<wgt id='1570'> +1.2927396e-12 </wgt>
<wgt id='1571'> +1.2937952e-12 </wgt>
<wgt id='1572'> +1.2922466e-12 </wgt>
<wgt id='1573'> +1.2920233e-12 </wgt>
<wgt id='1574'> +1.2935629e-12 </wgt>
<wgt id='1575'> +1.2944755e-12 </wgt>
<wgt id='1576'> +1.2938893e-12 </wgt>
<wgt id='1577'> +1.2935341e-12 </wgt>
<wgt id='1578'> +1.2932818e-12 </wgt>
<wgt id='1579'> +1.2933091e-12 </wgt>
<wgt id='1580'> +1.2941803e-12 </wgt>
<wgt id='1581'> +1.2944747e-12 </wgt>
<wgt id='1582'> +1.2929381e-12 </wgt>
<wgt id='1583'> +1.2941288e-12 </wgt>
<wgt id='1584'> +1.2942025e-12 </wgt>
<wgt id='1585'> +1.2931623e-12 </wgt>
<wgt id='1586'> +1.2937330e-12 </wgt>
<wgt id='1587'> +1.2945902e-12 </wgt>
<wgt id='1588'> +1.2933824e-12 </wgt>
<wgt id='1589'> +1.2947677e-12 </wgt>
<wgt id='1590'> +1.2938782e-12 </wgt>
<wgt id='1591'> +1.2944884e-12 </wgt>
<wgt id='1592'> +1.2927019e-12 </wgt>
<wgt id='1593'> +1.2935661e-12 </wgt>
<wgt id='1594'> +1.2940707e-12 </wgt>
<wgt id='1595'> +1.2941835e-12 </wgt>
<wgt id='1596'> +1.2945572e-12 </wgt>
<wgt id='1597'> +1.2928264e-12 </wgt>
<wgt id='1598'> +1.2935138e-12 </wgt>
<wgt id='1599'> +1.2943592e-12 </wgt>
<wgt id='1600'> +1.2936411e-12 </wgt>
<wgt id='1601'> +1.2936485e-12 </wgt>
<wgt id='1602'> +1.2933127e-12 </wgt>
<wgt id='1603'> +1.2939804e-12 </wgt>
<wgt id='1604'> +1.2941482e-12 </wgt>
<wgt id='1605'> +1.2939602e-12 </wgt>
<wgt id='1606'> +1.2931964e-12 </wgt>
<wgt id='1607'> +1.2939402e-12 </wgt>
<wgt id='1608'> +1.2936381e-12 </wgt>
<wgt id='1609'> +1.2932354e-12 </wgt>
<wgt id='1610'> +1.2843517e-12 </wgt>
<wgt id='1611'> +1.3020424e-12 </wgt>
<wgt id='1612'> +1.5235280e-12 </wgt>
<wgt id='1613'> +1.5007422e-12 </wgt>
<wgt id='1614'> +1.5312000e-12 </wgt>
<wgt id='1615'> +1.5146920e-12 </wgt>
<wgt id='1616'> +1.5296492e-12 </wgt>
<wgt id='1617'> +1.5363591e-12 </wgt>
<wgt id='1618'> +1.5582588e-12 </wgt>
<wgt id='1619'> +1.5130411e-12 </wgt>
<wgt id='1620'> +1.4623782e-12 </wgt>
<wgt id='1621'> +1.5463956e-12 </wgt>
<wgt id='1622'> +1.5340481e-12 </wgt>
<wgt id='1623'> +1.5032054e-12 </wgt>
<wgt id='1624'> +1.5011981e-12 </wgt>
<wgt id='1625'> +1.5157600e-12 </wgt>
<wgt id='1626'> +1.4993233e-12 </wgt>
<wgt id='1627'> +1.5122848e-12 </wgt>
<wgt id='1628'> +1.5413500e-12 </wgt>
<wgt id='1629'> +1.5808835e-12 </wgt>
<wgt id='1630'> +1.5070112e-12 </wgt>
<wgt id='1631'> +1.5198106e-12 </wgt>
<wgt id='1632'> +1.4547647e-12 </wgt>
<wgt id='1633'> +1.4896452e-12 </wgt>
<wgt id='1634'> +1.5838486e-12 </wgt>
<wgt id='1635'> +1.5389837e-12 </wgt>
<wgt id='1636'> +1.5636287e-12 </wgt>
<wgt id='1637'> +1.5065316e-12 </wgt>
<wgt id='1638'> +1.5632242e-12 </wgt>
<wgt id='1639'> +1.4933276e-12 </wgt>
<wgt id='1640'> +1.5476984e-12 </wgt>
<wgt id='1641'> +1.5091074e-12 </wgt>
<wgt id='1642'> +1.5375994e-12 </wgt>
<wgt id='1643'> +1.5374692e-12 </wgt>
<wgt id='1644'> +1.5100010e-12 </wgt>
<wgt id='1645'> +1.5475293e-12 </wgt>
<wgt id='1646'> +1.4990375e-12 </wgt>
<wgt id='1647'> +1.4967096e-12 </wgt>
<wgt id='1648'> +1.5632365e-12 </wgt>
<wgt id='1649'> +1.5550477e-12 </wgt>
<wgt id='1650'> +1.5086376e-12 </wgt>
<wgt id='1651'> +1.4768102e-12 </wgt>
<wgt id='1652'> +1.4847178e-12 </wgt>
<wgt id='1653'> +1.5470550e-12 </wgt>
<wgt id='1654'> +1.5362178e-12 </wgt>
<wgt id='1655'> +1.4939854e-12 </wgt>
<wgt id='1656'> +1.4860646e-12 </wgt>
<wgt id='1657'> +1.4873155e-12 </wgt>
<wgt id='1658'> +1.5011585e-12 </wgt>
<wgt id='1659'> +1.5011981e-12 </wgt>
<wgt id='1660'> +1.5514720e-12 </wgt>
<wgt id='1661'> +1.5322795e-12 </wgt>
<wgt id='1662'> +1.5235033e-12 </wgt>
<wgt id='1663'> +1.5152014e-12 </wgt>
<wgt id='1664'> +1.5264526e-12 </wgt>
<wgt id='1665'> +1.5174863e-12 </wgt>
<wgt id='1666'> +1.5179847e-12 </wgt>
<wgt id='1667'> +1.4786242e-12 </wgt>
<wgt id='1668'> +1.5349733e-12 </wgt>
<wgt id='1669'> +1.5301492e-12 </wgt>
<wgt id='1670'> +1.5454997e-12 </wgt>
<wgt id='1671'> +1.5362631e-12 </wgt>
<wgt id='1672'> +1.5660473e-12 </wgt>
<wgt id='1673'> +1.4943075e-12 </wgt>
<wgt id='1674'> +1.4797829e-12 </wgt>
<wgt id='1675'> +1.5751435e-12 </wgt>
<wgt id='1676'> +1.5601582e-12 </wgt>
<wgt id='1677'> +1.5969437e-12 </wgt>
<wgt id='1678'> +1.5050351e-12 </wgt>
<wgt id='1679'> +1.5154429e-12 </wgt>
<wgt id='1680'> +1.5431795e-12 </wgt>
<wgt id='1681'> +1.5351284e-12 </wgt>
<wgt id='1682'> +1.5406451e-12 </wgt>
<wgt id='1683'> +1.4766592e-12 </wgt>
<wgt id='1684'> +1.5015553e-12 </wgt>
<wgt id='1685'> +1.5110546e-12 </wgt>
<wgt id='1686'> +1.5363330e-12 </wgt>
<wgt id='1687'> +1.5492185e-12 </wgt>
<wgt id='1688'> +1.5305291e-12 </wgt>
<wgt id='1689'> +1.5158886e-12 </wgt>
<wgt id='1690'> +1.5667020e-12 </wgt>
<wgt id='1691'> +1.5653800e-12 </wgt>
<wgt id='1692'> +1.5597596e-12 </wgt>
<wgt id='1693'> +1.5499592e-12 </wgt>
<wgt id='1694'> +1.5176803e-12 </wgt>
<wgt id='1695'> +1.5794752e-12 </wgt>
<wgt id='1696'> +1.5629250e-12 </wgt>
<wgt id='1697'> +1.5130481e-12 </wgt>
<wgt id='1698'> +1.5087009e-12 </wgt>
<wgt id='1699'> +1.5268681e-12 </wgt>
<wgt id='1700'> +1.5192063e-12 </wgt>
<wgt id='1701'> +1.5014261e-12 </wgt>
<wgt id='1702'> +1.5077491e-12 </wgt>
<wgt id='1703'> +1.5627499e-12 </wgt>
<wgt id='1704'> +1.5062979e-12 </wgt>
<wgt id='1705'> +1.4678018e-12 </wgt>
<wgt id='1706'> +1.5349817e-12 </wgt>
<wgt id='1707'> +1.4895387e-12 </wgt>
<wgt id='1708'> +1.4891808e-12 </wgt>
<wgt id='1709'> +1.5123358e-12 </wgt>
<wgt id='1710'> +1.4803916e-12 </wgt>
<wgt id='1711'> +1.5343406e-12 </wgt>
<wgt id='1712'> +1.5265477e-12 </wgt>
<wgt id='1713'> +1.2231907e-12 </wgt>
<wgt id='1714'> +1.1854450e-12 </wgt>
<wgt id='1715'> +1.2355363e-12 </wgt>
<wgt id='1716'> +1.2263172e-12 </wgt>
<wgt id='1717'> +1.2122934e-12 </wgt>
<wgt id='1718'> +1.2352719e-12 </wgt>
<wgt id='1719'> +1.2245099e-12 </wgt>
<wgt id='1720'> +1.2387400e-12 </wgt>
<wgt id='1721'> +1.1824477e-12 </wgt>
<wgt id='1722'> +1.2053421e-12 </wgt>
<wgt id='1723'> +1.2013324e-12 </wgt>
<wgt id='1724'> +1.2827852e-12 </wgt>
<wgt id='1725'> +1.2204202e-12 </wgt>
<wgt id='1726'> +1.2601260e-12 </wgt>
<wgt id='1727'> +1.2302349e-12 </wgt>
<wgt id='1728'> +1.2250358e-12 </wgt>
<wgt id='1729'> +1.2049342e-12 </wgt>
<wgt id='1730'> +1.2120974e-12 </wgt>
<wgt id='1731'> +1.1741445e-12 </wgt>
<wgt id='1732'> +1.2365763e-12 </wgt>
<wgt id='1733'> +1.2285122e-12 </wgt>
<wgt id='1734'> +1.2428909e-12 </wgt>
<wgt id='1735'> +1.2234107e-12 </wgt>
<wgt id='1736'> +1.2746798e-12 </wgt>
<wgt id='1737'> +1.2585613e-12 </wgt>
<wgt id='1738'> +1.2472179e-12 </wgt>
<wgt id='1739'> +1.1772463e-12 </wgt>
<wgt id='1740'> +1.2063856e-12 </wgt>
<wgt id='1741'> +1.2456928e-12 </wgt>
<wgt id='1742'> +1.2248156e-12 </wgt>
<wgt id='1743'> +1.2319039e-12 </wgt>
<wgt id='1744'> +1.2536333e-12 </wgt>
<wgt id='1745'> +1.1811269e-12 </wgt>
<wgt id='1746'> +1.2272851e-12 </wgt>
<wgt id='1747'> +1.2272377e-12 </wgt>
<wgt id='1748'> +1.2182954e-12 </wgt>
<wgt id='1749'> +1.2234724e-12 </wgt>
<wgt id='1750'> +1.2371248e-12 </wgt>
<wgt id='1751'> +1.1900965e-12 </wgt>
<wgt id='1752'> +1.2099586e-12 </wgt>
<wgt id='1753'> +1.2393375e-12 </wgt>
<wgt id='1754'> +1.2323230e-12 </wgt>
<wgt id='1755'> +1.2546774e-12 </wgt>
<wgt id='1756'> +1.2439581e-12 </wgt>
<wgt id='1757'> +1.2067476e-12 </wgt>
<wgt id='1758'> +1.2383375e-12 </wgt>
<wgt id='1759'> +1.2334907e-12 </wgt>
<wgt id='1760'> +1.1903881e-12 </wgt>
<wgt id='1761'> +1.2037493e-12 </wgt>
<wgt id='1762'> +1.2068361e-12 </wgt>
<wgt id='1763'> +1.2401253e-12 </wgt>
<wgt id='1764'> +1.2165406e-12 </wgt>
<wgt id='1765'> +1.2191933e-12 </wgt>
<wgt id='1766'> +1.2130482e-12 </wgt>
<wgt id='1767'> +1.2279468e-12 </wgt>
<wgt id='1768'> +1.2265867e-12 </wgt>
<wgt id='1769'> +1.2012667e-12 </wgt>
<wgt id='1770'> +1.2070440e-12 </wgt>
<wgt id='1771'> +1.2363509e-12 </wgt>
<wgt id='1772'> +1.2476681e-12 </wgt>
<wgt id='1773'> +1.2107576e-12 </wgt>
<wgt id='1774'> +1.2111761e-12 </wgt>
<wgt id='1775'> +1.2377443e-12 </wgt>
<wgt id='1776'> +1.2488732e-12 </wgt>
<wgt id='1777'> +1.1715553e-12 </wgt>
<wgt id='1778'> +1.2053031e-12 </wgt>
<wgt id='1779'> +1.2566317e-12 </wgt>
<wgt id='1780'> +1.2079127e-12 </wgt>
<wgt id='1781'> +1.2216129e-12 </wgt>
<wgt id='1782'> +1.2058702e-12 </wgt>
<wgt id='1783'> +1.2214943e-12 </wgt>
<wgt id='1784'> +1.2289913e-12 </wgt>
<wgt id='1785'> +1.2181771e-12 </wgt>
<wgt id='1786'> +1.1747874e-12 </wgt>
<wgt id='1787'> +1.2594286e-12 </wgt>
<wgt id='1788'> +1.2394229e-12 </wgt>
<wgt id='1789'> +1.2337293e-12 </wgt>
<wgt id='1790'> +1.2543074e-12 </wgt>
<wgt id='1791'> +1.2321566e-12 </wgt>
<wgt id='1792'> +1.2064674e-12 </wgt>
<wgt id='1793'> +1.2243093e-12 </wgt>
<wgt id='1794'> +1.2350887e-12 </wgt>
<wgt id='1795'> +1.2280517e-12 </wgt>
<wgt id='1796'> +1.2093018e-12 </wgt>
<wgt id='1797'> +1.2255262e-12 </wgt>
<wgt id='1798'> +1.2284229e-12 </wgt>
<wgt id='1799'> +1.2375801e-12 </wgt>
<wgt id='1800'> +1.2277063e-12 </wgt>
<wgt id='1801'> +1.2160445e-12 </wgt>
<wgt id='1802'> +1.2168957e-12 </wgt>
<wgt id='1803'> +1.2459851e-12 </wgt>
<wgt id='1804'> +1.2071949e-12 </wgt>
<wgt id='1805'> +1.2070924e-12 </wgt>
<wgt id='1806'> +1.2062645e-12 </wgt>
<wgt id='1807'> +1.2493127e-12 </wgt>
<wgt id='1808'> +1.2135999e-12 </wgt>
<wgt id='1809'> +1.2063161e-12 </wgt>
<wgt id='1810'> +1.2078626e-12 </wgt>
<wgt id='1811'> +1.2427749e-12 </wgt>
<wgt id='1812'> +1.2188354e-12 </wgt>
<wgt id='1813'> +1.2135753e-12 </wgt>
<wgt id='1814'> +1.4343584e-12 </wgt>
<wgt id='1815'> +1.6435073e-12 </wgt>
<wgt id='1816'> +1.2231907e-12 </wgt>
<wgt id='1817'> +1.1854450e-12 </wgt>
<wgt id='1818'> +1.2355363e-12 </wgt>
<wgt id='1819'> +1.2263172e-12 </wgt>
<wgt id='1820'> +1.2122934e-12 </wgt>
<wgt id='1821'> +1.2352719e-12 </wgt>
<wgt id='1822'> +1.2245099e-12 </wgt>
<wgt id='1823'> +1.2387400e-12 </wgt>
<wgt id='1824'> +1.1824477e-12 </wgt>
<wgt id='1825'> +1.2053421e-12 </wgt>
<wgt id='1826'> +1.2013324e-12 </wgt>
<wgt id='1827'> +1.2827852e-12 </wgt>
<wgt id='1828'> +1.2204202e-12 </wgt>
<wgt id='1829'> +1.2601260e-12 </wgt>
<wgt id='1830'> +1.2302349e-12 </wgt>
<wgt id='1831'> +1.2250358e-12 </wgt>
<wgt id='1832'> +1.2049342e-12 </wgt>
<wgt id='1833'> +1.2120974e-12 </wgt>
<wgt id='1834'> +1.1741445e-12 </wgt>
<wgt id='1835'> +1.2365763e-12 </wgt>
<wgt id='1836'> +1.2285122e-12 </wgt>
<wgt id='1837'> +1.2428909e-12 </wgt>
<wgt id='1838'> +1.2234107e-12 </wgt>
<wgt id='1839'> +1.2746798e-12 </wgt>
<wgt id='1840'> +1.2585613e-12 </wgt>
<wgt id='1841'> +1.2472179e-12 </wgt>
<wgt id='1842'> +1.1772463e-12 </wgt>
<wgt id='1843'> +1.2063856e-12 </wgt>
<wgt id='1844'> +1.2456928e-12 </wgt>
<wgt id='1845'> +1.2248156e-12 </wgt>
<wgt id='1846'> +1.2319039e-12 </wgt>
<wgt id='1847'> +1.2536333e-12 </wgt>
<wgt id='1848'> +1.1811269e-12 </wgt>
<wgt id='1849'> +1.2272851e-12 </wgt>
<wgt id='1850'> +1.2272377e-12 </wgt>
<wgt id='1851'> +1.2182954e-12 </wgt>
<wgt id='1852'> +1.2234724e-12 </wgt>
<wgt id='1853'> +1.2371248e-12 </wgt>
<wgt id='1854'> +1.1900965e-12 </wgt>
<wgt id='1855'> +1.2099586e-12 </wgt>
<wgt id='1856'> +1.2393375e-12 </wgt>
<wgt id='1857'> +1.2323230e-12 </wgt>
<wgt id='1858'> +1.2546774e-12 </wgt>
<wgt id='1859'> +1.2439581e-12 </wgt>
<wgt id='1860'> +1.2067476e-12 </wgt>
<wgt id='1861'> +1.2383375e-12 </wgt>
<wgt id='1862'> +1.2334907e-12 </wgt>
<wgt id='1863'> +1.1903881e-12 </wgt>
<wgt id='1864'> +1.2037493e-12 </wgt>
<wgt id='1865'> +1.2068361e-12 </wgt>
<wgt id='1866'> +1.2401253e-12 </wgt>
<wgt id='1867'> +1.2165406e-12 </wgt>
<wgt id='1868'> +1.2191933e-12 </wgt>
<wgt id='1869'> +1.2130482e-12 </wgt>
<wgt id='1870'> +1.2279468e-12 </wgt>
<wgt id='1871'> +1.2265867e-12 </wgt>
<wgt id='1872'> +1.2012667e-12 </wgt>
<wgt id='1873'> +1.2070440e-12 </wgt>
<wgt id='1874'> +1.2363509e-12 </wgt>
<wgt id='1875'> +1.2476681e-12 </wgt>
<wgt id='1876'> +1.2107576e-12 </wgt>
<wgt id='1877'> +1.2111761e-12 </wgt>
<wgt id='1878'> +1.2377443e-12 </wgt>
<wgt id='1879'> +1.2488732e-12 </wgt>
<wgt id='1880'> +1.1715553e-12 </wgt>
<wgt id='1881'> +1.2053031e-12 </wgt>
<wgt id='1882'> +1.2566317e-12 </wgt>
<wgt id='1883'> +1.2079127e-12 </wgt>
<wgt id='1884'> +1.2216129e-12 </wgt>
<wgt id='1885'> +1.2058702e-12 </wgt>
<wgt id='1886'> +1.2214943e-12 </wgt>
<wgt id='1887'> +1.2289913e-12 </wgt>
<wgt id='1888'> +1.2181771e-12 </wgt>
<wgt id='1889'> +1.1747874e-12 </wgt>
<wgt id='1890'> +1.2594286e-12 </wgt>
<wgt id='1891'> +1.2394229e-12 </wgt>
<wgt id='1892'> +1.2337293e-12 </wgt>
<wgt id='1893'> +1.2543074e-12 </wgt>
<wgt id='1894'> +1.2321566e-12 </wgt>
<wgt id='1895'> +1.2064674e-12 </wgt>
<wgt id='1896'> +1.2243093e-12 </wgt>
<wgt id='1897'> +1.2350887e-12 </wgt>
<wgt id='1898'> +1.2280517e-12 </wgt>
<wgt id='1899'> +1.2093018e-12 </wgt>
<wgt id='1900'> +1.2255262e-12 </wgt>
<wgt id='1901'> +1.2284229e-12 </wgt>
<wgt id='1902'> +1.2375801e-12 </wgt>
<wgt id='1903'> +1.2277063e-12 </wgt>
<wgt id='1904'> +1.2160445e-12 </wgt>
<wgt id='1905'> +1.2168957e-12 </wgt>
<wgt id='1906'> +1.2459851e-12 </wgt>
<wgt id='1907'> +1.2071949e-12 </wgt>
<wgt id='1908'> +1.2070924e-12 </wgt>
<wgt id='1909'> +1.2062645e-12 </wgt>
<wgt id='1910'> +1.2493127e-12 </wgt>
<wgt id='1911'> +1.2135999e-12 </wgt>
<wgt id='1912'> +1.2063161e-12 </wgt>
<wgt id='1913'> +1.2078626e-12 </wgt>
<wgt id='1914'> +1.2427749e-12 </wgt>
<wgt id='1915'> +1.2188354e-12 </wgt>
<wgt id='1916'> +1.2135753e-12 </wgt>
<wgt id='1917'> +1.2135065e-12 </wgt>
<wgt id='1918'> +1.2275895e-12 </wgt>
<wgt id='1919'> +1.2438664e-12 </wgt>
</rwgt>
</event>
<event>
 9      1 +1.5607000e-12 2.68591900e+01 7.81860800e-03 1.48366000e-01
        1 -1    0    0  502    0 -0.0000000000e+00 +0.0000000000e+00 +5.1935460641e+00 5.1935460641e+00 0.0000000000e+00 0.0000e+00 -1.0000e+00
       21 -1    0    0  501  502 +0.0000000000e+00 -0.0000000000e+00 -1.3345305165e+02 1.3345305165e+02 0.0000000000e+00 0.0000e+00 -1.0000e+00
     1023  2    1    2    0    0 -1.3904887578e+01 -1.7405676448e+01 -4.4522762174e+01 5.1997041060e+01 1.5003748072e+01 0.0000e+00 0.0000e+00
  1000023  2    3    3    0    0 -8.0693516415e+00 -3.8434817878e+00 -2.4255467716e+01 2.6428509066e+01 5.5001444670e+00 0.0000e+00 0.0000e+00
        1  1    1    2  501    0 +1.3904887578e+01 +1.7405676448e+01 -8.3736743415e+01 8.6649556658e+01 0.0000000000e+00 0.0000e+00 -1.0000e+00
  1000022  1    4    4    0    0 -6.8537186275e+00 -3.0560358248e+00 -2.0746417671e+01 2.2621376177e+01 5.0000000000e+00 0.0000e+00 -1.0000e+00
      -13  1    4    4    0    0 -4.1913107957e-01 -3.8157845490e-01 -1.3755176813e+00 1.4914738887e+00 1.0570000000e-01 0.0000e+00 1.0000e+00
       13  1    4    4    0    0 -7.9650193439e-01 -4.0586750815e-01 -2.1335323640e+00 2.3156589999e+00 1.0570000000e-01 0.0000e+00 -1.0000e+00
  1000022  1    3    3    0    0 -5.8355359361e+00 -1.3562194661e+01 -2.0267294458e+01 2.5568531994e+01 5.0000000000e+00 0.0000e+00 -1.0000e+00
<mgrwt>
<rscale>  1 0.26859187E+02</rscale>
<asrwt>0</asrwt>
<pdfrwt beam="1">  1       21 0.20531235E-01 0.26859187E+02</pdfrwt>
<pdfrwt beam="2">  1        1 0.79900723E-03 0.26859187E+02</pdfrwt>
<totfact> 0.45679032E+06</totfact>
</mgrwt>
<rwgt>
<wgt id='1001'> +1.5607000e-12 </wgt>
<wgt id='1002'> +1.5865541e-12 </wgt>
<wgt id='1003'> +1.5875246e-12 </wgt>
<wgt id='1004'> +1.5527807e-12 </wgt>
<wgt id='1005'> +1.5893022e-12 </wgt>
<wgt id='1006'> +1.3613994e-12 </wgt>
<wgt id='1007'> +1.4036748e-12 </wgt>
<wgt id='1008'> +1.4058073e-12 </wgt>
<wgt id='1009'> +1.3502802e-12 </wgt>
<wgt id='1010'> +1.4100618e-12 </wgt>
<wgt id='1011'> +1.8318589e-12 </wgt>
<wgt id='1012'> +1.8266707e-12 </wgt>
<wgt id='1013'> +1.8256045e-12 </wgt>
<wgt id='1014'> +1.8304532e-12 </wgt>
<wgt id='1015'> +1.8230315e-12 </wgt>
<wgt id='1016'> +1.8223717e-12 </wgt>
<wgt id='1017'> +1.7978891e-12 </wgt>
<wgt id='1018'> +1.7957110e-12 </wgt>
<wgt id='1019'> +1.8256045e-12 </wgt>
<wgt id='1020'> +1.7908787e-12 </wgt>
<wgt id='1021'> +1.5896558e-12 </wgt>
<wgt id='1022'> +1.5906496e-12 </wgt>
<wgt id='1023'> +1.5901635e-12 </wgt>
<wgt id='1024'> +1.5875246e-12 </wgt>
<wgt id='1025'> +1.5889046e-12 </wgt>
<wgt id='1026'> +2.1389939e-12 </wgt>
<wgt id='1027'> +2.0699902e-12 </wgt>
<wgt id='1028'> +2.0650125e-12 </wgt>
<wgt id='1029'> +2.1520641e-12 </wgt>
<wgt id='1030'> +2.0542525e-12 </wgt>
<wgt id='1031'> +1.2648431e-12 </wgt>
<wgt id='1032'> +1.3458549e-12 </wgt>
<wgt id='1033'> +1.3502802e-12 </wgt>
<wgt id='1034'> +1.2446970e-12 </wgt>
<wgt id='1035'> +1.3593499e-12 </wgt>
<wgt id='1036'> +1.1033233e-12 </wgt>
<wgt id='1037'> +1.1907206e-12 </wgt>
<wgt id='1038'> +1.1957193e-12 </wgt>
<wgt id='1039'> +1.0823741e-12 </wgt>
<wgt id='1040'> +1.2060434e-12 </wgt>
<wgt id='1041'> +1.4845993e-12 </wgt>
<wgt id='1042'> +1.5495430e-12 </wgt>
<wgt id='1043'> +1.5527807e-12 </wgt>
<wgt id='1044'> +1.4672771e-12 </wgt>
<wgt id='1045'> +1.5592614e-12 </wgt>
<wgt id='1046'> +1.5607000e-12 </wgt>
<wgt id='1047'> +1.5174588e-12 </wgt>
<wgt id='1048'> +1.5630653e-12 </wgt>
<wgt id='1049'> +1.5181892e-12 </wgt>
<wgt id='1050'> +1.5718864e-12 </wgt>
<wgt id='1051'> +1.5716097e-12 </wgt>
<wgt id='1052'> +1.5840928e-12 </wgt>
<wgt id='1053'> +1.5563567e-12 </wgt>
<wgt id='1054'> +1.5083547e-12 </wgt>
<wgt id='1055'> +1.5742267e-12 </wgt>
<wgt id='1056'> +1.6027987e-12 </wgt>
<wgt id='1057'> +1.5673364e-12 </wgt>
<wgt id='1058'> +1.5333797e-12 </wgt>
<wgt id='1059'> +1.5715955e-12 </wgt>
<wgt id='1060'> +1.5141919e-12 </wgt>
<wgt id='1061'> +1.5999429e-12 </wgt>
<wgt id='1062'> +1.5941528e-12 </wgt>
<wgt id='1063'> +1.6160007e-12 </wgt>
<wgt id='1064'> +1.5447049e-12 </wgt>
<wgt id='1065'> +1.5684646e-12 </wgt>
<wgt id='1066'> +1.5627061e-12 </wgt>
<wgt id='1067'> +1.5243519e-12 </wgt>
<wgt id='1068'> +1.5696989e-12 </wgt>
<wgt id='1069'> +1.5581066e-12 </wgt>
<wgt id='1070'> +1.5278480e-12 </wgt>
<wgt id='1071'> +1.5410852e-12 </wgt>
<wgt id='1072'> +1.5218810e-12 </wgt>
<wgt id='1073'> +1.6590529e-12 </wgt>
<wgt id='1074'> +1.5333122e-12 </wgt>
<wgt id='1075'> +1.5988048e-12 </wgt>
<wgt id='1076'> +1.6348532e-12 </wgt>
<wgt id='1077'> +1.5302762e-12 </wgt>
<wgt id='1078'> +1.5730950e-12 </wgt>
<wgt id='1079'> +1.5644859e-12 </wgt>
<wgt id='1080'> +1.5351582e-12 </wgt>
<wgt id='1081'> +1.5797249e-12 </wgt>
<wgt id='1082'> +1.5381592e-12 </wgt>
<wgt id='1083'> +1.5442289e-12 </wgt>
<wgt id='1084'> +1.5597656e-12 </wgt>
<wgt id='1085'> +1.5602971e-12 </wgt>
<wgt id='1086'> +1.5422949e-12 </wgt>
<wgt id='1087'> +1.5788185e-12 </wgt>
<wgt id='1088'> +1.5557766e-12 </wgt>
<wgt id='1089'> +1.5885155e-12 </wgt>
<wgt id='1090'> +1.5571951e-12 </wgt>
<wgt id='1091'> +1.5331816e-12 </wgt>
<wgt id='1092'> +1.5732105e-12 </wgt>
<wgt id='1093'> +1.5325444e-12 </wgt>
<wgt id='1094'> +1.4763296e-12 </wgt>
<wgt id='1095'> +1.6202557e-12 </wgt>
<wgt id='1096'> +1.5969469e-12 </wgt>
<wgt id='1097'> +1.5037046e-12 </wgt>
<wgt id='1098'> +1.5375086e-12 </wgt>
<wgt id='1099'> +1.6007336e-12 </wgt>
<wgt id='1100'> +1.5645042e-12 </wgt>
<wgt id='1101'> +1.4757464e-12 </wgt>
<wgt id='1102'> +1.5586688e-12 </wgt>
<wgt id='1103'> +1.5663771e-12 </wgt>
<wgt id='1104'> +1.5384561e-12 </wgt>
<wgt id='1105'> +1.6305481e-12 </wgt>
<wgt id='1106'> +1.5157917e-12 </wgt>
<wgt id='1107'> +1.5927598e-12 </wgt>
<wgt id='1108'> +1.5503240e-12 </wgt>
<wgt id='1109'> +1.5857804e-12 </wgt>
<wgt id='1110'> +1.4974769e-12 </wgt>
<wgt id='1111'> +1.5615693e-12 </wgt>
<wgt id='1112'> +1.5431174e-12 </wgt>
<wgt id='1113'> +1.5177008e-12 </wgt>
<wgt id='1114'> +1.6065922e-12 </wgt>
<wgt id='1115'> +1.5633669e-12 </wgt>
<wgt id='1116'> +1.5346262e-12 </wgt>
<wgt id='1117'> +1.5907121e-12 </wgt>
<wgt id='1118'> +1.5794952e-12 </wgt>
<wgt id='1119'> +1.5584765e-12 </wgt>
<wgt id='1120'> +1.6024300e-12 </wgt>
<wgt id='1121'> +1.5701426e-12 </wgt>
<wgt id='1122'> +1.5853235e-12 </wgt>
<wgt id='1123'> +1.5617516e-12 </wgt>
<wgt id='1124'> +1.5826993e-12 </wgt>
<wgt id='1125'> +1.5700625e-12 </wgt>
<wgt id='1126'> +1.5415351e-12 </wgt>
<wgt id='1127'> +1.5478842e-12 </wgt>
<wgt id='1128'> +1.5941528e-12 </wgt>
<wgt id='1129'> +1.5614011e-12 </wgt>
<wgt id='1130'> +1.5658564e-12 </wgt>
<wgt id='1131'> +1.5786827e-12 </wgt>
<wgt id='1132'> +1.5537127e-12 </wgt>
<wgt id='1133'> +1.5816623e-12 </wgt>
<wgt id='1134'> +1.6004449e-12 </wgt>
<wgt id='1135'> +1.5859457e-12 </wgt>
<wgt id='1136'> +1.5316864e-12 </wgt>
<wgt id='1137'> +1.5286507e-12 </wgt>
<wgt id='1138'> +1.5724057e-12 </wgt>
<wgt id='1139'> +1.5851420e-12 </wgt>
<wgt id='1140'> +1.5670973e-12 </wgt>
<wgt id='1141'> +1.5342552e-12 </wgt>
<wgt id='1142'> +1.5596334e-12 </wgt>
<wgt id='1143'> +1.5192858e-12 </wgt>
<wgt id='1144'> +1.5690683e-12 </wgt>
<wgt id='1145'> +1.5372789e-12 </wgt>
<wgt id='1146'> +1.5602715e-12 </wgt>
<wgt id='1147'> +1.2029548e-12 </wgt>
<wgt id='1148'> +1.2317217e-12 </wgt>
<wgt id='1149'> +1.2455582e-12 </wgt>
<wgt id='1150'> +1.1667101e-12 </wgt>
<wgt id='1151'> +1.0200348e-12 </wgt>
<wgt id='1152'> +1.4865592e-12 </wgt>
<wgt id='1153'> +1.4794017e-12 </wgt>
<wgt id='1154'> +1.4906972e-12 </wgt>
<wgt id='1155'> +1.4862824e-12 </wgt>
<wgt id='1156'> +1.4867303e-12 </wgt>
<wgt id='1157'> +1.4890233e-12 </wgt>
<wgt id='1158'> +1.4832195e-12 </wgt>
<wgt id='1159'> +1.4885291e-12 </wgt>
<wgt id='1160'> +1.4852724e-12 </wgt>
<wgt id='1161'> +1.4806584e-12 </wgt>
<wgt id='1162'> +1.4906161e-12 </wgt>
<wgt id='1163'> +1.4907222e-12 </wgt>
<wgt id='1164'> +1.4823670e-12 </wgt>
<wgt id='1165'> +1.4765172e-12 </wgt>
<wgt id='1166'> +1.4964035e-12 </wgt>
<wgt id='1167'> +1.4955502e-12 </wgt>
<wgt id='1168'> +1.4744316e-12 </wgt>
<wgt id='1169'> +1.4878529e-12 </wgt>
<wgt id='1170'> +1.4857294e-12 </wgt>
<wgt id='1171'> +1.4856868e-12 </wgt>
<wgt id='1172'> +1.4875310e-12 </wgt>
<wgt id='1173'> +1.4813419e-12 </wgt>
<wgt id='1174'> +1.4910960e-12 </wgt>
<wgt id='1175'> +1.4878819e-12 </wgt>
<wgt id='1176'> +1.4848606e-12 </wgt>
<wgt id='1177'> +1.4858784e-12 </wgt>
<wgt id='1178'> +1.4894215e-12 </wgt>
<wgt id='1179'> +1.4993405e-12 </wgt>
<wgt id='1180'> +1.4697869e-12 </wgt>
<wgt id='1181'> +1.4798755e-12 </wgt>
<wgt id='1182'> +1.4934376e-12 </wgt>
<wgt id='1183'> +1.4867965e-12 </wgt>
<wgt id='1184'> +1.4866257e-12 </wgt>
<wgt id='1185'> +1.4807218e-12 </wgt>
<wgt id='1186'> +1.4894816e-12 </wgt>
<wgt id='1187'> +1.4847565e-12 </wgt>
<wgt id='1188'> +1.4871521e-12 </wgt>
<wgt id='1189'> +1.4839230e-12 </wgt>
<wgt id='1190'> +1.4684372e-12 </wgt>
<wgt id='1191'> +1.4809021e-12 </wgt>
<wgt id='1192'> +1.4930149e-12 </wgt>
<wgt id='1193'> +1.2549413e-12 </wgt>
<wgt id='1194'> +1.2486601e-12 </wgt>
<wgt id='1195'> +1.2600186e-12 </wgt>
<wgt id='1196'> +1.2596115e-12 </wgt>
<wgt id='1197'> +1.2498160e-12 </wgt>
<wgt id='1198'> +1.2556435e-12 </wgt>
<wgt id='1199'> +1.2538594e-12 </wgt>
<wgt id='1200'> +1.2568698e-12 </wgt>
<wgt id='1201'> +1.2537059e-12 </wgt>
<wgt id='1202'> +1.2526822e-12 </wgt>
<wgt id='1203'> +1.2581161e-12 </wgt>
<wgt id='1204'> +1.2415318e-12 </wgt>
<wgt id='1205'> +1.2632542e-12 </wgt>
<wgt id='1206'> +1.2603438e-12 </wgt>
<wgt id='1207'> +1.2475914e-12 </wgt>
<wgt id='1208'> +1.2481222e-12 </wgt>
<wgt id='1209'> +1.2574236e-12 </wgt>
<wgt id='1210'> +1.2531031e-12 </wgt>
<wgt id='1211'> +1.2485474e-12 </wgt>
<wgt id='1212'> +1.2557344e-12 </wgt>
<wgt id='1213'> +1.2542475e-12 </wgt>
<wgt id='1214'> +1.2422409e-12 </wgt>
<wgt id='1215'> +1.2737525e-12 </wgt>
<wgt id='1216'> +1.2610031e-12 </wgt>
<wgt id='1217'> +1.2505059e-12 </wgt>
<wgt id='1218'> +1.2596908e-12 </wgt>
<wgt id='1219'> +1.2523737e-12 </wgt>
<wgt id='1220'> +1.2574080e-12 </wgt>
<wgt id='1221'> +1.2582870e-12 </wgt>
<wgt id='1222'> +1.2541231e-12 </wgt>
<wgt id='1223'> +1.2580902e-12 </wgt>
<wgt id='1224'> +1.2568790e-12 </wgt>
<wgt id='1225'> +1.2541908e-12 </wgt>
<wgt id='1226'> +1.2532577e-12 </wgt>
<wgt id='1227'> +1.2561518e-12 </wgt>
<wgt id='1228'> +1.2519261e-12 </wgt>
<wgt id='1229'> +1.2561606e-12 </wgt>
<wgt id='1230'> +1.2597351e-12 </wgt>
<wgt id='1231'> +1.2457215e-12 </wgt>
<wgt id='1232'> +1.2535459e-12 </wgt>
<wgt id='1233'> +1.2553099e-12 </wgt>
<wgt id='1234'> +1.2549413e-12 </wgt>
<wgt id='1235'> +1.2470331e-12 </wgt>
<wgt id='1236'> +1.2499913e-12 </wgt>
<wgt id='1237'> +1.2527780e-12 </wgt>
<wgt id='1238'> +1.2574872e-12 </wgt>
<wgt id='1239'> +1.2593127e-12 </wgt>
<wgt id='1240'> +1.2611146e-12 </wgt>
<wgt id='1241'> +1.2839214e-12 </wgt>
<wgt id='1242'> +1.2750681e-12 </wgt>
<wgt id='1243'> +1.2927394e-12 </wgt>
<wgt id='1244'> +1.2782456e-12 </wgt>
<wgt id='1245'> +1.2881690e-12 </wgt>
<wgt id='1246'> +1.2847052e-12 </wgt>
<wgt id='1247'> +1.2832929e-12 </wgt>
<wgt id='1248'> +1.2838693e-12 </wgt>
<wgt id='1249'> +1.2840006e-12 </wgt>
<wgt id='1250'> +1.2842561e-12 </wgt>
<wgt id='1251'> +1.2836918e-12 </wgt>
<wgt id='1252'> +1.2802259e-12 </wgt>
<wgt id='1253'> +1.2868419e-12 </wgt>
<wgt id='1254'> +1.2708347e-12 </wgt>
<wgt id='1255'> +1.2918277e-12 </wgt>
<wgt id='1256'> +1.2882101e-12 </wgt>
<wgt id='1257'> +1.2732158e-12 </wgt>
<wgt id='1258'> +1.3003745e-12 </wgt>
<wgt id='1259'> +1.2680625e-12 </wgt>
<wgt id='1260'> +1.2874560e-12 </wgt>
<wgt id='1261'> +1.2801985e-12 </wgt>
<wgt id='1262'> +1.2861326e-12 </wgt>
<wgt id='1263'> +1.2829366e-12 </wgt>
<wgt id='1264'> +1.2892942e-12 </wgt>
<wgt id='1265'> +1.2814555e-12 </wgt>
<wgt id='1266'> +1.2839665e-12 </wgt>
<wgt id='1267'> +1.2850724e-12 </wgt>
<wgt id='1268'> +1.2853672e-12 </wgt>
<wgt id='1269'> +1.2869629e-12 </wgt>
<wgt id='1270'> +1.2804360e-12 </wgt>
<wgt id='1271'> +1.2799389e-12 </wgt>
<wgt id='1272'> +1.2853674e-12 </wgt>
<wgt id='1273'> +1.2832710e-12 </wgt>
<wgt id='1274'> +1.2856427e-12 </wgt>
<wgt id='1275'> +1.2803397e-12 </wgt>
<wgt id='1276'> +1.2853984e-12 </wgt>
<wgt id='1277'> +1.2817408e-12 </wgt>
<wgt id='1278'> +1.2837658e-12 </wgt>
<wgt id='1279'> +1.2842706e-12 </wgt>
<wgt id='1280'> +1.2844363e-12 </wgt>
<wgt id='1281'> +1.2828122e-12 </wgt>
<wgt id='1282'> +1.2839214e-12 </wgt>
<wgt id='1283'> +1.2745563e-12 </wgt>
<wgt id='1284'> +1.2782517e-12 </wgt>
<wgt id='1285'> +1.2813828e-12 </wgt>
<wgt id='1286'> +1.2866729e-12 </wgt>
<wgt id='1287'> +1.2886861e-12 </wgt>
<wgt id='1288'> +1.2905209e-12 </wgt>
<wgt id='1289'> +1.2838145e-12 </wgt>
<wgt id='1290'> +1.2908047e-12 </wgt>
<wgt id='1291'> +1.2763344e-12 </wgt>
<wgt id='1292'> +1.2798011e-12 </wgt>
<wgt id='1293'> +1.2867683e-12 </wgt>
<wgt id='1294'> +1.2829339e-12 </wgt>
<wgt id='1295'> +1.2845699e-12 </wgt>
<wgt id='1296'> +1.2787748e-12 </wgt>
<wgt id='1297'> +1.2901725e-12 </wgt>
<wgt id='1298'> +1.2897995e-12 </wgt>
<wgt id='1299'> +1.2763458e-12 </wgt>
<wgt id='1300'> +1.2875365e-12 </wgt>
<wgt id='1301'> +1.2764164e-12 </wgt>
<wgt id='1302'> +1.2825985e-12 </wgt>
<wgt id='1303'> +1.2855811e-12 </wgt>
<wgt id='1304'> +1.2807799e-12 </wgt>
<wgt id='1305'> +1.2858256e-12 </wgt>
<wgt id='1306'> +1.2796691e-12 </wgt>
<wgt id='1307'> +1.2885440e-12 </wgt>
<wgt id='1308'> +1.2956238e-12 </wgt>
<wgt id='1309'> +1.2748228e-12 </wgt>
<wgt id='1310'> +1.2808268e-12 </wgt>
<wgt id='1311'> +1.2872262e-12 </wgt>
<wgt id='1312'> +1.2801773e-12 </wgt>
<wgt id='1313'> +1.2877726e-12 </wgt>
<wgt id='1314'> +1.2865134e-12 </wgt>
<wgt id='1315'> +1.2737436e-12 </wgt>
<wgt id='1316'> +1.2933882e-12 </wgt>
<wgt id='1317'> +1.2826418e-12 </wgt>
<wgt id='1318'> +1.2905647e-12 </wgt>
<wgt id='1319'> +1.2751011e-12 </wgt>
<wgt id='1320'> +1.2883701e-12 </wgt>
<wgt id='1321'> +1.2785506e-12 </wgt>
<wgt id='1322'> +1.2832846e-12 </wgt>
<wgt id='1323'> +1.2843414e-12 </wgt>
<wgt id='1324'> +1.2818256e-12 </wgt>
<wgt id='1325'> +1.2930145e-12 </wgt>
<wgt id='1326'> +1.2822331e-12 </wgt>
<wgt id='1327'> +1.2876932e-12 </wgt>
<wgt id='1328'> +1.2845258e-12 </wgt>
<wgt id='1329'> +1.2829648e-12 </wgt>
<wgt id='1330'> +1.2605697e-12 </wgt>
<wgt id='1331'> +1.2959313e-12 </wgt>
<wgt id='1332'> +1.3077998e-12 </wgt>
<wgt id='1333'> +1.2694001e-12 </wgt>
<wgt id='1334'> +1.2794676e-12 </wgt>
<wgt id='1335'> +1.2942521e-12 </wgt>
<wgt id='1336'> +1.2870957e-12 </wgt>
<wgt id='1337'> +1.2755964e-12 </wgt>
<wgt id='1338'> +1.2852411e-12 </wgt>
<wgt id='1339'> +1.2831464e-12 </wgt>
<wgt id='1340'> +1.2577209e-12 </wgt>
<wgt id='1341'> +1.2647830e-12 </wgt>
<wgt id='1342'> +1.2502268e-12 </wgt>
<wgt id='1343'> +1.2536357e-12 </wgt>
<wgt id='1344'> +1.2605473e-12 </wgt>
<wgt id='1345'> +1.2566196e-12 </wgt>
<wgt id='1346'> +1.2587416e-12 </wgt>
<wgt id='1347'> +1.2527502e-12 </wgt>
<wgt id='1348'> +1.2632897e-12 </wgt>
<wgt id='1349'> +1.2629953e-12 </wgt>
<wgt id='1350'> +1.2526124e-12 </wgt>
<wgt id='1351'> +1.2614151e-12 </wgt>
<wgt id='1352'> +1.2497735e-12 </wgt>
<wgt id='1353'> +1.2559663e-12 </wgt>
<wgt id='1354'> +1.2609679e-12 </wgt>
<wgt id='1355'> +1.2549210e-12 </wgt>
<wgt id='1356'> +1.2593423e-12 </wgt>
<wgt id='1357'> +1.2569182e-12 </wgt>
<wgt id='1358'> +1.2589078e-12 </wgt>
<wgt id='1359'> +1.2706402e-12 </wgt>
<wgt id='1360'> +1.2466355e-12 </wgt>
<wgt id='1361'> +1.2549837e-12 </wgt>
<wgt id='1362'> +1.2616226e-12 </wgt>
<wgt id='1363'> +1.2529874e-12 </wgt>
<wgt id='1364'> +1.2615144e-12 </wgt>
<wgt id='1365'> +1.2487354e-12 </wgt>
<wgt id='1366'> +1.2588939e-12 </wgt>
<wgt id='1367'> +1.2665046e-12 </wgt>
<wgt id='1368'> +1.2563722e-12 </wgt>
<wgt id='1369'> +1.2637310e-12 </wgt>
<wgt id='1370'> +1.2503375e-12 </wgt>
<wgt id='1371'> +1.2611795e-12 </wgt>
<wgt id='1372'> +1.2524541e-12 </wgt>
<wgt id='1373'> +1.2564495e-12 </wgt>
<wgt id='1374'> +1.2586272e-12 </wgt>
<wgt id='1375'> +1.2558956e-12 </wgt>
<wgt id='1376'> +1.2668585e-12 </wgt>
<wgt id='1377'> +1.2564137e-12 </wgt>
<wgt id='1378'> +1.2615159e-12 </wgt>
<wgt id='1379'> +1.2580787e-12 </wgt>
<wgt id='1380'> +1.2572104e-12 </wgt>
<wgt id='1381'> +1.2330519e-12 </wgt>
<wgt id='1382'> +1.2691791e-12 </wgt>
<wgt id='1383'> +1.2817603e-12 </wgt>
<wgt id='1384'> +1.2406671e-12 </wgt>
<wgt id='1385'> +1.2531536e-12 </wgt>
<wgt id='1386'> +1.2678488e-12 </wgt>
<wgt id='1387'> +1.2616169e-12 </wgt>
<wgt id='1388'> +1.2469954e-12 </wgt>
<wgt id='1389'> +1.2596064e-12 </wgt>
<wgt id='1390'> +1.2566120e-12 </wgt>
<wgt id='1391'> +1.2415523e-12 </wgt>
<wgt id='1392'> +1.2066702e-12 </wgt>
<wgt id='1393'> +1.2173320e-12 </wgt>
<wgt id='1394'> +1.2291197e-12 </wgt>
<wgt id='1395'> +1.2501693e-12 </wgt>
<wgt id='1396'> +1.2404965e-12 </wgt>
<wgt id='1397'> +1.2090444e-12 </wgt>
<wgt id='1398'> +1.2154611e-12 </wgt>
<wgt id='1399'> +1.2216940e-12 </wgt>
<wgt id='1400'> +1.2276795e-12 </wgt>
<wgt id='1401'> +1.2339727e-12 </wgt>
<wgt id='1402'> +1.2456660e-12 </wgt>
<wgt id='1403'> +1.2515748e-12 </wgt>
<wgt id='1404'> +1.2567609e-12 </wgt>
<wgt id='1405'> +1.2404965e-12 </wgt>
<wgt id='1406'> +1.2362313e-12 </wgt>
<wgt id='1407'> +1.2385836e-12 </wgt>
<wgt id='1408'> +1.2423106e-12 </wgt>
<wgt id='1409'> +1.2433616e-12 </wgt>
<wgt id='1410'> +1.2582940e-12 </wgt>
<wgt id='1411'> +1.2634324e-12 </wgt>
<wgt id='1412'> +1.2516164e-12 </wgt>
<wgt id='1413'> +1.2638706e-12 </wgt>
<wgt id='1414'> +1.2527105e-12 </wgt>
<wgt id='1415'> +1.2535747e-12 </wgt>
<wgt id='1416'> +1.2601013e-12 </wgt>
<wgt id='1417'> +1.2496083e-12 </wgt>
<wgt id='1418'> +1.2669095e-12 </wgt>
<wgt id='1419'> +1.2599049e-12 </wgt>
<wgt id='1420'> +1.2567046e-12 </wgt>
<wgt id='1421'> +1.2449375e-12 </wgt>
<wgt id='1422'> +1.2640483e-12 </wgt>
<wgt id='1423'> +1.2580316e-12 </wgt>
<wgt id='1424'> +1.2585270e-12 </wgt>
<wgt id='1425'> +1.2542631e-12 </wgt>
<wgt id='1426'> +1.2626399e-12 </wgt>
<wgt id='1427'> +1.2608376e-12 </wgt>
<wgt id='1428'> +1.2565997e-12 </wgt>
<wgt id='1429'> +1.2508424e-12 </wgt>
<wgt id='1430'> +1.2682719e-12 </wgt>
<wgt id='1431'> +1.2662671e-12 </wgt>
<wgt id='1432'> +1.2526313e-12 </wgt>
<wgt id='1433'> +1.2644407e-12 </wgt>
<wgt id='1434'> +1.2504210e-12 </wgt>
<wgt id='1435'> +1.2609436e-12 </wgt>
<wgt id='1436'> +1.2518542e-12 </wgt>
<wgt id='1437'> +1.2673828e-12 </wgt>
<wgt id='1438'> +1.2566808e-12 </wgt>
<wgt id='1439'> +1.2527893e-12 </wgt>
<wgt id='1440'> +1.2693098e-12 </wgt>
<wgt id='1441'> +1.2596866e-12 </wgt>
<wgt id='1442'> +1.2561105e-12 </wgt>
<wgt id='1443'> +1.2566789e-12 </wgt>
<wgt id='1444'> +1.2633314e-12 </wgt>
<wgt id='1445'> +1.2681654e-12 </wgt>
<wgt id='1446'> +1.2553873e-12 </wgt>
<wgt id='1447'> +1.2578708e-12 </wgt>
<wgt id='1448'> +1.2623805e-12 </wgt>
<wgt id='1449'> +1.2590939e-12 </wgt>
<wgt id='1450'> +1.2573945e-12 </wgt>
<wgt id='1451'> +1.2659612e-12 </wgt>
<wgt id='1452'> +1.2359388e-12 </wgt>
<wgt id='1453'> +1.2604574e-12 </wgt>
<wgt id='1454'> +1.2446314e-12 </wgt>
<wgt id='1455'> +1.2442533e-12 </wgt>
<wgt id='1456'> +1.2692469e-12 </wgt>
<wgt id='1457'> +1.2671255e-12 </wgt>
<wgt id='1458'> +1.2548596e-12 </wgt>
<wgt id='1459'> +1.2623665e-12 </wgt>
<wgt id='1460'> +1.2572591e-12 </wgt>
<wgt id='1461'> +1.2582940e-12 </wgt>
<wgt id='1462'> +1.2499258e-12 </wgt>
<wgt id='1463'> +1.2678419e-12 </wgt>
<wgt id='1464'> +1.2591498e-12 </wgt>
<wgt id='1465'> +1.2324246e-12 </wgt>
<wgt id='1466'> +1.2379726e-12 </wgt>
<wgt id='1467'> +1.2437715e-12 </wgt>
<wgt id='1468'> +1.2488996e-12 </wgt>
<wgt id='1469'> +1.2539917e-12 </wgt>
<wgt id='1470'> +1.2647353e-12 </wgt>
<wgt id='1471'> +1.2691451e-12 </wgt>
<wgt id='1472'> +1.2741640e-12 </wgt>
<wgt id='1473'> +1.2591498e-12 </wgt>
<wgt id='1474'> +1.2543208e-12 </wgt>
<wgt id='1475'> +1.2563081e-12 </wgt>
<wgt id='1476'> +1.2611567e-12 </wgt>
<wgt id='1477'> +1.2631095e-12 </wgt>
<wgt id='1478'> +1.1977573e-12 </wgt>
<wgt id='1479'> +1.1963203e-12 </wgt>
<wgt id='1480'> +1.2318879e-12 </wgt>
<wgt id='1481'> +1.1919049e-12 </wgt>
<wgt id='1482'> +1.1992380e-12 </wgt>
<wgt id='1483'> +1.1976261e-12 </wgt>
<wgt id='1484'> +1.2010799e-12 </wgt>
<wgt id='1485'> +1.2007384e-12 </wgt>
<wgt id='1486'> +1.1977140e-12 </wgt>
<wgt id='1487'> +1.1916241e-12 </wgt>
<wgt id='1488'> +1.1940873e-12 </wgt>
<wgt id='1489'> +1.2237077e-12 </wgt>
<wgt id='1490'> +1.1969761e-12 </wgt>
<wgt id='1491'> +1.1978007e-12 </wgt>
<wgt id='1492'> +1.1964867e-12 </wgt>
<wgt id='1493'> +1.1885109e-12 </wgt>
<wgt id='1494'> +1.2049427e-12 </wgt>
<wgt id='1495'> +1.2048884e-12 </wgt>
<wgt id='1496'> +1.1989057e-12 </wgt>
<wgt id='1497'> +1.2012637e-12 </wgt>
<wgt id='1498'> +1.1956372e-12 </wgt>
<wgt id='1499'> +1.1991306e-12 </wgt>
<wgt id='1500'> +1.1936423e-12 </wgt>
<wgt id='1501'> +1.1985967e-12 </wgt>
<wgt id='1502'> +1.2014424e-12 </wgt>
<wgt id='1503'> +1.1929604e-12 </wgt>
<wgt id='1504'> +1.1968773e-12 </wgt>
<wgt id='1505'> +1.1945199e-12 </wgt>
<wgt id='1506'> +1.1985474e-12 </wgt>
<wgt id='1507'> +1.1962161e-12 </wgt>
<wgt id='1508'> +1.2044445e-12 </wgt>
<wgt id='1509'> +1.2795915e-12 </wgt>
<wgt id='1510'> +1.2776710e-12 </wgt>
<wgt id='1511'> +1.2809099e-12 </wgt>
<wgt id='1512'> +1.2807559e-12 </wgt>
<wgt id='1513'> +1.2887694e-12 </wgt>
<wgt id='1514'> +1.2759116e-12 </wgt>
<wgt id='1515'> +1.2703623e-12 </wgt>
<wgt id='1516'> +1.2763440e-12 </wgt>
<wgt id='1517'> +1.2703126e-12 </wgt>
<wgt id='1518'> +1.2816599e-12 </wgt>
<wgt id='1519'> +1.2742880e-12 </wgt>
<wgt id='1520'> +1.2752521e-12 </wgt>
<wgt id='1521'> +1.2882264e-12 </wgt>
<wgt id='1522'> +1.2841039e-12 </wgt>
<wgt id='1523'> +1.2778591e-12 </wgt>
<wgt id='1524'> +1.2899411e-12 </wgt>
<wgt id='1525'> +1.2792239e-12 </wgt>
<wgt id='1526'> +1.2738332e-12 </wgt>
<wgt id='1527'> +1.2837164e-12 </wgt>
<wgt id='1528'> +1.2738519e-12 </wgt>
<wgt id='1529'> +1.2833804e-12 </wgt>
<wgt id='1530'> +1.2792476e-12 </wgt>
<wgt id='1531'> +1.2803470e-12 </wgt>
<wgt id='1532'> +1.2840909e-12 </wgt>
<wgt id='1533'> +1.2897219e-12 </wgt>
<wgt id='1534'> +1.2804115e-12 </wgt>
<wgt id='1535'> +1.2796151e-12 </wgt>
<wgt id='1536'> +1.2767606e-12 </wgt>
<wgt id='1537'> +1.2802654e-12 </wgt>
<wgt id='1538'> +1.2815261e-12 </wgt>
<wgt id='1539'> +1.2793947e-12 </wgt>
<wgt id='1540'> +1.2803723e-12 </wgt>
<wgt id='1541'> +1.2810213e-12 </wgt>
<wgt id='1542'> +1.2810951e-12 </wgt>
<wgt id='1543'> +1.2784298e-12 </wgt>
<wgt id='1544'> +1.2793163e-12 </wgt>
<wgt id='1545'> +1.2804393e-12 </wgt>
<wgt id='1546'> +1.2784748e-12 </wgt>
<wgt id='1547'> +1.2799672e-12 </wgt>
<wgt id='1548'> +1.2781651e-12 </wgt>
<wgt id='1549'> +1.2790299e-12 </wgt>
<wgt id='1550'> +1.2777781e-12 </wgt>
<wgt id='1551'> +1.2800922e-12 </wgt>
<wgt id='1552'> +1.2788551e-12 </wgt>
<wgt id='1553'> +1.2790600e-12 </wgt>
<wgt id='1554'> +1.2799170e-12 </wgt>
<wgt id='1555'> +1.2795554e-12 </wgt>
<wgt id='1556'> +1.2794803e-12 </wgt>
<wgt id='1557'> +1.2796927e-12 </wgt>
<wgt id='1558'> +1.2798039e-12 </wgt>
<wgt id='1559'> +1.2798536e-12 </wgt>
<wgt id='1560'> +1.2807059e-12 </wgt>
<wgt id='1561'> +1.2804330e-12 </wgt>
<wgt id='1562'> +1.2799607e-12 </wgt>
<wgt id='1563'> +1.2801373e-12 </wgt>
<wgt id='1564'> +1.2790164e-12 </wgt>
<wgt id='1565'> +1.2800137e-12 </wgt>
<wgt id='1566'> +1.2791830e-12 </wgt>
<wgt id='1567'> +1.2791579e-12 </wgt>
<wgt id='1568'> +1.2793670e-12 </wgt>
<wgt id='1569'> +1.2802530e-12 </wgt>
<wgt id='1570'> +1.2799090e-12 </wgt>
<wgt id='1571'> +1.2794494e-12 </wgt>
<wgt id='1572'> +1.2796113e-12 </wgt>
<wgt id='1573'> +1.2797440e-12 </wgt>
<wgt id='1574'> +1.2794973e-12 </wgt>
<wgt id='1575'> +1.2788978e-12 </wgt>
<wgt id='1576'> +1.2808237e-12 </wgt>
<wgt id='1577'> +1.2801921e-12 </wgt>
<wgt id='1578'> +1.2798110e-12 </wgt>
<wgt id='1579'> +1.2790085e-12 </wgt>
<wgt id='1580'> +1.2800058e-12 </wgt>
<wgt id='1581'> +1.2802769e-12 </wgt>
<wgt id='1582'> +1.2800913e-12 </wgt>
<wgt id='1583'> +1.2796950e-12 </wgt>
<wgt id='1584'> +1.2796342e-12 </wgt>
<wgt id='1585'> +1.2793683e-12 </wgt>
<wgt id='1586'> +1.2794797e-12 </wgt>
<wgt id='1587'> +1.2798254e-12 </wgt>
<wgt id='1588'> +1.2800031e-12 </wgt>
<wgt id='1589'> +1.2792474e-12 </wgt>
<wgt id='1590'> +1.2797873e-12 </wgt>
<wgt id='1591'> +1.2795002e-12 </wgt>
<wgt id='1592'> +1.2790833e-12 </wgt>
<wgt id='1593'> +1.2796642e-12 </wgt>
<wgt id='1594'> +1.2796038e-12 </wgt>
<wgt id='1595'> +1.2793139e-12 </wgt>
<wgt id='1596'> +1.2794412e-12 </wgt>
<wgt id='1597'> +1.2795352e-12 </wgt>
<wgt id='1598'> +1.2791875e-12 </wgt>
<wgt id='1599'> +1.2798813e-12 </wgt>
<wgt id='1600'> +1.2794716e-12 </wgt>
<wgt id='1601'> +1.2793354e-12 </wgt>
<wgt id='1602'> +1.2799861e-12 </wgt>
<wgt id='1603'> +1.2797241e-12 </wgt>
<wgt id='1604'> +1.2796808e-12 </wgt>
<wgt id='1605'> +1.2792902e-12 </wgt>
<wgt id='1606'> +1.2796487e-12 </wgt>
<wgt id='1607'> +1.2795277e-12 </wgt>
<wgt id='1608'> +1.2793113e-12 </wgt>
<wgt id='1609'> +1.2797163e-12 </wgt>
<wgt id='1610'> +1.2614488e-12 </wgt>
<wgt id='1611'> +1.2974957e-12 </wgt>
<wgt id='1612'> +1.4955746e-12 </wgt>
<wgt id='1613'> +1.5156732e-12 </wgt>
<wgt id='1614'> +1.5287048e-12 </wgt>
<wgt id='1615'> +1.4727303e-12 </wgt>
<wgt id='1616'> +1.5564112e-12 </wgt>
<wgt id='1617'> +1.5210977e-12 </wgt>
<wgt id='1618'> +1.4929787e-12 </wgt>
<wgt id='1619'> +1.5309701e-12 </wgt>
<wgt id='1620'> +1.4865546e-12 </wgt>
<wgt id='1621'> +1.4781231e-12 </wgt>
<wgt id='1622'> +1.4723458e-12 </wgt>
<wgt id='1623'> +1.5215840e-12 </wgt>
<wgt id='1624'> +1.4689289e-12 </wgt>
<wgt id='1625'> +1.4879837e-12 </wgt>
<wgt id='1626'> +1.4624651e-12 </wgt>
<wgt id='1627'> +1.4954592e-12 </wgt>
<wgt id='1628'> +1.5433472e-12 </wgt>
<wgt id='1629'> +1.4968905e-12 </wgt>
<wgt id='1630'> +1.5208052e-12 </wgt>
<wgt id='1631'> +1.4852154e-12 </wgt>
<wgt id='1632'> +1.4967544e-12 </wgt>
<wgt id='1633'> +1.4762603e-12 </wgt>
<wgt id='1634'> +1.4512138e-12 </wgt>
<wgt id='1635'> +1.5047143e-12 </wgt>
<wgt id='1636'> +1.5507864e-12 </wgt>
<wgt id='1637'> +1.4594607e-12 </wgt>
<wgt id='1638'> +1.5158067e-12 </wgt>
<wgt id='1639'> +1.5413830e-12 </wgt>
<wgt id='1640'> +1.5214564e-12 </wgt>
<wgt id='1641'> +1.5089999e-12 </wgt>
<wgt id='1642'> +1.4758996e-12 </wgt>
<wgt id='1643'> +1.5194528e-12 </wgt>
<wgt id='1644'> +1.4255005e-12 </wgt>
<wgt id='1645'> +1.4898796e-12 </wgt>
<wgt id='1646'> +1.5223289e-12 </wgt>
<wgt id='1647'> +1.5341855e-12 </wgt>
<wgt id='1648'> +1.5069327e-12 </wgt>
<wgt id='1649'> +1.5253923e-12 </wgt>
<wgt id='1650'> +1.4949410e-12 </wgt>
<wgt id='1651'> +1.4862621e-12 </wgt>
<wgt id='1652'> +1.4979351e-12 </wgt>
<wgt id='1653'> +1.5179840e-12 </wgt>
<wgt id='1654'> +1.5208697e-12 </wgt>
<wgt id='1655'> +1.4840834e-12 </wgt>
<wgt id='1656'> +1.4652195e-12 </wgt>
<wgt id='1657'> +1.4972012e-12 </wgt>
<wgt id='1658'> +1.5012989e-12 </wgt>
<wgt id='1659'> +1.4689289e-12 </wgt>
<wgt id='1660'> +1.4824176e-12 </wgt>
<wgt id='1661'> +1.4515280e-12 </wgt>
<wgt id='1662'> +1.4324471e-12 </wgt>
<wgt id='1663'> +1.4676104e-12 </wgt>
<wgt id='1664'> +1.4995138e-12 </wgt>
<wgt id='1665'> +1.4564901e-12 </wgt>
<wgt id='1666'> +1.4663374e-12 </wgt>
<wgt id='1667'> +1.5015275e-12 </wgt>
<wgt id='1668'> +1.5598918e-12 </wgt>
<wgt id='1669'> +1.4699526e-12 </wgt>
<wgt id='1670'> +1.5106442e-12 </wgt>
<wgt id='1671'> +1.4593174e-12 </wgt>
<wgt id='1672'> +1.4772100e-12 </wgt>
<wgt id='1673'> +1.5154027e-12 </wgt>
<wgt id='1674'> +1.5088800e-12 </wgt>
<wgt id='1675'> +1.4814367e-12 </wgt>
<wgt id='1676'> +1.5128522e-12 </wgt>
<wgt id='1677'> +1.4727484e-12 </wgt>
<wgt id='1678'> +1.4951414e-12 </wgt>
<wgt id='1679'> +1.5423317e-12 </wgt>
<wgt id='1680'> +1.5078224e-12 </wgt>
<wgt id='1681'> +1.4996348e-12 </wgt>
<wgt id='1682'> +1.4766837e-12 </wgt>
<wgt id='1683'> +1.4893880e-12 </wgt>
<wgt id='1684'> +1.4376576e-12 </wgt>
<wgt id='1685'> +1.4892362e-12 </wgt>
<wgt id='1686'> +1.4811875e-12 </wgt>
<wgt id='1687'> +1.5084881e-12 </wgt>
<wgt id='1688'> +1.5115053e-12 </wgt>
<wgt id='1689'> +1.4788409e-12 </wgt>
<wgt id='1690'> +1.4893867e-12 </wgt>
<wgt id='1691'> +1.5308673e-12 </wgt>
<wgt id='1692'> +1.5291256e-12 </wgt>
<wgt id='1693'> +1.4714824e-12 </wgt>
<wgt id='1694'> +1.3998564e-12 </wgt>
<wgt id='1695'> +1.4667044e-12 </wgt>
<wgt id='1696'> +1.5348234e-12 </wgt>
<wgt id='1697'> +1.5667846e-12 </wgt>
<wgt id='1698'> +1.4921185e-12 </wgt>
<wgt id='1699'> +1.5155125e-12 </wgt>
<wgt id='1700'> +1.4934455e-12 </wgt>
<wgt id='1701'> +1.4941164e-12 </wgt>
<wgt id='1702'> +1.5108855e-12 </wgt>
<wgt id='1703'> +1.4620044e-12 </wgt>
<wgt id='1704'> +1.5011751e-12 </wgt>
<wgt id='1705'> +1.4921910e-12 </wgt>
<wgt id='1706'> +1.5147168e-12 </wgt>
<wgt id='1707'> +1.4844094e-12 </wgt>
<wgt id='1708'> +1.4935507e-12 </wgt>
<wgt id='1709'> +1.5025557e-12 </wgt>
<wgt id='1710'> +1.4955545e-12 </wgt>
<wgt id='1711'> +1.5049529e-12 </wgt>
<wgt id='1712'> +1.4666877e-12 </wgt>
<wgt id='1713'> +1.2172608e-12 </wgt>
<wgt id='1714'> +1.1903996e-12 </wgt>
<wgt id='1715'> +1.2228169e-12 </wgt>
<wgt id='1716'> +1.2335868e-12 </wgt>
<wgt id='1717'> +1.2294160e-12 </wgt>
<wgt id='1718'> +1.1083438e-12 </wgt>
<wgt id='1719'> +1.1661274e-12 </wgt>
<wgt id='1720'> +1.2275903e-12 </wgt>
<wgt id='1721'> +1.2277598e-12 </wgt>
<wgt id='1722'> +1.2170917e-12 </wgt>
<wgt id='1723'> +1.1773339e-12 </wgt>
<wgt id='1724'> +1.0931980e-12 </wgt>
<wgt id='1725'> +1.1892204e-12 </wgt>
<wgt id='1726'> +1.2609015e-12 </wgt>
<wgt id='1727'> +1.1778934e-12 </wgt>
<wgt id='1728'> +1.2130312e-12 </wgt>
<wgt id='1729'> +1.2105464e-12 </wgt>
<wgt id='1730'> +1.1963276e-12 </wgt>
<wgt id='1731'> +1.1905405e-12 </wgt>
<wgt id='1732'> +1.2514678e-12 </wgt>
<wgt id='1733'> +1.2525840e-12 </wgt>
<wgt id='1734'> +1.2394291e-12 </wgt>
<wgt id='1735'> +1.2137255e-12 </wgt>
<wgt id='1736'> +1.2982668e-12 </wgt>
<wgt id='1737'> +1.2025887e-12 </wgt>
<wgt id='1738'> +1.2401717e-12 </wgt>
<wgt id='1739'> +1.2107172e-12 </wgt>
<wgt id='1740'> +1.1989042e-12 </wgt>
<wgt id='1741'> +1.2269089e-12 </wgt>
<wgt id='1742'> +1.2104960e-12 </wgt>
<wgt id='1743'> +1.2485893e-12 </wgt>
<wgt id='1744'> +1.2770243e-12 </wgt>
<wgt id='1745'> +1.1437883e-12 </wgt>
<wgt id='1746'> +1.2672082e-12 </wgt>
<wgt id='1747'> +1.1974697e-12 </wgt>
<wgt id='1748'> +1.2319795e-12 </wgt>
<wgt id='1749'> +1.2616039e-12 </wgt>
<wgt id='1750'> +1.2394748e-12 </wgt>
<wgt id='1751'> +1.1663837e-12 </wgt>
<wgt id='1752'> +1.2017539e-12 </wgt>
<wgt id='1753'> +1.2473439e-12 </wgt>
<wgt id='1754'> +1.2385813e-12 </wgt>
<wgt id='1755'> +1.2293325e-12 </wgt>
<wgt id='1756'> +1.2289662e-12 </wgt>
<wgt id='1757'> +1.2154042e-12 </wgt>
<wgt id='1758'> +1.2499161e-12 </wgt>
<wgt id='1759'> +1.2125753e-12 </wgt>
<wgt id='1760'> +1.2061490e-12 </wgt>
<wgt id='1761'> +1.2028370e-12 </wgt>
<wgt id='1762'> +1.1609026e-12 </wgt>
<wgt id='1763'> +1.2440428e-12 </wgt>
<wgt id='1764'> +1.2339124e-12 </wgt>
<wgt id='1765'> +1.2063364e-12 </wgt>
<wgt id='1766'> +1.1842996e-12 </wgt>
<wgt id='1767'> +1.2183243e-12 </wgt>
<wgt id='1768'> +1.2274148e-12 </wgt>
<wgt id='1769'> +1.1950685e-12 </wgt>
<wgt id='1770'> +1.2913077e-12 </wgt>
<wgt id='1771'> +1.2196002e-12 </wgt>
<wgt id='1772'> +1.2603167e-12 </wgt>
<wgt id='1773'> +1.2304740e-12 </wgt>
<wgt id='1774'> +1.2387074e-12 </wgt>
<wgt id='1775'> +1.2248392e-12 </wgt>
<wgt id='1776'> +1.1611115e-12 </wgt>
<wgt id='1777'> +1.2024252e-12 </wgt>
<wgt id='1778'> +1.2173063e-12 </wgt>
<wgt id='1779'> +1.2251337e-12 </wgt>
<wgt id='1780'> +1.3078793e-12 </wgt>
<wgt id='1781'> +1.2347748e-12 </wgt>
<wgt id='1782'> +1.1841176e-12 </wgt>
<wgt id='1783'> +1.2249500e-12 </wgt>
<wgt id='1784'> +1.2344552e-12 </wgt>
<wgt id='1785'> +1.1485181e-12 </wgt>
<wgt id='1786'> +1.1154325e-12 </wgt>
<wgt id='1787'> +1.2000658e-12 </wgt>
<wgt id='1788'> +1.2217218e-12 </wgt>
<wgt id='1789'> +1.1260032e-12 </wgt>
<wgt id='1790'> +1.1990352e-12 </wgt>
<wgt id='1791'> +1.2517474e-12 </wgt>
<wgt id='1792'> +1.2088854e-12 </wgt>
<wgt id='1793'> +1.2399553e-12 </wgt>
<wgt id='1794'> +1.2263286e-12 </wgt>
<wgt id='1795'> +1.1893822e-12 </wgt>
<wgt id='1796'> +1.2401355e-12 </wgt>
<wgt id='1797'> +1.2458829e-12 </wgt>
<wgt id='1798'> +1.2009965e-12 </wgt>
<wgt id='1799'> +1.2162375e-12 </wgt>
<wgt id='1800'> +1.2153713e-12 </wgt>
<wgt id='1801'> +1.2228967e-12 </wgt>
<wgt id='1802'> +1.2211600e-12 </wgt>
<wgt id='1803'> +1.2241114e-12 </wgt>
<wgt id='1804'> +1.2307154e-12 </wgt>
<wgt id='1805'> +1.2232724e-12 </wgt>
<wgt id='1806'> +1.2166908e-12 </wgt>
<wgt id='1807'> +1.2244725e-12 </wgt>
<wgt id='1808'> +1.2210412e-12 </wgt>
<wgt id='1809'> +1.2234844e-12 </wgt>
<wgt id='1810'> +1.2359234e-12 </wgt>
<wgt id='1811'> +1.2758869e-12 </wgt>
<wgt id='1812'> +1.2736162e-12 </wgt>
<wgt id='1813'> +1.2274994e-12 </wgt>
<wgt id='1814'> +1.2303298e-12 </wgt>
<wgt id='1815'> +1.3839046e-12 </wgt>
<wgt id='1816'> +1.2172608e-12 </wgt>
<wgt id='1817'> +1.1903996e-12 </wgt>
<wgt id='1818'> +1.2228169e-12 </wgt>
<wgt id='1819'> +1.2335868e-12 </wgt>
<wgt id='1820'> +1.2294160e-12 </wgt>
<wgt id='1821'> +1.1083438e-12 </wgt>
<wgt id='1822'> +1.1661274e-12 </wgt>
<wgt id='1823'> +1.2275903e-12 </wgt>
<wgt id='1824'> +1.2277598e-12 </wgt>
<wgt id='1825'> +1.2170917e-12 </wgt>
<wgt id='1826'> +1.1773339e-12 </wgt>
<wgt id='1827'> +1.0931980e-12 </wgt>
<wgt id='1828'> +1.1892204e-12 </wgt>
<wgt id='1829'> +1.2609015e-12 </wgt>
<wgt id='1830'> +1.1778934e-12 </wgt>
<wgt id='1831'> +1.2130312e-12 </wgt>
<wgt id='1832'> +1.2105464e-12 </wgt>
<wgt id='1833'> +1.1963276e-12 </wgt>
<wgt id='1834'> +1.1905405e-12 </wgt>
<wgt id='1835'> +1.2514678e-12 </wgt>
<wgt id='1836'> +1.2525840e-12 </wgt>
<wgt id='1837'> +1.2394291e-12 </wgt>
<wgt id='1838'> +1.2137255e-12 </wgt>
<wgt id='1839'> +1.2982668e-12 </wgt>
<wgt id='1840'> +1.2025887e-12 </wgt>
<wgt id='1841'> +1.2401717e-12 </wgt>
<wgt id='1842'> +1.2107172e-12 </wgt>
<wgt id='1843'> +1.1989042e-12 </wgt>
<wgt id='1844'> +1.2269089e-12 </wgt>
<wgt id='1845'> +1.2104960e-12 </wgt>
<wgt id='1846'> +1.2485893e-12 </wgt>
<wgt id='1847'> +1.2770243e-12 </wgt>
<wgt id='1848'> +1.1437883e-12 </wgt>
<wgt id='1849'> +1.2672082e-12 </wgt>
<wgt id='1850'> +1.1974697e-12 </wgt>
<wgt id='1851'> +1.2319795e-12 </wgt>
<wgt id='1852'> +1.2616039e-12 </wgt>
<wgt id='1853'> +1.2394748e-12 </wgt>
<wgt id='1854'> +1.1663837e-12 </wgt>
<wgt id='1855'> +1.2017539e-12 </wgt>
<wgt id='1856'> +1.2473439e-12 </wgt>
<wgt id='1857'> +1.2385813e-12 </wgt>
<wgt id='1858'> +1.2293325e-12 </wgt>
<wgt id='1859'> +1.2289662e-12 </wgt>
<wgt id='1860'> +1.2154042e-12 </wgt>
<wgt id='1861'> +1.2499161e-12 </wgt>
<wgt id='1862'> +1.2125753e-12 </wgt>
<wgt id='1863'> +1.2061490e-12 </wgt>
<wgt id='1864'> +1.2028370e-12 </wgt>
<wgt id='1865'> +1.1609026e-12 </wgt>
<wgt id='1866'> +1.2440428e-12 </wgt>
<wgt id='1867'> +1.2339124e-12 </wgt>
<wgt id='1868'> +1.2063364e-12 </wgt>
<wgt id='1869'> +1.1842996e-12 </wgt>
<wgt id='1870'> +1.2183243e-12 </wgt>
<wgt id='1871'> +1.2274148e-12 </wgt>
<wgt id='1872'> +1.1950685e-12 </wgt>
<wgt id='1873'> +1.2913077e-12 </wgt>
<wgt id='1874'> +1.2196002e-12 </wgt>
<wgt id='1875'> +1.2603167e-12 </wgt>
<wgt id='1876'> +1.2304740e-12 </wgt>
<wgt id='1877'> +1.2387074e-12 </wgt>
<wgt id='1878'> +1.2248392e-12 </wgt>
<wgt id='1879'> +1.1611115e-12 </wgt>
<wgt id='1880'> +1.2024252e-12 </wgt>
<wgt id='1881'> +1.2173063e-12 </wgt>
<wgt id='1882'> +1.2251337e-12 </wgt>
<wgt id='1883'> +1.3078793e-12 </wgt>
<wgt id='1884'> +1.2347748e-12 </wgt>
<wgt id='1885'> +1.1841176e-12 </wgt>
<wgt id='1886'> +1.2249500e-12 </wgt>
<wgt id='1887'> +1.2344552e-12 </wgt>
<wgt id='1888'> +1.1485181e-12 </wgt>
<wgt id='1889'> +1.1154325e-12 </wgt>
<wgt id='1890'> +1.2000658e-12 </wgt>
<wgt id='1891'> +1.2217218e-12 </wgt>
<wgt id='1892'> +1.1260032e-12 </wgt>
<wgt id='1893'> +1.1990352e-12 </wgt>
<wgt id='1894'> +1.2517474e-12 </wgt>
<wgt id='1895'> +1.2088854e-12 </wgt>
<wgt id='1896'> +1.2399553e-12 </wgt>
<wgt id='1897'> +1.2263286e-12 </wgt>
<wgt id='1898'> +1.1893822e-12 </wgt>
<wgt id='1899'> +1.2401355e-12 </wgt>
<wgt id='1900'> +1.2458829e-12 </wgt>
<wgt id='1901'> +1.2009965e-12 </wgt>
<wgt id='1902'> +1.2162375e-12 </wgt>
<wgt id='1903'> +1.2153713e-12 </wgt>
<wgt id='1904'> +1.2228967e-12 </wgt>
<wgt id='1905'> +1.2211600e-12 </wgt>
<wgt id='1906'> +1.2241114e-12 </wgt>
<wgt id='1907'> +1.2307154e-12 </wgt>
<wgt id='1908'> +1.2232724e-12 </wgt>
<wgt id='1909'> +1.2166908e-12 </wgt>
<wgt id='1910'> +1.2244725e-12 </wgt>
<wgt id='1911'> +1.2210412e-12 </wgt>
<wgt id='1912'> +1.2234844e-12 </wgt>
<wgt id='1913'> +1.2359234e-12 </wgt>
<wgt id='1914'> +1.2758869e-12 </wgt>
<wgt id='1915'> +1.2736162e-12 </wgt>
<wgt id='1916'> +1.2274994e-12 </wgt>
<wgt id='1917'> +1.2090055e-12 </wgt>
<wgt id='1918'> +1.2295326e-12 </wgt>
<wgt id='1919'> +1.2588203e-12 </wgt>
</rwgt>
</event>
<event>
 9      1 +1.5607000e-12 3.23568400e+01 7.81860800e-03 1.42732100e-01
        2 -1    0    0  502    0 -0.0000000000e+00 +0.0000000000e+00 +5.7887713847e+02 5.7887713847e+02 0.0000000000e+00 0.0000e+00 -1.0000e+00
       21 -1    0    0  501  502 +0.0000000000e+00 -0.0000000000e+00 -2.0587861178e+00 2.0587861178e+00 0.0000000000e+00 0.0000e+00 -1.0000e+00
     1023  2    1    2    0    0 -2.4518539822e+01 +1.4859459325e+01 +4.3768603878e+02 4.3888043189e+02 1.5000087472e+01 0.0000e+00 0.0000e+00
  1000023  2    3    3    0    0 -2.0423086825e+01 +1.4207196759e+01 +3.7292762173e+02 3.7379701802e+02 5.5002469712e+00 0.0000e+00 0.0000e+00
        2  1    1    2  501    0 +2.4518539822e+01 -1.4859459325e+01 +1.3913231357e+02 1.4205549270e+02 0.0000000000e+00 0.0000e+00 -1.0000e+00
  1000022  1    4    4    0    0 -1.8340837380e+01 +1.3061642361e+01 +3.3409454077e+02 3.3488976543e+02 5.0000000000e+00 0.0000e+00 -1.0000e+00
      -13  1    4    4    0    0 -5.3281539368e-01 +4.1821431550e-01 +1.0637588446e+01 1.0659655524e+01 1.0570000000e-01 0.0000e+00 -1.0000e+00
       13  1    4    4    0    0 -1.5494340510e+00 +7.2734008248e-01 +2.8195492512e+01 2.8247597065e+01 1.0570000000e-01 0.0000e+00 1.0000e+00
  1000022  1    3    3    0    0 -4.0954529970e+00 +6.5226256592e-01 +6.4758417058e+01 6.5083413874e+01 5.0000000000e+00 0.0000e+00 -1.0000e+00
<mgrwt>
<rscale>  1 0.32356838E+02</rscale>
<asrwt>0</asrwt>
<pdfrwt beam="1">  1       21 0.31673679E-03 0.32356838E+02</pdfrwt>
<pdfrwt beam="2">  1        2 0.89057892E-01 0.32356838E+02</pdfrwt>
<totfact> 0.94024878E+06</totfact>
</mgrwt>
<rwgt>
<wgt id='1001'> +1.5607000e-12 </wgt>
<wgt id='1002'> +1.6253993e-12 </wgt>
<wgt id='1003'> +1.6292880e-12 </wgt>
<wgt id='1004'> +1.5508412e-12 </wgt>
<wgt id='1005'> +1.6386043e-12 </wgt>
<wgt id='1006'> +1.3684517e-12 </wgt>
<wgt id='1007'> +1.4449600e-12 </wgt>
<wgt id='1008'> +1.4499120e-12 </wgt>
<wgt id='1009'> +1.3574005e-12 </wgt>
<wgt id='1010'> +1.4620695e-12 </wgt>
<wgt id='1011'> +1.8188641e-12 </wgt>
<wgt id='1012'> +1.8595380e-12 </wgt>
<wgt id='1013'> +1.8614749e-12 </wgt>
<wgt id='1014'> +1.8117469e-12 </wgt>
<wgt id='1015'> +1.8656192e-12 </wgt>
<wgt id='1016'> +1.8637159e-12 </wgt>
<wgt id='1017'> +1.8705283e-12 </wgt>
<wgt id='1018'> +1.8702293e-12 </wgt>
<wgt id='1019'> +1.8614749e-12 </wgt>
<wgt id='1020'> +1.8689292e-12 </wgt>
<wgt id='1021'> +1.6341418e-12 </wgt>
<wgt id='1022'> +1.6628768e-12 </wgt>
<wgt id='1023'> +1.6643269e-12 </wgt>
<wgt id='1024'> +1.6292880e-12 </wgt>
<wgt id='1025'> +1.6675803e-12 </wgt>
<wgt id='1026'> +2.1720035e-12 </wgt>
<wgt id='1027'> +2.1399779e-12 </wgt>
<wgt id='1028'> +2.1367523e-12 </wgt>
<wgt id='1029'> +2.1746401e-12 </wgt>
<wgt id='1030'> +2.1278537e-12 </wgt>
<wgt id='1031'> +1.2216235e-12 </wgt>
<wgt id='1032'> +1.3486815e-12 </wgt>
<wgt id='1033'> +1.3574005e-12 </wgt>
<wgt id='1034'> +1.2039448e-12 </wgt>
<wgt id='1035'> +1.3788349e-12 </wgt>
<wgt id='1036'> +1.0711429e-12 </wgt>
<wgt id='1037'> +1.1989613e-12 </wgt>
<wgt id='1038'> +1.2079579e-12 </wgt>
<wgt id='1039'> +1.0537734e-12 </wgt>
<wgt id='1040'> +1.2302863e-12 </wgt>
<wgt id='1041'> +1.4236991e-12 </wgt>
<wgt id='1042'> +1.5429590e-12 </wgt>
<wgt id='1043'> +1.5508412e-12 </wgt>
<wgt id='1044'> +1.4064903e-12 </wgt>
<wgt id='1045'> +1.5698610e-12 </wgt>
<wgt id='1046'> +1.5607000e-12 </wgt>
<wgt id='1047'> +1.5579411e-12 </wgt>
<wgt id='1048'> +1.6165910e-12 </wgt>
<wgt id='1049'> +1.5023089e-12 </wgt>
<wgt id='1050'> +1.5315674e-12 </wgt>
<wgt id='1051'> +1.5194540e-12 </wgt>
<wgt id='1052'> +1.5232421e-12 </wgt>
<wgt id='1053'> +1.6210222e-12 </wgt>
<wgt id='1054'> +1.5951177e-12 </wgt>
<wgt id='1055'> +1.5460530e-12 </wgt>
<wgt id='1056'> +1.4999888e-12 </wgt>
<wgt id='1057'> +1.5432646e-12 </wgt>
<wgt id='1058'> +1.5216969e-12 </wgt>
<wgt id='1059'> +1.5742740e-12 </wgt>
<wgt id='1060'> +1.5756283e-12 </wgt>
<wgt id='1061'> +1.5877142e-12 </wgt>
<wgt id='1062'> +1.5516017e-12 </wgt>
<wgt id='1063'> +1.5171273e-12 </wgt>
<wgt id='1064'> +1.5542585e-12 </wgt>
<wgt id='1065'> +1.6033976e-12 </wgt>
<wgt id='1066'> +1.5654437e-12 </wgt>
<wgt id='1067'> +1.5794069e-12 </wgt>
<wgt id='1068'> +1.6012155e-12 </wgt>
<wgt id='1069'> +1.6187633e-12 </wgt>
<wgt id='1070'> +1.5531313e-12 </wgt>
<wgt id='1071'> +1.5720855e-12 </wgt>
<wgt id='1072'> +1.5766273e-12 </wgt>
<wgt id='1073'> +1.5490856e-12 </wgt>
<wgt id='1074'> +1.5637771e-12 </wgt>
<wgt id='1075'> +1.5524607e-12 </wgt>
<wgt id='1076'> +1.5753846e-12 </wgt>
<wgt id='1077'> +1.5800231e-12 </wgt>
<wgt id='1078'> +1.5268612e-12 </wgt>
<wgt id='1079'> +1.5624953e-12 </wgt>
<wgt id='1080'> +1.5505345e-12 </wgt>
<wgt id='1081'> +1.5074625e-12 </wgt>
<wgt id='1082'> +1.5502273e-12 </wgt>
<wgt id='1083'> +1.5356093e-12 </wgt>
<wgt id='1084'> +1.5405512e-12 </wgt>
<wgt id='1085'> +1.5864705e-12 </wgt>
<wgt id='1086'> +1.6041851e-12 </wgt>
<wgt id='1087'> +1.5470490e-12 </wgt>
<wgt id='1088'> +1.5602430e-12 </wgt>
<wgt id='1089'> +1.5363850e-12 </wgt>
<wgt id='1090'> +1.5644032e-12 </wgt>
<wgt id='1091'> +1.5658615e-12 </wgt>
<wgt id='1092'> +1.5519626e-12 </wgt>
<wgt id='1093'> +1.5896936e-12 </wgt>
<wgt id='1094'> +1.6142140e-12 </wgt>
<wgt id='1095'> +1.6040757e-12 </wgt>
<wgt id='1096'> +1.5327763e-12 </wgt>
<wgt id='1097'> +1.5572122e-12 </wgt>
<wgt id='1098'> +1.5870349e-12 </wgt>
<wgt id='1099'> +1.5502462e-12 </wgt>
<wgt id='1100'> +1.5837208e-12 </wgt>
<wgt id='1101'> +1.5722077e-12 </wgt>
<wgt id='1102'> +1.5486269e-12 </wgt>
<wgt id='1103'> +1.5641285e-12 </wgt>
<wgt id='1104'> +1.5696631e-12 </wgt>
<wgt id='1105'> +1.5147664e-12 </wgt>
<wgt id='1106'> +1.5642171e-12 </wgt>
<wgt id='1107'> +1.5988128e-12 </wgt>
<wgt id='1108'> +1.5513593e-12 </wgt>
<wgt id='1109'> +1.5453483e-12 </wgt>
<wgt id='1110'> +1.5583769e-12 </wgt>
<wgt id='1111'> +1.5591195e-12 </wgt>
<wgt id='1112'> +1.5752943e-12 </wgt>
<wgt id='1113'> +1.6167742e-12 </wgt>
<wgt id='1114'> +1.5886135e-12 </wgt>
<wgt id='1115'> +1.5978875e-12 </wgt>
<wgt id='1116'> +1.6215302e-12 </wgt>
<wgt id='1117'> +1.5518285e-12 </wgt>
<wgt id='1118'> +1.6112590e-12 </wgt>
<wgt id='1119'> +1.5181429e-12 </wgt>
<wgt id='1120'> +1.5514906e-12 </wgt>
<wgt id='1121'> +1.5341358e-12 </wgt>
<wgt id='1122'> +1.5477220e-12 </wgt>
<wgt id='1123'> +1.5879384e-12 </wgt>
<wgt id='1124'> +1.5877310e-12 </wgt>
<wgt id='1125'> +1.5169851e-12 </wgt>
<wgt id='1126'> +1.5350381e-12 </wgt>
<wgt id='1127'> +1.5701387e-12 </wgt>
<wgt id='1128'> +1.5516017e-12 </wgt>
<wgt id='1129'> +1.5192445e-12 </wgt>
<wgt id='1130'> +1.5451160e-12 </wgt>
<wgt id='1131'> +1.5733050e-12 </wgt>
<wgt id='1132'> +1.5760228e-12 </wgt>
<wgt id='1133'> +1.5331752e-12 </wgt>
<wgt id='1134'> +1.5270525e-12 </wgt>
<wgt id='1135'> +1.4951123e-12 </wgt>
<wgt id='1136'> +1.5281740e-12 </wgt>
<wgt id='1137'> +1.5637729e-12 </wgt>
<wgt id='1138'> +1.5471173e-12 </wgt>
<wgt id='1139'> +1.5519099e-12 </wgt>
<wgt id='1140'> +1.5810492e-12 </wgt>
<wgt id='1141'> +1.5571263e-12 </wgt>
<wgt id='1142'> +1.5950679e-12 </wgt>
<wgt id='1143'> +1.5113223e-12 </wgt>
<wgt id='1144'> +1.5546926e-12 </wgt>
<wgt id='1145'> +1.5947522e-12 </wgt>
<wgt id='1146'> +1.5659518e-12 </wgt>
<wgt id='1147'> +1.4021422e-12 </wgt>
<wgt id='1148'> +1.4289560e-12 </wgt>
<wgt id='1149'> +1.3502541e-12 </wgt>
<wgt id='1150'> +1.4059146e-12 </wgt>
<wgt id='1151'> +1.6317477e-12 </wgt>
<wgt id='1152'> +2.2064682e-12 </wgt>
<wgt id='1153'> +2.2071645e-12 </wgt>
<wgt id='1154'> +2.2059719e-12 </wgt>
<wgt id='1155'> +2.2004970e-12 </wgt>
<wgt id='1156'> +2.2095080e-12 </wgt>
<wgt id='1157'> +2.2099999e-12 </wgt>
<wgt id='1158'> +2.2016796e-12 </wgt>
<wgt id='1159'> +2.2095184e-12 </wgt>
<wgt id='1160'> +2.2045125e-12 </wgt>
<wgt id='1161'> +2.2025419e-12 </wgt>
<wgt id='1162'> +2.2091761e-12 </wgt>
<wgt id='1163'> +2.2063445e-12 </wgt>
<wgt id='1164'> +2.2065805e-12 </wgt>
<wgt id='1165'> +2.2084203e-12 </wgt>
<wgt id='1166'> +2.2043773e-12 </wgt>
<wgt id='1167'> +2.2319834e-12 </wgt>
<wgt id='1168'> +2.1753606e-12 </wgt>
<wgt id='1169'> +2.2143123e-12 </wgt>
<wgt id='1170'> +2.2006164e-12 </wgt>
<wgt id='1171'> +2.1988309e-12 </wgt>
<wgt id='1172'> +2.2164823e-12 </wgt>
<wgt id='1173'> +2.1816265e-12 </wgt>
<wgt id='1174'> +2.2324402e-12 </wgt>
<wgt id='1175'> +2.2100062e-12 </wgt>
<wgt id='1176'> +2.2031350e-12 </wgt>
<wgt id='1177'> +2.2006197e-12 </wgt>
<wgt id='1178'> +2.2215550e-12 </wgt>
<wgt id='1179'> +2.2044843e-12 </wgt>
<wgt id='1180'> +2.2024795e-12 </wgt>
<wgt id='1181'> +2.2126175e-12 </wgt>
<wgt id='1182'> +2.1985332e-12 </wgt>
<wgt id='1183'> +2.1992354e-12 </wgt>
<wgt id='1184'> +2.2068836e-12 </wgt>
<wgt id='1185'> +2.2021276e-12 </wgt>
<wgt id='1186'> +2.2087162e-12 </wgt>
<wgt id='1187'> +2.2097954e-12 </wgt>
<wgt id='1188'> +2.2053183e-12 </wgt>
<wgt id='1189'> +2.2001922e-12 </wgt>
<wgt id='1190'> +2.1854959e-12 </wgt>
<wgt id='1191'> +2.2104561e-12 </wgt>
<wgt id='1192'> +2.2108550e-12 </wgt>
<wgt id='1193'> +1.4031552e-12 </wgt>
<wgt id='1194'> +1.3890912e-12 </wgt>
<wgt id='1195'> +1.4146505e-12 </wgt>
<wgt id='1196'> +1.4031165e-12 </wgt>
<wgt id='1197'> +1.4031746e-12 </wgt>
<wgt id='1198'> +1.4022706e-12 </wgt>
<wgt id='1199'> +1.4044647e-12 </wgt>
<wgt id='1200'> +1.3996139e-12 </wgt>
<wgt id='1201'> +1.4055717e-12 </wgt>
<wgt id='1202'> +1.4020536e-12 </wgt>
<wgt id='1203'> +1.4046979e-12 </wgt>
<wgt id='1204'> +1.3965773e-12 </wgt>
<wgt id='1205'> +1.4069909e-12 </wgt>
<wgt id='1206'> +1.4063427e-12 </wgt>
<wgt id='1207'> +1.3987864e-12 </wgt>
<wgt id='1208'> +1.4093611e-12 </wgt>
<wgt id='1209'> +1.4009674e-12 </wgt>
<wgt id='1210'> +1.4011966e-12 </wgt>
<wgt id='1211'> +1.4008923e-12 </wgt>
<wgt id='1212'> +1.4037762e-12 </wgt>
<wgt id='1213'> +1.4028944e-12 </wgt>
<wgt id='1214'> +1.3883072e-12 </wgt>
<wgt id='1215'> +1.4241711e-12 </wgt>
<wgt id='1216'> +1.4101312e-12 </wgt>
<wgt id='1217'> +1.3986670e-12 </wgt>
<wgt id='1218'> +1.4074479e-12 </wgt>
<wgt id='1219'> +1.4007045e-12 </wgt>
<wgt id='1220'> +1.4112474e-12 </wgt>
<wgt id='1221'> +1.4012217e-12 </wgt>
<wgt id='1222'> +1.4232014e-12 </wgt>
<wgt id='1223'> +1.3742705e-12 </wgt>
<wgt id='1224'> +1.4073195e-12 </wgt>
<wgt id='1225'> +1.4014799e-12 </wgt>
<wgt id='1226'> +1.4016641e-12 </wgt>
<wgt id='1227'> +1.4044243e-12 </wgt>
<wgt id='1228'> +1.3941027e-12 </wgt>
<wgt id='1229'> +1.4068658e-12 </wgt>
<wgt id='1230'> +1.4043567e-12 </wgt>
<wgt id='1231'> +1.4115878e-12 </wgt>
<wgt id='1232'> +1.4036346e-12 </wgt>
<wgt id='1233'> +1.4029797e-12 </wgt>
<wgt id='1234'> +1.4031552e-12 </wgt>
<wgt id='1235'> +1.3959994e-12 </wgt>
<wgt id='1236'> +1.3988167e-12 </wgt>
<wgt id='1237'> +1.4012782e-12 </wgt>
<wgt id='1238'> +1.4052863e-12 </wgt>
<wgt id='1239'> +1.4068422e-12 </wgt>
<wgt id='1240'> +1.4085024e-12 </wgt>
<wgt id='1241'> +1.3438194e-12 </wgt>
<wgt id='1242'> +1.3289670e-12 </wgt>
<wgt id='1243'> +1.3585042e-12 </wgt>
<wgt id='1244'> +1.3473662e-12 </wgt>
<wgt id='1245'> +1.3411820e-12 </wgt>
<wgt id='1246'> +1.3394871e-12 </wgt>
<wgt id='1247'> +1.3475169e-12 </wgt>
<wgt id='1248'> +1.3437948e-12 </wgt>
<wgt id='1249'> +1.3438442e-12 </wgt>
<wgt id='1250'> +1.3447388e-12 </wgt>
<wgt id='1251'> +1.3431886e-12 </wgt>
<wgt id='1252'> +1.3413521e-12 </wgt>
<wgt id='1253'> +1.3457424e-12 </wgt>
<wgt id='1254'> +1.3387407e-12 </wgt>
<wgt id='1255'> +1.3467926e-12 </wgt>
<wgt id='1256'> +1.3417417e-12 </wgt>
<wgt id='1257'> +1.3490505e-12 </wgt>
<wgt id='1258'> +1.3568268e-12 </wgt>
<wgt id='1259'> +1.3303698e-12 </wgt>
<wgt id='1260'> +1.3464691e-12 </wgt>
<wgt id='1261'> +1.3411463e-12 </wgt>
<wgt id='1262'> +1.3453670e-12 </wgt>
<wgt id='1263'> +1.3435566e-12 </wgt>
<wgt id='1264'> +1.3500163e-12 </wgt>
<wgt id='1265'> +1.3410666e-12 </wgt>
<wgt id='1266'> +1.3235509e-12 </wgt>
<wgt id='1267'> +1.3627555e-12 </wgt>
<wgt id='1268'> +1.3509736e-12 </wgt>
<wgt id='1269'> +1.3380882e-12 </wgt>
<wgt id='1270'> +1.3474557e-12 </wgt>
<wgt id='1271'> +1.3460067e-12 </wgt>
<wgt id='1272'> +1.3468268e-12 </wgt>
<wgt id='1273'> +1.3435261e-12 </wgt>
<wgt id='1274'> +1.3451023e-12 </wgt>
<wgt id='1275'> +1.3420198e-12 </wgt>
<wgt id='1276'> +1.3504895e-12 </wgt>
<wgt id='1277'> +1.3351156e-12 </wgt>
<wgt id='1278'> +1.3542439e-12 </wgt>
<wgt id='1279'> +1.3497537e-12 </wgt>
<wgt id='1280'> +1.3443023e-12 </wgt>
<wgt id='1281'> +1.3460588e-12 </wgt>
<wgt id='1282'> +1.3438194e-12 </wgt>
<wgt id='1283'> +1.3369380e-12 </wgt>
<wgt id='1284'> +1.3398463e-12 </wgt>
<wgt id='1285'> +1.3420122e-12 </wgt>
<wgt id='1286'> +1.3457678e-12 </wgt>
<wgt id='1287'> +1.3470405e-12 </wgt>
<wgt id='1288'> +1.3480653e-12 </wgt>
<wgt id='1289'> +1.4359272e-12 </wgt>
<wgt id='1290'> +1.4387227e-12 </wgt>
<wgt id='1291'> +1.4329217e-12 </wgt>
<wgt id='1292'> +1.4369214e-12 </wgt>
<wgt id='1293'> +1.4352312e-12 </wgt>
<wgt id='1294'> +1.4218854e-12 </wgt>
<wgt id='1295'> +1.4494641e-12 </wgt>
<wgt id='1296'> +1.4397969e-12 </wgt>
<wgt id='1297'> +1.4310094e-12 </wgt>
<wgt id='1298'> +1.4422128e-12 </wgt>
<wgt id='1299'> +1.4279649e-12 </wgt>
<wgt id='1300'> +1.4390886e-12 </wgt>
<wgt id='1301'> +1.4296035e-12 </wgt>
<wgt id='1302'> +1.4316408e-12 </wgt>
<wgt id='1303'> +1.4418753e-12 </wgt>
<wgt id='1304'> +1.4344250e-12 </wgt>
<wgt id='1305'> +1.4369328e-12 </wgt>
<wgt id='1306'> +1.4374391e-12 </wgt>
<wgt id='1307'> +1.4340125e-12 </wgt>
<wgt id='1308'> +1.4289049e-12 </wgt>
<wgt id='1309'> +1.4413081e-12 </wgt>
<wgt id='1310'> +1.4347038e-12 </wgt>
<wgt id='1311'> +1.4374426e-12 </wgt>
<wgt id='1312'> +1.4442949e-12 </wgt>
<wgt id='1313'> +1.4279664e-12 </wgt>
<wgt id='1314'> +1.4156771e-12 </wgt>
<wgt id='1315'> +1.4536542e-12 </wgt>
<wgt id='1316'> +1.4441486e-12 </wgt>
<wgt id='1317'> +1.4362901e-12 </wgt>
<wgt id='1318'> +1.4468761e-12 </wgt>
<wgt id='1319'> +1.4220705e-12 </wgt>
<wgt id='1320'> +1.4519970e-12 </wgt>
<wgt id='1321'> +1.4217904e-12 </wgt>
<wgt id='1322'> +1.4358220e-12 </wgt>
<wgt id='1323'> +1.4366553e-12 </wgt>
<wgt id='1324'> +1.4327828e-12 </wgt>
<wgt id='1325'> +1.4443189e-12 </wgt>
<wgt id='1326'> +1.4348469e-12 </wgt>
<wgt id='1327'> +1.4395475e-12 </wgt>
<wgt id='1328'> +1.4353383e-12 </wgt>
<wgt id='1329'> +1.4359942e-12 </wgt>
<wgt id='1330'> +1.4432753e-12 </wgt>
<wgt id='1331'> +1.4303069e-12 </wgt>
<wgt id='1332'> +1.4485633e-12 </wgt>
<wgt id='1333'> +1.4384430e-12 </wgt>
<wgt id='1334'> +1.4337268e-12 </wgt>
<wgt id='1335'> +1.4424751e-12 </wgt>
<wgt id='1336'> +1.4377696e-12 </wgt>
<wgt id='1337'> +1.4435520e-12 </wgt>
<wgt id='1338'> +1.4357504e-12 </wgt>
<wgt id='1339'> +1.4369204e-12 </wgt>
<wgt id='1340'> +1.4037182e-12 </wgt>
<wgt id='1341'> +1.4063408e-12 </wgt>
<wgt id='1342'> +1.4009119e-12 </wgt>
<wgt id='1343'> +1.4048234e-12 </wgt>
<wgt id='1344'> +1.4029657e-12 </wgt>
<wgt id='1345'> +1.3891588e-12 </wgt>
<wgt id='1346'> +1.4172532e-12 </wgt>
<wgt id='1347'> +1.4083523e-12 </wgt>
<wgt id='1348'> +1.3984963e-12 </wgt>
<wgt id='1349'> +1.4095076e-12 </wgt>
<wgt id='1350'> +1.3980105e-12 </wgt>
<wgt id='1351'> +1.4066576e-12 </wgt>
<wgt id='1352'> +1.3973877e-12 </wgt>
<wgt id='1353'> +1.3984268e-12 </wgt>
<wgt id='1354'> +1.4131452e-12 </wgt>
<wgt id='1355'> +1.4031899e-12 </wgt>
<wgt id='1356'> +1.4040099e-12 </wgt>
<wgt id='1357'> +1.4040584e-12 </wgt>
<wgt id='1358'> +1.4030772e-12 </wgt>
<wgt id='1359'> +1.3965984e-12 </wgt>
<wgt id='1360'> +1.4098900e-12 </wgt>
<wgt id='1361'> +1.4034381e-12 </wgt>
<wgt id='1362'> +1.4043199e-12 </wgt>
<wgt id='1363'> +1.4186236e-12 </wgt>
<wgt id='1364'> +1.3944885e-12 </wgt>
<wgt id='1365'> +1.4130113e-12 </wgt>
<wgt id='1366'> +1.3859582e-12 </wgt>
<wgt id='1367'> +1.4119729e-12 </wgt>
<wgt id='1368'> +1.4029681e-12 </wgt>
<wgt id='1369'> +1.4127504e-12 </wgt>
<wgt id='1370'> +1.3925800e-12 </wgt>
<wgt id='1371'> +1.4170884e-12 </wgt>
<wgt id='1372'> +1.3873894e-12 </wgt>
<wgt id='1373'> +1.4005430e-12 </wgt>
<wgt id='1374'> +1.4071974e-12 </wgt>
<wgt id='1375'> +1.4006486e-12 </wgt>
<wgt id='1376'> +1.4123213e-12 </wgt>
<wgt id='1377'> +1.4025185e-12 </wgt>
<wgt id='1378'> +1.4076180e-12 </wgt>
<wgt id='1379'> +1.4033436e-12 </wgt>
<wgt id='1380'> +1.4036134e-12 </wgt>
<wgt id='1381'> +1.4113875e-12 </wgt>
<wgt id='1382'> +1.3981036e-12 </wgt>
<wgt id='1383'> +1.4145420e-12 </wgt>
<wgt id='1384'> +1.4072665e-12 </wgt>
<wgt id='1385'> +1.4018040e-12 </wgt>
<wgt id='1386'> +1.4089684e-12 </wgt>
<wgt id='1387'> +1.4051642e-12 </wgt>
<wgt id='1388'> +1.4115808e-12 </wgt>
<wgt id='1389'> +1.4033549e-12 </wgt>
<wgt id='1390'> +1.4053999e-12 </wgt>
<wgt id='1391'> +1.3857343e-12 </wgt>
<wgt id='1392'> +1.3400847e-12 </wgt>
<wgt id='1393'> +1.3558069e-12 </wgt>
<wgt id='1394'> +1.3711503e-12 </wgt>
<wgt id='1395'> +1.4016596e-12 </wgt>
<wgt id='1396'> +1.3864421e-12 </wgt>
<wgt id='1397'> +1.3662696e-12 </wgt>
<wgt id='1398'> +1.3692305e-12 </wgt>
<wgt id='1399'> +1.3724507e-12 </wgt>
<wgt id='1400'> +1.3765912e-12 </wgt>
<wgt id='1401'> +1.3814847e-12 </wgt>
<wgt id='1402'> +1.3914691e-12 </wgt>
<wgt id='1403'> +1.3970550e-12 </wgt>
<wgt id='1404'> +1.4027590e-12 </wgt>
<wgt id='1405'> +1.3864421e-12 </wgt>
<wgt id='1406'> +1.3822177e-12 </wgt>
<wgt id='1407'> +1.3843693e-12 </wgt>
<wgt id='1408'> +1.3883248e-12 </wgt>
<wgt id='1409'> +1.3897615e-12 </wgt>
<wgt id='1410'> +1.3118096e-12 </wgt>
<wgt id='1411'> +1.3170031e-12 </wgt>
<wgt id='1412'> +1.3051265e-12 </wgt>
<wgt id='1413'> +1.3052751e-12 </wgt>
<wgt id='1414'> +1.3183290e-12 </wgt>
<wgt id='1415'> +1.3099716e-12 </wgt>
<wgt id='1416'> +1.3125515e-12 </wgt>
<wgt id='1417'> +1.3074008e-12 </wgt>
<wgt id='1418'> +1.3161643e-12 </wgt>
<wgt id='1419'> +1.3133472e-12 </wgt>
<wgt id='1420'> +1.3103193e-12 </wgt>
<wgt id='1421'> +1.2987907e-12 </wgt>
<wgt id='1422'> +1.3173267e-12 </wgt>
<wgt id='1423'> +1.3103256e-12 </wgt>
<wgt id='1424'> +1.3136244e-12 </wgt>
<wgt id='1425'> +1.3037673e-12 </wgt>
<wgt id='1426'> +1.3204732e-12 </wgt>
<wgt id='1427'> +1.2957327e-12 </wgt>
<wgt id='1428'> +1.3203112e-12 </wgt>
<wgt id='1429'> +1.3156078e-12 </wgt>
<wgt id='1430'> +1.3066759e-12 </wgt>
<wgt id='1431'> +1.3131360e-12 </wgt>
<wgt id='1432'> +1.3108059e-12 </wgt>
<wgt id='1433'> +1.2979451e-12 </wgt>
<wgt id='1434'> +1.3224560e-12 </wgt>
<wgt id='1435'> +1.3040323e-12 </wgt>
<wgt id='1436'> +1.3316011e-12 </wgt>
<wgt id='1437'> +1.3189914e-12 </wgt>
<wgt id='1438'> +1.3140016e-12 </wgt>
<wgt id='1439'> +1.3055260e-12 </wgt>
<wgt id='1440'> +1.3227481e-12 </wgt>
<wgt id='1441'> +1.3160201e-12 </wgt>
<wgt id='1442'> +1.3030507e-12 </wgt>
<wgt id='1443'> +1.3084122e-12 </wgt>
<wgt id='1444'> +1.3209374e-12 </wgt>
<wgt id='1445'> +1.3254494e-12 </wgt>
<wgt id='1446'> +1.3070098e-12 </wgt>
<wgt id='1447'> +1.3130014e-12 </wgt>
<wgt id='1448'> +1.3145960e-12 </wgt>
<wgt id='1449'> +1.3119464e-12 </wgt>
<wgt id='1450'> +1.3110161e-12 </wgt>
<wgt id='1451'> +1.3104932e-12 </wgt>
<wgt id='1452'> +1.3176110e-12 </wgt>
<wgt id='1453'> +1.3120470e-12 </wgt>
<wgt id='1454'> +1.3104362e-12 </wgt>
<wgt id='1455'> +1.3212670e-12 </wgt>
<wgt id='1456'> +1.3176484e-12 </wgt>
<wgt id='1457'> +1.3181448e-12 </wgt>
<wgt id='1458'> +1.3105399e-12 </wgt>
<wgt id='1459'> +1.3172807e-12 </wgt>
<wgt id='1460'> +1.3202357e-12 </wgt>
<wgt id='1461'> +1.3118096e-12 </wgt>
<wgt id='1462'> +1.3006362e-12 </wgt>
<wgt id='1463'> +1.3193049e-12 </wgt>
<wgt id='1464'> +1.3095972e-12 </wgt>
<wgt id='1465'> +1.2859350e-12 </wgt>
<wgt id='1466'> +1.2897612e-12 </wgt>
<wgt id='1467'> +1.2941332e-12 </wgt>
<wgt id='1468'> +1.3005803e-12 </wgt>
<wgt id='1469'> +1.3045636e-12 </wgt>
<wgt id='1470'> +1.3150130e-12 </wgt>
<wgt id='1471'> +1.3199681e-12 </wgt>
<wgt id='1472'> +1.3251879e-12 </wgt>
<wgt id='1473'> +1.3095972e-12 </wgt>
<wgt id='1474'> +1.3059499e-12 </wgt>
<wgt id='1475'> +1.3083067e-12 </wgt>
<wgt id='1476'> +1.3109263e-12 </wgt>
<wgt id='1477'> +1.3120476e-12 </wgt>
<wgt id='1478'> +1.3582876e-12 </wgt>
<wgt id='1479'> +1.3580838e-12 </wgt>
<wgt id='1480'> +1.3431343e-12 </wgt>
<wgt id='1481'> +1.3765226e-12 </wgt>
<wgt id='1482'> +1.3593428e-12 </wgt>
<wgt id='1483'> +1.3416473e-12 </wgt>
<wgt id='1484'> +1.3493650e-12 </wgt>
<wgt id='1485'> +1.3657796e-12 </wgt>
<wgt id='1486'> +1.3581200e-12 </wgt>
<wgt id='1487'> +1.3694128e-12 </wgt>
<wgt id='1488'> +1.3556555e-12 </wgt>
<wgt id='1489'> +1.3602406e-12 </wgt>
<wgt id='1490'> +1.3545136e-12 </wgt>
<wgt id='1491'> +1.3642474e-12 </wgt>
<wgt id='1492'> +1.3597682e-12 </wgt>
<wgt id='1493'> +1.3388172e-12 </wgt>
<wgt id='1494'> +1.3558717e-12 </wgt>
<wgt id='1495'> +1.3450132e-12 </wgt>
<wgt id='1496'> +1.3588561e-12 </wgt>
<wgt id='1497'> +1.3590973e-12 </wgt>
<wgt id='1498'> +1.3582799e-12 </wgt>
<wgt id='1499'> +1.3611830e-12 </wgt>
<wgt id='1500'> +1.3585580e-12 </wgt>
<wgt id='1501'> +1.3589421e-12 </wgt>
<wgt id='1502'> +1.3578991e-12 </wgt>
<wgt id='1503'> +1.3631198e-12 </wgt>
<wgt id='1504'> +1.3537701e-12 </wgt>
<wgt id='1505'> +1.3615228e-12 </wgt>
<wgt id='1506'> +1.3594644e-12 </wgt>
<wgt id='1507'> +1.3582646e-12 </wgt>
<wgt id='1508'> +1.3618375e-12 </wgt>
<wgt id='1509'> +1.3274830e-12 </wgt>
<wgt id='1510'> +1.3310660e-12 </wgt>
<wgt id='1511'> +1.3132461e-12 </wgt>
<wgt id='1512'> +1.3158358e-12 </wgt>
<wgt id='1513'> +1.3266026e-12 </wgt>
<wgt id='1514'> +1.3336773e-12 </wgt>
<wgt id='1515'> +1.3316962e-12 </wgt>
<wgt id='1516'> +1.3330219e-12 </wgt>
<wgt id='1517'> +1.3293271e-12 </wgt>
<wgt id='1518'> +1.3270067e-12 </wgt>
<wgt id='1519'> +1.3275269e-12 </wgt>
<wgt id='1520'> +1.3272122e-12 </wgt>
<wgt id='1521'> +1.3276947e-12 </wgt>
<wgt id='1522'> +1.3297312e-12 </wgt>
<wgt id='1523'> +1.3301098e-12 </wgt>
<wgt id='1524'> +1.3262045e-12 </wgt>
<wgt id='1525'> +1.3275618e-12 </wgt>
<wgt id='1526'> +1.3281401e-12 </wgt>
<wgt id='1527'> +1.3270944e-12 </wgt>
<wgt id='1528'> +1.3279417e-12 </wgt>
<wgt id='1529'> +1.3275995e-12 </wgt>
<wgt id='1530'> +1.3289993e-12 </wgt>
<wgt id='1531'> +1.3292278e-12 </wgt>
<wgt id='1532'> +1.3231234e-12 </wgt>
<wgt id='1533'> +1.3283707e-12 </wgt>
<wgt id='1534'> +1.3274843e-12 </wgt>
<wgt id='1535'> +1.3222577e-12 </wgt>
<wgt id='1536'> +1.3301228e-12 </wgt>
<wgt id='1537'> +1.3300194e-12 </wgt>
<wgt id='1538'> +1.3167792e-12 </wgt>
<wgt id='1539'> +1.3286351e-12 </wgt>
<wgt id='1540'> +1.3272244e-12 </wgt>
<wgt id='1541'> +1.3253947e-12 </wgt>
<wgt id='1542'> +1.3256272e-12 </wgt>
<wgt id='1543'> +1.3284030e-12 </wgt>
<wgt id='1544'> +1.3266445e-12 </wgt>
<wgt id='1545'> +1.3256464e-12 </wgt>
<wgt id='1546'> +1.3267363e-12 </wgt>
<wgt id='1547'> +1.3261352e-12 </wgt>
<wgt id='1548'> +1.3284433e-12 </wgt>
<wgt id='1549'> +1.3259248e-12 </wgt>
<wgt id='1550'> +1.3272594e-12 </wgt>
<wgt id='1551'> +1.3282152e-12 </wgt>
<wgt id='1552'> +1.3289265e-12 </wgt>
<wgt id='1553'> +1.3273211e-12 </wgt>
<wgt id='1554'> +1.3261740e-12 </wgt>
<wgt id='1555'> +1.3298966e-12 </wgt>
<wgt id='1556'> +1.3314475e-12 </wgt>
<wgt id='1557'> +1.3273160e-12 </wgt>
<wgt id='1558'> +1.3269183e-12 </wgt>
<wgt id='1559'> +1.3249832e-12 </wgt>
<wgt id='1560'> +1.3269332e-12 </wgt>
<wgt id='1561'> +1.3270270e-12 </wgt>
<wgt id='1562'> +1.3270548e-12 </wgt>
<wgt id='1563'> +1.3272482e-12 </wgt>
<wgt id='1564'> +1.3264217e-12 </wgt>
<wgt id='1565'> +1.3279954e-12 </wgt>
<wgt id='1566'> +1.3277598e-12 </wgt>
<wgt id='1567'> +1.3279816e-12 </wgt>
<wgt id='1568'> +1.3263805e-12 </wgt>
<wgt id='1569'> +1.3303143e-12 </wgt>
<wgt id='1570'> +1.3281440e-12 </wgt>
<wgt id='1571'> +1.3284300e-12 </wgt>
<wgt id='1572'> +1.3283561e-12 </wgt>
<wgt id='1573'> +1.3276634e-12 </wgt>
<wgt id='1574'> +1.3285119e-12 </wgt>
<wgt id='1575'> +1.3263808e-12 </wgt>
<wgt id='1576'> +1.3276124e-12 </wgt>
<wgt id='1577'> +1.3282406e-12 </wgt>
<wgt id='1578'> +1.3291791e-12 </wgt>
<wgt id='1579'> +1.3264914e-12 </wgt>
<wgt id='1580'> +1.3266247e-12 </wgt>
<wgt id='1581'> +1.3278931e-12 </wgt>
<wgt id='1582'> +1.3290364e-12 </wgt>
<wgt id='1583'> +1.3266549e-12 </wgt>
<wgt id='1584'> +1.3280808e-12 </wgt>
<wgt id='1585'> +1.3280178e-12 </wgt>
<wgt id='1586'> +1.3275026e-12 </wgt>
<wgt id='1587'> +1.3270839e-12 </wgt>
<wgt id='1588'> +1.3263642e-12 </wgt>
<wgt id='1589'> +1.3286551e-12 </wgt>
<wgt id='1590'> +1.3272015e-12 </wgt>
<wgt id='1591'> +1.3276158e-12 </wgt>
<wgt id='1592'> +1.3266416e-12 </wgt>
<wgt id='1593'> +1.3288143e-12 </wgt>
<wgt id='1594'> +1.3270487e-12 </wgt>
<wgt id='1595'> +1.3276672e-12 </wgt>
<wgt id='1596'> +1.3261992e-12 </wgt>
<wgt id='1597'> +1.3283105e-12 </wgt>
<wgt id='1598'> +1.3271830e-12 </wgt>
<wgt id='1599'> +1.3277497e-12 </wgt>
<wgt id='1600'> +1.3262269e-12 </wgt>
<wgt id='1601'> +1.3276768e-12 </wgt>
<wgt id='1602'> +1.3276300e-12 </wgt>
<wgt id='1603'> +1.3285298e-12 </wgt>
<wgt id='1604'> +1.3281391e-12 </wgt>
<wgt id='1605'> +1.3279743e-12 </wgt>
<wgt id='1606'> +1.3271846e-12 </wgt>
<wgt id='1607'> +1.3271917e-12 </wgt>
<wgt id='1608'> +1.3281213e-12 </wgt>
<wgt id='1609'> +1.3280044e-12 </wgt>
<wgt id='1610'> +1.3136474e-12 </wgt>
<wgt id='1611'> +1.3417447e-12 </wgt>
<wgt id='1612'> +1.5446967e-12 </wgt>
<wgt id='1613'> +1.5171004e-12 </wgt>
<wgt id='1614'> +1.4949879e-12 </wgt>
<wgt id='1615'> +1.5351424e-12 </wgt>
<wgt id='1616'> +1.4832358e-12 </wgt>
<wgt id='1617'> +1.5411998e-12 </wgt>
<wgt id='1618'> +1.5485699e-12 </wgt>
<wgt id='1619'> +1.5143294e-12 </wgt>
<wgt id='1620'> +1.5212638e-12 </wgt>
<wgt id='1621'> +1.5561765e-12 </wgt>
<wgt id='1622'> +1.5616691e-12 </wgt>
<wgt id='1623'> +1.5324529e-12 </wgt>
<wgt id='1624'> +1.5730767e-12 </wgt>
<wgt id='1625'> +1.5174536e-12 </wgt>
<wgt id='1626'> +1.5239245e-12 </wgt>
<wgt id='1627'> +1.5662933e-12 </wgt>
<wgt id='1628'> +1.4816407e-12 </wgt>
<wgt id='1629'> +1.5734514e-12 </wgt>
<wgt id='1630'> +1.5087217e-12 </wgt>
<wgt id='1631'> +1.5258749e-12 </wgt>
<wgt id='1632'> +1.4687679e-12 </wgt>
<wgt id='1633'> +1.4974210e-12 </wgt>
<wgt id='1634'> +1.5396493e-12 </wgt>
<wgt id='1635'> +1.5758415e-12 </wgt>
<wgt id='1636'> +1.5634129e-12 </wgt>
<wgt id='1637'> +1.5771112e-12 </wgt>
<wgt id='1638'> +1.5530928e-12 </wgt>
<wgt id='1639'> +1.5307142e-12 </wgt>
<wgt id='1640'> +1.5431851e-12 </wgt>
<wgt id='1641'> +1.5397577e-12 </wgt>
<wgt id='1642'> +1.4879880e-12 </wgt>
<wgt id='1643'> +1.5206837e-12 </wgt>
<wgt id='1644'> +1.5783486e-12 </wgt>
<wgt id='1645'> +1.5219643e-12 </wgt>
<wgt id='1646'> +1.5525159e-12 </wgt>
<wgt id='1647'> +1.5704482e-12 </wgt>
<wgt id='1648'> +1.5505977e-12 </wgt>
<wgt id='1649'> +1.6101716e-12 </wgt>
<wgt id='1650'> +1.5207435e-12 </wgt>
<wgt id='1651'> +1.5446279e-12 </wgt>
<wgt id='1652'> +1.5167404e-12 </wgt>
<wgt id='1653'> +1.5509528e-12 </wgt>
<wgt id='1654'> +1.5394793e-12 </wgt>
<wgt id='1655'> +1.5750070e-12 </wgt>
<wgt id='1656'> +1.5405855e-12 </wgt>
<wgt id='1657'> +1.5451995e-12 </wgt>
<wgt id='1658'> +1.5253173e-12 </wgt>
<wgt id='1659'> +1.5730767e-12 </wgt>
<wgt id='1660'> +1.5607629e-12 </wgt>
<wgt id='1661'> +1.5723179e-12 </wgt>
<wgt id='1662'> +1.6124949e-12 </wgt>
<wgt id='1663'> +1.5460824e-12 </wgt>
<wgt id='1664'> +1.5307431e-12 </wgt>
<wgt id='1665'> +1.5190307e-12 </wgt>
<wgt id='1666'> +1.5674972e-12 </wgt>
<wgt id='1667'> +1.5386473e-12 </wgt>
<wgt id='1668'> +1.5540002e-12 </wgt>
<wgt id='1669'> +1.5608498e-12 </wgt>
<wgt id='1670'> +1.5309749e-12 </wgt>
<wgt id='1671'> +1.5237239e-12 </wgt>
<wgt id='1672'> +1.5720828e-12 </wgt>
<wgt id='1673'> +1.5387022e-12 </wgt>
<wgt id='1674'> +1.5151765e-12 </wgt>
<wgt id='1675'> +1.5406718e-12 </wgt>
<wgt id='1676'> +1.5296152e-12 </wgt>
<wgt id='1677'> +1.5624195e-12 </wgt>
<wgt id='1678'> +1.5239829e-12 </wgt>
<wgt id='1679'> +1.5445792e-12 </wgt>
<wgt id='1680'> +1.5900212e-12 </wgt>
<wgt id='1681'> +1.5744896e-12 </wgt>
<wgt id='1682'> +1.5382177e-12 </wgt>
<wgt id='1683'> +1.5458286e-12 </wgt>
<wgt id='1684'> +1.5957692e-12 </wgt>
<wgt id='1685'> +1.5400982e-12 </wgt>
<wgt id='1686'> +1.5414725e-12 </wgt>
<wgt id='1687'> +1.5625072e-12 </wgt>
<wgt id='1688'> +1.5168308e-12 </wgt>
<wgt id='1689'> +1.6038553e-12 </wgt>
<wgt id='1690'> +1.5368924e-12 </wgt>
<wgt id='1691'> +1.5059581e-12 </wgt>
<wgt id='1692'> +1.5697643e-12 </wgt>
<wgt id='1693'> +1.5411191e-12 </wgt>
<wgt id='1694'> +1.5398520e-12 </wgt>
<wgt id='1695'> +1.5599180e-12 </wgt>
<wgt id='1696'> +1.5351355e-12 </wgt>
<wgt id='1697'> +1.5357125e-12 </wgt>
<wgt id='1698'> +1.5519588e-12 </wgt>
<wgt id='1699'> +1.5546316e-12 </wgt>
<wgt id='1700'> +1.5304988e-12 </wgt>
<wgt id='1701'> +1.6043191e-12 </wgt>
<wgt id='1702'> +1.5014082e-12 </wgt>
<wgt id='1703'> +1.5239328e-12 </wgt>
<wgt id='1704'> +1.5393242e-12 </wgt>
<wgt id='1705'> +1.4779914e-12 </wgt>
<wgt id='1706'> +1.5813904e-12 </wgt>
<wgt id='1707'> +1.5540156e-12 </wgt>
<wgt id='1708'> +1.6090376e-12 </wgt>
<wgt id='1709'> +1.5938251e-12 </wgt>
<wgt id='1710'> +1.5377482e-12 </wgt>
<wgt id='1711'> +1.5417364e-12 </wgt>
<wgt id='1712'> +1.5972199e-12 </wgt>
<wgt id='1713'> +1.3214784e-12 </wgt>
<wgt id='1714'> +1.3149278e-12 </wgt>
<wgt id='1715'> +1.2929309e-12 </wgt>
<wgt id='1716'> +1.3497789e-12 </wgt>
<wgt id='1717'> +1.3313208e-12 </wgt>
<wgt id='1718'> +1.3558050e-12 </wgt>
<wgt id='1719'> +1.3434231e-12 </wgt>
<wgt id='1720'> +1.2829671e-12 </wgt>
<wgt id='1721'> +1.2918159e-12 </wgt>
<wgt id='1722'> +1.3139396e-12 </wgt>
<wgt id='1723'> +1.3668339e-12 </wgt>
<wgt id='1724'> +1.3281374e-12 </wgt>
<wgt id='1725'> +1.3247367e-12 </wgt>
<wgt id='1726'> +1.3287334e-12 </wgt>
<wgt id='1727'> +1.3615396e-12 </wgt>
<wgt id='1728'> +1.3081412e-12 </wgt>
<wgt id='1729'> +1.2703652e-12 </wgt>
<wgt id='1730'> +1.2996821e-12 </wgt>
<wgt id='1731'> +1.2551163e-12 </wgt>
<wgt id='1732'> +1.3220377e-12 </wgt>
<wgt id='1733'> +1.2620713e-12 </wgt>
<wgt id='1734'> +1.3847072e-12 </wgt>
<wgt id='1735'> +1.3065232e-12 </wgt>
<wgt id='1736'> +1.3493769e-12 </wgt>
<wgt id='1737'> +1.3627380e-12 </wgt>
<wgt id='1738'> +1.3146842e-12 </wgt>
<wgt id='1739'> +1.3222119e-12 </wgt>
<wgt id='1740'> +1.2431451e-12 </wgt>
<wgt id='1741'> +1.3596855e-12 </wgt>
<wgt id='1742'> +1.3020415e-12 </wgt>
<wgt id='1743'> +1.2996828e-12 </wgt>
<wgt id='1744'> +1.3429580e-12 </wgt>
<wgt id='1745'> +1.3413518e-12 </wgt>
<wgt id='1746'> +1.3005996e-12 </wgt>
<wgt id='1747'> +1.3789569e-12 </wgt>
<wgt id='1748'> +1.3131171e-12 </wgt>
<wgt id='1749'> +1.3106870e-12 </wgt>
<wgt id='1750'> +1.2960596e-12 </wgt>
<wgt id='1751'> +1.2993969e-12 </wgt>
<wgt id='1752'> +1.3127229e-12 </wgt>
<wgt id='1753'> +1.3343023e-12 </wgt>
<wgt id='1754'> +1.3399343e-12 </wgt>
<wgt id='1755'> +1.3321560e-12 </wgt>
<wgt id='1756'> +1.3460751e-12 </wgt>
<wgt id='1757'> +1.3434523e-12 </wgt>
<wgt id='1758'> +1.3725304e-12 </wgt>
<wgt id='1759'> +1.3471842e-12 </wgt>
<wgt id='1760'> +1.3137955e-12 </wgt>
<wgt id='1761'> +1.3230911e-12 </wgt>
<wgt id='1762'> +1.2977859e-12 </wgt>
<wgt id='1763'> +1.3410481e-12 </wgt>
<wgt id='1764'> +1.3561052e-12 </wgt>
<wgt id='1765'> +1.3127037e-12 </wgt>
<wgt id='1766'> +1.3563378e-12 </wgt>
<wgt id='1767'> +1.3270124e-12 </wgt>
<wgt id='1768'> +1.3390824e-12 </wgt>
<wgt id='1769'> +1.3319032e-12 </wgt>
<wgt id='1770'> +1.3123003e-12 </wgt>
<wgt id='1771'> +1.3695326e-12 </wgt>
<wgt id='1772'> +1.3099615e-12 </wgt>
<wgt id='1773'> +1.3242114e-12 </wgt>
<wgt id='1774'> +1.3043603e-12 </wgt>
<wgt id='1775'> +1.3186202e-12 </wgt>
<wgt id='1776'> +1.3724146e-12 </wgt>
<wgt id='1777'> +1.2608470e-12 </wgt>
<wgt id='1778'> +1.3223602e-12 </wgt>
<wgt id='1779'> +1.3146359e-12 </wgt>
<wgt id='1780'> +1.3131123e-12 </wgt>
<wgt id='1781'> +1.3476029e-12 </wgt>
<wgt id='1782'> +1.3086857e-12 </wgt>
<wgt id='1783'> +1.3304899e-12 </wgt>
<wgt id='1784'> +1.3194674e-12 </wgt>
<wgt id='1785'> +1.3274304e-12 </wgt>
<wgt id='1786'> +1.3118407e-12 </wgt>
<wgt id='1787'> +1.4001669e-12 </wgt>
<wgt id='1788'> +1.3101681e-12 </wgt>
<wgt id='1789'> +1.3971927e-12 </wgt>
<wgt id='1790'> +1.3329520e-12 </wgt>
<wgt id='1791'> +1.3126478e-12 </wgt>
<wgt id='1792'> +1.2976164e-12 </wgt>
<wgt id='1793'> +1.3048881e-12 </wgt>
<wgt id='1794'> +1.3581086e-12 </wgt>
<wgt id='1795'> +1.3322439e-12 </wgt>
<wgt id='1796'> +1.2870243e-12 </wgt>
<wgt id='1797'> +1.3256846e-12 </wgt>
<wgt id='1798'> +1.3092412e-12 </wgt>
<wgt id='1799'> +1.3053516e-12 </wgt>
<wgt id='1800'> +1.3379627e-12 </wgt>
<wgt id='1801'> +1.3199396e-12 </wgt>
<wgt id='1802'> +1.2912250e-12 </wgt>
<wgt id='1803'> +1.3312453e-12 </wgt>
<wgt id='1804'> +1.3299354e-12 </wgt>
<wgt id='1805'> +1.2878596e-12 </wgt>
<wgt id='1806'> +1.2936219e-12 </wgt>
<wgt id='1807'> +1.3090593e-12 </wgt>
<wgt id='1808'> +1.2877044e-12 </wgt>
<wgt id='1809'> +1.3053195e-12 </wgt>
<wgt id='1810'> +1.2916776e-12 </wgt>
<wgt id='1811'> +1.3306969e-12 </wgt>
<wgt id='1812'> +1.2956796e-12 </wgt>
<wgt id='1813'> +1.2448982e-12 </wgt>
<wgt id='1814'> +1.6446737e-12 </wgt>
<wgt id='1815'> +1.9901426e-12 </wgt>
<wgt id='1816'> +1.3214784e-12 </wgt>
<wgt id='1817'> +1.3149278e-12 </wgt>
<wgt id='1818'> +1.2929309e-12 </wgt>
<wgt id='1819'> +1.3497789e-12 </wgt>
<wgt id='1820'> +1.3313208e-12 </wgt>
<wgt id='1821'> +1.3558050e-12 </wgt>
<wgt id='1822'> +1.3434231e-12 </wgt>
<wgt id='1823'> +1.2829671e-12 </wgt>
<wgt id='1824'> +1.2918159e-12 </wgt>
<wgt id='1825'> +1.3139396e-12 </wgt>
<wgt id='1826'> +1.3668339e-12 </wgt>
<wgt id='1827'> +1.3281374e-12 </wgt>
<wgt id='1828'> +1.3247367e-12 </wgt>
<wgt id='1829'> +1.3287334e-12 </wgt>
<wgt id='1830'> +1.3615396e-12 </wgt>
<wgt id='1831'> +1.3081412e-12 </wgt>
<wgt id='1832'> +1.2703652e-12 </wgt>
<wgt id='1833'> +1.2996821e-12 </wgt>
<wgt id='1834'> +1.2551163e-12 </wgt>
<wgt id='1835'> +1.3220377e-12 </wgt>
<wgt id='1836'> +1.2620713e-12 </wgt>
<wgt id='1837'> +1.3847072e-12 </wgt>
<wgt id='1838'> +1.3065232e-12 </wgt>
<wgt id='1839'> +1.3493769e-12 </wgt>
<wgt id='1840'> +1.3627380e-12 </wgt>
<wgt id='1841'> +1.3146842e-12 </wgt>
<wgt id='1842'> +1.3222119e-12 </wgt>
<wgt id='1843'> +1.2431451e-12 </wgt>
<wgt id='1844'> +1.3596855e-12 </wgt>
<wgt id='1845'> +1.3020415e-12 </wgt>
<wgt id='1846'> +1.2996828e-12 </wgt>
<wgt id='1847'> +1.3429580e-12 </wgt>
<wgt id='1848'> +1.3413518e-12 </wgt>
<wgt id='1849'> +1.3005996e-12 </wgt>
<wgt id='1850'> +1.3789569e-12 </wgt>
<wgt id='1851'> +1.3131171e-12 </wgt>
<wgt id='1852'> +1.3106870e-12 </wgt>
<wgt id='1853'> +1.2960596e-12 </wgt>
<wgt id='1854'> +1.2993969e-12 </wgt>
<wgt id='1855'> +1.3127229e-12 </wgt>
<wgt id='1856'> +1.3343023e-12 </wgt>
<wgt id='1857'> +1.3399343e-12 </wgt>
<wgt id='1858'> +1.3321560e-12 </wgt>
<wgt id='1859'> +1.3460751e-12 </wgt>
<wgt id='1860'> +1.3434523e-12 </wgt>
<wgt id='1861'> +1.3725304e-12 </wgt>
<wgt id='1862'> +1.3471842e-12 </wgt>
<wgt id='1863'> +1.3137955e-12 </wgt>
<wgt id='1864'> +1.3230911e-12 </wgt>
<wgt id='1865'> +1.2977859e-12 </wgt>
<wgt id='1866'> +1.3410481e-12 </wgt>
<wgt id='1867'> +1.3561052e-12 </wgt>
<wgt id='1868'> +1.3127037e-12 </wgt>
<wgt id='1869'> +1.3563378e-12 </wgt>
<wgt id='1870'> +1.3270124e-12 </wgt>
<wgt id='1871'> +1.3390824e-12 </wgt>
<wgt id='1872'> +1.3319032e-12 </wgt>
<wgt id='1873'> +1.3123003e-12 </wgt>
<wgt id='1874'> +1.3695326e-12 </wgt>
<wgt id='1875'> +1.3099615e-12 </wgt>
<wgt id='1876'> +1.3242114e-12 </wgt>
<wgt id='1877'> +1.3043603e-12 </wgt>
<wgt id='1878'> +1.3186202e-12 </wgt>
<wgt id='1879'> +1.3724146e-12 </wgt>
<wgt id='1880'> +1.2608470e-12 </wgt>
<wgt id='1881'> +1.3223602e-12 </wgt>
<wgt id='1882'> +1.3146359e-12 </wgt>
<wgt id='1883'> +1.3131123e-12 </wgt>
<wgt id='1884'> +1.3476029e-12 </wgt>
<wgt id='1885'> +1.3086857e-12 </wgt>
<wgt id='1886'> +1.3304899e-12 </wgt>
<wgt id='1887'> +1.3194674e-12 </wgt>
<wgt id='1888'> +1.3274304e-12 </wgt>
<wgt id='1889'> +1.3118407e-12 </wgt>
<wgt id='1890'> +1.4001669e-12 </wgt>
<wgt id='1891'> +1.3101681e-12 </wgt>
<wgt id='1892'> +1.3971927e-12 </wgt>
<wgt id='1893'> +1.3329520e-12 </wgt>
<wgt id='1894'> +1.3126478e-12 </wgt>
<wgt id='1895'> +1.2976164e-12 </wgt>
<wgt id='1896'> +1.3048881e-12 </wgt>
<wgt id='1897'> +1.3581086e-12 </wgt>
<wgt id='1898'> +1.3322439e-12 </wgt>
<wgt id='1899'> +1.2870243e-12 </wgt>
<wgt id='1900'> +1.3256846e-12 </wgt>
<wgt id='1901'> +1.3092412e-12 </wgt>
<wgt id='1902'> +1.3053516e-12 </wgt>
<wgt id='1903'> +1.3379627e-12 </wgt>
<wgt id='1904'> +1.3199396e-12 </wgt>
<wgt id='1905'> +1.2912250e-12 </wgt>
<wgt id='1906'> +1.3312453e-12 </wgt>
<wgt id='1907'> +1.3299354e-12 </wgt>
<wgt id='1908'> +1.2878596e-12 </wgt>
<wgt id='1909'> +1.2936219e-12 </wgt>
<wgt id='1910'> +1.3090593e-12 </wgt>
<wgt id='1911'> +1.2877044e-12 </wgt>
<wgt id='1912'> +1.3053195e-12 </wgt>
<wgt id='1913'> +1.2916776e-12 </wgt>
<wgt id='1914'> +1.3306969e-12 </wgt>
<wgt id='1915'> +1.2956796e-12 </wgt>
<wgt id='1916'> +1.2448982e-12 </wgt>
<wgt id='1917'> +1.3132312e-12 </wgt>
<wgt id='1918'> +1.3371324e-12 </wgt>
<wgt id='1919'> +1.2903461e-12 </wgt>
</rwgt>
</event>
<event>
 9      1 +1.5607000e-12 6.09755800e+01 7.81860800e-03 1.26482000e-01
       -3 -1    0    0    0  501 -0.0000000000e+00 +0.0000000000e+00 +3.7667186491e+00 3.7667186491e+00 0.0000000000e+00 0.0000e+00 1.0000e+00
       21 -1    0    0  501  502 +0.0000000000e+00 -0.0000000000e+00 -2.4676791401e+02 2.4676791401e+02 0.0000000000e+00 0.0000e+00 1.0000e+00
     1023  2    1    2    0    0 -1.8320193498e+01 -1.8033389313e+01 -1.8075703541e+02 1.8319097618e+02 1.4999842794e+01 0.0000e+00 0.0000e+00
  1000023  2    3    3    0    0 -1.1027651706e+01 -7.6832978904e+00 -6.3113529508e+01 6.4762516598e+01 5.4976158905e+00 0.0000e+00 0.0000e+00
       -3  1    1    2    0  502 +1.8320193498e+01 +1.8033389313e+01 -6.2244159948e+01 6.7343656476e+01 0.0000000000e+00 0.0000e+00 1.0000e+00
  1000022  1    4    4    0    0 -9.3734078827e+00 -6.4726616561e+00 -5.4572245415e+01 5.5972190361e+01 5.0000000000e+00 0.0000e+00 1.0000e+00
      -13  1    4    4    0    0 -5.5114236273e-01 -5.5832859117e-01 -3.2215039512e+00 3.3173406393e+00 1.0570000000e-01 0.0000e+00 -1.0000e+00
       13  1    4    4    0    0 -1.1031014609e+00 -6.5230764317e-01 -5.3197801425e+00 5.4729855974e+00 1.0570000000e-01 0.0000e+00 1.0000e+00
  1000022  1    3    3    0    0 -7.2925417912e+00 -1.0350091423e+01 -1.1764350591e+02 1.1842845959e+02 5.0000000000e+00 0.0000e+00 1.0000e+00
<mgrwt>
<rscale>  1 0.60975579E+02</rscale>
<asrwt>0</asrwt>
<pdfrwt beam="1">  1       21 0.37964303E-01 0.60975579E+02</pdfrwt>
<pdfrwt beam="2">  1       -3 0.57949504E-03 0.60975579E+02</pdfrwt>
<totfact> 0.25126756E+06</totfact>
</mgrwt>
<rwgt>
<wgt id='1001'> +1.5607000e-12 </wgt>
<wgt id='1002'> +1.5644477e-12 </wgt>
<wgt id='1003'> +1.5637130e-12 </wgt>
<wgt id='1004'> +1.5634061e-12 </wgt>
<wgt id='1005'> +1.5607000e-12 </wgt>
<wgt id='1006'> +1.3890392e-12 </wgt>
<wgt id='1007'> +1.3875594e-12 </wgt>
<wgt id='1008'> +1.3880332e-12 </wgt>
<wgt id='1009'> +1.3638472e-12 </wgt>
<wgt id='1010'> +1.3890392e-12 </wgt>
<wgt id='1011'> +1.7828361e-12 </wgt>
<wgt id='1012'> +1.7953016e-12 </wgt>
<wgt id='1013'> +1.7925165e-12 </wgt>
<wgt id='1014'> +1.8348728e-12 </wgt>
<wgt id='1015'> +1.7828361e-12 </wgt>
<wgt id='1016'> +1.7219315e-12 </wgt>
<wgt id='1017'> +1.7369000e-12 </wgt>
<wgt id='1018'> +1.7335016e-12 </wgt>
<wgt id='1019'> +1.7925165e-12 </wgt>
<wgt id='1020'> +1.7219315e-12 </wgt>
<wgt id='1021'> +1.5325369e-12 </wgt>
<wgt id='1022'> +1.5405130e-12 </wgt>
<wgt id='1023'> +1.5387464e-12 </wgt>
<wgt id='1024'> +1.5637130e-12 </wgt>
<wgt id='1025'> +1.5325369e-12 </wgt>
<wgt id='1026'> +1.9670158e-12 </wgt>
<wgt id='1027'> +1.9932014e-12 </wgt>
<wgt id='1028'> +1.9871487e-12 </wgt>
<wgt id='1029'> +2.1037655e-12 </wgt>
<wgt id='1030'> +1.9670158e-12 </wgt>
<wgt id='1031'> +1.3709584e-12 </wgt>
<wgt id='1032'> +1.3614781e-12 </wgt>
<wgt id='1033'> +1.3638472e-12 </wgt>
<wgt id='1034'> +1.2951005e-12 </wgt>
<wgt id='1035'> +1.3709584e-12 </wgt>
<wgt id='1036'> +1.2201672e-12 </wgt>
<wgt id='1037'> +1.2075391e-12 </wgt>
<wgt id='1038'> +1.2106218e-12 </wgt>
<wgt id='1039'> +1.1297891e-12 </wgt>
<wgt id='1040'> +1.2201672e-12 </wgt>
<wgt id='1041'> +1.5660884e-12 </wgt>
<wgt id='1042'> +1.5623812e-12 </wgt>
<wgt id='1043'> +1.5634061e-12 </wgt>
<wgt id='1044'> +1.5199791e-12 </wgt>
<wgt id='1045'> +1.5660884e-12 </wgt>
<wgt id='1046'> +1.5607000e-12 </wgt>
<wgt id='1047'> +1.4761241e-12 </wgt>
<wgt id='1048'> +1.5934060e-12 </wgt>
<wgt id='1049'> +1.5891976e-12 </wgt>
<wgt id='1050'> +1.5806231e-12 </wgt>
<wgt id='1051'> +1.5371834e-12 </wgt>
<wgt id='1052'> +1.4837795e-12 </wgt>
<wgt id='1053'> +1.5843959e-12 </wgt>
<wgt id='1054'> +1.6047614e-12 </wgt>
<wgt id='1055'> +1.5847736e-12 </wgt>
<wgt id='1056'> +1.4732838e-12 </wgt>
<wgt id='1057'> +1.5473544e-12 </wgt>
<wgt id='1058'> +1.5932978e-12 </wgt>
<wgt id='1059'> +1.6025561e-12 </wgt>
<wgt id='1060'> +1.5109487e-12 </wgt>
<wgt id='1061'> +1.6349443e-12 </wgt>
<wgt id='1062'> +1.6089459e-12 </wgt>
<wgt id='1063'> +1.3555227e-12 </wgt>
<wgt id='1064'> +1.6233466e-12 </wgt>
<wgt id='1065'> +1.5874953e-12 </wgt>
<wgt id='1066'> +1.6125365e-12 </wgt>
<wgt id='1067'> +1.5729698e-12 </wgt>
<wgt id='1068'> +1.5802959e-12 </wgt>
<wgt id='1069'> +1.5533612e-12 </wgt>
<wgt id='1070'> +1.5871435e-12 </wgt>
<wgt id='1071'> +1.5709177e-12 </wgt>
<wgt id='1072'> +1.5319708e-12 </wgt>
<wgt id='1073'> +1.2965722e-12 </wgt>
<wgt id='1074'> +1.6105435e-12 </wgt>
<wgt id='1075'> +1.4941132e-12 </wgt>
<wgt id='1076'> +1.4156109e-12 </wgt>
<wgt id='1077'> +1.4910189e-12 </wgt>
<wgt id='1078'> +1.6104916e-12 </wgt>
<wgt id='1079'> +1.5496282e-12 </wgt>
<wgt id='1080'> +1.5901457e-12 </wgt>
<wgt id='1081'> +1.4832477e-12 </wgt>
<wgt id='1082'> +1.5679087e-12 </wgt>
<wgt id='1083'> +1.6663658e-12 </wgt>
<wgt id='1084'> +1.4883527e-12 </wgt>
<wgt id='1085'> +1.6362229e-12 </wgt>
<wgt id='1086'> +1.5948695e-12 </wgt>
<wgt id='1087'> +1.5469559e-12 </wgt>
<wgt id='1088'> +1.5998572e-12 </wgt>
<wgt id='1089'> +1.4797558e-12 </wgt>
<wgt id='1090'> +1.5004979e-12 </wgt>
<wgt id='1091'> +1.7451208e-12 </wgt>
<wgt id='1092'> +1.5509663e-12 </wgt>
<wgt id='1093'> +1.5563200e-12 </wgt>
<wgt id='1094'> +1.5781003e-12 </wgt>
<wgt id='1095'> +1.5003409e-12 </wgt>
<wgt id='1096'> +1.5283105e-12 </wgt>
<wgt id='1097'> +1.5938206e-12 </wgt>
<wgt id='1098'> +1.5731101e-12 </wgt>
<wgt id='1099'> +1.4117004e-12 </wgt>
<wgt id='1100'> +1.5954378e-12 </wgt>
<wgt id='1101'> +1.5609511e-12 </wgt>
<wgt id='1102'> +1.5999249e-12 </wgt>
<wgt id='1103'> +1.5855773e-12 </wgt>
<wgt id='1104'> +1.5859940e-12 </wgt>
<wgt id='1105'> +1.3541441e-12 </wgt>
<wgt id='1106'> +1.5492434e-12 </wgt>
<wgt id='1107'> +1.6020481e-12 </wgt>
<wgt id='1108'> +1.5998869e-12 </wgt>
<wgt id='1109'> +1.4061256e-12 </wgt>
<wgt id='1110'> +1.5743410e-12 </wgt>
<wgt id='1111'> +1.5670040e-12 </wgt>
<wgt id='1112'> +1.5780682e-12 </wgt>
<wgt id='1113'> +1.7488645e-12 </wgt>
<wgt id='1114'> +1.5013719e-12 </wgt>
<wgt id='1115'> +1.5634900e-12 </wgt>
<wgt id='1116'> +1.5578275e-12 </wgt>
<wgt id='1117'> +1.4873297e-12 </wgt>
<wgt id='1118'> +1.6478331e-12 </wgt>
<wgt id='1119'> +1.6059701e-12 </wgt>
<wgt id='1120'> +1.6319107e-12 </wgt>
<wgt id='1121'> +1.5890320e-12 </wgt>
<wgt id='1122'> +1.4821458e-12 </wgt>
<wgt id='1123'> +1.6048956e-12 </wgt>
<wgt id='1124'> +1.6177261e-12 </wgt>
<wgt id='1125'> +1.5336437e-12 </wgt>
<wgt id='1126'> +1.4101372e-12 </wgt>
<wgt id='1127'> +1.5644365e-12 </wgt>
<wgt id='1128'> +1.6089459e-12 </wgt>
<wgt id='1129'> +1.5681202e-12 </wgt>
<wgt id='1130'> +1.5913648e-12 </wgt>
<wgt id='1131'> +1.6426697e-12 </wgt>
<wgt id='1132'> +1.5591541e-12 </wgt>
<wgt id='1133'> +1.6454277e-12 </wgt>
<wgt id='1134'> +1.4448237e-12 </wgt>
<wgt id='1135'> +1.6336392e-12 </wgt>
<wgt id='1136'> +1.5923458e-12 </wgt>
<wgt id='1137'> +1.6018589e-12 </wgt>
<wgt id='1138'> +1.6241924e-12 </wgt>
<wgt id='1139'> +1.5891833e-12 </wgt>
<wgt id='1140'> +1.5449543e-12 </wgt>
<wgt id='1141'> +1.7439992e-12 </wgt>
<wgt id='1142'> +1.5973047e-12 </wgt>
<wgt id='1143'> +1.4711521e-12 </wgt>
<wgt id='1144'> +1.4473626e-12 </wgt>
<wgt id='1145'> +1.5988631e-12 </wgt>
<wgt id='1146'> +1.6044131e-12 </wgt>
<wgt id='1147'> +1.2523990e-12 </wgt>
<wgt id='1148'> +1.2784947e-12 </wgt>
<wgt id='1149'> +1.2578024e-12 </wgt>
<wgt id='1150'> +1.2216499e-12 </wgt>
<wgt id='1151'> +1.0118597e-12 </wgt>
<wgt id='1152'> +1.3971109e-12 </wgt>
<wgt id='1153'> +1.3927430e-12 </wgt>
<wgt id='1154'> +1.3996796e-12 </wgt>
<wgt id='1155'> +1.3981904e-12 </wgt>
<wgt id='1156'> +1.3966398e-12 </wgt>
<wgt id='1157'> +1.3902774e-12 </wgt>
<wgt id='1158'> +1.4063526e-12 </wgt>
<wgt id='1159'> +1.3919719e-12 </wgt>
<wgt id='1160'> +1.4005071e-12 </wgt>
<wgt id='1161'> +1.3877381e-12 </wgt>
<wgt id='1162'> +1.4036616e-12 </wgt>
<wgt id='1163'> +1.3921474e-12 </wgt>
<wgt id='1164'> +1.4021047e-12 </wgt>
<wgt id='1165'> +1.3861575e-12 </wgt>
<wgt id='1166'> +1.4078729e-12 </wgt>
<wgt id='1167'> +1.4096557e-12 </wgt>
<wgt id='1168'> +1.3804337e-12 </wgt>
<wgt id='1169'> +1.3999010e-12 </wgt>
<wgt id='1170'> +1.3951636e-12 </wgt>
<wgt id='1171'> +1.3949485e-12 </wgt>
<wgt id='1172'> +1.3999635e-12 </wgt>
<wgt id='1173'> +1.3932622e-12 </wgt>
<wgt id='1174'> +1.4004925e-12 </wgt>
<wgt id='1175'> +1.3961166e-12 </wgt>
<wgt id='1176'> +1.3973385e-12 </wgt>
<wgt id='1177'> +1.3978124e-12 </wgt>
<wgt id='1178'> +1.3955536e-12 </wgt>
<wgt id='1179'> +1.4064894e-12 </wgt>
<wgt id='1180'> +1.3839110e-12 </wgt>
<wgt id='1181'> +1.3944865e-12 </wgt>
<wgt id='1182'> +1.3998037e-12 </wgt>
<wgt id='1183'> +1.3978178e-12 </wgt>
<wgt id='1184'> +1.3971461e-12 </wgt>
<wgt id='1185'> +1.4250702e-12 </wgt>
<wgt id='1186'> +1.3834517e-12 </wgt>
<wgt id='1187'> +1.4019918e-12 </wgt>
<wgt id='1188'> +1.3953688e-12 </wgt>
<wgt id='1189'> +1.3967735e-12 </wgt>
<wgt id='1190'> +1.3765225e-12 </wgt>
<wgt id='1191'> +1.3918767e-12 </wgt>
<wgt id='1192'> +1.4037611e-12 </wgt>
<wgt id='1193'> +1.2199186e-12 </wgt>
<wgt id='1194'> +1.2125960e-12 </wgt>
<wgt id='1195'> +1.2258945e-12 </wgt>
<wgt id='1196'> +1.2178958e-12 </wgt>
<wgt id='1197'> +1.2222297e-12 </wgt>
<wgt id='1198'> +1.2253463e-12 </wgt>
<wgt id='1199'> +1.2118921e-12 </wgt>
<wgt id='1200'> +1.2186511e-12 </wgt>
<wgt id='1201'> +1.2208083e-12 </wgt>
<wgt id='1202'> +1.2172595e-12 </wgt>
<wgt id='1203'> +1.2237337e-12 </wgt>
<wgt id='1204'> +1.2074802e-12 </wgt>
<wgt id='1205'> +1.2276178e-12 </wgt>
<wgt id='1206'> +1.2246122e-12 </wgt>
<wgt id='1207'> +1.2135735e-12 </wgt>
<wgt id='1208'> +1.2146843e-12 </wgt>
<wgt id='1209'> +1.2219208e-12 </wgt>
<wgt id='1210'> +1.2144522e-12 </wgt>
<wgt id='1211'> +1.2188955e-12 </wgt>
<wgt id='1212'> +1.2187063e-12 </wgt>
<wgt id='1213'> +1.2211661e-12 </wgt>
<wgt id='1214'> +1.2119781e-12 </wgt>
<wgt id='1215'> +1.2299445e-12 </wgt>
<wgt id='1216'> +1.2235091e-12 </wgt>
<wgt id='1217'> +1.2170067e-12 </wgt>
<wgt id='1218'> +1.2255439e-12 </wgt>
<wgt id='1219'> +1.2169683e-12 </wgt>
<wgt id='1220'> +1.2254160e-12 </wgt>
<wgt id='1221'> +1.2190921e-12 </wgt>
<wgt id='1222'> +1.2255072e-12 </wgt>
<wgt id='1223'> +1.2144822e-12 </wgt>
<wgt id='1224'> +1.2161606e-12 </wgt>
<wgt id='1225'> +1.2214287e-12 </wgt>
<wgt id='1226'> +1.2282320e-12 </wgt>
<wgt id='1227'> +1.2147990e-12 </wgt>
<wgt id='1228'> +1.2172329e-12 </wgt>
<wgt id='1229'> +1.2209869e-12 </wgt>
<wgt id='1230'> +1.2307033e-12 </wgt>
<wgt id='1231'> +1.2104272e-12 </wgt>
<wgt id='1232'> +1.2192350e-12 </wgt>
<wgt id='1233'> +1.2199809e-12 </wgt>
<wgt id='1234'> +1.2199186e-12 </wgt>
<wgt id='1235'> +1.2131553e-12 </wgt>
<wgt id='1236'> +1.2158118e-12 </wgt>
<wgt id='1237'> +1.2180478e-12 </wgt>
<wgt id='1238'> +1.2221178e-12 </wgt>
<wgt id='1239'> +1.2236216e-12 </wgt>
<wgt id='1240'> +1.2251265e-12 </wgt>
<wgt id='1241'> +1.2563824e-12 </wgt>
<wgt id='1242'> +1.2473783e-12 </wgt>
<wgt id='1243'> +1.2652494e-12 </wgt>
<wgt id='1244'> +1.2534143e-12 </wgt>
<wgt id='1245'> +1.2585771e-12 </wgt>
<wgt id='1246'> +1.2579403e-12 </wgt>
<wgt id='1247'> +1.2550706e-12 </wgt>
<wgt id='1248'> +1.2561786e-12 </wgt>
<wgt id='1249'> +1.2566546e-12 </wgt>
<wgt id='1250'> +1.2476426e-12 </wgt>
<wgt id='1251'> +1.2625670e-12 </wgt>
<wgt id='1252'> +1.2522717e-12 </wgt>
<wgt id='1253'> +1.2596074e-12 </wgt>
<wgt id='1254'> +1.2458772e-12 </wgt>
<wgt id='1255'> +1.2626814e-12 </wgt>
<wgt id='1256'> +1.2600169e-12 </wgt>
<wgt id='1257'> +1.2472584e-12 </wgt>
<wgt id='1258'> +1.2646731e-12 </wgt>
<wgt id='1259'> +1.2475917e-12 </wgt>
<wgt id='1260'> +1.2600522e-12 </wgt>
<wgt id='1261'> +1.2522786e-12 </wgt>
<wgt id='1262'> +1.2580732e-12 </wgt>
<wgt id='1263'> +1.2555603e-12 </wgt>
<wgt id='1264'> +1.2653156e-12 </wgt>
<wgt id='1265'> +1.2522135e-12 </wgt>
<wgt id='1266'> +1.2530691e-12 </wgt>
<wgt id='1267'> +1.2606961e-12 </wgt>
<wgt id='1268'> +1.2570766e-12 </wgt>
<wgt id='1269'> +1.2594130e-12 </wgt>
<wgt id='1270'> +1.2571718e-12 </wgt>
<wgt id='1271'> +1.2543676e-12 </wgt>
<wgt id='1272'> +1.2584578e-12 </wgt>
<wgt id='1273'> +1.2558669e-12 </wgt>
<wgt id='1274'> +1.2509162e-12 </wgt>
<wgt id='1275'> +1.2649257e-12 </wgt>
<wgt id='1276'> +1.2573640e-12 </wgt>
<wgt id='1277'> +1.2546062e-12 </wgt>
<wgt id='1278'> +1.2555168e-12 </wgt>
<wgt id='1279'> +1.2604943e-12 </wgt>
<wgt id='1280'> +1.2572428e-12 </wgt>
<wgt id='1281'> +1.2533221e-12 </wgt>
<wgt id='1282'> +1.2563824e-12 </wgt>
<wgt id='1283'> +1.2479006e-12 </wgt>
<wgt id='1284'> +1.2513498e-12 </wgt>
<wgt id='1285'> +1.2541600e-12 </wgt>
<wgt id='1286'> +1.2589002e-12 </wgt>
<wgt id='1287'> +1.2607039e-12 </wgt>
<wgt id='1288'> +1.2622953e-12 </wgt>
<wgt id='1289'> +1.3171511e-12 </wgt>
<wgt id='1290'> +1.3207726e-12 </wgt>
<wgt id='1291'> +1.3132832e-12 </wgt>
<wgt id='1292'> +1.3193272e-12 </wgt>
<wgt id='1293'> +1.3155467e-12 </wgt>
<wgt id='1294'> +1.3122029e-12 </wgt>
<wgt id='1295'> +1.3218532e-12 </wgt>
<wgt id='1296'> +1.3129550e-12 </wgt>
<wgt id='1297'> +1.3223608e-12 </wgt>
<wgt id='1298'> +1.3236172e-12 </wgt>
<wgt id='1299'> +1.3092642e-12 </wgt>
<wgt id='1300'> +1.3180794e-12 </wgt>
<wgt id='1301'> +1.3153665e-12 </wgt>
<wgt id='1302'> +1.3134823e-12 </wgt>
<wgt id='1303'> +1.3221520e-12 </wgt>
<wgt id='1304'> +1.3091895e-12 </wgt>
<wgt id='1305'> +1.3226172e-12 </wgt>
<wgt id='1306'> +1.3000553e-12 </wgt>
<wgt id='1307'> +1.3362953e-12 </wgt>
<wgt id='1308'> +1.2585544e-12 </wgt>
<wgt id='1309'> +1.3618889e-12 </wgt>
<wgt id='1310'> +1.3157762e-12 </wgt>
<wgt id='1311'> +1.3187686e-12 </wgt>
<wgt id='1312'> +1.3106454e-12 </wgt>
<wgt id='1313'> +1.3240386e-12 </wgt>
<wgt id='1314'> +1.3086343e-12 </wgt>
<wgt id='1315'> +1.3200839e-12 </wgt>
<wgt id='1316'> +1.3186832e-12 </wgt>
<wgt id='1317'> +1.3221179e-12 </wgt>
<wgt id='1318'> +1.3268520e-12 </wgt>
<wgt id='1319'> +1.3053267e-12 </wgt>
<wgt id='1320'> +1.3266219e-12 </wgt>
<wgt id='1321'> +1.3084985e-12 </wgt>
<wgt id='1322'> +1.3225981e-12 </wgt>
<wgt id='1323'> +1.3098687e-12 </wgt>
<wgt id='1324'> +1.3199329e-12 </wgt>
<wgt id='1325'> +1.3155702e-12 </wgt>
<wgt id='1326'> +1.3269657e-12 </wgt>
<wgt id='1327'> +1.3118338e-12 </wgt>
<wgt id='1328'> +1.3117363e-12 </wgt>
<wgt id='1329'> +1.3223459e-12 </wgt>
<wgt id='1330'> +1.4043361e-12 </wgt>
<wgt id='1331'> +1.2452176e-12 </wgt>
<wgt id='1332'> +1.2822094e-12 </wgt>
<wgt id='1333'> +1.3626306e-12 </wgt>
<wgt id='1334'> +1.3317825e-12 </wgt>
<wgt id='1335'> +1.2823596e-12 </wgt>
<wgt id='1336'> +1.3168472e-12 </wgt>
<wgt id='1337'> +1.3208362e-12 </wgt>
<wgt id='1338'> +1.3140693e-12 </wgt>
<wgt id='1339'> +1.3189022e-12 </wgt>
<wgt id='1340'> +1.2939775e-12 </wgt>
<wgt id='1341'> +1.2976113e-12 </wgt>
<wgt id='1342'> +1.2900701e-12 </wgt>
<wgt id='1343'> +1.2964904e-12 </wgt>
<wgt id='1344'> +1.2922884e-12 </wgt>
<wgt id='1345'> +1.2888997e-12 </wgt>
<wgt id='1346'> +1.2985978e-12 </wgt>
<wgt id='1347'> +1.2899033e-12 </wgt>
<wgt id='1348'> +1.2985302e-12 </wgt>
<wgt id='1349'> +1.3005182e-12 </wgt>
<wgt id='1350'> +1.2876234e-12 </wgt>
<wgt id='1351'> +1.2945242e-12 </wgt>
<wgt id='1352'> +1.2928604e-12 </wgt>
<wgt id='1353'> +1.2887259e-12 </wgt>
<wgt id='1354'> +1.3033731e-12 </wgt>
<wgt id='1355'> +1.2857104e-12 </wgt>
<wgt id='1356'> +1.2986359e-12 </wgt>
<wgt id='1357'> +1.2593784e-12 </wgt>
<wgt id='1358'> +1.3343054e-12 </wgt>
<wgt id='1359'> +1.2398746e-12 </wgt>
<wgt id='1360'> +1.3408795e-12 </wgt>
<wgt id='1361'> +1.2923684e-12 </wgt>
<wgt id='1362'> +1.2962203e-12 </wgt>
<wgt id='1363'> +1.2865376e-12 </wgt>
<wgt id='1364'> +1.2995503e-12 </wgt>
<wgt id='1365'> +1.2966154e-12 </wgt>
<wgt id='1366'> +1.2828494e-12 </wgt>
<wgt id='1367'> +1.2963094e-12 </wgt>
<wgt id='1368'> +1.2968489e-12 </wgt>
<wgt id='1369'> +1.3009066e-12 </wgt>
<wgt id='1370'> +1.2855766e-12 </wgt>
<wgt id='1371'> +1.3044355e-12 </wgt>
<wgt id='1372'> +1.2813610e-12 </wgt>
<wgt id='1373'> +1.2992308e-12 </wgt>
<wgt id='1374'> +1.2884107e-12 </wgt>
<wgt id='1375'> +1.2958423e-12 </wgt>
<wgt id='1376'> +1.2937162e-12 </wgt>
<wgt id='1377'> +1.3024076e-12 </wgt>
<wgt id='1378'> +1.2902584e-12 </wgt>
<wgt id='1379'> +1.2899160e-12 </wgt>
<wgt id='1380'> +1.2984703e-12 </wgt>
<wgt id='1381'> +1.3881114e-12 </wgt>
<wgt id='1382'> +1.2212047e-12 </wgt>
<wgt id='1383'> +1.2495753e-12 </wgt>
<wgt id='1384'> +1.3512136e-12 </wgt>
<wgt id='1385'> +1.3103986e-12 </wgt>
<wgt id='1386'> +1.2564923e-12 </wgt>
<wgt id='1387'> +1.2914356e-12 </wgt>
<wgt id='1388'> +1.3008971e-12 </wgt>
<wgt id='1389'> +1.2908352e-12 </wgt>
<wgt id='1390'> +1.2958434e-12 </wgt>
<wgt id='1391'> +1.2634146e-12 </wgt>
<wgt id='1392'> +1.2265600e-12 </wgt>
<wgt id='1393'> +1.2422864e-12 </wgt>
<wgt id='1394'> +1.2558463e-12 </wgt>
<wgt id='1395'> +1.2855043e-12 </wgt>
<wgt id='1396'> +1.2690449e-12 </wgt>
<wgt id='1397'> +1.2298136e-12 </wgt>
<wgt id='1398'> +1.2362812e-12 </wgt>
<wgt id='1399'> +1.2419779e-12 </wgt>
<wgt id='1400'> +1.2504385e-12 </wgt>
<wgt id='1401'> +1.2591260e-12 </wgt>
<wgt id='1402'> +1.2826549e-12 </wgt>
<wgt id='1403'> +1.2942660e-12 </wgt>
<wgt id='1404'> +1.3067929e-12 </wgt>
<wgt id='1405'> +1.2690449e-12 </wgt>
<wgt id='1406'> +1.2598833e-12 </wgt>
<wgt id='1407'> +1.2644634e-12 </wgt>
<wgt id='1408'> +1.2729565e-12 </wgt>
<wgt id='1409'> +1.2795075e-12 </wgt>
<wgt id='1410'> +1.3001374e-12 </wgt>
<wgt id='1411'> +1.3040264e-12 </wgt>
<wgt id='1412'> +1.2951408e-12 </wgt>
<wgt id='1413'> +1.3006901e-12 </wgt>
<wgt id='1414'> +1.2995643e-12 </wgt>
<wgt id='1415'> +1.3028311e-12 </wgt>
<wgt id='1416'> +1.2990554e-12 </wgt>
<wgt id='1417'> +1.2906362e-12 </wgt>
<wgt id='1418'> +1.3097069e-12 </wgt>
<wgt id='1419'> +1.3030543e-12 </wgt>
<wgt id='1420'> +1.2973217e-12 </wgt>
<wgt id='1421'> +1.2931318e-12 </wgt>
<wgt id='1422'> +1.3034013e-12 </wgt>
<wgt id='1423'> +1.3009828e-12 </wgt>
<wgt id='1424'> +1.2991660e-12 </wgt>
<wgt id='1425'> +1.2906509e-12 </wgt>
<wgt id='1426'> +1.3103365e-12 </wgt>
<wgt id='1427'> +1.2441495e-12 </wgt>
<wgt id='1428'> +1.3308545e-12 </wgt>
<wgt id='1429'> +1.3255056e-12 </wgt>
<wgt id='1430'> +1.2666953e-12 </wgt>
<wgt id='1431'> +1.2668639e-12 </wgt>
<wgt id='1432'> +1.3235402e-12 </wgt>
<wgt id='1433'> +1.3069761e-12 </wgt>
<wgt id='1434'> +1.2913725e-12 </wgt>
<wgt id='1435'> +1.3032437e-12 </wgt>
<wgt id='1436'> +1.2928047e-12 </wgt>
<wgt id='1437'> +1.3049431e-12 </wgt>
<wgt id='1438'> +1.3020568e-12 </wgt>
<wgt id='1439'> +1.2946368e-12 </wgt>
<wgt id='1440'> +1.3112010e-12 </wgt>
<wgt id='1441'> +1.3034594e-12 </wgt>
<wgt id='1442'> +1.2939608e-12 </wgt>
<wgt id='1443'> +1.2976537e-12 </wgt>
<wgt id='1444'> +1.3068389e-12 </wgt>
<wgt id='1445'> +1.2979868e-12 </wgt>
<wgt id='1446'> +1.3028001e-12 </wgt>
<wgt id='1447'> +1.3012535e-12 </wgt>
<wgt id='1448'> +1.3015858e-12 </wgt>
<wgt id='1449'> +1.2951779e-12 </wgt>
<wgt id='1450'> +1.3036336e-12 </wgt>
<wgt id='1451'> +1.2508535e-12 </wgt>
<wgt id='1452'> +1.3977635e-12 </wgt>
<wgt id='1453'> +1.2950515e-12 </wgt>
<wgt id='1454'> +1.3310254e-12 </wgt>
<wgt id='1455'> +1.3388940e-12 </wgt>
<wgt id='1456'> +1.2757072e-12 </wgt>
<wgt id='1457'> +1.2788258e-12 </wgt>
<wgt id='1458'> +1.3096570e-12 </wgt>
<wgt id='1459'> +1.2824263e-12 </wgt>
<wgt id='1460'> +1.3195791e-12 </wgt>
<wgt id='1461'> +1.3001374e-12 </wgt>
<wgt id='1462'> +1.2811206e-12 </wgt>
<wgt id='1463'> +1.3014579e-12 </wgt>
<wgt id='1464'> +1.2909183e-12 </wgt>
<wgt id='1465'> +1.2499817e-12 </wgt>
<wgt id='1466'> +1.2560372e-12 </wgt>
<wgt id='1467'> +1.2635505e-12 </wgt>
<wgt id='1468'> +1.2738969e-12 </wgt>
<wgt id='1469'> +1.2820211e-12 </wgt>
<wgt id='1470'> +1.3000087e-12 </wgt>
<wgt id='1471'> +1.3097142e-12 </wgt>
<wgt id='1472'> +1.3199649e-12 </wgt>
<wgt id='1473'> +1.2909183e-12 </wgt>
<wgt id='1474'> +1.2820505e-12 </wgt>
<wgt id='1475'> +1.2877607e-12 </wgt>
<wgt id='1476'> +1.2946999e-12 </wgt>
<wgt id='1477'> +1.2978427e-12 </wgt>
<wgt id='1478'> +1.2400015e-12 </wgt>
<wgt id='1479'> +1.2417101e-12 </wgt>
<wgt id='1480'> +1.1999087e-12 </wgt>
<wgt id='1481'> +1.2331656e-12 </wgt>
<wgt id='1482'> +1.2491178e-12 </wgt>
<wgt id='1483'> +1.2711992e-12 </wgt>
<wgt id='1484'> +1.2326340e-12 </wgt>
<wgt id='1485'> +1.2645185e-12 </wgt>
<wgt id='1486'> +1.2353328e-12 </wgt>
<wgt id='1487'> +1.2449267e-12 </wgt>
<wgt id='1488'> +1.2386773e-12 </wgt>
<wgt id='1489'> +1.2306242e-12 </wgt>
<wgt id='1490'> +1.2402157e-12 </wgt>
<wgt id='1491'> +1.2568702e-12 </wgt>
<wgt id='1492'> +1.2349657e-12 </wgt>
<wgt id='1493'> +1.2457245e-12 </wgt>
<wgt id='1494'> +1.1630964e-12 </wgt>
<wgt id='1495'> +1.2476995e-12 </wgt>
<wgt id='1496'> +1.2431667e-12 </wgt>
<wgt id='1497'> +1.2481088e-12 </wgt>
<wgt id='1498'> +1.2400326e-12 </wgt>
<wgt id='1499'> +1.2423531e-12 </wgt>
<wgt id='1500'> +1.2359719e-12 </wgt>
<wgt id='1501'> +1.2415542e-12 </wgt>
<wgt id='1502'> +1.2460784e-12 </wgt>
<wgt id='1503'> +1.2393802e-12 </wgt>
<wgt id='1504'> +1.2422938e-12 </wgt>
<wgt id='1505'> +1.2414562e-12 </wgt>
<wgt id='1506'> +1.2444003e-12 </wgt>
<wgt id='1507'> +1.2375762e-12 </wgt>
<wgt id='1508'> +1.2489459e-12 </wgt>
<wgt id='1509'> +1.3038611e-12 </wgt>
<wgt id='1510'> +1.3110164e-12 </wgt>
<wgt id='1511'> +1.2916483e-12 </wgt>
<wgt id='1512'> +1.3000553e-12 </wgt>
<wgt id='1513'> +1.2548283e-12 </wgt>
<wgt id='1514'> +1.3135310e-12 </wgt>
<wgt id='1515'> +1.3247433e-12 </wgt>
<wgt id='1516'> +1.3038920e-12 </wgt>
<wgt id='1517'> +1.3154159e-12 </wgt>
<wgt id='1518'> +1.2787375e-12 </wgt>
<wgt id='1519'> +1.3273168e-12 </wgt>
<wgt id='1520'> +1.3094668e-12 </wgt>
<wgt id='1521'> +1.2914186e-12 </wgt>
<wgt id='1522'> +1.3036970e-12 </wgt>
<wgt id='1523'> +1.3000888e-12 </wgt>
<wgt id='1524'> +1.3041984e-12 </wgt>
<wgt id='1525'> +1.2997598e-12 </wgt>
<wgt id='1526'> +1.3057194e-12 </wgt>
<wgt id='1527'> +1.3112036e-12 </wgt>
<wgt id='1528'> +1.3040823e-12 </wgt>
<wgt id='1529'> +1.3133048e-12 </wgt>
<wgt id='1530'> +1.3022245e-12 </wgt>
<wgt id='1531'> +1.3099829e-12 </wgt>
<wgt id='1532'> +1.3008130e-12 </wgt>
<wgt id='1533'> +1.3059716e-12 </wgt>
<wgt id='1534'> +1.3100748e-12 </wgt>
<wgt id='1535'> +1.3056262e-12 </wgt>
<wgt id='1536'> +1.3038430e-12 </wgt>
<wgt id='1537'> +1.3000387e-12 </wgt>
<wgt id='1538'> +1.3062709e-12 </wgt>
<wgt id='1539'> +1.3031892e-12 </wgt>
<wgt id='1540'> +1.3056349e-12 </wgt>
<wgt id='1541'> +1.3036512e-12 </wgt>
<wgt id='1542'> +1.3046531e-12 </wgt>
<wgt id='1543'> +1.3045695e-12 </wgt>
<wgt id='1544'> +1.3022789e-12 </wgt>
<wgt id='1545'> +1.3048952e-12 </wgt>
<wgt id='1546'> +1.3039269e-12 </wgt>
<wgt id='1547'> +1.3038887e-12 </wgt>
<wgt id='1548'> +1.3042147e-12 </wgt>
<wgt id='1549'> +1.3041770e-12 </wgt>
<wgt id='1550'> +1.3042009e-12 </wgt>
<wgt id='1551'> +1.3039910e-12 </wgt>
<wgt id='1552'> +1.3056150e-12 </wgt>
<wgt id='1553'> +1.3057927e-12 </wgt>
<wgt id='1554'> +1.3037038e-12 </wgt>
<wgt id='1555'> +1.3042076e-12 </wgt>
<wgt id='1556'> +1.3048360e-12 </wgt>
<wgt id='1557'> +1.3034572e-12 </wgt>
<wgt id='1558'> +1.3037942e-12 </wgt>
<wgt id='1559'> +1.3041780e-12 </wgt>
<wgt id='1560'> +1.3036183e-12 </wgt>
<wgt id='1561'> +1.3035908e-12 </wgt>
<wgt id='1562'> +1.3040253e-12 </wgt>
<wgt id='1563'> +1.3040718e-12 </wgt>
<wgt id='1564'> +1.3047260e-12 </wgt>
<wgt id='1565'> +1.3034000e-12 </wgt>
<wgt id='1566'> +1.3039691e-12 </wgt>
<wgt id='1567'> +1.3043801e-12 </wgt>
<wgt id='1568'> +1.3045579e-12 </wgt>
<wgt id='1569'> +1.3034485e-12 </wgt>
<wgt id='1570'> +1.3032319e-12 </wgt>
<wgt id='1571'> +1.3034534e-12 </wgt>
<wgt id='1572'> +1.3040072e-12 </wgt>
<wgt id='1573'> +1.3033423e-12 </wgt>
<wgt id='1574'> +1.3038443e-12 </wgt>
<wgt id='1575'> +1.3036771e-12 </wgt>
<wgt id='1576'> +1.3043173e-12 </wgt>
<wgt id='1577'> +1.3041779e-12 </wgt>
<wgt id='1578'> +1.3038034e-12 </wgt>
<wgt id='1579'> +1.3036008e-12 </wgt>
<wgt id='1580'> +1.3033469e-12 </wgt>
<wgt id='1581'> +1.3039589e-12 </wgt>
<wgt id='1582'> +1.3039454e-12 </wgt>
<wgt id='1583'> +1.3032090e-12 </wgt>
<wgt id='1584'> +1.3035140e-12 </wgt>
<wgt id='1585'> +1.3040490e-12 </wgt>
<wgt id='1586'> +1.3039571e-12 </wgt>
<wgt id='1587'> +1.3037222e-12 </wgt>
<wgt id='1588'> +1.3036715e-12 </wgt>
<wgt id='1589'> +1.3038513e-12 </wgt>
<wgt id='1590'> +1.3036855e-12 </wgt>
<wgt id='1591'> +1.3038785e-12 </wgt>
<wgt id='1592'> +1.3033641e-12 </wgt>
<wgt id='1593'> +1.3037572e-12 </wgt>
<wgt id='1594'> +1.3038725e-12 </wgt>
<wgt id='1595'> +1.3040620e-12 </wgt>
<wgt id='1596'> +1.3038326e-12 </wgt>
<wgt id='1597'> +1.3036511e-12 </wgt>
<wgt id='1598'> +1.3038651e-12 </wgt>
<wgt id='1599'> +1.3036434e-12 </wgt>
<wgt id='1600'> +1.3036914e-12 </wgt>
<wgt id='1601'> +1.3038899e-12 </wgt>
<wgt id='1602'> +1.3037806e-12 </wgt>
<wgt id='1603'> +1.3038687e-12 </wgt>
<wgt id='1604'> +1.3036682e-12 </wgt>
<wgt id='1605'> +1.3036389e-12 </wgt>
<wgt id='1606'> +1.3039437e-12 </wgt>
<wgt id='1607'> +1.3040767e-12 </wgt>
<wgt id='1608'> +1.3038854e-12 </wgt>
<wgt id='1609'> +1.3038109e-12 </wgt>
<wgt id='1610'> +1.2656326e-12 </wgt>
<wgt id='1611'> +1.3267093e-12 </wgt>
<wgt id='1612'> +1.4974827e-12 </wgt>
<wgt id='1613'> +1.4367720e-12 </wgt>
<wgt id='1614'> +1.3533268e-12 </wgt>
<wgt id='1615'> +1.5278556e-12 </wgt>
<wgt id='1616'> +1.2891006e-12 </wgt>
<wgt id='1617'> +1.4093753e-12 </wgt>
<wgt id='1618'> +1.4877337e-12 </wgt>
<wgt id='1619'> +1.3872586e-12 </wgt>
<wgt id='1620'> +1.5194787e-12 </wgt>
<wgt id='1621'> +1.5763928e-12 </wgt>
<wgt id='1622'> +1.5407151e-12 </wgt>
<wgt id='1623'> +1.4939887e-12 </wgt>
<wgt id='1624'> +1.5355078e-12 </wgt>
<wgt id='1625'> +1.6372708e-12 </wgt>
<wgt id='1626'> +1.5444222e-12 </wgt>
<wgt id='1627'> +1.5498789e-12 </wgt>
<wgt id='1628'> +1.4500958e-12 </wgt>
<wgt id='1629'> +1.5673397e-12 </wgt>
<wgt id='1630'> +1.4659359e-12 </wgt>
<wgt id='1631'> +1.5612995e-12 </wgt>
<wgt id='1632'> +1.5649569e-12 </wgt>
<wgt id='1633'> +1.5408234e-12 </wgt>
<wgt id='1634'> +1.4562650e-12 </wgt>
<wgt id='1635'> +1.5127480e-12 </wgt>
<wgt id='1636'> +1.4441878e-12 </wgt>
<wgt id='1637'> +1.4938980e-12 </wgt>
<wgt id='1638'> +1.5310690e-12 </wgt>
<wgt id='1639'> +1.4761235e-12 </wgt>
<wgt id='1640'> +1.5537374e-12 </wgt>
<wgt id='1641'> +1.5011021e-12 </wgt>
<wgt id='1642'> +1.5319231e-12 </wgt>
<wgt id='1643'> +1.3648583e-12 </wgt>
<wgt id='1644'> +1.7004246e-12 </wgt>
<wgt id='1645'> +1.5100603e-12 </wgt>
<wgt id='1646'> +1.4941746e-12 </wgt>
<wgt id='1647'> +1.4871712e-12 </wgt>
<wgt id='1648'> +1.3865140e-12 </wgt>
<wgt id='1649'> +1.4126744e-12 </wgt>
<wgt id='1650'> +1.5015034e-12 </wgt>
<wgt id='1651'> +1.5604950e-12 </wgt>
<wgt id='1652'> +1.5241812e-12 </wgt>
<wgt id='1653'> +1.3886825e-12 </wgt>
<wgt id='1654'> +1.5486581e-12 </wgt>
<wgt id='1655'> +1.5320533e-12 </wgt>
<wgt id='1656'> +1.5426525e-12 </wgt>
<wgt id='1657'> +1.4984013e-12 </wgt>
<wgt id='1658'> +1.5814766e-12 </wgt>
<wgt id='1659'> +1.5355078e-12 </wgt>
<wgt id='1660'> +1.5048391e-12 </wgt>
<wgt id='1661'> +1.5624438e-12 </wgt>
<wgt id='1662'> +1.4658786e-12 </wgt>
<wgt id='1663'> +1.5175511e-12 </wgt>
<wgt id='1664'> +1.5332859e-12 </wgt>
<wgt id='1665'> +1.5525473e-12 </wgt>
<wgt id='1666'> +1.4636540e-12 </wgt>
<wgt id='1667'> +1.5201894e-12 </wgt>
<wgt id='1668'> +1.4581411e-12 </wgt>
<wgt id='1669'> +1.7424001e-12 </wgt>
<wgt id='1670'> +1.4513783e-12 </wgt>
<wgt id='1671'> +1.4975742e-12 </wgt>
<wgt id='1672'> +1.5806218e-12 </wgt>
<wgt id='1673'> +1.5114714e-12 </wgt>
<wgt id='1674'> +1.4651062e-12 </wgt>
<wgt id='1675'> +1.4698909e-12 </wgt>
<wgt id='1676'> +1.4973698e-12 </wgt>
<wgt id='1677'> +1.3382050e-12 </wgt>
<wgt id='1678'> +1.4978752e-12 </wgt>
<wgt id='1679'> +1.5069076e-12 </wgt>
<wgt id='1680'> +1.3522566e-12 </wgt>
<wgt id='1681'> +1.5229744e-12 </wgt>
<wgt id='1682'> +1.5111253e-12 </wgt>
<wgt id='1683'> +1.5289083e-12 </wgt>
<wgt id='1684'> +1.5687450e-12 </wgt>
<wgt id='1685'> +1.5383094e-12 </wgt>
<wgt id='1686'> +1.5139260e-12 </wgt>
<wgt id='1687'> +1.4327870e-12 </wgt>
<wgt id='1688'> +1.4429235e-12 </wgt>
<wgt id='1689'> +1.5148278e-12 </wgt>
<wgt id='1690'> +1.5021130e-12 </wgt>
<wgt id='1691'> +1.3840061e-12 </wgt>
<wgt id='1692'> +1.4843305e-12 </wgt>
<wgt id='1693'> +1.4446648e-12 </wgt>
<wgt id='1694'> +1.6776374e-12 </wgt>
<wgt id='1695'> +1.5076602e-12 </wgt>
<wgt id='1696'> +1.4458454e-12 </wgt>
<wgt id='1697'> +1.3919570e-12 </wgt>
<wgt id='1698'> +1.5246678e-12 </wgt>
<wgt id='1699'> +1.4470538e-12 </wgt>
<wgt id='1700'> +1.5000107e-12 </wgt>
<wgt id='1701'> +1.4589236e-12 </wgt>
<wgt id='1702'> +1.4246642e-12 </wgt>
<wgt id='1703'> +1.4274945e-12 </wgt>
<wgt id='1704'> +1.5133841e-12 </wgt>
<wgt id='1705'> +1.5531442e-12 </wgt>
<wgt id='1706'> +1.4695614e-12 </wgt>
<wgt id='1707'> +1.4961113e-12 </wgt>
<wgt id='1708'> +1.5580640e-12 </wgt>
<wgt id='1709'> +1.5269474e-12 </wgt>
<wgt id='1710'> +1.4993775e-12 </wgt>
<wgt id='1711'> +1.4004646e-12 </wgt>
<wgt id='1712'> +1.5138627e-12 </wgt>
<wgt id='1713'> +1.2774377e-12 </wgt>
<wgt id='1714'> +1.2722426e-12 </wgt>
<wgt id='1715'> +1.1706411e-12 </wgt>
<wgt id='1716'> +1.2057174e-12 </wgt>
<wgt id='1717'> +1.2284747e-12 </wgt>
<wgt id='1718'> +1.2856339e-12 </wgt>
<wgt id='1719'> +1.3147956e-12 </wgt>
<wgt id='1720'> +1.2855027e-12 </wgt>
<wgt id='1721'> +1.2829285e-12 </wgt>
<wgt id='1722'> +1.2948252e-12 </wgt>
<wgt id='1723'> +1.2906372e-12 </wgt>
<wgt id='1724'> +1.7824221e-12 </wgt>
<wgt id='1725'> +1.2601451e-12 </wgt>
<wgt id='1726'> +1.1254880e-12 </wgt>
<wgt id='1727'> +1.3106635e-12 </wgt>
<wgt id='1728'> +1.2995324e-12 </wgt>
<wgt id='1729'> +1.3044470e-12 </wgt>
<wgt id='1730'> +1.2876679e-12 </wgt>
<wgt id='1731'> +1.2875384e-12 </wgt>
<wgt id='1732'> +1.2712636e-12 </wgt>
<wgt id='1733'> +1.2170485e-12 </wgt>
<wgt id='1734'> +1.2410313e-12 </wgt>
<wgt id='1735'> +1.3946377e-12 </wgt>
<wgt id='1736'> +1.3094116e-12 </wgt>
<wgt id='1737'> +1.2412613e-12 </wgt>
<wgt id='1738'> +1.2561964e-12 </wgt>
<wgt id='1739'> +1.2739795e-12 </wgt>
<wgt id='1740'> +1.2370587e-12 </wgt>
<wgt id='1741'> +1.2978411e-12 </wgt>
<wgt id='1742'> +1.1800316e-12 </wgt>
<wgt id='1743'> +1.2255329e-12 </wgt>
<wgt id='1744'> +1.1328317e-12 </wgt>
<wgt id='1745'> +1.5292860e-12 </wgt>
<wgt id='1746'> +1.1325119e-12 </wgt>
<wgt id='1747'> +1.2970550e-12 </wgt>
<wgt id='1748'> +1.2168866e-12 </wgt>
<wgt id='1749'> +1.2423469e-12 </wgt>
<wgt id='1750'> +1.2688289e-12 </wgt>
<wgt id='1751'> +1.5008956e-12 </wgt>
<wgt id='1752'> +1.2547864e-12 </wgt>
<wgt id='1753'> +1.2543468e-12 </wgt>
<wgt id='1754'> +1.2603816e-12 </wgt>
<wgt id='1755'> +1.2558589e-12 </wgt>
<wgt id='1756'> +1.3264298e-12 </wgt>
<wgt id='1757'> +1.3074980e-12 </wgt>
<wgt id='1758'> +1.2235298e-12 </wgt>
<wgt id='1759'> +1.2539669e-12 </wgt>
<wgt id='1760'> +1.2917072e-12 </wgt>
<wgt id='1761'> +1.2468262e-12 </wgt>
<wgt id='1762'> +1.1651617e-12 </wgt>
<wgt id='1763'> +1.2115050e-12 </wgt>
<wgt id='1764'> +1.2635065e-12 </wgt>
<wgt id='1765'> +1.2394380e-12 </wgt>
<wgt id='1766'> +1.3562356e-12 </wgt>
<wgt id='1767'> +1.2826292e-12 </wgt>
<wgt id='1768'> +1.2622358e-12 </wgt>
<wgt id='1769'> +1.2774975e-12 </wgt>
<wgt id='1770'> +1.1619551e-12 </wgt>
<wgt id='1771'> +1.2740513e-12 </wgt>
<wgt id='1772'> +1.1566994e-12 </wgt>
<wgt id='1773'> +1.2698238e-12 </wgt>
<wgt id='1774'> +1.2157813e-12 </wgt>
<wgt id='1775'> +1.2539431e-12 </wgt>
<wgt id='1776'> +1.2802722e-12 </wgt>
<wgt id='1777'> +1.3118825e-12 </wgt>
<wgt id='1778'> +1.2540113e-12 </wgt>
<wgt id='1779'> +1.2242074e-12 </wgt>
<wgt id='1780'> +1.4890888e-12 </wgt>
<wgt id='1781'> +1.1879506e-12 </wgt>
<wgt id='1782'> +1.2788187e-12 </wgt>
<wgt id='1783'> +1.2801373e-12 </wgt>
<wgt id='1784'> +1.3107877e-12 </wgt>
<wgt id='1785'> +1.4921696e-12 </wgt>
<wgt id='1786'> +1.4059695e-12 </wgt>
<wgt id='1787'> +1.2962602e-12 </wgt>
<wgt id='1788'> +1.2499043e-12 </wgt>
<wgt id='1789'> +1.6941782e-12 </wgt>
<wgt id='1790'> +1.4055368e-12 </wgt>
<wgt id='1791'> +1.3108510e-12 </wgt>
<wgt id='1792'> +1.3336124e-12 </wgt>
<wgt id='1793'> +1.2503808e-12 </wgt>
<wgt id='1794'> +1.2909216e-12 </wgt>
<wgt id='1795'> +1.1717812e-12 </wgt>
<wgt id='1796'> +1.3237218e-12 </wgt>
<wgt id='1797'> +1.2382024e-12 </wgt>
<wgt id='1798'> +1.2470779e-12 </wgt>
<wgt id='1799'> +1.2899922e-12 </wgt>
<wgt id='1800'> +1.2781199e-12 </wgt>
<wgt id='1801'> +1.2404645e-12 </wgt>
<wgt id='1802'> +1.3897598e-12 </wgt>
<wgt id='1803'> +1.2051165e-12 </wgt>
<wgt id='1804'> +1.2497707e-12 </wgt>
<wgt id='1805'> +1.2842019e-12 </wgt>
<wgt id='1806'> +1.2595482e-12 </wgt>
<wgt id='1807'> +1.2897727e-12 </wgt>
<wgt id='1808'> +1.1906799e-12 </wgt>
<wgt id='1809'> +1.3004107e-12 </wgt>
<wgt id='1810'> +1.1618882e-12 </wgt>
<wgt id='1811'> +1.1294546e-12 </wgt>
<wgt id='1812'> +1.1811687e-12 </wgt>
<wgt id='1813'> +1.0902140e-12 </wgt>
<wgt id='1814'> +1.1663519e-12 </wgt>
<wgt id='1815'> +1.3230136e-12 </wgt>
<wgt id='1816'> +1.2774377e-12 </wgt>
<wgt id='1817'> +1.2722426e-12 </wgt>
<wgt id='1818'> +1.1706411e-12 </wgt>
<wgt id='1819'> +1.2057174e-12 </wgt>
<wgt id='1820'> +1.2284747e-12 </wgt>
<wgt id='1821'> +1.2856339e-12 </wgt>
<wgt id='1822'> +1.3147956e-12 </wgt>
<wgt id='1823'> +1.2855027e-12 </wgt>
<wgt id='1824'> +1.2829285e-12 </wgt>
<wgt id='1825'> +1.2948252e-12 </wgt>
<wgt id='1826'> +1.2906372e-12 </wgt>
<wgt id='1827'> +1.7824221e-12 </wgt>
<wgt id='1828'> +1.2601451e-12 </wgt>
<wgt id='1829'> +1.1254880e-12 </wgt>
<wgt id='1830'> +1.3106635e-12 </wgt>
<wgt id='1831'> +1.2995324e-12 </wgt>
<wgt id='1832'> +1.3044470e-12 </wgt>
<wgt id='1833'> +1.2876679e-12 </wgt>
<wgt id='1834'> +1.2875384e-12 </wgt>
<wgt id='1835'> +1.2712636e-12 </wgt>
<wgt id='1836'> +1.2170485e-12 </wgt>
<wgt id='1837'> +1.2410313e-12 </wgt>
<wgt id='1838'> +1.3946377e-12 </wgt>
<wgt id='1839'> +1.3094116e-12 </wgt>
<wgt id='1840'> +1.2412613e-12 </wgt>
<wgt id='1841'> +1.2561964e-12 </wgt>
<wgt id='1842'> +1.2739795e-12 </wgt>
<wgt id='1843'> +1.2370587e-12 </wgt>
<wgt id='1844'> +1.2978411e-12 </wgt>
<wgt id='1845'> +1.1800316e-12 </wgt>
<wgt id='1846'> +1.2255329e-12 </wgt>
<wgt id='1847'> +1.1328317e-12 </wgt>
<wgt id='1848'> +1.5292860e-12 </wgt>
<wgt id='1849'> +1.1325119e-12 </wgt>
<wgt id='1850'> +1.2970550e-12 </wgt>
<wgt id='1851'> +1.2168866e-12 </wgt>
<wgt id='1852'> +1.2423469e-12 </wgt>
<wgt id='1853'> +1.2688289e-12 </wgt>
<wgt id='1854'> +1.5008956e-12 </wgt>
<wgt id='1855'> +1.2547864e-12 </wgt>
<wgt id='1856'> +1.2543468e-12 </wgt>
<wgt id='1857'> +1.2603816e-12 </wgt>
<wgt id='1858'> +1.2558589e-12 </wgt>
<wgt id='1859'> +1.3264298e-12 </wgt>
<wgt id='1860'> +1.3074980e-12 </wgt>
<wgt id='1861'> +1.2235298e-12 </wgt>
<wgt id='1862'> +1.2539669e-12 </wgt>
<wgt id='1863'> +1.2917072e-12 </wgt>
<wgt id='1864'> +1.2468262e-12 </wgt>
<wgt id='1865'> +1.1651617e-12 </wgt>
<wgt id='1866'> +1.2115050e-12 </wgt>
<wgt id='1867'> +1.2635065e-12 </wgt>
<wgt id='1868'> +1.2394380e-12 </wgt>
<wgt id='1869'> +1.3562356e-12 </wgt>
<wgt id='1870'> +1.2826292e-12 </wgt>
<wgt id='1871'> +1.2622358e-12 </wgt>
<wgt id='1872'> +1.2774975e-12 </wgt>
<wgt id='1873'> +1.1619551e-12 </wgt>
<wgt id='1874'> +1.2740513e-12 </wgt>
<wgt id='1875'> +1.1566994e-12 </wgt>
<wgt id='1876'> +1.2698238e-12 </wgt>
<wgt id='1877'> +1.2157813e-12 </wgt>
<wgt id='1878'> +1.2539431e-12 </wgt>
<wgt id='1879'> +1.2802722e-12 </wgt>
<wgt id='1880'> +1.3118825e-12 </wgt>
<wgt id='1881'> +1.2540113e-12 </wgt>
<wgt id='1882'> +1.2242074e-12 </wgt>
<wgt id='1883'> +1.4890888e-12 </wgt>
<wgt id='1884'> +1.1879506e-12 </wgt>
<wgt id='1885'> +1.2788187e-12 </wgt>
<wgt id='1886'> +1.2801373e-12 </wgt>
<wgt id='1887'> +1.3107877e-12 </wgt>
<wgt id='1888'> +1.4921696e-12 </wgt>
<wgt id='1889'> +1.4059695e-12 </wgt>
<wgt id='1890'> +1.2962602e-12 </wgt>
<wgt id='1891'> +1.2499043e-12 </wgt>
<wgt id='1892'> +1.6941782e-12 </wgt>
<wgt id='1893'> +1.4055368e-12 </wgt>
<wgt id='1894'> +1.3108510e-12 </wgt>
<wgt id='1895'> +1.3336124e-12 </wgt>
<wgt id='1896'> +1.2503808e-12 </wgt>
<wgt id='1897'> +1.2909216e-12 </wgt>
<wgt id='1898'> +1.1717812e-12 </wgt>
<wgt id='1899'> +1.3237218e-12 </wgt>
<wgt id='1900'> +1.2382024e-12 </wgt>
<wgt id='1901'> +1.2470779e-12 </wgt>
<wgt id='1902'> +1.2899922e-12 </wgt>
<wgt id='1903'> +1.2781199e-12 </wgt>
<wgt id='1904'> +1.2404645e-12 </wgt>
<wgt id='1905'> +1.3897598e-12 </wgt>
<wgt id='1906'> +1.2051165e-12 </wgt>
<wgt id='1907'> +1.2497707e-12 </wgt>
<wgt id='1908'> +1.2842019e-12 </wgt>
<wgt id='1909'> +1.2595482e-12 </wgt>
<wgt id='1910'> +1.2897727e-12 </wgt>
<wgt id='1911'> +1.1906799e-12 </wgt>
<wgt id='1912'> +1.3004107e-12 </wgt>
<wgt id='1913'> +1.1618882e-12 </wgt>
<wgt id='1914'> +1.1294546e-12 </wgt>
<wgt id='1915'> +1.1811687e-12 </wgt>
<wgt id='1916'> +1.0902140e-12 </wgt>
<wgt id='1917'> +1.2463023e-12 </wgt>
<wgt id='1918'> +1.2857003e-12 </wgt>
<wgt id='1919'> +1.2881322e-12 </wgt>
</rwgt>
</event>
<event>
 9      1 +1.5607000e-12 3.73349800e+01 7.81860800e-03 1.38695300e-01
       21 -1    0    0  501  502 +0.0000000000e+00 +0.0000000000e+00 +1.3641794427e+01 1.3641794427e+01 0.0000000000e+00 0.0000e+00 -1.0000e+00
        1 -1    0    0  502    0 -0.0000000000e+00 -0.0000000000e+00 -1.0332051688e+02 1.0332051688e+02 0.0000000000e+00 0.0000e+00 -1.0000e+00
     1023  2    1    2    0    0 -4.8217137240e+00 +3.3848028474e+01 -2.8847273165e+01 4.7181202278e+01 1.4998757433e+01 0.0000e+00 0.0000e+00
  1000023  2    3    3    0    0 +3.6893661812e-01 +1.5067434314e+01 -1.8736422415e+01 2.4667142874e+01 5.5000656001e+00 0.0000e+00 0.0000e+00
        1  1    1    2  501    0 +4.8217137240e+00 -3.3848028474e+01 -6.0831449286e+01 6.9781109027e+01 0.0000000000e+00 0.0000e+00 -1.0000e+00
  1000022  1    4    4    0    0 +3.2990698310e-01 +1.4370440056e+01 -1.7401408536e+01 2.3117685980e+01 5.0000000000e+00 0.0000e+00 1.0000e+00
      -11  1    4    4    0    0 +8.5148018109e-02 +6.8707724088e-01 -1.0315303518e+00 1.2423286392e+00 5.1100000000e-04 0.0000e+00 -1.0000e+00
       11  1    4    4    0    0 -4.6118383085e-02 +9.9170171580e-03 -3.0348352742e-01 3.0712825501e-01 5.1100000000e-04 0.0000e+00 1.0000e+00
  1000022  1    3    3    0    0 -5.1906503422e+00 +1.8780594160e+01 -1.0110850750e+01 2.2514059404e+01 5.0000000000e+00 0.0000e+00 -1.0000e+00
<mgrwt>
<rscale>  1 0.37334979E+02</rscale>
<asrwt>0</asrwt>
<pdfrwt beam="1">  1       21 0.20987376E-02 0.37334979E+02</pdfrwt>
<pdfrwt beam="2">  1        1 0.15895464E-01 0.37334979E+02</pdfrwt>
<totfact> 0.35477771E+06</totfact>
</mgrwt>
<rwgt>
<wgt id='1001'> +1.5607000e-12 </wgt>
<wgt id='1002'> +1.5880835e-12 </wgt>
<wgt id='1003'> +1.5882658e-12 </wgt>
<wgt id='1004'> +1.5562384e-12 </wgt>
<wgt id='1005'> +1.5894563e-12 </wgt>
<wgt id='1006'> +1.3735226e-12 </wgt>
<wgt id='1007'> +1.4172319e-12 </wgt>
<wgt id='1008'> +1.4176475e-12 </wgt>
<wgt id='1009'> +1.3674867e-12 </wgt>
<wgt id='1010'> +1.4205527e-12 </wgt>
<wgt id='1011'> +1.8097067e-12 </wgt>
<wgt id='1012'> +1.8077011e-12 </wgt>
<wgt id='1013'> +1.8074913e-12 </wgt>
<wgt id='1014'> +1.8083411e-12 </wgt>
<wgt id='1015'> +1.8058077e-12 </wgt>
<wgt id='1016'> +1.8059582e-12 </wgt>
<wgt id='1017'> +1.7808009e-12 </wgt>
<wgt id='1018'> +1.7803352e-12 </wgt>
<wgt id='1019'> +1.8074913e-12 </wgt>
<wgt id='1020'> +1.7767951e-12 </wgt>
<wgt id='1021'> +1.5893666e-12 </wgt>
<wgt id='1022'> +1.5892161e-12 </wgt>
<wgt id='1023'> +1.5890840e-12 </wgt>
<wgt id='1024'> +1.5882658e-12 </wgt>
<wgt id='1025'> +1.5879839e-12 </wgt>
<wgt id='1026'> +2.0940954e-12 </wgt>
<wgt id='1027'> +2.0270696e-12 </wgt>
<wgt id='1028'> +2.0260717e-12 </wgt>
<wgt id='1029'> +2.1002956e-12 </wgt>
<wgt id='1030'> +2.0186464e-12 </wgt>
<wgt id='1031'> +1.2798830e-12 </wgt>
<wgt id='1032'> +1.3665631e-12 </wgt>
<wgt id='1033'> +1.3674867e-12 </wgt>
<wgt id='1034'> +1.2687320e-12 </wgt>
<wgt id='1035'> +1.3740571e-12 </wgt>
<wgt id='1036'> +1.1263845e-12 </wgt>
<wgt id='1037'> +1.2195435e-12 </wgt>
<wgt id='1038'> +1.2205854e-12 </wgt>
<wgt id='1039'> +1.1148511e-12 </wgt>
<wgt id='1040'> +1.2280428e-12 </wgt>
<wgt id='1041'> +1.4840859e-12 </wgt>
<wgt id='1042'> +1.5555465e-12 </wgt>
<wgt id='1043'> +1.5562384e-12 </wgt>
<wgt id='1044'> +1.4742601e-12 </wgt>
<wgt id='1045'> +1.5610890e-12 </wgt>
<wgt id='1046'> +1.5607000e-12 </wgt>
<wgt id='1047'> +1.6369598e-12 </wgt>
<wgt id='1048'> +1.5780792e-12 </wgt>
<wgt id='1049'> +1.4861088e-12 </wgt>
<wgt id='1050'> +1.5108902e-12 </wgt>
<wgt id='1051'> +1.5623408e-12 </wgt>
<wgt id='1052'> +1.5868092e-12 </wgt>
<wgt id='1053'> +1.5828104e-12 </wgt>
<wgt id='1054'> +1.5418762e-12 </wgt>
<wgt id='1055'> +1.5389736e-12 </wgt>
<wgt id='1056'> +1.5445055e-12 </wgt>
<wgt id='1057'> +1.5558463e-12 </wgt>
<wgt id='1058'> +1.5270011e-12 </wgt>
<wgt id='1059'> +1.5663234e-12 </wgt>
<wgt id='1060'> +1.5175555e-12 </wgt>
<wgt id='1061'> +1.5840979e-12 </wgt>
<wgt id='1062'> +1.5849699e-12 </wgt>
<wgt id='1063'> +1.5974904e-12 </wgt>
<wgt id='1064'> +1.5544939e-12 </wgt>
<wgt id='1065'> +1.5558349e-12 </wgt>
<wgt id='1066'> +1.5247755e-12 </wgt>
<wgt id='1067'> +1.5157114e-12 </wgt>
<wgt id='1068'> +1.5798149e-12 </wgt>
<wgt id='1069'> +1.6240940e-12 </wgt>
<wgt id='1070'> +1.5759660e-12 </wgt>
<wgt id='1071'> +1.5280335e-12 </wgt>
<wgt id='1072'> +1.5792431e-12 </wgt>
<wgt id='1073'> +1.5994876e-12 </wgt>
<wgt id='1074'> +1.5479432e-12 </wgt>
<wgt id='1075'> +1.5745137e-12 </wgt>
<wgt id='1076'> +1.5734970e-12 </wgt>
<wgt id='1077'> +1.5510291e-12 </wgt>
<wgt id='1078'> +1.5424045e-12 </wgt>
<wgt id='1079'> +1.5551278e-12 </wgt>
<wgt id='1080'> +1.5241583e-12 </wgt>
<wgt id='1081'> +1.5803423e-12 </wgt>
<wgt id='1082'> +1.5464761e-12 </wgt>
<wgt id='1083'> +1.6025267e-12 </wgt>
<wgt id='1084'> +1.5288329e-12 </wgt>
<wgt id='1085'> +1.5227612e-12 </wgt>
<wgt id='1086'> +1.5152646e-12 </wgt>
<wgt id='1087'> +1.5174023e-12 </wgt>
<wgt id='1088'> +1.5616137e-12 </wgt>
<wgt id='1089'> +1.5813159e-12 </wgt>
<wgt id='1090'> +1.5491215e-12 </wgt>
<wgt id='1091'> +1.5859403e-12 </wgt>
<wgt id='1092'> +1.5789944e-12 </wgt>
<wgt id='1093'> +1.5229831e-12 </wgt>
<wgt id='1094'> +1.5518127e-12 </wgt>
<wgt id='1095'> +1.5909156e-12 </wgt>
<wgt id='1096'> +1.5981478e-12 </wgt>
<wgt id='1097'> +1.5651105e-12 </wgt>
<wgt id='1098'> +1.5676605e-12 </wgt>
<wgt id='1099'> +1.5350122e-12 </wgt>
<wgt id='1100'> +1.6160262e-12 </wgt>
<wgt id='1101'> +1.5404730e-12 </wgt>
<wgt id='1102'> +1.5940415e-12 </wgt>
<wgt id='1103'> +1.6491846e-12 </wgt>
<wgt id='1104'> +1.5586118e-12 </wgt>
<wgt id='1105'> +1.5492096e-12 </wgt>
<wgt id='1106'> +1.5812202e-12 </wgt>
<wgt id='1107'> +1.5637874e-12 </wgt>
<wgt id='1108'> +1.6036118e-12 </wgt>
<wgt id='1109'> +1.5534026e-12 </wgt>
<wgt id='1110'> +1.5123020e-12 </wgt>
<wgt id='1111'> +1.5703770e-12 </wgt>
<wgt id='1112'> +1.5440125e-12 </wgt>
<wgt id='1113'> +1.5701892e-12 </wgt>
<wgt id='1114'> +1.5912392e-12 </wgt>
<wgt id='1115'> +1.5577829e-12 </wgt>
<wgt id='1116'> +1.5685893e-12 </wgt>
<wgt id='1117'> +1.5548171e-12 </wgt>
<wgt id='1118'> +1.6523324e-12 </wgt>
<wgt id='1119'> +1.5187073e-12 </wgt>
<wgt id='1120'> +1.5119252e-12 </wgt>
<wgt id='1121'> +1.5318558e-12 </wgt>
<wgt id='1122'> +1.5445426e-12 </wgt>
<wgt id='1123'> +1.5297757e-12 </wgt>
<wgt id='1124'> +1.5384779e-12 </wgt>
<wgt id='1125'> +1.5393373e-12 </wgt>
<wgt id='1126'> +1.5374255e-12 </wgt>
<wgt id='1127'> +1.5558758e-12 </wgt>
<wgt id='1128'> +1.5849699e-12 </wgt>
<wgt id='1129'> +1.5308630e-12 </wgt>
<wgt id='1130'> +1.5595403e-12 </wgt>
<wgt id='1131'> +1.5561212e-12 </wgt>
<wgt id='1132'> +1.6135608e-12 </wgt>
<wgt id='1133'> +1.5904978e-12 </wgt>
<wgt id='1134'> +1.5733261e-12 </wgt>
<wgt id='1135'> +1.4920975e-12 </wgt>
<wgt id='1136'> +1.5475128e-12 </wgt>
<wgt id='1137'> +1.5688489e-12 </wgt>
<wgt id='1138'> +1.5390176e-12 </wgt>
<wgt id='1139'> +1.5575203e-12 </wgt>
<wgt id='1140'> +1.6241599e-12 </wgt>
<wgt id='1141'> +1.5887315e-12 </wgt>
<wgt id='1142'> +1.5352650e-12 </wgt>
<wgt id='1143'> +1.5613886e-12 </wgt>
<wgt id='1144'> +1.5601615e-12 </wgt>
<wgt id='1145'> +1.5339007e-12 </wgt>
<wgt id='1146'> +1.6004758e-12 </wgt>
<wgt id='1147'> +1.2912806e-12 </wgt>
<wgt id='1148'> +1.3170188e-12 </wgt>
<wgt id='1149'> +1.3046166e-12 </wgt>
<wgt id='1150'> +1.3249911e-12 </wgt>
<wgt id='1151'> +1.4225545e-12 </wgt>
<wgt id='1152'> +1.7725341e-12 </wgt>
<wgt id='1153'> +1.7646749e-12 </wgt>
<wgt id='1154'> +1.7771467e-12 </wgt>
<wgt id='1155'> +1.7733965e-12 </wgt>
<wgt id='1156'> +1.7720731e-12 </wgt>
<wgt id='1157'> +1.7770516e-12 </wgt>
<wgt id='1158'> +1.7663798e-12 </wgt>
<wgt id='1159'> +1.7760733e-12 </wgt>
<wgt id='1160'> +1.7703076e-12 </wgt>
<wgt id='1161'> +1.7673036e-12 </wgt>
<wgt id='1162'> +1.7760143e-12 </wgt>
<wgt id='1163'> +1.7760314e-12 </wgt>
<wgt id='1164'> +1.7690169e-12 </wgt>
<wgt id='1165'> +1.7666266e-12 </wgt>
<wgt id='1166'> +1.7782128e-12 </wgt>
<wgt id='1167'> +1.7787570e-12 </wgt>
<wgt id='1168'> +1.7631438e-12 </wgt>
<wgt id='1169'> +1.7730488e-12 </wgt>
<wgt id='1170'> +1.7722386e-12 </wgt>
<wgt id='1171'> +1.7699576e-12 </wgt>
<wgt id='1172'> +1.7758202e-12 </wgt>
<wgt id='1173'> +1.7552485e-12 </wgt>
<wgt id='1174'> +1.7896455e-12 </wgt>
<wgt id='1175'> +1.7737320e-12 </wgt>
<wgt id='1176'> +1.7704116e-12 </wgt>
<wgt id='1177'> +1.7777193e-12 </wgt>
<wgt id='1178'> +1.7557685e-12 </wgt>
<wgt id='1179'> +1.7812379e-12 </wgt>
<wgt id='1180'> +1.7576736e-12 </wgt>
<wgt id='1181'> +1.7787999e-12 </wgt>
<wgt id='1182'> +1.7667895e-12 </wgt>
<wgt id='1183'> +1.7691884e-12 </wgt>
<wgt id='1184'> +1.7730334e-12 </wgt>
<wgt id='1185'> +1.7689685e-12 </wgt>
<wgt id='1186'> +1.7751841e-12 </wgt>
<wgt id='1187'> +1.7723273e-12 </wgt>
<wgt id='1188'> +1.7726243e-12 </wgt>
<wgt id='1189'> +1.7694019e-12 </wgt>
<wgt id='1190'> +1.7605652e-12 </wgt>
<wgt id='1191'> +1.7657631e-12 </wgt>
<wgt id='1192'> +1.7750388e-12 </wgt>
<wgt id='1193'> +1.3670495e-12 </wgt>
<wgt id='1194'> +1.3652373e-12 </wgt>
<wgt id='1195'> +1.3685789e-12 </wgt>
<wgt id='1196'> +1.3734018e-12 </wgt>
<wgt id='1197'> +1.3600060e-12 </wgt>
<wgt id='1198'> +1.3668370e-12 </wgt>
<wgt id='1199'> +1.3674009e-12 </wgt>
<wgt id='1200'> +1.3703615e-12 </wgt>
<wgt id='1201'> +1.3648781e-12 </wgt>
<wgt id='1202'> +1.3660064e-12 </wgt>
<wgt id='1203'> +1.3685251e-12 </wgt>
<wgt id='1204'> +1.3601183e-12 </wgt>
<wgt id='1205'> +1.3713289e-12 </wgt>
<wgt id='1206'> +1.3730558e-12 </wgt>
<wgt id='1207'> +1.3588765e-12 </wgt>
<wgt id='1208'> +1.3614350e-12 </wgt>
<wgt id='1209'> +1.3691372e-12 </wgt>
<wgt id='1210'> +1.3683441e-12 </wgt>
<wgt id='1211'> +1.3580896e-12 </wgt>
<wgt id='1212'> +1.3706798e-12 </wgt>
<wgt id='1213'> +1.3639815e-12 </wgt>
<wgt id='1214'> +1.3559839e-12 </wgt>
<wgt id='1215'> +1.3843967e-12 </wgt>
<wgt id='1216'> +1.3771384e-12 </wgt>
<wgt id='1217'> +1.3607938e-12 </wgt>
<wgt id='1218'> +1.3747667e-12 </wgt>
<wgt id='1219'> +1.3632713e-12 </wgt>
<wgt id='1220'> +1.3833657e-12 </wgt>
<wgt id='1221'> +1.3572923e-12 </wgt>
<wgt id='1222'> +1.3696499e-12 </wgt>
<wgt id='1223'> +1.3619972e-12 </wgt>
<wgt id='1224'> +1.3707733e-12 </wgt>
<wgt id='1225'> +1.3656668e-12 </wgt>
<wgt id='1226'> +1.3655175e-12 </wgt>
<wgt id='1227'> +1.3683703e-12 </wgt>
<wgt id='1228'> +1.3634059e-12 </wgt>
<wgt id='1229'> +1.3690629e-12 </wgt>
<wgt id='1230'> +1.3629974e-12 </wgt>
<wgt id='1231'> +1.3625812e-12 </wgt>
<wgt id='1232'> +1.3638294e-12 </wgt>
<wgt id='1233'> +1.3681277e-12 </wgt>
<wgt id='1234'> +1.3670495e-12 </wgt>
<wgt id='1235'> +1.3586415e-12 </wgt>
<wgt id='1236'> +1.3618225e-12 </wgt>
<wgt id='1237'> +1.3646825e-12 </wgt>
<wgt id='1238'> +1.3694506e-12 </wgt>
<wgt id='1239'> +1.3714552e-12 </wgt>
<wgt id='1240'> +1.3733001e-12 </wgt>
<wgt id='1241'> +1.3374767e-12 </wgt>
<wgt id='1242'> +1.3319030e-12 </wgt>
<wgt id='1243'> +1.3430313e-12 </wgt>
<wgt id='1244'> +1.3311827e-12 </wgt>
<wgt id='1245'> +1.3421564e-12 </wgt>
<wgt id='1246'> +1.3389802e-12 </wgt>
<wgt id='1247'> +1.3362676e-12 </wgt>
<wgt id='1248'> +1.3375061e-12 </wgt>
<wgt id='1249'> +1.3374629e-12 </wgt>
<wgt id='1250'> +1.3403294e-12 </wgt>
<wgt id='1251'> +1.3354795e-12 </wgt>
<wgt id='1252'> +1.3312876e-12 </wgt>
<wgt id='1253'> +1.3422572e-12 </wgt>
<wgt id='1254'> +1.3286119e-12 </wgt>
<wgt id='1255'> +1.3427753e-12 </wgt>
<wgt id='1256'> +1.3408028e-12 </wgt>
<wgt id='1257'> +1.3291414e-12 </wgt>
<wgt id='1258'> +1.3544593e-12 </wgt>
<wgt id='1259'> +1.3214447e-12 </wgt>
<wgt id='1260'> +1.3379373e-12 </wgt>
<wgt id='1261'> +1.3379414e-12 </wgt>
<wgt id='1262'> +1.3433276e-12 </wgt>
<wgt id='1263'> +1.3351583e-12 </wgt>
<wgt id='1264'> +1.3473069e-12 </wgt>
<wgt id='1265'> +1.3328726e-12 </wgt>
<wgt id='1266'> +1.3271391e-12 </wgt>
<wgt id='1267'> +1.3464159e-12 </wgt>
<wgt id='1268'> +1.3364949e-12 </wgt>
<wgt id='1269'> +1.3455997e-12 </wgt>
<wgt id='1270'> +1.3295415e-12 </wgt>
<wgt id='1271'> +1.3332598e-12 </wgt>
<wgt id='1272'> +1.3402572e-12 </wgt>
<wgt id='1273'> +1.3363659e-12 </wgt>
<wgt id='1274'> +1.3393596e-12 </wgt>
<wgt id='1275'> +1.3337657e-12 </wgt>
<wgt id='1276'> +1.3392567e-12 </wgt>
<wgt id='1277'> +1.3356170e-12 </wgt>
<wgt id='1278'> +1.3374151e-12 </wgt>
<wgt id='1279'> +1.3354026e-12 </wgt>
<wgt id='1280'> +1.3384001e-12 </wgt>
<wgt id='1281'> +1.3348370e-12 </wgt>
<wgt id='1282'> +1.3374767e-12 </wgt>
<wgt id='1283'> +1.3291800e-12 </wgt>
<wgt id='1284'> +1.3323724e-12 </wgt>
<wgt id='1285'> +1.3351618e-12 </wgt>
<wgt id='1286'> +1.3397965e-12 </wgt>
<wgt id='1287'> +1.3417490e-12 </wgt>
<wgt id='1288'> +1.3433061e-12 </wgt>
<wgt id='1289'> +1.3691823e-12 </wgt>
<wgt id='1290'> +1.3669529e-12 </wgt>
<wgt id='1291'> +1.3715480e-12 </wgt>
<wgt id='1292'> +1.3648309e-12 </wgt>
<wgt id='1293'> +1.3723041e-12 </wgt>
<wgt id='1294'> +1.3631306e-12 </wgt>
<wgt id='1295'> +1.3750769e-12 </wgt>
<wgt id='1296'> +1.3675265e-12 </wgt>
<wgt id='1297'> +1.3711313e-12 </wgt>
<wgt id='1298'> +1.3720023e-12 </wgt>
<wgt id='1299'> +1.3655960e-12 </wgt>
<wgt id='1300'> +1.3713442e-12 </wgt>
<wgt id='1301'> +1.3648686e-12 </wgt>
<wgt id='1302'> +1.3682234e-12 </wgt>
<wgt id='1303'> +1.3704889e-12 </wgt>
<wgt id='1304'> +1.3625890e-12 </wgt>
<wgt id='1305'> +1.3736664e-12 </wgt>
<wgt id='1306'> +1.3665561e-12 </wgt>
<wgt id='1307'> +1.3722414e-12 </wgt>
<wgt id='1308'> +1.3657668e-12 </wgt>
<wgt id='1309'> +1.3717673e-12 </wgt>
<wgt id='1310'> +1.3698080e-12 </wgt>
<wgt id='1311'> +1.3685766e-12 </wgt>
<wgt id='1312'> +1.3666052e-12 </wgt>
<wgt id='1313'> +1.3718654e-12 </wgt>
<wgt id='1314'> +1.3661355e-12 </wgt>
<wgt id='1315'> +1.3681954e-12 </wgt>
<wgt id='1316'> +1.3672591e-12 </wgt>
<wgt id='1317'> +1.3776933e-12 </wgt>
<wgt id='1318'> +1.3771861e-12 </wgt>
<wgt id='1319'> +1.3594987e-12 </wgt>
<wgt id='1320'> +1.3871028e-12 </wgt>
<wgt id='1321'> +1.3555013e-12 </wgt>
<wgt id='1322'> +1.3712732e-12 </wgt>
<wgt id='1323'> +1.3665657e-12 </wgt>
<wgt id='1324'> +1.3669300e-12 </wgt>
<wgt id='1325'> +1.3779748e-12 </wgt>
<wgt id='1326'> +1.3772611e-12 </wgt>
<wgt id='1327'> +1.3648147e-12 </wgt>
<wgt id='1328'> +1.3690077e-12 </wgt>
<wgt id='1329'> +1.3692067e-12 </wgt>
<wgt id='1330'> +1.3533778e-12 </wgt>
<wgt id='1331'> +1.3873338e-12 </wgt>
<wgt id='1332'> +1.3836590e-12 </wgt>
<wgt id='1333'> +1.3621915e-12 </wgt>
<wgt id='1334'> +1.3642382e-12 </wgt>
<wgt id='1335'> +1.3826876e-12 </wgt>
<wgt id='1336'> +1.3621423e-12 </wgt>
<wgt id='1337'> +1.3737299e-12 </wgt>
<wgt id='1338'> +1.3705410e-12 </wgt>
<wgt id='1339'> +1.3692266e-12 </wgt>
<wgt id='1340'> +1.3502078e-12 </wgt>
<wgt id='1341'> +1.3481079e-12 </wgt>
<wgt id='1342'> +1.3524603e-12 </wgt>
<wgt id='1343'> +1.3456907e-12 </wgt>
<wgt id='1344'> +1.3532155e-12 </wgt>
<wgt id='1345'> +1.3442052e-12 </wgt>
<wgt id='1346'> +1.3558548e-12 </wgt>
<wgt id='1347'> +1.3487858e-12 </wgt>
<wgt id='1348'> +1.3517150e-12 </wgt>
<wgt id='1349'> +1.3528302e-12 </wgt>
<wgt id='1350'> +1.3476063e-12 </wgt>
<wgt id='1351'> +1.3521906e-12 </wgt>
<wgt id='1352'> +1.3459201e-12 </wgt>
<wgt id='1353'> +1.3485405e-12 </wgt>
<wgt id='1354'> +1.3532105e-12 </wgt>
<wgt id='1355'> +1.3434822e-12 </wgt>
<wgt id='1356'> +1.3540070e-12 </wgt>
<wgt id='1357'> +1.3465830e-12 </wgt>
<wgt id='1358'> +1.3544989e-12 </wgt>
<wgt id='1359'> +1.3478799e-12 </wgt>
<wgt id='1360'> +1.3522132e-12 </wgt>
<wgt id='1361'> +1.3507354e-12 </wgt>
<wgt id='1362'> +1.3495476e-12 </wgt>
<wgt id='1363'> +1.3472788e-12 </wgt>
<wgt id='1364'> +1.3525411e-12 </wgt>
<wgt id='1365'> +1.3467055e-12 </wgt>
<wgt id='1366'> +1.3482582e-12 </wgt>
<wgt id='1367'> +1.3481382e-12 </wgt>
<wgt id='1368'> +1.3569591e-12 </wgt>
<wgt id='1369'> +1.3565688e-12 </wgt>
<wgt id='1370'> +1.3425924e-12 </wgt>
<wgt id='1371'> +1.3645617e-12 </wgt>
<wgt id='1372'> +1.3341704e-12 </wgt>
<wgt id='1373'> +1.3505748e-12 </wgt>
<wgt id='1374'> +1.3498412e-12 </wgt>
<wgt id='1375'> +1.3480742e-12 </wgt>
<wgt id='1376'> +1.3591135e-12 </wgt>
<wgt id='1377'> +1.3574254e-12 </wgt>
<wgt id='1378'> +1.3470390e-12 </wgt>
<wgt id='1379'> +1.3496683e-12 </wgt>
<wgt id='1380'> +1.3506418e-12 </wgt>
<wgt id='1381'> +1.3348475e-12 </wgt>
<wgt id='1382'> +1.3662582e-12 </wgt>
<wgt id='1383'> +1.3664641e-12 </wgt>
<wgt id='1384'> +1.3421508e-12 </wgt>
<wgt id='1385'> +1.3451449e-12 </wgt>
<wgt id='1386'> +1.3632371e-12 </wgt>
<wgt id='1387'> +1.3410496e-12 </wgt>
<wgt id='1388'> +1.3565498e-12 </wgt>
<wgt id='1389'> +1.3503031e-12 </wgt>
<wgt id='1390'> +1.3507952e-12 </wgt>
<wgt id='1391'> +1.3193324e-12 </wgt>
<wgt id='1392'> +1.2928573e-12 </wgt>
<wgt id='1393'> +1.3021734e-12 </wgt>
<wgt id='1394'> +1.3118244e-12 </wgt>
<wgt id='1395'> +1.3301147e-12 </wgt>
<wgt id='1396'> +1.3210464e-12 </wgt>
<wgt id='1397'> +1.2853411e-12 </wgt>
<wgt id='1398'> +1.2928126e-12 </wgt>
<wgt id='1399'> +1.2993050e-12 </wgt>
<wgt id='1400'> +1.3061546e-12 </wgt>
<wgt id='1401'> +1.3136631e-12 </wgt>
<wgt id='1402'> +1.3284916e-12 </wgt>
<wgt id='1403'> +1.3357380e-12 </wgt>
<wgt id='1404'> +1.3427980e-12 </wgt>
<wgt id='1405'> +1.3210464e-12 </wgt>
<wgt id='1406'> +1.3168456e-12 </wgt>
<wgt id='1407'> +1.3192114e-12 </wgt>
<wgt id='1408'> +1.3227572e-12 </wgt>
<wgt id='1409'> +1.3250501e-12 </wgt>
<wgt id='1410'> +1.2974828e-12 </wgt>
<wgt id='1411'> +1.2956699e-12 </wgt>
<wgt id='1412'> +1.2997604e-12 </wgt>
<wgt id='1413'> +1.2979553e-12 </wgt>
<wgt id='1414'> +1.2969633e-12 </wgt>
<wgt id='1415'> +1.2911500e-12 </wgt>
<wgt id='1416'> +1.2999889e-12 </wgt>
<wgt id='1417'> +1.2911570e-12 </wgt>
<wgt id='1418'> +1.3037599e-12 </wgt>
<wgt id='1419'> +1.2980470e-12 </wgt>
<wgt id='1420'> +1.2969528e-12 </wgt>
<wgt id='1421'> +1.2871013e-12 </wgt>
<wgt id='1422'> +1.3019787e-12 </wgt>
<wgt id='1423'> +1.2988510e-12 </wgt>
<wgt id='1424'> +1.2958028e-12 </wgt>
<wgt id='1425'> +1.2908369e-12 </wgt>
<wgt id='1426'> +1.3046599e-12 </wgt>
<wgt id='1427'> +1.2870611e-12 </wgt>
<wgt id='1428'> +1.3031148e-12 </wgt>
<wgt id='1429'> +1.2987118e-12 </wgt>
<wgt id='1430'> +1.2959127e-12 </wgt>
<wgt id='1431'> +1.2989356e-12 </wgt>
<wgt id='1432'> +1.2963846e-12 </wgt>
<wgt id='1433'> +1.2959481e-12 </wgt>
<wgt id='1434'> +1.2978367e-12 </wgt>
<wgt id='1435'> +1.2987453e-12 </wgt>
<wgt id='1436'> +1.2945384e-12 </wgt>
<wgt id='1437'> +1.2991848e-12 </wgt>
<wgt id='1438'> +1.3023258e-12 </wgt>
<wgt id='1439'> +1.2920118e-12 </wgt>
<wgt id='1440'> +1.3100365e-12 </wgt>
<wgt id='1441'> +1.3026746e-12 </wgt>
<wgt id='1442'> +1.2879859e-12 </wgt>
<wgt id='1443'> +1.2929385e-12 </wgt>
<wgt id='1444'> +1.3080088e-12 </wgt>
<wgt id='1445'> +1.3062576e-12 </wgt>
<wgt id='1446'> +1.2950068e-12 </wgt>
<wgt id='1447'> +1.3031036e-12 </wgt>
<wgt id='1448'> +1.2927120e-12 </wgt>
<wgt id='1449'> +1.2979291e-12 </wgt>
<wgt id='1450'> +1.2968807e-12 </wgt>
<wgt id='1451'> +1.3053435e-12 </wgt>
<wgt id='1452'> +1.2813419e-12 </wgt>
<wgt id='1453'> +1.2982653e-12 </wgt>
<wgt id='1454'> +1.2959302e-12 </wgt>
<wgt id='1455'> +1.2912911e-12 </wgt>
<wgt id='1456'> +1.3006618e-12 </wgt>
<wgt id='1457'> +1.3017182e-12 </wgt>
<wgt id='1458'> +1.2954029e-12 </wgt>
<wgt id='1459'> +1.3021869e-12 </wgt>
<wgt id='1460'> +1.2922176e-12 </wgt>
<wgt id='1461'> +1.2974828e-12 </wgt>
<wgt id='1462'> +1.2912562e-12 </wgt>
<wgt id='1463'> +1.3064230e-12 </wgt>
<wgt id='1464'> +1.2988365e-12 </wgt>
<wgt id='1465'> +1.2681982e-12 </wgt>
<wgt id='1466'> +1.2746044e-12 </wgt>
<wgt id='1467'> +1.2813512e-12 </wgt>
<wgt id='1468'> +1.2866432e-12 </wgt>
<wgt id='1469'> +1.2928527e-12 </wgt>
<wgt id='1470'> +1.3050972e-12 </wgt>
<wgt id='1471'> +1.3095328e-12 </wgt>
<wgt id='1472'> +1.3155591e-12 </wgt>
<wgt id='1473'> +1.2988365e-12 </wgt>
<wgt id='1474'> +1.2943569e-12 </wgt>
<wgt id='1475'> +1.2960584e-12 </wgt>
<wgt id='1476'> +1.3007138e-12 </wgt>
<wgt id='1477'> +1.3024721e-12 </wgt>
<wgt id='1478'> +1.2923325e-12 </wgt>
<wgt id='1479'> +1.2910882e-12 </wgt>
<wgt id='1480'> +1.2898108e-12 </wgt>
<wgt id='1481'> +1.2917989e-12 </wgt>
<wgt id='1482'> +1.2898137e-12 </wgt>
<wgt id='1483'> +1.2746677e-12 </wgt>
<wgt id='1484'> +1.2941625e-12 </wgt>
<wgt id='1485'> +1.2864899e-12 </wgt>
<wgt id='1486'> +1.2922387e-12 </wgt>
<wgt id='1487'> +1.2925141e-12 </wgt>
<wgt id='1488'> +1.2899665e-12 </wgt>
<wgt id='1489'> +1.3043348e-12 </wgt>
<wgt id='1490'> +1.2866532e-12 </wgt>
<wgt id='1491'> +1.2949544e-12 </wgt>
<wgt id='1492'> +1.2969123e-12 </wgt>
<wgt id='1493'> +1.2713356e-12 </wgt>
<wgt id='1494'> +1.2973167e-12 </wgt>
<wgt id='1495'> +1.2801061e-12 </wgt>
<wgt id='1496'> +1.2931899e-12 </wgt>
<wgt id='1497'> +1.2914177e-12 </wgt>
<wgt id='1498'> +1.2943258e-12 </wgt>
<wgt id='1499'> +1.2938241e-12 </wgt>
<wgt id='1500'> +1.2916421e-12 </wgt>
<wgt id='1501'> +1.2932025e-12 </wgt>
<wgt id='1502'> +1.2950055e-12 </wgt>
<wgt id='1503'> +1.2942350e-12 </wgt>
<wgt id='1504'> +1.2847444e-12 </wgt>
<wgt id='1505'> +1.2956212e-12 </wgt>
<wgt id='1506'> +1.2890761e-12 </wgt>
<wgt id='1507'> +1.2931578e-12 </wgt>
<wgt id='1508'> +1.2944165e-12 </wgt>
<wgt id='1509'> +1.3197472e-12 </wgt>
<wgt id='1510'> +1.3189202e-12 </wgt>
<wgt id='1511'> +1.3208637e-12 </wgt>
<wgt id='1512'> +1.3199139e-12 </wgt>
<wgt id='1513'> +1.3196867e-12 </wgt>
<wgt id='1514'> +1.3213117e-12 </wgt>
<wgt id='1515'> +1.3195121e-12 </wgt>
<wgt id='1516'> +1.3209581e-12 </wgt>
<wgt id='1517'> +1.3224927e-12 </wgt>
<wgt id='1518'> +1.3195823e-12 </wgt>
<wgt id='1519'> +1.3124340e-12 </wgt>
<wgt id='1520'> +1.3195213e-12 </wgt>
<wgt id='1521'> +1.3236315e-12 </wgt>
<wgt id='1522'> +1.3184329e-12 </wgt>
<wgt id='1523'> +1.3214547e-12 </wgt>
<wgt id='1524'> +1.3262020e-12 </wgt>
<wgt id='1525'> +1.3275287e-12 </wgt>
<wgt id='1526'> +1.3147790e-12 </wgt>
<wgt id='1527'> +1.3152258e-12 </wgt>
<wgt id='1528'> +1.3152708e-12 </wgt>
<wgt id='1529'> +1.3167606e-12 </wgt>
<wgt id='1530'> +1.3257662e-12 </wgt>
<wgt id='1531'> +1.3239049e-12 </wgt>
<wgt id='1532'> +1.3102298e-12 </wgt>
<wgt id='1533'> +1.3292920e-12 </wgt>
<wgt id='1534'> +1.3204053e-12 </wgt>
<wgt id='1535'> +1.3152754e-12 </wgt>
<wgt id='1536'> +1.3222154e-12 </wgt>
<wgt id='1537'> +1.3179507e-12 </wgt>
<wgt id='1538'> +1.3155981e-12 </wgt>
<wgt id='1539'> +1.3335857e-12 </wgt>
<wgt id='1540'> +1.3220148e-12 </wgt>
<wgt id='1541'> +1.3202945e-12 </wgt>
<wgt id='1542'> +1.3140454e-12 </wgt>
<wgt id='1543'> +1.3213681e-12 </wgt>
<wgt id='1544'> +1.3245504e-12 </wgt>
<wgt id='1545'> +1.3180308e-12 </wgt>
<wgt id='1546'> +1.3234625e-12 </wgt>
<wgt id='1547'> +1.3188699e-12 </wgt>
<wgt id='1548'> +1.3200244e-12 </wgt>
<wgt id='1549'> +1.3202959e-12 </wgt>
<wgt id='1550'> +1.3178736e-12 </wgt>
<wgt id='1551'> +1.3180934e-12 </wgt>
<wgt id='1552'> +1.3191781e-12 </wgt>
<wgt id='1553'> +1.3189157e-12 </wgt>
<wgt id='1554'> +1.3194433e-12 </wgt>
<wgt id='1555'> +1.3194793e-12 </wgt>
<wgt id='1556'> +1.3193309e-12 </wgt>
<wgt id='1557'> +1.3208736e-12 </wgt>
<wgt id='1558'> +1.3184369e-12 </wgt>
<wgt id='1559'> +1.3207717e-12 </wgt>
<wgt id='1560'> +1.3185257e-12 </wgt>
<wgt id='1561'> +1.3205961e-12 </wgt>
<wgt id='1562'> +1.3199284e-12 </wgt>
<wgt id='1563'> +1.3181990e-12 </wgt>
<wgt id='1564'> +1.3200503e-12 </wgt>
<wgt id='1565'> +1.3188703e-12 </wgt>
<wgt id='1566'> +1.3208000e-12 </wgt>
<wgt id='1567'> +1.3211272e-12 </wgt>
<wgt id='1568'> +1.3204672e-12 </wgt>
<wgt id='1569'> +1.3194147e-12 </wgt>
<wgt id='1570'> +1.3184375e-12 </wgt>
<wgt id='1571'> +1.3194755e-12 </wgt>
<wgt id='1572'> +1.3203901e-12 </wgt>
<wgt id='1573'> +1.3185601e-12 </wgt>
<wgt id='1574'> +1.3205818e-12 </wgt>
<wgt id='1575'> +1.3191201e-12 </wgt>
<wgt id='1576'> +1.3188732e-12 </wgt>
<wgt id='1577'> +1.3191263e-12 </wgt>
<wgt id='1578'> +1.3187417e-12 </wgt>
<wgt id='1579'> +1.3200864e-12 </wgt>
<wgt id='1580'> +1.3182740e-12 </wgt>
<wgt id='1581'> +1.3200372e-12 </wgt>
<wgt id='1582'> +1.3210430e-12 </wgt>
<wgt id='1583'> +1.3177548e-12 </wgt>
<wgt id='1584'> +1.3201858e-12 </wgt>
<wgt id='1585'> +1.3211714e-12 </wgt>
<wgt id='1586'> +1.3197920e-12 </wgt>
<wgt id='1587'> +1.3189296e-12 </wgt>
<wgt id='1588'> +1.3213442e-12 </wgt>
<wgt id='1589'> +1.3188197e-12 </wgt>
<wgt id='1590'> +1.3197253e-12 </wgt>
<wgt id='1591'> +1.3198035e-12 </wgt>
<wgt id='1592'> +1.3196364e-12 </wgt>
<wgt id='1593'> +1.3190924e-12 </wgt>
<wgt id='1594'> +1.3200691e-12 </wgt>
<wgt id='1595'> +1.3187002e-12 </wgt>
<wgt id='1596'> +1.3202621e-12 </wgt>
<wgt id='1597'> +1.3201749e-12 </wgt>
<wgt id='1598'> +1.3191569e-12 </wgt>
<wgt id='1599'> +1.3204958e-12 </wgt>
<wgt id='1600'> +1.3193499e-12 </wgt>
<wgt id='1601'> +1.3186177e-12 </wgt>
<wgt id='1602'> +1.3203079e-12 </wgt>
<wgt id='1603'> +1.3197480e-12 </wgt>
<wgt id='1604'> +1.3197587e-12 </wgt>
<wgt id='1605'> +1.3186905e-12 </wgt>
<wgt id='1606'> +1.3197224e-12 </wgt>
<wgt id='1607'> +1.3195112e-12 </wgt>
<wgt id='1608'> +1.3193115e-12 </wgt>
<wgt id='1609'> +1.3196166e-12 </wgt>
<wgt id='1610'> +1.3071162e-12 </wgt>
<wgt id='1611'> +1.3295380e-12 </wgt>
<wgt id='1612'> +1.5209510e-12 </wgt>
<wgt id='1613'> +1.5097500e-12 </wgt>
<wgt id='1614'> +1.5232674e-12 </wgt>
<wgt id='1615'> +1.5145937e-12 </wgt>
<wgt id='1616'> +1.5186724e-12 </wgt>
<wgt id='1617'> +1.5582175e-12 </wgt>
<wgt id='1618'> +1.5636991e-12 </wgt>
<wgt id='1619'> +1.4874410e-12 </wgt>
<wgt id='1620'> +1.5021533e-12 </wgt>
<wgt id='1621'> +1.5335957e-12 </wgt>
<wgt id='1622'> +1.5049659e-12 </wgt>
<wgt id='1623'> +1.4874715e-12 </wgt>
<wgt id='1624'> +1.4872570e-12 </wgt>
<wgt id='1625'> +1.5292948e-12 </wgt>
<wgt id='1626'> +1.4781739e-12 </wgt>
<wgt id='1627'> +1.5029663e-12 </wgt>
<wgt id='1628'> +1.5079399e-12 </wgt>
<wgt id='1629'> +1.5616117e-12 </wgt>
<wgt id='1630'> +1.5197935e-12 </wgt>
<wgt id='1631'> +1.5569700e-12 </wgt>
<wgt id='1632'> +1.5071887e-12 </wgt>
<wgt id='1633'> +1.4984927e-12 </wgt>
<wgt id='1634'> +1.5188462e-12 </wgt>
<wgt id='1635'> +1.5802460e-12 </wgt>
<wgt id='1636'> +1.5982468e-12 </wgt>
<wgt id='1637'> +1.5374896e-12 </wgt>
<wgt id='1638'> +1.5433628e-12 </wgt>
<wgt id='1639'> +1.5225061e-12 </wgt>
<wgt id='1640'> +1.5350732e-12 </wgt>
<wgt id='1641'> +1.4756006e-12 </wgt>
<wgt id='1642'> +1.5021393e-12 </wgt>
<wgt id='1643'> +1.4945705e-12 </wgt>
<wgt id='1644'> +1.5438013e-12 </wgt>
<wgt id='1645'> +1.5234926e-12 </wgt>
<wgt id='1646'> +1.5170779e-12 </wgt>
<wgt id='1647'> +1.5155190e-12 </wgt>
<wgt id='1648'> +1.5781374e-12 </wgt>
<wgt id='1649'> +1.5147604e-12 </wgt>
<wgt id='1650'> +1.4778487e-12 </wgt>
<wgt id='1651'> +1.4845412e-12 </wgt>
<wgt id='1652'> +1.4890269e-12 </wgt>
<wgt id='1653'> +1.5287091e-12 </wgt>
<wgt id='1654'> +1.5348442e-12 </wgt>
<wgt id='1655'> +1.5116856e-12 </wgt>
<wgt id='1656'> +1.5098739e-12 </wgt>
<wgt id='1657'> +1.5152233e-12 </wgt>
<wgt id='1658'> +1.4865776e-12 </wgt>
<wgt id='1659'> +1.4872570e-12 </wgt>
<wgt id='1660'> +1.5100608e-12 </wgt>
<wgt id='1661'> +1.5106240e-12 </wgt>
<wgt id='1662'> +1.5261161e-12 </wgt>
<wgt id='1663'> +1.4980061e-12 </wgt>
<wgt id='1664'> +1.5466500e-12 </wgt>
<wgt id='1665'> +1.4739253e-12 </wgt>
<wgt id='1666'> +1.5001844e-12 </wgt>
<wgt id='1667'> +1.4985574e-12 </wgt>
<wgt id='1668'> +1.5397097e-12 </wgt>
<wgt id='1669'> +1.5755683e-12 </wgt>
<wgt id='1670'> +1.5185035e-12 </wgt>
<wgt id='1671'> +1.5813254e-12 </wgt>
<wgt id='1672'> +1.5472716e-12 </wgt>
<wgt id='1673'> +1.5065841e-12 </wgt>
<wgt id='1674'> +1.5091257e-12 </wgt>
<wgt id='1675'> +1.5351158e-12 </wgt>
<wgt id='1676'> +1.5591148e-12 </wgt>
<wgt id='1677'> +1.5888697e-12 </wgt>
<wgt id='1678'> +1.5208693e-12 </wgt>
<wgt id='1679'> +1.5238138e-12 </wgt>
<wgt id='1680'> +1.5497995e-12 </wgt>
<wgt id='1681'> +1.5356413e-12 </wgt>
<wgt id='1682'> +1.4865769e-12 </wgt>
<wgt id='1683'> +1.4930402e-12 </wgt>
<wgt id='1684'> +1.4809567e-12 </wgt>
<wgt id='1685'> +1.5044652e-12 </wgt>
<wgt id='1686'> +1.5146786e-12 </wgt>
<wgt id='1687'> +1.5441211e-12 </wgt>
<wgt id='1688'> +1.5045262e-12 </wgt>
<wgt id='1689'> +1.5241228e-12 </wgt>
<wgt id='1690'> +1.5727236e-12 </wgt>
<wgt id='1691'> +1.6094075e-12 </wgt>
<wgt id='1692'> +1.5051786e-12 </wgt>
<wgt id='1693'> +1.5010447e-12 </wgt>
<wgt id='1694'> +1.4945797e-12 </wgt>
<wgt id='1695'> +1.5089670e-12 </wgt>
<wgt id='1696'> +1.5702991e-12 </wgt>
<wgt id='1697'> +1.5219839e-12 </wgt>
<wgt id='1698'> +1.5118465e-12 </wgt>
<wgt id='1699'> +1.5458243e-12 </wgt>
<wgt id='1700'> +1.5237078e-12 </wgt>
<wgt id='1701'> +1.5434139e-12 </wgt>
<wgt id='1702'> +1.5306269e-12 </wgt>
<wgt id='1703'> +1.5485065e-12 </wgt>
<wgt id='1704'> +1.5313477e-12 </wgt>
<wgt id='1705'> +1.4520177e-12 </wgt>
<wgt id='1706'> +1.5410746e-12 </wgt>
<wgt id='1707'> +1.4828016e-12 </wgt>
<wgt id='1708'> +1.5244553e-12 </wgt>
<wgt id='1709'> +1.5216587e-12 </wgt>
<wgt id='1710'> +1.4934552e-12 </wgt>
<wgt id='1711'> +1.4582332e-12 </wgt>
<wgt id='1712'> +1.5103239e-12 </wgt>
<wgt id='1713'> +1.2521644e-12 </wgt>
<wgt id='1714'> +1.2145694e-12 </wgt>
<wgt id='1715'> +1.2906505e-12 </wgt>
<wgt id='1716'> +1.2514177e-12 </wgt>
<wgt id='1717'> +1.2498055e-12 </wgt>
<wgt id='1718'> +1.2314639e-12 </wgt>
<wgt id='1719'> +1.2236698e-12 </wgt>
<wgt id='1720'> +1.2752369e-12 </wgt>
<wgt id='1721'> +1.2214793e-12 </wgt>
<wgt id='1722'> +1.2411889e-12 </wgt>
<wgt id='1723'> +1.2632463e-12 </wgt>
<wgt id='1724'> +1.3145865e-12 </wgt>
<wgt id='1725'> +1.2558428e-12 </wgt>
<wgt id='1726'> +1.2654003e-12 </wgt>
<wgt id='1727'> +1.2642449e-12 </wgt>
<wgt id='1728'> +1.2640436e-12 </wgt>
<wgt id='1729'> +1.2097334e-12 </wgt>
<wgt id='1730'> +1.2256263e-12 </wgt>
<wgt id='1731'> +1.1804190e-12 </wgt>
<wgt id='1732'> +1.2638957e-12 </wgt>
<wgt id='1733'> +1.2281430e-12 </wgt>
<wgt id='1734'> +1.3099590e-12 </wgt>
<wgt id='1735'> +1.2681280e-12 </wgt>
<wgt id='1736'> +1.3048076e-12 </wgt>
<wgt id='1737'> +1.2549835e-12 </wgt>
<wgt id='1738'> +1.2786691e-12 </wgt>
<wgt id='1739'> +1.2086764e-12 </wgt>
<wgt id='1740'> +1.2158756e-12 </wgt>
<wgt id='1741'> +1.2782251e-12 </wgt>
<wgt id='1742'> +1.2360428e-12 </wgt>
<wgt id='1743'> +1.2670030e-12 </wgt>
<wgt id='1744'> +1.2703735e-12 </wgt>
<wgt id='1745'> +1.2210754e-12 </wgt>
<wgt id='1746'> +1.2689381e-12 </wgt>
<wgt id='1747'> +1.2521195e-12 </wgt>
<wgt id='1748'> +1.2586812e-12 </wgt>
<wgt id='1749'> +1.2231274e-12 </wgt>
<wgt id='1750'> +1.2573915e-12 </wgt>
<wgt id='1751'> +1.2030203e-12 </wgt>
<wgt id='1752'> +1.2387044e-12 </wgt>
<wgt id='1753'> +1.2741904e-12 </wgt>
<wgt id='1754'> +1.2868706e-12 </wgt>
<wgt id='1755'> +1.2894277e-12 </wgt>
<wgt id='1756'> +1.2620893e-12 </wgt>
<wgt id='1757'> +1.2424731e-12 </wgt>
<wgt id='1758'> +1.2759396e-12 </wgt>
<wgt id='1759'> +1.2591969e-12 </wgt>
<wgt id='1760'> +1.2324131e-12 </wgt>
<wgt id='1761'> +1.2341726e-12 </wgt>
<wgt id='1762'> +1.2543808e-12 </wgt>
<wgt id='1763'> +1.2678757e-12 </wgt>
<wgt id='1764'> +1.2803903e-12 </wgt>
<wgt id='1765'> +1.2310863e-12 </wgt>
<wgt id='1766'> +1.2496192e-12 </wgt>
<wgt id='1767'> +1.2643075e-12 </wgt>
<wgt id='1768'> +1.2370088e-12 </wgt>
<wgt id='1769'> +1.2240089e-12 </wgt>
<wgt id='1770'> +1.2567404e-12 </wgt>
<wgt id='1771'> +1.2582622e-12 </wgt>
<wgt id='1772'> +1.2534273e-12 </wgt>
<wgt id='1773'> +1.2422364e-12 </wgt>
<wgt id='1774'> +1.2470873e-12 </wgt>
<wgt id='1775'> +1.2743566e-12 </wgt>
<wgt id='1776'> +1.2951380e-12 </wgt>
<wgt id='1777'> +1.2374032e-12 </wgt>
<wgt id='1778'> +1.2389003e-12 </wgt>
<wgt id='1779'> +1.2660564e-12 </wgt>
<wgt id='1780'> +1.2453605e-12 </wgt>
<wgt id='1781'> +1.2487039e-12 </wgt>
<wgt id='1782'> +1.2370691e-12 </wgt>
<wgt id='1783'> +1.2416121e-12 </wgt>
<wgt id='1784'> +1.2577849e-12 </wgt>
<wgt id='1785'> +1.2144360e-12 </wgt>
<wgt id='1786'> +1.2237780e-12 </wgt>
<wgt id='1787'> +1.2590341e-12 </wgt>
<wgt id='1788'> +1.2815720e-12 </wgt>
<wgt id='1789'> +1.2315816e-12 </wgt>
<wgt id='1790'> +1.2748483e-12 </wgt>
<wgt id='1791'> +1.2789463e-12 </wgt>
<wgt id='1792'> +1.2318286e-12 </wgt>
<wgt id='1793'> +1.2491430e-12 </wgt>
<wgt id='1794'> +1.2637960e-12 </wgt>
<wgt id='1795'> +1.2842107e-12 </wgt>
<wgt id='1796'> +1.2111986e-12 </wgt>
<wgt id='1797'> +1.2568741e-12 </wgt>
<wgt id='1798'> +1.2623639e-12 </wgt>
<wgt id='1799'> +1.2751714e-12 </wgt>
<wgt id='1800'> +1.2582137e-12 </wgt>
<wgt id='1801'> +1.2682155e-12 </wgt>
<wgt id='1802'> +1.2404567e-12 </wgt>
<wgt id='1803'> +1.2779888e-12 </wgt>
<wgt id='1804'> +1.2744902e-12 </wgt>
<wgt id='1805'> +1.2164278e-12 </wgt>
<wgt id='1806'> +1.2268974e-12 </wgt>
<wgt id='1807'> +1.2819034e-12 </wgt>
<wgt id='1808'> +1.2342584e-12 </wgt>
<wgt id='1809'> +1.2415994e-12 </wgt>
<wgt id='1810'> +1.2456243e-12 </wgt>
<wgt id='1811'> +1.2504952e-12 </wgt>
<wgt id='1812'> +1.2564517e-12 </wgt>
<wgt id='1813'> +1.2311217e-12 </wgt>
<wgt id='1814'> +1.4495537e-12 </wgt>
<wgt id='1815'> +1.6755741e-12 </wgt>
<wgt id='1816'> +1.2521644e-12 </wgt>
<wgt id='1817'> +1.2145694e-12 </wgt>
<wgt id='1818'> +1.2906505e-12 </wgt>
<wgt id='1819'> +1.2514177e-12 </wgt>
<wgt id='1820'> +1.2498055e-12 </wgt>
<wgt id='1821'> +1.2314639e-12 </wgt>
<wgt id='1822'> +1.2236698e-12 </wgt>
<wgt id='1823'> +1.2752369e-12 </wgt>
<wgt id='1824'> +1.2214793e-12 </wgt>
<wgt id='1825'> +1.2411889e-12 </wgt>
<wgt id='1826'> +1.2632463e-12 </wgt>
<wgt id='1827'> +1.3145865e-12 </wgt>
<wgt id='1828'> +1.2558428e-12 </wgt>
<wgt id='1829'> +1.2654003e-12 </wgt>
<wgt id='1830'> +1.2642449e-12 </wgt>
<wgt id='1831'> +1.2640436e-12 </wgt>
<wgt id='1832'> +1.2097334e-12 </wgt>
<wgt id='1833'> +1.2256263e-12 </wgt>
<wgt id='1834'> +1.1804190e-12 </wgt>
<wgt id='1835'> +1.2638957e-12 </wgt>
<wgt id='1836'> +1.2281430e-12 </wgt>
<wgt id='1837'> +1.3099590e-12 </wgt>
<wgt id='1838'> +1.2681280e-12 </wgt>
<wgt id='1839'> +1.3048076e-12 </wgt>
<wgt id='1840'> +1.2549835e-12 </wgt>
<wgt id='1841'> +1.2786691e-12 </wgt>
<wgt id='1842'> +1.2086764e-12 </wgt>
<wgt id='1843'> +1.2158756e-12 </wgt>
<wgt id='1844'> +1.2782251e-12 </wgt>
<wgt id='1845'> +1.2360428e-12 </wgt>
<wgt id='1846'> +1.2670030e-12 </wgt>
<wgt id='1847'> +1.2703735e-12 </wgt>
<wgt id='1848'> +1.2210754e-12 </wgt>
<wgt id='1849'> +1.2689381e-12 </wgt>
<wgt id='1850'> +1.2521195e-12 </wgt>
<wgt id='1851'> +1.2586812e-12 </wgt>
<wgt id='1852'> +1.2231274e-12 </wgt>
<wgt id='1853'> +1.2573915e-12 </wgt>
<wgt id='1854'> +1.2030203e-12 </wgt>
<wgt id='1855'> +1.2387044e-12 </wgt>
<wgt id='1856'> +1.2741904e-12 </wgt>
<wgt id='1857'> +1.2868706e-12 </wgt>
<wgt id='1858'> +1.2894277e-12 </wgt>
<wgt id='1859'> +1.2620893e-12 </wgt>
<wgt id='1860'> +1.2424731e-12 </wgt>
<wgt id='1861'> +1.2759396e-12 </wgt>
<wgt id='1862'> +1.2591969e-12 </wgt>
<wgt id='1863'> +1.2324131e-12 </wgt>
<wgt id='1864'> +1.2341726e-12 </wgt>
<wgt id='1865'> +1.2543808e-12 </wgt>
<wgt id='1866'> +1.2678757e-12 </wgt>
<wgt id='1867'> +1.2803903e-12 </wgt>
<wgt id='1868'> +1.2310863e-12 </wgt>
<wgt id='1869'> +1.2496192e-12 </wgt>
<wgt id='1870'> +1.2643075e-12 </wgt>
<wgt id='1871'> +1.2370088e-12 </wgt>
<wgt id='1872'> +1.2240089e-12 </wgt>
<wgt id='1873'> +1.2567404e-12 </wgt>
<wgt id='1874'> +1.2582622e-12 </wgt>
<wgt id='1875'> +1.2534273e-12 </wgt>
<wgt id='1876'> +1.2422364e-12 </wgt>
<wgt id='1877'> +1.2470873e-12 </wgt>
<wgt id='1878'> +1.2743566e-12 </wgt>
<wgt id='1879'> +1.2951380e-12 </wgt>
<wgt id='1880'> +1.2374032e-12 </wgt>
<wgt id='1881'> +1.2389003e-12 </wgt>
<wgt id='1882'> +1.2660564e-12 </wgt>
<wgt id='1883'> +1.2453605e-12 </wgt>
<wgt id='1884'> +1.2487039e-12 </wgt>
<wgt id='1885'> +1.2370691e-12 </wgt>
<wgt id='1886'> +1.2416121e-12 </wgt>
<wgt id='1887'> +1.2577849e-12 </wgt>
<wgt id='1888'> +1.2144360e-12 </wgt>
<wgt id='1889'> +1.2237780e-12 </wgt>
<wgt id='1890'> +1.2590341e-12 </wgt>
<wgt id='1891'> +1.2815720e-12 </wgt>
<wgt id='1892'> +1.2315816e-12 </wgt>
<wgt id='1893'> +1.2748483e-12 </wgt>
<wgt id='1894'> +1.2789463e-12 </wgt>
<wgt id='1895'> +1.2318286e-12 </wgt>
<wgt id='1896'> +1.2491430e-12 </wgt>
<wgt id='1897'> +1.2637960e-12 </wgt>
<wgt id='1898'> +1.2842107e-12 </wgt>
<wgt id='1899'> +1.2111986e-12 </wgt>
<wgt id='1900'> +1.2568741e-12 </wgt>
<wgt id='1901'> +1.2623639e-12 </wgt>
<wgt id='1902'> +1.2751714e-12 </wgt>
<wgt id='1903'> +1.2582137e-12 </wgt>
<wgt id='1904'> +1.2682155e-12 </wgt>
<wgt id='1905'> +1.2404567e-12 </wgt>
<wgt id='1906'> +1.2779888e-12 </wgt>
<wgt id='1907'> +1.2744902e-12 </wgt>
<wgt id='1908'> +1.2164278e-12 </wgt>
<wgt id='1909'> +1.2268974e-12 </wgt>
<wgt id='1910'> +1.2819034e-12 </wgt>
<wgt id='1911'> +1.2342584e-12 </wgt>
<wgt id='1912'> +1.2415994e-12 </wgt>
<wgt id='1913'> +1.2456243e-12 </wgt>
<wgt id='1914'> +1.2504952e-12 </wgt>
<wgt id='1915'> +1.2564517e-12 </wgt>
<wgt id='1916'> +1.2311217e-12 </wgt>
<wgt id='1917'> +1.2435572e-12 </wgt>
<wgt id='1918'> +1.2596557e-12 </wgt>
<wgt id='1919'> +1.2724827e-12 </wgt>
</rwgt>
</event>
<event>
 9      1 +1.5607000e-12 2.58533500e+01 7.81860800e-03 1.49578900e-01
       21 -1    0    0  501  502 +0.0000000000e+00 +0.0000000000e+00 +1.3452905252e+01 1.3452905252e+01 0.0000000000e+00 0.0000e+00 1.0000e+00
       -4 -1    0    0    0  501 -0.0000000000e+00 -0.0000000000e+00 -4.6193742186e+01 4.6215562500e+01 1.4200000000e+00 0.0000e+00 1.0000e+00
     1023  2    1    2    0    0 -1.7885325791e+01 -1.1113012265e+01 -2.7858704640e+01 3.8006622585e+01 1.5000400523e+01 0.0000e+00 0.0000e+00
  1000023  2    3    3    0    0 -1.4720521914e+01 -1.1357376495e+01 -2.4336904598e+01 3.1116138350e+01 5.4995794525e+00 0.0000e+00 0.0000e+00
       -4  1    1    2    0  502 +1.7885325791e+01 +1.1113012265e+01 -4.8821322943e+00 2.1661845166e+01 1.4200000000e+00 0.0000e+00 1.0000e+00
  1000022  1    4    4    0    0 -1.4062649817e+01 -1.0902482484e+01 -2.3060394547e+01 2.9553409970e+01 5.0000000000e+00 0.0000e+00 1.0000e+00
      -13  1    4    4    0    0 -6.1326576444e-01 -4.6713860249e-01 -1.1735775324e+00 1.4081086913e+00 1.0570000000e-01 0.0000e+00 1.0000e+00
       13  1    4    4    0    0 -4.4606331989e-02 +1.2244590970e-02 -1.0293251881e-01 1.5461968921e-01 1.0570000000e-01 0.0000e+00 1.0000e+00
  1000022  1    3    3    0    0 -3.1648038772e+00 +2.4436422965e-01 -3.5218000423e+00 6.8904842352e+00 5.0000000000e+00 0.0000e+00 1.0000e+00
<mgrwt>
<rscale>  1 0.25853354E+02</rscale>
<asrwt>0</asrwt>
<pdfrwt beam="1">  1       21 0.20696778E-02 0.25853354E+02</pdfrwt>
<pdfrwt beam="2">  1       -4 0.71141728E-02 0.25853354E+02</pdfrwt>
<totfact> 0.47048761E+06</totfact>
</mgrwt>
<rwgt>
<wgt id='1001'> +1.5607000e-12 </wgt>
<wgt id='1002'> +1.7325587e-12 </wgt>
<wgt id='1003'> +1.7431497e-12 </wgt>
<wgt id='1004'> +1.5209986e-12 </wgt>
<wgt id='1005'> +1.7619971e-12 </wgt>
<wgt id='1006'> +1.3598766e-12 </wgt>
<wgt id='1007'> +1.5313788e-12 </wgt>
<wgt id='1008'> +1.5421531e-12 </wgt>
<wgt id='1009'> +1.3209870e-12 </wgt>
<wgt id='1010'> +1.5614044e-12 </wgt>
<wgt id='1011'> +1.8346879e-12 </wgt>
<wgt id='1012'> +1.9973360e-12 </wgt>
<wgt id='1013'> +2.0070814e-12 </wgt>
<wgt id='1014'> +1.7961633e-12 </wgt>
<wgt id='1015'> +2.0243603e-12 </wgt>
<wgt id='1016'> +2.0326520e-12 </wgt>
<wgt id='1017'> +2.1366659e-12 </wgt>
<wgt id='1018'> +2.1427619e-12 </wgt>
<wgt id='1019'> +2.0070814e-12 </wgt>
<wgt id='1020'> +2.1534408e-12 </wgt>
<wgt id='1021'> +1.7711000e-12 </wgt>
<wgt id='1022'> +1.8885622e-12 </wgt>
<wgt id='1023'> +1.8956873e-12 </wgt>
<wgt id='1024'> +1.7431497e-12 </wgt>
<wgt id='1025'> +1.9082846e-12 </wgt>
<wgt id='1026'> +2.3894932e-12 </wgt>
<wgt id='1027'> +2.4632007e-12 </wgt>
<wgt id='1028'> +2.4671991e-12 </wgt>
<wgt id='1029'> +2.3701834e-12 </wgt>
<wgt id='1030'> +2.4740904e-12 </wgt>
<wgt id='1031'> +1.0764629e-12 </wgt>
<wgt id='1032'> +1.3063399e-12 </wgt>
<wgt id='1033'> +1.3209870e-12 </wgt>
<wgt id='1034'> +1.0247953e-12 </wgt>
<wgt id='1035'> +1.3471366e-12 </wgt>
<wgt id='1036'> +9.3794882e-13 </wgt>
<wgt id='1037'> +1.1546514e-12 </wgt>
<wgt id='1038'> +1.1686685e-12 </wgt>
<wgt id='1039'> +8.9003449e-13 </wgt>
<wgt id='1040'> +1.1937732e-12 </wgt>
<wgt id='1041'> +1.2654409e-12 </wgt>
<wgt id='1042'> +1.5059806e-12 </wgt>
<wgt id='1043'> +1.5209986e-12 </wgt>
<wgt id='1044'> +1.2101915e-12 </wgt>
<wgt id='1045'> +1.5477266e-12 </wgt>
<wgt id='1046'> +1.5607000e-12 </wgt>
<wgt id='1047'> +1.4885797e-12 </wgt>
<wgt id='1048'> +1.5843019e-12 </wgt>
<wgt id='1049'> +1.6014746e-12 </wgt>
<wgt id='1050'> +1.5553372e-12 </wgt>
<wgt id='1051'> +1.5752478e-12 </wgt>
<wgt id='1052'> +1.4538288e-12 </wgt>
<wgt id='1053'> +1.5837324e-12 </wgt>
<wgt id='1054'> +1.6151012e-12 </wgt>
<wgt id='1055'> +1.6356939e-12 </wgt>
<wgt id='1056'> +1.5926166e-12 </wgt>
<wgt id='1057'> +1.5485059e-12 </wgt>
<wgt id='1058'> +1.5431768e-12 </wgt>
<wgt id='1059'> +1.5827538e-12 </wgt>
<wgt id='1060'> +1.5245673e-12 </wgt>
<wgt id='1061'> +1.5966174e-12 </wgt>
<wgt id='1062'> +1.5755349e-12 </wgt>
<wgt id='1063'> +1.6043043e-12 </wgt>
<wgt id='1064'> +1.5541727e-12 </wgt>
<wgt id='1065'> +1.5596064e-12 </wgt>
<wgt id='1066'> +1.6326316e-12 </wgt>
<wgt id='1067'> +1.5876364e-12 </wgt>
<wgt id='1068'> +1.5590244e-12 </wgt>
<wgt id='1069'> +1.5578954e-12 </wgt>
<wgt id='1070'> +1.5736871e-12 </wgt>
<wgt id='1071'> +1.5860911e-12 </wgt>
<wgt id='1072'> +1.6091095e-12 </wgt>
<wgt id='1073'> +1.5681651e-12 </wgt>
<wgt id='1074'> +1.5301333e-12 </wgt>
<wgt id='1075'> +1.5499223e-12 </wgt>
<wgt id='1076'> +1.5755496e-12 </wgt>
<wgt id='1077'> +1.5100336e-12 </wgt>
<wgt id='1078'> +1.5738353e-12 </wgt>
<wgt id='1079'> +1.5099663e-12 </wgt>
<wgt id='1080'> +1.5309059e-12 </wgt>
<wgt id='1081'> +1.5585491e-12 </wgt>
<wgt id='1082'> +1.5525030e-12 </wgt>
<wgt id='1083'> +1.6046197e-12 </wgt>
<wgt id='1084'> +1.5711062e-12 </wgt>
<wgt id='1085'> +1.5217674e-12 </wgt>
<wgt id='1086'> +1.5337165e-12 </wgt>
<wgt id='1087'> +1.5539646e-12 </wgt>
<wgt id='1088'> +1.4868670e-12 </wgt>
<wgt id='1089'> +1.5010472e-12 </wgt>
<wgt id='1090'> +1.4795134e-12 </wgt>
<wgt id='1091'> +1.5294786e-12 </wgt>
<wgt id='1092'> +1.5265212e-12 </wgt>
<wgt id='1093'> +1.5073755e-12 </wgt>
<wgt id='1094'> +1.5859176e-12 </wgt>
<wgt id='1095'> +1.5338663e-12 </wgt>
<wgt id='1096'> +1.5651052e-12 </wgt>
<wgt id='1097'> +1.5145233e-12 </wgt>
<wgt id='1098'> +1.6305932e-12 </wgt>
<wgt id='1099'> +1.5508786e-12 </wgt>
<wgt id='1100'> +1.5175945e-12 </wgt>
<wgt id='1101'> +1.5353191e-12 </wgt>
<wgt id='1102'> +1.5471914e-12 </wgt>
<wgt id='1103'> +1.5518117e-12 </wgt>
<wgt id='1104'> +1.5945162e-12 </wgt>
<wgt id='1105'> +1.5989914e-12 </wgt>
<wgt id='1106'> +1.5565827e-12 </wgt>
<wgt id='1107'> +1.5496354e-12 </wgt>
<wgt id='1108'> +1.5914373e-12 </wgt>
<wgt id='1109'> +1.5376270e-12 </wgt>
<wgt id='1110'> +1.5684185e-12 </wgt>
<wgt id='1111'> +1.5559728e-12 </wgt>
<wgt id='1112'> +1.4401572e-12 </wgt>
<wgt id='1113'> +1.4674784e-12 </wgt>
<wgt id='1114'> +1.5985214e-12 </wgt>
<wgt id='1115'> +1.5481800e-12 </wgt>
<wgt id='1116'> +1.5692596e-12 </wgt>
<wgt id='1117'> +1.6230375e-12 </wgt>
<wgt id='1118'> +1.5529028e-12 </wgt>
<wgt id='1119'> +1.6524103e-12 </wgt>
<wgt id='1120'> +1.6436179e-12 </wgt>
<wgt id='1121'> +1.5444364e-12 </wgt>
<wgt id='1122'> +1.4773962e-12 </wgt>
<wgt id='1123'> +1.6562215e-12 </wgt>
<wgt id='1124'> +1.5450488e-12 </wgt>
<wgt id='1125'> +1.5722063e-12 </wgt>
<wgt id='1126'> +1.4906423e-12 </wgt>
<wgt id='1127'> +1.5371368e-12 </wgt>
<wgt id='1128'> +1.5755349e-12 </wgt>
<wgt id='1129'> +1.5070822e-12 </wgt>
<wgt id='1130'> +1.6143461e-12 </wgt>
<wgt id='1131'> +1.5898695e-12 </wgt>
<wgt id='1132'> +1.4658285e-12 </wgt>
<wgt id='1133'> +1.5602913e-12 </wgt>
<wgt id='1134'> +1.5368235e-12 </wgt>
<wgt id='1135'> +1.6884779e-12 </wgt>
<wgt id='1136'> +1.5148712e-12 </wgt>
<wgt id='1137'> +1.5235919e-12 </wgt>
<wgt id='1138'> +1.6041976e-12 </wgt>
<wgt id='1139'> +1.5930074e-12 </wgt>
<wgt id='1140'> +1.6028997e-12 </wgt>
<wgt id='1141'> +1.5831231e-12 </wgt>
<wgt id='1142'> +1.5382314e-12 </wgt>
<wgt id='1143'> +1.5044180e-12 </wgt>
<wgt id='1144'> +1.6268857e-12 </wgt>
<wgt id='1145'> +1.6650940e-12 </wgt>
<wgt id='1146'> +1.6236983e-12 </wgt>
<wgt id='1147'> +1.2689499e-12 </wgt>
<wgt id='1148'> +1.3131755e-12 </wgt>
<wgt id='1149'> +1.2562902e-12 </wgt>
<wgt id='1150'> +1.2852545e-12 </wgt>
<wgt id='1151'> +1.1109132e-12 </wgt>
<wgt id='1152'> +1.6205765e-12 </wgt>
<wgt id='1153'> +1.6124715e-12 </wgt>
<wgt id='1154'> +1.6252623e-12 </wgt>
<wgt id='1155'> +1.6214079e-12 </wgt>
<wgt id='1156'> +1.6202088e-12 </wgt>
<wgt id='1157'> +1.6170001e-12 </wgt>
<wgt id='1158'> +1.6252617e-12 </wgt>
<wgt id='1159'> +1.6176045e-12 </wgt>
<wgt id='1160'> +1.6225013e-12 </wgt>
<wgt id='1161'> +1.6107279e-12 </wgt>
<wgt id='1162'> +1.6273104e-12 </wgt>
<wgt id='1163'> +1.6250838e-12 </wgt>
<wgt id='1164'> +1.6160536e-12 </wgt>
<wgt id='1165'> +1.6009730e-12 </wgt>
<wgt id='1166'> +1.6397149e-12 </wgt>
<wgt id='1167'> +1.6421230e-12 </wgt>
<wgt id='1168'> +1.5925687e-12 </wgt>
<wgt id='1169'> +1.6279943e-12 </wgt>
<wgt id='1170'> +1.6149663e-12 </wgt>
<wgt id='1171'> +1.6161707e-12 </wgt>
<wgt id='1172'> +1.6259156e-12 </wgt>
<wgt id='1173'> +1.6041636e-12 </wgt>
<wgt id='1174'> +1.6368220e-12 </wgt>
<wgt id='1175'> +1.6254752e-12 </wgt>
<wgt id='1176'> +1.6154000e-12 </wgt>
<wgt id='1177'> +1.6212713e-12 </wgt>
<wgt id='1178'> +1.6188522e-12 </wgt>
<wgt id='1179'> +1.6319528e-12 </wgt>
<wgt id='1180'> +1.6022961e-12 </wgt>
<wgt id='1181'> +1.6153089e-12 </wgt>
<wgt id='1182'> +1.6256067e-12 </wgt>
<wgt id='1183'> +1.6196855e-12 </wgt>
<wgt id='1184'> +1.6206870e-12 </wgt>
<wgt id='1185'> +1.6193790e-12 </wgt>
<wgt id='1186'> +1.6210752e-12 </wgt>
<wgt id='1187'> +1.6197918e-12 </wgt>
<wgt id='1188'> +1.6207910e-12 </wgt>
<wgt id='1189'> +1.6112576e-12 </wgt>
<wgt id='1190'> +1.6082319e-12 </wgt>
<wgt id='1191'> +1.6120525e-12 </wgt>
<wgt id='1192'> +1.6246730e-12 </wgt>
<wgt id='1193'> +1.3026938e-12 </wgt>
<wgt id='1194'> +1.2998054e-12 </wgt>
<wgt id='1195'> +1.3050065e-12 </wgt>
<wgt id='1196'> +1.3052026e-12 </wgt>
<wgt id='1197'> +1.2999042e-12 </wgt>
<wgt id='1198'> +1.3057569e-12 </wgt>
<wgt id='1199'> +1.2981471e-12 </wgt>
<wgt id='1200'> +1.3044841e-12 </wgt>
<wgt id='1201'> +1.3015286e-12 </wgt>
<wgt id='1202'> +1.2984937e-12 </wgt>
<wgt id='1203'> +1.3086438e-12 </wgt>
<wgt id='1204'> +1.2783581e-12 </wgt>
<wgt id='1205'> +1.3177592e-12 </wgt>
<wgt id='1206'> +1.3097367e-12 </wgt>
<wgt id='1207'> +1.2931755e-12 </wgt>
<wgt id='1208'> +1.2933755e-12 </wgt>
<wgt id='1209'> +1.3061134e-12 </wgt>
<wgt id='1210'> +1.3047553e-12 </wgt>
<wgt id='1211'> +1.2895936e-12 </wgt>
<wgt id='1212'> +1.3004855e-12 </wgt>
<wgt id='1213'> +1.3047364e-12 </wgt>
<wgt id='1214'> +1.2869584e-12 </wgt>
<wgt id='1215'> +1.3271902e-12 </wgt>
<wgt id='1216'> +1.3134577e-12 </wgt>
<wgt id='1217'> +1.2953865e-12 </wgt>
<wgt id='1218'> +1.3123522e-12 </wgt>
<wgt id='1219'> +1.2977293e-12 </wgt>
<wgt id='1220'> +1.3091689e-12 </wgt>
<wgt id='1221'> +1.3012575e-12 </wgt>
<wgt id='1222'> +1.3041775e-12 </wgt>
<wgt id='1223'> +1.3039734e-12 </wgt>
<wgt id='1224'> +1.3045971e-12 </wgt>
<wgt id='1225'> +1.3019059e-12 </wgt>
<wgt id='1226'> +1.3030231e-12 </wgt>
<wgt id='1227'> +1.3026695e-12 </wgt>
<wgt id='1228'> +1.2970632e-12 </wgt>
<wgt id='1229'> +1.3053604e-12 </wgt>
<wgt id='1230'> +1.2977220e-12 </wgt>
<wgt id='1231'> +1.2950726e-12 </wgt>
<wgt id='1232'> +1.2986939e-12 </wgt>
<wgt id='1233'> +1.3037868e-12 </wgt>
<wgt id='1234'> +1.3026938e-12 </wgt>
<wgt id='1235'> +1.2890955e-12 </wgt>
<wgt id='1236'> +1.2941525e-12 </wgt>
<wgt id='1237'> +1.2986743e-12 </wgt>
<wgt id='1238'> +1.3065194e-12 </wgt>
<wgt id='1239'> +1.3097583e-12 </wgt>
<wgt id='1240'> +1.3128026e-12 </wgt>
<wgt id='1241'> +1.2298945e-12 </wgt>
<wgt id='1242'> +1.2214832e-12 </wgt>
<wgt id='1243'> +1.2382889e-12 </wgt>
<wgt id='1244'> +1.2236584e-12 </wgt>
<wgt id='1245'> +1.2345701e-12 </wgt>
<wgt id='1246'> +1.2315626e-12 </wgt>
<wgt id='1247'> +1.2285630e-12 </wgt>
<wgt id='1248'> +1.2298184e-12 </wgt>
<wgt id='1249'> +1.2300546e-12 </wgt>
<wgt id='1250'> +1.2254448e-12 </wgt>
<wgt id='1251'> +1.2331105e-12 </wgt>
<wgt id='1252'> +1.2262280e-12 </wgt>
<wgt id='1253'> +1.2327909e-12 </wgt>
<wgt id='1254'> +1.2074162e-12 </wgt>
<wgt id='1255'> +1.2435321e-12 </wgt>
<wgt id='1256'> +1.2361203e-12 </wgt>
<wgt id='1257'> +1.2144710e-12 </wgt>
<wgt id='1258'> +1.2497580e-12 </wgt>
<wgt id='1259'> +1.2098931e-12 </wgt>
<wgt id='1260'> +1.2359740e-12 </wgt>
<wgt id='1261'> +1.2230659e-12 </wgt>
<wgt id='1262'> +1.2343222e-12 </wgt>
<wgt id='1263'> +1.2278486e-12 </wgt>
<wgt id='1264'> +1.2435227e-12 </wgt>
<wgt id='1265'> +1.2234239e-12 </wgt>
<wgt id='1266'> +1.2214976e-12 </wgt>
<wgt id='1267'> +1.2391786e-12 </wgt>
<wgt id='1268'> +1.2313578e-12 </wgt>
<wgt id='1269'> +1.2330645e-12 </wgt>
<wgt id='1270'> +1.2183636e-12 </wgt>
<wgt id='1271'> +1.2220489e-12 </wgt>
<wgt id='1272'> +1.2301292e-12 </wgt>
<wgt id='1273'> +1.2290850e-12 </wgt>
<wgt id='1274'> +1.2305591e-12 </wgt>
<wgt id='1275'> +1.2273241e-12 </wgt>
<wgt id='1276'> +1.2321282e-12 </wgt>
<wgt id='1277'> +1.2267618e-12 </wgt>
<wgt id='1278'> +1.2296201e-12 </wgt>
<wgt id='1279'> +1.2280612e-12 </wgt>
<wgt id='1280'> +1.2311581e-12 </wgt>
<wgt id='1281'> +1.2247368e-12 </wgt>
<wgt id='1282'> +1.2298945e-12 </wgt>
<wgt id='1283'> +1.2169184e-12 </wgt>
<wgt id='1284'> +1.2219075e-12 </wgt>
<wgt id='1285'> +1.2263226e-12 </wgt>
<wgt id='1286'> +1.2337533e-12 </wgt>
<wgt id='1287'> +1.2367566e-12 </wgt>
<wgt id='1288'> +1.2392983e-12 </wgt>
<wgt id='1289'> +1.3376429e-12 </wgt>
<wgt id='1290'> +1.3397995e-12 </wgt>
<wgt id='1291'> +1.3352580e-12 </wgt>
<wgt id='1292'> +1.3381925e-12 </wgt>
<wgt id='1293'> +1.3371834e-12 </wgt>
<wgt id='1294'> +1.3366186e-12 </wgt>
<wgt id='1295'> +1.3385645e-12 </wgt>
<wgt id='1296'> +1.3324098e-12 </wgt>
<wgt id='1297'> +1.3440300e-12 </wgt>
<wgt id='1298'> +1.3477844e-12 </wgt>
<wgt id='1299'> +1.3250128e-12 </wgt>
<wgt id='1300'> +1.3425300e-12 </wgt>
<wgt id='1301'> +1.3277249e-12 </wgt>
<wgt id='1302'> +1.3359801e-12 </wgt>
<wgt id='1303'> +1.3398424e-12 </wgt>
<wgt id='1304'> +1.3320154e-12 </wgt>
<wgt id='1305'> +1.3414610e-12 </wgt>
<wgt id='1306'> +1.3267340e-12 </wgt>
<wgt id='1307'> +1.3499020e-12 </wgt>
<wgt id='1308'> +1.3364533e-12 </wgt>
<wgt id='1309'> +1.3385308e-12 </wgt>
<wgt id='1310'> +1.3337391e-12 </wgt>
<wgt id='1311'> +1.3418145e-12 </wgt>
<wgt id='1312'> +1.3285150e-12 </wgt>
<wgt id='1313'> +1.3470525e-12 </wgt>
<wgt id='1314'> +1.3465582e-12 </wgt>
<wgt id='1315'> +1.3205683e-12 </wgt>
<wgt id='1316'> +1.3446573e-12 </wgt>
<wgt id='1317'> +1.3384432e-12 </wgt>
<wgt id='1318'> +1.3542043e-12 </wgt>
<wgt id='1319'> +1.3182790e-12 </wgt>
<wgt id='1320'> +1.3496635e-12 </wgt>
<wgt id='1321'> +1.3270242e-12 </wgt>
<wgt id='1322'> +1.3390297e-12 </wgt>
<wgt id='1323'> +1.3355165e-12 </wgt>
<wgt id='1324'> +1.3358481e-12 </wgt>
<wgt id='1325'> +1.3466401e-12 </wgt>
<wgt id='1326'> +1.3414679e-12 </wgt>
<wgt id='1327'> +1.3370395e-12 </wgt>
<wgt id='1328'> +1.3367751e-12 </wgt>
<wgt id='1329'> +1.3382360e-12 </wgt>
<wgt id='1330'> +1.3379645e-12 </wgt>
<wgt id='1331'> +1.3377918e-12 </wgt>
<wgt id='1332'> +1.3676303e-12 </wgt>
<wgt id='1333'> +1.3265258e-12 </wgt>
<wgt id='1334'> +1.3355821e-12 </wgt>
<wgt id='1335'> +1.3432805e-12 </wgt>
<wgt id='1336'> +1.3282003e-12 </wgt>
<wgt id='1337'> +1.3422195e-12 </wgt>
<wgt id='1338'> +1.3347727e-12 </wgt>
<wgt id='1339'> +1.3388555e-12 </wgt>
<wgt id='1340'> +1.3046510e-12 </wgt>
<wgt id='1341'> +1.3068956e-12 </wgt>
<wgt id='1342'> +1.3022917e-12 </wgt>
<wgt id='1343'> +1.3053797e-12 </wgt>
<wgt id='1344'> +1.3042223e-12 </wgt>
<wgt id='1345'> +1.3034781e-12 </wgt>
<wgt id='1346'> +1.3057517e-12 </wgt>
<wgt id='1347'> +1.2995980e-12 </wgt>
<wgt id='1348'> +1.3103677e-12 </wgt>
<wgt id='1349'> +1.3140670e-12 </wgt>
<wgt id='1350'> +1.2955046e-12 </wgt>
<wgt id='1351'> +1.3095974e-12 </wgt>
<wgt id='1352'> +1.2940186e-12 </wgt>
<wgt id='1353'> +1.3020529e-12 </wgt>
<wgt id='1354'> +1.3093499e-12 </wgt>
<wgt id='1355'> +1.2991712e-12 </wgt>
<wgt id='1356'> +1.3077946e-12 </wgt>
<wgt id='1357'> +1.2930677e-12 </wgt>
<wgt id='1358'> +1.3184258e-12 </wgt>
<wgt id='1359'> +1.3060709e-12 </wgt>
<wgt id='1360'> +1.3034803e-12 </wgt>
<wgt id='1361'> +1.3008787e-12 </wgt>
<wgt id='1362'> +1.3099374e-12 </wgt>
<wgt id='1363'> +1.2921550e-12 </wgt>
<wgt id='1364'> +1.3137430e-12 </wgt>
<wgt id='1365'> +1.2894669e-12 </wgt>
<wgt id='1366'> +1.3127211e-12 </wgt>
<wgt id='1367'> +1.3110098e-12 </wgt>
<wgt id='1368'> +1.3050821e-12 </wgt>
<wgt id='1369'> +1.3184490e-12 </wgt>
<wgt id='1370'> +1.2885159e-12 </wgt>
<wgt id='1371'> +1.3144424e-12 </wgt>
<wgt id='1372'> +1.2927058e-12 </wgt>
<wgt id='1373'> +1.3051320e-12 </wgt>
<wgt id='1374'> +1.3037950e-12 </wgt>
<wgt id='1375'> +1.3028035e-12 </wgt>
<wgt id='1376'> +1.3141794e-12 </wgt>
<wgt id='1377'> +1.3081612e-12 </wgt>
<wgt id='1378'> +1.3049033e-12 </wgt>
<wgt id='1379'> +1.3037614e-12 </wgt>
<wgt id='1380'> +1.3055832e-12 </wgt>
<wgt id='1381'> +1.3064161e-12 </wgt>
<wgt id='1382'> +1.3032593e-12 </wgt>
<wgt id='1383'> +1.3321217e-12 </wgt>
<wgt id='1384'> +1.2946757e-12 </wgt>
<wgt id='1385'> +1.3031847e-12 </wgt>
<wgt id='1386'> +1.3086954e-12 </wgt>
<wgt id='1387'> +1.2931086e-12 </wgt>
<wgt id='1388'> +1.3098279e-12 </wgt>
<wgt id='1389'> +1.2991757e-12 </wgt>
<wgt id='1390'> +1.3068056e-12 </wgt>
<wgt id='1391'> +1.2942007e-12 </wgt>
<wgt id='1392'> +1.2473908e-12 </wgt>
<wgt id='1393'> +1.2633270e-12 </wgt>
<wgt id='1394'> +1.2789665e-12 </wgt>
<wgt id='1395'> +1.3094420e-12 </wgt>
<wgt id='1396'> +1.2941814e-12 </wgt>
<wgt id='1397'> +1.3577298e-12 </wgt>
<wgt id='1398'> +1.3428878e-12 </wgt>
<wgt id='1399'> +1.3294518e-12 </wgt>
<wgt id='1400'> +1.3171044e-12 </wgt>
<wgt id='1401'> +1.3052980e-12 </wgt>
<wgt id='1402'> +1.2839719e-12 </wgt>
<wgt id='1403'> +1.2746524e-12 </wgt>
<wgt id='1404'> +1.2659048e-12 </wgt>
<wgt id='1405'> +1.2941814e-12 </wgt>
<wgt id='1406'> +1.2845918e-12 </wgt>
<wgt id='1407'> +1.2895830e-12 </wgt>
<wgt id='1408'> +1.2984555e-12 </wgt>
<wgt id='1409'> +1.3020342e-12 </wgt>
<wgt id='1410'> +1.2061274e-12 </wgt>
<wgt id='1411'> +1.2079681e-12 </wgt>
<wgt id='1412'> +1.2036568e-12 </wgt>
<wgt id='1413'> +1.2096325e-12 </wgt>
<wgt id='1414'> +1.2025539e-12 </wgt>
<wgt id='1415'> +1.2080290e-12 </wgt>
<wgt id='1416'> +1.2053254e-12 </wgt>
<wgt id='1417'> +1.1979244e-12 </wgt>
<wgt id='1418'> +1.2142650e-12 </wgt>
<wgt id='1419'> +1.2105005e-12 </wgt>
<wgt id='1420'> +1.2018255e-12 </wgt>
<wgt id='1421'> +1.1833227e-12 </wgt>
<wgt id='1422'> +1.2159610e-12 </wgt>
<wgt id='1423'> +1.2060039e-12 </wgt>
<wgt id='1424'> +1.2061710e-12 </wgt>
<wgt id='1425'> +1.1990530e-12 </wgt>
<wgt id='1426'> +1.2137280e-12 </wgt>
<wgt id='1427'> +1.1909801e-12 </wgt>
<wgt id='1428'> +1.2142780e-12 </wgt>
<wgt id='1429'> +1.2029247e-12 </wgt>
<wgt id='1430'> +1.2104807e-12 </wgt>
<wgt id='1431'> +1.2078887e-12 </wgt>
<wgt id='1432'> +1.2047506e-12 </wgt>
<wgt id='1433'> +1.2151988e-12 </wgt>
<wgt id='1434'> +1.1957080e-12 </wgt>
<wgt id='1435'> +1.2115118e-12 </wgt>
<wgt id='1436'> +1.1931207e-12 </wgt>
<wgt id='1437'> +1.2148039e-12 </wgt>
<wgt id='1438'> +1.2044898e-12 </wgt>
<wgt id='1439'> +1.1968785e-12 </wgt>
<wgt id='1440'> +1.2280146e-12 </wgt>
<wgt id='1441'> +1.2090330e-12 </wgt>
<wgt id='1442'> +1.2006292e-12 </wgt>
<wgt id='1443'> +1.2032206e-12 </wgt>
<wgt id='1444'> +1.2135134e-12 </wgt>
<wgt id='1445'> +1.2149186e-12 </wgt>
<wgt id='1446'> +1.2037622e-12 </wgt>
<wgt id='1447'> +1.2070264e-12 </wgt>
<wgt id='1448'> +1.2077036e-12 </wgt>
<wgt id='1449'> +1.2058353e-12 </wgt>
<wgt id='1450'> +1.2060093e-12 </wgt>
<wgt id='1451'> +1.2035812e-12 </wgt>
<wgt id='1452'> +1.2083646e-12 </wgt>
<wgt id='1453'> +1.2070946e-12 </wgt>
<wgt id='1454'> +1.2001970e-12 </wgt>
<wgt id='1455'> +1.2039903e-12 </wgt>
<wgt id='1456'> +1.2045836e-12 </wgt>
<wgt id='1457'> +1.2043428e-12 </wgt>
<wgt id='1458'> +1.2067340e-12 </wgt>
<wgt id='1459'> +1.2130047e-12 </wgt>
<wgt id='1460'> +1.2003494e-12 </wgt>
<wgt id='1461'> +1.2061274e-12 </wgt>
<wgt id='1462'> +1.1991284e-12 </wgt>
<wgt id='1463'> +1.2145599e-12 </wgt>
<wgt id='1464'> +1.2079084e-12 </wgt>
<wgt id='1465'> +1.2634749e-12 </wgt>
<wgt id='1466'> +1.2500861e-12 </wgt>
<wgt id='1467'> +1.2382994e-12 </wgt>
<wgt id='1468'> +1.2288516e-12 </wgt>
<wgt id='1469'> +1.2173421e-12 </wgt>
<wgt id='1470'> +1.1999807e-12 </wgt>
<wgt id='1471'> +1.1906396e-12 </wgt>
<wgt id='1472'> +1.1825691e-12 </wgt>
<wgt id='1473'> +1.2079084e-12 </wgt>
<wgt id='1474'> +1.1990137e-12 </wgt>
<wgt id='1475'> +1.2040487e-12 </wgt>
<wgt id='1476'> +1.2116171e-12 </wgt>
<wgt id='1477'> +1.2147433e-12 </wgt>
<wgt id='1478'> +1.2696752e-12 </wgt>
<wgt id='1479'> +1.2696950e-12 </wgt>
<wgt id='1480'> +1.2611614e-12 </wgt>
<wgt id='1481'> +1.2578373e-12 </wgt>
<wgt id='1482'> +1.2748198e-12 </wgt>
<wgt id='1483'> +1.2592605e-12 </wgt>
<wgt id='1484'> +1.2692273e-12 </wgt>
<wgt id='1485'> +1.2855711e-12 </wgt>
<wgt id='1486'> +1.2696607e-12 </wgt>
<wgt id='1487'> +1.2741252e-12 </wgt>
<wgt id='1488'> +1.2646593e-12 </wgt>
<wgt id='1489'> +1.2996050e-12 </wgt>
<wgt id='1490'> +1.2703379e-12 </wgt>
<wgt id='1491'> +1.2749316e-12 </wgt>
<wgt id='1492'> +1.2673524e-12 </wgt>
<wgt id='1493'> +1.2473363e-12 </wgt>
<wgt id='1494'> +1.2705773e-12 </wgt>
<wgt id='1495'> +1.2770313e-12 </wgt>
<wgt id='1496'> +1.2687066e-12 </wgt>
<wgt id='1497'> +1.2728160e-12 </wgt>
<wgt id='1498'> +1.2686313e-12 </wgt>
<wgt id='1499'> +1.2734645e-12 </wgt>
<wgt id='1500'> +1.2695560e-12 </wgt>
<wgt id='1501'> +1.2684532e-12 </wgt>
<wgt id='1502'> +1.2696257e-12 </wgt>
<wgt id='1503'> +1.2717124e-12 </wgt>
<wgt id='1504'> +1.2696214e-12 </wgt>
<wgt id='1505'> +1.2712254e-12 </wgt>
<wgt id='1506'> +1.2716930e-12 </wgt>
<wgt id='1507'> +1.2696413e-12 </wgt>
<wgt id='1508'> +1.2763019e-12 </wgt>
<wgt id='1509'> +1.1932293e-12 </wgt>
<wgt id='1510'> +1.1897246e-12 </wgt>
<wgt id='1511'> +1.1969679e-12 </wgt>
<wgt id='1512'> +1.1963808e-12 </wgt>
<wgt id='1513'> +1.1909081e-12 </wgt>
<wgt id='1514'> +1.1924744e-12 </wgt>
<wgt id='1515'> +1.1943376e-12 </wgt>
<wgt id='1516'> +1.1965198e-12 </wgt>
<wgt id='1517'> +1.2029600e-12 </wgt>
<wgt id='1518'> +1.1872259e-12 </wgt>
<wgt id='1519'> +1.1906280e-12 </wgt>
<wgt id='1520'> +1.2076493e-12 </wgt>
<wgt id='1521'> +1.2007673e-12 </wgt>
<wgt id='1522'> +1.2066763e-12 </wgt>
<wgt id='1523'> +1.1931255e-12 </wgt>
<wgt id='1524'> +1.1922521e-12 </wgt>
<wgt id='1525'> +1.1875717e-12 </wgt>
<wgt id='1526'> +1.1966384e-12 </wgt>
<wgt id='1527'> +1.1990117e-12 </wgt>
<wgt id='1528'> +1.1904008e-12 </wgt>
<wgt id='1529'> +1.1958097e-12 </wgt>
<wgt id='1530'> +1.1840908e-12 </wgt>
<wgt id='1531'> +1.1929860e-12 </wgt>
<wgt id='1532'> +1.1959898e-12 </wgt>
<wgt id='1533'> +1.1901816e-12 </wgt>
<wgt id='1534'> +1.1866559e-12 </wgt>
<wgt id='1535'> +1.2040452e-12 </wgt>
<wgt id='1536'> +1.1974418e-12 </wgt>
<wgt id='1537'> +1.1933517e-12 </wgt>
<wgt id='1538'> +1.1945596e-12 </wgt>
<wgt id='1539'> +1.1892839e-12 </wgt>
<wgt id='1540'> +1.1894941e-12 </wgt>
<wgt id='1541'> +1.1921156e-12 </wgt>
<wgt id='1542'> +1.1905197e-12 </wgt>
<wgt id='1543'> +1.1953548e-12 </wgt>
<wgt id='1544'> +1.1960903e-12 </wgt>
<wgt id='1545'> +1.1912047e-12 </wgt>
<wgt id='1546'> +1.1945308e-12 </wgt>
<wgt id='1547'> +1.1911025e-12 </wgt>
<wgt id='1548'> +1.1971154e-12 </wgt>
<wgt id='1549'> +1.1960665e-12 </wgt>
<wgt id='1550'> +1.1906202e-12 </wgt>
<wgt id='1551'> +1.1957745e-12 </wgt>
<wgt id='1552'> +1.1942345e-12 </wgt>
<wgt id='1553'> +1.1885172e-12 </wgt>
<wgt id='1554'> +1.1877518e-12 </wgt>
<wgt id='1555'> +1.1887103e-12 </wgt>
<wgt id='1556'> +1.1954652e-12 </wgt>
<wgt id='1557'> +1.1914732e-12 </wgt>
<wgt id='1558'> +1.1963195e-12 </wgt>
<wgt id='1559'> +1.1924213e-12 </wgt>
<wgt id='1560'> +1.1909396e-12 </wgt>
<wgt id='1561'> +1.1963691e-12 </wgt>
<wgt id='1562'> +1.1935680e-12 </wgt>
<wgt id='1563'> +1.1942979e-12 </wgt>
<wgt id='1564'> +1.1958295e-12 </wgt>
<wgt id='1565'> +1.1929609e-12 </wgt>
<wgt id='1566'> +1.1907540e-12 </wgt>
<wgt id='1567'> +1.1912799e-12 </wgt>
<wgt id='1568'> +1.1937712e-12 </wgt>
<wgt id='1569'> +1.1917711e-12 </wgt>
<wgt id='1570'> +1.1973151e-12 </wgt>
<wgt id='1571'> +1.1924490e-12 </wgt>
<wgt id='1572'> +1.1947289e-12 </wgt>
<wgt id='1573'> +1.1929931e-12 </wgt>
<wgt id='1574'> +1.1929478e-12 </wgt>
<wgt id='1575'> +1.1924634e-12 </wgt>
<wgt id='1576'> +1.1946196e-12 </wgt>
<wgt id='1577'> +1.1930670e-12 </wgt>
<wgt id='1578'> +1.1924389e-12 </wgt>
<wgt id='1579'> +1.1939466e-12 </wgt>
<wgt id='1580'> +1.1949597e-12 </wgt>
<wgt id='1581'> +1.1927312e-12 </wgt>
<wgt id='1582'> +1.1937034e-12 </wgt>
<wgt id='1583'> +1.1930659e-12 </wgt>
<wgt id='1584'> +1.1943842e-12 </wgt>
<wgt id='1585'> +1.1928216e-12 </wgt>
<wgt id='1586'> +1.1953048e-12 </wgt>
<wgt id='1587'> +1.1937698e-12 </wgt>
<wgt id='1588'> +1.1909615e-12 </wgt>
<wgt id='1589'> +1.1929386e-12 </wgt>
<wgt id='1590'> +1.1934311e-12 </wgt>
<wgt id='1591'> +1.1922075e-12 </wgt>
<wgt id='1592'> +1.1948214e-12 </wgt>
<wgt id='1593'> +1.1934672e-12 </wgt>
<wgt id='1594'> +1.1923449e-12 </wgt>
<wgt id='1595'> +1.1922177e-12 </wgt>
<wgt id='1596'> +1.1917198e-12 </wgt>
<wgt id='1597'> +1.1928555e-12 </wgt>
<wgt id='1598'> +1.1929028e-12 </wgt>
<wgt id='1599'> +1.1925794e-12 </wgt>
<wgt id='1600'> +1.1913598e-12 </wgt>
<wgt id='1601'> +1.1934096e-12 </wgt>
<wgt id='1602'> +1.1937652e-12 </wgt>
<wgt id='1603'> +1.1939752e-12 </wgt>
<wgt id='1604'> +1.1929905e-12 </wgt>
<wgt id='1605'> +1.1945884e-12 </wgt>
<wgt id='1606'> +1.1917653e-12 </wgt>
<wgt id='1607'> +1.1934207e-12 </wgt>
<wgt id='1608'> +1.1934673e-12 </wgt>
<wgt id='1609'> +1.1940632e-12 </wgt>
<wgt id='1610'> +1.1647008e-12 </wgt>
<wgt id='1611'> +1.2203690e-12 </wgt>
<wgt id='1612'> +1.4386383e-12 </wgt>
<wgt id='1613'> +1.5256777e-12 </wgt>
<wgt id='1614'> +1.4576531e-12 </wgt>
<wgt id='1615'> +1.4457593e-12 </wgt>
<wgt id='1616'> +1.4222027e-12 </wgt>
<wgt id='1617'> +1.3349867e-12 </wgt>
<wgt id='1618'> +1.2808592e-12 </wgt>
<wgt id='1619'> +1.4361146e-12 </wgt>
<wgt id='1620'> +1.4777547e-12 </wgt>
<wgt id='1621'> +1.4282237e-12 </wgt>
<wgt id='1622'> +1.4150008e-12 </wgt>
<wgt id='1623'> +1.4202600e-12 </wgt>
<wgt id='1624'> +1.4101153e-12 </wgt>
<wgt id='1625'> +1.4811957e-12 </wgt>
<wgt id='1626'> +1.5095045e-12 </wgt>
<wgt id='1627'> +1.4166576e-12 </wgt>
<wgt id='1628'> +1.4786583e-12 </wgt>
<wgt id='1629'> +1.4895567e-12 </wgt>
<wgt id='1630'> +1.4393315e-12 </wgt>
<wgt id='1631'> +1.4518606e-12 </wgt>
<wgt id='1632'> +1.5793628e-12 </wgt>
<wgt id='1633'> +1.4449914e-12 </wgt>
<wgt id='1634'> +1.4168386e-12 </wgt>
<wgt id='1635'> +1.4181570e-12 </wgt>
<wgt id='1636'> +1.3911694e-12 </wgt>
<wgt id='1637'> +1.3977332e-12 </wgt>
<wgt id='1638'> +1.4543301e-12 </wgt>
<wgt id='1639'> +1.4580239e-12 </wgt>
<wgt id='1640'> +1.5224312e-12 </wgt>
<wgt id='1641'> +1.4288185e-12 </wgt>
<wgt id='1642'> +1.4915311e-12 </wgt>
<wgt id='1643'> +1.5175076e-12 </wgt>
<wgt id='1644'> +1.4077972e-12 </wgt>
<wgt id='1645'> +1.4829986e-12 </wgt>
<wgt id='1646'> +1.5081780e-12 </wgt>
<wgt id='1647'> +1.5065477e-12 </wgt>
<wgt id='1648'> +1.4244162e-12 </wgt>
<wgt id='1649'> +1.3049496e-12 </wgt>
<wgt id='1650'> +1.4962287e-12 </wgt>
<wgt id='1651'> +1.4060551e-12 </wgt>
<wgt id='1652'> +1.5198566e-12 </wgt>
<wgt id='1653'> +1.3588625e-12 </wgt>
<wgt id='1654'> +1.3538638e-12 </wgt>
<wgt id='1655'> +1.3732217e-12 </wgt>
<wgt id='1656'> +1.4888365e-12 </wgt>
<wgt id='1657'> +1.3997396e-12 </wgt>
<wgt id='1658'> +1.4466453e-12 </wgt>
<wgt id='1659'> +1.4101153e-12 </wgt>
<wgt id='1660'> +1.3675662e-12 </wgt>
<wgt id='1661'> +1.4215907e-12 </wgt>
<wgt id='1662'> +1.4400102e-12 </wgt>
<wgt id='1663'> +1.4378115e-12 </wgt>
<wgt id='1664'> +1.5346441e-12 </wgt>
<wgt id='1665'> +1.5162032e-12 </wgt>
<wgt id='1666'> +1.4093001e-12 </wgt>
<wgt id='1667'> +1.4050765e-12 </wgt>
<wgt id='1668'> +1.3970834e-12 </wgt>
<wgt id='1669'> +1.4422989e-12 </wgt>
<wgt id='1670'> +1.4644654e-12 </wgt>
<wgt id='1671'> +1.5196999e-12 </wgt>
<wgt id='1672'> +1.4447205e-12 </wgt>
<wgt id='1673'> +1.3546491e-12 </wgt>
<wgt id='1674'> +1.4627859e-12 </wgt>
<wgt id='1675'> +1.5502089e-12 </wgt>
<wgt id='1676'> +1.4191888e-12 </wgt>
<wgt id='1677'> +1.4634722e-12 </wgt>
<wgt id='1678'> +1.4384359e-12 </wgt>
<wgt id='1679'> +1.4389992e-12 </wgt>
<wgt id='1680'> +1.4267681e-12 </wgt>
<wgt id='1681'> +1.4713762e-12 </wgt>
<wgt id='1682'> +1.4279059e-12 </wgt>
<wgt id='1683'> +1.4106970e-12 </wgt>
<wgt id='1684'> +1.4396172e-12 </wgt>
<wgt id='1685'> +1.4411046e-12 </wgt>
<wgt id='1686'> +1.4805902e-12 </wgt>
<wgt id='1687'> +1.4861160e-12 </wgt>
<wgt id='1688'> +1.4751044e-12 </wgt>
<wgt id='1689'> +1.3886951e-12 </wgt>
<wgt id='1690'> +1.4102188e-12 </wgt>
<wgt id='1691'> +1.4450309e-12 </wgt>
<wgt id='1692'> +1.4344328e-12 </wgt>
<wgt id='1693'> +1.4955363e-12 </wgt>
<wgt id='1694'> +1.3839038e-12 </wgt>
<wgt id='1695'> +1.4644026e-12 </wgt>
<wgt id='1696'> +1.4805161e-12 </wgt>
<wgt id='1697'> +1.3280217e-12 </wgt>
<wgt id='1698'> +1.4210780e-12 </wgt>
<wgt id='1699'> +1.3794641e-12 </wgt>
<wgt id='1700'> +1.4451426e-12 </wgt>
<wgt id='1701'> +1.4305253e-12 </wgt>
<wgt id='1702'> +1.3671606e-12 </wgt>
<wgt id='1703'> +1.4725973e-12 </wgt>
<wgt id='1704'> +1.4411636e-12 </wgt>
<wgt id='1705'> +1.4882375e-12 </wgt>
<wgt id='1706'> +1.3694611e-12 </wgt>
<wgt id='1707'> +1.4018010e-12 </wgt>
<wgt id='1708'> +1.4029856e-12 </wgt>
<wgt id='1709'> +1.4527194e-12 </wgt>
<wgt id='1710'> +1.4276811e-12 </wgt>
<wgt id='1711'> +1.3992215e-12 </wgt>
<wgt id='1712'> +1.4318056e-12 </wgt>
<wgt id='1713'> +1.2715576e-12 </wgt>
<wgt id='1714'> +1.2156005e-12 </wgt>
<wgt id='1715'> +1.2794212e-12 </wgt>
<wgt id='1716'> +1.2635136e-12 </wgt>
<wgt id='1717'> +1.2453731e-12 </wgt>
<wgt id='1718'> +1.2496682e-12 </wgt>
<wgt id='1719'> +1.2734936e-12 </wgt>
<wgt id='1720'> +1.2977489e-12 </wgt>
<wgt id='1721'> +1.2569205e-12 </wgt>
<wgt id='1722'> +1.2587067e-12 </wgt>
<wgt id='1723'> +1.2480706e-12 </wgt>
<wgt id='1724'> +1.3070709e-12 </wgt>
<wgt id='1725'> +1.2920127e-12 </wgt>
<wgt id='1726'> +1.2927417e-12 </wgt>
<wgt id='1727'> +1.2476524e-12 </wgt>
<wgt id='1728'> +1.2740351e-12 </wgt>
<wgt id='1729'> +1.2837791e-12 </wgt>
<wgt id='1730'> +1.2402112e-12 </wgt>
<wgt id='1731'> +1.2334852e-12 </wgt>
<wgt id='1732'> +1.2743581e-12 </wgt>
<wgt id='1733'> +1.2670531e-12 </wgt>
<wgt id='1734'> +1.2834150e-12 </wgt>
<wgt id='1735'> +1.2854380e-12 </wgt>
<wgt id='1736'> +1.3807622e-12 </wgt>
<wgt id='1737'> +1.2701100e-12 </wgt>
<wgt id='1738'> +1.2956028e-12 </wgt>
<wgt id='1739'> +1.2296854e-12 </wgt>
<wgt id='1740'> +1.2273946e-12 </wgt>
<wgt id='1741'> +1.2667735e-12 </wgt>
<wgt id='1742'> +1.2508907e-12 </wgt>
<wgt id='1743'> +1.2959801e-12 </wgt>
<wgt id='1744'> +1.2812851e-12 </wgt>
<wgt id='1745'> +1.2303207e-12 </wgt>
<wgt id='1746'> +1.3029527e-12 </wgt>
<wgt id='1747'> +1.2958969e-12 </wgt>
<wgt id='1748'> +1.2775420e-12 </wgt>
<wgt id='1749'> +1.2896076e-12 </wgt>
<wgt id='1750'> +1.2888901e-12 </wgt>
<wgt id='1751'> +1.2494228e-12 </wgt>
<wgt id='1752'> +1.2192468e-12 </wgt>
<wgt id='1753'> +1.3025013e-12 </wgt>
<wgt id='1754'> +1.2465610e-12 </wgt>
<wgt id='1755'> +1.2963095e-12 </wgt>
<wgt id='1756'> +1.3015755e-12 </wgt>
<wgt id='1757'> +1.2703423e-12 </wgt>
<wgt id='1758'> +1.3103783e-12 </wgt>
<wgt id='1759'> +1.2695906e-12 </wgt>
<wgt id='1760'> +1.2392337e-12 </wgt>
<wgt id='1761'> +1.2333815e-12 </wgt>
<wgt id='1762'> +1.2778074e-12 </wgt>
<wgt id='1763'> +1.2796771e-12 </wgt>
<wgt id='1764'> +1.2793230e-12 </wgt>
<wgt id='1765'> +1.2765766e-12 </wgt>
<wgt id='1766'> +1.3010892e-12 </wgt>
<wgt id='1767'> +1.2690030e-12 </wgt>
<wgt id='1768'> +1.2680082e-12 </wgt>
<wgt id='1769'> +1.2347717e-12 </wgt>
<wgt id='1770'> +1.3021812e-12 </wgt>
<wgt id='1771'> +1.2745052e-12 </wgt>
<wgt id='1772'> +1.2902347e-12 </wgt>
<wgt id='1773'> +1.2587241e-12 </wgt>
<wgt id='1774'> +1.2723305e-12 </wgt>
<wgt id='1775'> +1.2768336e-12 </wgt>
<wgt id='1776'> +1.2920314e-12 </wgt>
<wgt id='1777'> +1.2548356e-12 </wgt>
<wgt id='1778'> +1.2425949e-12 </wgt>
<wgt id='1779'> +1.2999374e-12 </wgt>
<wgt id='1780'> +1.3089268e-12 </wgt>
<wgt id='1781'> +1.2481452e-12 </wgt>
<wgt id='1782'> +1.2331498e-12 </wgt>
<wgt id='1783'> +1.2891869e-12 </wgt>
<wgt id='1784'> +1.3005999e-12 </wgt>
<wgt id='1785'> +1.2570672e-12 </wgt>
<wgt id='1786'> +1.2134600e-12 </wgt>
<wgt id='1787'> +1.2916042e-12 </wgt>
<wgt id='1788'> +1.2490418e-12 </wgt>
<wgt id='1789'> +1.2703342e-12 </wgt>
<wgt id='1790'> +1.3108655e-12 </wgt>
<wgt id='1791'> +1.3216257e-12 </wgt>
<wgt id='1792'> +1.2501818e-12 </wgt>
<wgt id='1793'> +1.2908367e-12 </wgt>
<wgt id='1794'> +1.2771631e-12 </wgt>
<wgt id='1795'> +1.2622170e-12 </wgt>
<wgt id='1796'> +1.2507109e-12 </wgt>
<wgt id='1797'> +1.2723573e-12 </wgt>
<wgt id='1798'> +1.2356456e-12 </wgt>
<wgt id='1799'> +1.2743573e-12 </wgt>
<wgt id='1800'> +1.2717013e-12 </wgt>
<wgt id='1801'> +1.2617871e-12 </wgt>
<wgt id='1802'> +1.2738405e-12 </wgt>
<wgt id='1803'> +1.2808891e-12 </wgt>
<wgt id='1804'> +1.2188147e-12 </wgt>
<wgt id='1805'> +1.2925755e-12 </wgt>
<wgt id='1806'> +1.2450253e-12 </wgt>
<wgt id='1807'> +1.3145639e-12 </wgt>
<wgt id='1808'> +1.2681367e-12 </wgt>
<wgt id='1809'> +1.2651210e-12 </wgt>
<wgt id='1810'> +1.2618017e-12 </wgt>
<wgt id='1811'> +1.3136079e-12 </wgt>
<wgt id='1812'> +1.2855776e-12 </wgt>
<wgt id='1813'> +1.2624656e-12 </wgt>
<wgt id='1814'> +1.2181169e-12 </wgt>
<wgt id='1815'> +1.4519972e-12 </wgt>
<wgt id='1816'> +1.2715576e-12 </wgt>
<wgt id='1817'> +1.2156005e-12 </wgt>
<wgt id='1818'> +1.2794212e-12 </wgt>
<wgt id='1819'> +1.2635136e-12 </wgt>
<wgt id='1820'> +1.2453731e-12 </wgt>
<wgt id='1821'> +1.2496682e-12 </wgt>
<wgt id='1822'> +1.2734936e-12 </wgt>
<wgt id='1823'> +1.2977489e-12 </wgt>
<wgt id='1824'> +1.2569205e-12 </wgt>
<wgt id='1825'> +1.2587067e-12 </wgt>
<wgt id='1826'> +1.2480706e-12 </wgt>
<wgt id='1827'> +1.3070709e-12 </wgt>
<wgt id='1828'> +1.2920127e-12 </wgt>
<wgt id='1829'> +1.2927417e-12 </wgt>
<wgt id='1830'> +1.2476524e-12 </wgt>
<wgt id='1831'> +1.2740351e-12 </wgt>
<wgt id='1832'> +1.2837791e-12 </wgt>
<wgt id='1833'> +1.2402112e-12 </wgt>
<wgt id='1834'> +1.2334852e-12 </wgt>
<wgt id='1835'> +1.2743581e-12 </wgt>
<wgt id='1836'> +1.2670531e-12 </wgt>
<wgt id='1837'> +1.2834150e-12 </wgt>
<wgt id='1838'> +1.2854380e-12 </wgt>
<wgt id='1839'> +1.3807622e-12 </wgt>
<wgt id='1840'> +1.2701100e-12 </wgt>
<wgt id='1841'> +1.2956028e-12 </wgt>
<wgt id='1842'> +1.2296854e-12 </wgt>
<wgt id='1843'> +1.2273946e-12 </wgt>
<wgt id='1844'> +1.2667735e-12 </wgt>
<wgt id='1845'> +1.2508907e-12 </wgt>
<wgt id='1846'> +1.2959801e-12 </wgt>
<wgt id='1847'> +1.2812851e-12 </wgt>
<wgt id='1848'> +1.2303207e-12 </wgt>
<wgt id='1849'> +1.3029527e-12 </wgt>
<wgt id='1850'> +1.2958969e-12 </wgt>
<wgt id='1851'> +1.2775420e-12 </wgt>
<wgt id='1852'> +1.2896076e-12 </wgt>
<wgt id='1853'> +1.2888901e-12 </wgt>
<wgt id='1854'> +1.2494228e-12 </wgt>
<wgt id='1855'> +1.2192468e-12 </wgt>
<wgt id='1856'> +1.3025013e-12 </wgt>
<wgt id='1857'> +1.2465610e-12 </wgt>
<wgt id='1858'> +1.2963095e-12 </wgt>
<wgt id='1859'> +1.3015755e-12 </wgt>
<wgt id='1860'> +1.2703423e-12 </wgt>
<wgt id='1861'> +1.3103783e-12 </wgt>
<wgt id='1862'> +1.2695906e-12 </wgt>
<wgt id='1863'> +1.2392337e-12 </wgt>
<wgt id='1864'> +1.2333815e-12 </wgt>
<wgt id='1865'> +1.2778074e-12 </wgt>
<wgt id='1866'> +1.2796771e-12 </wgt>
<wgt id='1867'> +1.2793230e-12 </wgt>
<wgt id='1868'> +1.2765766e-12 </wgt>
<wgt id='1869'> +1.3010892e-12 </wgt>
<wgt id='1870'> +1.2690030e-12 </wgt>
<wgt id='1871'> +1.2680082e-12 </wgt>
<wgt id='1872'> +1.2347717e-12 </wgt>
<wgt id='1873'> +1.3021812e-12 </wgt>
<wgt id='1874'> +1.2745052e-12 </wgt>
<wgt id='1875'> +1.2902347e-12 </wgt>
<wgt id='1876'> +1.2587241e-12 </wgt>
<wgt id='1877'> +1.2723305e-12 </wgt>
<wgt id='1878'> +1.2768336e-12 </wgt>
<wgt id='1879'> +1.2920314e-12 </wgt>
<wgt id='1880'> +1.2548356e-12 </wgt>
<wgt id='1881'> +1.2425949e-12 </wgt>
<wgt id='1882'> +1.2999374e-12 </wgt>
<wgt id='1883'> +1.3089268e-12 </wgt>
<wgt id='1884'> +1.2481452e-12 </wgt>
<wgt id='1885'> +1.2331498e-12 </wgt>
<wgt id='1886'> +1.2891869e-12 </wgt>
<wgt id='1887'> +1.3005999e-12 </wgt>
<wgt id='1888'> +1.2570672e-12 </wgt>
<wgt id='1889'> +1.2134600e-12 </wgt>
<wgt id='1890'> +1.2916042e-12 </wgt>
<wgt id='1891'> +1.2490418e-12 </wgt>
<wgt id='1892'> +1.2703342e-12 </wgt>
<wgt id='1893'> +1.3108655e-12 </wgt>
<wgt id='1894'> +1.3216257e-12 </wgt>
<wgt id='1895'> +1.2501818e-12 </wgt>
<wgt id='1896'> +1.2908367e-12 </wgt>
<wgt id='1897'> +1.2771631e-12 </wgt>
<wgt id='1898'> +1.2622170e-12 </wgt>
<wgt id='1899'> +1.2507109e-12 </wgt>
<wgt id='1900'> +1.2723573e-12 </wgt>
<wgt id='1901'> +1.2356456e-12 </wgt>
<wgt id='1902'> +1.2743573e-12 </wgt>
<wgt id='1903'> +1.2717013e-12 </wgt>
<wgt id='1904'> +1.2617871e-12 </wgt>
<wgt id='1905'> +1.2738405e-12 </wgt>
<wgt id='1906'> +1.2808891e-12 </wgt>
<wgt id='1907'> +1.2188147e-12 </wgt>
<wgt id='1908'> +1.2925755e-12 </wgt>
<wgt id='1909'> +1.2450253e-12 </wgt>
<wgt id='1910'> +1.3145639e-12 </wgt>
<wgt id='1911'> +1.2681367e-12 </wgt>
<wgt id='1912'> +1.2651210e-12 </wgt>
<wgt id='1913'> +1.2618017e-12 </wgt>
<wgt id='1914'> +1.3136079e-12 </wgt>
<wgt id='1915'> +1.2855776e-12 </wgt>
<wgt id='1916'> +1.2624656e-12 </wgt>
<wgt id='1917'> +1.2506607e-12 </wgt>
<wgt id='1918'> +1.2821271e-12 </wgt>
<wgt id='1919'> +1.2563327e-12 </wgt>
</rwgt>
</event>
<event>
 9      1 +1.5607000e-12 5.11550100e+01 7.81860800e-03 1.30590600e-01
        2 -1    0    0  502    0 -0.0000000000e+00 +0.0000000000e+00 +6.3574911273e+02 6.3574911273e+02 0.0000000000e+00 0.0000e+00 -1.0000e+00
       21 -1    0    0  501  502 +0.0000000000e+00 -0.0000000000e+00 -1.0290362471e+00 1.0290362471e+00 0.0000000000e+00 0.0000e+00 -1.0000e+00
     1023  2    1    2    0    0 -2.2542880451e+01 -4.5083437940e+00 +2.9177150796e+02 2.9305991077e+02 1.4999727388e+01 0.0000e+00 0.0000e+00
  1000023  2    3    3    0    0 -2.0255136731e+01 -1.2189564994e+00 +2.2804846623e+02 2.2901555202e+02 5.5012453308e+00 0.0000e+00 0.0000e+00
        2  1    1    2  501    0 +2.2542880451e+01 +4.5083437940e+00 +3.4294856852e+02 3.4371823821e+02 0.0000000000e+00 0.0000e+00 -1.0000e+00
  1000022  1    4    4    0    0 -1.8834673749e+01 -1.1588388893e+00 +2.0986349276e+02 2.1076947937e+02 5.0000000000e+00 0.0000e+00 -1.0000e+00
      -11  1    4    4    0    0 +1.8628092018e-02 +1.9413080483e-02 +1.1259537704e+00 1.1262752895e+00 5.1100000000e-04 0.0000e+00 -1.0000e+00
       11  1    4    4    0    0 -1.4390910742e+00 -7.9530690533e-02 +1.7059019696e+01 1.7119797356e+01 5.1100000000e-04 0.0000e+00 1.0000e+00
  1000022  1    3    3    0    0 -2.2877437206e+00 -3.2893872947e+00 +6.3723041736e+01 6.4044358754e+01 5.0000000000e+00 0.0000e+00 1.0000e+00
<mgrwt>
<rscale>  1 0.51155015E+02</rscale>
<asrwt>0</asrwt>
<pdfrwt beam="1">  1       21 0.15831378E-03 0.51155015E+02</pdfrwt>
<pdfrwt beam="2">  1        2 0.97807242E-01 0.51155015E+02</pdfrwt>
<totfact> 0.25301544E+07</totfact>
</mgrwt>
<rwgt>
<wgt id='1001'> +1.5607000e-12 </wgt>
<wgt id='1002'> +1.5497263e-12 </wgt>
<wgt id='1003'> +1.5585935e-12 </wgt>
<wgt id='1004'> +1.4333657e-12 </wgt>
<wgt id='1005'> +1.5607000e-12 </wgt>
<wgt id='1006'> +1.3838021e-12 </wgt>
<wgt id='1007'> +1.3716738e-12 </wgt>
<wgt id='1008'> +1.3814677e-12 </wgt>
<wgt id='1009'> +1.2479698e-12 </wgt>
<wgt id='1010'> +1.3838021e-12 </wgt>
<wgt id='1011'> +1.7917491e-12 </wgt>
<wgt id='1012'> +1.7832722e-12 </wgt>
<wgt id='1013'> +1.7901350e-12 </wgt>
<wgt id='1014'> +1.6867881e-12 </wgt>
<wgt id='1015'> +1.7917491e-12 </wgt>
<wgt id='1016'> +1.8427331e-12 </wgt>
<wgt id='1017'> +1.8389939e-12 </wgt>
<wgt id='1018'> +1.8420304e-12 </wgt>
<wgt id='1019'> +1.7901350e-12 </wgt>
<wgt id='1020'> +1.8427331e-12 </wgt>
<wgt id='1021'> +1.6338682e-12 </wgt>
<wgt id='1022'> +1.6277066e-12 </wgt>
<wgt id='1023'> +1.6326936e-12 </wgt>
<wgt id='1024'> +1.5585935e-12 </wgt>
<wgt id='1025'> +1.6338682e-12 </wgt>
<wgt id='1026'> +2.1155349e-12 </wgt>
<wgt id='1027'> +2.1161328e-12 </wgt>
<wgt id='1028'> +2.1156788e-12 </wgt>
<wgt id='1029'> +2.1066352e-12 </wgt>
<wgt id='1030'> +2.1155349e-12 </wgt>
<wgt id='1031'> +1.2514815e-12 </wgt>
<wgt id='1032'> +1.2333141e-12 </wgt>
<wgt id='1033'> +1.2479698e-12 </wgt>
<wgt id='1034'> +1.0505186e-12 </wgt>
<wgt id='1035'> +1.2514815e-12 </wgt>
<wgt id='1036'> +1.1096321e-12 </wgt>
<wgt id='1037'> +1.0916151e-12 </wgt>
<wgt id='1038'> +1.1061447e-12 </wgt>
<wgt id='1039'> +9.1464132e-13 </wgt>
<wgt id='1040'> +1.1096321e-12 </wgt>
<wgt id='1041'> +1.4367533e-12 </wgt>
<wgt id='1042'> +1.4191762e-12 </wgt>
<wgt id='1043'> +1.4333657e-12 </wgt>
<wgt id='1044'> +1.2362528e-12 </wgt>
<wgt id='1045'> +1.4367533e-12 </wgt>
<wgt id='1046'> +1.5607000e-12 </wgt>
<wgt id='1047'> +1.5563974e-12 </wgt>
<wgt id='1048'> +1.6252808e-12 </wgt>
<wgt id='1049'> +1.5092739e-12 </wgt>
<wgt id='1050'> +1.5302212e-12 </wgt>
<wgt id='1051'> +1.5253580e-12 </wgt>
<wgt id='1052'> +1.5247380e-12 </wgt>
<wgt id='1053'> +1.6250341e-12 </wgt>
<wgt id='1054'> +1.5941418e-12 </wgt>
<wgt id='1055'> +1.5437873e-12 </wgt>
<wgt id='1056'> +1.4935724e-12 </wgt>
<wgt id='1057'> +1.5417628e-12 </wgt>
<wgt id='1058'> +1.5221084e-12 </wgt>
<wgt id='1059'> +1.5733079e-12 </wgt>
<wgt id='1060'> +1.5710919e-12 </wgt>
<wgt id='1061'> +1.5907356e-12 </wgt>
<wgt id='1062'> +1.5464106e-12 </wgt>
<wgt id='1063'> +1.5036445e-12 </wgt>
<wgt id='1064'> +1.5517916e-12 </wgt>
<wgt id='1065'> +1.6048742e-12 </wgt>
<wgt id='1066'> +1.5677324e-12 </wgt>
<wgt id='1067'> +1.5785468e-12 </wgt>
<wgt id='1068'> +1.6043717e-12 </wgt>
<wgt id='1069'> +1.6227089e-12 </wgt>
<wgt id='1070'> +1.5545395e-12 </wgt>
<wgt id='1071'> +1.5729277e-12 </wgt>
<wgt id='1072'> +1.5706635e-12 </wgt>
<wgt id='1073'> +1.5452681e-12 </wgt>
<wgt id='1074'> +1.5658672e-12 </wgt>
<wgt id='1075'> +1.5479631e-12 </wgt>
<wgt id='1076'> +1.5756813e-12 </wgt>
<wgt id='1077'> +1.5808560e-12 </wgt>
<wgt id='1078'> +1.5330019e-12 </wgt>
<wgt id='1079'> +1.5690496e-12 </wgt>
<wgt id='1080'> +1.5495923e-12 </wgt>
<wgt id='1081'> +1.5095330e-12 </wgt>
<wgt id='1082'> +1.5579805e-12 </wgt>
<wgt id='1083'> +1.5392758e-12 </wgt>
<wgt id='1084'> +1.5471154e-12 </wgt>
<wgt id='1085'> +1.5932343e-12 </wgt>
<wgt id='1086'> +1.6119509e-12 </wgt>
<wgt id='1087'> +1.5458288e-12 </wgt>
<wgt id='1088'> +1.5521778e-12 </wgt>
<wgt id='1089'> +1.5338411e-12 </wgt>
<wgt id='1090'> +1.5668864e-12 </wgt>
<wgt id='1091'> +1.5679884e-12 </wgt>
<wgt id='1092'> +1.5453898e-12 </wgt>
<wgt id='1093'> +1.5959401e-12 </wgt>
<wgt id='1094'> +1.6014181e-12 </wgt>
<wgt id='1095'> +1.6083682e-12 </wgt>
<wgt id='1096'> +1.5233411e-12 </wgt>
<wgt id='1097'> +1.5638607e-12 </wgt>
<wgt id='1098'> +1.5877930e-12 </wgt>
<wgt id='1099'> +1.5540967e-12 </wgt>
<wgt id='1100'> +1.5831265e-12 </wgt>
<wgt id='1101'> +1.5717537e-12 </wgt>
<wgt id='1102'> +1.5297286e-12 </wgt>
<wgt id='1103'> +1.5429522e-12 </wgt>
<wgt id='1104'> +1.5666323e-12 </wgt>
<wgt id='1105'> +1.5094266e-12 </wgt>
<wgt id='1106'> +1.5561899e-12 </wgt>
<wgt id='1107'> +1.6072870e-12 </wgt>
<wgt id='1108'> +1.5511272e-12 </wgt>
<wgt id='1109'> +1.5512937e-12 </wgt>
<wgt id='1110'> +1.5548237e-12 </wgt>
<wgt id='1111'> +1.5663094e-12 </wgt>
<wgt id='1112'> +1.5952586e-12 </wgt>
<wgt id='1113'> +1.6274071e-12 </wgt>
<wgt id='1114'> +1.5929877e-12 </wgt>
<wgt id='1115'> +1.6011767e-12 </wgt>
<wgt id='1116'> +1.6315157e-12 </wgt>
<wgt id='1117'> +1.5530782e-12 </wgt>
<wgt id='1118'> +1.6029272e-12 </wgt>
<wgt id='1119'> +1.5159782e-12 </wgt>
<wgt id='1120'> +1.5572910e-12 </wgt>
<wgt id='1121'> +1.5307126e-12 </wgt>
<wgt id='1122'> +1.5465732e-12 </wgt>
<wgt id='1123'> +1.5904620e-12 </wgt>
<wgt id='1124'> +1.5983229e-12 </wgt>
<wgt id='1125'> +1.5055972e-12 </wgt>
<wgt id='1126'> +1.5315136e-12 </wgt>
<wgt id='1127'> +1.5601411e-12 </wgt>
<wgt id='1128'> +1.5464106e-12 </wgt>
<wgt id='1129'> +1.5242142e-12 </wgt>
<wgt id='1130'> +1.5465691e-12 </wgt>
<wgt id='1131'> +1.5788135e-12 </wgt>
<wgt id='1132'> +1.5727241e-12 </wgt>
<wgt id='1133'> +1.5395784e-12 </wgt>
<wgt id='1134'> +1.5284083e-12 </wgt>
<wgt id='1135'> +1.5002845e-12 </wgt>
<wgt id='1136'> +1.5265588e-12 </wgt>
<wgt id='1137'> +1.5634456e-12 </wgt>
<wgt id='1138'> +1.5503312e-12 </wgt>
<wgt id='1139'> +1.5497493e-12 </wgt>
<wgt id='1140'> +1.5823983e-12 </wgt>
<wgt id='1141'> +1.5513544e-12 </wgt>
<wgt id='1142'> +1.6038404e-12 </wgt>
<wgt id='1143'> +1.4936970e-12 </wgt>
<wgt id='1144'> +1.5603307e-12 </wgt>
<wgt id='1145'> +1.5781449e-12 </wgt>
<wgt id='1146'> +1.5620208e-12 </wgt>
<wgt id='1147'> +1.4147454e-12 </wgt>
<wgt id='1148'> +1.4428556e-12 </wgt>
<wgt id='1149'> +1.3586315e-12 </wgt>
<wgt id='1150'> +1.4204326e-12 </wgt>
<wgt id='1151'> +1.6612522e-12 </wgt>
<wgt id='1152'> +2.3163671e-12 </wgt>
<wgt id='1153'> +2.3183187e-12 </wgt>
<wgt id='1154'> +2.3152129e-12 </wgt>
<wgt id='1155'> +2.3102304e-12 </wgt>
<wgt id='1156'> +2.3194954e-12 </wgt>
<wgt id='1157'> +2.3202980e-12 </wgt>
<wgt id='1158'> +2.3110452e-12 </wgt>
<wgt id='1159'> +2.3196748e-12 </wgt>
<wgt id='1160'> +2.3142741e-12 </wgt>
<wgt id='1161'> +2.3120228e-12 </wgt>
<wgt id='1162'> +2.3193965e-12 </wgt>
<wgt id='1163'> +2.3159011e-12 </wgt>
<wgt id='1164'> +2.3168861e-12 </wgt>
<wgt id='1165'> +2.3187466e-12 </wgt>
<wgt id='1166'> +2.3139244e-12 </wgt>
<wgt id='1167'> +2.3454080e-12 </wgt>
<wgt id='1168'> +2.2814681e-12 </wgt>
<wgt id='1169'> +2.3252694e-12 </wgt>
<wgt id='1170'> +2.3096820e-12 </wgt>
<wgt id='1171'> +2.3088347e-12 </wgt>
<wgt id='1172'> +2.3261679e-12 </wgt>
<wgt id='1173'> +2.2897103e-12 </wgt>
<wgt id='1174'> +2.3443177e-12 </wgt>
<wgt id='1175'> +2.3202480e-12 </wgt>
<wgt id='1176'> +2.3128974e-12 </wgt>
<wgt id='1177'> +2.3106726e-12 </wgt>
<wgt id='1178'> +2.3307643e-12 </wgt>
<wgt id='1179'> +2.3123939e-12 </wgt>
<wgt id='1180'> +2.3147261e-12 </wgt>
<wgt id='1181'> +2.3227350e-12 </wgt>
<wgt id='1182'> +2.3083347e-12 </wgt>
<wgt id='1183'> +2.3107563e-12 </wgt>
<wgt id='1184'> +2.3166091e-12 </wgt>
<wgt id='1185'> +2.3114127e-12 </wgt>
<wgt id='1186'> +2.3187544e-12 </wgt>
<wgt id='1187'> +2.3200636e-12 </wgt>
<wgt id='1188'> +2.3150817e-12 </wgt>
<wgt id='1189'> +2.3090512e-12 </wgt>
<wgt id='1190'> +2.2929642e-12 </wgt>
<wgt id='1191'> +2.3196740e-12 </wgt>
<wgt id='1192'> +2.3250951e-12 </wgt>
<wgt id='1193'> +1.4178327e-12 </wgt>
<wgt id='1194'> +1.4001337e-12 </wgt>
<wgt id='1195'> +1.4323518e-12 </wgt>
<wgt id='1196'> +1.4165707e-12 </wgt>
<wgt id='1197'> +1.4192177e-12 </wgt>
<wgt id='1198'> +1.4168661e-12 </wgt>
<wgt id='1199'> +1.4192959e-12 </wgt>
<wgt id='1200'> +1.4140400e-12 </wgt>
<wgt id='1201'> +1.4203840e-12 </wgt>
<wgt id='1202'> +1.4168745e-12 </wgt>
<wgt id='1203'> +1.4191698e-12 </wgt>
<wgt id='1204'> +1.4120440e-12 </wgt>
<wgt id='1205'> +1.4211775e-12 </wgt>
<wgt id='1206'> +1.4207816e-12 </wgt>
<wgt id='1207'> +1.4137559e-12 </wgt>
<wgt id='1208'> +1.4252857e-12 </wgt>
<wgt id='1209'> +1.4152081e-12 </wgt>
<wgt id='1210'> +1.4226701e-12 </wgt>
<wgt id='1211'> +1.4122067e-12 </wgt>
<wgt id='1212'> +1.4170908e-12 </wgt>
<wgt id='1213'> +1.4191056e-12 </wgt>
<wgt id='1214'> +1.4058591e-12 </wgt>
<wgt id='1215'> +1.4326762e-12 </wgt>
<wgt id='1216'> +1.4252626e-12 </wgt>
<wgt id='1217'> +1.4129394e-12 </wgt>
<wgt id='1218'> +1.4221188e-12 </wgt>
<wgt id='1219'> +1.4154015e-12 </wgt>
<wgt id='1220'> +1.4263897e-12 </wgt>
<wgt id='1221'> +1.4161106e-12 </wgt>
<wgt id='1222'> +1.4393992e-12 </wgt>
<wgt id='1223'> +1.3875342e-12 </wgt>
<wgt id='1224'> +1.4218724e-12 </wgt>
<wgt id='1225'> +1.4162077e-12 </wgt>
<wgt id='1226'> +1.4161219e-12 </wgt>
<wgt id='1227'> +1.4192602e-12 </wgt>
<wgt id='1228'> +1.4105919e-12 </wgt>
<wgt id='1229'> +1.4206752e-12 </wgt>
<wgt id='1230'> +1.4187458e-12 </wgt>
<wgt id='1231'> +1.4293460e-12 </wgt>
<wgt id='1232'> +1.4191713e-12 </wgt>
<wgt id='1233'> +1.4174768e-12 </wgt>
<wgt id='1234'> +1.4178327e-12 </wgt>
<wgt id='1235'> +1.4105421e-12 </wgt>
<wgt id='1236'> +1.4133899e-12 </wgt>
<wgt id='1237'> +1.4158735e-12 </wgt>
<wgt id='1238'> +1.4199752e-12 </wgt>
<wgt id='1239'> +1.4215691e-12 </wgt>
<wgt id='1240'> +1.4232769e-12 </wgt>
<wgt id='1241'> +1.3403914e-12 </wgt>
<wgt id='1242'> +1.3234966e-12 </wgt>
<wgt id='1243'> +1.3570825e-12 </wgt>
<wgt id='1244'> +1.3455331e-12 </wgt>
<wgt id='1245'> +1.3365493e-12 </wgt>
<wgt id='1246'> +1.3359127e-12 </wgt>
<wgt id='1247'> +1.3442165e-12 </wgt>
<wgt id='1248'> +1.3404185e-12 </wgt>
<wgt id='1249'> +1.3403930e-12 </wgt>
<wgt id='1250'> +1.3412783e-12 </wgt>
<wgt id='1251'> +1.3397999e-12 </wgt>
<wgt id='1252'> +1.3379890e-12 </wgt>
<wgt id='1253'> +1.3422670e-12 </wgt>
<wgt id='1254'> +1.3361519e-12 </wgt>
<wgt id='1255'> +1.3428514e-12 </wgt>
<wgt id='1256'> +1.3376567e-12 </wgt>
<wgt id='1257'> +1.3473163e-12 </wgt>
<wgt id='1258'> +1.3486544e-12 </wgt>
<wgt id='1259'> +1.3303819e-12 </wgt>
<wgt id='1260'> +1.3423424e-12 </wgt>
<wgt id='1261'> +1.3385881e-12 </wgt>
<wgt id='1262'> +1.3418463e-12 </wgt>
<wgt id='1263'> +1.3401503e-12 </wgt>
<wgt id='1264'> +1.3458167e-12 </wgt>
<wgt id='1265'> +1.3380697e-12 </wgt>
<wgt id='1266'> +1.3190432e-12 </wgt>
<wgt id='1267'> +1.3605246e-12 </wgt>
<wgt id='1268'> +1.3484640e-12 </wgt>
<wgt id='1269'> +1.3335625e-12 </wgt>
<wgt id='1270'> +1.3505166e-12 </wgt>
<wgt id='1271'> +1.3433475e-12 </wgt>
<wgt id='1272'> +1.3451832e-12 </wgt>
<wgt id='1273'> +1.3399370e-12 </wgt>
<wgt id='1274'> +1.3421896e-12 </wgt>
<wgt id='1275'> +1.3380845e-12 </wgt>
<wgt id='1276'> +1.3454128e-12 </wgt>
<wgt id='1277'> +1.3336313e-12 </wgt>
<wgt id='1278'> +1.3556972e-12 </wgt>
<wgt id='1279'> +1.3444285e-12 </wgt>
<wgt id='1280'> +1.3409743e-12 </wgt>
<wgt id='1281'> +1.3430107e-12 </wgt>
<wgt id='1282'> +1.3403914e-12 </wgt>
<wgt id='1283'> +1.3337333e-12 </wgt>
<wgt id='1284'> +1.3365013e-12 </wgt>
<wgt id='1285'> +1.3386405e-12 </wgt>
<wgt id='1286'> +1.3422389e-12 </wgt>
<wgt id='1287'> +1.3434278e-12 </wgt>
<wgt id='1288'> +1.3444525e-12 </wgt>
<wgt id='1289'> +1.4630826e-12 </wgt>
<wgt id='1290'> +1.4669501e-12 </wgt>
<wgt id='1291'> +1.4589052e-12 </wgt>
<wgt id='1292'> +1.4643455e-12 </wgt>
<wgt id='1293'> +1.4621815e-12 </wgt>
<wgt id='1294'> +1.4458649e-12 </wgt>
<wgt id='1295'> +1.4796512e-12 </wgt>
<wgt id='1296'> +1.4694294e-12 </wgt>
<wgt id='1297'> +1.4550994e-12 </wgt>
<wgt id='1298'> +1.4705565e-12 </wgt>
<wgt id='1299'> +1.4536435e-12 </wgt>
<wgt id='1300'> +1.4663776e-12 </wgt>
<wgt id='1301'> +1.4564637e-12 </wgt>
<wgt id='1302'> +1.4585989e-12 </wgt>
<wgt id='1303'> +1.4692940e-12 </wgt>
<wgt id='1304'> +1.4618497e-12 </wgt>
<wgt id='1305'> +1.4638907e-12 </wgt>
<wgt id='1306'> +1.4657029e-12 </wgt>
<wgt id='1307'> +1.4599378e-12 </wgt>
<wgt id='1308'> +1.4558260e-12 </wgt>
<wgt id='1309'> +1.4686203e-12 </wgt>
<wgt id='1310'> +1.4632460e-12 </wgt>
<wgt id='1311'> +1.4631300e-12 </wgt>
<wgt id='1312'> +1.4730665e-12 </wgt>
<wgt id='1313'> +1.4538003e-12 </wgt>
<wgt id='1314'> +1.4456155e-12 </wgt>
<wgt id='1315'> +1.4794628e-12 </wgt>
<wgt id='1316'> +1.4712934e-12 </wgt>
<wgt id='1317'> +1.4641725e-12 </wgt>
<wgt id='1318'> +1.4727541e-12 </wgt>
<wgt id='1319'> +1.4503356e-12 </wgt>
<wgt id='1320'> +1.4792735e-12 </wgt>
<wgt id='1321'> +1.4483217e-12 </wgt>
<wgt id='1322'> +1.4630316e-12 </wgt>
<wgt id='1323'> +1.4636281e-12 </wgt>
<wgt id='1324'> +1.4603800e-12 </wgt>
<wgt id='1325'> +1.4701276e-12 </wgt>
<wgt id='1326'> +1.4618100e-12 </wgt>
<wgt id='1327'> +1.4671056e-12 </wgt>
<wgt id='1328'> +1.4624245e-12 </wgt>
<wgt id='1329'> +1.4631517e-12 </wgt>
<wgt id='1330'> +1.4703187e-12 </wgt>
<wgt id='1331'> +1.4571452e-12 </wgt>
<wgt id='1332'> +1.4745166e-12 </wgt>
<wgt id='1333'> +1.4685377e-12 </wgt>
<wgt id='1334'> +1.4610915e-12 </wgt>
<wgt id='1335'> +1.4689926e-12 </wgt>
<wgt id='1336'> +1.4661441e-12 </wgt>
<wgt id='1337'> +1.4718698e-12 </wgt>
<wgt id='1338'> +1.4633793e-12 </wgt>
<wgt id='1339'> +1.4643735e-12 </wgt>
<wgt id='1340'> +1.4278287e-12 </wgt>
<wgt id='1341'> +1.4314688e-12 </wgt>
<wgt id='1342'> +1.4239061e-12 </wgt>
<wgt id='1343'> +1.4292075e-12 </wgt>
<wgt id='1344'> +1.4269029e-12 </wgt>
<wgt id='1345'> +1.4099599e-12 </wgt>
<wgt id='1346'> +1.4443490e-12 </wgt>
<wgt id='1347'> +1.4349836e-12 </wgt>
<wgt id='1348'> +1.4197538e-12 </wgt>
<wgt id='1349'> +1.4348303e-12 </wgt>
<wgt id='1350'> +1.4209009e-12 </wgt>
<wgt id='1351'> +1.4309288e-12 </wgt>
<wgt id='1352'> +1.4210586e-12 </wgt>
<wgt id='1353'> +1.4223571e-12 </wgt>
<wgt id='1354'> +1.4375979e-12 </wgt>
<wgt id='1355'> +1.4276127e-12 </wgt>
<wgt id='1356'> +1.4279236e-12 </wgt>
<wgt id='1357'> +1.4291994e-12 </wgt>
<wgt id='1358'> +1.4259451e-12 </wgt>
<wgt id='1359'> +1.4203214e-12 </wgt>
<wgt id='1360'> +1.4343301e-12 </wgt>
<wgt id='1361'> +1.4287377e-12 </wgt>
<wgt id='1362'> +1.4268570e-12 </wgt>
<wgt id='1363'> +1.4444420e-12 </wgt>
<wgt id='1364'> +1.4176069e-12 </wgt>
<wgt id='1365'> +1.4354458e-12 </wgt>
<wgt id='1366'> +1.4138673e-12 </wgt>
<wgt id='1367'> +1.4359790e-12 </wgt>
<wgt id='1368'> +1.4276652e-12 </wgt>
<wgt id='1369'> +1.4355463e-12 </wgt>
<wgt id='1370'> +1.4179886e-12 </wgt>
<wgt id='1371'> +1.4411668e-12 </wgt>
<wgt id='1372'> +1.4111407e-12 </wgt>
<wgt id='1373'> +1.4247043e-12 </wgt>
<wgt id='1374'> +1.4310966e-12 </wgt>
<wgt id='1375'> +1.4251746e-12 </wgt>
<wgt id='1376'> +1.4349580e-12 </wgt>
<wgt id='1377'> +1.4265913e-12 </wgt>
<wgt id='1378'> +1.4320076e-12 </wgt>
<wgt id='1379'> +1.4274032e-12 </wgt>
<wgt id='1380'> +1.4276774e-12 </wgt>
<wgt id='1381'> +1.4352453e-12 </wgt>
<wgt id='1382'> +1.4221159e-12 </wgt>
<wgt id='1383'> +1.4373079e-12 </wgt>
<wgt id='1384'> +1.4340749e-12 </wgt>
<wgt id='1385'> +1.4261025e-12 </wgt>
<wgt id='1386'> +1.4325677e-12 </wgt>
<wgt id='1387'> +1.4308928e-12 </wgt>
<wgt id='1388'> +1.4367348e-12 </wgt>
<wgt id='1389'> +1.4282054e-12 </wgt>
<wgt id='1390'> +1.4298706e-12 </wgt>
<wgt id='1391'> +1.4055452e-12 </wgt>
<wgt id='1392'> +1.3557002e-12 </wgt>
<wgt id='1393'> +1.3728860e-12 </wgt>
<wgt id='1394'> +1.3895051e-12 </wgt>
<wgt id='1395'> +1.4227200e-12 </wgt>
<wgt id='1396'> +1.4061348e-12 </wgt>
<wgt id='1397'> +1.3851336e-12 </wgt>
<wgt id='1398'> +1.3881490e-12 </wgt>
<wgt id='1399'> +1.3915356e-12 </wgt>
<wgt id='1400'> +1.3958245e-12 </wgt>
<wgt id='1401'> +1.4009137e-12 </wgt>
<wgt id='1402'> +1.4112048e-12 </wgt>
<wgt id='1403'> +1.4167862e-12 </wgt>
<wgt id='1404'> +1.4225145e-12 </wgt>
<wgt id='1405'> +1.4061348e-12 </wgt>
<wgt id='1406'> +1.4018067e-12 </wgt>
<wgt id='1407'> +1.4040162e-12 </wgt>
<wgt id='1408'> +1.4080550e-12 </wgt>
<wgt id='1409'> +1.4094401e-12 </wgt>
<wgt id='1410'> +1.3148502e-12 </wgt>
<wgt id='1411'> +1.3219654e-12 </wgt>
<wgt id='1412'> +1.3056911e-12 </wgt>
<wgt id='1413'> +1.3052547e-12 </wgt>
<wgt id='1414'> +1.3243870e-12 </wgt>
<wgt id='1415'> +1.3118389e-12 </wgt>
<wgt id='1416'> +1.3160668e-12 </wgt>
<wgt id='1417'> +1.3120910e-12 </wgt>
<wgt id='1418'> +1.3175355e-12 </wgt>
<wgt id='1419'> +1.3165502e-12 </wgt>
<wgt id='1420'> +1.3131703e-12 </wgt>
<wgt id='1421'> +1.3016467e-12 </wgt>
<wgt id='1422'> +1.3204078e-12 </wgt>
<wgt id='1423'> +1.3133045e-12 </wgt>
<wgt id='1424'> +1.3167207e-12 </wgt>
<wgt id='1425'> +1.3067695e-12 </wgt>
<wgt id='1426'> +1.3235480e-12 </wgt>
<wgt id='1427'> +1.3003861e-12 </wgt>
<wgt id='1428'> +1.3225215e-12 </wgt>
<wgt id='1429'> +1.3188207e-12 </wgt>
<wgt id='1430'> +1.3095297e-12 </wgt>
<wgt id='1431'> +1.3154985e-12 </wgt>
<wgt id='1432'> +1.3143382e-12 </wgt>
<wgt id='1433'> +1.3003734e-12 </wgt>
<wgt id='1434'> +1.3263184e-12 </wgt>
<wgt id='1435'> +1.3070794e-12 </wgt>
<wgt id='1436'> +1.3348410e-12 </wgt>
<wgt id='1437'> +1.3221159e-12 </wgt>
<wgt id='1438'> +1.3182126e-12 </wgt>
<wgt id='1439'> +1.3086498e-12 </wgt>
<wgt id='1440'> +1.3246365e-12 </wgt>
<wgt id='1441'> +1.3195580e-12 </wgt>
<wgt id='1442'> +1.3048620e-12 </wgt>
<wgt id='1443'> +1.3114505e-12 </wgt>
<wgt id='1444'> +1.3239698e-12 </wgt>
<wgt id='1445'> +1.3275262e-12 </wgt>
<wgt id='1446'> +1.3105499e-12 </wgt>
<wgt id='1447'> +1.3163418e-12 </wgt>
<wgt id='1448'> +1.3178684e-12 </wgt>
<wgt id='1449'> +1.3148224e-12 </wgt>
<wgt id='1450'> +1.3140644e-12 </wgt>
<wgt id='1451'> +1.3134939e-12 </wgt>
<wgt id='1452'> +1.3217507e-12 </wgt>
<wgt id='1453'> +1.3150251e-12 </wgt>
<wgt id='1454'> +1.3148870e-12 </wgt>
<wgt id='1455'> +1.3256089e-12 </wgt>
<wgt id='1456'> +1.3236442e-12 </wgt>
<wgt id='1457'> +1.3224877e-12 </wgt>
<wgt id='1458'> +1.3134693e-12 </wgt>
<wgt id='1459'> +1.3209889e-12 </wgt>
<wgt id='1460'> +1.3264793e-12 </wgt>
<wgt id='1461'> +1.3148502e-12 </wgt>
<wgt id='1462'> +1.3025564e-12 </wgt>
<wgt id='1463'> +1.3228503e-12 </wgt>
<wgt id='1464'> +1.3123354e-12 </wgt>
<wgt id='1465'> +1.2877801e-12 </wgt>
<wgt id='1466'> +1.2916858e-12 </wgt>
<wgt id='1467'> +1.2961976e-12 </wgt>
<wgt id='1468'> +1.3032506e-12 </wgt>
<wgt id='1469'> +1.3071548e-12 </wgt>
<wgt id='1470'> +1.3178513e-12 </wgt>
<wgt id='1471'> +1.3229675e-12 </wgt>
<wgt id='1472'> +1.3282548e-12 </wgt>
<wgt id='1473'> +1.3123354e-12 </wgt>
<wgt id='1474'> +1.3088272e-12 </wgt>
<wgt id='1475'> +1.3112466e-12 </wgt>
<wgt id='1476'> +1.3135670e-12 </wgt>
<wgt id='1477'> +1.3146364e-12 </wgt>
<wgt id='1478'> +1.3737899e-12 </wgt>
<wgt id='1479'> +1.3739223e-12 </wgt>
<wgt id='1480'> +1.3591295e-12 </wgt>
<wgt id='1481'> +1.3984403e-12 </wgt>
<wgt id='1482'> +1.3750933e-12 </wgt>
<wgt id='1483'> +1.3578101e-12 </wgt>
<wgt id='1484'> +1.3641650e-12 </wgt>
<wgt id='1485'> +1.3819845e-12 </wgt>
<wgt id='1486'> +1.3735519e-12 </wgt>
<wgt id='1487'> +1.3853087e-12 </wgt>
<wgt id='1488'> +1.3712027e-12 </wgt>
<wgt id='1489'> +1.3756021e-12 </wgt>
<wgt id='1490'> +1.3701398e-12 </wgt>
<wgt id='1491'> +1.3797601e-12 </wgt>
<wgt id='1492'> +1.3750162e-12 </wgt>
<wgt id='1493'> +1.3551273e-12 </wgt>
<wgt id='1494'> +1.3703832e-12 </wgt>
<wgt id='1495'> +1.3615484e-12 </wgt>
<wgt id='1496'> +1.3745560e-12 </wgt>
<wgt id='1497'> +1.3743300e-12 </wgt>
<wgt id='1498'> +1.3738864e-12 </wgt>
<wgt id='1499'> +1.3766400e-12 </wgt>
<wgt id='1500'> +1.3745527e-12 </wgt>
<wgt id='1501'> +1.3745538e-12 </wgt>
<wgt id='1502'> +1.3731399e-12 </wgt>
<wgt id='1503'> +1.3782665e-12 </wgt>
<wgt id='1504'> +1.3689256e-12 </wgt>
<wgt id='1505'> +1.3773995e-12 </wgt>
<wgt id='1506'> +1.3750456e-12 </wgt>
<wgt id='1507'> +1.3739572e-12 </wgt>
<wgt id='1508'> +1.3770655e-12 </wgt>
<wgt id='1509'> +1.3315914e-12 </wgt>
<wgt id='1510'> +1.3366936e-12 </wgt>
<wgt id='1511'> +1.3129170e-12 </wgt>
<wgt id='1512'> +1.3202607e-12 </wgt>
<wgt id='1513'> +1.3302690e-12 </wgt>
<wgt id='1514'> +1.3363809e-12 </wgt>
<wgt id='1515'> +1.3349775e-12 </wgt>
<wgt id='1516'> +1.3343900e-12 </wgt>
<wgt id='1517'> +1.3325727e-12 </wgt>
<wgt id='1518'> +1.3310857e-12 </wgt>
<wgt id='1519'> +1.3324314e-12 </wgt>
<wgt id='1520'> +1.3327700e-12 </wgt>
<wgt id='1521'> +1.3316298e-12 </wgt>
<wgt id='1522'> +1.3338520e-12 </wgt>
<wgt id='1523'> +1.3339268e-12 </wgt>
<wgt id='1524'> +1.3300643e-12 </wgt>
<wgt id='1525'> +1.3320106e-12 </wgt>
<wgt id='1526'> +1.3323185e-12 </wgt>
<wgt id='1527'> +1.3312252e-12 </wgt>
<wgt id='1528'> +1.3321072e-12 </wgt>
<wgt id='1529'> +1.3323435e-12 </wgt>
<wgt id='1530'> +1.3326533e-12 </wgt>
<wgt id='1531'> +1.3330278e-12 </wgt>
<wgt id='1532'> +1.3273091e-12 </wgt>
<wgt id='1533'> +1.3325207e-12 </wgt>
<wgt id='1534'> +1.3315669e-12 </wgt>
<wgt id='1535'> +1.3267415e-12 </wgt>
<wgt id='1536'> +1.3344140e-12 </wgt>
<wgt id='1537'> +1.3340875e-12 </wgt>
<wgt id='1538'> +1.3201368e-12 </wgt>
<wgt id='1539'> +1.3317436e-12 </wgt>
<wgt id='1540'> +1.3311239e-12 </wgt>
<wgt id='1541'> +1.3294882e-12 </wgt>
<wgt id='1542'> +1.3297916e-12 </wgt>
<wgt id='1543'> +1.3323874e-12 </wgt>
<wgt id='1544'> +1.3303867e-12 </wgt>
<wgt id='1545'> +1.3297592e-12 </wgt>
<wgt id='1546'> +1.3314495e-12 </wgt>
<wgt id='1547'> +1.3302754e-12 </wgt>
<wgt id='1548'> +1.3324153e-12 </wgt>
<wgt id='1549'> +1.3302903e-12 </wgt>
<wgt id='1550'> +1.3313599e-12 </wgt>
<wgt id='1551'> +1.3320044e-12 </wgt>
<wgt id='1552'> +1.3332119e-12 </wgt>
<wgt id='1553'> +1.3315129e-12 </wgt>
<wgt id='1554'> +1.3303169e-12 </wgt>
<wgt id='1555'> +1.3340233e-12 </wgt>
<wgt id='1556'> +1.3353308e-12 </wgt>
<wgt id='1557'> +1.3314220e-12 </wgt>
<wgt id='1558'> +1.3313515e-12 </wgt>
<wgt id='1559'> +1.3294430e-12 </wgt>
<wgt id='1560'> +1.3311510e-12 </wgt>
<wgt id='1561'> +1.3313457e-12 </wgt>
<wgt id='1562'> +1.3311207e-12 </wgt>
<wgt id='1563'> +1.3314338e-12 </wgt>
<wgt id='1564'> +1.3304618e-12 </wgt>
<wgt id='1565'> +1.3318734e-12 </wgt>
<wgt id='1566'> +1.3316971e-12 </wgt>
<wgt id='1567'> +1.3316616e-12 </wgt>
<wgt id='1568'> +1.3307803e-12 </wgt>
<wgt id='1569'> +1.3345650e-12 </wgt>
<wgt id='1570'> +1.3322359e-12 </wgt>
<wgt id='1571'> +1.3326312e-12 </wgt>
<wgt id='1572'> +1.3323380e-12 </wgt>
<wgt id='1573'> +1.3315794e-12 </wgt>
<wgt id='1574'> +1.3325407e-12 </wgt>
<wgt id='1575'> +1.3306871e-12 </wgt>
<wgt id='1576'> +1.3318415e-12 </wgt>
<wgt id='1577'> +1.3325969e-12 </wgt>
<wgt id='1578'> +1.3329896e-12 </wgt>
<wgt id='1579'> +1.3306507e-12 </wgt>
<wgt id='1580'> +1.3307902e-12 </wgt>
<wgt id='1581'> +1.3320179e-12 </wgt>
<wgt id='1582'> +1.3329079e-12 </wgt>
<wgt id='1583'> +1.3307922e-12 </wgt>
<wgt id='1584'> +1.3318399e-12 </wgt>
<wgt id='1585'> +1.3319953e-12 </wgt>
<wgt id='1586'> +1.3316251e-12 </wgt>
<wgt id='1587'> +1.3314097e-12 </wgt>
<wgt id='1588'> +1.3303284e-12 </wgt>
<wgt id='1589'> +1.3329149e-12 </wgt>
<wgt id='1590'> +1.3313417e-12 </wgt>
<wgt id='1591'> +1.3316879e-12 </wgt>
<wgt id='1592'> +1.3309792e-12 </wgt>
<wgt id='1593'> +1.3328214e-12 </wgt>
<wgt id='1594'> +1.3311263e-12 </wgt>
<wgt id='1595'> +1.3315342e-12 </wgt>
<wgt id='1596'> +1.3303856e-12 </wgt>
<wgt id='1597'> +1.3320078e-12 </wgt>
<wgt id='1598'> +1.3314797e-12 </wgt>
<wgt id='1599'> +1.3321110e-12 </wgt>
<wgt id='1600'> +1.3303895e-12 </wgt>
<wgt id='1601'> +1.3319961e-12 </wgt>
<wgt id='1602'> +1.3315901e-12 </wgt>
<wgt id='1603'> +1.3327292e-12 </wgt>
<wgt id='1604'> +1.3321276e-12 </wgt>
<wgt id='1605'> +1.3321694e-12 </wgt>
<wgt id='1606'> +1.3313268e-12 </wgt>
<wgt id='1607'> +1.3315686e-12 </wgt>
<wgt id='1608'> +1.3322354e-12 </wgt>
<wgt id='1609'> +1.3320807e-12 </wgt>
<wgt id='1610'> +1.3141901e-12 </wgt>
<wgt id='1611'> +1.3470874e-12 </wgt>
<wgt id='1612'> +1.5455182e-12 </wgt>
<wgt id='1613'> +1.5171212e-12 </wgt>
<wgt id='1614'> +1.4830567e-12 </wgt>
<wgt id='1615'> +1.5266435e-12 </wgt>
<wgt id='1616'> +1.4862804e-12 </wgt>
<wgt id='1617'> +1.5044281e-12 </wgt>
<wgt id='1618'> +1.5534312e-12 </wgt>
<wgt id='1619'> +1.5181094e-12 </wgt>
<wgt id='1620'> +1.5279568e-12 </wgt>
<wgt id='1621'> +1.5460308e-12 </wgt>
<wgt id='1622'> +1.5582320e-12 </wgt>
<wgt id='1623'> +1.5470280e-12 </wgt>
<wgt id='1624'> +1.5880533e-12 </wgt>
<wgt id='1625'> +1.4870932e-12 </wgt>
<wgt id='1626'> +1.5244982e-12 </wgt>
<wgt id='1627'> +1.5745115e-12 </wgt>
<wgt id='1628'> +1.4734569e-12 </wgt>
<wgt id='1629'> +1.5739720e-12 </wgt>
<wgt id='1630'> +1.5023991e-12 </wgt>
<wgt id='1631'> +1.5060318e-12 </wgt>
<wgt id='1632'> +1.4762585e-12 </wgt>
<wgt id='1633'> +1.4700482e-12 </wgt>
<wgt id='1634'> +1.5399893e-12 </wgt>
<wgt id='1635'> +1.5652739e-12 </wgt>
<wgt id='1636'> +1.5506398e-12 </wgt>
<wgt id='1637'> +1.5827796e-12 </wgt>
<wgt id='1638'> +1.5587777e-12 </wgt>
<wgt id='1639'> +1.5245891e-12 </wgt>
<wgt id='1640'> +1.5397813e-12 </wgt>
<wgt id='1641'> +1.5479238e-12 </wgt>
<wgt id='1642'> +1.4823111e-12 </wgt>
<wgt id='1643'> +1.5166898e-12 </wgt>
<wgt id='1644'> +1.5749356e-12 </wgt>
<wgt id='1645'> +1.5081369e-12 </wgt>
<wgt id='1646'> +1.5538317e-12 </wgt>
<wgt id='1647'> +1.5876174e-12 </wgt>
<wgt id='1648'> +1.5487183e-12 </wgt>
<wgt id='1649'> +1.6281428e-12 </wgt>
<wgt id='1650'> +1.5055465e-12 </wgt>
<wgt id='1651'> +1.5607051e-12 </wgt>
<wgt id='1652'> +1.5157137e-12 </wgt>
<wgt id='1653'> +1.5528029e-12 </wgt>
<wgt id='1654'> +1.5510843e-12 </wgt>
<wgt id='1655'> +1.5883723e-12 </wgt>
<wgt id='1656'> +1.5223091e-12 </wgt>
<wgt id='1657'> +1.5592134e-12 </wgt>
<wgt id='1658'> +1.5162275e-12 </wgt>
<wgt id='1659'> +1.5880533e-12 </wgt>
<wgt id='1660'> +1.5629482e-12 </wgt>
<wgt id='1661'> +1.5812504e-12 </wgt>
<wgt id='1662'> +1.6197153e-12 </wgt>
<wgt id='1663'> +1.5401173e-12 </wgt>
<wgt id='1664'> +1.5206288e-12 </wgt>
<wgt id='1665'> +1.5218121e-12 </wgt>
<wgt id='1666'> +1.5723673e-12 </wgt>
<wgt id='1667'> +1.5506705e-12 </wgt>
<wgt id='1668'> +1.5731885e-12 </wgt>
<wgt id='1669'> +1.5655237e-12 </wgt>
<wgt id='1670'> +1.5170246e-12 </wgt>
<wgt id='1671'> +1.5216125e-12 </wgt>
<wgt id='1672'> +1.5733574e-12 </wgt>
<wgt id='1673'> +1.5491247e-12 </wgt>
<wgt id='1674'> +1.5288278e-12 </wgt>
<wgt id='1675'> +1.5363988e-12 </wgt>
<wgt id='1676'> +1.5238457e-12 </wgt>
<wgt id='1677'> +1.5454033e-12 </wgt>
<wgt id='1678'> +1.5251260e-12 </wgt>
<wgt id='1679'> +1.5534184e-12 </wgt>
<wgt id='1680'> +1.5952683e-12 </wgt>
<wgt id='1681'> +1.5804939e-12 </wgt>
<wgt id='1682'> +1.5367149e-12 </wgt>
<wgt id='1683'> +1.5613107e-12 </wgt>
<wgt id='1684'> +1.6083756e-12 </wgt>
<wgt id='1685'> +1.5428739e-12 </wgt>
<wgt id='1686'> +1.5350214e-12 </wgt>
<wgt id='1687'> +1.5696151e-12 </wgt>
<wgt id='1688'> +1.5186511e-12 </wgt>
<wgt id='1689'> +1.6158874e-12 </wgt>
<wgt id='1690'> +1.5461739e-12 </wgt>
<wgt id='1691'> +1.4806580e-12 </wgt>
<wgt id='1692'> +1.5646633e-12 </wgt>
<wgt id='1693'> +1.5491806e-12 </wgt>
<wgt id='1694'> +1.5309196e-12 </wgt>
<wgt id='1695'> +1.5570460e-12 </wgt>
<wgt id='1696'> +1.5370375e-12 </wgt>
<wgt id='1697'> +1.5425668e-12 </wgt>
<wgt id='1698'> +1.5599296e-12 </wgt>
<wgt id='1699'> +1.5702449e-12 </wgt>
<wgt id='1700'> +1.5181588e-12 </wgt>
<wgt id='1701'> +1.6140776e-12 </wgt>
<wgt id='1702'> +1.5038239e-12 </wgt>
<wgt id='1703'> +1.5243632e-12 </wgt>
<wgt id='1704'> +1.5146006e-12 </wgt>
<wgt id='1705'> +1.4765692e-12 </wgt>
<wgt id='1706'> +1.5896500e-12 </wgt>
<wgt id='1707'> +1.5696805e-12 </wgt>
<wgt id='1708'> +1.6257928e-12 </wgt>
<wgt id='1709'> +1.6047943e-12 </wgt>
<wgt id='1710'> +1.5434254e-12 </wgt>
<wgt id='1711'> +1.5518777e-12 </wgt>
<wgt id='1712'> +1.6131765e-12 </wgt>
<wgt id='1713'> +1.3345040e-12 </wgt>
<wgt id='1714'> +1.3297712e-12 </wgt>
<wgt id='1715'> +1.2991923e-12 </wgt>
<wgt id='1716'> +1.3618794e-12 </wgt>
<wgt id='1717'> +1.3462377e-12 </wgt>
<wgt id='1718'> +1.3656443e-12 </wgt>
<wgt id='1719'> +1.3567983e-12 </wgt>
<wgt id='1720'> +1.2872962e-12 </wgt>
<wgt id='1721'> +1.3059110e-12 </wgt>
<wgt id='1722'> +1.3248048e-12 </wgt>
<wgt id='1723'> +1.3862837e-12 </wgt>
<wgt id='1724'> +1.3291842e-12 </wgt>
<wgt id='1725'> +1.3432828e-12 </wgt>
<wgt id='1726'> +1.3389082e-12 </wgt>
<wgt id='1727'> +1.3831028e-12 </wgt>
<wgt id='1728'> +1.3201202e-12 </wgt>
<wgt id='1729'> +1.2768867e-12 </wgt>
<wgt id='1730'> +1.3092994e-12 </wgt>
<wgt id='1731'> +1.2694344e-12 </wgt>
<wgt id='1732'> +1.3373025e-12 </wgt>
<wgt id='1733'> +1.2729743e-12 </wgt>
<wgt id='1734'> +1.4023577e-12 </wgt>
<wgt id='1735'> +1.3063259e-12 </wgt>
<wgt id='1736'> +1.3588722e-12 </wgt>
<wgt id='1737'> +1.3813118e-12 </wgt>
<wgt id='1738'> +1.3251047e-12 </wgt>
<wgt id='1739'> +1.3388655e-12 </wgt>
<wgt id='1740'> +1.2571518e-12 </wgt>
<wgt id='1741'> +1.3796977e-12 </wgt>
<wgt id='1742'> +1.3176107e-12 </wgt>
<wgt id='1743'> +1.3065962e-12 </wgt>
<wgt id='1744'> +1.3572379e-12 </wgt>
<wgt id='1745'> +1.3538508e-12 </wgt>
<wgt id='1746'> +1.3139194e-12 </wgt>
<wgt id='1747'> +1.3955385e-12 </wgt>
<wgt id='1748'> +1.3331647e-12 </wgt>
<wgt id='1749'> +1.3297144e-12 </wgt>
<wgt id='1750'> +1.3075104e-12 </wgt>
<wgt id='1751'> +1.3204118e-12 </wgt>
<wgt id='1752'> +1.3250866e-12 </wgt>
<wgt id='1753'> +1.3456893e-12 </wgt>
<wgt id='1754'> +1.3515739e-12 </wgt>
<wgt id='1755'> +1.3462913e-12 </wgt>
<wgt id='1756'> +1.3583485e-12 </wgt>
<wgt id='1757'> +1.3598367e-12 </wgt>
<wgt id='1758'> +1.3897663e-12 </wgt>
<wgt id='1759'> +1.3645125e-12 </wgt>
<wgt id='1760'> +1.3309480e-12 </wgt>
<wgt id='1761'> +1.3360892e-12 </wgt>
<wgt id='1762'> +1.3125489e-12 </wgt>
<wgt id='1763'> +1.3577547e-12 </wgt>
<wgt id='1764'> +1.3799352e-12 </wgt>
<wgt id='1765'> +1.3273349e-12 </wgt>
<wgt id='1766'> +1.3697117e-12 </wgt>
<wgt id='1767'> +1.3300579e-12 </wgt>
<wgt id='1768'> +1.3556679e-12 </wgt>
<wgt id='1769'> +1.3442266e-12 </wgt>
<wgt id='1770'> +1.3276724e-12 </wgt>
<wgt id='1771'> +1.3882954e-12 </wgt>
<wgt id='1772'> +1.3229718e-12 </wgt>
<wgt id='1773'> +1.3413936e-12 </wgt>
<wgt id='1774'> +1.3187272e-12 </wgt>
<wgt id='1775'> +1.3330023e-12 </wgt>
<wgt id='1776'> +1.3847726e-12 </wgt>
<wgt id='1777'> +1.2752450e-12 </wgt>
<wgt id='1778'> +1.3438535e-12 </wgt>
<wgt id='1779'> +1.3203221e-12 </wgt>
<wgt id='1780'> +1.3285219e-12 </wgt>
<wgt id='1781'> +1.3639326e-12 </wgt>
<wgt id='1782'> +1.3277114e-12 </wgt>
<wgt id='1783'> +1.3446350e-12 </wgt>
<wgt id='1784'> +1.3259622e-12 </wgt>
<wgt id='1785'> +1.3400474e-12 </wgt>
<wgt id='1786'> +1.3223743e-12 </wgt>
<wgt id='1787'> +1.4216632e-12 </wgt>
<wgt id='1788'> +1.3187396e-12 </wgt>
<wgt id='1789'> +1.4126902e-12 </wgt>
<wgt id='1790'> +1.3399787e-12 </wgt>
<wgt id='1791'> +1.3168319e-12 </wgt>
<wgt id='1792'> +1.3114164e-12 </wgt>
<wgt id='1793'> +1.3138866e-12 </wgt>
<wgt id='1794'> +1.3679737e-12 </wgt>
<wgt id='1795'> +1.3444434e-12 </wgt>
<wgt id='1796'> +1.2997486e-12 </wgt>
<wgt id='1797'> +1.3378458e-12 </wgt>
<wgt id='1798'> +1.3229454e-12 </wgt>
<wgt id='1799'> +1.3138267e-12 </wgt>
<wgt id='1800'> +1.3529792e-12 </wgt>
<wgt id='1801'> +1.3317581e-12 </wgt>
<wgt id='1802'> +1.2979966e-12 </wgt>
<wgt id='1803'> +1.3430375e-12 </wgt>
<wgt id='1804'> +1.3487732e-12 </wgt>
<wgt id='1805'> +1.2984776e-12 </wgt>
<wgt id='1806'> +1.3072814e-12 </wgt>
<wgt id='1807'> +1.3105427e-12 </wgt>
<wgt id='1808'> +1.3007513e-12 </wgt>
<wgt id='1809'> +1.3133120e-12 </wgt>
<wgt id='1810'> +1.3045352e-12 </wgt>
<wgt id='1811'> +1.3423111e-12 </wgt>
<wgt id='1812'> +1.3076074e-12 </wgt>
<wgt id='1813'> +1.2545475e-12 </wgt>
<wgt id='1814'> +1.6830803e-12 </wgt>
<wgt id='1815'> +2.0578694e-12 </wgt>
<wgt id='1816'> +1.3345040e-12 </wgt>
<wgt id='1817'> +1.3297712e-12 </wgt>
<wgt id='1818'> +1.2991923e-12 </wgt>
<wgt id='1819'> +1.3618794e-12 </wgt>
<wgt id='1820'> +1.3462377e-12 </wgt>
<wgt id='1821'> +1.3656443e-12 </wgt>
<wgt id='1822'> +1.3567983e-12 </wgt>
<wgt id='1823'> +1.2872962e-12 </wgt>
<wgt id='1824'> +1.3059110e-12 </wgt>
<wgt id='1825'> +1.3248048e-12 </wgt>
<wgt id='1826'> +1.3862837e-12 </wgt>
<wgt id='1827'> +1.3291842e-12 </wgt>
<wgt id='1828'> +1.3432828e-12 </wgt>
<wgt id='1829'> +1.3389082e-12 </wgt>
<wgt id='1830'> +1.3831028e-12 </wgt>
<wgt id='1831'> +1.3201202e-12 </wgt>
<wgt id='1832'> +1.2768867e-12 </wgt>
<wgt id='1833'> +1.3092994e-12 </wgt>
<wgt id='1834'> +1.2694344e-12 </wgt>
<wgt id='1835'> +1.3373025e-12 </wgt>
<wgt id='1836'> +1.2729743e-12 </wgt>
<wgt id='1837'> +1.4023577e-12 </wgt>
<wgt id='1838'> +1.3063259e-12 </wgt>
<wgt id='1839'> +1.3588722e-12 </wgt>
<wgt id='1840'> +1.3813118e-12 </wgt>
<wgt id='1841'> +1.3251047e-12 </wgt>
<wgt id='1842'> +1.3388655e-12 </wgt>
<wgt id='1843'> +1.2571518e-12 </wgt>
<wgt id='1844'> +1.3796977e-12 </wgt>
<wgt id='1845'> +1.3176107e-12 </wgt>
<wgt id='1846'> +1.3065962e-12 </wgt>
<wgt id='1847'> +1.3572379e-12 </wgt>
<wgt id='1848'> +1.3538508e-12 </wgt>
<wgt id='1849'> +1.3139194e-12 </wgt>
<wgt id='1850'> +1.3955385e-12 </wgt>
<wgt id='1851'> +1.3331647e-12 </wgt>
<wgt id='1852'> +1.3297144e-12 </wgt>
<wgt id='1853'> +1.3075104e-12 </wgt>
<wgt id='1854'> +1.3204118e-12 </wgt>
<wgt id='1855'> +1.3250866e-12 </wgt>
<wgt id='1856'> +1.3456893e-12 </wgt>
<wgt id='1857'> +1.3515739e-12 </wgt>
<wgt id='1858'> +1.3462913e-12 </wgt>
<wgt id='1859'> +1.3583485e-12 </wgt>
<wgt id='1860'> +1.3598367e-12 </wgt>
<wgt id='1861'> +1.3897663e-12 </wgt>
<wgt id='1862'> +1.3645125e-12 </wgt>
<wgt id='1863'> +1.3309480e-12 </wgt>
<wgt id='1864'> +1.3360892e-12 </wgt>
<wgt id='1865'> +1.3125489e-12 </wgt>
<wgt id='1866'> +1.3577547e-12 </wgt>
<wgt id='1867'> +1.3799352e-12 </wgt>
<wgt id='1868'> +1.3273349e-12 </wgt>
<wgt id='1869'> +1.3697117e-12 </wgt>
<wgt id='1870'> +1.3300579e-12 </wgt>
<wgt id='1871'> +1.3556679e-12 </wgt>
<wgt id='1872'> +1.3442266e-12 </wgt>
<wgt id='1873'> +1.3276724e-12 </wgt>
<wgt id='1874'> +1.3882954e-12 </wgt>
<wgt id='1875'> +1.3229718e-12 </wgt>
<wgt id='1876'> +1.3413936e-12 </wgt>
<wgt id='1877'> +1.3187272e-12 </wgt>
<wgt id='1878'> +1.3330023e-12 </wgt>
<wgt id='1879'> +1.3847726e-12 </wgt>
<wgt id='1880'> +1.2752450e-12 </wgt>
<wgt id='1881'> +1.3438535e-12 </wgt>
<wgt id='1882'> +1.3203221e-12 </wgt>
<wgt id='1883'> +1.3285219e-12 </wgt>
<wgt id='1884'> +1.3639326e-12 </wgt>
<wgt id='1885'> +1.3277114e-12 </wgt>
<wgt id='1886'> +1.3446350e-12 </wgt>
<wgt id='1887'> +1.3259622e-12 </wgt>
<wgt id='1888'> +1.3400474e-12 </wgt>
<wgt id='1889'> +1.3223743e-12 </wgt>
<wgt id='1890'> +1.4216632e-12 </wgt>
<wgt id='1891'> +1.3187396e-12 </wgt>
<wgt id='1892'> +1.4126902e-12 </wgt>
<wgt id='1893'> +1.3399787e-12 </wgt>
<wgt id='1894'> +1.3168319e-12 </wgt>
<wgt id='1895'> +1.3114164e-12 </wgt>
<wgt id='1896'> +1.3138866e-12 </wgt>
<wgt id='1897'> +1.3679737e-12 </wgt>
<wgt id='1898'> +1.3444434e-12 </wgt>
<wgt id='1899'> +1.2997486e-12 </wgt>
<wgt id='1900'> +1.3378458e-12 </wgt>
<wgt id='1901'> +1.3229454e-12 </wgt>
<wgt id='1902'> +1.3138267e-12 </wgt>
<wgt id='1903'> +1.3529792e-12 </wgt>
<wgt id='1904'> +1.3317581e-12 </wgt>
<wgt id='1905'> +1.2979966e-12 </wgt>
<wgt id='1906'> +1.3430375e-12 </wgt>
<wgt id='1907'> +1.3487732e-12 </wgt>
<wgt id='1908'> +1.2984776e-12 </wgt>
<wgt id='1909'> +1.3072814e-12 </wgt>
<wgt id='1910'> +1.3105427e-12 </wgt>
<wgt id='1911'> +1.3007513e-12 </wgt>
<wgt id='1912'> +1.3133120e-12 </wgt>
<wgt id='1913'> +1.3045352e-12 </wgt>
<wgt id='1914'> +1.3423111e-12 </wgt>
<wgt id='1915'> +1.3076074e-12 </wgt>
<wgt id='1916'> +1.2545475e-12 </wgt>
<wgt id='1917'> +1.3262203e-12 </wgt>
<wgt id='1918'> +1.3526591e-12 </wgt>
<wgt id='1919'> +1.2915977e-12 </wgt>
</rwgt>
</event>
<event>
 9      1 +1.5607000e-12 2.78512600e+01 7.81860800e-03 1.47232700e-01
       21 -1    0    0  501  502 +0.0000000000e+00 +0.0000000000e+00 +8.2406542528e+01 8.2406542528e+01 0.0000000000e+00 0.0000e+00 -1.0000e+00
        4 -1    0    0  502    0 -0.0000000000e+00 -0.0000000000e+00 -8.7735453724e+00 8.8877161522e+00 1.4200000000e+00 0.0000e+00 -1.0000e+00
     1023  2    1    2    0    0 +2.0631425926e+01 -1.1181343343e+01 +2.5657418158e+01 3.7868134407e+01 1.5000477400e+01 0.0000e+00 0.0000e+00
  1000023  2    3    3    0    0 +4.2454433982e+00 -3.2152164622e+00 +2.6746204413e+00 8.1163514053e+00 5.5100053614e+00 0.0000e+00 0.0000e+00
        4  1    1    2  501    0 -2.0631425926e+01 +1.1181343343e+01 +4.7975578998e+01 5.3426124274e+01 1.4200000000e+00 0.0000e+00 -1.0000e+00
  1000022  1    4    4    0    0 +3.9536114518e+00 -3.4510376388e+00 +2.6453509894e+00 7.7161250737e+00 5.0000000000e+00 0.0000e+00 -1.0000e+00
      -11  1    4    4    0    0 +2.5317568354e-01 +1.3579110275e-01 -5.9363702468e-03 2.8735457528e-01 5.1100000000e-04 0.0000e+00 1.0000e+00
       11  1    4    4    0    0 +3.8656262808e-02 +1.0003007383e-01 +3.5205822164e-02 1.1287175626e-01 5.1100000000e-04 0.0000e+00 -1.0000e+00
  1000022  1    3    3    0    0 +1.6385982528e+01 -7.9661268808e+00 +2.2982797716e+01 2.9751783001e+01 5.0000000000e+00 0.0000e+00 -1.0000e+00
<mgrwt>
<rscale>  1 0.27851257E+02</rscale>
<asrwt>0</asrwt>
<pdfrwt beam="1">  1       21 0.12677929E-01 0.27851257E+02</pdfrwt>
<pdfrwt beam="2">  1        4 0.13594997E-02 0.27851257E+02</pdfrwt>
<totfact> 0.35998635E+06</totfact>
</mgrwt>
<rwgt>
<wgt id='1001'> +1.5607000e-12 </wgt>
<wgt id='1002'> +1.6674106e-12 </wgt>
<wgt id='1003'> +1.6698209e-12 </wgt>
<wgt id='1004'> +1.5352680e-12 </wgt>
<wgt id='1005'> +1.6806696e-12 </wgt>
<wgt id='1006'> +1.3628163e-12 </wgt>
<wgt id='1007'> +1.4771551e-12 </wgt>
<wgt id='1008'> +1.4798299e-12 </wgt>
<wgt id='1009'> +1.3364221e-12 </wgt>
<wgt id='1010'> +1.4919304e-12 </wgt>
<wgt id='1011'> +1.8292209e-12 </wgt>
<wgt id='1012'> +1.9164305e-12 </wgt>
<wgt id='1013'> +1.9182732e-12 </wgt>
<wgt id='1014'> +1.8072139e-12 </wgt>
<wgt id='1015'> +1.9264480e-12 </wgt>
<wgt id='1016'> +1.9296792e-12 </wgt>
<wgt id='1017'> +1.9706027e-12 </wgt>
<wgt id='1018'> +1.9713435e-12 </wgt>
<wgt id='1019'> +1.9182732e-12 </wgt>
<wgt id='1020'> +1.9745494e-12 </wgt>
<wgt id='1021'> +1.6850120e-12 </wgt>
<wgt id='1022'> +1.7457523e-12 </wgt>
<wgt id='1023'> +1.7470455e-12 </wgt>
<wgt id='1024'> +1.6698209e-12 </wgt>
<wgt id='1025'> +1.7528075e-12 </wgt>
<wgt id='1026'> +2.2616834e-12 </wgt>
<wgt id='1027'> +2.2649030e-12 </wgt>
<wgt id='1028'> +2.2646593e-12 </wgt>
<wgt id='1029'> +2.2580617e-12 </wgt>
<wgt id='1030'> +2.2633044e-12 </wgt>
<wgt id='1031'> +1.1596863e-12 </wgt>
<wgt id='1032'> +1.3323155e-12 </wgt>
<wgt id='1033'> +1.3364221e-12 </wgt>
<wgt id='1034'> +1.1206177e-12 </wgt>
<wgt id='1035'> +1.3551695e-12 </wgt>
<wgt id='1036'> +1.0126477e-12 </wgt>
<wgt id='1037'> +1.1802952e-12 </wgt>
<wgt id='1038'> +1.1843649e-12 </wgt>
<wgt id='1039'> +9.7547674e-13 </wgt>
<wgt id='1040'> +1.2029839e-12 </wgt>
<wgt id='1041'> +1.3592121e-12 </wgt>
<wgt id='1042'> +1.5312906e-12 </wgt>
<wgt id='1043'> +1.5352680e-12 </wgt>
<wgt id='1044'> +1.3191155e-12 </wgt>
<wgt id='1045'> +1.5533473e-12 </wgt>
<wgt id='1046'> +1.5607000e-12 </wgt>
<wgt id='1047'> +1.5165999e-12 </wgt>
<wgt id='1048'> +1.5781303e-12 </wgt>
<wgt id='1049'> +1.5409920e-12 </wgt>
<wgt id='1050'> +1.5514216e-12 </wgt>
<wgt id='1051'> +1.5650324e-12 </wgt>
<wgt id='1052'> +1.5046137e-12 </wgt>
<wgt id='1053'> +1.5803583e-12 </wgt>
<wgt id='1054'> +1.5896308e-12 </wgt>
<wgt id='1055'> +1.5917535e-12 </wgt>
<wgt id='1056'> +1.5845880e-12 </wgt>
<wgt id='1057'> +1.5556670e-12 </wgt>
<wgt id='1058'> +1.5245151e-12 </wgt>
<wgt id='1059'> +1.5599221e-12 </wgt>
<wgt id='1060'> +1.5425889e-12 </wgt>
<wgt id='1061'> +1.5899774e-12 </wgt>
<wgt id='1062'> +1.5840699e-12 </wgt>
<wgt id='1063'> +1.6045923e-12 </wgt>
<wgt id='1064'> +1.5459484e-12 </wgt>
<wgt id='1065'> +1.5643865e-12 </wgt>
<wgt id='1066'> +1.6056390e-12 </wgt>
<wgt id='1067'> +1.5709408e-12 </wgt>
<wgt id='1068'> +1.6015229e-12 </wgt>
<wgt id='1069'> +1.5891755e-12 </wgt>
<wgt id='1070'> +1.5760809e-12 </wgt>
<wgt id='1071'> +1.5575863e-12 </wgt>
<wgt id='1072'> +1.5958597e-12 </wgt>
<wgt id='1073'> +1.5712824e-12 </wgt>
<wgt id='1074'> +1.5218169e-12 </wgt>
<wgt id='1075'> +1.5534340e-12 </wgt>
<wgt id='1076'> +1.5676500e-12 </wgt>
<wgt id='1077'> +1.5830483e-12 </wgt>
<wgt id='1078'> +1.5490338e-12 </wgt>
<wgt id='1079'> +1.5201567e-12 </wgt>
<wgt id='1080'> +1.5265120e-12 </wgt>
<wgt id='1081'> +1.5923585e-12 </wgt>
<wgt id='1082'> +1.5552380e-12 </wgt>
<wgt id='1083'> +1.5979213e-12 </wgt>
<wgt id='1084'> +1.5494817e-12 </wgt>
<wgt id='1085'> +1.5363111e-12 </wgt>
<wgt id='1086'> +1.5525345e-12 </wgt>
<wgt id='1087'> +1.5431456e-12 </wgt>
<wgt id='1088'> +1.4852530e-12 </wgt>
<wgt id='1089'> +1.5309502e-12 </wgt>
<wgt id='1090'> +1.5004277e-12 </wgt>
<wgt id='1091'> +1.5494245e-12 </wgt>
<wgt id='1092'> +1.5613253e-12 </wgt>
<wgt id='1093'> +1.4953902e-12 </wgt>
<wgt id='1094'> +1.5748917e-12 </wgt>
<wgt id='1095'> +1.5557347e-12 </wgt>
<wgt id='1096'> +1.5777307e-12 </wgt>
<wgt id='1097'> +1.5289435e-12 </wgt>
<wgt id='1098'> +1.6007331e-12 </wgt>
<wgt id='1099'> +1.5469972e-12 </wgt>
<wgt id='1100'> +1.5308486e-12 </wgt>
<wgt id='1101'> +1.5459640e-12 </wgt>
<wgt id='1102'> +1.5514563e-12 </wgt>
<wgt id='1103'> +1.5794157e-12 </wgt>
<wgt id='1104'> +1.5739213e-12 </wgt>
<wgt id='1105'> +1.5849232e-12 </wgt>
<wgt id='1106'> +1.5821364e-12 </wgt>
<wgt id='1107'> +1.5614348e-12 </wgt>
<wgt id='1108'> +1.5706791e-12 </wgt>
<wgt id='1109'> +1.5407264e-12 </wgt>
<wgt id='1110'> +1.5532936e-12 </wgt>
<wgt id='1111'> +1.5548218e-12 </wgt>
<wgt id='1112'> +1.5306746e-12 </wgt>
<wgt id='1113'> +1.5033380e-12 </wgt>
<wgt id='1114'> +1.6123720e-12 </wgt>
<wgt id='1115'> +1.5422160e-12 </wgt>
<wgt id='1116'> +1.5838836e-12 </wgt>
<wgt id='1117'> +1.6056793e-12 </wgt>
<wgt id='1118'> +1.5912737e-12 </wgt>
<wgt id='1119'> +1.6103724e-12 </wgt>
<wgt id='1120'> +1.6025118e-12 </wgt>
<wgt id='1121'> +1.5547984e-12 </wgt>
<wgt id='1122'> +1.5214851e-12 </wgt>
<wgt id='1123'> +1.6022099e-12 </wgt>
<wgt id='1124'> +1.5403464e-12 </wgt>
<wgt id='1125'> +1.5648883e-12 </wgt>
<wgt id='1126'> +1.5242043e-12 </wgt>
<wgt id='1127'> +1.5398636e-12 </wgt>
<wgt id='1128'> +1.5840699e-12 </wgt>
<wgt id='1129'> +1.5253989e-12 </wgt>
<wgt id='1130'> +1.5945638e-12 </wgt>
<wgt id='1131'> +1.5757470e-12 </wgt>
<wgt id='1132'> +1.4962257e-12 </wgt>
<wgt id='1133'> +1.5207235e-12 </wgt>
<wgt id='1134'> +1.5402177e-12 </wgt>
<wgt id='1135'> +1.6133663e-12 </wgt>
<wgt id='1136'> +1.5245726e-12 </wgt>
<wgt id='1137'> +1.5262781e-12 </wgt>
<wgt id='1138'> +1.5675115e-12 </wgt>
<wgt id='1139'> +1.5859565e-12 </wgt>
<wgt id='1140'> +1.5625741e-12 </wgt>
<wgt id='1141'> +1.5481330e-12 </wgt>
<wgt id='1142'> +1.5420485e-12 </wgt>
<wgt id='1143'> +1.5454835e-12 </wgt>
<wgt id='1144'> +1.6084248e-12 </wgt>
<wgt id='1145'> +1.6208048e-12 </wgt>
<wgt id='1146'> +1.6307364e-12 </wgt>
<wgt id='1147'> +1.2165537e-12 </wgt>
<wgt id='1148'> +1.2559910e-12 </wgt>
<wgt id='1149'> +1.2030263e-12 </wgt>
<wgt id='1150'> +1.2330756e-12 </wgt>
<wgt id='1151'> +9.9373971e-13 </wgt>
<wgt id='1152'> +1.4362826e-12 </wgt>
<wgt id='1153'> +1.4295518e-12 </wgt>
<wgt id='1154'> +1.4401567e-12 </wgt>
<wgt id='1155'> +1.4369274e-12 </wgt>
<wgt id='1156'> +1.4359531e-12 </wgt>
<wgt id='1157'> +1.4334202e-12 </wgt>
<wgt id='1158'> +1.4400632e-12 </wgt>
<wgt id='1159'> +1.4338979e-12 </wgt>
<wgt id='1160'> +1.4378110e-12 </wgt>
<wgt id='1161'> +1.4282075e-12 </wgt>
<wgt id='1162'> +1.4417941e-12 </wgt>
<wgt id='1163'> +1.4398402e-12 </wgt>
<wgt id='1164'> +1.4326992e-12 </wgt>
<wgt id='1165'> +1.4202182e-12 </wgt>
<wgt id='1166'> +1.4519806e-12 </wgt>
<wgt id='1167'> +1.4544384e-12 </wgt>
<wgt id='1168'> +1.4128046e-12 </wgt>
<wgt id='1169'> +1.4425162e-12 </wgt>
<wgt id='1170'> +1.4315350e-12 </wgt>
<wgt id='1171'> +1.4327929e-12 </wgt>
<wgt id='1172'> +1.4405272e-12 </wgt>
<wgt id='1173'> +1.4230649e-12 </wgt>
<wgt id='1174'> +1.4492484e-12 </wgt>
<wgt id='1175'> +1.4407519e-12 </wgt>
<wgt id='1176'> +1.4316860e-12 </wgt>
<wgt id='1177'> +1.4369115e-12 </wgt>
<wgt id='1178'> +1.4347144e-12 </wgt>
<wgt id='1179'> +1.4434080e-12 </wgt>
<wgt id='1180'> +1.4232068e-12 </wgt>
<wgt id='1181'> +1.4326921e-12 </wgt>
<wgt id='1182'> +1.4396184e-12 </wgt>
<wgt id='1183'> +1.4356033e-12 </wgt>
<wgt id='1184'> +1.4363628e-12 </wgt>
<wgt id='1185'> +1.4350560e-12 </wgt>
<wgt id='1186'> +1.4368499e-12 </wgt>
<wgt id='1187'> +1.4356107e-12 </wgt>
<wgt id='1188'> +1.4364818e-12 </wgt>
<wgt id='1189'> +1.4304141e-12 </wgt>
<wgt id='1190'> +1.4209161e-12 </wgt>
<wgt id='1191'> +1.4297221e-12 </wgt>
<wgt id='1192'> +1.4416316e-12 </wgt>
<wgt id='1193'> +1.2536291e-12 </wgt>
<wgt id='1194'> +1.2494145e-12 </wgt>
<wgt id='1195'> +1.2570480e-12 </wgt>
<wgt id='1196'> +1.2557537e-12 </wgt>
<wgt id='1197'> +1.2513053e-12 </wgt>
<wgt id='1198'> +1.2565129e-12 </wgt>
<wgt id='1199'> +1.2493760e-12 </wgt>
<wgt id='1200'> +1.2551956e-12 </wgt>
<wgt id='1201'> +1.2526127e-12 </wgt>
<wgt id='1202'> +1.2497297e-12 </wgt>
<wgt id='1203'> +1.2592065e-12 </wgt>
<wgt id='1204'> +1.2309274e-12 </wgt>
<wgt id='1205'> +1.2677039e-12 </wgt>
<wgt id='1206'> +1.2600556e-12 </wgt>
<wgt id='1207'> +1.2448822e-12 </wgt>
<wgt id='1208'> +1.2453964e-12 </wgt>
<wgt id='1209'> +1.2566603e-12 </wgt>
<wgt id='1210'> +1.2532103e-12 </wgt>
<wgt id='1211'> +1.2438557e-12 </wgt>
<wgt id='1212'> +1.2517954e-12 </wgt>
<wgt id='1213'> +1.2553619e-12 </wgt>
<wgt id='1214'> +1.2395657e-12 </wgt>
<wgt id='1215'> +1.2749709e-12 </wgt>
<wgt id='1216'> +1.2626909e-12 </wgt>
<wgt id='1217'> +1.2473755e-12 </wgt>
<wgt id='1218'> +1.2625086e-12 </wgt>
<wgt id='1219'> +1.2490798e-12 </wgt>
<wgt id='1220'> +1.2602378e-12 </wgt>
<wgt id='1221'> +1.2519642e-12 </wgt>
<wgt id='1222'> +1.2573002e-12 </wgt>
<wgt id='1223'> +1.2513741e-12 </wgt>
<wgt id='1224'> +1.2553878e-12 </wgt>
<wgt id='1225'> +1.2529341e-12 </wgt>
<wgt id='1226'> +1.2535171e-12 </wgt>
<wgt id='1227'> +1.2538548e-12 </wgt>
<wgt id='1228'> +1.2487627e-12 </wgt>
<wgt id='1229'> +1.2558258e-12 </wgt>
<wgt id='1230'> +1.2518221e-12 </wgt>
<wgt id='1231'> +1.2463209e-12 </wgt>
<wgt id='1232'> +1.2504110e-12 </wgt>
<wgt id='1233'> +1.2545412e-12 </wgt>
<wgt id='1234'> +1.2536291e-12 </wgt>
<wgt id='1235'> +1.2420470e-12 </wgt>
<wgt id='1236'> +1.2463601e-12 </wgt>
<wgt id='1237'> +1.2502403e-12 </wgt>
<wgt id='1238'> +1.2569549e-12 </wgt>
<wgt id='1239'> +1.2596759e-12 </wgt>
<wgt id='1240'> +1.2622980e-12 </wgt>
<wgt id='1241'> +1.1877161e-12 </wgt>
<wgt id='1242'> +1.1785465e-12 </wgt>
<wgt id='1243'> +1.1968391e-12 </wgt>
<wgt id='1244'> +1.1825251e-12 </wgt>
<wgt id='1245'> +1.1915876e-12 </wgt>
<wgt id='1246'> +1.1890960e-12 </wgt>
<wgt id='1247'> +1.1865877e-12 </wgt>
<wgt id='1248'> +1.1876164e-12 </wgt>
<wgt id='1249'> +1.1878426e-12 </wgt>
<wgt id='1250'> +1.1836347e-12 </wgt>
<wgt id='1251'> +1.1906312e-12 </wgt>
<wgt id='1252'> +1.1844946e-12 </wgt>
<wgt id='1253'> +1.1902663e-12 </wgt>
<wgt id='1254'> +1.1675849e-12 </wgt>
<wgt id='1255'> +1.1999058e-12 </wgt>
<wgt id='1256'> +1.1931088e-12 </wgt>
<wgt id='1257'> +1.1742380e-12 </wgt>
<wgt id='1258'> +1.2038546e-12 </wgt>
<wgt id='1259'> +1.1712109e-12 </wgt>
<wgt id='1260'> +1.1929232e-12 </wgt>
<wgt id='1261'> +1.1818723e-12 </wgt>
<wgt id='1262'> +1.1913042e-12 </wgt>
<wgt id='1263'> +1.1860637e-12 </wgt>
<wgt id='1264'> +1.2004396e-12 </wgt>
<wgt id='1265'> +1.1816918e-12 </wgt>
<wgt id='1266'> +1.1788461e-12 </wgt>
<wgt id='1267'> +1.1972454e-12 </wgt>
<wgt id='1268'> +1.1894432e-12 </wgt>
<wgt id='1269'> +1.1901564e-12 </wgt>
<wgt id='1270'> +1.1783506e-12 </wgt>
<wgt id='1271'> +1.1825736e-12 </wgt>
<wgt id='1272'> +1.1876033e-12 </wgt>
<wgt id='1273'> +1.1872386e-12 </wgt>
<wgt id='1274'> +1.1882693e-12 </wgt>
<wgt id='1275'> +1.1856249e-12 </wgt>
<wgt id='1276'> +1.1893104e-12 </wgt>
<wgt id='1277'> +1.1852093e-12 </wgt>
<wgt id='1278'> +1.1875459e-12 </wgt>
<wgt id='1279'> +1.1882361e-12 </wgt>
<wgt id='1280'> +1.1886460e-12 </wgt>
<wgt id='1281'> +1.1846801e-12 </wgt>
<wgt id='1282'> +1.1877161e-12 </wgt>
<wgt id='1283'> +1.1764270e-12 </wgt>
<wgt id='1284'> +1.1808086e-12 </wgt>
<wgt id='1285'> +1.1846523e-12 </wgt>
<wgt id='1286'> +1.1910775e-12 </wgt>
<wgt id='1287'> +1.1936007e-12 </wgt>
<wgt id='1288'> +1.1958268e-12 </wgt>
<wgt id='1289'> +1.2895868e-12 </wgt>
<wgt id='1290'> +1.2917770e-12 </wgt>
<wgt id='1291'> +1.2872460e-12 </wgt>
<wgt id='1292'> +1.2903886e-12 </wgt>
<wgt id='1293'> +1.2890180e-12 </wgt>
<wgt id='1294'> +1.2870103e-12 </wgt>
<wgt id='1295'> +1.2920580e-12 </wgt>
<wgt id='1296'> +1.2854924e-12 </wgt>
<wgt id='1297'> +1.2946062e-12 </wgt>
<wgt id='1298'> +1.2996956e-12 </wgt>
<wgt id='1299'> +1.2770526e-12 </wgt>
<wgt id='1300'> +1.2943301e-12 </wgt>
<wgt id='1301'> +1.2800941e-12 </wgt>
<wgt id='1302'> +1.2880102e-12 </wgt>
<wgt id='1303'> +1.2917617e-12 </wgt>
<wgt id='1304'> +1.2844709e-12 </wgt>
<wgt id='1305'> +1.2931061e-12 </wgt>
<wgt id='1306'> +1.2796614e-12 </wgt>
<wgt id='1307'> +1.3008507e-12 </wgt>
<wgt id='1308'> +1.2890420e-12 </wgt>
<wgt id='1309'> +1.2900058e-12 </wgt>
<wgt id='1310'> +1.2861830e-12 </wgt>
<wgt id='1311'> +1.2933580e-12 </wgt>
<wgt id='1312'> +1.2808001e-12 </wgt>
<wgt id='1313'> +1.2987085e-12 </wgt>
<wgt id='1314'> +1.2939614e-12 </wgt>
<wgt id='1315'> +1.2775391e-12 </wgt>
<wgt id='1316'> +1.2962972e-12 </wgt>
<wgt id='1317'> +1.2906559e-12 </wgt>
<wgt id='1318'> +1.3040729e-12 </wgt>
<wgt id='1319'> +1.2725100e-12 </wgt>
<wgt id='1320'> +1.3008826e-12 </wgt>
<wgt id='1321'> +1.2795408e-12 </wgt>
<wgt id='1322'> +1.2908236e-12 </wgt>
<wgt id='1323'> +1.2877731e-12 </wgt>
<wgt id='1324'> +1.2881888e-12 </wgt>
<wgt id='1325'> +1.2976993e-12 </wgt>
<wgt id='1326'> +1.2931219e-12 </wgt>
<wgt id='1327'> +1.2892326e-12 </wgt>
<wgt id='1328'> +1.2888019e-12 </wgt>
<wgt id='1329'> +1.2901744e-12 </wgt>
<wgt id='1330'> +1.2897903e-12 </wgt>
<wgt id='1331'> +1.2899162e-12 </wgt>
<wgt id='1332'> +1.3185597e-12 </wgt>
<wgt id='1333'> +1.2792111e-12 </wgt>
<wgt id='1334'> +1.2877215e-12 </wgt>
<wgt id='1335'> +1.2949080e-12 </wgt>
<wgt id='1336'> +1.2828270e-12 </wgt>
<wgt id='1337'> +1.2932586e-12 </wgt>
<wgt id='1338'> +1.2876025e-12 </wgt>
<wgt id='1339'> +1.2904814e-12 </wgt>
<wgt id='1340'> +1.2629037e-12 </wgt>
<wgt id='1341'> +1.2651122e-12 </wgt>
<wgt id='1342'> +1.2605184e-12 </wgt>
<wgt id='1343'> +1.2637646e-12 </wgt>
<wgt id='1344'> +1.2623265e-12 </wgt>
<wgt id='1345'> +1.2602095e-12 </wgt>
<wgt id='1346'> +1.2653801e-12 </wgt>
<wgt id='1347'> +1.2589167e-12 </wgt>
<wgt id='1348'> +1.2673244e-12 </wgt>
<wgt id='1349'> +1.2722655e-12 </wgt>
<wgt id='1350'> +1.2537929e-12 </wgt>
<wgt id='1351'> +1.2676432e-12 </wgt>
<wgt id='1352'> +1.2525882e-12 </wgt>
<wgt id='1353'> +1.2604444e-12 </wgt>
<wgt id='1354'> +1.2672999e-12 </wgt>
<wgt id='1355'> +1.2577985e-12 </wgt>
<wgt id='1356'> +1.2657788e-12 </wgt>
<wgt id='1357'> +1.2523843e-12 </wgt>
<wgt id='1358'> +1.2753383e-12 </wgt>
<wgt id='1359'> +1.2646971e-12 </wgt>
<wgt id='1360'> +1.2613552e-12 </wgt>
<wgt id='1361'> +1.2595366e-12 </wgt>
<wgt id='1362'> +1.2675094e-12 </wgt>
<wgt id='1363'> +1.2513339e-12 </wgt>
<wgt id='1364'> +1.2712941e-12 </wgt>
<wgt id='1365'> +1.2518188e-12 </wgt>
<wgt id='1366'> +1.2662563e-12 </wgt>
<wgt id='1367'> +1.2690443e-12 </wgt>
<wgt id='1368'> +1.2633773e-12 </wgt>
<wgt id='1369'> +1.2751124e-12 </wgt>
<wgt id='1370'> +1.2484897e-12 </wgt>
<wgt id='1371'> +1.2722641e-12 </wgt>
<wgt id='1372'> +1.2513256e-12 </wgt>
<wgt id='1373'> +1.2630376e-12 </wgt>
<wgt id='1374'> +1.2623035e-12 </wgt>
<wgt id='1375'> +1.2613136e-12 </wgt>
<wgt id='1376'> +1.2715598e-12 </wgt>
<wgt id='1377'> +1.2661889e-12 </wgt>
<wgt id='1378'> +1.2632210e-12 </wgt>
<wgt id='1379'> +1.2620477e-12 </wgt>
<wgt id='1380'> +1.2636945e-12 </wgt>
<wgt id='1381'> +1.2643446e-12 </wgt>
<wgt id='1382'> +1.2617773e-12 </wgt>
<wgt id='1383'> +1.2894754e-12 </wgt>
<wgt id='1384'> +1.2534507e-12 </wgt>
<wgt id='1385'> +1.2614988e-12 </wgt>
<wgt id='1386'> +1.2667257e-12 </wgt>
<wgt id='1387'> +1.2542266e-12 </wgt>
<wgt id='1388'> +1.2668804e-12 </wgt>
<wgt id='1389'> +1.2587634e-12 </wgt>
<wgt id='1390'> +1.2645184e-12 </wgt>
<wgt id='1391'> +1.2466032e-12 </wgt>
<wgt id='1392'> +1.2088709e-12 </wgt>
<wgt id='1393'> +1.2218329e-12 </wgt>
<wgt id='1394'> +1.2345679e-12 </wgt>
<wgt id='1395'> +1.2589387e-12 </wgt>
<wgt id='1396'> +1.2467044e-12 </wgt>
<wgt id='1397'> +1.2740662e-12 </wgt>
<wgt id='1398'> +1.2676926e-12 </wgt>
<wgt id='1399'> +1.2619527e-12 </wgt>
<wgt id='1400'> +1.2567549e-12 </wgt>
<wgt id='1401'> +1.2516538e-12 </wgt>
<wgt id='1402'> +1.2422562e-12 </wgt>
<wgt id='1403'> +1.2383465e-12 </wgt>
<wgt id='1404'> +1.2346900e-12 </wgt>
<wgt id='1405'> +1.2467044e-12 </wgt>
<wgt id='1406'> +1.2384885e-12 </wgt>
<wgt id='1407'> +1.2427443e-12 </wgt>
<wgt id='1408'> +1.2503542e-12 </wgt>
<wgt id='1409'> +1.2533306e-12 </wgt>
<wgt id='1410'> +1.1610596e-12 </wgt>
<wgt id='1411'> +1.1633689e-12 </wgt>
<wgt id='1412'> +1.1581036e-12 </wgt>
<wgt id='1413'> +1.1631346e-12 </wgt>
<wgt id='1414'> +1.1590102e-12 </wgt>
<wgt id='1415'> +1.1626131e-12 </wgt>
<wgt id='1416'> +1.1604312e-12 </wgt>
<wgt id='1417'> +1.1535456e-12 </wgt>
<wgt id='1418'> +1.1685777e-12 </wgt>
<wgt id='1419'> +1.1653584e-12 </wgt>
<wgt id='1420'> +1.1569492e-12 </wgt>
<wgt id='1421'> +1.1390416e-12 </wgt>
<wgt id='1422'> +1.1706125e-12 </wgt>
<wgt id='1423'> +1.1610046e-12 </wgt>
<wgt id='1424'> +1.1611349e-12 </wgt>
<wgt id='1425'> +1.1542790e-12 </wgt>
<wgt id='1426'> +1.1683811e-12 </wgt>
<wgt id='1427'> +1.1456884e-12 </wgt>
<wgt id='1428'> +1.1693447e-12 </wgt>
<wgt id='1429'> +1.1574406e-12 </wgt>
<wgt id='1430'> +1.1660713e-12 </wgt>
<wgt id='1431'> +1.1640189e-12 </wgt>
<wgt id='1432'> +1.1589016e-12 </wgt>
<wgt id='1433'> +1.1658246e-12 </wgt>
<wgt id='1434'> +1.1545975e-12 </wgt>
<wgt id='1435'> +1.1652129e-12 </wgt>
<wgt id='1436'> +1.1512650e-12 </wgt>
<wgt id='1437'> +1.1690219e-12 </wgt>
<wgt id='1438'> +1.1603243e-12 </wgt>
<wgt id='1439'> +1.1533585e-12 </wgt>
<wgt id='1440'> +1.1784427e-12 </wgt>
<wgt id='1441'> +1.1639117e-12 </wgt>
<wgt id='1442'> +1.1558595e-12 </wgt>
<wgt id='1443'> +1.1586761e-12 </wgt>
<wgt id='1444'> +1.1676058e-12 </wgt>
<wgt id='1445'> +1.1689065e-12 </wgt>
<wgt id='1446'> +1.1592225e-12 </wgt>
<wgt id='1447'> +1.1620185e-12 </wgt>
<wgt id='1448'> +1.1628117e-12 </wgt>
<wgt id='1449'> +1.1607974e-12 </wgt>
<wgt id='1450'> +1.1610071e-12 </wgt>
<wgt id='1451'> +1.1592570e-12 </wgt>
<wgt id='1452'> +1.1632709e-12 </wgt>
<wgt id='1453'> +1.1619660e-12 </wgt>
<wgt id='1454'> +1.1558287e-12 </wgt>
<wgt id='1455'> +1.1593033e-12 </wgt>
<wgt id='1456'> +1.1620465e-12 </wgt>
<wgt id='1457'> +1.1606281e-12 </wgt>
<wgt id='1458'> +1.1614194e-12 </wgt>
<wgt id='1459'> +1.1675402e-12 </wgt>
<wgt id='1460'> +1.1579583e-12 </wgt>
<wgt id='1461'> +1.1610596e-12 </wgt>
<wgt id='1462'> +1.1553520e-12 </wgt>
<wgt id='1463'> +1.1679185e-12 </wgt>
<wgt id='1464'> +1.1624038e-12 </wgt>
<wgt id='1465'> +1.1923734e-12 </wgt>
<wgt id='1466'> +1.1848404e-12 </wgt>
<wgt id='1467'> +1.1783385e-12 </wgt>
<wgt id='1468'> +1.1740665e-12 </wgt>
<wgt id='1469'> +1.1673908e-12 </wgt>
<wgt id='1470'> +1.1585432e-12 </wgt>
<wgt id='1471'> +1.1533198e-12 </wgt>
<wgt id='1472'> +1.1489489e-12 </wgt>
<wgt id='1473'> +1.1624038e-12 </wgt>
<wgt id='1474'> +1.1547667e-12 </wgt>
<wgt id='1475'> +1.1591516e-12 </wgt>
<wgt id='1476'> +1.1655366e-12 </wgt>
<wgt id='1477'> +1.1681640e-12 </wgt>
<wgt id='1478'> +1.2277565e-12 </wgt>
<wgt id='1479'> +1.2275096e-12 </wgt>
<wgt id='1480'> +1.2201471e-12 </wgt>
<wgt id='1481'> +1.2197976e-12 </wgt>
<wgt id='1482'> +1.2318833e-12 </wgt>
<wgt id='1483'> +1.2189424e-12 </wgt>
<wgt id='1484'> +1.2280303e-12 </wgt>
<wgt id='1485'> +1.2408624e-12 </wgt>
<wgt id='1486'> +1.2276792e-12 </wgt>
<wgt id='1487'> +1.2302674e-12 </wgt>
<wgt id='1488'> +1.2230874e-12 </wgt>
<wgt id='1489'> +1.2538748e-12 </wgt>
<wgt id='1490'> +1.2281103e-12 </wgt>
<wgt id='1491'> +1.2319048e-12 </wgt>
<wgt id='1492'> +1.2260463e-12 </wgt>
<wgt id='1493'> +1.2073453e-12 </wgt>
<wgt id='1494'> +1.2292790e-12 </wgt>
<wgt id='1495'> +1.2343637e-12 </wgt>
<wgt id='1496'> +1.2271607e-12 </wgt>
<wgt id='1497'> +1.2306533e-12 </wgt>
<wgt id='1498'> +1.2267496e-12 </wgt>
<wgt id='1499'> +1.2313812e-12 </wgt>
<wgt id='1500'> +1.2271333e-12 </wgt>
<wgt id='1501'> +1.2270345e-12 </wgt>
<wgt id='1502'> +1.2283636e-12 </wgt>
<wgt id='1503'> +1.2304663e-12 </wgt>
<wgt id='1504'> +1.2274739e-12 </wgt>
<wgt id='1505'> +1.2288918e-12 </wgt>
<wgt id='1506'> +1.2291954e-12 </wgt>
<wgt id='1507'> +1.2274619e-12 </wgt>
<wgt id='1508'> +1.2339882e-12 </wgt>
<wgt id='1509'> +1.2104661e-12 </wgt>
<wgt id='1510'> +1.2081859e-12 </wgt>
<wgt id='1511'> +1.2129331e-12 </wgt>
<wgt id='1512'> +1.2110137e-12 </wgt>
<wgt id='1513'> +1.2120089e-12 </wgt>
<wgt id='1514'> +1.2110344e-12 </wgt>
<wgt id='1515'> +1.2111927e-12 </wgt>
<wgt id='1516'> +1.2138614e-12 </wgt>
<wgt id='1517'> +1.2178323e-12 </wgt>
<wgt id='1518'> +1.2088424e-12 </wgt>
<wgt id='1519'> +1.2043549e-12 </wgt>
<wgt id='1520'> +1.2207725e-12 </wgt>
<wgt id='1521'> +1.2177037e-12 </wgt>
<wgt id='1522'> +1.2216113e-12 </wgt>
<wgt id='1523'> +1.2159691e-12 </wgt>
<wgt id='1524'> +1.2130954e-12 </wgt>
<wgt id='1525'> +1.2087965e-12 </wgt>
<wgt id='1526'> +1.2130885e-12 </wgt>
<wgt id='1527'> +1.2135767e-12 </wgt>
<wgt id='1528'> +1.2068089e-12 </wgt>
<wgt id='1529'> +1.2119192e-12 </wgt>
<wgt id='1530'> +1.2029739e-12 </wgt>
<wgt id='1531'> +1.2101823e-12 </wgt>
<wgt id='1532'> +1.2094385e-12 </wgt>
<wgt id='1533'> +1.2082581e-12 </wgt>
<wgt id='1534'> +1.2053560e-12 </wgt>
<wgt id='1535'> +1.2156261e-12 </wgt>
<wgt id='1536'> +1.2144807e-12 </wgt>
<wgt id='1537'> +1.2110388e-12 </wgt>
<wgt id='1538'> +1.2099994e-12 </wgt>
<wgt id='1539'> +1.2099797e-12 </wgt>
<wgt id='1540'> +1.2089935e-12 </wgt>
<wgt id='1541'> +1.2103752e-12 </wgt>
<wgt id='1542'> +1.2086785e-12 </wgt>
<wgt id='1543'> +1.2116577e-12 </wgt>
<wgt id='1544'> +1.2122027e-12 </wgt>
<wgt id='1545'> +1.2094680e-12 </wgt>
<wgt id='1546'> +1.2095318e-12 </wgt>
<wgt id='1547'> +1.2098623e-12 </wgt>
<wgt id='1548'> +1.2117575e-12 </wgt>
<wgt id='1549'> +1.2118600e-12 </wgt>
<wgt id='1550'> +1.2096498e-12 </wgt>
<wgt id='1551'> +1.2114888e-12 </wgt>
<wgt id='1552'> +1.2103875e-12 </wgt>
<wgt id='1553'> +1.2096123e-12 </wgt>
<wgt id='1554'> +1.2090424e-12 </wgt>
<wgt id='1555'> +1.2103530e-12 </wgt>
<wgt id='1556'> +1.2110462e-12 </wgt>
<wgt id='1557'> +1.2110921e-12 </wgt>
<wgt id='1558'> +1.2105245e-12 </wgt>
<wgt id='1559'> +1.2093274e-12 </wgt>
<wgt id='1560'> +1.2108358e-12 </wgt>
<wgt id='1561'> +1.2101087e-12 </wgt>
<wgt id='1562'> +1.2100680e-12 </wgt>
<wgt id='1563'> +1.2107973e-12 </wgt>
<wgt id='1564'> +1.2106238e-12 </wgt>
<wgt id='1565'> +1.2103844e-12 </wgt>
<wgt id='1566'> +1.2104891e-12 </wgt>
<wgt id='1567'> +1.2104543e-12 </wgt>
<wgt id='1568'> +1.2097772e-12 </wgt>
<wgt id='1569'> +1.2104202e-12 </wgt>
<wgt id='1570'> +1.2105295e-12 </wgt>
<wgt id='1571'> +1.2104867e-12 </wgt>
<wgt id='1572'> +1.2101240e-12 </wgt>
<wgt id='1573'> +1.2107782e-12 </wgt>
<wgt id='1574'> +1.2104512e-12 </wgt>
<wgt id='1575'> +1.2105235e-12 </wgt>
<wgt id='1576'> +1.2104969e-12 </wgt>
<wgt id='1577'> +1.2109442e-12 </wgt>
<wgt id='1578'> +1.2102349e-12 </wgt>
<wgt id='1579'> +1.2104906e-12 </wgt>
<wgt id='1580'> +1.2108862e-12 </wgt>
<wgt id='1581'> +1.2111282e-12 </wgt>
<wgt id='1582'> +1.2108699e-12 </wgt>
<wgt id='1583'> +1.2106879e-12 </wgt>
<wgt id='1584'> +1.2107308e-12 </wgt>
<wgt id='1585'> +1.2103822e-12 </wgt>
<wgt id='1586'> +1.2112938e-12 </wgt>
<wgt id='1587'> +1.2107373e-12 </wgt>
<wgt id='1588'> +1.2101279e-12 </wgt>
<wgt id='1589'> +1.2105474e-12 </wgt>
<wgt id='1590'> +1.2102417e-12 </wgt>
<wgt id='1591'> +1.2102294e-12 </wgt>
<wgt id='1592'> +1.2106333e-12 </wgt>
<wgt id='1593'> +1.2112943e-12 </wgt>
<wgt id='1594'> +1.2099729e-12 </wgt>
<wgt id='1595'> +1.2110854e-12 </wgt>
<wgt id='1596'> +1.2103163e-12 </wgt>
<wgt id='1597'> +1.2101122e-12 </wgt>
<wgt id='1598'> +1.2111457e-12 </wgt>
<wgt id='1599'> +1.2104505e-12 </wgt>
<wgt id='1600'> +1.2103115e-12 </wgt>
<wgt id='1601'> +1.2110664e-12 </wgt>
<wgt id='1602'> +1.2108598e-12 </wgt>
<wgt id='1603'> +1.2107121e-12 </wgt>
<wgt id='1604'> +1.2104632e-12 </wgt>
<wgt id='1605'> +1.2109202e-12 </wgt>
<wgt id='1606'> +1.2093699e-12 </wgt>
<wgt id='1607'> +1.2109674e-12 </wgt>
<wgt id='1608'> +1.2104735e-12 </wgt>
<wgt id='1609'> +1.2105187e-12 </wgt>
<wgt id='1610'> +1.1864085e-12 </wgt>
<wgt id='1611'> +1.2351456e-12 </wgt>
<wgt id='1612'> +1.4622507e-12 </wgt>
<wgt id='1613'> +1.4888246e-12 </wgt>
<wgt id='1614'> +1.4710416e-12 </wgt>
<wgt id='1615'> +1.4588412e-12 </wgt>
<wgt id='1616'> +1.4665325e-12 </wgt>
<wgt id='1617'> +1.4127633e-12 </wgt>
<wgt id='1618'> +1.3728457e-12 </wgt>
<wgt id='1619'> +1.4550043e-12 </wgt>
<wgt id='1620'> +1.4714433e-12 </wgt>
<wgt id='1621'> +1.4549367e-12 </wgt>
<wgt id='1622'> +1.4672927e-12 </wgt>
<wgt id='1623'> +1.4562145e-12 </wgt>
<wgt id='1624'> +1.4410022e-12 </wgt>
<wgt id='1625'> +1.4763180e-12 </wgt>
<wgt id='1626'> +1.4814788e-12 </wgt>
<wgt id='1627'> +1.4506959e-12 </wgt>
<wgt id='1628'> +1.4938509e-12 </wgt>
<wgt id='1629'> +1.5025421e-12 </wgt>
<wgt id='1630'> +1.4701180e-12 </wgt>
<wgt id='1631'> +1.4608464e-12 </wgt>
<wgt id='1632'> +1.5048207e-12 </wgt>
<wgt id='1633'> +1.4434674e-12 </wgt>
<wgt id='1634'> +1.4878525e-12 </wgt>
<wgt id='1635'> +1.4419504e-12 </wgt>
<wgt id='1636'> +1.4271019e-12 </wgt>
<wgt id='1637'> +1.4106577e-12 </wgt>
<wgt id='1638'> +1.4773371e-12 </wgt>
<wgt id='1639'> +1.4763511e-12 </wgt>
<wgt id='1640'> +1.4986117e-12 </wgt>
<wgt id='1641'> +1.4396271e-12 </wgt>
<wgt id='1642'> +1.4824199e-12 </wgt>
<wgt id='1643'> +1.5006446e-12 </wgt>
<wgt id='1644'> +1.4312429e-12 </wgt>
<wgt id='1645'> +1.4920462e-12 </wgt>
<wgt id='1646'> +1.5079075e-12 </wgt>
<wgt id='1647'> +1.4918889e-12 </wgt>
<wgt id='1648'> +1.4842727e-12 </wgt>
<wgt id='1649'> +1.3941140e-12 </wgt>
<wgt id='1650'> +1.4708086e-12 </wgt>
<wgt id='1651'> +1.4094841e-12 </wgt>
<wgt id='1652'> +1.4930549e-12 </wgt>
<wgt id='1653'> +1.4275399e-12 </wgt>
<wgt id='1654'> +1.4128502e-12 </wgt>
<wgt id='1655'> +1.4260787e-12 </wgt>
<wgt id='1656'> +1.4778732e-12 </wgt>
<wgt id='1657'> +1.4290853e-12 </wgt>
<wgt id='1658'> +1.4601660e-12 </wgt>
<wgt id='1659'> +1.4410022e-12 </wgt>
<wgt id='1660'> +1.4334445e-12 </wgt>
<wgt id='1661'> +1.4371702e-12 </wgt>
<wgt id='1662'> +1.4806340e-12 </wgt>
<wgt id='1663'> +1.4545344e-12 </wgt>
<wgt id='1664'> +1.5349342e-12 </wgt>
<wgt id='1665'> +1.4758090e-12 </wgt>
<wgt id='1666'> +1.4346161e-12 </wgt>
<wgt id='1667'> +1.4481024e-12 </wgt>
<wgt id='1668'> +1.4380926e-12 </wgt>
<wgt id='1669'> +1.4557934e-12 </wgt>
<wgt id='1670'> +1.4760935e-12 </wgt>
<wgt id='1671'> +1.5064708e-12 </wgt>
<wgt id='1672'> +1.4988477e-12 </wgt>
<wgt id='1673'> +1.4235014e-12 </wgt>
<wgt id='1674'> +1.4616362e-12 </wgt>
<wgt id='1675'> +1.5308878e-12 </wgt>
<wgt id='1676'> +1.4527195e-12 </wgt>
<wgt id='1677'> +1.4753355e-12 </wgt>
<wgt id='1678'> +1.4594521e-12 </wgt>
<wgt id='1679'> +1.4781701e-12 </wgt>
<wgt id='1680'> +1.4986955e-12 </wgt>
<wgt id='1681'> +1.4863411e-12 </wgt>
<wgt id='1682'> +1.4548459e-12 </wgt>
<wgt id='1683'> +1.4433784e-12 </wgt>
<wgt id='1684'> +1.4547469e-12 </wgt>
<wgt id='1685'> +1.4652503e-12 </wgt>
<wgt id='1686'> +1.4763934e-12 </wgt>
<wgt id='1687'> +1.4926118e-12 </wgt>
<wgt id='1688'> +1.4707358e-12 </wgt>
<wgt id='1689'> +1.4558076e-12 </wgt>
<wgt id='1690'> +1.4497128e-12 </wgt>
<wgt id='1691'> +1.4942025e-12 </wgt>
<wgt id='1692'> +1.4858292e-12 </wgt>
<wgt id='1693'> +1.4824536e-12 </wgt>
<wgt id='1694'> +1.4083836e-12 </wgt>
<wgt id='1695'> +1.4974042e-12 </wgt>
<wgt id='1696'> +1.5161244e-12 </wgt>
<wgt id='1697'> +1.4301564e-12 </wgt>
<wgt id='1698'> +1.4402461e-12 </wgt>
<wgt id='1699'> +1.4352149e-12 </wgt>
<wgt id='1700'> +1.4484015e-12 </wgt>
<wgt id='1701'> +1.4653372e-12 </wgt>
<wgt id='1702'> +1.4245250e-12 </wgt>
<wgt id='1703'> +1.4970909e-12 </wgt>
<wgt id='1704'> +1.4597125e-12 </wgt>
<wgt id='1705'> +1.4817176e-12 </wgt>
<wgt id='1706'> +1.4571585e-12 </wgt>
<wgt id='1707'> +1.4297376e-12 </wgt>
<wgt id='1708'> +1.4448567e-12 </wgt>
<wgt id='1709'> +1.4678489e-12 </wgt>
<wgt id='1710'> +1.4276455e-12 </wgt>
<wgt id='1711'> +1.4519397e-12 </wgt>
<wgt id='1712'> +1.4841338e-12 </wgt>
<wgt id='1713'> +1.2383303e-12 </wgt>
<wgt id='1714'> +1.1855667e-12 </wgt>
<wgt id='1715'> +1.2371300e-12 </wgt>
<wgt id='1716'> +1.2368064e-12 </wgt>
<wgt id='1717'> +1.2158092e-12 </wgt>
<wgt id='1718'> +1.2170901e-12 </wgt>
<wgt id='1719'> +1.2452020e-12 </wgt>
<wgt id='1720'> +1.2569248e-12 </wgt>
<wgt id='1721'> +1.2232007e-12 </wgt>
<wgt id='1722'> +1.2283883e-12 </wgt>
<wgt id='1723'> +1.2158091e-12 </wgt>
<wgt id='1724'> +1.2601086e-12 </wgt>
<wgt id='1725'> +1.2572220e-12 </wgt>
<wgt id='1726'> +1.2602774e-12 </wgt>
<wgt id='1727'> +1.2200457e-12 </wgt>
<wgt id='1728'> +1.2381010e-12 </wgt>
<wgt id='1729'> +1.2433112e-12 </wgt>
<wgt id='1730'> +1.2115422e-12 </wgt>
<wgt id='1731'> +1.2029563e-12 </wgt>
<wgt id='1732'> +1.2443767e-12 </wgt>
<wgt id='1733'> +1.2344168e-12 </wgt>
<wgt id='1734'> +1.2537419e-12 </wgt>
<wgt id='1735'> +1.2474520e-12 </wgt>
<wgt id='1736'> +1.3348410e-12 </wgt>
<wgt id='1737'> +1.2444639e-12 </wgt>
<wgt id='1738'> +1.2599596e-12 </wgt>
<wgt id='1739'> +1.2036108e-12 </wgt>
<wgt id='1740'> +1.1928200e-12 </wgt>
<wgt id='1741'> +1.2411515e-12 </wgt>
<wgt id='1742'> +1.2204849e-12 </wgt>
<wgt id='1743'> +1.2605240e-12 </wgt>
<wgt id='1744'> +1.2540063e-12 </wgt>
<wgt id='1745'> +1.1981349e-12 </wgt>
<wgt id='1746'> +1.2637432e-12 </wgt>
<wgt id='1747'> +1.2636505e-12 </wgt>
<wgt id='1748'> +1.2366952e-12 </wgt>
<wgt id='1749'> +1.2570788e-12 </wgt>
<wgt id='1750'> +1.2560731e-12 </wgt>
<wgt id='1751'> +1.2077956e-12 </wgt>
<wgt id='1752'> +1.1878245e-12 </wgt>
<wgt id='1753'> +1.2673984e-12 </wgt>
<wgt id='1754'> +1.2201022e-12 </wgt>
<wgt id='1755'> +1.2563328e-12 </wgt>
<wgt id='1756'> +1.2661728e-12 </wgt>
<wgt id='1757'> +1.2396744e-12 </wgt>
<wgt id='1758'> +1.2774276e-12 </wgt>
<wgt id='1759'> +1.2386014e-12 </wgt>
<wgt id='1760'> +1.2106728e-12 </wgt>
<wgt id='1761'> +1.2077505e-12 </wgt>
<wgt id='1762'> +1.2423650e-12 </wgt>
<wgt id='1763'> +1.2479552e-12 </wgt>
<wgt id='1764'> +1.2486884e-12 </wgt>
<wgt id='1765'> +1.2409383e-12 </wgt>
<wgt id='1766'> +1.2655678e-12 </wgt>
<wgt id='1767'> +1.2375142e-12 </wgt>
<wgt id='1768'> +1.2395959e-12 </wgt>
<wgt id='1769'> +1.2091413e-12 </wgt>
<wgt id='1770'> +1.2659264e-12 </wgt>
<wgt id='1771'> +1.2458740e-12 </wgt>
<wgt id='1772'> +1.2537860e-12 </wgt>
<wgt id='1773'> +1.2285175e-12 </wgt>
<wgt id='1774'> +1.2411474e-12 </wgt>
<wgt id='1775'> +1.2439686e-12 </wgt>
<wgt id='1776'> +1.2631308e-12 </wgt>
<wgt id='1777'> +1.2166777e-12 </wgt>
<wgt id='1778'> +1.2143924e-12 </wgt>
<wgt id='1779'> +1.2678070e-12 </wgt>
<wgt id='1780'> +1.2610047e-12 </wgt>
<wgt id='1781'> +1.2227483e-12 </wgt>
<wgt id='1782'> +1.1994117e-12 </wgt>
<wgt id='1783'> +1.2581178e-12 </wgt>
<wgt id='1784'> +1.2627644e-12 </wgt>
<wgt id='1785'> +1.2258464e-12 </wgt>
<wgt id='1786'> +1.1626655e-12 </wgt>
<wgt id='1787'> +1.2618611e-12 </wgt>
<wgt id='1788'> +1.2186422e-12 </wgt>
<wgt id='1789'> +1.2396503e-12 </wgt>
<wgt id='1790'> +1.2728914e-12 </wgt>
<wgt id='1791'> +1.2797163e-12 </wgt>
<wgt id='1792'> +1.2159324e-12 </wgt>
<wgt id='1793'> +1.2533826e-12 </wgt>
<wgt id='1794'> +1.2447217e-12 </wgt>
<wgt id='1795'> +1.2294226e-12 </wgt>
<wgt id='1796'> +1.2219150e-12 </wgt>
<wgt id='1797'> +1.2425357e-12 </wgt>
<wgt id='1798'> +1.2081790e-12 </wgt>
<wgt id='1799'> +1.2403754e-12 </wgt>
<wgt id='1800'> +1.2394668e-12 </wgt>
<wgt id='1801'> +1.2283256e-12 </wgt>
<wgt id='1802'> +1.2402926e-12 </wgt>
<wgt id='1803'> +1.2454621e-12 </wgt>
<wgt id='1804'> +1.1985231e-12 </wgt>
<wgt id='1805'> +1.2533840e-12 </wgt>
<wgt id='1806'> +1.2147077e-12 </wgt>
<wgt id='1807'> +1.2743485e-12 </wgt>
<wgt id='1808'> +1.2376826e-12 </wgt>
<wgt id='1809'> +1.2301916e-12 </wgt>
<wgt id='1810'> +1.2277493e-12 </wgt>
<wgt id='1811'> +1.2751329e-12 </wgt>
<wgt id='1812'> +1.2532254e-12 </wgt>
<wgt id='1813'> +1.2235740e-12 </wgt>
<wgt id='1814'> +1.0883245e-12 </wgt>
<wgt id='1815'> +1.2638233e-12 </wgt>
<wgt id='1816'> +1.2383303e-12 </wgt>
<wgt id='1817'> +1.1855667e-12 </wgt>
<wgt id='1818'> +1.2371300e-12 </wgt>
<wgt id='1819'> +1.2368064e-12 </wgt>
<wgt id='1820'> +1.2158092e-12 </wgt>
<wgt id='1821'> +1.2170901e-12 </wgt>
<wgt id='1822'> +1.2452020e-12 </wgt>
<wgt id='1823'> +1.2569248e-12 </wgt>
<wgt id='1824'> +1.2232007e-12 </wgt>
<wgt id='1825'> +1.2283883e-12 </wgt>
<wgt id='1826'> +1.2158091e-12 </wgt>
<wgt id='1827'> +1.2601086e-12 </wgt>
<wgt id='1828'> +1.2572220e-12 </wgt>
<wgt id='1829'> +1.2602774e-12 </wgt>
<wgt id='1830'> +1.2200457e-12 </wgt>
<wgt id='1831'> +1.2381010e-12 </wgt>
<wgt id='1832'> +1.2433112e-12 </wgt>
<wgt id='1833'> +1.2115422e-12 </wgt>
<wgt id='1834'> +1.2029563e-12 </wgt>
<wgt id='1835'> +1.2443767e-12 </wgt>
<wgt id='1836'> +1.2344168e-12 </wgt>
<wgt id='1837'> +1.2537419e-12 </wgt>
<wgt id='1838'> +1.2474520e-12 </wgt>
<wgt id='1839'> +1.3348410e-12 </wgt>
<wgt id='1840'> +1.2444639e-12 </wgt>
<wgt id='1841'> +1.2599596e-12 </wgt>
<wgt id='1842'> +1.2036108e-12 </wgt>
<wgt id='1843'> +1.1928200e-12 </wgt>
<wgt id='1844'> +1.2411515e-12 </wgt>
<wgt id='1845'> +1.2204849e-12 </wgt>
<wgt id='1846'> +1.2605240e-12 </wgt>
<wgt id='1847'> +1.2540063e-12 </wgt>
<wgt id='1848'> +1.1981349e-12 </wgt>
<wgt id='1849'> +1.2637432e-12 </wgt>
<wgt id='1850'> +1.2636505e-12 </wgt>
<wgt id='1851'> +1.2366952e-12 </wgt>
<wgt id='1852'> +1.2570788e-12 </wgt>
<wgt id='1853'> +1.2560731e-12 </wgt>
<wgt id='1854'> +1.2077956e-12 </wgt>
<wgt id='1855'> +1.1878245e-12 </wgt>
<wgt id='1856'> +1.2673984e-12 </wgt>
<wgt id='1857'> +1.2201022e-12 </wgt>
<wgt id='1858'> +1.2563328e-12 </wgt>
<wgt id='1859'> +1.2661728e-12 </wgt>
<wgt id='1860'> +1.2396744e-12 </wgt>
<wgt id='1861'> +1.2774276e-12 </wgt>
<wgt id='1862'> +1.2386014e-12 </wgt>
<wgt id='1863'> +1.2106728e-12 </wgt>
<wgt id='1864'> +1.2077505e-12 </wgt>
<wgt id='1865'> +1.2423650e-12 </wgt>
<wgt id='1866'> +1.2479552e-12 </wgt>
<wgt id='1867'> +1.2486884e-12 </wgt>
<wgt id='1868'> +1.2409383e-12 </wgt>
<wgt id='1869'> +1.2655678e-12 </wgt>
<wgt id='1870'> +1.2375142e-12 </wgt>
<wgt id='1871'> +1.2395959e-12 </wgt>
<wgt id='1872'> +1.2091413e-12 </wgt>
<wgt id='1873'> +1.2659264e-12 </wgt>
<wgt id='1874'> +1.2458740e-12 </wgt>
<wgt id='1875'> +1.2537860e-12 </wgt>
<wgt id='1876'> +1.2285175e-12 </wgt>
<wgt id='1877'> +1.2411474e-12 </wgt>
<wgt id='1878'> +1.2439686e-12 </wgt>
<wgt id='1879'> +1.2631308e-12 </wgt>
<wgt id='1880'> +1.2166777e-12 </wgt>
<wgt id='1881'> +1.2143924e-12 </wgt>
<wgt id='1882'> +1.2678070e-12 </wgt>
<wgt id='1883'> +1.2610047e-12 </wgt>
<wgt id='1884'> +1.2227483e-12 </wgt>
<wgt id='1885'> +1.1994117e-12 </wgt>
<wgt id='1886'> +1.2581178e-12 </wgt>
<wgt id='1887'> +1.2627644e-12 </wgt>
<wgt id='1888'> +1.2258464e-12 </wgt>
<wgt id='1889'> +1.1626655e-12 </wgt>
<wgt id='1890'> +1.2618611e-12 </wgt>
<wgt id='1891'> +1.2186422e-12 </wgt>
<wgt id='1892'> +1.2396503e-12 </wgt>
<wgt id='1893'> +1.2728914e-12 </wgt>
<wgt id='1894'> +1.2797163e-12 </wgt>
<wgt id='1895'> +1.2159324e-12 </wgt>
<wgt id='1896'> +1.2533826e-12 </wgt>
<wgt id='1897'> +1.2447217e-12 </wgt>
<wgt id='1898'> +1.2294226e-12 </wgt>
<wgt id='1899'> +1.2219150e-12 </wgt>
<wgt id='1900'> +1.2425357e-12 </wgt>
<wgt id='1901'> +1.2081790e-12 </wgt>
<wgt id='1902'> +1.2403754e-12 </wgt>
<wgt id='1903'> +1.2394668e-12 </wgt>
<wgt id='1904'> +1.2283256e-12 </wgt>
<wgt id='1905'> +1.2402926e-12 </wgt>
<wgt id='1906'> +1.2454621e-12 </wgt>
<wgt id='1907'> +1.1985231e-12 </wgt>
<wgt id='1908'> +1.2533840e-12 </wgt>
<wgt id='1909'> +1.2147077e-12 </wgt>
<wgt id='1910'> +1.2743485e-12 </wgt>
<wgt id='1911'> +1.2376826e-12 </wgt>
<wgt id='1912'> +1.2301916e-12 </wgt>
<wgt id='1913'> +1.2277493e-12 </wgt>
<wgt id='1914'> +1.2751329e-12 </wgt>
<wgt id='1915'> +1.2532254e-12 </wgt>
<wgt id='1916'> +1.2235740e-12 </wgt>
<wgt id='1917'> +1.2215761e-12 </wgt>
<wgt id='1918'> +1.2487678e-12 </wgt>
<wgt id='1919'> +1.2021173e-12 </wgt>
</rwgt>
</event>
<event>
 9      1 +1.5607000e-12 4.94097500e+01 7.81860800e-03 1.31435400e-01
       21 -1    0    0  501  502 +0.0000000000e+00 +0.0000000000e+00 +2.0221556939e+01 2.0221556939e+01 0.0000000000e+00 0.0000e+00 1.0000e+00
        2 -1    0    0  502    0 -0.0000000000e+00 -0.0000000000e+00 -3.0182187979e+01 3.0182187979e+01 0.0000000000e+00 0.0000e+00 -1.0000e+00
     1023  2    1    2    0    0 -5.9172857003e+00 +2.1385060040e+01 -8.7732589539e+00 2.8183373286e+01 1.4999913137e+01 0.0000e+00 0.0000e+00
  1000023  2    3    3    0    0 -6.9721399651e+00 +1.6106153853e+01 -2.5755943847e+00 1.8571369636e+01 5.4993777912e+00 0.0000e+00 0.0000e+00
        2  1    1    2  501    0 +5.9172857003e+00 -2.1385060040e+01 -1.1873720857e+00 2.2220371632e+01 0.0000000000e+00 0.0000e+00 -1.0000e+00
  1000022  1    4    4    0    0 -6.6936978718e+00 +1.5655597441e+01 -2.3997888054e+00 1.7907046344e+01 5.0000000000e+00 0.0000e+00 1.0000e+00
      -11  1    4    4    0    0 -3.2180497640e-01 +2.0285657888e-01 -1.5898749659e-01 4.1229421488e-01 5.1100000000e-04 0.0000e+00 1.0000e+00
       11  1    4    4    0    0 +4.3362883198e-02 +2.4769983270e-01 -1.6818082726e-02 2.5202907726e-01 5.1100000000e-04 0.0000e+00 -1.0000e+00
  1000022  1    3    3    0    0 +1.0548542647e+00 +5.2789061874e+00 -6.1976645692e+00 9.6120036500e+00 5.0000000000e+00 0.0000e+00 1.0000e+00
<mgrwt>
<rscale>  1 0.49409749E+02</rscale>
<asrwt>0</asrwt>
<pdfrwt beam="1">  1       21 0.31110087E-02 0.49409749E+02</pdfrwt>
<pdfrwt beam="2">  1        2 0.46434136E-02 0.49409749E+02</pdfrwt>
<totfact> 0.11309209E+07</totfact>
</mgrwt>
<rwgt>
<wgt id='1001'> +1.5607000e-12 </wgt>
<wgt id='1002'> +1.5555103e-12 </wgt>
<wgt id='1003'> +1.5577189e-12 </wgt>
<wgt id='1004'> +1.4657915e-12 </wgt>
<wgt id='1005'> +1.5607000e-12 </wgt>
<wgt id='1006'> +1.3827265e-12 </wgt>
<wgt id='1007'> +1.3764584e-12 </wgt>
<wgt id='1008'> +1.3791208e-12 </wgt>
<wgt id='1009'> +1.2742786e-12 </wgt>
<wgt id='1010'> +1.3827265e-12 </wgt>
<wgt id='1011'> +1.7936009e-12 </wgt>
<wgt id='1012'> +1.7905012e-12 </wgt>
<wgt id='1013'> +1.7918304e-12 </wgt>
<wgt id='1014'> +1.7285890e-12 </wgt>
<wgt id='1015'> +1.7936009e-12 </wgt>
<wgt id='1016'> +1.8157145e-12 </wgt>
<wgt id='1017'> +1.8150747e-12 </wgt>
<wgt id='1018'> +1.8153606e-12 </wgt>
<wgt id='1019'> +1.7918304e-12 </wgt>
<wgt id='1020'> +1.8157145e-12 </wgt>
<wgt id='1021'> +1.6086606e-12 </wgt>
<wgt id='1022'> +1.6061449e-12 </wgt>
<wgt id='1023'> +1.6072230e-12 </wgt>
<wgt id='1024'> +1.5577189e-12 </wgt>
<wgt id='1025'> +1.6086606e-12 </wgt>
<wgt id='1026'> +2.0866709e-12 </wgt>
<wgt id='1027'> +2.0892781e-12 </wgt>
<wgt id='1028'> +2.0881934e-12 </wgt>
<wgt id='1029'> +2.1130825e-12 </wgt>
<wgt id='1030'> +2.0866709e-12 </wgt>
<wgt id='1031'> +1.2799358e-12 </wgt>
<wgt id='1032'> +1.2701105e-12 </wgt>
<wgt id='1033'> +1.2742786e-12 </wgt>
<wgt id='1034'> +1.1128431e-12 </wgt>
<wgt id='1035'> +1.2799358e-12 </wgt>
<wgt id='1036'> +1.1339791e-12 </wgt>
<wgt id='1037'> +1.1239105e-12 </wgt>
<wgt id='1038'> +1.1281780e-12 </wgt>
<wgt id='1039'> +9.6744461e-13 </wgt>
<wgt id='1040'> +1.1339791e-12 </wgt>
<wgt id='1041'> +1.4709387e-12 </wgt>
<wgt id='1042'> +1.4619862e-12 </wgt>
<wgt id='1043'> +1.4657915e-12 </wgt>
<wgt id='1044'> +1.3123615e-12 </wgt>
<wgt id='1045'> +1.4709387e-12 </wgt>
<wgt id='1046'> +1.5607000e-12 </wgt>
<wgt id='1047'> +1.5836265e-12 </wgt>
<wgt id='1048'> +1.5408311e-12 </wgt>
<wgt id='1049'> +1.5432013e-12 </wgt>
<wgt id='1050'> +1.5412862e-12 </wgt>
<wgt id='1051'> +1.5761133e-12 </wgt>
<wgt id='1052'> +1.5522530e-12 </wgt>
<wgt id='1053'> +1.5484196e-12 </wgt>
<wgt id='1054'> +1.5410172e-12 </wgt>
<wgt id='1055'> +1.5278604e-12 </wgt>
<wgt id='1056'> +1.5666964e-12 </wgt>
<wgt id='1057'> +1.5934167e-12 </wgt>
<wgt id='1058'> +1.5162862e-12 </wgt>
<wgt id='1059'> +1.5654051e-12 </wgt>
<wgt id='1060'> +1.5677153e-12 </wgt>
<wgt id='1061'> +1.5597377e-12 </wgt>
<wgt id='1062'> +1.5671809e-12 </wgt>
<wgt id='1063'> +1.5835503e-12 </wgt>
<wgt id='1064'> +1.5596448e-12 </wgt>
<wgt id='1065'> +1.5532056e-12 </wgt>
<wgt id='1066'> +1.5507260e-12 </wgt>
<wgt id='1067'> +1.5107587e-12 </wgt>
<wgt id='1068'> +1.5770352e-12 </wgt>
<wgt id='1069'> +1.5635987e-12 </wgt>
<wgt id='1070'> +1.5533545e-12 </wgt>
<wgt id='1071'> +1.5159109e-12 </wgt>
<wgt id='1072'> +1.5896640e-12 </wgt>
<wgt id='1073'> +1.5843592e-12 </wgt>
<wgt id='1074'> +1.5353900e-12 </wgt>
<wgt id='1075'> +1.5597792e-12 </wgt>
<wgt id='1076'> +1.5645628e-12 </wgt>
<wgt id='1077'> +1.5702440e-12 </wgt>
<wgt id='1078'> +1.5378715e-12 </wgt>
<wgt id='1079'> +1.5428927e-12 </wgt>
<wgt id='1080'> +1.5270286e-12 </wgt>
<wgt id='1081'> +1.6106317e-12 </wgt>
<wgt id='1082'> +1.5457034e-12 </wgt>
<wgt id='1083'> +1.5873711e-12 </wgt>
<wgt id='1084'> +1.5510328e-12 </wgt>
<wgt id='1085'> +1.5489516e-12 </wgt>
<wgt id='1086'> +1.5574946e-12 </wgt>
<wgt id='1087'> +1.5680276e-12 </wgt>
<wgt id='1088'> +1.5446473e-12 </wgt>
<wgt id='1089'> +1.5808390e-12 </wgt>
<wgt id='1090'> +1.5483572e-12 </wgt>
<wgt id='1091'> +1.5642289e-12 </wgt>
<wgt id='1092'> +1.5831585e-12 </wgt>
<wgt id='1093'> +1.5510630e-12 </wgt>
<wgt id='1094'> +1.5800121e-12 </wgt>
<wgt id='1095'> +1.5751637e-12 </wgt>
<wgt id='1096'> +1.5932765e-12 </wgt>
<wgt id='1097'> +1.5416930e-12 </wgt>
<wgt id='1098'> +1.5371420e-12 </wgt>
<wgt id='1099'> +1.5622512e-12 </wgt>
<wgt id='1100'> +1.5542742e-12 </wgt>
<wgt id='1101'> +1.5772009e-12 </wgt>
<wgt id='1102'> +1.5643879e-12 </wgt>
<wgt id='1103'> +1.5895363e-12 </wgt>
<wgt id='1104'> +1.5423322e-12 </wgt>
<wgt id='1105'> +1.5733927e-12 </wgt>
<wgt id='1106'> +1.5792552e-12 </wgt>
<wgt id='1107'> +1.5646139e-12 </wgt>
<wgt id='1108'> +1.5586766e-12 </wgt>
<wgt id='1109'> +1.6061024e-12 </wgt>
<wgt id='1110'> +1.5561086e-12 </wgt>
<wgt id='1111'> +1.5642375e-12 </wgt>
<wgt id='1112'> +1.5850685e-12 </wgt>
<wgt id='1113'> +1.5664304e-12 </wgt>
<wgt id='1114'> +1.5699201e-12 </wgt>
<wgt id='1115'> +1.5313039e-12 </wgt>
<wgt id='1116'> +1.5271351e-12 </wgt>
<wgt id='1117'> +1.5560354e-12 </wgt>
<wgt id='1118'> +1.6241208e-12 </wgt>
<wgt id='1119'> +1.5263607e-12 </wgt>
<wgt id='1120'> +1.5554385e-12 </wgt>
<wgt id='1121'> +1.5620133e-12 </wgt>
<wgt id='1122'> +1.6018671e-12 </wgt>
<wgt id='1123'> +1.5296475e-12 </wgt>
<wgt id='1124'> +1.5332322e-12 </wgt>
<wgt id='1125'> +1.5474685e-12 </wgt>
<wgt id='1126'> +1.5939378e-12 </wgt>
<wgt id='1127'> +1.5443364e-12 </wgt>
<wgt id='1128'> +1.5671809e-12 </wgt>
<wgt id='1129'> +1.5611001e-12 </wgt>
<wgt id='1130'> +1.5629928e-12 </wgt>
<wgt id='1131'> +1.5679986e-12 </wgt>
<wgt id='1132'> +1.5649253e-12 </wgt>
<wgt id='1133'> +1.5640536e-12 </wgt>
<wgt id='1134'> +1.5965408e-12 </wgt>
<wgt id='1135'> +1.5293931e-12 </wgt>
<wgt id='1136'> +1.5394867e-12 </wgt>
<wgt id='1137'> +1.5326417e-12 </wgt>
<wgt id='1138'> +1.5667243e-12 </wgt>
<wgt id='1139'> +1.5707955e-12 </wgt>
<wgt id='1140'> +1.5812775e-12 </wgt>
<wgt id='1141'> +1.5412359e-12 </wgt>
<wgt id='1142'> +1.5397548e-12 </wgt>
<wgt id='1143'> +1.5839317e-12 </wgt>
<wgt id='1144'> +1.5753225e-12 </wgt>
<wgt id='1145'> +1.5714324e-12 </wgt>
<wgt id='1146'> +1.5653319e-12 </wgt>
<wgt id='1147'> +1.2365121e-12 </wgt>
<wgt id='1148'> +1.2664229e-12 </wgt>
<wgt id='1149'> +1.2915427e-12 </wgt>
<wgt id='1150'> +1.2656460e-12 </wgt>
<wgt id='1151'> +1.2933633e-12 </wgt>
<wgt id='1152'> +1.6479420e-12 </wgt>
<wgt id='1153'> +1.6388038e-12 </wgt>
<wgt id='1154'> +1.6532018e-12 </wgt>
<wgt id='1155'> +1.6476219e-12 </wgt>
<wgt id='1156'> +1.6481166e-12 </wgt>
<wgt id='1157'> +1.6502915e-12 </wgt>
<wgt id='1158'> +1.6447512e-12 </wgt>
<wgt id='1159'> +1.6499649e-12 </wgt>
<wgt id='1160'> +1.6466547e-12 </wgt>
<wgt id='1161'> +1.6438818e-12 </wgt>
<wgt id='1162'> +1.6506973e-12 </wgt>
<wgt id='1163'> +1.6518282e-12 </wgt>
<wgt id='1164'> +1.6440368e-12 </wgt>
<wgt id='1165'> +1.6364680e-12 </wgt>
<wgt id='1166'> +1.6590664e-12 </wgt>
<wgt id='1167'> +1.6567305e-12 </wgt>
<wgt id='1168'> +1.6357221e-12 </wgt>
<wgt id='1169'> +1.6500650e-12 </wgt>
<wgt id='1170'> +1.6463720e-12 </wgt>
<wgt id='1171'> +1.6444392e-12 </wgt>
<wgt id='1172'> +1.6520173e-12 </wgt>
<wgt id='1173'> +1.6384044e-12 </wgt>
<wgt id='1174'> +1.6566884e-12 </wgt>
<wgt id='1175'> +1.6489166e-12 </wgt>
<wgt id='1176'> +1.6462287e-12 </wgt>
<wgt id='1177'> +1.6501260e-12 </wgt>
<wgt id='1178'> +1.6418730e-12 </wgt>
<wgt id='1179'> +1.6556580e-12 </wgt>
<wgt id='1180'> +1.6340814e-12 </wgt>
<wgt id='1181'> +1.6407290e-12 </wgt>
<wgt id='1182'> +1.6551382e-12 </wgt>
<wgt id='1183'> +1.6493375e-12 </wgt>
<wgt id='1184'> +1.6478329e-12 </wgt>
<wgt id='1185'> +1.6415913e-12 </wgt>
<wgt id='1186'> +1.6513611e-12 </wgt>
<wgt id='1187'> +1.6468405e-12 </wgt>
<wgt id='1188'> +1.6482939e-12 </wgt>
<wgt id='1189'> +1.6426586e-12 </wgt>
<wgt id='1190'> +1.6373181e-12 </wgt>
<wgt id='1191'> +1.6428076e-12 </wgt>
<wgt id='1192'> +1.6495702e-12 </wgt>
<wgt id='1193'> +1.2703530e-12 </wgt>
<wgt id='1194'> +1.2687990e-12 </wgt>
<wgt id='1195'> +1.2715860e-12 </wgt>
<wgt id='1196'> +1.2763072e-12 </wgt>
<wgt id='1197'> +1.2636988e-12 </wgt>
<wgt id='1198'> +1.2710410e-12 </wgt>
<wgt id='1199'> +1.2692347e-12 </wgt>
<wgt id='1200'> +1.2721145e-12 </wgt>
<wgt id='1201'> +1.2691431e-12 </wgt>
<wgt id='1202'> +1.2683081e-12 </wgt>
<wgt id='1203'> +1.2731988e-12 </wgt>
<wgt id='1204'> +1.2584222e-12 </wgt>
<wgt id='1205'> +1.2776754e-12 </wgt>
<wgt id='1206'> +1.2748162e-12 </wgt>
<wgt id='1207'> +1.2642793e-12 </wgt>
<wgt id='1208'> +1.2621281e-12 </wgt>
<wgt id='1209'> +1.2733067e-12 </wgt>
<wgt id='1210'> +1.2719894e-12 </wgt>
<wgt id='1211'> +1.2601294e-12 </wgt>
<wgt id='1212'> +1.2707508e-12 </wgt>
<wgt id='1213'> +1.2698689e-12 </wgt>
<wgt id='1214'> +1.2551337e-12 </wgt>
<wgt id='1215'> +1.2950802e-12 </wgt>
<wgt id='1216'> +1.2774541e-12 </wgt>
<wgt id='1217'> +1.2653322e-12 </wgt>
<wgt id='1218'> +1.2753628e-12 </wgt>
<wgt id='1219'> +1.2676760e-12 </wgt>
<wgt id='1220'> +1.2749312e-12 </wgt>
<wgt id='1221'> +1.2693594e-12 </wgt>
<wgt id='1222'> +1.2705723e-12 </wgt>
<wgt id='1223'> +1.2698890e-12 </wgt>
<wgt id='1224'> +1.2717094e-12 </wgt>
<wgt id='1225'> +1.2698148e-12 </wgt>
<wgt id='1226'> +1.2679624e-12 </wgt>
<wgt id='1227'> +1.2719722e-12 </wgt>
<wgt id='1228'> +1.2660362e-12 </wgt>
<wgt id='1229'> +1.2719493e-12 </wgt>
<wgt id='1230'> +1.2634992e-12 </wgt>
<wgt id='1231'> +1.2671058e-12 </wgt>
<wgt id='1232'> +1.2686430e-12 </wgt>
<wgt id='1233'> +1.2708089e-12 </wgt>
<wgt id='1234'> +1.2703530e-12 </wgt>
<wgt id='1235'> +1.2611251e-12 </wgt>
<wgt id='1236'> +1.2644341e-12 </wgt>
<wgt id='1237'> +1.2675076e-12 </wgt>
<wgt id='1238'> +1.2726534e-12 </wgt>
<wgt id='1239'> +1.2747841e-12 </wgt>
<wgt id='1240'> +1.2767499e-12 </wgt>
<wgt id='1241'> +1.2674297e-12 </wgt>
<wgt id='1242'> +1.2616367e-12 </wgt>
<wgt id='1243'> +1.2732288e-12 </wgt>
<wgt id='1244'> +1.2599426e-12 </wgt>
<wgt id='1245'> +1.2729514e-12 </wgt>
<wgt id='1246'> +1.2681493e-12 </wgt>
<wgt id='1247'> +1.2668122e-12 </wgt>
<wgt id='1248'> +1.2673841e-12 </wgt>
<wgt id='1249'> +1.2675468e-12 </wgt>
<wgt id='1250'> +1.2681749e-12 </wgt>
<wgt id='1251'> +1.2669683e-12 </wgt>
<wgt id='1252'> +1.2645514e-12 </wgt>
<wgt id='1253'> +1.2696707e-12 </wgt>
<wgt id='1254'> +1.2562969e-12 </wgt>
<wgt id='1255'> +1.2741068e-12 </wgt>
<wgt id='1256'> +1.2719541e-12 </wgt>
<wgt id='1257'> +1.2560151e-12 </wgt>
<wgt id='1258'> +1.2869312e-12 </wgt>
<wgt id='1259'> +1.2487712e-12 </wgt>
<wgt id='1260'> +1.2711218e-12 </wgt>
<wgt id='1261'> +1.2632439e-12 </wgt>
<wgt id='1262'> +1.2687666e-12 </wgt>
<wgt id='1263'> +1.2666576e-12 </wgt>
<wgt id='1264'> +1.2728832e-12 </wgt>
<wgt id='1265'> +1.2647159e-12 </wgt>
<wgt id='1266'> +1.2627777e-12 </wgt>
<wgt id='1267'> +1.2719225e-12 </wgt>
<wgt id='1268'> +1.2680866e-12 </wgt>
<wgt id='1269'> +1.2702494e-12 </wgt>
<wgt id='1270'> +1.2599796e-12 </wgt>
<wgt id='1271'> +1.2597728e-12 </wgt>
<wgt id='1272'> +1.2670715e-12 </wgt>
<wgt id='1273'> +1.2668149e-12 </wgt>
<wgt id='1274'> +1.2693171e-12 </wgt>
<wgt id='1275'> +1.2631523e-12 </wgt>
<wgt id='1276'> +1.2695543e-12 </wgt>
<wgt id='1277'> +1.2636434e-12 </wgt>
<wgt id='1278'> +1.2666629e-12 </wgt>
<wgt id='1279'> +1.2653184e-12 </wgt>
<wgt id='1280'> +1.2680042e-12 </wgt>
<wgt id='1281'> +1.2647570e-12 </wgt>
<wgt id='1282'> +1.2674297e-12 </wgt>
<wgt id='1283'> +1.2580690e-12 </wgt>
<wgt id='1284'> +1.2616055e-12 </wgt>
<wgt id='1285'> +1.2648520e-12 </wgt>
<wgt id='1286'> +1.2701004e-12 </wgt>
<wgt id='1287'> +1.2721915e-12 </wgt>
<wgt id='1288'> +1.2739672e-12 </wgt>
<wgt id='1289'> +1.3206696e-12 </wgt>
<wgt id='1290'> +1.3221443e-12 </wgt>
<wgt id='1291'> +1.3190965e-12 </wgt>
<wgt id='1292'> +1.3155418e-12 </wgt>
<wgt id='1293'> +1.3243542e-12 </wgt>
<wgt id='1294'> +1.3189325e-12 </wgt>
<wgt id='1295'> +1.3223678e-12 </wgt>
<wgt id='1296'> +1.3157520e-12 </wgt>
<wgt id='1297'> +1.3267172e-12 </wgt>
<wgt id='1298'> +1.3265490e-12 </wgt>
<wgt id='1299'> +1.3133120e-12 </wgt>
<wgt id='1300'> +1.3237183e-12 </wgt>
<wgt id='1301'> +1.3146199e-12 </wgt>
<wgt id='1302'> +1.3195631e-12 </wgt>
<wgt id='1303'> +1.3222678e-12 </wgt>
<wgt id='1304'> +1.3183370e-12 </wgt>
<wgt id='1305'> +1.3222412e-12 </wgt>
<wgt id='1306'> +1.3148634e-12 </wgt>
<wgt id='1307'> +1.3273736e-12 </wgt>
<wgt id='1308'> +1.3260779e-12 </wgt>
<wgt id='1309'> +1.3165377e-12 </wgt>
<wgt id='1310'> +1.3205667e-12 </wgt>
<wgt id='1311'> +1.3209640e-12 </wgt>
<wgt id='1312'> +1.3160045e-12 </wgt>
<wgt id='1313'> +1.3255068e-12 </wgt>
<wgt id='1314'> +1.3242570e-12 </wgt>
<wgt id='1315'> +1.3114322e-12 </wgt>
<wgt id='1316'> +1.3262752e-12 </wgt>
<wgt id='1317'> +1.3210262e-12 </wgt>
<wgt id='1318'> +1.3287613e-12 </wgt>
<wgt id='1319'> +1.3108195e-12 </wgt>
<wgt id='1320'> +1.3305979e-12 </wgt>
<wgt id='1321'> +1.3122429e-12 </wgt>
<wgt id='1322'> +1.3200885e-12 </wgt>
<wgt id='1323'> +1.3211508e-12 </wgt>
<wgt id='1324'> +1.3186222e-12 </wgt>
<wgt id='1325'> +1.3298026e-12 </wgt>
<wgt id='1326'> +1.3209137e-12 </wgt>
<wgt id='1327'> +1.3223278e-12 </wgt>
<wgt id='1328'> +1.3211054e-12 </wgt>
<wgt id='1329'> +1.3201012e-12 </wgt>
<wgt id='1330'> +1.3048045e-12 </wgt>
<wgt id='1331'> +1.3310906e-12 </wgt>
<wgt id='1332'> +1.3421000e-12 </wgt>
<wgt id='1333'> +1.3069401e-12 </wgt>
<wgt id='1334'> +1.3167629e-12 </wgt>
<wgt id='1335'> +1.3305440e-12 </wgt>
<wgt id='1336'> +1.3155756e-12 </wgt>
<wgt id='1337'> +1.3199312e-12 </wgt>
<wgt id='1338'> +1.3191715e-12 </wgt>
<wgt id='1339'> +1.3208686e-12 </wgt>
<wgt id='1340'> +1.3006158e-12 </wgt>
<wgt id='1341'> +1.3023368e-12 </wgt>
<wgt id='1342'> +1.2988650e-12 </wgt>
<wgt id='1343'> +1.2954058e-12 </wgt>
<wgt id='1344'> +1.3041894e-12 </wgt>
<wgt id='1345'> +1.2988483e-12 </wgt>
<wgt id='1346'> +1.3023718e-12 </wgt>
<wgt id='1347'> +1.2957987e-12 </wgt>
<wgt id='1348'> +1.3060150e-12 </wgt>
<wgt id='1349'> +1.3059742e-12 </wgt>
<wgt id='1350'> +1.2953603e-12 </wgt>
<wgt id='1351'> +1.3036932e-12 </wgt>
<wgt id='1352'> +1.2939660e-12 </wgt>
<wgt id='1353'> +1.2990378e-12 </wgt>
<wgt id='1354'> +1.3035558e-12 </wgt>
<wgt id='1355'> +1.2984855e-12 </wgt>
<wgt id='1356'> +1.3018260e-12 </wgt>
<wgt id='1357'> +1.2961179e-12 </wgt>
<wgt id='1358'> +1.3061057e-12 </wgt>
<wgt id='1359'> +1.3076930e-12 </wgt>
<wgt id='1360'> +1.2945927e-12 </wgt>
<wgt id='1361'> +1.3001894e-12 </wgt>
<wgt id='1362'> +1.3014338e-12 </wgt>
<wgt id='1363'> +1.2942689e-12 </wgt>
<wgt id='1364'> +1.3052964e-12 </wgt>
<wgt id='1365'> +1.2915507e-12 </wgt>
<wgt id='1366'> +1.3042251e-12 </wgt>
<wgt id='1367'> +1.3058703e-12 </wgt>
<wgt id='1368'> +1.3006437e-12 </wgt>
<wgt id='1369'> +1.3075883e-12 </wgt>
<wgt id='1370'> +1.2922638e-12 </wgt>
<wgt id='1371'> +1.3078531e-12 </wgt>
<wgt id='1372'> +1.2918561e-12 </wgt>
<wgt id='1373'> +1.2984755e-12 </wgt>
<wgt id='1374'> +1.3022458e-12 </wgt>
<wgt id='1375'> +1.2984476e-12 </wgt>
<wgt id='1376'> +1.3103627e-12 </wgt>
<wgt id='1377'> +1.3010229e-12 </wgt>
<wgt id='1378'> +1.3025180e-12 </wgt>
<wgt id='1379'> +1.3007948e-12 </wgt>
<wgt id='1380'> +1.3003445e-12 </wgt>
<wgt id='1381'> +1.2845430e-12 </wgt>
<wgt id='1382'> +1.3097039e-12 </wgt>
<wgt id='1383'> +1.3218067e-12 </wgt>
<wgt id='1384'> +1.2860029e-12 </wgt>
<wgt id='1385'> +1.2968618e-12 </wgt>
<wgt id='1386'> +1.3095805e-12 </wgt>
<wgt id='1387'> +1.2939161e-12 </wgt>
<wgt id='1388'> +1.2999346e-12 </wgt>
<wgt id='1389'> +1.2971929e-12 </wgt>
<wgt id='1390'> +1.3012994e-12 </wgt>
<wgt id='1391'> +1.2691306e-12 </wgt>
<wgt id='1392'> +1.2421996e-12 </wgt>
<wgt id='1393'> +1.2509589e-12 </wgt>
<wgt id='1394'> +1.2602664e-12 </wgt>
<wgt id='1395'> +1.2777815e-12 </wgt>
<wgt id='1396'> +1.2695394e-12 </wgt>
<wgt id='1397'> +1.2320479e-12 </wgt>
<wgt id='1398'> +1.2398078e-12 </wgt>
<wgt id='1399'> +1.2469387e-12 </wgt>
<wgt id='1400'> +1.2541149e-12 </wgt>
<wgt id='1401'> +1.2618177e-12 </wgt>
<wgt id='1402'> +1.2766256e-12 </wgt>
<wgt id='1403'> +1.2839378e-12 </wgt>
<wgt id='1404'> +1.2908153e-12 </wgt>
<wgt id='1405'> +1.2695394e-12 </wgt>
<wgt id='1406'> +1.2647902e-12 </wgt>
<wgt id='1407'> +1.2674129e-12 </wgt>
<wgt id='1408'> +1.2715356e-12 </wgt>
<wgt id='1409'> +1.2734868e-12 </wgt>
<wgt id='1410'> +1.2587774e-12 </wgt>
<wgt id='1411'> +1.2595569e-12 </wgt>
<wgt id='1412'> +1.2577890e-12 </wgt>
<wgt id='1413'> +1.2634385e-12 </wgt>
<wgt id='1414'> +1.2541329e-12 </wgt>
<wgt id='1415'> +1.2525153e-12 </wgt>
<wgt id='1416'> +1.2612705e-12 </wgt>
<wgt id='1417'> +1.2507092e-12 </wgt>
<wgt id='1418'> +1.2668554e-12 </wgt>
<wgt id='1419'> +1.2609415e-12 </wgt>
<wgt id='1420'> +1.2566943e-12 </wgt>
<wgt id='1421'> +1.2456037e-12 </wgt>
<wgt id='1422'> +1.2644681e-12 </wgt>
<wgt id='1423'> +1.2584481e-12 </wgt>
<wgt id='1424'> +1.2590843e-12 </wgt>
<wgt id='1425'> +1.2547636e-12 </wgt>
<wgt id='1426'> +1.2630686e-12 </wgt>
<wgt id='1427'> +1.2559957e-12 </wgt>
<wgt id='1428'> +1.2601874e-12 </wgt>
<wgt id='1429'> +1.2526260e-12 </wgt>
<wgt id='1430'> +1.2671103e-12 </wgt>
<wgt id='1431'> +1.2622422e-12 </wgt>
<wgt id='1432'> +1.2563153e-12 </wgt>
<wgt id='1433'> +1.2623600e-12 </wgt>
<wgt id='1434'> +1.2542705e-12 </wgt>
<wgt id='1435'> +1.2619387e-12 </wgt>
<wgt id='1436'> +1.2511288e-12 </wgt>
<wgt id='1437'> +1.2646001e-12 </wgt>
<wgt id='1438'> +1.2580220e-12 </wgt>
<wgt id='1439'> +1.2531877e-12 </wgt>
<wgt id='1440'> +1.2715586e-12 </wgt>
<wgt id='1441'> +1.2616237e-12 </wgt>
<wgt id='1442'> +1.2535413e-12 </wgt>
<wgt id='1443'> +1.2565728e-12 </wgt>
<wgt id='1444'> +1.2642846e-12 </wgt>
<wgt id='1445'> +1.2685925e-12 </wgt>
<wgt id='1446'> +1.2555966e-12 </wgt>
<wgt id='1447'> +1.2591610e-12 </wgt>
<wgt id='1448'> +1.2603769e-12 </wgt>
<wgt id='1449'> +1.2595986e-12 </wgt>
<wgt id='1450'> +1.2579314e-12 </wgt>
<wgt id='1451'> +1.2653705e-12 </wgt>
<wgt id='1452'> +1.2397978e-12 </wgt>
<wgt id='1453'> +1.2602912e-12 </wgt>
<wgt id='1454'> +1.2485020e-12 </wgt>
<wgt id='1455'> +1.2483833e-12 </wgt>
<wgt id='1456'> +1.2628045e-12 </wgt>
<wgt id='1457'> +1.2630081e-12 </wgt>
<wgt id='1458'> +1.2566795e-12 </wgt>
<wgt id='1459'> +1.2627912e-12 </wgt>
<wgt id='1460'> +1.2532907e-12 </wgt>
<wgt id='1461'> +1.2587774e-12 </wgt>
<wgt id='1462'> +1.2520005e-12 </wgt>
<wgt id='1463'> +1.2679382e-12 </wgt>
<wgt id='1464'> +1.2604032e-12 </wgt>
<wgt id='1465'> +1.2304741e-12 </wgt>
<wgt id='1466'> +1.2366103e-12 </wgt>
<wgt id='1467'> +1.2432380e-12 </wgt>
<wgt id='1468'> +1.2484555e-12 </wgt>
<wgt id='1469'> +1.2545228e-12 </wgt>
<wgt id='1470'> +1.2667898e-12 </wgt>
<wgt id='1471'> +1.2718007e-12 </wgt>
<wgt id='1472'> +1.2778706e-12 </wgt>
<wgt id='1473'> +1.2604032e-12 </wgt>
<wgt id='1474'> +1.2553260e-12 </wgt>
<wgt id='1475'> +1.2572828e-12 </wgt>
<wgt id='1476'> +1.2626030e-12 </wgt>
<wgt id='1477'> +1.2646714e-12 </wgt>
<wgt id='1478'> +1.2412856e-12 </wgt>
<wgt id='1479'> +1.2387377e-12 </wgt>
<wgt id='1480'> +1.2390100e-12 </wgt>
<wgt id='1481'> +1.2375986e-12 </wgt>
<wgt id='1482'> +1.2387913e-12 </wgt>
<wgt id='1483'> +1.2270392e-12 </wgt>
<wgt id='1484'> +1.2437638e-12 </wgt>
<wgt id='1485'> +1.2377336e-12 </wgt>
<wgt id='1486'> +1.2420971e-12 </wgt>
<wgt id='1487'> +1.2420393e-12 </wgt>
<wgt id='1488'> +1.2390365e-12 </wgt>
<wgt id='1489'> +1.2592603e-12 </wgt>
<wgt id='1490'> +1.2379977e-12 </wgt>
<wgt id='1491'> +1.2409190e-12 </wgt>
<wgt id='1492'> +1.2435556e-12 </wgt>
<wgt id='1493'> +1.2262929e-12 </wgt>
<wgt id='1494'> +1.2522050e-12 </wgt>
<wgt id='1495'> +1.2357195e-12 </wgt>
<wgt id='1496'> +1.2401091e-12 </wgt>
<wgt id='1497'> +1.2400489e-12 </wgt>
<wgt id='1498'> +1.2410745e-12 </wgt>
<wgt id='1499'> +1.2421737e-12 </wgt>
<wgt id='1500'> +1.2413195e-12 </wgt>
<wgt id='1501'> +1.2412559e-12 </wgt>
<wgt id='1502'> +1.2420482e-12 </wgt>
<wgt id='1503'> +1.2410358e-12 </wgt>
<wgt id='1504'> +1.2383984e-12 </wgt>
<wgt id='1505'> +1.2411278e-12 </wgt>
<wgt id='1506'> +1.2391644e-12 </wgt>
<wgt id='1507'> +1.2400915e-12 </wgt>
<wgt id='1508'> +1.2448973e-12 </wgt>
<wgt id='1509'> +1.2931730e-12 </wgt>
<wgt id='1510'> +1.2917252e-12 </wgt>
<wgt id='1511'> +1.2970158e-12 </wgt>
<wgt id='1512'> +1.2948637e-12 </wgt>
<wgt id='1513'> +1.2968971e-12 </wgt>
<wgt id='1514'> +1.2928646e-12 </wgt>
<wgt id='1515'> +1.2909546e-12 </wgt>
<wgt id='1516'> +1.2933410e-12 </wgt>
<wgt id='1517'> +1.2957418e-12 </wgt>
<wgt id='1518'> +1.2953024e-12 </wgt>
<wgt id='1519'> +1.2873487e-12 </wgt>
<wgt id='1520'> +1.2975752e-12 </wgt>
<wgt id='1521'> +1.2997629e-12 </wgt>
<wgt id='1522'> +1.2966912e-12 </wgt>
<wgt id='1523'> +1.2982802e-12 </wgt>
<wgt id='1524'> +1.2943151e-12 </wgt>
<wgt id='1525'> +1.2958444e-12 </wgt>
<wgt id='1526'> +1.2900679e-12 </wgt>
<wgt id='1527'> +1.2908885e-12 </wgt>
<wgt id='1528'> +1.2947940e-12 </wgt>
<wgt id='1529'> +1.2927430e-12 </wgt>
<wgt id='1530'> +1.2985482e-12 </wgt>
<wgt id='1531'> +1.2944803e-12 </wgt>
<wgt id='1532'> +1.2909044e-12 </wgt>
<wgt id='1533'> +1.2924493e-12 </wgt>
<wgt id='1534'> +1.2972088e-12 </wgt>
<wgt id='1535'> +1.2864375e-12 </wgt>
<wgt id='1536'> +1.2898515e-12 </wgt>
<wgt id='1537'> +1.2911640e-12 </wgt>
<wgt id='1538'> +1.2945186e-12 </wgt>
<wgt id='1539'> +1.2984563e-12 </wgt>
<wgt id='1540'> +1.2941867e-12 </wgt>
<wgt id='1541'> +1.2939384e-12 </wgt>
<wgt id='1542'> +1.2921803e-12 </wgt>
<wgt id='1543'> +1.2914195e-12 </wgt>
<wgt id='1544'> +1.2921959e-12 </wgt>
<wgt id='1545'> +1.2943017e-12 </wgt>
<wgt id='1546'> +1.2924013e-12 </wgt>
<wgt id='1547'> +1.2937721e-12 </wgt>
<wgt id='1548'> +1.2925716e-12 </wgt>
<wgt id='1549'> +1.2916713e-12 </wgt>
<wgt id='1550'> +1.2954361e-12 </wgt>
<wgt id='1551'> +1.2942326e-12 </wgt>
<wgt id='1552'> +1.2931616e-12 </wgt>
<wgt id='1553'> +1.2951569e-12 </wgt>
<wgt id='1554'> +1.2953168e-12 </wgt>
<wgt id='1555'> +1.2947298e-12 </wgt>
<wgt id='1556'> +1.2926126e-12 </wgt>
<wgt id='1557'> +1.2935792e-12 </wgt>
<wgt id='1558'> +1.2938402e-12 </wgt>
<wgt id='1559'> +1.2935723e-12 </wgt>
<wgt id='1560'> +1.2948788e-12 </wgt>
<wgt id='1561'> +1.2926821e-12 </wgt>
<wgt id='1562'> +1.2929496e-12 </wgt>
<wgt id='1563'> +1.2936008e-12 </wgt>
<wgt id='1564'> +1.2908980e-12 </wgt>
<wgt id='1565'> +1.2933718e-12 </wgt>
<wgt id='1566'> +1.2928389e-12 </wgt>
<wgt id='1567'> +1.2923755e-12 </wgt>
<wgt id='1568'> +1.2946299e-12 </wgt>
<wgt id='1569'> +1.2935418e-12 </wgt>
<wgt id='1570'> +1.2920543e-12 </wgt>
<wgt id='1571'> +1.2932755e-12 </wgt>
<wgt id='1572'> +1.2915940e-12 </wgt>
<wgt id='1573'> +1.2917117e-12 </wgt>
<wgt id='1574'> +1.2934595e-12 </wgt>
<wgt id='1575'> +1.2937810e-12 </wgt>
<wgt id='1576'> +1.2923713e-12 </wgt>
<wgt id='1577'> +1.2921243e-12 </wgt>
<wgt id='1578'> +1.2934779e-12 </wgt>
<wgt id='1579'> +1.2931681e-12 </wgt>
<wgt id='1580'> +1.2942451e-12 </wgt>
<wgt id='1581'> +1.2928292e-12 </wgt>
<wgt id='1582'> +1.2927404e-12 </wgt>
<wgt id='1583'> +1.2928420e-12 </wgt>
<wgt id='1584'> +1.2933439e-12 </wgt>
<wgt id='1585'> +1.2927488e-12 </wgt>
<wgt id='1586'> +1.2927942e-12 </wgt>
<wgt id='1587'> +1.2933145e-12 </wgt>
<wgt id='1588'> +1.2939751e-12 </wgt>
<wgt id='1589'> +1.2930623e-12 </wgt>
<wgt id='1590'> +1.2927685e-12 </wgt>
<wgt id='1591'> +1.2931588e-12 </wgt>
<wgt id='1592'> +1.2928756e-12 </wgt>
<wgt id='1593'> +1.2937187e-12 </wgt>
<wgt id='1594'> +1.2933562e-12 </wgt>
<wgt id='1595'> +1.2931876e-12 </wgt>
<wgt id='1596'> +1.2931477e-12 </wgt>
<wgt id='1597'> +1.2930779e-12 </wgt>
<wgt id='1598'> +1.2931900e-12 </wgt>
<wgt id='1599'> +1.2938203e-12 </wgt>
<wgt id='1600'> +1.2926495e-12 </wgt>
<wgt id='1601'> +1.2932835e-12 </wgt>
<wgt id='1602'> +1.2933173e-12 </wgt>
<wgt id='1603'> +1.2934087e-12 </wgt>
<wgt id='1604'> +1.2930925e-12 </wgt>
<wgt id='1605'> +1.2932265e-12 </wgt>
<wgt id='1606'> +1.2927144e-12 </wgt>
<wgt id='1607'> +1.2931540e-12 </wgt>
<wgt id='1608'> +1.2927172e-12 </wgt>
<wgt id='1609'> +1.2932967e-12 </wgt>
<wgt id='1610'> +1.2814754e-12 </wgt>
<wgt id='1611'> +1.3041045e-12 </wgt>
<wgt id='1612'> +1.5099878e-12 </wgt>
<wgt id='1613'> +1.4933590e-12 </wgt>
<wgt id='1614'> +1.5237019e-12 </wgt>
<wgt id='1615'> +1.5039039e-12 </wgt>
<wgt id='1616'> +1.5435247e-12 </wgt>
<wgt id='1617'> +1.5353275e-12 </wgt>
<wgt id='1618'> +1.5194527e-12 </wgt>
<wgt id='1619'> +1.5038967e-12 </wgt>
<wgt id='1620'> +1.4652229e-12 </wgt>
<wgt id='1621'> +1.5225148e-12 </wgt>
<wgt id='1622'> +1.5175557e-12 </wgt>
<wgt id='1623'> +1.5088870e-12 </wgt>
<wgt id='1624'> +1.4816063e-12 </wgt>
<wgt id='1625'> +1.4950861e-12 </wgt>
<wgt id='1626'> +1.4949140e-12 </wgt>
<wgt id='1627'> +1.5060997e-12 </wgt>
<wgt id='1628'> +1.5263644e-12 </wgt>
<wgt id='1629'> +1.5454068e-12 </wgt>
<wgt id='1630'> +1.5093175e-12 </wgt>
<wgt id='1631'> +1.4951046e-12 </wgt>
<wgt id='1632'> +1.4588528e-12 </wgt>
<wgt id='1633'> +1.4785899e-12 </wgt>
<wgt id='1634'> +1.5785677e-12 </wgt>
<wgt id='1635'> +1.5114885e-12 </wgt>
<wgt id='1636'> +1.5450221e-12 </wgt>
<wgt id='1637'> +1.4842643e-12 </wgt>
<wgt id='1638'> +1.5345853e-12 </wgt>
<wgt id='1639'> +1.5017674e-12 </wgt>
<wgt id='1640'> +1.5350935e-12 </wgt>
<wgt id='1641'> +1.4861485e-12 </wgt>
<wgt id='1642'> +1.5179873e-12 </wgt>
<wgt id='1643'> +1.5510334e-12 </wgt>
<wgt id='1644'> +1.4666587e-12 </wgt>
<wgt id='1645'> +1.5245144e-12 </wgt>
<wgt id='1646'> +1.4967638e-12 </wgt>
<wgt id='1647'> +1.4973371e-12 </wgt>
<wgt id='1648'> +1.5250683e-12 </wgt>
<wgt id='1649'> +1.5244094e-12 </wgt>
<wgt id='1650'> +1.4995274e-12 </wgt>
<wgt id='1651'> +1.4686145e-12 </wgt>
<wgt id='1652'> +1.4953590e-12 </wgt>
<wgt id='1653'> +1.5468812e-12 </wgt>
<wgt id='1654'> +1.5163376e-12 </wgt>
<wgt id='1655'> +1.4810193e-12 </wgt>
<wgt id='1656'> +1.4741328e-12 </wgt>
<wgt id='1657'> +1.4965575e-12 </wgt>
<wgt id='1658'> +1.4768444e-12 </wgt>
<wgt id='1659'> +1.4816063e-12 </wgt>
<wgt id='1660'> +1.5122937e-12 </wgt>
<wgt id='1661'> +1.5085950e-12 </wgt>
<wgt id='1662'> +1.5058271e-12 </wgt>
<wgt id='1663'> +1.5001909e-12 </wgt>
<wgt id='1664'> +1.5109129e-12 </wgt>
<wgt id='1665'> +1.4926018e-12 </wgt>
<wgt id='1666'> +1.5198038e-12 </wgt>
<wgt id='1667'> +1.4878378e-12 </wgt>
<wgt id='1668'> +1.5413936e-12 </wgt>
<wgt id='1669'> +1.4892648e-12 </wgt>
<wgt id='1670'> +1.5234537e-12 </wgt>
<wgt id='1671'> +1.4907599e-12 </wgt>
<wgt id='1672'> +1.5285900e-12 </wgt>
<wgt id='1673'> +1.4779502e-12 </wgt>
<wgt id='1674'> +1.4854016e-12 </wgt>
<wgt id='1675'> +1.5503649e-12 </wgt>
<wgt id='1676'> +1.5447520e-12 </wgt>
<wgt id='1677'> +1.5781588e-12 </wgt>
<wgt id='1678'> +1.5088309e-12 </wgt>
<wgt id='1679'> +1.5264493e-12 </wgt>
<wgt id='1680'> +1.5245229e-12 </wgt>
<wgt id='1681'> +1.5268578e-12 </wgt>
<wgt id='1682'> +1.5066453e-12 </wgt>
<wgt id='1683'> +1.4739095e-12 </wgt>
<wgt id='1684'> +1.4918613e-12 </wgt>
<wgt id='1685'> +1.5014977e-12 </wgt>
<wgt id='1686'> +1.5184155e-12 </wgt>
<wgt id='1687'> +1.5463504e-12 </wgt>
<wgt id='1688'> +1.5264503e-12 </wgt>
<wgt id='1689'> +1.4840726e-12 </wgt>
<wgt id='1690'> +1.5493528e-12 </wgt>
<wgt id='1691'> +1.5534548e-12 </wgt>
<wgt id='1692'> +1.5287487e-12 </wgt>
<wgt id='1693'> +1.5418989e-12 </wgt>
<wgt id='1694'> +1.4771466e-12 </wgt>
<wgt id='1695'> +1.5317143e-12 </wgt>
<wgt id='1696'> +1.5523333e-12 </wgt>
<wgt id='1697'> +1.4963690e-12 </wgt>
<wgt id='1698'> +1.4988748e-12 </wgt>
<wgt id='1699'> +1.5198348e-12 </wgt>
<wgt id='1700'> +1.5035491e-12 </wgt>
<wgt id='1701'> +1.4819075e-12 </wgt>
<wgt id='1702'> +1.5004355e-12 </wgt>
<wgt id='1703'> +1.5425867e-12 </wgt>
<wgt id='1704'> +1.4915575e-12 </wgt>
<wgt id='1705'> +1.4805489e-12 </wgt>
<wgt id='1706'> +1.5146718e-12 </wgt>
<wgt id='1707'> +1.4827230e-12 </wgt>
<wgt id='1708'> +1.4749980e-12 </wgt>
<wgt id='1709'> +1.5027794e-12 </wgt>
<wgt id='1710'> +1.4771889e-12 </wgt>
<wgt id='1711'> +1.5531123e-12 </wgt>
<wgt id='1712'> +1.5143542e-12 </wgt>
<wgt id='1713'> +1.2129670e-12 </wgt>
<wgt id='1714'> +1.1784120e-12 </wgt>
<wgt id='1715'> +1.2307697e-12 </wgt>
<wgt id='1716'> +1.2470602e-12 </wgt>
<wgt id='1717'> +1.2052767e-12 </wgt>
<wgt id='1718'> +1.2213918e-12 </wgt>
<wgt id='1719'> +1.2185060e-12 </wgt>
<wgt id='1720'> +1.2343009e-12 </wgt>
<wgt id='1721'> +1.1876995e-12 </wgt>
<wgt id='1722'> +1.2000228e-12 </wgt>
<wgt id='1723'> +1.1739714e-12 </wgt>
<wgt id='1724'> +1.1995980e-12 </wgt>
<wgt id='1725'> +1.2213067e-12 </wgt>
<wgt id='1726'> +1.2685218e-12 </wgt>
<wgt id='1727'> +1.1955453e-12 </wgt>
<wgt id='1728'> +1.2202576e-12 </wgt>
<wgt id='1729'> +1.2119661e-12 </wgt>
<wgt id='1730'> +1.1914204e-12 </wgt>
<wgt id='1731'> +1.1723582e-12 </wgt>
<wgt id='1732'> +1.2250767e-12 </wgt>
<wgt id='1733'> +1.2298504e-12 </wgt>
<wgt id='1734'> +1.2290594e-12 </wgt>
<wgt id='1735'> +1.1960104e-12 </wgt>
<wgt id='1736'> +1.2762006e-12 </wgt>
<wgt id='1737'> +1.2395470e-12 </wgt>
<wgt id='1738'> +1.2362803e-12 </wgt>
<wgt id='1739'> +1.1715537e-12 </wgt>
<wgt id='1740'> +1.2053378e-12 </wgt>
<wgt id='1741'> +1.2233774e-12 </wgt>
<wgt id='1742'> +1.2184138e-12 </wgt>
<wgt id='1743'> +1.2380105e-12 </wgt>
<wgt id='1744'> +1.2487944e-12 </wgt>
<wgt id='1745'> +1.1452492e-12 </wgt>
<wgt id='1746'> +1.2282994e-12 </wgt>
<wgt id='1747'> +1.2202393e-12 </wgt>
<wgt id='1748'> +1.2245780e-12 </wgt>
<wgt id='1749'> +1.2247383e-12 </wgt>
<wgt id='1750'> +1.2330996e-12 </wgt>
<wgt id='1751'> +1.1788467e-12 </wgt>
<wgt id='1752'> +1.1956519e-12 </wgt>
<wgt id='1753'> +1.2307532e-12 </wgt>
<wgt id='1754'> +1.2140922e-12 </wgt>
<wgt id='1755'> +1.2434279e-12 </wgt>
<wgt id='1756'> +1.2301610e-12 </wgt>
<wgt id='1757'> +1.1995938e-12 </wgt>
<wgt id='1758'> +1.2274711e-12 </wgt>
<wgt id='1759'> +1.2277343e-12 </wgt>
<wgt id='1760'> +1.1756515e-12 </wgt>
<wgt id='1761'> +1.1888446e-12 </wgt>
<wgt id='1762'> +1.2128651e-12 </wgt>
<wgt id='1763'> +1.2333485e-12 </wgt>
<wgt id='1764'> +1.2054835e-12 </wgt>
<wgt id='1765'> +1.2156036e-12 </wgt>
<wgt id='1766'> +1.2094489e-12 </wgt>
<wgt id='1767'> +1.2174818e-12 </wgt>
<wgt id='1768'> +1.2108715e-12 </wgt>
<wgt id='1769'> +1.1860609e-12 </wgt>
<wgt id='1770'> +1.2344202e-12 </wgt>
<wgt id='1771'> +1.2169955e-12 </wgt>
<wgt id='1772'> +1.2522774e-12 </wgt>
<wgt id='1773'> +1.2048319e-12 </wgt>
<wgt id='1774'> +1.2083920e-12 </wgt>
<wgt id='1775'> +1.2246588e-12 </wgt>
<wgt id='1776'> +1.2350515e-12 </wgt>
<wgt id='1777'> +1.1575486e-12 </wgt>
<wgt id='1778'> +1.1960157e-12 </wgt>
<wgt id='1779'> +1.2379577e-12 </wgt>
<wgt id='1780'> +1.2060309e-12 </wgt>
<wgt id='1781'> +1.2081986e-12 </wgt>
<wgt id='1782'> +1.1889897e-12 </wgt>
<wgt id='1783'> +1.2116277e-12 </wgt>
<wgt id='1784'> +1.2173693e-12 </wgt>
<wgt id='1785'> +1.1925570e-12 </wgt>
<wgt id='1786'> +1.1307893e-12 </wgt>
<wgt id='1787'> +1.2476012e-12 </wgt>
<wgt id='1788'> +1.2213993e-12 </wgt>
<wgt id='1789'> +1.1673034e-12 </wgt>
<wgt id='1790'> +1.2279841e-12 </wgt>
<wgt id='1791'> +1.2307953e-12 </wgt>
<wgt id='1792'> +1.1830341e-12 </wgt>
<wgt id='1793'> +1.2183406e-12 </wgt>
<wgt id='1794'> +1.2185460e-12 </wgt>
<wgt id='1795'> +1.2218544e-12 </wgt>
<wgt id='1796'> +1.2010313e-12 </wgt>
<wgt id='1797'> +1.2161236e-12 </wgt>
<wgt id='1798'> +1.2088774e-12 </wgt>
<wgt id='1799'> +1.2153629e-12 </wgt>
<wgt id='1800'> +1.2064656e-12 </wgt>
<wgt id='1801'> +1.2073255e-12 </wgt>
<wgt id='1802'> +1.2019530e-12 </wgt>
<wgt id='1803'> +1.2299286e-12 </wgt>
<wgt id='1804'> +1.1936510e-12 </wgt>
<wgt id='1805'> +1.2133747e-12 </wgt>
<wgt id='1806'> +1.2029876e-12 </wgt>
<wgt id='1807'> +1.2292821e-12 </wgt>
<wgt id='1808'> +1.2138535e-12 </wgt>
<wgt id='1809'> +1.1942240e-12 </wgt>
<wgt id='1810'> +1.2075511e-12 </wgt>
<wgt id='1811'> +1.2478265e-12 </wgt>
<wgt id='1812'> +1.2265819e-12 </wgt>
<wgt id='1813'> +1.2283878e-12 </wgt>
<wgt id='1814'> +1.3661111e-12 </wgt>
<wgt id='1815'> +1.5454392e-12 </wgt>
<wgt id='1816'> +1.2129670e-12 </wgt>
<wgt id='1817'> +1.1784120e-12 </wgt>
<wgt id='1818'> +1.2307697e-12 </wgt>
<wgt id='1819'> +1.2470602e-12 </wgt>
<wgt id='1820'> +1.2052767e-12 </wgt>
<wgt id='1821'> +1.2213918e-12 </wgt>
<wgt id='1822'> +1.2185060e-12 </wgt>
<wgt id='1823'> +1.2343009e-12 </wgt>
<wgt id='1824'> +1.1876995e-12 </wgt>
<wgt id='1825'> +1.2000228e-12 </wgt>
<wgt id='1826'> +1.1739714e-12 </wgt>
<wgt id='1827'> +1.1995980e-12 </wgt>
<wgt id='1828'> +1.2213067e-12 </wgt>
<wgt id='1829'> +1.2685218e-12 </wgt>
<wgt id='1830'> +1.1955453e-12 </wgt>
<wgt id='1831'> +1.2202576e-12 </wgt>
<wgt id='1832'> +1.2119661e-12 </wgt>
<wgt id='1833'> +1.1914204e-12 </wgt>
<wgt id='1834'> +1.1723582e-12 </wgt>
<wgt id='1835'> +1.2250767e-12 </wgt>
<wgt id='1836'> +1.2298504e-12 </wgt>
<wgt id='1837'> +1.2290594e-12 </wgt>
<wgt id='1838'> +1.1960104e-12 </wgt>
<wgt id='1839'> +1.2762006e-12 </wgt>
<wgt id='1840'> +1.2395470e-12 </wgt>
<wgt id='1841'> +1.2362803e-12 </wgt>
<wgt id='1842'> +1.1715537e-12 </wgt>
<wgt id='1843'> +1.2053378e-12 </wgt>
<wgt id='1844'> +1.2233774e-12 </wgt>
<wgt id='1845'> +1.2184138e-12 </wgt>
<wgt id='1846'> +1.2380105e-12 </wgt>
<wgt id='1847'> +1.2487944e-12 </wgt>
<wgt id='1848'> +1.1452492e-12 </wgt>
<wgt id='1849'> +1.2282994e-12 </wgt>
<wgt id='1850'> +1.2202393e-12 </wgt>
<wgt id='1851'> +1.2245780e-12 </wgt>
<wgt id='1852'> +1.2247383e-12 </wgt>
<wgt id='1853'> +1.2330996e-12 </wgt>
<wgt id='1854'> +1.1788467e-12 </wgt>
<wgt id='1855'> +1.1956519e-12 </wgt>
<wgt id='1856'> +1.2307532e-12 </wgt>
<wgt id='1857'> +1.2140922e-12 </wgt>
<wgt id='1858'> +1.2434279e-12 </wgt>
<wgt id='1859'> +1.2301610e-12 </wgt>
<wgt id='1860'> +1.1995938e-12 </wgt>
<wgt id='1861'> +1.2274711e-12 </wgt>
<wgt id='1862'> +1.2277343e-12 </wgt>
<wgt id='1863'> +1.1756515e-12 </wgt>
<wgt id='1864'> +1.1888446e-12 </wgt>
<wgt id='1865'> +1.2128651e-12 </wgt>
<wgt id='1866'> +1.2333485e-12 </wgt>
<wgt id='1867'> +1.2054835e-12 </wgt>
<wgt id='1868'> +1.2156036e-12 </wgt>
<wgt id='1869'> +1.2094489e-12 </wgt>
<wgt id='1870'> +1.2174818e-12 </wgt>
<wgt id='1871'> +1.2108715e-12 </wgt>
<wgt id='1872'> +1.1860609e-12 </wgt>
<wgt id='1873'> +1.2344202e-12 </wgt>
<wgt id='1874'> +1.2169955e-12 </wgt>
<wgt id='1875'> +1.2522774e-12 </wgt>
<wgt id='1876'> +1.2048319e-12 </wgt>
<wgt id='1877'> +1.2083920e-12 </wgt>
<wgt id='1878'> +1.2246588e-12 </wgt>
<wgt id='1879'> +1.2350515e-12 </wgt>
<wgt id='1880'> +1.1575486e-12 </wgt>
<wgt id='1881'> +1.1960157e-12 </wgt>
<wgt id='1882'> +1.2379577e-12 </wgt>
<wgt id='1883'> +1.2060309e-12 </wgt>
<wgt id='1884'> +1.2081986e-12 </wgt>
<wgt id='1885'> +1.1889897e-12 </wgt>
<wgt id='1886'> +1.2116277e-12 </wgt>
<wgt id='1887'> +1.2173693e-12 </wgt>
<wgt id='1888'> +1.1925570e-12 </wgt>
<wgt id='1889'> +1.1307893e-12 </wgt>
<wgt id='1890'> +1.2476012e-12 </wgt>
<wgt id='1891'> +1.2213993e-12 </wgt>
<wgt id='1892'> +1.1673034e-12 </wgt>
<wgt id='1893'> +1.2279841e-12 </wgt>
<wgt id='1894'> +1.2307953e-12 </wgt>
<wgt id='1895'> +1.1830341e-12 </wgt>
<wgt id='1896'> +1.2183406e-12 </wgt>
<wgt id='1897'> +1.2185460e-12 </wgt>
<wgt id='1898'> +1.2218544e-12 </wgt>
<wgt id='1899'> +1.2010313e-12 </wgt>
<wgt id='1900'> +1.2161236e-12 </wgt>
<wgt id='1901'> +1.2088774e-12 </wgt>
<wgt id='1902'> +1.2153629e-12 </wgt>
<wgt id='1903'> +1.2064656e-12 </wgt>
<wgt id='1904'> +1.2073255e-12 </wgt>
<wgt id='1905'> +1.2019530e-12 </wgt>
<wgt id='1906'> +1.2299286e-12 </wgt>
<wgt id='1907'> +1.1936510e-12 </wgt>
<wgt id='1908'> +1.2133747e-12 </wgt>
<wgt id='1909'> +1.2029876e-12 </wgt>
<wgt id='1910'> +1.2292821e-12 </wgt>
<wgt id='1911'> +1.2138535e-12 </wgt>
<wgt id='1912'> +1.1942240e-12 </wgt>
<wgt id='1913'> +1.2075511e-12 </wgt>
<wgt id='1914'> +1.2478265e-12 </wgt>
<wgt id='1915'> +1.2265819e-12 </wgt>
<wgt id='1916'> +1.2283878e-12 </wgt>
<wgt id='1917'> +1.2041197e-12 </wgt>
<wgt id='1918'> +1.2178061e-12 </wgt>
<wgt id='1919'> +1.2468992e-12 </wgt>
</rwgt>
</event>
<event>
 9      1 +1.5607000e-12 2.59578600e+01 7.81860800e-03 1.49449800e-01
       21 -1    0    0  501  502 +0.0000000000e+00 +0.0000000000e+00 +1.3948199346e+01 1.3948199346e+01 0.0000000000e+00 0.0000e+00 1.0000e+00
        2 -1    0    0  502    0 -0.0000000000e+00 -0.0000000000e+00 -5.0451478035e+01 5.0451478035e+01 0.0000000000e+00 0.0000e+00 1.0000e+00
     1023  2    1    2    0    0 +2.0828882818e+01 -3.8683361587e+00 -3.4422243884e+01 4.3112660447e+01 1.5000141092e+01 0.0000e+00 0.0000e+00
  1000023  2    3    3    0    0 +1.3371177873e+01 -6.3373127169e+00 -2.6688600460e+01 3.1008014691e+01 5.5014225760e+00 0.0000e+00 0.0000e+00
        2  1    1    2  501    0 -2.0828882818e+01 +3.8683361587e+00 -2.0810348058e+00 2.1287016933e+01 0.0000000000e+00 0.0000e+00 1.0000e+00
  1000022  1    4    4    0    0 +1.2137141493e+01 -6.2013426431e+00 -2.5003547551e+01 2.8912700399e+01 5.0000000000e+00 0.0000e+00 1.0000e+00
      -11  1    4    4    0    0 +3.1045269919e-01 -5.7634543484e-02 -4.9015034012e-01 5.8305251571e-01 5.1100000000e-04 0.0000e+00 1.0000e+00
       11  1    4    4    0    0 +9.2358368007e-01 -7.8335530290e-02 -1.1949025693e+00 1.5122617765e+00 5.1100000000e-04 0.0000e+00 -1.0000e+00
  1000022  1    3    3    0    0 +7.4577049449e+00 +2.4689765581e+00 -7.7336434236e+00 1.2104645757e+01 5.0000000000e+00 0.0000e+00 -1.0000e+00
<mgrwt>
<rscale>  1 0.25957862E+02</rscale>
<asrwt>0</asrwt>
<pdfrwt beam="1">  1       21 0.21458768E-02 0.25957862E+02</pdfrwt>
<pdfrwt beam="2">  1        2 0.77617659E-02 0.25957862E+02</pdfrwt>
<totfact> 0.85731432E+06</totfact>
</mgrwt>
<rwgt>
<wgt id='1001'> +1.5607000e-12 </wgt>
<wgt id='1002'> +1.6369497e-12 </wgt>
<wgt id='1003'> +1.6401629e-12 </wgt>
<wgt id='1004'> +1.5402475e-12 </wgt>
<wgt id='1005'> +1.6538670e-12 </wgt>
<wgt id='1006'> +1.3600386e-12 </wgt>
<wgt id='1007'> +1.4470869e-12 </wgt>
<wgt id='1008'> +1.4509354e-12 </wgt>
<wgt id='1009'> +1.3375753e-12 </wgt>
<wgt id='1010'> +1.4675895e-12 </wgt>
<wgt id='1011'> +1.8343868e-12 </wgt>
<wgt id='1012'> +1.8867368e-12 </wgt>
<wgt id='1013'> +1.8886838e-12 </wgt>
<wgt id='1014'> +1.8191435e-12 </wgt>
<wgt id='1015'> +1.8966691e-12 </wgt>
<wgt id='1016'> +1.8955143e-12 </wgt>
<wgt id='1017'> +1.9138471e-12 </wgt>
<wgt id='1018'> +1.9142716e-12 </wgt>
<wgt id='1019'> +1.8886838e-12 </wgt>
<wgt id='1020'> +1.9155464e-12 </wgt>
<wgt id='1021'> +1.6518054e-12 </wgt>
<wgt id='1022'> +1.6918683e-12 </wgt>
<wgt id='1023'> +1.6934199e-12 </wgt>
<wgt id='1024'> +1.6401629e-12 </wgt>
<wgt id='1025'> +1.6997956e-12 </wgt>
<wgt id='1026'> +2.2279147e-12 </wgt>
<wgt id='1027'> +2.2058869e-12 </wgt>
<wgt id='1028'> +2.2043260e-12 </wgt>
<wgt id='1029'> +2.2306719e-12 </wgt>
<wgt id='1030'> +2.1967653e-12 </wgt>
<wgt id='1031'> +1.1961667e-12 </wgt>
<wgt id='1032'> +1.3314720e-12 </wgt>
<wgt id='1033'> +1.3375753e-12 </wgt>
<wgt id='1034'> +1.1614792e-12 </wgt>
<wgt id='1035'> +1.3641256e-12 </wgt>
<wgt id='1036'> +1.0423739e-12 </wgt>
<wgt id='1037'> +1.1770403e-12 </wgt>
<wgt id='1038'> +1.1832577e-12 </wgt>
<wgt id='1039'> +1.0086469e-12 </wgt>
<wgt id='1040'> +1.2104822e-12 </wgt>
<wgt id='1041'> +1.4059284e-12 </wgt>
<wgt id='1042'> +1.5346453e-12 </wgt>
<wgt id='1043'> +1.5402475e-12 </wgt>
<wgt id='1044'> +1.3717908e-12 </wgt>
<wgt id='1045'> +1.5643912e-12 </wgt>
<wgt id='1046'> +1.5607000e-12 </wgt>
<wgt id='1047'> +1.6068805e-12 </wgt>
<wgt id='1048'> +1.5422225e-12 </wgt>
<wgt id='1049'> +1.5243315e-12 </wgt>
<wgt id='1050'> +1.5304870e-12 </wgt>
<wgt id='1051'> +1.5714051e-12 </wgt>
<wgt id='1052'> +1.5394751e-12 </wgt>
<wgt id='1053'> +1.5541910e-12 </wgt>
<wgt id='1054'> +1.5413014e-12 </wgt>
<wgt id='1055'> +1.5193316e-12 </wgt>
<wgt id='1056'> +1.5584749e-12 </wgt>
<wgt id='1057'> +1.5859217e-12 </wgt>
<wgt id='1058'> +1.5177248e-12 </wgt>
<wgt id='1059'> +1.5719381e-12 </wgt>
<wgt id='1060'> +1.5736603e-12 </wgt>
<wgt id='1061'> +1.5481629e-12 </wgt>
<wgt id='1062'> +1.5699498e-12 </wgt>
<wgt id='1063'> +1.5785993e-12 </wgt>
<wgt id='1064'> +1.5560379e-12 </wgt>
<wgt id='1065'> +1.5538155e-12 </wgt>
<wgt id='1066'> +1.5394012e-12 </wgt>
<wgt id='1067'> +1.5185918e-12 </wgt>
<wgt id='1068'> +1.5836595e-12 </wgt>
<wgt id='1069'> +1.5782251e-12 </wgt>
<wgt id='1070'> +1.5524764e-12 </wgt>
<wgt id='1071'> +1.5086103e-12 </wgt>
<wgt id='1072'> +1.5935833e-12 </wgt>
<wgt id='1073'> +1.5788498e-12 </wgt>
<wgt id='1074'> +1.5451731e-12 </wgt>
<wgt id='1075'> +1.5601785e-12 </wgt>
<wgt id='1076'> +1.5569027e-12 </wgt>
<wgt id='1077'> +1.5778787e-12 </wgt>
<wgt id='1078'> +1.5301448e-12 </wgt>
<wgt id='1079'> +1.5330768e-12 </wgt>
<wgt id='1080'> +1.5348683e-12 </wgt>
<wgt id='1081'> +1.5931705e-12 </wgt>
<wgt id='1082'> +1.5366256e-12 </wgt>
<wgt id='1083'> +1.5909188e-12 </wgt>
<wgt id='1084'> +1.5309125e-12 </wgt>
<wgt id='1085'> +1.5560626e-12 </wgt>
<wgt id='1086'> +1.5669960e-12 </wgt>
<wgt id='1087'> +1.5551256e-12 </wgt>
<wgt id='1088'> +1.5598363e-12 </wgt>
<wgt id='1089'> +1.5878719e-12 </wgt>
<wgt id='1090'> +1.5517181e-12 </wgt>
<wgt id='1091'> +1.5718241e-12 </wgt>
<wgt id='1092'> +1.5858106e-12 </wgt>
<wgt id='1093'> +1.5434704e-12 </wgt>
<wgt id='1094'> +1.5944666e-12 </wgt>
<wgt id='1095'> +1.5756049e-12 </wgt>
<wgt id='1096'> +1.6000474e-12 </wgt>
<wgt id='1097'> +1.5536030e-12 </wgt>
<wgt id='1098'> +1.5402245e-12 </wgt>
<wgt id='1099'> +1.5535319e-12 </wgt>
<wgt id='1100'> +1.5668906e-12 </wgt>
<wgt id='1101'> +1.5886566e-12 </wgt>
<wgt id='1102'> +1.5683838e-12 </wgt>
<wgt id='1103'> +1.6107439e-12 </wgt>
<wgt id='1104'> +1.5376335e-12 </wgt>
<wgt id='1105'> +1.5502516e-12 </wgt>
<wgt id='1106'> +1.5857802e-12 </wgt>
<wgt id='1107'> +1.5466270e-12 </wgt>
<wgt id='1108'> +1.5620094e-12 </wgt>
<wgt id='1109'> +1.5985749e-12 </wgt>
<wgt id='1110'> +1.5578920e-12 </wgt>
<wgt id='1111'> +1.5591959e-12 </wgt>
<wgt id='1112'> +1.6029313e-12 </wgt>
<wgt id='1113'> +1.5950112e-12 </wgt>
<wgt id='1114'> +1.5674263e-12 </wgt>
<wgt id='1115'> +1.5310022e-12 </wgt>
<wgt id='1116'> +1.5524981e-12 </wgt>
<wgt id='1117'> +1.5421212e-12 </wgt>
<wgt id='1118'> +1.6592889e-12 </wgt>
<wgt id='1119'> +1.5118073e-12 </wgt>
<wgt id='1120'> +1.5360078e-12 </wgt>
<wgt id='1121'> +1.5530866e-12 </wgt>
<wgt id='1122'> +1.5858038e-12 </wgt>
<wgt id='1123'> +1.5261077e-12 </wgt>
<wgt id='1124'> +1.5229758e-12 </wgt>
<wgt id='1125'> +1.5333602e-12 </wgt>
<wgt id='1126'> +1.5947859e-12 </wgt>
<wgt id='1127'> +1.5584797e-12 </wgt>
<wgt id='1128'> +1.5699498e-12 </wgt>
<wgt id='1129'> +1.5677375e-12 </wgt>
<wgt id='1130'> +1.5669858e-12 </wgt>
<wgt id='1131'> +1.5616757e-12 </wgt>
<wgt id='1132'> +1.5869586e-12 </wgt>
<wgt id='1133'> +1.5455743e-12 </wgt>
<wgt id='1134'> +1.5927642e-12 </wgt>
<wgt id='1135'> +1.5028354e-12 </wgt>
<wgt id='1136'> +1.5501117e-12 </wgt>
<wgt id='1137'> +1.5249530e-12 </wgt>
<wgt id='1138'> +1.5516607e-12 </wgt>
<wgt id='1139'> +1.5555692e-12 </wgt>
<wgt id='1140'> +1.5876412e-12 </wgt>
<wgt id='1141'> +1.5632812e-12 </wgt>
<wgt id='1142'> +1.5391416e-12 </wgt>
<wgt id='1143'> +1.5947739e-12 </wgt>
<wgt id='1144'> +1.5754399e-12 </wgt>
<wgt id='1145'> +1.5647156e-12 </wgt>
<wgt id='1146'> +1.5754241e-12 </wgt>
<wgt id='1147'> +1.2504474e-12 </wgt>
<wgt id='1148'> +1.2810096e-12 </wgt>
<wgt id='1149'> +1.2881821e-12 </wgt>
<wgt id='1150'> +1.2797133e-12 </wgt>
<wgt id='1151'> +1.3935495e-12 </wgt>
<wgt id='1152'> +1.7541574e-12 </wgt>
<wgt id='1153'> +1.7442448e-12 </wgt>
<wgt id='1154'> +1.7598374e-12 </wgt>
<wgt id='1155'> +1.7534511e-12 </wgt>
<wgt id='1156'> +1.7545288e-12 </wgt>
<wgt id='1157'> +1.7572360e-12 </wgt>
<wgt id='1158'> +1.7498264e-12 </wgt>
<wgt id='1159'> +1.7568376e-12 </wgt>
<wgt id='1160'> +1.7524636e-12 </wgt>
<wgt id='1161'> +1.7501984e-12 </wgt>
<wgt id='1162'> +1.7568277e-12 </wgt>
<wgt id='1163'> +1.7580691e-12 </wgt>
<wgt id='1164'> +1.7501731e-12 </wgt>
<wgt id='1165'> +1.7422261e-12 </wgt>
<wgt id='1166'> +1.7656197e-12 </wgt>
<wgt id='1167'> +1.7649430e-12 </wgt>
<wgt id='1168'> +1.7396002e-12 </wgt>
<wgt id='1169'> +1.7565042e-12 </wgt>
<wgt id='1170'> +1.7523637e-12 </wgt>
<wgt id='1171'> +1.7489598e-12 </wgt>
<wgt id='1172'> +1.7601737e-12 </wgt>
<wgt id='1173'> +1.7415961e-12 </wgt>
<wgt id='1174'> +1.7658146e-12 </wgt>
<wgt id='1175'> +1.7564945e-12 </wgt>
<wgt id='1176'> +1.7512477e-12 </wgt>
<wgt id='1177'> +1.7564045e-12 </wgt>
<wgt id='1178'> +1.7477346e-12 </wgt>
<wgt id='1179'> +1.7587342e-12 </wgt>
<wgt id='1180'> +1.7426428e-12 </wgt>
<wgt id='1181'> +1.7474653e-12 </wgt>
<wgt id='1182'> +1.7607939e-12 </wgt>
<wgt id='1183'> +1.7553369e-12 </wgt>
<wgt id='1184'> +1.7540006e-12 </wgt>
<wgt id='1185'> +1.7466006e-12 </wgt>
<wgt id='1186'> +1.7583227e-12 </wgt>
<wgt id='1187'> +1.7533182e-12 </wgt>
<wgt id='1188'> +1.7543684e-12 </wgt>
<wgt id='1189'> +1.7481507e-12 </wgt>
<wgt id='1190'> +1.7425340e-12 </wgt>
<wgt id='1191'> +1.7499886e-12 </wgt>
<wgt id='1192'> +1.7561307e-12 </wgt>
<wgt id='1193'> +1.2673056e-12 </wgt>
<wgt id='1194'> +1.2642873e-12 </wgt>
<wgt id='1195'> +1.2696850e-12 </wgt>
<wgt id='1196'> +1.2735132e-12 </wgt>
<wgt id='1197'> +1.2603583e-12 </wgt>
<wgt id='1198'> +1.2678397e-12 </wgt>
<wgt id='1199'> +1.2664790e-12 </wgt>
<wgt id='1200'> +1.2689221e-12 </wgt>
<wgt id='1201'> +1.2662025e-12 </wgt>
<wgt id='1202'> +1.2653316e-12 </wgt>
<wgt id='1203'> +1.2700439e-12 </wgt>
<wgt id='1204'> +1.2557074e-12 </wgt>
<wgt id='1205'> +1.2743914e-12 </wgt>
<wgt id='1206'> +1.2716678e-12 </wgt>
<wgt id='1207'> +1.2613843e-12 </wgt>
<wgt id='1208'> +1.2594770e-12 </wgt>
<wgt id='1209'> +1.2701044e-12 </wgt>
<wgt id='1210'> +1.2676434e-12 </wgt>
<wgt id='1211'> +1.2582453e-12 </wgt>
<wgt id='1212'> +1.2682135e-12 </wgt>
<wgt id='1213'> +1.2663472e-12 </wgt>
<wgt id='1214'> +1.2512790e-12 </wgt>
<wgt id='1215'> +1.2929846e-12 </wgt>
<wgt id='1216'> +1.2733070e-12 </wgt>
<wgt id='1217'> +1.2627254e-12 </wgt>
<wgt id='1218'> +1.2726619e-12 </wgt>
<wgt id='1219'> +1.2643893e-12 </wgt>
<wgt id='1220'> +1.2726979e-12 </wgt>
<wgt id='1221'> +1.2658787e-12 </wgt>
<wgt id='1222'> +1.2712451e-12 </wgt>
<wgt id='1223'> +1.2605468e-12 </wgt>
<wgt id='1224'> +1.2689377e-12 </wgt>
<wgt id='1225'> +1.2666081e-12 </wgt>
<wgt id='1226'> +1.2640997e-12 </wgt>
<wgt id='1227'> +1.2694979e-12 </wgt>
<wgt id='1228'> +1.2614321e-12 </wgt>
<wgt id='1229'> +1.2694891e-12 </wgt>
<wgt id='1230'> +1.2599620e-12 </wgt>
<wgt id='1231'> +1.2663714e-12 </wgt>
<wgt id='1232'> +1.2656740e-12 </wgt>
<wgt id='1233'> +1.2676636e-12 </wgt>
<wgt id='1234'> +1.2673056e-12 </wgt>
<wgt id='1235'> +1.2580289e-12 </wgt>
<wgt id='1236'> +1.2614098e-12 </wgt>
<wgt id='1237'> +1.2644550e-12 </wgt>
<wgt id='1238'> +1.2695257e-12 </wgt>
<wgt id='1239'> +1.2716455e-12 </wgt>
<wgt id='1240'> +1.2736476e-12 </wgt>
<wgt id='1241'> +1.2574924e-12 </wgt>
<wgt id='1242'> +1.2502039e-12 </wgt>
<wgt id='1243'> +1.2647962e-12 </wgt>
<wgt id='1244'> +1.2503743e-12 </wgt>
<wgt id='1245'> +1.2627787e-12 </wgt>
<wgt id='1246'> +1.2579589e-12 </wgt>
<wgt id='1247'> +1.2572022e-12 </wgt>
<wgt id='1248'> +1.2574566e-12 </wgt>
<wgt id='1249'> +1.2575896e-12 </wgt>
<wgt id='1250'> +1.2586918e-12 </wgt>
<wgt id='1251'> +1.2567141e-12 </wgt>
<wgt id='1252'> +1.2547763e-12 </wgt>
<wgt id='1253'> +1.2596522e-12 </wgt>
<wgt id='1254'> +1.2472870e-12 </wgt>
<wgt id='1255'> +1.2636601e-12 </wgt>
<wgt id='1256'> +1.2618026e-12 </wgt>
<wgt id='1257'> +1.2468159e-12 </wgt>
<wgt id='1258'> +1.2773703e-12 </wgt>
<wgt id='1259'> +1.2384490e-12 </wgt>
<wgt id='1260'> +1.2611624e-12 </wgt>
<wgt id='1261'> +1.2534968e-12 </wgt>
<wgt id='1262'> +1.2578326e-12 </wgt>
<wgt id='1263'> +1.2570426e-12 </wgt>
<wgt id='1264'> +1.2637082e-12 </wgt>
<wgt id='1265'> +1.2544725e-12 </wgt>
<wgt id='1266'> +1.2496903e-12 </wgt>
<wgt id='1267'> +1.2647395e-12 </wgt>
<wgt id='1268'> +1.2593781e-12 </wgt>
<wgt id='1269'> +1.2587199e-12 </wgt>
<wgt id='1270'> +1.2495961e-12 </wgt>
<wgt id='1271'> +1.2512413e-12 </wgt>
<wgt id='1272'> +1.2560826e-12 </wgt>
<wgt id='1273'> +1.2573559e-12 </wgt>
<wgt id='1274'> +1.2595948e-12 </wgt>
<wgt id='1275'> +1.2531489e-12 </wgt>
<wgt id='1276'> +1.2607335e-12 </wgt>
<wgt id='1277'> +1.2520359e-12 </wgt>
<wgt id='1278'> +1.2579534e-12 </wgt>
<wgt id='1279'> +1.2565140e-12 </wgt>
<wgt id='1280'> +1.2580070e-12 </wgt>
<wgt id='1281'> +1.2554546e-12 </wgt>
<wgt id='1282'> +1.2574924e-12 </wgt>
<wgt id='1283'> +1.2483695e-12 </wgt>
<wgt id='1284'> +1.2518979e-12 </wgt>
<wgt id='1285'> +1.2549887e-12 </wgt>
<wgt id='1286'> +1.2601052e-12 </wgt>
<wgt id='1287'> +1.2621530e-12 </wgt>
<wgt id='1288'> +1.2638273e-12 </wgt>
<wgt id='1289'> +1.3202282e-12 </wgt>
<wgt id='1290'> +1.3206633e-12 </wgt>
<wgt id='1291'> +1.3197144e-12 </wgt>
<wgt id='1292'> +1.3148544e-12 </wgt>
<wgt id='1293'> +1.3240487e-12 </wgt>
<wgt id='1294'> +1.3153328e-12 </wgt>
<wgt id='1295'> +1.3249546e-12 </wgt>
<wgt id='1296'> +1.3164718e-12 </wgt>
<wgt id='1297'> +1.3247857e-12 </wgt>
<wgt id='1298'> +1.3265725e-12 </wgt>
<wgt id='1299'> +1.3122766e-12 </wgt>
<wgt id='1300'> +1.3232198e-12 </wgt>
<wgt id='1301'> +1.3141927e-12 </wgt>
<wgt id='1302'> +1.3188238e-12 </wgt>
<wgt id='1303'> +1.3221085e-12 </wgt>
<wgt id='1304'> +1.3179254e-12 </wgt>
<wgt id='1305'> +1.3217439e-12 </wgt>
<wgt id='1306'> +1.3141162e-12 </wgt>
<wgt id='1307'> +1.3271609e-12 </wgt>
<wgt id='1308'> +1.3227555e-12 </wgt>
<wgt id='1309'> +1.3183057e-12 </wgt>
<wgt id='1310'> +1.3204205e-12 </wgt>
<wgt id='1311'> +1.3200620e-12 </wgt>
<wgt id='1312'> +1.3158271e-12 </wgt>
<wgt id='1313'> +1.3247399e-12 </wgt>
<wgt id='1314'> +1.3186396e-12 </wgt>
<wgt id='1315'> +1.3164989e-12 </wgt>
<wgt id='1316'> +1.3264629e-12 </wgt>
<wgt id='1317'> +1.3203947e-12 </wgt>
<wgt id='1318'> +1.3284523e-12 </wgt>
<wgt id='1319'> +1.3101022e-12 </wgt>
<wgt id='1320'> +1.3315726e-12 </wgt>
<wgt id='1321'> +1.3107167e-12 </wgt>
<wgt id='1322'> +1.3194855e-12 </wgt>
<wgt id='1323'> +1.3207754e-12 </wgt>
<wgt id='1324'> +1.3171346e-12 </wgt>
<wgt id='1325'> +1.3322260e-12 </wgt>
<wgt id='1326'> +1.3203378e-12 </wgt>
<wgt id='1327'> +1.3221010e-12 </wgt>
<wgt id='1328'> +1.3207683e-12 </wgt>
<wgt id='1329'> +1.3195189e-12 </wgt>
<wgt id='1330'> +1.3084180e-12 </wgt>
<wgt id='1331'> +1.3282721e-12 </wgt>
<wgt id='1332'> +1.3426517e-12 </wgt>
<wgt id='1333'> +1.3070616e-12 </wgt>
<wgt id='1334'> +1.3165064e-12 </wgt>
<wgt id='1335'> +1.3300204e-12 </wgt>
<wgt id='1336'> +1.3149151e-12 </wgt>
<wgt id='1337'> +1.3215171e-12 </wgt>
<wgt id='1338'> +1.3184037e-12 </wgt>
<wgt id='1339'> +1.3204282e-12 </wgt>
<wgt id='1340'> +1.3009309e-12 </wgt>
<wgt id='1341'> +1.3015386e-12 </wgt>
<wgt id='1342'> +1.3003299e-12 </wgt>
<wgt id='1343'> +1.2955660e-12 </wgt>
<wgt id='1344'> +1.3046184e-12 </wgt>
<wgt id='1345'> +1.2960152e-12 </wgt>
<wgt id='1346'> +1.3055418e-12 </wgt>
<wgt id='1347'> +1.2974386e-12 </wgt>
<wgt id='1348'> +1.3048662e-12 </wgt>
<wgt id='1349'> +1.3068041e-12 </wgt>
<wgt id='1350'> +1.2951979e-12 </wgt>
<wgt id='1351'> +1.3039888e-12 </wgt>
<wgt id='1352'> +1.2943969e-12 </wgt>
<wgt id='1353'> +1.2990301e-12 </wgt>
<wgt id='1354'> +1.3043713e-12 </wgt>
<wgt id='1355'> +1.2989589e-12 </wgt>
<wgt id='1356'> +1.3020585e-12 </wgt>
<wgt id='1357'> +1.2955427e-12 </wgt>
<wgt id='1358'> +1.3074276e-12 </wgt>
<wgt id='1359'> +1.3051451e-12 </wgt>
<wgt id='1360'> +1.2973613e-12 </wgt>
<wgt id='1361'> +1.3009283e-12 </wgt>
<wgt id='1362'> +1.3012311e-12 </wgt>
<wgt id='1363'> +1.2957970e-12 </wgt>
<wgt id='1364'> +1.3047554e-12 </wgt>
<wgt id='1365'> +1.2960146e-12 </wgt>
<wgt id='1366'> +1.2993571e-12 </wgt>
<wgt id='1367'> +1.3069779e-12 </wgt>
<wgt id='1368'> +1.3006117e-12 </wgt>
<wgt id='1369'> +1.3080424e-12 </wgt>
<wgt id='1370'> +1.2923543e-12 </wgt>
<wgt id='1371'> +1.3092969e-12 </wgt>
<wgt id='1372'> +1.2909416e-12 </wgt>
<wgt id='1373'> +1.2982431e-12 </wgt>
<wgt id='1374'> +1.3029925e-12 </wgt>
<wgt id='1375'> +1.2977124e-12 </wgt>
<wgt id='1376'> +1.3139136e-12 </wgt>
<wgt id='1377'> +1.3011545e-12 </wgt>
<wgt id='1378'> +1.3031061e-12 </wgt>
<wgt id='1379'> +1.3012656e-12 </wgt>
<wgt id='1380'> +1.3004792e-12 </wgt>
<wgt id='1381'> +1.2892209e-12 </wgt>
<wgt id='1382'> +1.3075705e-12 </wgt>
<wgt id='1383'> +1.3224579e-12 </wgt>
<wgt id='1384'> +1.2877705e-12 </wgt>
<wgt id='1385'> +1.2975285e-12 </wgt>
<wgt id='1386'> +1.3094125e-12 </wgt>
<wgt id='1387'> +1.2937677e-12 </wgt>
<wgt id='1388'> +1.3026873e-12 </wgt>
<wgt id='1389'> +1.2970476e-12 </wgt>
<wgt id='1390'> +1.3017552e-12 </wgt>
<wgt id='1391'> +1.2772893e-12 </wgt>
<wgt id='1392'> +1.2509871e-12 </wgt>
<wgt id='1393'> +1.2596639e-12 </wgt>
<wgt id='1394'> +1.2690558e-12 </wgt>
<wgt id='1395'> +1.2865808e-12 </wgt>
<wgt id='1396'> +1.2782564e-12 </wgt>
<wgt id='1397'> +1.2375167e-12 </wgt>
<wgt id='1398'> +1.2458491e-12 </wgt>
<wgt id='1399'> +1.2534637e-12 </wgt>
<wgt id='1400'> +1.2613281e-12 </wgt>
<wgt id='1401'> +1.2697744e-12 </wgt>
<wgt id='1402'> +1.2863233e-12 </wgt>
<wgt id='1403'> +1.2945246e-12 </wgt>
<wgt id='1404'> +1.3023100e-12 </wgt>
<wgt id='1405'> +1.2782564e-12 </wgt>
<wgt id='1406'> +1.2735586e-12 </wgt>
<wgt id='1407'> +1.2761862e-12 </wgt>
<wgt id='1408'> +1.2802494e-12 </wgt>
<wgt id='1409'> +1.2823888e-12 </wgt>
<wgt id='1410'> +1.2539381e-12 </wgt>
<wgt id='1411'> +1.2542892e-12 </wgt>
<wgt id='1412'> +1.2534116e-12 </wgt>
<wgt id='1413'> +1.2567211e-12 </wgt>
<wgt id='1414'> +1.2510818e-12 </wgt>
<wgt id='1415'> +1.2466578e-12 </wgt>
<wgt id='1416'> +1.2568353e-12 </wgt>
<wgt id='1417'> +1.2455884e-12 </wgt>
<wgt id='1418'> +1.2622167e-12 </wgt>
<wgt id='1419'> +1.2562966e-12 </wgt>
<wgt id='1420'> +1.2515672e-12 </wgt>
<wgt id='1421'> +1.2398828e-12 </wgt>
<wgt id='1422'> +1.2599499e-12 </wgt>
<wgt id='1423'> +1.2535790e-12 </wgt>
<wgt id='1424'> +1.2542805e-12 </wgt>
<wgt id='1425'> +1.2491916e-12 </wgt>
<wgt id='1426'> +1.2590199e-12 </wgt>
<wgt id='1427'> +1.2457388e-12 </wgt>
<wgt id='1428'> +1.2582502e-12 </wgt>
<wgt id='1429'> +1.2488287e-12 </wgt>
<wgt id='1430'> +1.2608513e-12 </wgt>
<wgt id='1431'> +1.2566292e-12 </wgt>
<wgt id='1432'> +1.2519052e-12 </wgt>
<wgt id='1433'> +1.2530950e-12 </wgt>
<wgt id='1434'> +1.2532593e-12 </wgt>
<wgt id='1435'> +1.2557149e-12 </wgt>
<wgt id='1436'> +1.2494941e-12 </wgt>
<wgt id='1437'> +1.2601234e-12 </wgt>
<wgt id='1438'> +1.2534239e-12 </wgt>
<wgt id='1439'> +1.2485341e-12 </wgt>
<wgt id='1440'> +1.2655361e-12 </wgt>
<wgt id='1441'> +1.2571553e-12 </wgt>
<wgt id='1442'> +1.2480193e-12 </wgt>
<wgt id='1443'> +1.2510421e-12 </wgt>
<wgt id='1444'> +1.2608849e-12 </wgt>
<wgt id='1445'> +1.2663614e-12 </wgt>
<wgt id='1446'> +1.2498209e-12 </wgt>
<wgt id='1447'> +1.2537250e-12 </wgt>
<wgt id='1448'> +1.2566222e-12 </wgt>
<wgt id='1449'> +1.2549576e-12 </wgt>
<wgt id='1450'> +1.2528750e-12 </wgt>
<wgt id='1451'> +1.2593980e-12 </wgt>
<wgt id='1452'> +1.2384065e-12 </wgt>
<wgt id='1453'> +1.2551189e-12 </wgt>
<wgt id='1454'> +1.2450775e-12 </wgt>
<wgt id='1455'> +1.2467266e-12 </wgt>
<wgt id='1456'> +1.2574115e-12 </wgt>
<wgt id='1457'> +1.2575884e-12 </wgt>
<wgt id='1458'> +1.2522171e-12 </wgt>
<wgt id='1459'> +1.2591326e-12 </wgt>
<wgt id='1460'> +1.2489912e-12 </wgt>
<wgt id='1461'> +1.2539381e-12 </wgt>
<wgt id='1462'> +1.2473163e-12 </wgt>
<wgt id='1463'> +1.2623504e-12 </wgt>
<wgt id='1464'> +1.2553546e-12 </wgt>
<wgt id='1465'> +1.2216032e-12 </wgt>
<wgt id='1466'> +1.2283508e-12 </wgt>
<wgt id='1467'> +1.2358234e-12 </wgt>
<wgt id='1468'> +1.2420303e-12 </wgt>
<wgt id='1469'> +1.2486494e-12 </wgt>
<wgt id='1470'> +1.2625484e-12 </wgt>
<wgt id='1471'> +1.2682396e-12 </wgt>
<wgt id='1472'> +1.2751607e-12 </wgt>
<wgt id='1473'> +1.2553546e-12 </wgt>
<wgt id='1474'> +1.2504564e-12 </wgt>
<wgt id='1475'> +1.2523711e-12 </wgt>
<wgt id='1476'> +1.2574594e-12 </wgt>
<wgt id='1477'> +1.2594038e-12 </wgt>
<wgt id='1478'> +1.2471207e-12 </wgt>
<wgt id='1479'> +1.2445582e-12 </wgt>
<wgt id='1480'> +1.2418075e-12 </wgt>
<wgt id='1481'> +1.2475998e-12 </wgt>
<wgt id='1482'> +1.2440823e-12 </wgt>
<wgt id='1483'> +1.2323831e-12 </wgt>
<wgt id='1484'> +1.2497108e-12 </wgt>
<wgt id='1485'> +1.2419683e-12 </wgt>
<wgt id='1486'> +1.2479375e-12 </wgt>
<wgt id='1487'> +1.2483721e-12 </wgt>
<wgt id='1488'> +1.2452544e-12 </wgt>
<wgt id='1489'> +1.2613643e-12 </wgt>
<wgt id='1490'> +1.2421544e-12 </wgt>
<wgt id='1491'> +1.2472899e-12 </wgt>
<wgt id='1492'> +1.2504853e-12 </wgt>
<wgt id='1493'> +1.2280011e-12 </wgt>
<wgt id='1494'> +1.2559185e-12 </wgt>
<wgt id='1495'> +1.2377747e-12 </wgt>
<wgt id='1496'> +1.2458614e-12 </wgt>
<wgt id='1497'> +1.2457438e-12 </wgt>
<wgt id='1498'> +1.2474949e-12 </wgt>
<wgt id='1499'> +1.2472313e-12 </wgt>
<wgt id='1500'> +1.2465872e-12 </wgt>
<wgt id='1501'> +1.2477323e-12 </wgt>
<wgt id='1502'> +1.2495375e-12 </wgt>
<wgt id='1503'> +1.2468218e-12 </wgt>
<wgt id='1504'> +1.2436379e-12 </wgt>
<wgt id='1505'> +1.2470178e-12 </wgt>
<wgt id='1506'> +1.2448075e-12 </wgt>
<wgt id='1507'> +1.2467908e-12 </wgt>
<wgt id='1508'> +1.2506044e-12 </wgt>
<wgt id='1509'> +1.2827955e-12 </wgt>
<wgt id='1510'> +1.2815845e-12 </wgt>
<wgt id='1511'> +1.2853077e-12 </wgt>
<wgt id='1512'> +1.2827681e-12 </wgt>
<wgt id='1513'> +1.2850837e-12 </wgt>
<wgt id='1514'> +1.2844883e-12 </wgt>
<wgt id='1515'> +1.2824380e-12 </wgt>
<wgt id='1516'> +1.2856315e-12 </wgt>
<wgt id='1517'> +1.2881750e-12 </wgt>
<wgt id='1518'> +1.2840680e-12 </wgt>
<wgt id='1519'> +1.2758590e-12 </wgt>
<wgt id='1520'> +1.2861133e-12 </wgt>
<wgt id='1521'> +1.2883882e-12 </wgt>
<wgt id='1522'> +1.2829162e-12 </wgt>
<wgt id='1523'> +1.2884253e-12 </wgt>
<wgt id='1524'> +1.2850247e-12 </wgt>
<wgt id='1525'> +1.2882494e-12 </wgt>
<wgt id='1526'> +1.2795081e-12 </wgt>
<wgt id='1527'> +1.2790326e-12 </wgt>
<wgt id='1528'> +1.2847481e-12 </wgt>
<wgt id='1529'> +1.2827917e-12 </wgt>
<wgt id='1530'> +1.2887647e-12 </wgt>
<wgt id='1531'> +1.2845511e-12 </wgt>
<wgt id='1532'> +1.2785573e-12 </wgt>
<wgt id='1533'> +1.2823300e-12 </wgt>
<wgt id='1534'> +1.2863783e-12 </wgt>
<wgt id='1535'> +1.2740372e-12 </wgt>
<wgt id='1536'> +1.2797628e-12 </wgt>
<wgt id='1537'> +1.2806736e-12 </wgt>
<wgt id='1538'> +1.2843868e-12 </wgt>
<wgt id='1539'> +1.2908561e-12 </wgt>
<wgt id='1540'> +1.2844356e-12 </wgt>
<wgt id='1541'> +1.2835708e-12 </wgt>
<wgt id='1542'> +1.2811114e-12 </wgt>
<wgt id='1543'> +1.2820324e-12 </wgt>
<wgt id='1544'> +1.2821090e-12 </wgt>
<wgt id='1545'> +1.2830189e-12 </wgt>
<wgt id='1546'> +1.2808620e-12 </wgt>
<wgt id='1547'> +1.2831379e-12 </wgt>
<wgt id='1548'> +1.2821930e-12 </wgt>
<wgt id='1549'> +1.2819238e-12 </wgt>
<wgt id='1550'> +1.2848426e-12 </wgt>
<wgt id='1551'> +1.2848723e-12 </wgt>
<wgt id='1552'> +1.2829901e-12 </wgt>
<wgt id='1553'> +1.2835796e-12 </wgt>
<wgt id='1554'> +1.2857328e-12 </wgt>
<wgt id='1555'> +1.2847890e-12 </wgt>
<wgt id='1556'> +1.2826274e-12 </wgt>
<wgt id='1557'> +1.2841561e-12 </wgt>
<wgt id='1558'> +1.2826890e-12 </wgt>
<wgt id='1559'> +1.2828672e-12 </wgt>
<wgt id='1560'> +1.2850213e-12 </wgt>
<wgt id='1561'> +1.2815193e-12 </wgt>
<wgt id='1562'> +1.2817211e-12 </wgt>
<wgt id='1563'> +1.2832987e-12 </wgt>
<wgt id='1564'> +1.2802931e-12 </wgt>
<wgt id='1565'> +1.2837141e-12 </wgt>
<wgt id='1566'> +1.2825384e-12 </wgt>
<wgt id='1567'> +1.2833846e-12 </wgt>
<wgt id='1568'> +1.2825636e-12 </wgt>
<wgt id='1569'> +1.2825581e-12 </wgt>
<wgt id='1570'> +1.2816248e-12 </wgt>
<wgt id='1571'> +1.2829118e-12 </wgt>
<wgt id='1572'> +1.2811113e-12 </wgt>
<wgt id='1573'> +1.2811435e-12 </wgt>
<wgt id='1574'> +1.2827679e-12 </wgt>
<wgt id='1575'> +1.2837940e-12 </wgt>
<wgt id='1576'> +1.2826221e-12 </wgt>
<wgt id='1577'> +1.2820772e-12 </wgt>
<wgt id='1578'> +1.2823972e-12 </wgt>
<wgt id='1579'> +1.2824804e-12 </wgt>
<wgt id='1580'> +1.2838067e-12 </wgt>
<wgt id='1581'> +1.2830726e-12 </wgt>
<wgt id='1582'> +1.2819415e-12 </wgt>
<wgt id='1583'> +1.2830736e-12 </wgt>
<wgt id='1584'> +1.2833042e-12 </wgt>
<wgt id='1585'> +1.2821628e-12 </wgt>
<wgt id='1586'> +1.2827055e-12 </wgt>
<wgt id='1587'> +1.2835879e-12 </wgt>
<wgt id='1588'> +1.2831785e-12 </wgt>
<wgt id='1589'> +1.2834545e-12 </wgt>
<wgt id='1590'> +1.2829005e-12 </wgt>
<wgt id='1591'> +1.2834908e-12 </wgt>
<wgt id='1592'> +1.2818132e-12 </wgt>
<wgt id='1593'> +1.2831226e-12 </wgt>
<wgt id='1594'> +1.2832518e-12 </wgt>
<wgt id='1595'> +1.2831118e-12 </wgt>
<wgt id='1596'> +1.2834941e-12 </wgt>
<wgt id='1597'> +1.2820607e-12 </wgt>
<wgt id='1598'> +1.2827696e-12 </wgt>
<wgt id='1599'> +1.2836831e-12 </wgt>
<wgt id='1600'> +1.2825566e-12 </wgt>
<wgt id='1601'> +1.2828903e-12 </wgt>
<wgt id='1602'> +1.2827247e-12 </wgt>
<wgt id='1603'> +1.2832957e-12 </wgt>
<wgt id='1604'> +1.2830396e-12 </wgt>
<wgt id='1605'> +1.2830416e-12 </wgt>
<wgt id='1606'> +1.2821660e-12 </wgt>
<wgt id='1607'> +1.2829347e-12 </wgt>
<wgt id='1608'> +1.2825106e-12 </wgt>
<wgt id='1609'> +1.2826449e-12 </wgt>
<wgt id='1610'> +1.2746022e-12 </wgt>
<wgt id='1611'> +1.2913249e-12 </wgt>
<wgt id='1612'> +1.5175434e-12 </wgt>
<wgt id='1613'> +1.4939320e-12 </wgt>
<wgt id='1614'> +1.5277160e-12 </wgt>
<wgt id='1615'> +1.5155300e-12 </wgt>
<wgt id='1616'> +1.5402984e-12 </wgt>
<wgt id='1617'> +1.5381628e-12 </wgt>
<wgt id='1618'> +1.5511953e-12 </wgt>
<wgt id='1619'> +1.5026492e-12 </wgt>
<wgt id='1620'> +1.4585427e-12 </wgt>
<wgt id='1621'> +1.5403290e-12 </wgt>
<wgt id='1622'> +1.5292362e-12 </wgt>
<wgt id='1623'> +1.5004978e-12 </wgt>
<wgt id='1624'> +1.4947594e-12 </wgt>
<wgt id='1625'> +1.5074021e-12 </wgt>
<wgt id='1626'> +1.4960668e-12 </wgt>
<wgt id='1627'> +1.5109737e-12 </wgt>
<wgt id='1628'> +1.5417945e-12 </wgt>
<wgt id='1629'> +1.5871441e-12 </wgt>
<wgt id='1630'> +1.5059970e-12 </wgt>
<wgt id='1631'> +1.5137965e-12 </wgt>
<wgt id='1632'> +1.4472350e-12 </wgt>
<wgt id='1633'> +1.4847854e-12 </wgt>
<wgt id='1634'> +1.5824791e-12 </wgt>
<wgt id='1635'> +1.5249996e-12 </wgt>
<wgt id='1636'> +1.5582613e-12 </wgt>
<wgt id='1637'> +1.4992008e-12 </wgt>
<wgt id='1638'> +1.5526078e-12 </wgt>
<wgt id='1639'> +1.4881952e-12 </wgt>
<wgt id='1640'> +1.5391300e-12 </wgt>
<wgt id='1641'> +1.4972341e-12 </wgt>
<wgt id='1642'> +1.5305028e-12 </wgt>
<wgt id='1643'> +1.5423235e-12 </wgt>
<wgt id='1644'> +1.4982425e-12 </wgt>
<wgt id='1645'> +1.5386457e-12 </wgt>
<wgt id='1646'> +1.4925670e-12 </wgt>
<wgt id='1647'> +1.4884023e-12 </wgt>
<wgt id='1648'> +1.5538592e-12 </wgt>
<wgt id='1649'> +1.5521030e-12 </wgt>
<wgt id='1650'> +1.5042261e-12 </wgt>
<wgt id='1651'> +1.4741425e-12 </wgt>
<wgt id='1652'> +1.4838186e-12 </wgt>
<wgt id='1653'> +1.5459267e-12 </wgt>
<wgt id='1654'> +1.5305047e-12 </wgt>
<wgt id='1655'> +1.4902390e-12 </wgt>
<wgt id='1656'> +1.4816292e-12 </wgt>
<wgt id='1657'> +1.4884164e-12 </wgt>
<wgt id='1658'> +1.4968701e-12 </wgt>
<wgt id='1659'> +1.4947594e-12 </wgt>
<wgt id='1660'> +1.5272789e-12 </wgt>
<wgt id='1661'> +1.5284267e-12 </wgt>
<wgt id='1662'> +1.5161091e-12 </wgt>
<wgt id='1663'> +1.5066678e-12 </wgt>
<wgt id='1664'> +1.5183037e-12 </wgt>
<wgt id='1665'> +1.5113478e-12 </wgt>
<wgt id='1666'> +1.5184714e-12 </wgt>
<wgt id='1667'> +1.4762397e-12 </wgt>
<wgt id='1668'> +1.5284002e-12 </wgt>
<wgt id='1669'> +1.5169278e-12 </wgt>
<wgt id='1670'> +1.5327122e-12 </wgt>
<wgt id='1671'> +1.5029089e-12 </wgt>
<wgt id='1672'> +1.5554035e-12 </wgt>
<wgt id='1673'> +1.4846282e-12 </wgt>
<wgt id='1674'> +1.4784276e-12 </wgt>
<wgt id='1675'> +1.5555432e-12 </wgt>
<wgt id='1676'> +1.5553095e-12 </wgt>
<wgt id='1677'> +1.5896727e-12 </wgt>
<wgt id='1678'> +1.5040045e-12 </wgt>
<wgt id='1679'> +1.5156016e-12 </wgt>
<wgt id='1680'> +1.5368363e-12 </wgt>
<wgt id='1681'> +1.5275657e-12 </wgt>
<wgt id='1682'> +1.5274514e-12 </wgt>
<wgt id='1683'> +1.4708278e-12 </wgt>
<wgt id='1684'> +1.5024693e-12 </wgt>
<wgt id='1685'> +1.5063482e-12 </wgt>
<wgt id='1686'> +1.5268025e-12 </wgt>
<wgt id='1687'> +1.5442936e-12 </wgt>
<wgt id='1688'> +1.5281322e-12 </wgt>
<wgt id='1689'> +1.4994376e-12 </wgt>
<wgt id='1690'> +1.5566017e-12 </wgt>
<wgt id='1691'> +1.5588918e-12 </wgt>
<wgt id='1692'> +1.5351191e-12 </wgt>
<wgt id='1693'> +1.5457566e-12 </wgt>
<wgt id='1694'> +1.5103829e-12 </wgt>
<wgt id='1695'> +1.5686643e-12 </wgt>
<wgt id='1696'> +1.5543599e-12 </wgt>
<wgt id='1697'> +1.5055168e-12 </wgt>
<wgt id='1698'> +1.5039774e-12 </wgt>
<wgt id='1699'> +1.5233255e-12 </wgt>
<wgt id='1700'> +1.5132752e-12 </wgt>
<wgt id='1701'> +1.4896902e-12 </wgt>
<wgt id='1702'> +1.5033594e-12 </wgt>
<wgt id='1703'> +1.5580101e-12 </wgt>
<wgt id='1704'> +1.5020452e-12 </wgt>
<wgt id='1705'> +1.4687482e-12 </wgt>
<wgt id='1706'> +1.5334295e-12 </wgt>
<wgt id='1707'> +1.4854773e-12 </wgt>
<wgt id='1708'> +1.4844176e-12 </wgt>
<wgt id='1709'> +1.5089694e-12 </wgt>
<wgt id='1710'> +1.4728217e-12 </wgt>
<wgt id='1711'> +1.5387815e-12 </wgt>
<wgt id='1712'> +1.5237550e-12 </wgt>
<wgt id='1713'> +1.2085193e-12 </wgt>
<wgt id='1714'> +1.1711155e-12 </wgt>
<wgt id='1715'> +1.2209979e-12 </wgt>
<wgt id='1716'> +1.2260738e-12 </wgt>
<wgt id='1717'> +1.1988718e-12 </wgt>
<wgt id='1718'> +1.2230053e-12 </wgt>
<wgt id='1719'> +1.2134849e-12 </wgt>
<wgt id='1720'> +1.2256740e-12 </wgt>
<wgt id='1721'> +1.1728256e-12 </wgt>
<wgt id='1722'> +1.1931822e-12 </wgt>
<wgt id='1723'> +1.1829332e-12 </wgt>
<wgt id='1724'> +1.2466754e-12 </wgt>
<wgt id='1725'> +1.2082908e-12 </wgt>
<wgt id='1726'> +1.2552176e-12 </wgt>
<wgt id='1727'> +1.2107135e-12 </wgt>
<wgt id='1728'> +1.2095083e-12 </wgt>
<wgt id='1729'> +1.1943094e-12 </wgt>
<wgt id='1730'> +1.1936308e-12 </wgt>
<wgt id='1731'> +1.1606751e-12 </wgt>
<wgt id='1732'> +1.2218133e-12 </wgt>
<wgt id='1733'> +1.2186566e-12 </wgt>
<wgt id='1734'> +1.2296619e-12 </wgt>
<wgt id='1735'> +1.2044211e-12 </wgt>
<wgt id='1736'> +1.2607821e-12 </wgt>
<wgt id='1737'> +1.2459993e-12 </wgt>
<wgt id='1738'> +1.2327119e-12 </wgt>
<wgt id='1739'> +1.1635056e-12 </wgt>
<wgt id='1740'> +1.1949477e-12 </wgt>
<wgt id='1741'> +1.2270036e-12 </wgt>
<wgt id='1742'> +1.2136243e-12 </wgt>
<wgt id='1743'> +1.2215936e-12 </wgt>
<wgt id='1744'> +1.2447098e-12 </wgt>
<wgt id='1745'> +1.1577929e-12 </wgt>
<wgt id='1746'> +1.2134786e-12 </wgt>
<wgt id='1747'> +1.2146240e-12 </wgt>
<wgt id='1748'> +1.2092276e-12 </wgt>
<wgt id='1749'> +1.2105962e-12 </wgt>
<wgt id='1750'> +1.2267121e-12 </wgt>
<wgt id='1751'> +1.1725857e-12 </wgt>
<wgt id='1752'> +1.1945985e-12 </wgt>
<wgt id='1753'> +1.2250345e-12 </wgt>
<wgt id='1754'> +1.2147698e-12 </wgt>
<wgt id='1755'> +1.2393104e-12 </wgt>
<wgt id='1756'> +1.2292159e-12 </wgt>
<wgt id='1757'> +1.1938566e-12 </wgt>
<wgt id='1758'> +1.2243982e-12 </wgt>
<wgt id='1759'> +1.2218721e-12 </wgt>
<wgt id='1760'> +1.1733306e-12 </wgt>
<wgt id='1761'> +1.1882238e-12 </wgt>
<wgt id='1762'> +1.1962893e-12 </wgt>
<wgt id='1763'> +1.2282746e-12 </wgt>
<wgt id='1764'> +1.1977091e-12 </wgt>
<wgt id='1765'> +1.2071539e-12 </wgt>
<wgt id='1766'> +1.1968777e-12 </wgt>
<wgt id='1767'> +1.2128627e-12 </wgt>
<wgt id='1768'> +1.2110832e-12 </wgt>
<wgt id='1769'> +1.1872427e-12 </wgt>
<wgt id='1770'> +1.1981023e-12 </wgt>
<wgt id='1771'> +1.2207685e-12 </wgt>
<wgt id='1772'> +1.2391289e-12 </wgt>
<wgt id='1773'> +1.1967648e-12 </wgt>
<wgt id='1774'> +1.1986767e-12 </wgt>
<wgt id='1775'> +1.2233390e-12 </wgt>
<wgt id='1776'> +1.2317661e-12 </wgt>
<wgt id='1777'> +1.1524427e-12 </wgt>
<wgt id='1778'> +1.1908274e-12 </wgt>
<wgt id='1779'> +1.2420489e-12 </wgt>
<wgt id='1780'> +1.1879666e-12 </wgt>
<wgt id='1781'> +1.2092280e-12 </wgt>
<wgt id='1782'> +1.1857590e-12 </wgt>
<wgt id='1783'> +1.2080767e-12 </wgt>
<wgt id='1784'> +1.2105300e-12 </wgt>
<wgt id='1785'> +1.1994800e-12 </wgt>
<wgt id='1786'> +1.1440501e-12 </wgt>
<wgt id='1787'> +1.2478668e-12 </wgt>
<wgt id='1788'> +1.2231382e-12 </wgt>
<wgt id='1789'> +1.2044089e-12 </wgt>
<wgt id='1790'> +1.2366387e-12 </wgt>
<wgt id='1791'> +1.2166651e-12 </wgt>
<wgt id='1792'> +1.1852828e-12 </wgt>
<wgt id='1793'> +1.2105118e-12 </wgt>
<wgt id='1794'> +1.2194807e-12 </wgt>
<wgt id='1795'> +1.2145701e-12 </wgt>
<wgt id='1796'> +1.1959432e-12 </wgt>
<wgt id='1797'> +1.2123670e-12 </wgt>
<wgt id='1798'> +1.2121397e-12 </wgt>
<wgt id='1799'> +1.2199290e-12 </wgt>
<wgt id='1800'> +1.2072377e-12 </wgt>
<wgt id='1801'> +1.2005098e-12 </wgt>
<wgt id='1802'> +1.1996726e-12 </wgt>
<wgt id='1803'> +1.2297406e-12 </wgt>
<wgt id='1804'> +1.1952341e-12 </wgt>
<wgt id='1805'> +1.1961269e-12 </wgt>
<wgt id='1806'> +1.1950290e-12 </wgt>
<wgt id='1807'> +1.2292342e-12 </wgt>
<wgt id='1808'> +1.2033801e-12 </wgt>
<wgt id='1809'> +1.1877128e-12 </wgt>
<wgt id='1810'> +1.1940876e-12 </wgt>
<wgt id='1811'> +1.2306581e-12 </wgt>
<wgt id='1812'> +1.2088739e-12 </wgt>
<wgt id='1813'> +1.2064283e-12 </wgt>
<wgt id='1814'> +1.4241504e-12 </wgt>
<wgt id='1815'> +1.6313022e-12 </wgt>
<wgt id='1816'> +1.2085193e-12 </wgt>
<wgt id='1817'> +1.1711155e-12 </wgt>
<wgt id='1818'> +1.2209979e-12 </wgt>
<wgt id='1819'> +1.2260738e-12 </wgt>
<wgt id='1820'> +1.1988718e-12 </wgt>
<wgt id='1821'> +1.2230053e-12 </wgt>
<wgt id='1822'> +1.2134849e-12 </wgt>
<wgt id='1823'> +1.2256740e-12 </wgt>
<wgt id='1824'> +1.1728256e-12 </wgt>
<wgt id='1825'> +1.1931822e-12 </wgt>
<wgt id='1826'> +1.1829332e-12 </wgt>
<wgt id='1827'> +1.2466754e-12 </wgt>
<wgt id='1828'> +1.2082908e-12 </wgt>
<wgt id='1829'> +1.2552176e-12 </wgt>
<wgt id='1830'> +1.2107135e-12 </wgt>
<wgt id='1831'> +1.2095083e-12 </wgt>
<wgt id='1832'> +1.1943094e-12 </wgt>
<wgt id='1833'> +1.1936308e-12 </wgt>
<wgt id='1834'> +1.1606751e-12 </wgt>
<wgt id='1835'> +1.2218133e-12 </wgt>
<wgt id='1836'> +1.2186566e-12 </wgt>
<wgt id='1837'> +1.2296619e-12 </wgt>
<wgt id='1838'> +1.2044211e-12 </wgt>
<wgt id='1839'> +1.2607821e-12 </wgt>
<wgt id='1840'> +1.2459993e-12 </wgt>
<wgt id='1841'> +1.2327119e-12 </wgt>
<wgt id='1842'> +1.1635056e-12 </wgt>
<wgt id='1843'> +1.1949477e-12 </wgt>
<wgt id='1844'> +1.2270036e-12 </wgt>
<wgt id='1845'> +1.2136243e-12 </wgt>
<wgt id='1846'> +1.2215936e-12 </wgt>
<wgt id='1847'> +1.2447098e-12 </wgt>
<wgt id='1848'> +1.1577929e-12 </wgt>
<wgt id='1849'> +1.2134786e-12 </wgt>
<wgt id='1850'> +1.2146240e-12 </wgt>
<wgt id='1851'> +1.2092276e-12 </wgt>
<wgt id='1852'> +1.2105962e-12 </wgt>
<wgt id='1853'> +1.2267121e-12 </wgt>
<wgt id='1854'> +1.1725857e-12 </wgt>
<wgt id='1855'> +1.1945985e-12 </wgt>
<wgt id='1856'> +1.2250345e-12 </wgt>
<wgt id='1857'> +1.2147698e-12 </wgt>
<wgt id='1858'> +1.2393104e-12 </wgt>
<wgt id='1859'> +1.2292159e-12 </wgt>
<wgt id='1860'> +1.1938566e-12 </wgt>
<wgt id='1861'> +1.2243982e-12 </wgt>
<wgt id='1862'> +1.2218721e-12 </wgt>
<wgt id='1863'> +1.1733306e-12 </wgt>
<wgt id='1864'> +1.1882238e-12 </wgt>
<wgt id='1865'> +1.1962893e-12 </wgt>
<wgt id='1866'> +1.2282746e-12 </wgt>
<wgt id='1867'> +1.1977091e-12 </wgt>
<wgt id='1868'> +1.2071539e-12 </wgt>
<wgt id='1869'> +1.1968777e-12 </wgt>
<wgt id='1870'> +1.2128627e-12 </wgt>
<wgt id='1871'> +1.2110832e-12 </wgt>
<wgt id='1872'> +1.1872427e-12 </wgt>
<wgt id='1873'> +1.1981023e-12 </wgt>
<wgt id='1874'> +1.2207685e-12 </wgt>
<wgt id='1875'> +1.2391289e-12 </wgt>
<wgt id='1876'> +1.1967648e-12 </wgt>
<wgt id='1877'> +1.1986767e-12 </wgt>
<wgt id='1878'> +1.2233390e-12 </wgt>
<wgt id='1879'> +1.2317661e-12 </wgt>
<wgt id='1880'> +1.1524427e-12 </wgt>
<wgt id='1881'> +1.1908274e-12 </wgt>
<wgt id='1882'> +1.2420489e-12 </wgt>
<wgt id='1883'> +1.1879666e-12 </wgt>
<wgt id='1884'> +1.2092280e-12 </wgt>
<wgt id='1885'> +1.1857590e-12 </wgt>
<wgt id='1886'> +1.2080767e-12 </wgt>
<wgt id='1887'> +1.2105300e-12 </wgt>
<wgt id='1888'> +1.1994800e-12 </wgt>
<wgt id='1889'> +1.1440501e-12 </wgt>
<wgt id='1890'> +1.2478668e-12 </wgt>
<wgt id='1891'> +1.2231382e-12 </wgt>
<wgt id='1892'> +1.2044089e-12 </wgt>
<wgt id='1893'> +1.2366387e-12 </wgt>
<wgt id='1894'> +1.2166651e-12 </wgt>
<wgt id='1895'> +1.1852828e-12 </wgt>
<wgt id='1896'> +1.2105118e-12 </wgt>
<wgt id='1897'> +1.2194807e-12 </wgt>
<wgt id='1898'> +1.2145701e-12 </wgt>
<wgt id='1899'> +1.1959432e-12 </wgt>
<wgt id='1900'> +1.2123670e-12 </wgt>
<wgt id='1901'> +1.2121397e-12 </wgt>
<wgt id='1902'> +1.2199290e-12 </wgt>
<wgt id='1903'> +1.2072377e-12 </wgt>
<wgt id='1904'> +1.2005098e-12 </wgt>
<wgt id='1905'> +1.1996726e-12 </wgt>
<wgt id='1906'> +1.2297406e-12 </wgt>
<wgt id='1907'> +1.1952341e-12 </wgt>
<wgt id='1908'> +1.1961269e-12 </wgt>
<wgt id='1909'> +1.1950290e-12 </wgt>
<wgt id='1910'> +1.2292342e-12 </wgt>
<wgt id='1911'> +1.2033801e-12 </wgt>
<wgt id='1912'> +1.1877128e-12 </wgt>
<wgt id='1913'> +1.1940876e-12 </wgt>
<wgt id='1914'> +1.2306581e-12 </wgt>
<wgt id='1915'> +1.2088739e-12 </wgt>
<wgt id='1916'> +1.2064283e-12 </wgt>
<wgt id='1917'> +1.1997266e-12 </wgt>
<wgt id='1918'> +1.2132852e-12 </wgt>
<wgt id='1919'> +1.2341698e-12 </wgt>
</rwgt>
</event>
<event>
 9      1 +1.5607000e-12 9.97442500e+01 7.81860800e-03 1.16269800e-01
       21 -1    0    0  501  502 +0.0000000000e+00 +0.0000000000e+00 +4.3138780871e+02 4.3138780871e+02 0.0000000000e+00 0.0000e+00 -1.0000e+00
        2 -1    0    0  502    0 -0.0000000000e+00 -0.0000000000e+00 -5.7656448347e+00 5.7656448347e+00 0.0000000000e+00 0.0000e+00 -1.0000e+00
     1023  2    1    2    0    0 +1.3463067490e+01 -4.6774542351e+01 +2.0616820588e+02 2.1236655073e+02 1.5003691334e+01 0.0000e+00 0.0000e+00
  1000023  2    3    3    0    0 +6.5331825141e+00 -1.0937863814e+01 +4.8105241752e+01 5.0066854291e+01 5.5005705169e+00 0.0000e+00 0.0000e+00
        2  1    1    2  501    0 -1.3463067490e+01 +4.6774542351e+01 +2.1945395800e+02 2.2478690282e+02 0.0000000000e+00 0.0000e+00 -1.0000e+00
  1000022  1    4    4    0    0 +5.7356931775e+00 -9.0815936305e+00 +4.0590419961e+01 4.2284225329e+01 5.0000000000e+00 0.0000e+00 -1.0000e+00
      -11  1    4    4    0    0 +7.8999314874e-01 -1.7806133791e+00 +7.2399582907e+00 7.4974441974e+00 5.1100000000e-04 0.0000e+00 1.0000e+00
       11  1    4    4    0    0 +7.4961878684e-03 -7.5656804112e-02 +2.7486350055e-01 2.8518476449e-01 5.1100000000e-04 0.0000e+00 -1.0000e+00
  1000022  1    3    3    0    0 +6.9298849759e+00 -3.5836678538e+01 +1.5806296413e+02 1.6229969644e+02 5.0000000000e+00 0.0000e+00 -1.0000e+00
<mgrwt>
<rscale>  1 0.99744251E+02</rscale>
<asrwt>0</asrwt>
<pdfrwt beam="1">  1       21 0.66367330E-01 0.99744251E+02</pdfrwt>
<pdfrwt beam="2">  1        2 0.88702262E-03 0.99744251E+02</pdfrwt>
<totfact> 0.49498626E+05</totfact>
</mgrwt>
<rwgt>
<wgt id='1001'> +1.5607000e-12 </wgt>
<wgt id='1002'> +1.5632481e-12 </wgt>
<wgt id='1003'> +1.5612281e-12 </wgt>
<wgt id='1004'> +1.6645411e-12 </wgt>
<wgt id='1005'> +1.5607000e-12 </wgt>
<wgt id='1006'> +1.4021565e-12 </wgt>
<wgt id='1007'> +1.4040202e-12 </wgt>
<wgt id='1008'> +1.4025430e-12 </wgt>
<wgt id='1009'> +1.4749166e-12 </wgt>
<wgt id='1010'> +1.4021565e-12 </wgt>
<wgt id='1011'> +1.7612112e-12 </wgt>
<wgt id='1012'> +1.7647759e-12 </wgt>
<wgt id='1013'> +1.7619494e-12 </wgt>
<wgt id='1014'> +1.9126109e-12 </wgt>
<wgt id='1015'> +1.7612112e-12 </wgt>
<wgt id='1016'> +1.6265657e-12 </wgt>
<wgt id='1017'> +1.6297458e-12 </wgt>
<wgt id='1018'> +1.6272243e-12 </wgt>
<wgt id='1019'> +1.7619494e-12 </wgt>
<wgt id='1020'> +1.6265657e-12 </wgt>
<wgt id='1021'> +1.4613312e-12 </wgt>
<wgt id='1022'> +1.4637447e-12 </wgt>
<wgt id='1023'> +1.4618312e-12 </wgt>
<wgt id='1024'> +1.5612281e-12 </wgt>
<wgt id='1025'> +1.4613312e-12 </wgt>
<wgt id='1026'> +1.8355391e-12 </wgt>
<wgt id='1027'> +1.8398463e-12 </wgt>
<wgt id='1028'> +1.8364305e-12 </wgt>
<wgt id='1029'> +2.0245361e-12 </wgt>
<wgt id='1030'> +1.8355391e-12 </wgt>
<wgt id='1031'> +1.4745600e-12 </wgt>
<wgt id='1032'> +1.4762774e-12 </wgt>
<wgt id='1033'> +1.4749166e-12 </wgt>
<wgt id='1034'> +1.5370913e-12 </wgt>
<wgt id='1035'> +1.4745600e-12 </wgt>
<wgt id='1036'> +1.3247670e-12 </wgt>
<wgt id='1037'> +1.3259081e-12 </wgt>
<wgt id='1038'> +1.3250043e-12 </wgt>
<wgt id='1039'> +1.3619858e-12 </wgt>
<wgt id='1040'> +1.3247670e-12 </wgt>
<wgt id='1041'> +1.6640044e-12 </wgt>
<wgt id='1042'> +1.6665934e-12 </wgt>
<wgt id='1043'> +1.6645411e-12 </wgt>
<wgt id='1044'> +1.7661670e-12 </wgt>
<wgt id='1045'> +1.6640044e-12 </wgt>
<wgt id='1046'> +1.5607000e-12 </wgt>
<wgt id='1047'> +1.5930561e-12 </wgt>
<wgt id='1048'> +1.5354956e-12 </wgt>
<wgt id='1049'> +1.5535469e-12 </wgt>
<wgt id='1050'> +1.5612237e-12 </wgt>
<wgt id='1051'> +1.5532098e-12 </wgt>
<wgt id='1052'> +1.5983725e-12 </wgt>
<wgt id='1053'> +1.5526369e-12 </wgt>
<wgt id='1054'> +1.5521290e-12 </wgt>
<wgt id='1055'> +1.5335900e-12 </wgt>
<wgt id='1056'> +1.5793236e-12 </wgt>
<wgt id='1057'> +1.5799403e-12 </wgt>
<wgt id='1058'> +1.5624853e-12 </wgt>
<wgt id='1059'> +1.5585337e-12 </wgt>
<wgt id='1060'> +1.5757214e-12 </wgt>
<wgt id='1061'> +1.5217589e-12 </wgt>
<wgt id='1062'> +1.5510898e-12 </wgt>
<wgt id='1063'> +1.5897412e-12 </wgt>
<wgt id='1064'> +1.5518643e-12 </wgt>
<wgt id='1065'> +1.5313695e-12 </wgt>
<wgt id='1066'> +1.5260002e-12 </wgt>
<wgt id='1067'> +1.5179632e-12 </wgt>
<wgt id='1068'> +1.5300557e-12 </wgt>
<wgt id='1069'> +1.5318878e-12 </wgt>
<wgt id='1070'> +1.5498231e-12 </wgt>
<wgt id='1071'> +1.5330628e-12 </wgt>
<wgt id='1072'> +1.5614965e-12 </wgt>
<wgt id='1073'> +1.5852338e-12 </wgt>
<wgt id='1074'> +1.5546226e-12 </wgt>
<wgt id='1075'> +1.5732659e-12 </wgt>
<wgt id='1076'> +1.5909979e-12 </wgt>
<wgt id='1077'> +1.5751264e-12 </wgt>
<wgt id='1078'> +1.5820541e-12 </wgt>
<wgt id='1079'> +1.5465156e-12 </wgt>
<wgt id='1080'> +1.5792326e-12 </wgt>
<wgt id='1081'> +1.5556447e-12 </wgt>
<wgt id='1082'> +1.5628110e-12 </wgt>
<wgt id='1083'> +1.5343733e-12 </wgt>
<wgt id='1084'> +1.5537320e-12 </wgt>
<wgt id='1085'> +1.5438076e-12 </wgt>
<wgt id='1086'> +1.5707331e-12 </wgt>
<wgt id='1087'> +1.5638188e-12 </wgt>
<wgt id='1088'> +1.5925953e-12 </wgt>
<wgt id='1089'> +1.5809526e-12 </wgt>
<wgt id='1090'> +1.5724693e-12 </wgt>
<wgt id='1091'> +1.5357874e-12 </wgt>
<wgt id='1092'> +1.5769213e-12 </wgt>
<wgt id='1093'> +1.5763291e-12 </wgt>
<wgt id='1094'> +1.5955318e-12 </wgt>
<wgt id='1095'> +1.5654683e-12 </wgt>
<wgt id='1096'> +1.5806997e-12 </wgt>
<wgt id='1097'> +1.5481635e-12 </wgt>
<wgt id='1098'> +1.5353853e-12 </wgt>
<wgt id='1099'> +1.5738372e-12 </wgt>
<wgt id='1100'> +1.5514527e-12 </wgt>
<wgt id='1101'> +1.5773590e-12 </wgt>
<wgt id='1102'> +1.5594246e-12 </wgt>
<wgt id='1103'> +1.5574546e-12 </wgt>
<wgt id='1104'> +1.5420741e-12 </wgt>
<wgt id='1105'> +1.5618343e-12 </wgt>
<wgt id='1106'> +1.5613221e-12 </wgt>
<wgt id='1107'> +1.5719429e-12 </wgt>
<wgt id='1108'> +1.5523643e-12 </wgt>
<wgt id='1109'> +1.5673491e-12 </wgt>
<wgt id='1110'> +1.5762809e-12 </wgt>
<wgt id='1111'> +1.5450835e-12 </wgt>
<wgt id='1112'> +1.5698007e-12 </wgt>
<wgt id='1113'> +1.5528804e-12 </wgt>
<wgt id='1114'> +1.5599581e-12 </wgt>
<wgt id='1115'> +1.5654203e-12 </wgt>
<wgt id='1116'> +1.5588003e-12 </wgt>
<wgt id='1117'> +1.5434916e-12 </wgt>
<wgt id='1118'> +1.5119001e-12 </wgt>
<wgt id='1119'> +1.5396151e-12 </wgt>
<wgt id='1120'> +1.5411318e-12 </wgt>
<wgt id='1121'> +1.5655664e-12 </wgt>
<wgt id='1122'> +1.5831986e-12 </wgt>
<wgt id='1123'> +1.5582322e-12 </wgt>
<wgt id='1124'> +1.5415689e-12 </wgt>
<wgt id='1125'> +1.5500124e-12 </wgt>
<wgt id='1126'> +1.5960805e-12 </wgt>
<wgt id='1127'> +1.5676716e-12 </wgt>
<wgt id='1128'> +1.5510898e-12 </wgt>
<wgt id='1129'> +1.5738702e-12 </wgt>
<wgt id='1130'> +1.5552593e-12 </wgt>
<wgt id='1131'> +1.5396945e-12 </wgt>
<wgt id='1132'> +1.5932862e-12 </wgt>
<wgt id='1133'> +1.5545412e-12 </wgt>
<wgt id='1134'> +1.6187835e-12 </wgt>
<wgt id='1135'> +1.5736426e-12 </wgt>
<wgt id='1136'> +1.5705103e-12 </wgt>
<wgt id='1137'> +1.5495345e-12 </wgt>
<wgt id='1138'> +1.5583625e-12 </wgt>
<wgt id='1139'> +1.5556314e-12 </wgt>
<wgt id='1140'> +1.5680636e-12 </wgt>
<wgt id='1141'> +1.5723778e-12 </wgt>
<wgt id='1142'> +1.5428185e-12 </wgt>
<wgt id='1143'> +1.5904524e-12 </wgt>
<wgt id='1144'> +1.5729528e-12 </wgt>
<wgt id='1145'> +1.5674725e-12 </wgt>
<wgt id='1146'> +1.5413167e-12 </wgt>
<wgt id='1147'> +1.2817196e-12 </wgt>
<wgt id='1148'> +1.2992990e-12 </wgt>
<wgt id='1149'> +1.4040504e-12 </wgt>
<wgt id='1150'> +1.3277544e-12 </wgt>
<wgt id='1151'> +1.2204001e-12 </wgt>
<wgt id='1152'> +1.5314719e-12 </wgt>
<wgt id='1153'> +1.5254544e-12 </wgt>
<wgt id='1154'> +1.5349680e-12 </wgt>
<wgt id='1155'> +1.5315664e-12 </wgt>
<wgt id='1156'> +1.5313875e-12 </wgt>
<wgt id='1157'> +1.5318634e-12 </wgt>
<wgt id='1158'> +1.5309196e-12 </wgt>
<wgt id='1159'> +1.5318059e-12 </wgt>
<wgt id='1160'> +1.5312240e-12 </wgt>
<wgt id='1161'> +1.5282642e-12 </wgt>
<wgt id='1162'> +1.5337595e-12 </wgt>
<wgt id='1163'> +1.5361354e-12 </wgt>
<wgt id='1164'> +1.5268608e-12 </wgt>
<wgt id='1165'> +1.5247541e-12 </wgt>
<wgt id='1166'> +1.5378127e-12 </wgt>
<wgt id='1167'> +1.5285658e-12 </wgt>
<wgt id='1168'> +1.5330029e-12 </wgt>
<wgt id='1169'> +1.5300757e-12 </wgt>
<wgt id='1170'> +1.5325823e-12 </wgt>
<wgt id='1171'> +1.5338482e-12 </wgt>
<wgt id='1172'> +1.5284135e-12 </wgt>
<wgt id='1173'> +1.5377573e-12 </wgt>
<wgt id='1174'> +1.5241913e-12 </wgt>
<wgt id='1175'> +1.5272558e-12 </wgt>
<wgt id='1176'> +1.5341980e-12 </wgt>
<wgt id='1177'> +1.5324109e-12 </wgt>
<wgt id='1178'> +1.5294152e-12 </wgt>
<wgt id='1179'> +1.5427536e-12 </wgt>
<wgt id='1180'> +1.5167862e-12 </wgt>
<wgt id='1181'> +1.5252269e-12 </wgt>
<wgt id='1182'> +1.5378746e-12 </wgt>
<wgt id='1183'> +1.5323670e-12 </wgt>
<wgt id='1184'> +1.5314753e-12 </wgt>
<wgt id='1185'> +1.5308759e-12 </wgt>
<wgt id='1186'> +1.5319314e-12 </wgt>
<wgt id='1187'> +1.5303056e-12 </wgt>
<wgt id='1188'> +1.5318895e-12 </wgt>
<wgt id='1189'> +1.5368169e-12 </wgt>
<wgt id='1190'> +1.5103490e-12 </wgt>
<wgt id='1191'> +1.5228023e-12 </wgt>
<wgt id='1192'> +1.5372463e-12 </wgt>
<wgt id='1193'> +1.3594019e-12 </wgt>
<wgt id='1194'> +1.3559927e-12 </wgt>
<wgt id='1195'> +1.3621787e-12 </wgt>
<wgt id='1196'> +1.3631455e-12 </wgt>
<wgt id='1197'> +1.3552352e-12 </wgt>
<wgt id='1198'> +1.3599694e-12 </wgt>
<wgt id='1199'> +1.3585523e-12 </wgt>
<wgt id='1200'> +1.3611501e-12 </wgt>
<wgt id='1201'> +1.3582671e-12 </wgt>
<wgt id='1202'> +1.3572295e-12 </wgt>
<wgt id='1203'> +1.3625341e-12 </wgt>
<wgt id='1204'> +1.3464443e-12 </wgt>
<wgt id='1205'> +1.3673614e-12 </wgt>
<wgt id='1206'> +1.3629690e-12 </wgt>
<wgt id='1207'> +1.3545346e-12 </wgt>
<wgt id='1208'> +1.3538187e-12 </wgt>
<wgt id='1209'> +1.3614709e-12 </wgt>
<wgt id='1210'> +1.3476637e-12 </wgt>
<wgt id='1211'> +1.3667884e-12 </wgt>
<wgt id='1212'> +1.3610194e-12 </wgt>
<wgt id='1213'> +1.3578361e-12 </wgt>
<wgt id='1214'> +1.3580071e-12 </wgt>
<wgt id='1215'> +1.3591944e-12 </wgt>
<wgt id='1216'> +1.3564501e-12 </wgt>
<wgt id='1217'> +1.3607468e-12 </wgt>
<wgt id='1218'> +1.3580815e-12 </wgt>
<wgt id='1219'> +1.3598183e-12 </wgt>
<wgt id='1220'> +1.3607318e-12 </wgt>
<wgt id='1221'> +1.3613395e-12 </wgt>
<wgt id='1222'> +1.3566783e-12 </wgt>
<wgt id='1223'> +1.3653662e-12 </wgt>
<wgt id='1224'> +1.3588285e-12 </wgt>
<wgt id='1225'> +1.3595853e-12 </wgt>
<wgt id='1226'> +1.3582733e-12 </wgt>
<wgt id='1227'> +1.3601935e-12 </wgt>
<wgt id='1228'> +1.3606379e-12 </wgt>
<wgt id='1229'> +1.3583913e-12 </wgt>
<wgt id='1230'> +1.3753339e-12 </wgt>
<wgt id='1231'> +1.3464560e-12 </wgt>
<wgt id='1232'> +1.3604173e-12 </wgt>
<wgt id='1233'> +1.3591601e-12 </wgt>
<wgt id='1234'> +1.3594019e-12 </wgt>
<wgt id='1235'> +1.3541399e-12 </wgt>
<wgt id='1236'> +1.3560793e-12 </wgt>
<wgt id='1237'> +1.3577457e-12 </wgt>
<wgt id='1238'> +1.3607092e-12 </wgt>
<wgt id='1239'> +1.3618731e-12 </wgt>
<wgt id='1240'> +1.3629186e-12 </wgt>
<wgt id='1241'> +1.3870744e-12 </wgt>
<wgt id='1242'> +1.3819799e-12 </wgt>
<wgt id='1243'> +1.3920257e-12 </wgt>
<wgt id='1244'> +1.3817737e-12 </wgt>
<wgt id='1245'> +1.3909740e-12 </wgt>
<wgt id='1246'> +1.3877959e-12 </wgt>
<wgt id='1247'> +1.3864580e-12 </wgt>
<wgt id='1248'> +1.3868983e-12 </wgt>
<wgt id='1249'> +1.3871565e-12 </wgt>
<wgt id='1250'> +1.3872458e-12 </wgt>
<wgt id='1251'> +1.3868698e-12 </wgt>
<wgt id='1252'> +1.3854202e-12 </wgt>
<wgt id='1253'> +1.3883209e-12 </wgt>
<wgt id='1254'> +1.3759763e-12 </wgt>
<wgt id='1255'> +1.3937081e-12 </wgt>
<wgt id='1256'> +1.3904518e-12 </wgt>
<wgt id='1257'> +1.3785459e-12 </wgt>
<wgt id='1258'> +1.3832343e-12 </wgt>
<wgt id='1259'> +1.3887209e-12 </wgt>
<wgt id='1260'> +1.3869951e-12 </wgt>
<wgt id='1261'> +1.3873541e-12 </wgt>
<wgt id='1262'> +1.3855318e-12 </wgt>
<wgt id='1263'> +1.3876187e-12 </wgt>
<wgt id='1264'> +1.3867102e-12 </wgt>
<wgt id='1265'> +1.3873368e-12 </wgt>
<wgt id='1266'> +1.3942224e-12 </wgt>
<wgt id='1267'> +1.3817195e-12 </wgt>
<wgt id='1268'> +1.3857171e-12 </wgt>
<wgt id='1269'> +1.3919262e-12 </wgt>
<wgt id='1270'> +1.3900522e-12 </wgt>
<wgt id='1271'> +1.3832152e-12 </wgt>
<wgt id='1272'> +1.3888696e-12 </wgt>
<wgt id='1273'> +1.3865308e-12 </wgt>
<wgt id='1274'> +1.3882258e-12 </wgt>
<wgt id='1275'> +1.3847459e-12 </wgt>
<wgt id='1276'> +1.3850139e-12 </wgt>
<wgt id='1277'> +1.3885086e-12 </wgt>
<wgt id='1278'> +1.3776206e-12 </wgt>
<wgt id='1279'> +1.3979992e-12 </wgt>
<wgt id='1280'> +1.3860655e-12 </wgt>
<wgt id='1281'> +1.3935243e-12 </wgt>
<wgt id='1282'> +1.3870744e-12 </wgt>
<wgt id='1283'> +1.3814315e-12 </wgt>
<wgt id='1284'> +1.3837090e-12 </wgt>
<wgt id='1285'> +1.3856373e-12 </wgt>
<wgt id='1286'> +1.3885521e-12 </wgt>
<wgt id='1287'> +1.3896692e-12 </wgt>
<wgt id='1288'> +1.3905424e-12 </wgt>
<wgt id='1289'> +1.4011992e-12 </wgt>
<wgt id='1290'> +1.4069479e-12 </wgt>
<wgt id='1291'> +1.3950926e-12 </wgt>
<wgt id='1292'> +1.3981524e-12 </wgt>
<wgt id='1293'> +1.4034657e-12 </wgt>
<wgt id='1294'> +1.4028005e-12 </wgt>
<wgt id='1295'> +1.3996821e-12 </wgt>
<wgt id='1296'> +1.3962469e-12 </wgt>
<wgt id='1297'> +1.4074476e-12 </wgt>
<wgt id='1298'> +1.4066729e-12 </wgt>
<wgt id='1299'> +1.3943735e-12 </wgt>
<wgt id='1300'> +1.4040914e-12 </wgt>
<wgt id='1301'> +1.3955260e-12 </wgt>
<wgt id='1302'> +1.4004976e-12 </wgt>
<wgt id='1303'> +1.4022971e-12 </wgt>
<wgt id='1304'> +1.3997542e-12 </wgt>
<wgt id='1305'> +1.4022339e-12 </wgt>
<wgt id='1306'> +1.3961070e-12 </wgt>
<wgt id='1307'> +1.4070960e-12 </wgt>
<wgt id='1308'> +1.4093987e-12 </wgt>
<wgt id='1309'> +1.3949954e-12 </wgt>
<wgt id='1310'> +1.3995558e-12 </wgt>
<wgt id='1311'> +1.4031322e-12 </wgt>
<wgt id='1312'> +1.3951681e-12 </wgt>
<wgt id='1313'> +1.4075873e-12 </wgt>
<wgt id='1314'> +1.3961846e-12 </wgt>
<wgt id='1315'> +1.4015909e-12 </wgt>
<wgt id='1316'> +1.4056322e-12 </wgt>
<wgt id='1317'> +1.4018558e-12 </wgt>
<wgt id='1318'> +1.3988570e-12 </wgt>
<wgt id='1319'> +1.4033024e-12 </wgt>
<wgt id='1320'> +1.3931774e-12 </wgt>
<wgt id='1321'> +1.4059003e-12 </wgt>
<wgt id='1322'> +1.4014243e-12 </wgt>
<wgt id='1323'> +1.4007677e-12 </wgt>
<wgt id='1324'> +1.4025828e-12 </wgt>
<wgt id='1325'> +1.4015179e-12 </wgt>
<wgt id='1326'> +1.4010576e-12 </wgt>
<wgt id='1327'> +1.4031461e-12 </wgt>
<wgt id='1328'> +1.3993868e-12 </wgt>
<wgt id='1329'> +1.4029304e-12 </wgt>
<wgt id='1330'> +1.3760416e-12 </wgt>
<wgt id='1331'> +1.4190796e-12 </wgt>
<wgt id='1332'> +1.4206777e-12 </wgt>
<wgt id='1333'> +1.3901558e-12 </wgt>
<wgt id='1334'> +1.3972363e-12 </wgt>
<wgt id='1335'> +1.4108784e-12 </wgt>
<wgt id='1336'> +1.4132753e-12 </wgt>
<wgt id='1337'> +1.3862899e-12 </wgt>
<wgt id='1338'> +1.4047483e-12 </wgt>
<wgt id='1339'> +1.3994632e-12 </wgt>
<wgt id='1340'> +1.3743975e-12 </wgt>
<wgt id='1341'> +1.3801852e-12 </wgt>
<wgt id='1342'> +1.3680929e-12 </wgt>
<wgt id='1343'> +1.3713369e-12 </wgt>
<wgt id='1344'> +1.3763807e-12 </wgt>
<wgt id='1345'> +1.3756827e-12 </wgt>
<wgt id='1346'> +1.3730329e-12 </wgt>
<wgt id='1347'> +1.3692564e-12 </wgt>
<wgt id='1348'> +1.3800596e-12 </wgt>
<wgt id='1349'> +1.3792242e-12 </wgt>
<wgt id='1350'> +1.3695192e-12 </wgt>
<wgt id='1351'> +1.3773106e-12 </wgt>
<wgt id='1352'> +1.3679963e-12 </wgt>
<wgt id='1353'> +1.3733148e-12 </wgt>
<wgt id='1354'> +1.3762476e-12 </wgt>
<wgt id='1355'> +1.3729145e-12 </wgt>
<wgt id='1356'> +1.3751571e-12 </wgt>
<wgt id='1357'> +1.3713932e-12 </wgt>
<wgt id='1358'> +1.3780071e-12 </wgt>
<wgt id='1359'> +1.3839389e-12 </wgt>
<wgt id='1360'> +1.3660594e-12 </wgt>
<wgt id='1361'> +1.3727361e-12 </wgt>
<wgt id='1362'> +1.3766085e-12 </wgt>
<wgt id='1363'> +1.3670274e-12 </wgt>
<wgt id='1364'> +1.3797519e-12 </wgt>
<wgt id='1365'> +1.3783873e-12 </wgt>
<wgt id='1366'> +1.3637337e-12 </wgt>
<wgt id='1367'> +1.3785135e-12 </wgt>
<wgt id='1368'> +1.3744550e-12 </wgt>
<wgt id='1369'> +1.3729861e-12 </wgt>
<wgt id='1370'> +1.3757394e-12 </wgt>
<wgt id='1371'> +1.3689463e-12 </wgt>
<wgt id='1372'> +1.3792786e-12 </wgt>
<wgt id='1373'> +1.3756756e-12 </wgt>
<wgt id='1374'> +1.3727066e-12 </wgt>
<wgt id='1375'> +1.3757113e-12 </wgt>
<wgt id='1376'> +1.3743473e-12 </wgt>
<wgt id='1377'> +1.3747264e-12 </wgt>
<wgt id='1378'> +1.3760555e-12 </wgt>
<wgt id='1379'> +1.3724087e-12 </wgt>
<wgt id='1380'> +1.3764618e-12 </wgt>
<wgt id='1381'> +1.3481069e-12 </wgt>
<wgt id='1382'> +1.3911623e-12 </wgt>
<wgt id='1383'> +1.3949031e-12 </wgt>
<wgt id='1384'> +1.3603130e-12 </wgt>
<wgt id='1385'> +1.3698772e-12 </wgt>
<wgt id='1386'> +1.3846027e-12 </wgt>
<wgt id='1387'> +1.3879966e-12 </wgt>
<wgt id='1388'> +1.3581588e-12 </wgt>
<wgt id='1389'> +1.3798540e-12 </wgt>
<wgt id='1390'> +1.3716366e-12 </wgt>
<wgt id='1391'> +1.3389493e-12 </wgt>
<wgt id='1392'> +1.3031246e-12 </wgt>
<wgt id='1393'> +1.3145068e-12 </wgt>
<wgt id='1394'> +1.3263571e-12 </wgt>
<wgt id='1395'> +1.3496697e-12 </wgt>
<wgt id='1396'> +1.3384012e-12 </wgt>
<wgt id='1397'> +1.3150795e-12 </wgt>
<wgt id='1398'> +1.3202439e-12 </wgt>
<wgt id='1399'> +1.3250381e-12 </wgt>
<wgt id='1400'> +1.3295133e-12 </wgt>
<wgt id='1401'> +1.3339912e-12 </wgt>
<wgt id='1402'> +1.3419552e-12 </wgt>
<wgt id='1403'> +1.3457078e-12 </wgt>
<wgt id='1404'> +1.3487635e-12 </wgt>
<wgt id='1405'> +1.3384012e-12 </wgt>
<wgt id='1406'> +1.3358000e-12 </wgt>
<wgt id='1407'> +1.3372537e-12 </wgt>
<wgt id='1408'> +1.3396067e-12 </wgt>
<wgt id='1409'> +1.3404268e-12 </wgt>
<wgt id='1410'> +1.3548287e-12 </wgt>
<wgt id='1411'> +1.3588452e-12 </wgt>
<wgt id='1412'> +1.3496167e-12 </wgt>
<wgt id='1413'> +1.3604282e-12 </wgt>
<wgt id='1414'> +1.3492075e-12 </wgt>
<wgt id='1415'> +1.3519357e-12 </wgt>
<wgt id='1416'> +1.3560207e-12 </wgt>
<wgt id='1417'> +1.3483329e-12 </wgt>
<wgt id='1418'> +1.3612952e-12 </wgt>
<wgt id='1419'> +1.3565979e-12 </wgt>
<wgt id='1420'> +1.3531712e-12 </wgt>
<wgt id='1421'> +1.3445525e-12 </wgt>
<wgt id='1422'> +1.3592717e-12 </wgt>
<wgt id='1423'> +1.3544084e-12 </wgt>
<wgt id='1424'> +1.3552788e-12 </wgt>
<wgt id='1425'> +1.3524590e-12 </wgt>
<wgt id='1426'> +1.3574718e-12 </wgt>
<wgt id='1427'> +1.3548642e-12 </wgt>
<wgt id='1428'> +1.3545950e-12 </wgt>
<wgt id='1429'> +1.3485659e-12 </wgt>
<wgt id='1430'> +1.3632627e-12 </wgt>
<wgt id='1431'> +1.3597633e-12 </wgt>
<wgt id='1432'> +1.3512805e-12 </wgt>
<wgt id='1433'> +1.3575168e-12 </wgt>
<wgt id='1434'> +1.3505855e-12 </wgt>
<wgt id='1435'> +1.3573072e-12 </wgt>
<wgt id='1436'> +1.3490495e-12 </wgt>
<wgt id='1437'> +1.3587232e-12 </wgt>
<wgt id='1438'> +1.3551763e-12 </wgt>
<wgt id='1439'> +1.3555861e-12 </wgt>
<wgt id='1440'> +1.3502803e-12 </wgt>
<wgt id='1441'> +1.3528162e-12 </wgt>
<wgt id='1442'> +1.3592698e-12 </wgt>
<wgt id='1443'> +1.3559681e-12 </wgt>
<wgt id='1444'> +1.3539406e-12 </wgt>
<wgt id='1445'> +1.3546058e-12 </wgt>
<wgt id='1446'> +1.3559746e-12 </wgt>
<wgt id='1447'> +1.3553920e-12 </wgt>
<wgt id='1448'> +1.3560053e-12 </wgt>
<wgt id='1449'> +1.3524831e-12 </wgt>
<wgt id='1450'> +1.3564418e-12 </wgt>
<wgt id='1451'> +1.3645908e-12 </wgt>
<wgt id='1452'> +1.3320498e-12 </wgt>
<wgt id='1453'> +1.3568446e-12 </wgt>
<wgt id='1454'> +1.3419963e-12 </wgt>
<wgt id='1455'> +1.3370931e-12 </wgt>
<wgt id='1456'> +1.3704231e-12 </wgt>
<wgt id='1457'> +1.3664590e-12 </wgt>
<wgt id='1458'> +1.3502734e-12 </wgt>
<wgt id='1459'> +1.3538308e-12 </wgt>
<wgt id='1460'> +1.3584497e-12 </wgt>
<wgt id='1461'> +1.3548287e-12 </wgt>
<wgt id='1462'> +1.3431451e-12 </wgt>
<wgt id='1463'> +1.3665386e-12 </wgt>
<wgt id='1464'> +1.3546115e-12 </wgt>
<wgt id='1465'> +1.3383407e-12 </wgt>
<wgt id='1466'> +1.3420192e-12 </wgt>
<wgt id='1467'> +1.3457409e-12 </wgt>
<wgt id='1468'> +1.3487924e-12 </wgt>
<wgt id='1469'> +1.3518678e-12 </wgt>
<wgt id='1470'> +1.3571878e-12 </wgt>
<wgt id='1471'> +1.3589372e-12 </wgt>
<wgt id='1472'> +1.3613910e-12 </wgt>
<wgt id='1473'> +1.3546115e-12 </wgt>
<wgt id='1474'> +1.3511847e-12 </wgt>
<wgt id='1475'> +1.3525771e-12 </wgt>
<wgt id='1476'> +1.3561466e-12 </wgt>
<wgt id='1477'> +1.3576747e-12 </wgt>
<wgt id='1478'> +1.3314937e-12 </wgt>
<wgt id='1479'> +1.3319213e-12 </wgt>
<wgt id='1480'> +1.3419689e-12 </wgt>
<wgt id='1481'> +1.3280969e-12 </wgt>
<wgt id='1482'> +1.3340346e-12 </wgt>
<wgt id='1483'> +1.3120394e-12 </wgt>
<wgt id='1484'> +1.3362352e-12 </wgt>
<wgt id='1485'> +1.3391936e-12 </wgt>
<wgt id='1486'> +1.3318683e-12 </wgt>
<wgt id='1487'> +1.3366371e-12 </wgt>
<wgt id='1488'> +1.3274187e-12 </wgt>
<wgt id='1489'> +1.3293089e-12 </wgt>
<wgt id='1490'> +1.3328390e-12 </wgt>
<wgt id='1491'> +1.3259410e-12 </wgt>
<wgt id='1492'> +1.3302956e-12 </wgt>
<wgt id='1493'> +1.3321998e-12 </wgt>
<wgt id='1494'> +1.3501741e-12 </wgt>
<wgt id='1495'> +1.3377096e-12 </wgt>
<wgt id='1496'> +1.3297161e-12 </wgt>
<wgt id='1497'> +1.3343104e-12 </wgt>
<wgt id='1498'> +1.3284597e-12 </wgt>
<wgt id='1499'> +1.3341008e-12 </wgt>
<wgt id='1500'> +1.3319694e-12 </wgt>
<wgt id='1501'> +1.3298117e-12 </wgt>
<wgt id='1502'> +1.3317593e-12 </wgt>
<wgt id='1503'> +1.3354394e-12 </wgt>
<wgt id='1504'> +1.3327253e-12 </wgt>
<wgt id='1505'> +1.3294301e-12 </wgt>
<wgt id='1506'> +1.3304026e-12 </wgt>
<wgt id='1507'> +1.3299684e-12 </wgt>
<wgt id='1508'> +1.3429453e-12 </wgt>
<wgt id='1509'> +1.3811817e-12 </wgt>
<wgt id='1510'> +1.3795562e-12 </wgt>
<wgt id='1511'> +1.3817646e-12 </wgt>
<wgt id='1512'> +1.3793650e-12 </wgt>
<wgt id='1513'> +1.3904772e-12 </wgt>
<wgt id='1514'> +1.3815995e-12 </wgt>
<wgt id='1515'> +1.3771521e-12 </wgt>
<wgt id='1516'> +1.3831280e-12 </wgt>
<wgt id='1517'> +1.3801131e-12 </wgt>
<wgt id='1518'> +1.3855916e-12 </wgt>
<wgt id='1519'> +1.3769294e-12 </wgt>
<wgt id='1520'> +1.3773566e-12 </wgt>
<wgt id='1521'> +1.3831263e-12 </wgt>
<wgt id='1522'> +1.3762758e-12 </wgt>
<wgt id='1523'> +1.3824795e-12 </wgt>
<wgt id='1524'> +1.3800480e-12 </wgt>
<wgt id='1525'> +1.3841721e-12 </wgt>
<wgt id='1526'> +1.3785807e-12 </wgt>
<wgt id='1527'> +1.3788829e-12 </wgt>
<wgt id='1528'> +1.3854398e-12 </wgt>
<wgt id='1529'> +1.3814985e-12 </wgt>
<wgt id='1530'> +1.3858323e-12 </wgt>
<wgt id='1531'> +1.3805179e-12 </wgt>
<wgt id='1532'> +1.3842264e-12 </wgt>
<wgt id='1533'> +1.3777871e-12 </wgt>
<wgt id='1534'> +1.3840547e-12 </wgt>
<wgt id='1535'> +1.3798698e-12 </wgt>
<wgt id='1536'> +1.3759907e-12 </wgt>
<wgt id='1537'> +1.3786556e-12 </wgt>
<wgt id='1538'> +1.3871841e-12 </wgt>
<wgt id='1539'> +1.3810939e-12 </wgt>
<wgt id='1540'> +1.3835426e-12 </wgt>
<wgt id='1541'> +1.3796631e-12 </wgt>
<wgt id='1542'> +1.3819248e-12 </wgt>
<wgt id='1543'> +1.3840537e-12 </wgt>
<wgt id='1544'> +1.3805501e-12 </wgt>
<wgt id='1545'> +1.3824938e-12 </wgt>
<wgt id='1546'> +1.3843931e-12 </wgt>
<wgt id='1547'> +1.3810980e-12 </wgt>
<wgt id='1548'> +1.3774545e-12 </wgt>
<wgt id='1549'> +1.3796871e-12 </wgt>
<wgt id='1550'> +1.3817466e-12 </wgt>
<wgt id='1551'> +1.3805087e-12 </wgt>
<wgt id='1552'> +1.3803689e-12 </wgt>
<wgt id='1553'> +1.3820137e-12 </wgt>
<wgt id='1554'> +1.3804034e-12 </wgt>
<wgt id='1555'> +1.3818232e-12 </wgt>
<wgt id='1556'> +1.3824681e-12 </wgt>
<wgt id='1557'> +1.3794325e-12 </wgt>
<wgt id='1558'> +1.3815933e-12 </wgt>
<wgt id='1559'> +1.3825322e-12 </wgt>
<wgt id='1560'> +1.3829252e-12 </wgt>
<wgt id='1561'> +1.3826892e-12 </wgt>
<wgt id='1562'> +1.3820612e-12 </wgt>
<wgt id='1563'> +1.3816301e-12 </wgt>
<wgt id='1564'> +1.3805353e-12 </wgt>
<wgt id='1565'> +1.3814321e-12 </wgt>
<wgt id='1566'> +1.3814870e-12 </wgt>
<wgt id='1567'> +1.3806109e-12 </wgt>
<wgt id='1568'> +1.3815861e-12 </wgt>
<wgt id='1569'> +1.3812610e-12 </wgt>
<wgt id='1570'> +1.3807284e-12 </wgt>
<wgt id='1571'> +1.3814477e-12 </wgt>
<wgt id='1572'> +1.3816440e-12 </wgt>
<wgt id='1573'> +1.3810697e-12 </wgt>
<wgt id='1574'> +1.3822686e-12 </wgt>
<wgt id='1575'> +1.3807320e-12 </wgt>
<wgt id='1576'> +1.3815087e-12 </wgt>
<wgt id='1577'> +1.3814349e-12 </wgt>
<wgt id='1578'> +1.3812732e-12 </wgt>
<wgt id='1579'> +1.3808511e-12 </wgt>
<wgt id='1580'> +1.3805150e-12 </wgt>
<wgt id='1581'> +1.3809639e-12 </wgt>
<wgt id='1582'> +1.3818694e-12 </wgt>
<wgt id='1583'> +1.3807116e-12 </wgt>
<wgt id='1584'> +1.3813091e-12 </wgt>
<wgt id='1585'> +1.3812433e-12 </wgt>
<wgt id='1586'> +1.3811695e-12 </wgt>
<wgt id='1587'> +1.3809876e-12 </wgt>
<wgt id='1588'> +1.3813488e-12 </wgt>
<wgt id='1589'> +1.3814583e-12 </wgt>
<wgt id='1590'> +1.3814591e-12 </wgt>
<wgt id='1591'> +1.3814812e-12 </wgt>
<wgt id='1592'> +1.3813620e-12 </wgt>
<wgt id='1593'> +1.3811127e-12 </wgt>
<wgt id='1594'> +1.3811855e-12 </wgt>
<wgt id='1595'> +1.3810175e-12 </wgt>
<wgt id='1596'> +1.3807464e-12 </wgt>
<wgt id='1597'> +1.3812904e-12 </wgt>
<wgt id='1598'> +1.3810328e-12 </wgt>
<wgt id='1599'> +1.3807990e-12 </wgt>
<wgt id='1600'> +1.3815800e-12 </wgt>
<wgt id='1601'> +1.3812306e-12 </wgt>
<wgt id='1602'> +1.3807339e-12 </wgt>
<wgt id='1603'> +1.3810575e-12 </wgt>
<wgt id='1604'> +1.3813140e-12 </wgt>
<wgt id='1605'> +1.3810916e-12 </wgt>
<wgt id='1606'> +1.3815092e-12 </wgt>
<wgt id='1607'> +1.3811310e-12 </wgt>
<wgt id='1608'> +1.3814235e-12 </wgt>
<wgt id='1609'> +1.3809935e-12 </wgt>
<wgt id='1610'> +1.3554004e-12 </wgt>
<wgt id='1611'> +1.4095420e-12 </wgt>
<wgt id='1612'> +1.5334698e-12 </wgt>
<wgt id='1613'> +1.5232724e-12 </wgt>
<wgt id='1614'> +1.5851139e-12 </wgt>
<wgt id='1615'> +1.5405587e-12 </wgt>
<wgt id='1616'> +1.5665279e-12 </wgt>
<wgt id='1617'> +1.5716131e-12 </wgt>
<wgt id='1618'> +1.5688641e-12 </wgt>
<wgt id='1619'> +1.5472136e-12 </wgt>
<wgt id='1620'> +1.5273784e-12 </wgt>
<wgt id='1621'> +1.5403135e-12 </wgt>
<wgt id='1622'> +1.5132422e-12 </wgt>
<wgt id='1623'> +1.5238573e-12 </wgt>
<wgt id='1624'> +1.5383587e-12 </wgt>
<wgt id='1625'> +1.5126018e-12 </wgt>
<wgt id='1626'> +1.5220416e-12 </wgt>
<wgt id='1627'> +1.5344553e-12 </wgt>
<wgt id='1628'> +1.5796967e-12 </wgt>
<wgt id='1629'> +1.4894193e-12 </wgt>
<wgt id='1630'> +1.5142864e-12 </wgt>
<wgt id='1631'> +1.5680334e-12 </wgt>
<wgt id='1632'> +1.5073802e-12 </wgt>
<wgt id='1633'> +1.5514360e-12 </wgt>
<wgt id='1634'> +1.5377686e-12 </wgt>
<wgt id='1635'> +1.5124209e-12 </wgt>
<wgt id='1636'> +1.6036680e-12 </wgt>
<wgt id='1637'> +1.5213400e-12 </wgt>
<wgt id='1638'> +1.5214500e-12 </wgt>
<wgt id='1639'> +1.5200596e-12 </wgt>
<wgt id='1640'> +1.5212655e-12 </wgt>
<wgt id='1641'> +1.5304691e-12 </wgt>
<wgt id='1642'> +1.5466969e-12 </wgt>
<wgt id='1643'> +1.5846882e-12 </wgt>
<wgt id='1644'> +1.4916844e-12 </wgt>
<wgt id='1645'> +1.5228256e-12 </wgt>
<wgt id='1646'> +1.5247559e-12 </wgt>
<wgt id='1647'> +1.5018776e-12 </wgt>
<wgt id='1648'> +1.5377226e-12 </wgt>
<wgt id='1649'> +1.5820037e-12 </wgt>
<wgt id='1650'> +1.5437195e-12 </wgt>
<wgt id='1651'> +1.5364832e-12 </wgt>
<wgt id='1652'> +1.5358855e-12 </wgt>
<wgt id='1653'> +1.5723720e-12 </wgt>
<wgt id='1654'> +1.5439807e-12 </wgt>
<wgt id='1655'> +1.5514858e-12 </wgt>
<wgt id='1656'> +1.5045466e-12 </wgt>
<wgt id='1657'> +1.5386084e-12 </wgt>
<wgt id='1658'> +1.5330898e-12 </wgt>
<wgt id='1659'> +1.5383587e-12 </wgt>
<wgt id='1660'> +1.5507257e-12 </wgt>
<wgt id='1661'> +1.5475997e-12 </wgt>
<wgt id='1662'> +1.5221230e-12 </wgt>
<wgt id='1663'> +1.4993570e-12 </wgt>
<wgt id='1664'> +1.5030979e-12 </wgt>
<wgt id='1665'> +1.5170846e-12 </wgt>
<wgt id='1666'> +1.5544036e-12 </wgt>
<wgt id='1667'> +1.5069900e-12 </wgt>
<wgt id='1668'> +1.5533051e-12 </wgt>
<wgt id='1669'> +1.4941540e-12 </wgt>
<wgt id='1670'> +1.5354144e-12 </wgt>
<wgt id='1671'> +1.5036781e-12 </wgt>
<wgt id='1672'> +1.5167274e-12 </wgt>
<wgt id='1673'> +1.5172608e-12 </wgt>
<wgt id='1674'> +1.5053770e-12 </wgt>
<wgt id='1675'> +1.5188015e-12 </wgt>
<wgt id='1676'> +1.5472333e-12 </wgt>
<wgt id='1677'> +1.5809643e-12 </wgt>
<wgt id='1678'> +1.5285980e-12 </wgt>
<wgt id='1679'> +1.5086071e-12 </wgt>
<wgt id='1680'> +1.5196976e-12 </wgt>
<wgt id='1681'> +1.4924051e-12 </wgt>
<wgt id='1682'> +1.5275536e-12 </wgt>
<wgt id='1683'> +1.5041840e-12 </wgt>
<wgt id='1684'> +1.5304873e-12 </wgt>
<wgt id='1685'> +1.5272976e-12 </wgt>
<wgt id='1686'> +1.5332505e-12 </wgt>
<wgt id='1687'> +1.5426539e-12 </wgt>
<wgt id='1688'> +1.5792501e-12 </wgt>
<wgt id='1689'> +1.5010010e-12 </wgt>
<wgt id='1690'> +1.4751690e-12 </wgt>
<wgt id='1691'> +1.5134341e-12 </wgt>
<wgt id='1692'> +1.5487541e-12 </wgt>
<wgt id='1693'> +1.5563047e-12 </wgt>
<wgt id='1694'> +1.5500142e-12 </wgt>
<wgt id='1695'> +1.5356471e-12 </wgt>
<wgt id='1696'> +1.5313529e-12 </wgt>
<wgt id='1697'> +1.5355636e-12 </wgt>
<wgt id='1698'> +1.5240889e-12 </wgt>
<wgt id='1699'> +1.5456810e-12 </wgt>
<wgt id='1700'> +1.5456880e-12 </wgt>
<wgt id='1701'> +1.5381233e-12 </wgt>
<wgt id='1702'> +1.5357366e-12 </wgt>
<wgt id='1703'> +1.5432353e-12 </wgt>
<wgt id='1704'> +1.5542181e-12 </wgt>
<wgt id='1705'> +1.5181989e-12 </wgt>
<wgt id='1706'> +1.5462296e-12 </wgt>
<wgt id='1707'> +1.5407355e-12 </wgt>
<wgt id='1708'> +1.5266516e-12 </wgt>
<wgt id='1709'> +1.5139842e-12 </wgt>
<wgt id='1710'> +1.5251684e-12 </wgt>
<wgt id='1711'> +1.5617503e-12 </wgt>
<wgt id='1712'> +1.5288892e-12 </wgt>
<wgt id='1713'> +1.3533984e-12 </wgt>
<wgt id='1714'> +1.3565826e-12 </wgt>
<wgt id='1715'> +1.3667947e-12 </wgt>
<wgt id='1716'> +1.3812517e-12 </wgt>
<wgt id='1717'> +1.3382658e-12 </wgt>
<wgt id='1718'> +1.3888798e-12 </wgt>
<wgt id='1719'> +1.3905778e-12 </wgt>
<wgt id='1720'> +1.3510659e-12 </wgt>
<wgt id='1721'> +1.3476991e-12 </wgt>
<wgt id='1722'> +1.3583318e-12 </wgt>
<wgt id='1723'> +1.3304241e-12 </wgt>
<wgt id='1724'> +1.2000276e-12 </wgt>
<wgt id='1725'> +1.3907790e-12 </wgt>
<wgt id='1726'> +1.3914561e-12 </wgt>
<wgt id='1727'> +1.3355966e-12 </wgt>
<wgt id='1728'> +1.3771784e-12 </wgt>
<wgt id='1729'> +1.3529187e-12 </wgt>
<wgt id='1730'> +1.3565580e-12 </wgt>
<wgt id='1731'> +1.3462513e-12 </wgt>
<wgt id='1732'> +1.3739244e-12 </wgt>
<wgt id='1733'> +1.4086012e-12 </wgt>
<wgt id='1734'> +1.3757872e-12 </wgt>
<wgt id='1735'> +1.3044853e-12 </wgt>
<wgt id='1736'> +1.4136579e-12 </wgt>
<wgt id='1737'> +1.3881221e-12 </wgt>
<wgt id='1738'> +1.3488754e-12 </wgt>
<wgt id='1739'> +1.3532555e-12 </wgt>
<wgt id='1740'> +1.3457720e-12 </wgt>
<wgt id='1741'> +1.3525066e-12 </wgt>
<wgt id='1742'> +1.3870596e-12 </wgt>
<wgt id='1743'> +1.3967299e-12 </wgt>
<wgt id='1744'> +1.3831983e-12 </wgt>
<wgt id='1745'> +1.2695350e-12 </wgt>
<wgt id='1746'> +1.3469363e-12 </wgt>
<wgt id='1747'> +1.3741393e-12 </wgt>
<wgt id='1748'> +1.3518122e-12 </wgt>
<wgt id='1749'> +1.3496041e-12 </wgt>
<wgt id='1750'> +1.3785108e-12 </wgt>
<wgt id='1751'> +1.2970676e-12 </wgt>
<wgt id='1752'> +1.3513312e-12 </wgt>
<wgt id='1753'> +1.3446068e-12 </wgt>
<wgt id='1754'> +1.3652027e-12 </wgt>
<wgt id='1755'> +1.3487031e-12 </wgt>
<wgt id='1756'> +1.3390383e-12 </wgt>
<wgt id='1757'> +1.3568026e-12 </wgt>
<wgt id='1758'> +1.3620115e-12 </wgt>
<wgt id='1759'> +1.3799788e-12 </wgt>
<wgt id='1760'> +1.3362036e-12 </wgt>
<wgt id='1761'> +1.3554271e-12 </wgt>
<wgt id='1762'> +1.3746029e-12 </wgt>
<wgt id='1763'> +1.3567751e-12 </wgt>
<wgt id='1764'> +1.3492943e-12 </wgt>
<wgt id='1765'> +1.3447590e-12 </wgt>
<wgt id='1766'> +1.3797528e-12 </wgt>
<wgt id='1767'> +1.3470175e-12 </wgt>
<wgt id='1768'> +1.3299058e-12 </wgt>
<wgt id='1769'> +1.3525010e-12 </wgt>
<wgt id='1770'> +1.3742808e-12 </wgt>
<wgt id='1771'> +1.3413712e-12 </wgt>
<wgt id='1772'> +1.4138745e-12 </wgt>
<wgt id='1773'> +1.3494292e-12 </wgt>
<wgt id='1774'> +1.3573860e-12 </wgt>
<wgt id='1775'> +1.3732002e-12 </wgt>
<wgt id='1776'> +1.3433595e-12 </wgt>
<wgt id='1777'> +1.3166816e-12 </wgt>
<wgt id='1778'> +1.3066519e-12 </wgt>
<wgt id='1779'> +1.3671187e-12 </wgt>
<wgt id='1780'> +1.3827294e-12 </wgt>
<wgt id='1781'> +1.3500357e-12 </wgt>
<wgt id='1782'> +1.3019969e-12 </wgt>
<wgt id='1783'> +1.3275888e-12 </wgt>
<wgt id='1784'> +1.3279686e-12 </wgt>
<wgt id='1785'> +1.3406265e-12 </wgt>
<wgt id='1786'> +1.2807706e-12 </wgt>
<wgt id='1787'> +1.3894348e-12 </wgt>
<wgt id='1788'> +1.3527033e-12 </wgt>
<wgt id='1789'> +1.2741811e-12 </wgt>
<wgt id='1790'> +1.3332060e-12 </wgt>
<wgt id='1791'> +1.3549528e-12 </wgt>
<wgt id='1792'> +1.3185167e-12 </wgt>
<wgt id='1793'> +1.3395633e-12 </wgt>
<wgt id='1794'> +1.3433082e-12 </wgt>
<wgt id='1795'> +1.3542645e-12 </wgt>
<wgt id='1796'> +1.3854733e-12 </wgt>
<wgt id='1797'> +1.3515870e-12 </wgt>
<wgt id='1798'> +1.3593782e-12 </wgt>
<wgt id='1799'> +1.3426915e-12 </wgt>
<wgt id='1800'> +1.3551042e-12 </wgt>
<wgt id='1801'> +1.3455514e-12 </wgt>
<wgt id='1802'> +1.3706413e-12 </wgt>
<wgt id='1803'> +1.3599246e-12 </wgt>
<wgt id='1804'> +1.3540975e-12 </wgt>
<wgt id='1805'> +1.3324657e-12 </wgt>
<wgt id='1806'> +1.3605595e-12 </wgt>
<wgt id='1807'> +1.3678734e-12 </wgt>
<wgt id='1808'> +1.3700590e-12 </wgt>
<wgt id='1809'> +1.3373859e-12 </wgt>
<wgt id='1810'> +1.3636752e-12 </wgt>
<wgt id='1811'> +1.3655168e-12 </wgt>
<wgt id='1812'> +1.3747027e-12 </wgt>
<wgt id='1813'> +1.3993453e-12 </wgt>
<wgt id='1814'> +1.3614096e-12 </wgt>
<wgt id='1815'> +1.4406806e-12 </wgt>
<wgt id='1816'> +1.3533984e-12 </wgt>
<wgt id='1817'> +1.3565826e-12 </wgt>
<wgt id='1818'> +1.3667947e-12 </wgt>
<wgt id='1819'> +1.3812517e-12 </wgt>
<wgt id='1820'> +1.3382658e-12 </wgt>
<wgt id='1821'> +1.3888798e-12 </wgt>
<wgt id='1822'> +1.3905778e-12 </wgt>
<wgt id='1823'> +1.3510659e-12 </wgt>
<wgt id='1824'> +1.3476991e-12 </wgt>
<wgt id='1825'> +1.3583318e-12 </wgt>
<wgt id='1826'> +1.3304241e-12 </wgt>
<wgt id='1827'> +1.2000276e-12 </wgt>
<wgt id='1828'> +1.3907790e-12 </wgt>
<wgt id='1829'> +1.3914561e-12 </wgt>
<wgt id='1830'> +1.3355966e-12 </wgt>
<wgt id='1831'> +1.3771784e-12 </wgt>
<wgt id='1832'> +1.3529187e-12 </wgt>
<wgt id='1833'> +1.3565580e-12 </wgt>
<wgt id='1834'> +1.3462513e-12 </wgt>
<wgt id='1835'> +1.3739244e-12 </wgt>
<wgt id='1836'> +1.4086012e-12 </wgt>
<wgt id='1837'> +1.3757872e-12 </wgt>
<wgt id='1838'> +1.3044853e-12 </wgt>
<wgt id='1839'> +1.4136579e-12 </wgt>
<wgt id='1840'> +1.3881221e-12 </wgt>
<wgt id='1841'> +1.3488754e-12 </wgt>
<wgt id='1842'> +1.3532555e-12 </wgt>
<wgt id='1843'> +1.3457720e-12 </wgt>
<wgt id='1844'> +1.3525066e-12 </wgt>
<wgt id='1845'> +1.3870596e-12 </wgt>
<wgt id='1846'> +1.3967299e-12 </wgt>
<wgt id='1847'> +1.3831983e-12 </wgt>
<wgt id='1848'> +1.2695350e-12 </wgt>
<wgt id='1849'> +1.3469363e-12 </wgt>
<wgt id='1850'> +1.3741393e-12 </wgt>
<wgt id='1851'> +1.3518122e-12 </wgt>
<wgt id='1852'> +1.3496041e-12 </wgt>
<wgt id='1853'> +1.3785108e-12 </wgt>
<wgt id='1854'> +1.2970676e-12 </wgt>
<wgt id='1855'> +1.3513312e-12 </wgt>
<wgt id='1856'> +1.3446068e-12 </wgt>
<wgt id='1857'> +1.3652027e-12 </wgt>
<wgt id='1858'> +1.3487031e-12 </wgt>
<wgt id='1859'> +1.3390383e-12 </wgt>
<wgt id='1860'> +1.3568026e-12 </wgt>
<wgt id='1861'> +1.3620115e-12 </wgt>
<wgt id='1862'> +1.3799788e-12 </wgt>
<wgt id='1863'> +1.3362036e-12 </wgt>
<wgt id='1864'> +1.3554271e-12 </wgt>
<wgt id='1865'> +1.3746029e-12 </wgt>
<wgt id='1866'> +1.3567751e-12 </wgt>
<wgt id='1867'> +1.3492943e-12 </wgt>
<wgt id='1868'> +1.3447590e-12 </wgt>
<wgt id='1869'> +1.3797528e-12 </wgt>
<wgt id='1870'> +1.3470175e-12 </wgt>
<wgt id='1871'> +1.3299058e-12 </wgt>
<wgt id='1872'> +1.3525010e-12 </wgt>
<wgt id='1873'> +1.3742808e-12 </wgt>
<wgt id='1874'> +1.3413712e-12 </wgt>
<wgt id='1875'> +1.4138745e-12 </wgt>
<wgt id='1876'> +1.3494292e-12 </wgt>
<wgt id='1877'> +1.3573860e-12 </wgt>
<wgt id='1878'> +1.3732002e-12 </wgt>
<wgt id='1879'> +1.3433595e-12 </wgt>
<wgt id='1880'> +1.3166816e-12 </wgt>
<wgt id='1881'> +1.3066519e-12 </wgt>
<wgt id='1882'> +1.3671187e-12 </wgt>
<wgt id='1883'> +1.3827294e-12 </wgt>
<wgt id='1884'> +1.3500357e-12 </wgt>
<wgt id='1885'> +1.3019969e-12 </wgt>
<wgt id='1886'> +1.3275888e-12 </wgt>
<wgt id='1887'> +1.3279686e-12 </wgt>
<wgt id='1888'> +1.3406265e-12 </wgt>
<wgt id='1889'> +1.2807706e-12 </wgt>
<wgt id='1890'> +1.3894348e-12 </wgt>
<wgt id='1891'> +1.3527033e-12 </wgt>
<wgt id='1892'> +1.2741811e-12 </wgt>
<wgt id='1893'> +1.3332060e-12 </wgt>
<wgt id='1894'> +1.3549528e-12 </wgt>
<wgt id='1895'> +1.3185167e-12 </wgt>
<wgt id='1896'> +1.3395633e-12 </wgt>
<wgt id='1897'> +1.3433082e-12 </wgt>
<wgt id='1898'> +1.3542645e-12 </wgt>
<wgt id='1899'> +1.3854733e-12 </wgt>
<wgt id='1900'> +1.3515870e-12 </wgt>
<wgt id='1901'> +1.3593782e-12 </wgt>
<wgt id='1902'> +1.3426915e-12 </wgt>
<wgt id='1903'> +1.3551042e-12 </wgt>
<wgt id='1904'> +1.3455514e-12 </wgt>
<wgt id='1905'> +1.3706413e-12 </wgt>
<wgt id='1906'> +1.3599246e-12 </wgt>
<wgt id='1907'> +1.3540975e-12 </wgt>
<wgt id='1908'> +1.3324657e-12 </wgt>
<wgt id='1909'> +1.3605595e-12 </wgt>
<wgt id='1910'> +1.3678734e-12 </wgt>
<wgt id='1911'> +1.3700590e-12 </wgt>
<wgt id='1912'> +1.3373859e-12 </wgt>
<wgt id='1913'> +1.3636752e-12 </wgt>
<wgt id='1914'> +1.3655168e-12 </wgt>
<wgt id='1915'> +1.3747027e-12 </wgt>
<wgt id='1916'> +1.3993453e-12 </wgt>
<wgt id='1917'> +1.3430281e-12 </wgt>
<wgt id='1918'> +1.3639250e-12 </wgt>
<wgt id='1919'> +1.3762793e-12 </wgt>
</rwgt>
</event>
<event>
 9      1 +1.5607000e-12 2.89816800e+01 7.81860800e-03 1.46010600e-01
       21 -1    0    0  501  502 +0.0000000000e+00 +0.0000000000e+00 +2.3031383938e+01 2.3031383938e+01 0.0000000000e+00 0.0000e+00 1.0000e+00
       -2 -1    0    0    0  501 -0.0000000000e+00 -0.0000000000e+00 -3.9970733721e+01 3.9970733721e+01 0.0000000000e+00 0.0000e+00 1.0000e+00
     1023  2    1    2    0    0 +2.4216443808e+01 -5.3384001583e+00 -2.3544007595e+01 3.7339768356e+01 1.5000111343e+01 0.0000e+00 0.0000e+00
  1000023  2    3    3    0    0 +5.0956901267e+00 -4.8330237377e+00 -4.9647919468e+00 1.0209602843e+01 5.5011503180e+00 0.0000e+00 0.0000e+00
       -2  1    1    2    0  502 -2.4216443808e+01 +5.3384001583e+00 +6.6046578113e+00 2.5662349303e+01 0.0000000000e+00 0.0000e+00 1.0000e+00
  1000022  1    4    4    0    0 +4.6289107799e+00 -4.5169851597e+00 -4.1581794640e+00 9.1717188354e+00 5.0000000000e+00 0.0000e+00 1.0000e+00
      -11  1    4    4    0    0 +3.0860710456e-01 -4.0616909280e-02 -2.5944262500e-01 4.0521452971e-01 5.1100000000e-04 0.0000e+00 1.0000e+00
       11  1    4    4    0    0 +1.5817224218e-01 -2.7542166869e-01 -5.4716985781e-01 6.3266947784e-01 5.1100000000e-04 0.0000e+00 -1.0000e+00
  1000022  1    3    3    0    0 +1.9120753681e+01 -5.0537642064e-01 -1.8579215648e+01 2.7130165513e+01 5.0000000000e+00 0.0000e+00 1.0000e+00
<mgrwt>
<rscale>  1 0.28981684E+02</rscale>
<asrwt>0</asrwt>
<pdfrwt beam="1">  1       21 0.35432899E-02 0.28981684E+02</pdfrwt>
<pdfrwt beam="2">  1       -2 0.61493436E-02 0.28981684E+02</pdfrwt>
<totfact> 0.44823679E+06</totfact>
</mgrwt>
<rwgt>
<wgt id='1001'> +1.5607000e-12 </wgt>
<wgt id='1002'> +1.6199065e-12 </wgt>
<wgt id='1003'> +1.6209346e-12 </wgt>
<wgt id='1004'> +1.5493013e-12 </wgt>
<wgt id='1005'> +1.6292251e-12 </wgt>
<wgt id='1006'> +1.3643365e-12 </wgt>
<wgt id='1007'> +1.4371839e-12 </wgt>
<wgt id='1008'> +1.4385537e-12 </wgt>
<wgt id='1009'> +1.3512022e-12 </wgt>
<wgt id='1010'> +1.4498814e-12 </wgt>
<wgt id='1011'> +1.8263915e-12 </wgt>
<wgt id='1012'> +1.8581894e-12 </wgt>
<wgt id='1013'> +1.8585790e-12 </wgt>
<wgt id='1014'> +1.8189533e-12 </wgt>
<wgt id='1015'> +1.8613603e-12 </wgt>
<wgt id='1016'> +1.8605109e-12 </wgt>
<wgt id='1017'> +1.8612847e-12 </wgt>
<wgt id='1018'> +1.8610634e-12 </wgt>
<wgt id='1019'> +1.8585790e-12 </wgt>
<wgt id='1020'> +1.8587355e-12 </wgt>
<wgt id='1021'> +1.6264260e-12 </wgt>
<wgt id='1022'> +1.6513351e-12 </wgt>
<wgt id='1023'> +1.6516642e-12 </wgt>
<wgt id='1024'> +1.6209346e-12 </wgt>
<wgt id='1025'> +1.6541275e-12 </wgt>
<wgt id='1026'> +2.1772418e-12 </wgt>
<wgt id='1027'> +2.1350736e-12 </wgt>
<wgt id='1028'> +2.1339129e-12 </wgt>
<wgt id='1029'> +2.1820600e-12 </wgt>
<wgt id='1030'> +2.1235718e-12 </wgt>
<wgt id='1031'> +1.2281714e-12 </wgt>
<wgt id='1032'> +1.3488257e-12 </wgt>
<wgt id='1033'> +1.3512022e-12 </wgt>
<wgt id='1034'> +1.2072696e-12 </wgt>
<wgt id='1035'> +1.3713114e-12 </wgt>
<wgt id='1036'> +1.0736459e-12 </wgt>
<wgt id='1037'> +1.1966805e-12 </wgt>
<wgt id='1038'> +1.1991706e-12 </wgt>
<wgt id='1039'> +1.0529039e-12 </wgt>
<wgt id='1040'> +1.2203586e-12 </wgt>
<wgt id='1041'> +1.4372537e-12 </wgt>
<wgt id='1042'> +1.5472335e-12 </wgt>
<wgt id='1043'> +1.5493013e-12 </wgt>
<wgt id='1044'> +1.4173918e-12 </wgt>
<wgt id='1045'> +1.5666985e-12 </wgt>
<wgt id='1046'> +1.5607000e-12 </wgt>
<wgt id='1047'> +1.6245267e-12 </wgt>
<wgt id='1048'> +1.5551523e-12 </wgt>
<wgt id='1049'> +1.5149878e-12 </wgt>
<wgt id='1050'> +1.5376345e-12 </wgt>
<wgt id='1051'> +1.5317569e-12 </wgt>
<wgt id='1052'> +1.5923923e-12 </wgt>
<wgt id='1053'> +1.5592215e-12 </wgt>
<wgt id='1054'> +1.5425888e-12 </wgt>
<wgt id='1055'> +1.5186774e-12 </wgt>
<wgt id='1056'> +1.5341584e-12 </wgt>
<wgt id='1057'> +1.5907771e-12 </wgt>
<wgt id='1058'> +1.5030890e-12 </wgt>
<wgt id='1059'> +1.5564914e-12 </wgt>
<wgt id='1060'> +1.5729407e-12 </wgt>
<wgt id='1061'> +1.5722116e-12 </wgt>
<wgt id='1062'> +1.5699998e-12 </wgt>
<wgt id='1063'> +1.5687465e-12 </wgt>
<wgt id='1064'> +1.5383098e-12 </wgt>
<wgt id='1065'> +1.5683600e-12 </wgt>
<wgt id='1066'> +1.5282873e-12 </wgt>
<wgt id='1067'> +1.5116460e-12 </wgt>
<wgt id='1068'> +1.5895810e-12 </wgt>
<wgt id='1069'> +1.5707400e-12 </wgt>
<wgt id='1070'> +1.5381979e-12 </wgt>
<wgt id='1071'> +1.5437229e-12 </wgt>
<wgt id='1072'> +1.6245005e-12 </wgt>
<wgt id='1073'> +1.5801075e-12 </wgt>
<wgt id='1074'> +1.5322475e-12 </wgt>
<wgt id='1075'> +1.5594948e-12 </wgt>
<wgt id='1076'> +1.5752069e-12 </wgt>
<wgt id='1077'> +1.5907875e-12 </wgt>
<wgt id='1078'> +1.5374964e-12 </wgt>
<wgt id='1079'> +1.5723016e-12 </wgt>
<wgt id='1080'> +1.5230086e-12 </wgt>
<wgt id='1081'> +1.5964807e-12 </wgt>
<wgt id='1082'> +1.5682551e-12 </wgt>
<wgt id='1083'> +1.5728748e-12 </wgt>
<wgt id='1084'> +1.5533040e-12 </wgt>
<wgt id='1085'> +1.5512276e-12 </wgt>
<wgt id='1086'> +1.5999427e-12 </wgt>
<wgt id='1087'> +1.5778950e-12 </wgt>
<wgt id='1088'> +1.5643019e-12 </wgt>
<wgt id='1089'> +1.5730410e-12 </wgt>
<wgt id='1090'> +1.5608402e-12 </wgt>
<wgt id='1091'> +1.5768569e-12 </wgt>
<wgt id='1092'> +1.6009663e-12 </wgt>
<wgt id='1093'> +1.5762781e-12 </wgt>
<wgt id='1094'> +1.5859008e-12 </wgt>
<wgt id='1095'> +1.5844122e-12 </wgt>
<wgt id='1096'> +1.5550136e-12 </wgt>
<wgt id='1097'> +1.5032286e-12 </wgt>
<wgt id='1098'> +1.5439191e-12 </wgt>
<wgt id='1099'> +1.5636419e-12 </wgt>
<wgt id='1100'> +1.5510677e-12 </wgt>
<wgt id='1101'> +1.6086141e-12 </wgt>
<wgt id='1102'> +1.5365509e-12 </wgt>
<wgt id='1103'> +1.5738305e-12 </wgt>
<wgt id='1104'> +1.5510314e-12 </wgt>
<wgt id='1105'> +1.5804170e-12 </wgt>
<wgt id='1106'> +1.6024129e-12 </wgt>
<wgt id='1107'> +1.5775576e-12 </wgt>
<wgt id='1108'> +1.5506010e-12 </wgt>
<wgt id='1109'> +1.5725125e-12 </wgt>
<wgt id='1110'> +1.5356742e-12 </wgt>
<wgt id='1111'> +1.5913698e-12 </wgt>
<wgt id='1112'> +1.6295484e-12 </wgt>
<wgt id='1113'> +1.5540429e-12 </wgt>
<wgt id='1114'> +1.5933559e-12 </wgt>
<wgt id='1115'> +1.5647102e-12 </wgt>
<wgt id='1116'> +1.5289978e-12 </wgt>
<wgt id='1117'> +1.5368297e-12 </wgt>
<wgt id='1118'> +1.5528021e-12 </wgt>
<wgt id='1119'> +1.5151448e-12 </wgt>
<wgt id='1120'> +1.5364452e-12 </wgt>
<wgt id='1121'> +1.5593381e-12 </wgt>
<wgt id='1122'> +1.6157938e-12 </wgt>
<wgt id='1123'> +1.5271285e-12 </wgt>
<wgt id='1124'> +1.5503089e-12 </wgt>
<wgt id='1125'> +1.5638255e-12 </wgt>
<wgt id='1126'> +1.5864860e-12 </wgt>
<wgt id='1127'> +1.5376311e-12 </wgt>
<wgt id='1128'> +1.5699998e-12 </wgt>
<wgt id='1129'> +1.5783335e-12 </wgt>
<wgt id='1130'> +1.5451497e-12 </wgt>
<wgt id='1131'> +1.5769623e-12 </wgt>
<wgt id='1132'> +1.5603684e-12 </wgt>
<wgt id='1133'> +1.4945345e-12 </wgt>
<wgt id='1134'> +1.5782925e-12 </wgt>
<wgt id='1135'> +1.5381903e-12 </wgt>
<wgt id='1136'> +1.5284303e-12 </wgt>
<wgt id='1137'> +1.5298051e-12 </wgt>
<wgt id='1138'> +1.5383989e-12 </wgt>
<wgt id='1139'> +1.5510753e-12 </wgt>
<wgt id='1140'> +1.5408705e-12 </wgt>
<wgt id='1141'> +1.5256349e-12 </wgt>
<wgt id='1142'> +1.5747952e-12 </wgt>
<wgt id='1143'> +1.5924447e-12 </wgt>
<wgt id='1144'> +1.5729358e-12 </wgt>
<wgt id='1145'> +1.5827145e-12 </wgt>
<wgt id='1146'> +1.5623911e-12 </wgt>
<wgt id='1147'> +1.1952646e-12 </wgt>
<wgt id='1148'> +1.2247629e-12 </wgt>
<wgt id='1149'> +1.2551415e-12 </wgt>
<wgt id='1150'> +1.2230924e-12 </wgt>
<wgt id='1151'> +1.2281148e-12 </wgt>
<wgt id='1152'> +1.5650865e-12 </wgt>
<wgt id='1153'> +1.5565999e-12 </wgt>
<wgt id='1154'> +1.5700449e-12 </wgt>
<wgt id='1155'> +1.5640123e-12 </wgt>
<wgt id='1156'> +1.5656383e-12 </wgt>
<wgt id='1157'> +1.5698455e-12 </wgt>
<wgt id='1158'> +1.5586528e-12 </wgt>
<wgt id='1159'> +1.5690931e-12 </wgt>
<wgt id='1160'> +1.5625726e-12 </wgt>
<wgt id='1161'> +1.5618038e-12 </wgt>
<wgt id='1162'> +1.5673217e-12 </wgt>
<wgt id='1163'> +1.5693001e-12 </wgt>
<wgt id='1164'> +1.5609522e-12 </wgt>
<wgt id='1165'> +1.5554442e-12 </wgt>
<wgt id='1166'> +1.5744685e-12 </wgt>
<wgt id='1167'> +1.5743106e-12 </wgt>
<wgt id='1168'> +1.5523068e-12 </wgt>
<wgt id='1169'> +1.5675092e-12 </wgt>
<wgt id='1170'> +1.5632657e-12 </wgt>
<wgt id='1171'> +1.5599735e-12 </wgt>
<wgt id='1172'> +1.5711670e-12 </wgt>
<wgt id='1173'> +1.5521832e-12 </wgt>
<wgt id='1174'> +1.5771499e-12 </wgt>
<wgt id='1175'> +1.5649460e-12 </wgt>
<wgt id='1176'> +1.5642438e-12 </wgt>
<wgt id='1177'> +1.5659779e-12 </wgt>
<wgt id='1178'> +1.5628903e-12 </wgt>
<wgt id='1179'> +1.5727287e-12 </wgt>
<wgt id='1180'> +1.5507851e-12 </wgt>
<wgt id='1181'> +1.5597742e-12 </wgt>
<wgt id='1182'> +1.5701054e-12 </wgt>
<wgt id='1183'> +1.5632553e-12 </wgt>
<wgt id='1184'> +1.5653020e-12 </wgt>
<wgt id='1185'> +1.5551522e-12 </wgt>
<wgt id='1186'> +1.5705356e-12 </wgt>
<wgt id='1187'> +1.5643182e-12 </wgt>
<wgt id='1188'> +1.5653467e-12 </wgt>
<wgt id='1189'> +1.5584808e-12 </wgt>
<wgt id='1190'> +1.5551810e-12 </wgt>
<wgt id='1191'> +1.5619765e-12 </wgt>
<wgt id='1192'> +1.5647949e-12 </wgt>
<wgt id='1193'> +1.2487940e-12 </wgt>
<wgt id='1194'> +1.2474715e-12 </wgt>
<wgt id='1195'> +1.2498093e-12 </wgt>
<wgt id='1196'> +1.2556606e-12 </wgt>
<wgt id='1197'> +1.2410708e-12 </wgt>
<wgt id='1198'> +1.2487036e-12 </wgt>
<wgt id='1199'> +1.2489160e-12 </wgt>
<wgt id='1200'> +1.2506396e-12 </wgt>
<wgt id='1201'> +1.2475609e-12 </wgt>
<wgt id='1202'> +1.2471058e-12 </wgt>
<wgt id='1203'> +1.2511369e-12 </wgt>
<wgt id='1204'> +1.2386387e-12 </wgt>
<wgt id='1205'> +1.2550357e-12 </wgt>
<wgt id='1206'> +1.2534542e-12 </wgt>
<wgt id='1207'> +1.2424832e-12 </wgt>
<wgt id='1208'> +1.2407827e-12 </wgt>
<wgt id='1209'> +1.2517028e-12 </wgt>
<wgt id='1210'> +1.2522666e-12 </wgt>
<wgt id='1211'> +1.2360121e-12 </wgt>
<wgt id='1212'> +1.2494213e-12 </wgt>
<wgt id='1213'> +1.2480744e-12 </wgt>
<wgt id='1214'> +1.2300778e-12 </wgt>
<wgt id='1215'> +1.2799462e-12 </wgt>
<wgt id='1216'> +1.2568328e-12 </wgt>
<wgt id='1217'> +1.2430150e-12 </wgt>
<wgt id='1218'> +1.2533231e-12 </wgt>
<wgt id='1219'> +1.2463180e-12 </wgt>
<wgt id='1220'> +1.2541012e-12 </wgt>
<wgt id='1221'> +1.2473131e-12 </wgt>
<wgt id='1222'> +1.2500509e-12 </wgt>
<wgt id='1223'> +1.2458962e-12 </wgt>
<wgt id='1224'> +1.2505997e-12 </wgt>
<wgt id='1225'> +1.2480775e-12 </wgt>
<wgt id='1226'> +1.2451577e-12 </wgt>
<wgt id='1227'> +1.2512061e-12 </wgt>
<wgt id='1228'> +1.2472659e-12 </wgt>
<wgt id='1229'> +1.2489959e-12 </wgt>
<wgt id='1230'> +1.2404350e-12 </wgt>
<wgt id='1231'> +1.2455137e-12 </wgt>
<wgt id='1232'> +1.2491032e-12 </wgt>
<wgt id='1233'> +1.2486656e-12 </wgt>
<wgt id='1234'> +1.2487940e-12 </wgt>
<wgt id='1235'> +1.2396391e-12 </wgt>
<wgt id='1236'> +1.2430702e-12 </wgt>
<wgt id='1237'> +1.2460870e-12 </wgt>
<wgt id='1238'> +1.2512993e-12 </wgt>
<wgt id='1239'> +1.2534089e-12 </wgt>
<wgt id='1240'> +1.2554498e-12 </wgt>
<wgt id='1241'> +1.2612261e-12 </wgt>
<wgt id='1242'> +1.2554091e-12 </wgt>
<wgt id='1243'> +1.2671112e-12 </wgt>
<wgt id='1244'> +1.2537555e-12 </wgt>
<wgt id='1245'> +1.2667974e-12 </wgt>
<wgt id='1246'> +1.2615580e-12 </wgt>
<wgt id='1247'> +1.2610359e-12 </wgt>
<wgt id='1248'> +1.2611957e-12 </wgt>
<wgt id='1249'> +1.2613564e-12 </wgt>
<wgt id='1250'> +1.2636633e-12 </wgt>
<wgt id='1251'> +1.2596016e-12 </wgt>
<wgt id='1252'> +1.2579197e-12 </wgt>
<wgt id='1253'> +1.2638257e-12 </wgt>
<wgt id='1254'> +1.2512462e-12 </wgt>
<wgt id='1255'> +1.2672766e-12 </wgt>
<wgt id='1256'> +1.2656124e-12 </wgt>
<wgt id='1257'> +1.2504267e-12 </wgt>
<wgt id='1258'> +1.2854223e-12 </wgt>
<wgt id='1259'> +1.2388238e-12 </wgt>
<wgt id='1260'> +1.2655762e-12 </wgt>
<wgt id='1261'> +1.2564300e-12 </wgt>
<wgt id='1262'> +1.2620615e-12 </wgt>
<wgt id='1263'> +1.2606387e-12 </wgt>
<wgt id='1264'> +1.2654195e-12 </wgt>
<wgt id='1265'> +1.2591744e-12 </wgt>
<wgt id='1266'> +1.2543308e-12 </wgt>
<wgt id='1267'> +1.2675345e-12 </wgt>
<wgt id='1268'> +1.2624275e-12 </wgt>
<wgt id='1269'> +1.2636596e-12 </wgt>
<wgt id='1270'> +1.2532330e-12 </wgt>
<wgt id='1271'> +1.2527801e-12 </wgt>
<wgt id='1272'> +1.2606506e-12 </wgt>
<wgt id='1273'> +1.2606891e-12 </wgt>
<wgt id='1274'> +1.2639066e-12 </wgt>
<wgt id='1275'> +1.2558080e-12 </wgt>
<wgt id='1276'> +1.2611882e-12 </wgt>
<wgt id='1277'> +1.2602612e-12 </wgt>
<wgt id='1278'> +1.2600569e-12 </wgt>
<wgt id='1279'> +1.2584833e-12 </wgt>
<wgt id='1280'> +1.2612082e-12 </wgt>
<wgt id='1281'> +1.2618027e-12 </wgt>
<wgt id='1282'> +1.2612261e-12 </wgt>
<wgt id='1283'> +1.2515995e-12 </wgt>
<wgt id='1284'> +1.2553485e-12 </wgt>
<wgt id='1285'> +1.2585962e-12 </wgt>
<wgt id='1286'> +1.2640208e-12 </wgt>
<wgt id='1287'> +1.2661762e-12 </wgt>
<wgt id='1288'> +1.2679436e-12 </wgt>
<wgt id='1289'> +1.2449119e-12 </wgt>
<wgt id='1290'> +1.2455580e-12 </wgt>
<wgt id='1291'> +1.2441730e-12 </wgt>
<wgt id='1292'> +1.2380636e-12 </wgt>
<wgt id='1293'> +1.2497488e-12 </wgt>
<wgt id='1294'> +1.2422613e-12 </wgt>
<wgt id='1295'> +1.2474296e-12 </wgt>
<wgt id='1296'> +1.2414076e-12 </wgt>
<wgt id='1297'> +1.2491220e-12 </wgt>
<wgt id='1298'> +1.2494403e-12 </wgt>
<wgt id='1299'> +1.2391156e-12 </wgt>
<wgt id='1300'> +1.2475266e-12 </wgt>
<wgt id='1301'> +1.2394460e-12 </wgt>
<wgt id='1302'> +1.2431263e-12 </wgt>
<wgt id='1303'> +1.2472604e-12 </wgt>
<wgt id='1304'> +1.2427526e-12 </wgt>
<wgt id='1305'> +1.2463530e-12 </wgt>
<wgt id='1306'> +1.2427754e-12 </wgt>
<wgt id='1307'> +1.2473923e-12 </wgt>
<wgt id='1308'> +1.2502224e-12 </wgt>
<wgt id='1309'> +1.2408248e-12 </wgt>
<wgt id='1310'> +1.2458487e-12 </wgt>
<wgt id='1311'> +1.2440037e-12 </wgt>
<wgt id='1312'> +1.2459060e-12 </wgt>
<wgt id='1313'> +1.2441096e-12 </wgt>
<wgt id='1314'> +1.2453810e-12 </wgt>
<wgt id='1315'> +1.2394996e-12 </wgt>
<wgt id='1316'> +1.2512010e-12 </wgt>
<wgt id='1317'> +1.2448477e-12 </wgt>
<wgt id='1318'> +1.2557969e-12 </wgt>
<wgt id='1319'> +1.2318340e-12 </wgt>
<wgt id='1320'> +1.2598283e-12 </wgt>
<wgt id='1321'> +1.2326126e-12 </wgt>
<wgt id='1322'> +1.2435038e-12 </wgt>
<wgt id='1323'> +1.2462168e-12 </wgt>
<wgt id='1324'> +1.2432186e-12 </wgt>
<wgt id='1325'> +1.2525390e-12 </wgt>
<wgt id='1326'> +1.2434689e-12 </wgt>
<wgt id='1327'> +1.2479311e-12 </wgt>
<wgt id='1328'> +1.2455443e-12 </wgt>
<wgt id='1329'> +1.2440616e-12 </wgt>
<wgt id='1330'> +1.2251211e-12 </wgt>
<wgt id='1331'> +1.2586665e-12 </wgt>
<wgt id='1332'> +1.2683468e-12 </wgt>
<wgt id='1333'> +1.2285526e-12 </wgt>
<wgt id='1334'> +1.2389696e-12 </wgt>
<wgt id='1335'> +1.2598620e-12 </wgt>
<wgt id='1336'> +1.2395778e-12 </wgt>
<wgt id='1337'> +1.2429675e-12 </wgt>
<wgt id='1338'> +1.2418007e-12 </wgt>
<wgt id='1339'> +1.2456141e-12 </wgt>
<wgt id='1340'> +1.2249760e-12 </wgt>
<wgt id='1341'> +1.2258892e-12 </wgt>
<wgt id='1342'> +1.2240199e-12 </wgt>
<wgt id='1343'> +1.2180041e-12 </wgt>
<wgt id='1344'> +1.2296530e-12 </wgt>
<wgt id='1345'> +1.2224378e-12 </wgt>
<wgt id='1346'> +1.2273561e-12 </wgt>
<wgt id='1347'> +1.2215848e-12 </wgt>
<wgt id='1348'> +1.2287178e-12 </wgt>
<wgt id='1349'> +1.2290287e-12 </wgt>
<wgt id='1350'> +1.2209657e-12 </wgt>
<wgt id='1351'> +1.2276176e-12 </wgt>
<wgt id='1352'> +1.2192087e-12 </wgt>
<wgt id='1353'> +1.2227267e-12 </wgt>
<wgt id='1354'> +1.2289865e-12 </wgt>
<wgt id='1355'> +1.2232226e-12 </wgt>
<wgt id='1356'> +1.2259675e-12 </wgt>
<wgt id='1357'> +1.2244162e-12 </wgt>
<wgt id='1358'> +1.2257874e-12 </wgt>
<wgt id='1359'> +1.2310743e-12 </wgt>
<wgt id='1360'> +1.2197500e-12 </wgt>
<wgt id='1361'> +1.2257014e-12 </wgt>
<wgt id='1362'> +1.2241457e-12 </wgt>
<wgt id='1363'> +1.2264202e-12 </wgt>
<wgt id='1364'> +1.2244200e-12 </wgt>
<wgt id='1365'> +1.2167641e-12 </wgt>
<wgt id='1366'> +1.2276700e-12 </wgt>
<wgt id='1367'> +1.2309126e-12 </wgt>
<wgt id='1368'> +1.2245716e-12 </wgt>
<wgt id='1369'> +1.2340420e-12 </wgt>
<wgt id='1370'> +1.2141109e-12 </wgt>
<wgt id='1371'> +1.2360036e-12 </wgt>
<wgt id='1372'> +1.2118387e-12 </wgt>
<wgt id='1373'> +1.2209120e-12 </wgt>
<wgt id='1374'> +1.2282238e-12 </wgt>
<wgt id='1375'> +1.2234441e-12 </wgt>
<wgt id='1376'> +1.2325967e-12 </wgt>
<wgt id='1377'> +1.2239046e-12 </wgt>
<wgt id='1378'> +1.2280003e-12 </wgt>
<wgt id='1379'> +1.2252611e-12 </wgt>
<wgt id='1380'> +1.2244784e-12 </wgt>
<wgt id='1381'> +1.2047984e-12 </wgt>
<wgt id='1382'> +1.2372211e-12 </wgt>
<wgt id='1383'> +1.2487584e-12 </wgt>
<wgt id='1384'> +1.2071187e-12 </wgt>
<wgt id='1385'> +1.2192206e-12 </wgt>
<wgt id='1386'> +1.2387529e-12 </wgt>
<wgt id='1387'> +1.2182551e-12 </wgt>
<wgt id='1388'> +1.2223249e-12 </wgt>
<wgt id='1389'> +1.2194034e-12 </wgt>
<wgt id='1390'> +1.2263722e-12 </wgt>
<wgt id='1391'> +1.2028662e-12 </wgt>
<wgt id='1392'> +1.1751122e-12 </wgt>
<wgt id='1393'> +1.1846009e-12 </wgt>
<wgt id='1394'> +1.1939615e-12 </wgt>
<wgt id='1395'> +1.2121994e-12 </wgt>
<wgt id='1396'> +1.2036983e-12 </wgt>
<wgt id='1397'> +1.1643836e-12 </wgt>
<wgt id='1398'> +1.1727101e-12 </wgt>
<wgt id='1399'> +1.1799462e-12 </wgt>
<wgt id='1400'> +1.1873681e-12 </wgt>
<wgt id='1401'> +1.1955589e-12 </wgt>
<wgt id='1402'> +1.2111085e-12 </wgt>
<wgt id='1403'> +1.2185908e-12 </wgt>
<wgt id='1404'> +1.2256470e-12 </wgt>
<wgt id='1405'> +1.2036983e-12 </wgt>
<wgt id='1406'> +1.1995101e-12 </wgt>
<wgt id='1407'> +1.2019011e-12 </wgt>
<wgt id='1408'> +1.2053504e-12 </wgt>
<wgt id='1409'> +1.2072453e-12 </wgt>
<wgt id='1410'> +1.2171297e-12 </wgt>
<wgt id='1411'> +1.2172360e-12 </wgt>
<wgt id='1412'> +1.2170241e-12 </wgt>
<wgt id='1413'> +1.2218789e-12 </wgt>
<wgt id='1414'> +1.2123745e-12 </wgt>
<wgt id='1415'> +1.2084289e-12 </wgt>
<wgt id='1416'> +1.2206195e-12 </wgt>
<wgt id='1417'> +1.2099743e-12 </wgt>
<wgt id='1418'> +1.2242729e-12 </wgt>
<wgt id='1419'> +1.2186188e-12 </wgt>
<wgt id='1420'> +1.2156966e-12 </wgt>
<wgt id='1421'> +1.2055982e-12 </wgt>
<wgt id='1422'> +1.2220757e-12 </wgt>
<wgt id='1423'> +1.2166997e-12 </wgt>
<wgt id='1424'> +1.2176572e-12 </wgt>
<wgt id='1425'> +1.2125501e-12 </wgt>
<wgt id='1426'> +1.2221121e-12 </wgt>
<wgt id='1427'> +1.2176444e-12 </wgt>
<wgt id='1428'> +1.2166238e-12 </wgt>
<wgt id='1429'> +1.2124995e-12 </wgt>
<wgt id='1430'> +1.2234232e-12 </wgt>
<wgt id='1431'> +1.2203010e-12 </wgt>
<wgt id='1432'> +1.2148133e-12 </wgt>
<wgt id='1433'> +1.2175705e-12 </wgt>
<wgt id='1434'> +1.2156323e-12 </wgt>
<wgt id='1435'> +1.2173412e-12 </wgt>
<wgt id='1436'> +1.2168403e-12 </wgt>
<wgt id='1437'> +1.2229649e-12 </wgt>
<wgt id='1438'> +1.2165618e-12 </wgt>
<wgt id='1439'> +1.2099538e-12 </wgt>
<wgt id='1440'> +1.2341515e-12 </wgt>
<wgt id='1441'> +1.2214548e-12 </wgt>
<wgt id='1442'> +1.2089011e-12 </wgt>
<wgt id='1443'> +1.2148948e-12 </wgt>
<wgt id='1444'> +1.2225106e-12 </wgt>
<wgt id='1445'> +1.2276466e-12 </wgt>
<wgt id='1446'> +1.2135714e-12 </wgt>
<wgt id='1447'> +1.2182054e-12 </wgt>
<wgt id='1448'> +1.2178186e-12 </wgt>
<wgt id='1449'> +1.2184293e-12 </wgt>
<wgt id='1450'> +1.2159836e-12 </wgt>
<wgt id='1451'> +1.2268662e-12 </wgt>
<wgt id='1452'> +1.1914245e-12 </wgt>
<wgt id='1453'> +1.2193635e-12 </wgt>
<wgt id='1454'> +1.2016851e-12 </wgt>
<wgt id='1455'> +1.2051924e-12 </wgt>
<wgt id='1456'> +1.2216758e-12 </wgt>
<wgt id='1457'> +1.2247920e-12 </wgt>
<wgt id='1458'> +1.2134652e-12 </wgt>
<wgt id='1459'> +1.2218052e-12 </wgt>
<wgt id='1460'> +1.2104272e-12 </wgt>
<wgt id='1461'> +1.2171297e-12 </wgt>
<wgt id='1462'> +1.2101063e-12 </wgt>
<wgt id='1463'> +1.2277997e-12 </wgt>
<wgt id='1464'> +1.2187018e-12 </wgt>
<wgt id='1465'> +1.1862456e-12 </wgt>
<wgt id='1466'> +1.1932310e-12 </wgt>
<wgt id='1467'> +1.2005246e-12 </wgt>
<wgt id='1468'> +1.2057272e-12 </wgt>
<wgt id='1469'> +1.2125701e-12 </wgt>
<wgt id='1470'> +1.2253626e-12 </wgt>
<wgt id='1471'> +1.2301306e-12 </wgt>
<wgt id='1472'> +1.2364385e-12 </wgt>
<wgt id='1473'> +1.2187018e-12 </wgt>
<wgt id='1474'> +1.2140406e-12 </wgt>
<wgt id='1475'> +1.2154894e-12 </wgt>
<wgt id='1476'> +1.2207309e-12 </wgt>
<wgt id='1477'> +1.2227550e-12 </wgt>
<wgt id='1478'> +1.1921094e-12 </wgt>
<wgt id='1479'> +1.1904637e-12 </wgt>
<wgt id='1480'> +1.1913948e-12 </wgt>
<wgt id='1481'> +1.1893941e-12 </wgt>
<wgt id='1482'> +1.1905624e-12 </wgt>
<wgt id='1483'> +1.1696246e-12 </wgt>
<wgt id='1484'> +1.1893187e-12 </wgt>
<wgt id='1485'> +1.1939543e-12 </wgt>
<wgt id='1486'> +1.1931596e-12 </wgt>
<wgt id='1487'> +1.1978227e-12 </wgt>
<wgt id='1488'> +1.1894127e-12 </wgt>
<wgt id='1489'> +1.2084656e-12 </wgt>
<wgt id='1490'> +1.1880970e-12 </wgt>
<wgt id='1491'> +1.1938053e-12 </wgt>
<wgt id='1492'> +1.1936558e-12 </wgt>
<wgt id='1493'> +1.1745612e-12 </wgt>
<wgt id='1494'> +1.2052604e-12 </wgt>
<wgt id='1495'> +1.1839796e-12 </wgt>
<wgt id='1496'> +1.1908984e-12 </wgt>
<wgt id='1497'> +1.1913100e-12 </wgt>
<wgt id='1498'> +1.1910456e-12 </wgt>
<wgt id='1499'> +1.1931977e-12 </wgt>
<wgt id='1500'> +1.1934283e-12 </wgt>
<wgt id='1501'> +1.1908952e-12 </wgt>
<wgt id='1502'> +1.1915408e-12 </wgt>
<wgt id='1503'> +1.1919575e-12 </wgt>
<wgt id='1504'> +1.1851969e-12 </wgt>
<wgt id='1505'> +1.1919587e-12 </wgt>
<wgt id='1506'> +1.1915714e-12 </wgt>
<wgt id='1507'> +1.1910519e-12 </wgt>
<wgt id='1508'> +1.1964809e-12 </wgt>
<wgt id='1509'> +1.2845346e-12 </wgt>
<wgt id='1510'> +1.2835010e-12 </wgt>
<wgt id='1511'> +1.2890372e-12 </wgt>
<wgt id='1512'> +1.2863184e-12 </wgt>
<wgt id='1513'> +1.2894741e-12 </wgt>
<wgt id='1514'> +1.2844262e-12 </wgt>
<wgt id='1515'> +1.2825867e-12 </wgt>
<wgt id='1516'> +1.2856589e-12 </wgt>
<wgt id='1517'> +1.2875761e-12 </wgt>
<wgt id='1518'> +1.2880982e-12 </wgt>
<wgt id='1519'> +1.2778277e-12 </wgt>
<wgt id='1520'> +1.2875883e-12 </wgt>
<wgt id='1521'> +1.2926842e-12 </wgt>
<wgt id='1522'> +1.2870361e-12 </wgt>
<wgt id='1523'> +1.2937894e-12 </wgt>
<wgt id='1524'> +1.2872968e-12 </wgt>
<wgt id='1525'> +1.2907744e-12 </wgt>
<wgt id='1526'> +1.2817092e-12 </wgt>
<wgt id='1527'> +1.2813772e-12 </wgt>
<wgt id='1528'> +1.2869736e-12 </wgt>
<wgt id='1529'> +1.2856146e-12 </wgt>
<wgt id='1530'> +1.2918492e-12 </wgt>
<wgt id='1531'> +1.2870312e-12 </wgt>
<wgt id='1532'> +1.2799594e-12 </wgt>
<wgt id='1533'> +1.2816442e-12 </wgt>
<wgt id='1534'> +1.2891863e-12 </wgt>
<wgt id='1535'> +1.2771217e-12 </wgt>
<wgt id='1536'> +1.2831430e-12 </wgt>
<wgt id='1537'> +1.2863792e-12 </wgt>
<wgt id='1538'> +1.2803694e-12 </wgt>
<wgt id='1539'> +1.2770291e-12 </wgt>
<wgt id='1540'> +1.2862781e-12 </wgt>
<wgt id='1541'> +1.2854177e-12 </wgt>
<wgt id='1542'> +1.2878891e-12 </wgt>
<wgt id='1543'> +1.2839828e-12 </wgt>
<wgt id='1544'> +1.2794527e-12 </wgt>
<wgt id='1545'> +1.2851581e-12 </wgt>
<wgt id='1546'> +1.2854340e-12 </wgt>
<wgt id='1547'> +1.2848061e-12 </wgt>
<wgt id='1548'> +1.2832087e-12 </wgt>
<wgt id='1549'> +1.2820700e-12 </wgt>
<wgt id='1550'> +1.2876553e-12 </wgt>
<wgt id='1551'> +1.2813269e-12 </wgt>
<wgt id='1552'> +1.2839510e-12 </wgt>
<wgt id='1553'> +1.2849518e-12 </wgt>
<wgt id='1554'> +1.2886942e-12 </wgt>
<wgt id='1555'> +1.2883852e-12 </wgt>
<wgt id='1556'> +1.2844962e-12 </wgt>
<wgt id='1557'> +1.2856987e-12 </wgt>
<wgt id='1558'> +1.2813052e-12 </wgt>
<wgt id='1559'> +1.2817844e-12 </wgt>
<wgt id='1560'> +1.2851216e-12 </wgt>
<wgt id='1561'> +1.2823095e-12 </wgt>
<wgt id='1562'> +1.2846047e-12 </wgt>
<wgt id='1563'> +1.2842272e-12 </wgt>
<wgt id='1564'> +1.2843088e-12 </wgt>
<wgt id='1565'> +1.2850308e-12 </wgt>
<wgt id='1566'> +1.2850504e-12 </wgt>
<wgt id='1567'> +1.2848628e-12 </wgt>
<wgt id='1568'> +1.2824149e-12 </wgt>
<wgt id='1569'> +1.2848762e-12 </wgt>
<wgt id='1570'> +1.2834561e-12 </wgt>
<wgt id='1571'> +1.2848988e-12 </wgt>
<wgt id='1572'> +1.2842061e-12 </wgt>
<wgt id='1573'> +1.2867737e-12 </wgt>
<wgt id='1574'> +1.2839422e-12 </wgt>
<wgt id='1575'> +1.2839788e-12 </wgt>
<wgt id='1576'> +1.2847418e-12 </wgt>
<wgt id='1577'> +1.2858284e-12 </wgt>
<wgt id='1578'> +1.2847318e-12 </wgt>
<wgt id='1579'> +1.2845872e-12 </wgt>
<wgt id='1580'> +1.2847504e-12 </wgt>
<wgt id='1581'> +1.2844297e-12 </wgt>
<wgt id='1582'> +1.2844942e-12 </wgt>
<wgt id='1583'> +1.2849033e-12 </wgt>
<wgt id='1584'> +1.2835216e-12 </wgt>
<wgt id='1585'> +1.2842098e-12 </wgt>
<wgt id='1586'> +1.2842875e-12 </wgt>
<wgt id='1587'> +1.2838512e-12 </wgt>
<wgt id='1588'> +1.2852900e-12 </wgt>
<wgt id='1589'> +1.2841406e-12 </wgt>
<wgt id='1590'> +1.2840143e-12 </wgt>
<wgt id='1591'> +1.2842043e-12 </wgt>
<wgt id='1592'> +1.2833520e-12 </wgt>
<wgt id='1593'> +1.2848547e-12 </wgt>
<wgt id='1594'> +1.2849292e-12 </wgt>
<wgt id='1595'> +1.2850859e-12 </wgt>
<wgt id='1596'> +1.2844144e-12 </wgt>
<wgt id='1597'> +1.2848122e-12 </wgt>
<wgt id='1598'> +1.2848984e-12 </wgt>
<wgt id='1599'> +1.2848668e-12 </wgt>
<wgt id='1600'> +1.2857405e-12 </wgt>
<wgt id='1601'> +1.2843614e-12 </wgt>
<wgt id='1602'> +1.2842348e-12 </wgt>
<wgt id='1603'> +1.2842621e-12 </wgt>
<wgt id='1604'> +1.2849660e-12 </wgt>
<wgt id='1605'> +1.2844227e-12 </wgt>
<wgt id='1606'> +1.2853561e-12 </wgt>
<wgt id='1607'> +1.2849155e-12 </wgt>
<wgt id='1608'> +1.2846738e-12 </wgt>
<wgt id='1609'> +1.2845051e-12 </wgt>
<wgt id='1610'> +1.2776698e-12 </wgt>
<wgt id='1611'> +1.2943054e-12 </wgt>
<wgt id='1612'> +1.5042581e-12 </wgt>
<wgt id='1613'> +1.4744833e-12 </wgt>
<wgt id='1614'> +1.5113498e-12 </wgt>
<wgt id='1615'> +1.4903078e-12 </wgt>
<wgt id='1616'> +1.5548350e-12 </wgt>
<wgt id='1617'> +1.5430738e-12 </wgt>
<wgt id='1618'> +1.5006107e-12 </wgt>
<wgt id='1619'> +1.5121922e-12 </wgt>
<wgt id='1620'> +1.4701012e-12 </wgt>
<wgt id='1621'> +1.5030954e-12 </wgt>
<wgt id='1622'> +1.5238132e-12 </wgt>
<wgt id='1623'> +1.5066518e-12 </wgt>
<wgt id='1624'> +1.4710706e-12 </wgt>
<wgt id='1625'> +1.4780432e-12 </wgt>
<wgt id='1626'> +1.4854325e-12 </wgt>
<wgt id='1627'> +1.4702625e-12 </wgt>
<wgt id='1628'> +1.4762074e-12 </wgt>
<wgt id='1629'> +1.5858529e-12 </wgt>
<wgt id='1630'> +1.5127404e-12 </wgt>
<wgt id='1631'> +1.4840275e-12 </wgt>
<wgt id='1632'> +1.4088140e-12 </wgt>
<wgt id='1633'> +1.4501925e-12 </wgt>
<wgt id='1634'> +1.5572249e-12 </wgt>
<wgt id='1635'> +1.5040218e-12 </wgt>
<wgt id='1636'> +1.5300495e-12 </wgt>
<wgt id='1637'> +1.4780628e-12 </wgt>
<wgt id='1638'> +1.4910481e-12 </wgt>
<wgt id='1639'> +1.5036256e-12 </wgt>
<wgt id='1640'> +1.4864759e-12 </wgt>
<wgt id='1641'> +1.4793700e-12 </wgt>
<wgt id='1642'> +1.4936765e-12 </wgt>
<wgt id='1643'> +1.5469764e-12 </wgt>
<wgt id='1644'> +1.4461012e-12 </wgt>
<wgt id='1645'> +1.4923740e-12 </wgt>
<wgt id='1646'> +1.5021818e-12 </wgt>
<wgt id='1647'> +1.4945985e-12 </wgt>
<wgt id='1648'> +1.4972272e-12 </wgt>
<wgt id='1649'> +1.5419718e-12 </wgt>
<wgt id='1650'> +1.4935259e-12 </wgt>
<wgt id='1651'> +1.4666488e-12 </wgt>
<wgt id='1652'> +1.4830975e-12 </wgt>
<wgt id='1653'> +1.5621737e-12 </wgt>
<wgt id='1654'> +1.5004746e-12 </wgt>
<wgt id='1655'> +1.4764458e-12 </wgt>
<wgt id='1656'> +1.4509424e-12 </wgt>
<wgt id='1657'> +1.4804788e-12 </wgt>
<wgt id='1658'> +1.4564788e-12 </wgt>
<wgt id='1659'> +1.4710706e-12 </wgt>
<wgt id='1660'> +1.5426704e-12 </wgt>
<wgt id='1661'> +1.5191592e-12 </wgt>
<wgt id='1662'> +1.5045704e-12 </wgt>
<wgt id='1663'> +1.5356917e-12 </wgt>
<wgt id='1664'> +1.4762015e-12 </wgt>
<wgt id='1665'> +1.4275102e-12 </wgt>
<wgt id='1666'> +1.5276332e-12 </wgt>
<wgt id='1667'> +1.5098316e-12 </wgt>
<wgt id='1668'> +1.5397443e-12 </wgt>
<wgt id='1669'> +1.4596731e-12 </wgt>
<wgt id='1670'> +1.5238613e-12 </wgt>
<wgt id='1671'> +1.4947262e-12 </wgt>
<wgt id='1672'> +1.5107599e-12 </wgt>
<wgt id='1673'> +1.5681926e-12 </wgt>
<wgt id='1674'> +1.4879365e-12 </wgt>
<wgt id='1675'> +1.5390295e-12 </wgt>
<wgt id='1676'> +1.5432720e-12 </wgt>
<wgt id='1677'> +1.5820798e-12 </wgt>
<wgt id='1678'> +1.4817874e-12 </wgt>
<wgt id='1679'> +1.5589962e-12 </wgt>
<wgt id='1680'> +1.5055229e-12 </wgt>
<wgt id='1681'> +1.5234477e-12 </wgt>
<wgt id='1682'> +1.5208327e-12 </wgt>
<wgt id='1683'> +1.4844666e-12 </wgt>
<wgt id='1684'> +1.5021243e-12 </wgt>
<wgt id='1685'> +1.4746615e-12 </wgt>
<wgt id='1686'> +1.5057910e-12 </wgt>
<wgt id='1687'> +1.5519871e-12 </wgt>
<wgt id='1688'> +1.5024458e-12 </wgt>
<wgt id='1689'> +1.4902206e-12 </wgt>
<wgt id='1690'> +1.4945968e-12 </wgt>
<wgt id='1691'> +1.5017244e-12 </wgt>
<wgt id='1692'> +1.5749797e-12 </wgt>
<wgt id='1693'> +1.5504720e-12 </wgt>
<wgt id='1694'> +1.4739453e-12 </wgt>
<wgt id='1695'> +1.5061759e-12 </wgt>
<wgt id='1696'> +1.5317308e-12 </wgt>
<wgt id='1697'> +1.5389268e-12 </wgt>
<wgt id='1698'> +1.4789529e-12 </wgt>
<wgt id='1699'> +1.5215116e-12 </wgt>
<wgt id='1700'> +1.4726051e-12 </wgt>
<wgt id='1701'> +1.5305053e-12 </wgt>
<wgt id='1702'> +1.5246410e-12 </wgt>
<wgt id='1703'> +1.5270482e-12 </wgt>
<wgt id='1704'> +1.4701374e-12 </wgt>
<wgt id='1705'> +1.4659217e-12 </wgt>
<wgt id='1706'> +1.5108436e-12 </wgt>
<wgt id='1707'> +1.4957571e-12 </wgt>
<wgt id='1708'> +1.5039009e-12 </wgt>
<wgt id='1709'> +1.4872235e-12 </wgt>
<wgt id='1710'> +1.4981407e-12 </wgt>
<wgt id='1711'> +1.5570723e-12 </wgt>
<wgt id='1712'> +1.5100940e-12 </wgt>
<wgt id='1713'> +1.1743695e-12 </wgt>
<wgt id='1714'> +1.1440604e-12 </wgt>
<wgt id='1715'> +1.1849590e-12 </wgt>
<wgt id='1716'> +1.2419481e-12 </wgt>
<wgt id='1717'> +1.1954824e-12 </wgt>
<wgt id='1718'> +1.1967954e-12 </wgt>
<wgt id='1719'> +1.1823014e-12 </wgt>
<wgt id='1720'> +1.1872850e-12 </wgt>
<wgt id='1721'> +1.1557313e-12 </wgt>
<wgt id='1722'> +1.1720943e-12 </wgt>
<wgt id='1723'> +1.1183982e-12 </wgt>
<wgt id='1724'> +1.1421359e-12 </wgt>
<wgt id='1725'> +1.1900193e-12 </wgt>
<wgt id='1726'> +1.2043061e-12 </wgt>
<wgt id='1727'> +1.1663027e-12 </wgt>
<wgt id='1728'> +1.1794589e-12 </wgt>
<wgt id='1729'> +1.1707603e-12 </wgt>
<wgt id='1730'> +1.1484165e-12 </wgt>
<wgt id='1731'> +1.1320792e-12 </wgt>
<wgt id='1732'> +1.1601488e-12 </wgt>
<wgt id='1733'> +1.1759428e-12 </wgt>
<wgt id='1734'> +1.2121726e-12 </wgt>
<wgt id='1735'> +1.1587548e-12 </wgt>
<wgt id='1736'> +1.2502983e-12 </wgt>
<wgt id='1737'> +1.2200452e-12 </wgt>
<wgt id='1738'> +1.1875228e-12 </wgt>
<wgt id='1739'> +1.1772025e-12 </wgt>
<wgt id='1740'> +1.1530606e-12 </wgt>
<wgt id='1741'> +1.1594600e-12 </wgt>
<wgt id='1742'> +1.1802504e-12 </wgt>
<wgt id='1743'> +1.2000031e-12 </wgt>
<wgt id='1744'> +1.2119529e-12 </wgt>
<wgt id='1745'> +1.1244217e-12 </wgt>
<wgt id='1746'> +1.1777261e-12 </wgt>
<wgt id='1747'> +1.1958704e-12 </wgt>
<wgt id='1748'> +1.1963081e-12 </wgt>
<wgt id='1749'> +1.1782081e-12 </wgt>
<wgt id='1750'> +1.1718812e-12 </wgt>
<wgt id='1751'> +1.0945005e-12 </wgt>
<wgt id='1752'> +1.1665831e-12 </wgt>
<wgt id='1753'> +1.1980327e-12 </wgt>
<wgt id='1754'> +1.1624887e-12 </wgt>
<wgt id='1755'> +1.1814859e-12 </wgt>
<wgt id='1756'> +1.1938338e-12 </wgt>
<wgt id='1757'> +1.1627915e-12 </wgt>
<wgt id='1758'> +1.1977430e-12 </wgt>
<wgt id='1759'> +1.1763035e-12 </wgt>
<wgt id='1760'> +1.1272759e-12 </wgt>
<wgt id='1761'> +1.1564856e-12 </wgt>
<wgt id='1762'> +1.1848274e-12 </wgt>
<wgt id='1763'> +1.2091239e-12 </wgt>
<wgt id='1764'> +1.1702267e-12 </wgt>
<wgt id='1765'> +1.1860748e-12 </wgt>
<wgt id='1766'> +1.1827752e-12 </wgt>
<wgt id='1767'> +1.1907034e-12 </wgt>
<wgt id='1768'> +1.1778456e-12 </wgt>
<wgt id='1769'> +1.1494490e-12 </wgt>
<wgt id='1770'> +1.2123803e-12 </wgt>
<wgt id='1771'> +1.1972333e-12 </wgt>
<wgt id='1772'> +1.1997867e-12 </wgt>
<wgt id='1773'> +1.1653239e-12 </wgt>
<wgt id='1774'> +1.1725725e-12 </wgt>
<wgt id='1775'> +1.1806052e-12 </wgt>
<wgt id='1776'> +1.1725385e-12 </wgt>
<wgt id='1777'> +1.1016461e-12 </wgt>
<wgt id='1778'> +1.1587129e-12 </wgt>
<wgt id='1779'> +1.2054165e-12 </wgt>
<wgt id='1780'> +1.1718371e-12 </wgt>
<wgt id='1781'> +1.1633671e-12 </wgt>
<wgt id='1782'> +1.1190761e-12 </wgt>
<wgt id='1783'> +1.1743817e-12 </wgt>
<wgt id='1784'> +1.1776775e-12 </wgt>
<wgt id='1785'> +1.1379894e-12 </wgt>
<wgt id='1786'> +1.0865593e-12 </wgt>
<wgt id='1787'> +1.2356470e-12 </wgt>
<wgt id='1788'> +1.1570391e-12 </wgt>
<wgt id='1789'> +1.1557960e-12 </wgt>
<wgt id='1790'> +1.1899260e-12 </wgt>
<wgt id='1791'> +1.1786233e-12 </wgt>
<wgt id='1792'> +1.1310893e-12 </wgt>
<wgt id='1793'> +1.2064146e-12 </wgt>
<wgt id='1794'> +1.1878171e-12 </wgt>
<wgt id='1795'> +1.1996480e-12 </wgt>
<wgt id='1796'> +1.1520085e-12 </wgt>
<wgt id='1797'> +1.1846216e-12 </wgt>
<wgt id='1798'> +1.1633037e-12 </wgt>
<wgt id='1799'> +1.1618748e-12 </wgt>
<wgt id='1800'> +1.1803096e-12 </wgt>
<wgt id='1801'> +1.1834472e-12 </wgt>
<wgt id='1802'> +1.1566466e-12 </wgt>
<wgt id='1803'> +1.1966946e-12 </wgt>
<wgt id='1804'> +1.1475816e-12 </wgt>
<wgt id='1805'> +1.1665666e-12 </wgt>
<wgt id='1806'> +1.1644906e-12 </wgt>
<wgt id='1807'> +1.1822912e-12 </wgt>
<wgt id='1808'> +1.1826083e-12 </wgt>
<wgt id='1809'> +1.1461578e-12 </wgt>
<wgt id='1810'> +1.1709195e-12 </wgt>
<wgt id='1811'> +1.2104785e-12 </wgt>
<wgt id='1812'> +1.1959552e-12 </wgt>
<wgt id='1813'> +1.1838078e-12 </wgt>
<wgt id='1814'> +1.3577595e-12 </wgt>
<wgt id='1815'> +1.5376065e-12 </wgt>
<wgt id='1816'> +1.1743695e-12 </wgt>
<wgt id='1817'> +1.1440604e-12 </wgt>
<wgt id='1818'> +1.1849590e-12 </wgt>
<wgt id='1819'> +1.2419481e-12 </wgt>
<wgt id='1820'> +1.1954824e-12 </wgt>
<wgt id='1821'> +1.1967954e-12 </wgt>
<wgt id='1822'> +1.1823014e-12 </wgt>
<wgt id='1823'> +1.1872850e-12 </wgt>
<wgt id='1824'> +1.1557313e-12 </wgt>
<wgt id='1825'> +1.1720943e-12 </wgt>
<wgt id='1826'> +1.1183982e-12 </wgt>
<wgt id='1827'> +1.1421359e-12 </wgt>
<wgt id='1828'> +1.1900193e-12 </wgt>
<wgt id='1829'> +1.2043061e-12 </wgt>
<wgt id='1830'> +1.1663027e-12 </wgt>
<wgt id='1831'> +1.1794589e-12 </wgt>
<wgt id='1832'> +1.1707603e-12 </wgt>
<wgt id='1833'> +1.1484165e-12 </wgt>
<wgt id='1834'> +1.1320792e-12 </wgt>
<wgt id='1835'> +1.1601488e-12 </wgt>
<wgt id='1836'> +1.1759428e-12 </wgt>
<wgt id='1837'> +1.2121726e-12 </wgt>
<wgt id='1838'> +1.1587548e-12 </wgt>
<wgt id='1839'> +1.2502983e-12 </wgt>
<wgt id='1840'> +1.2200452e-12 </wgt>
<wgt id='1841'> +1.1875228e-12 </wgt>
<wgt id='1842'> +1.1772025e-12 </wgt>
<wgt id='1843'> +1.1530606e-12 </wgt>
<wgt id='1844'> +1.1594600e-12 </wgt>
<wgt id='1845'> +1.1802504e-12 </wgt>
<wgt id='1846'> +1.2000031e-12 </wgt>
<wgt id='1847'> +1.2119529e-12 </wgt>
<wgt id='1848'> +1.1244217e-12 </wgt>
<wgt id='1849'> +1.1777261e-12 </wgt>
<wgt id='1850'> +1.1958704e-12 </wgt>
<wgt id='1851'> +1.1963081e-12 </wgt>
<wgt id='1852'> +1.1782081e-12 </wgt>
<wgt id='1853'> +1.1718812e-12 </wgt>
<wgt id='1854'> +1.0945005e-12 </wgt>
<wgt id='1855'> +1.1665831e-12 </wgt>
<wgt id='1856'> +1.1980327e-12 </wgt>
<wgt id='1857'> +1.1624887e-12 </wgt>
<wgt id='1858'> +1.1814859e-12 </wgt>
<wgt id='1859'> +1.1938338e-12 </wgt>
<wgt id='1860'> +1.1627915e-12 </wgt>
<wgt id='1861'> +1.1977430e-12 </wgt>
<wgt id='1862'> +1.1763035e-12 </wgt>
<wgt id='1863'> +1.1272759e-12 </wgt>
<wgt id='1864'> +1.1564856e-12 </wgt>
<wgt id='1865'> +1.1848274e-12 </wgt>
<wgt id='1866'> +1.2091239e-12 </wgt>
<wgt id='1867'> +1.1702267e-12 </wgt>
<wgt id='1868'> +1.1860748e-12 </wgt>
<wgt id='1869'> +1.1827752e-12 </wgt>
<wgt id='1870'> +1.1907034e-12 </wgt>
<wgt id='1871'> +1.1778456e-12 </wgt>
<wgt id='1872'> +1.1494490e-12 </wgt>
<wgt id='1873'> +1.2123803e-12 </wgt>
<wgt id='1874'> +1.1972333e-12 </wgt>
<wgt id='1875'> +1.1997867e-12 </wgt>
<wgt id='1876'> +1.1653239e-12 </wgt>
<wgt id='1877'> +1.1725725e-12 </wgt>
<wgt id='1878'> +1.1806052e-12 </wgt>
<wgt id='1879'> +1.1725385e-12 </wgt>
<wgt id='1880'> +1.1016461e-12 </wgt>
<wgt id='1881'> +1.1587129e-12 </wgt>
<wgt id='1882'> +1.2054165e-12 </wgt>
<wgt id='1883'> +1.1718371e-12 </wgt>
<wgt id='1884'> +1.1633671e-12 </wgt>
<wgt id='1885'> +1.1190761e-12 </wgt>
<wgt id='1886'> +1.1743817e-12 </wgt>
<wgt id='1887'> +1.1776775e-12 </wgt>
<wgt id='1888'> +1.1379894e-12 </wgt>
<wgt id='1889'> +1.0865593e-12 </wgt>
<wgt id='1890'> +1.2356470e-12 </wgt>
<wgt id='1891'> +1.1570391e-12 </wgt>
<wgt id='1892'> +1.1557960e-12 </wgt>
<wgt id='1893'> +1.1899260e-12 </wgt>
<wgt id='1894'> +1.1786233e-12 </wgt>
<wgt id='1895'> +1.1310893e-12 </wgt>
<wgt id='1896'> +1.2064146e-12 </wgt>
<wgt id='1897'> +1.1878171e-12 </wgt>
<wgt id='1898'> +1.1996480e-12 </wgt>
<wgt id='1899'> +1.1520085e-12 </wgt>
<wgt id='1900'> +1.1846216e-12 </wgt>
<wgt id='1901'> +1.1633037e-12 </wgt>
<wgt id='1902'> +1.1618748e-12 </wgt>
<wgt id='1903'> +1.1803096e-12 </wgt>
<wgt id='1904'> +1.1834472e-12 </wgt>
<wgt id='1905'> +1.1566466e-12 </wgt>
<wgt id='1906'> +1.1966946e-12 </wgt>
<wgt id='1907'> +1.1475816e-12 </wgt>
<wgt id='1908'> +1.1665666e-12 </wgt>
<wgt id='1909'> +1.1644906e-12 </wgt>
<wgt id='1910'> +1.1822912e-12 </wgt>
<wgt id='1911'> +1.1826083e-12 </wgt>
<wgt id='1912'> +1.1461578e-12 </wgt>
<wgt id='1913'> +1.1709195e-12 </wgt>
<wgt id='1914'> +1.2104785e-12 </wgt>
<wgt id='1915'> +1.1959552e-12 </wgt>
<wgt id='1916'> +1.1838078e-12 </wgt>
<wgt id='1917'> +1.1669611e-12 </wgt>
<wgt id='1918'> +1.1795706e-12 </wgt>
<wgt id='1919'> +1.2197884e-12 </wgt>
</rwgt>
</event>
<event>
 9      1 +1.5607000e-12 9.81258400e+01 7.81860800e-03 1.16581800e-01
       -2 -1    0    0    0  501 -0.0000000000e+00 +0.0000000000e+00 +4.4384546383e+01 4.4384546383e+01 0.0000000000e+00 0.0000e+00 -1.0000e+00
       21 -1    0    0  501  502 +0.0000000000e+00 -0.0000000000e+00 -5.4234423731e+01 5.4234423731e+01 0.0000000000e+00 0.0000e+00 -1.0000e+00
     1023  2    1    2    0    0 -2.3394640590e+01 -5.2469896974e+00 +3.6655192482e+01 4.6297257325e+01 1.4999759689e+01 0.0000e+00 0.0000e+00
  1000023  2    3    3    0    0 -4.6859586351e+00 -4.1960501585e+00 +7.2041192973e+00 1.1034175127e+01 5.5035116623e+00 0.0000e+00 0.0000e+00
       -2  1    1    2    0  502 +2.3394640590e+01 +5.2469896974e+00 -4.6505069831e+01 5.2321712789e+01 0.0000000000e+00 0.0000e+00 -1.0000e+00
  1000022  1    4    4    0    0 -4.4644806603e+00 -3.5247056230e+00 +6.9412374096e+00 1.0273067413e+01 5.0000000000e+00 0.0000e+00 -1.0000e+00
      -11  1    4    4    0    0 -5.6006544503e-02 -1.9463336011e-01 +2.7828184486e-02 2.0443470074e-01 5.1100000000e-04 0.0000e+00 -1.0000e+00
       11  1    4    4    0    0 -1.6547143038e-01 -4.7671117546e-01 +2.3505370320e-01 5.5667301317e-01 5.1100000000e-04 0.0000e+00 1.0000e+00
  1000022  1    3    3    0    0 -1.8708681955e+01 -1.0509395389e+00 +2.9451073185e+01 3.5263082198e+01 5.0000000000e+00 0.0000e+00 -1.0000e+00
<mgrwt>
<rscale>  1 0.98125844E+02</rscale>
<asrwt>0</asrwt>
<pdfrwt beam="1">  1       21 0.83437575E-02 0.98125844E+02</pdfrwt>
<pdfrwt beam="2">  1       -2 0.68283918E-02 0.98125844E+02</pdfrwt>
<totfact> 0.12540735E+06</totfact>
</mgrwt>
<rwgt>
<wgt id='1001'> +1.5607000e-12 </wgt>
<wgt id='1002'> +1.5857788e-12 </wgt>
<wgt id='1003'> +1.5851508e-12 </wgt>
<wgt id='1004'> +1.5830093e-12 </wgt>
<wgt id='1005'> +1.5607000e-12 </wgt>
<wgt id='1006'> +1.4017550e-12 </wgt>
<wgt id='1007'> +1.4053991e-12 </wgt>
<wgt id='1008'> +1.4057819e-12 </wgt>
<wgt id='1009'> +1.3792706e-12 </wgt>
<wgt id='1010'> +1.4017550e-12 </wgt>
<wgt id='1011'> +1.7618614e-12 </wgt>
<wgt id='1012'> +1.8216419e-12 </wgt>
<wgt id='1013'> +1.8193011e-12 </wgt>
<wgt id='1014'> +1.8609969e-12 </wgt>
<wgt id='1015'> +1.7618614e-12 </wgt>
<wgt id='1016'> +1.6904019e-12 </wgt>
<wgt id='1017'> +1.7597588e-12 </wgt>
<wgt id='1018'> +1.7567981e-12 </wgt>
<wgt id='1019'> +1.8193011e-12 </wgt>
<wgt id='1020'> +1.6904019e-12 </wgt>
<wgt id='1021'> +1.5182478e-12 </wgt>
<wgt id='1022'> +1.5595892e-12 </wgt>
<wgt id='1023'> +1.5580064e-12 </wgt>
<wgt id='1024'> +1.5851508e-12 </wgt>
<wgt id='1025'> +1.5182478e-12 </wgt>
<wgt id='1026'> +1.9082807e-12 </wgt>
<wgt id='1027'> +2.0214991e-12 </wgt>
<wgt id='1028'> +2.0163033e-12 </wgt>
<wgt id='1029'> +2.1387831e-12 </wgt>
<wgt id='1030'> +1.9082807e-12 </wgt>
<wgt id='1031'> +1.4050905e-12 </wgt>
<wgt id='1032'> +1.3771642e-12 </wgt>
<wgt id='1033'> +1.3792706e-12 </wgt>
<wgt id='1034'> +1.3017253e-12 </wgt>
<wgt id='1035'> +1.4050905e-12 </wgt>
<wgt id='1036'> +1.2619931e-12 </wgt>
<wgt id='1037'> +1.2205141e-12 </wgt>
<wgt id='1038'> +1.2231983e-12 </wgt>
<wgt id='1039'> +1.1341888e-12 </wgt>
<wgt id='1040'> +1.2619931e-12 </wgt>
<wgt id='1041'> +1.5861951e-12 </wgt>
<wgt id='1042'> +1.5819988e-12 </wgt>
<wgt id='1043'> +1.5830093e-12 </wgt>
<wgt id='1044'> +1.5303174e-12 </wgt>
<wgt id='1045'> +1.5861951e-12 </wgt>
<wgt id='1046'> +1.5607000e-12 </wgt>
<wgt id='1047'> +1.6093091e-12 </wgt>
<wgt id='1048'> +1.5508532e-12 </wgt>
<wgt id='1049'> +1.5341066e-12 </wgt>
<wgt id='1050'> +1.5518415e-12 </wgt>
<wgt id='1051'> +1.5360790e-12 </wgt>
<wgt id='1052'> +1.6121314e-12 </wgt>
<wgt id='1053'> +1.5543905e-12 </wgt>
<wgt id='1054'> +1.5318962e-12 </wgt>
<wgt id='1055'> +1.5345631e-12 </wgt>
<wgt id='1056'> +1.5494991e-12 </wgt>
<wgt id='1057'> +1.5870540e-12 </wgt>
<wgt id='1058'> +1.5031451e-12 </wgt>
<wgt id='1059'> +1.5460575e-12 </wgt>
<wgt id='1060'> +1.5618713e-12 </wgt>
<wgt id='1061'> +1.5903233e-12 </wgt>
<wgt id='1062'> +1.5793692e-12 </wgt>
<wgt id='1063'> +1.5823684e-12 </wgt>
<wgt id='1064'> +1.5285650e-12 </wgt>
<wgt id='1065'> +1.5717042e-12 </wgt>
<wgt id='1066'> +1.5376765e-12 </wgt>
<wgt id='1067'> +1.5208070e-12 </wgt>
<wgt id='1068'> +1.5836071e-12 </wgt>
<wgt id='1069'> +1.5666825e-12 </wgt>
<wgt id='1070'> +1.5160893e-12 </wgt>
<wgt id='1071'> +1.5401426e-12 </wgt>
<wgt id='1072'> +1.6104486e-12 </wgt>
<wgt id='1073'> +1.5811677e-12 </wgt>
<wgt id='1074'> +1.5351308e-12 </wgt>
<wgt id='1075'> +1.5780629e-12 </wgt>
<wgt id='1076'> +1.5891343e-12 </wgt>
<wgt id='1077'> +1.5914285e-12 </wgt>
<wgt id='1078'> +1.5416163e-12 </wgt>
<wgt id='1079'> +1.5766345e-12 </wgt>
<wgt id='1080'> +1.5139948e-12 </wgt>
<wgt id='1081'> +1.5998701e-12 </wgt>
<wgt id='1082'> +1.5691536e-12 </wgt>
<wgt id='1083'> +1.5618735e-12 </wgt>
<wgt id='1084'> +1.5636826e-12 </wgt>
<wgt id='1085'> +1.5543172e-12 </wgt>
<wgt id='1086'> +1.5937187e-12 </wgt>
<wgt id='1087'> +1.5884433e-12 </wgt>
<wgt id='1088'> +1.5483267e-12 </wgt>
<wgt id='1089'> +1.5688471e-12 </wgt>
<wgt id='1090'> +1.5684738e-12 </wgt>
<wgt id='1091'> +1.5846403e-12 </wgt>
<wgt id='1092'> +1.5946420e-12 </wgt>
<wgt id='1093'> +1.5561447e-12 </wgt>
<wgt id='1094'> +1.5467298e-12 </wgt>
<wgt id='1095'> +1.5903068e-12 </wgt>
<wgt id='1096'> +1.5610143e-12 </wgt>
<wgt id='1097'> +1.5193281e-12 </wgt>
<wgt id='1098'> +1.5381540e-12 </wgt>
<wgt id='1099'> +1.5677203e-12 </wgt>
<wgt id='1100'> +1.5372990e-12 </wgt>
<wgt id='1101'> +1.5814795e-12 </wgt>
<wgt id='1102'> +1.5380237e-12 </wgt>
<wgt id='1103'> +1.5564594e-12 </wgt>
<wgt id='1104'> +1.5439045e-12 </wgt>
<wgt id='1105'> +1.6085098e-12 </wgt>
<wgt id='1106'> +1.5962818e-12 </wgt>
<wgt id='1107'> +1.5653651e-12 </wgt>
<wgt id='1108'> +1.5378635e-12 </wgt>
<wgt id='1109'> +1.5617742e-12 </wgt>
<wgt id='1110'> +1.5285819e-12 </wgt>
<wgt id='1111'> +1.5825973e-12 </wgt>
<wgt id='1112'> +1.6190150e-12 </wgt>
<wgt id='1113'> +1.5449559e-12 </wgt>
<wgt id='1114'> +1.6018537e-12 </wgt>
<wgt id='1115'> +1.5641327e-12 </wgt>
<wgt id='1116'> +1.5197923e-12 </wgt>
<wgt id='1117'> +1.5615828e-12 </wgt>
<wgt id='1118'> +1.5704580e-12 </wgt>
<wgt id='1119'> +1.5282389e-12 </wgt>
<wgt id='1120'> +1.5557426e-12 </wgt>
<wgt id='1121'> +1.5644053e-12 </wgt>
<wgt id='1122'> +1.6353099e-12 </wgt>
<wgt id='1123'> +1.5225755e-12 </wgt>
<wgt id='1124'> +1.5634928e-12 </wgt>
<wgt id='1125'> +1.5753250e-12 </wgt>
<wgt id='1126'> +1.5709423e-12 </wgt>
<wgt id='1127'> +1.5274877e-12 </wgt>
<wgt id='1128'> +1.5793692e-12 </wgt>
<wgt id='1129'> +1.5782415e-12 </wgt>
<wgt id='1130'> +1.5453866e-12 </wgt>
<wgt id='1131'> +1.5670324e-12 </wgt>
<wgt id='1132'> +1.5404105e-12 </wgt>
<wgt id='1133'> +1.5022356e-12 </wgt>
<wgt id='1134'> +1.5743760e-12 </wgt>
<wgt id='1135'> +1.5636375e-12 </wgt>
<wgt id='1136'> +1.5280571e-12 </wgt>
<wgt id='1137'> +1.5362111e-12 </wgt>
<wgt id='1138'> +1.5539010e-12 </wgt>
<wgt id='1139'> +1.5580484e-12 </wgt>
<wgt id='1140'> +1.5392275e-12 </wgt>
<wgt id='1141'> +1.5138975e-12 </wgt>
<wgt id='1142'> +1.5799461e-12 </wgt>
<wgt id='1143'> +1.5776103e-12 </wgt>
<wgt id='1144'> +1.5706133e-12 </wgt>
<wgt id='1145'> +1.5669757e-12 </wgt>
<wgt id='1146'> +1.5548578e-12 </wgt>
<wgt id='1147'> +1.2572446e-12 </wgt>
<wgt id='1148'> +1.2788101e-12 </wgt>
<wgt id='1149'> +1.3215059e-12 </wgt>
<wgt id='1150'> +1.2858384e-12 </wgt>
<wgt id='1151'> +1.1619450e-12 </wgt>
<wgt id='1152'> +1.4445264e-12 </wgt>
<wgt id='1153'> +1.4377944e-12 </wgt>
<wgt id='1154'> +1.4484199e-12 </wgt>
<wgt id='1155'> +1.4435794e-12 </wgt>
<wgt id='1156'> +1.4450109e-12 </wgt>
<wgt id='1157'> +1.4476601e-12 </wgt>
<wgt id='1158'> +1.4402475e-12 </wgt>
<wgt id='1159'> +1.4471452e-12 </wgt>
<wgt id='1160'> +1.4428292e-12 </wgt>
<wgt id='1161'> +1.4419946e-12 </wgt>
<wgt id='1162'> +1.4462442e-12 </wgt>
<wgt id='1163'> +1.4484345e-12 </wgt>
<wgt id='1164'> +1.4406242e-12 </wgt>
<wgt id='1165'> +1.4386038e-12 </wgt>
<wgt id='1166'> +1.4501772e-12 </wgt>
<wgt id='1167'> +1.4459868e-12 </wgt>
<wgt id='1168'> +1.4405554e-12 </wgt>
<wgt id='1169'> +1.4451130e-12 </wgt>
<wgt id='1170'> +1.4439988e-12 </wgt>
<wgt id='1171'> +1.4409227e-12 </wgt>
<wgt id='1172'> +1.4486830e-12 </wgt>
<wgt id='1173'> +1.4371669e-12 </wgt>
<wgt id='1174'> +1.4509365e-12 </wgt>
<wgt id='1175'> +1.4420518e-12 </wgt>
<wgt id='1176'> +1.4455957e-12 </wgt>
<wgt id='1177'> +1.4452012e-12 </wgt>
<wgt id='1178'> +1.4426687e-12 </wgt>
<wgt id='1179'> +1.4547874e-12 </wgt>
<wgt id='1180'> +1.4286800e-12 </wgt>
<wgt id='1181'> +1.4384221e-12 </wgt>
<wgt id='1182'> +1.4501449e-12 </wgt>
<wgt id='1183'> +1.4430552e-12 </wgt>
<wgt id='1184'> +1.4446465e-12 </wgt>
<wgt id='1185'> +1.4383805e-12 </wgt>
<wgt id='1186'> +1.4480092e-12 </wgt>
<wgt id='1187'> +1.4438599e-12 </wgt>
<wgt id='1188'> +1.4447554e-12 </wgt>
<wgt id='1189'> +1.4425240e-12 </wgt>
<wgt id='1190'> +1.4352563e-12 </wgt>
<wgt id='1191'> +1.4357939e-12 </wgt>
<wgt id='1192'> +1.4460157e-12 </wgt>
<wgt id='1193'> +1.3187520e-12 </wgt>
<wgt id='1194'> +1.3206891e-12 </wgt>
<wgt id='1195'> +1.3171583e-12 </wgt>
<wgt id='1196'> +1.3253855e-12 </wgt>
<wgt id='1197'> +1.3113870e-12 </wgt>
<wgt id='1198'> +1.3183768e-12 </wgt>
<wgt id='1199'> +1.3193327e-12 </wgt>
<wgt id='1200'> +1.3203568e-12 </wgt>
<wgt id='1201'> +1.3177089e-12 </wgt>
<wgt id='1202'> +1.3175170e-12 </wgt>
<wgt id='1203'> +1.3205662e-12 </wgt>
<wgt id='1204'> +1.3111211e-12 </wgt>
<wgt id='1205'> +1.3235003e-12 </wgt>
<wgt id='1206'> +1.3226209e-12 </wgt>
<wgt id='1207'> +1.3135009e-12 </wgt>
<wgt id='1208'> +1.3115813e-12 </wgt>
<wgt id='1209'> +1.3213746e-12 </wgt>
<wgt id='1210'> +1.3272333e-12 </wgt>
<wgt id='1211'> +1.3031283e-12 </wgt>
<wgt id='1212'> +1.3182062e-12 </wgt>
<wgt id='1213'> +1.3192137e-12 </wgt>
<wgt id='1214'> +1.3053500e-12 </wgt>
<wgt id='1215'> +1.3414883e-12 </wgt>
<wgt id='1216'> +1.3250490e-12 </wgt>
<wgt id='1217'> +1.3143111e-12 </wgt>
<wgt id='1218'> +1.3219003e-12 </wgt>
<wgt id='1219'> +1.3170697e-12 </wgt>
<wgt id='1220'> +1.3217841e-12 </wgt>
<wgt id='1221'> +1.3180726e-12 </wgt>
<wgt id='1222'> +1.3150804e-12 </wgt>
<wgt id='1223'> +1.3230043e-12 </wgt>
<wgt id='1224'> +1.3201301e-12 </wgt>
<wgt id='1225'> +1.3182413e-12 </wgt>
<wgt id='1226'> +1.3163402e-12 </wgt>
<wgt id='1227'> +1.3204298e-12 </wgt>
<wgt id='1228'> +1.3175186e-12 </wgt>
<wgt id='1229'> +1.3189668e-12 </wgt>
<wgt id='1230'> +1.3133312e-12 </wgt>
<wgt id='1231'> +1.3095899e-12 </wgt>
<wgt id='1232'> +1.3187229e-12 </wgt>
<wgt id='1233'> +1.3187438e-12 </wgt>
<wgt id='1234'> +1.3187520e-12 </wgt>
<wgt id='1235'> +1.3112979e-12 </wgt>
<wgt id='1236'> +1.3141394e-12 </wgt>
<wgt id='1237'> +1.3166638e-12 </wgt>
<wgt id='1238'> +1.3209996e-12 </wgt>
<wgt id='1239'> +1.3227993e-12 </wgt>
<wgt id='1240'> +1.3244786e-12 </wgt>
<wgt id='1241'> +1.3145149e-12 </wgt>
<wgt id='1242'> +1.3133259e-12 </wgt>
<wgt id='1243'> +1.3157235e-12 </wgt>
<wgt id='1244'> +1.3066091e-12 </wgt>
<wgt id='1245'> +1.3203883e-12 </wgt>
<wgt id='1246'> +1.3148564e-12 </wgt>
<wgt id='1247'> +1.3142555e-12 </wgt>
<wgt id='1248'> +1.3144353e-12 </wgt>
<wgt id='1249'> +1.3146051e-12 </wgt>
<wgt id='1250'> +1.3169687e-12 </wgt>
<wgt id='1251'> +1.3128003e-12 </wgt>
<wgt id='1252'> +1.3115705e-12 </wgt>
<wgt id='1253'> +1.3168365e-12 </wgt>
<wgt id='1254'> +1.3057029e-12 </wgt>
<wgt id='1255'> +1.3198411e-12 </wgt>
<wgt id='1256'> +1.3184027e-12 </wgt>
<wgt id='1257'> +1.3048217e-12 </wgt>
<wgt id='1258'> +1.3341250e-12 </wgt>
<wgt id='1259'> +1.2972192e-12 </wgt>
<wgt id='1260'> +1.3178532e-12 </wgt>
<wgt id='1261'> +1.3107376e-12 </wgt>
<wgt id='1262'> +1.3144858e-12 </wgt>
<wgt id='1263'> +1.3142668e-12 </wgt>
<wgt id='1264'> +1.3164066e-12 </wgt>
<wgt id='1265'> +1.3134514e-12 </wgt>
<wgt id='1266'> +1.3118903e-12 </wgt>
<wgt id='1267'> +1.3166474e-12 </wgt>
<wgt id='1268'> +1.3143497e-12 </wgt>
<wgt id='1269'> +1.3177415e-12 </wgt>
<wgt id='1270'> +1.3093574e-12 </wgt>
<wgt id='1271'> +1.3077854e-12 </wgt>
<wgt id='1272'> +1.3145428e-12 </wgt>
<wgt id='1273'> +1.3138913e-12 </wgt>
<wgt id='1274'> +1.3167284e-12 </wgt>
<wgt id='1275'> +1.3101587e-12 </wgt>
<wgt id='1276'> +1.3136411e-12 </wgt>
<wgt id='1277'> +1.3143868e-12 </wgt>
<wgt id='1278'> +1.3122554e-12 </wgt>
<wgt id='1279'> +1.3071405e-12 </wgt>
<wgt id='1280'> +1.3146432e-12 </wgt>
<wgt id='1281'> +1.3123909e-12 </wgt>
<wgt id='1282'> +1.3145149e-12 </wgt>
<wgt id='1283'> +1.3063185e-12 </wgt>
<wgt id='1284'> +1.3094048e-12 </wgt>
<wgt id='1285'> +1.3121690e-12 </wgt>
<wgt id='1286'> +1.3167287e-12 </wgt>
<wgt id='1287'> +1.3186141e-12 </wgt>
<wgt id='1288'> +1.3202016e-12 </wgt>
<wgt id='1289'> +1.3418658e-12 </wgt>
<wgt id='1290'> +1.3411354e-12 </wgt>
<wgt id='1291'> +1.3426310e-12 </wgt>
<wgt id='1292'> +1.3360844e-12 </wgt>
<wgt id='1293'> +1.3459924e-12 </wgt>
<wgt id='1294'> +1.3418475e-12 </wgt>
<wgt id='1295'> +1.3418960e-12 </wgt>
<wgt id='1296'> +1.3375705e-12 </wgt>
<wgt id='1297'> +1.3471094e-12 </wgt>
<wgt id='1298'> +1.3440582e-12 </wgt>
<wgt id='1299'> +1.3390414e-12 </wgt>
<wgt id='1300'> +1.3438012e-12 </wgt>
<wgt id='1301'> +1.3379356e-12 </wgt>
<wgt id='1302'> +1.3404301e-12 </wgt>
<wgt id='1303'> +1.3438356e-12 </wgt>
<wgt id='1304'> +1.3397491e-12 </wgt>
<wgt id='1305'> +1.3432812e-12 </wgt>
<wgt id='1306'> +1.3400075e-12 </wgt>
<wgt id='1307'> +1.3440554e-12 </wgt>
<wgt id='1308'> +1.3459852e-12 </wgt>
<wgt id='1309'> +1.3387065e-12 </wgt>
<wgt id='1310'> +1.3428813e-12 </wgt>
<wgt id='1311'> +1.3408589e-12 </wgt>
<wgt id='1312'> +1.3429978e-12 </wgt>
<wgt id='1313'> +1.3409205e-12 </wgt>
<wgt id='1314'> +1.3493835e-12 </wgt>
<wgt id='1315'> +1.3303903e-12 </wgt>
<wgt id='1316'> +1.3470075e-12 </wgt>
<wgt id='1317'> +1.3413204e-12 </wgt>
<wgt id='1318'> +1.3514325e-12 </wgt>
<wgt id='1319'> +1.3306494e-12 </wgt>
<wgt id='1320'> +1.3521608e-12 </wgt>
<wgt id='1321'> +1.3335132e-12 </wgt>
<wgt id='1322'> +1.3409347e-12 </wgt>
<wgt id='1323'> +1.3427049e-12 </wgt>
<wgt id='1324'> +1.3407397e-12 </wgt>
<wgt id='1325'> +1.3470986e-12 </wgt>
<wgt id='1326'> +1.3405624e-12 </wgt>
<wgt id='1327'> +1.3442827e-12 </wgt>
<wgt id='1328'> +1.3420149e-12 </wgt>
<wgt id='1329'> +1.3415760e-12 </wgt>
<wgt id='1330'> +1.3220878e-12 </wgt>
<wgt id='1331'> +1.3580364e-12 </wgt>
<wgt id='1332'> +1.3616064e-12 </wgt>
<wgt id='1333'> +1.3263424e-12 </wgt>
<wgt id='1334'> +1.3363252e-12 </wgt>
<wgt id='1335'> +1.3559564e-12 </wgt>
<wgt id='1336'> +1.3385443e-12 </wgt>
<wgt id='1337'> +1.3339149e-12 </wgt>
<wgt id='1338'> +1.3392894e-12 </wgt>
<wgt id='1339'> +1.3421703e-12 </wgt>
<wgt id='1340'> +1.3243079e-12 </wgt>
<wgt id='1341'> +1.3238028e-12 </wgt>
<wgt id='1342'> +1.3248442e-12 </wgt>
<wgt id='1343'> +1.3183670e-12 </wgt>
<wgt id='1344'> +1.3282989e-12 </wgt>
<wgt id='1345'> +1.3244917e-12 </wgt>
<wgt id='1346'> +1.3241736e-12 </wgt>
<wgt id='1347'> +1.3199846e-12 </wgt>
<wgt id='1348'> +1.3290919e-12 </wgt>
<wgt id='1349'> +1.3261803e-12 </wgt>
<wgt id='1350'> +1.3224187e-12 </wgt>
<wgt id='1351'> +1.3261835e-12 </wgt>
<wgt id='1352'> +1.3201770e-12 </wgt>
<wgt id='1353'> +1.3223952e-12 </wgt>
<wgt id='1354'> +1.3276911e-12 </wgt>
<wgt id='1355'> +1.3224055e-12 </wgt>
<wgt id='1356'> +1.3253560e-12 </wgt>
<wgt id='1357'> +1.3234469e-12 </wgt>
<wgt id='1358'> +1.3254583e-12 </wgt>
<wgt id='1359'> +1.3292157e-12 </wgt>
<wgt id='1360'> +1.3200668e-12 </wgt>
<wgt id='1361'> +1.3249297e-12 </wgt>
<wgt id='1362'> +1.3235898e-12 </wgt>
<wgt id='1363'> +1.3246943e-12 </wgt>
<wgt id='1364'> +1.3243516e-12 </wgt>
<wgt id='1365'> +1.3119555e-12 </wgt>
<wgt id='1366'> +1.3340550e-12 </wgt>
<wgt id='1367'> +1.3289999e-12 </wgt>
<wgt id='1368'> +1.3237725e-12 </wgt>
<wgt id='1369'> +1.3322270e-12 </wgt>
<wgt id='1370'> +1.3149269e-12 </wgt>
<wgt id='1371'> +1.3315936e-12 </wgt>
<wgt id='1372'> +1.3156070e-12 </wgt>
<wgt id='1373'> +1.3217444e-12 </wgt>
<wgt id='1374'> +1.3262185e-12 </wgt>
<wgt id='1375'> +1.3233437e-12 </wgt>
<wgt id='1376'> +1.3293952e-12 </wgt>
<wgt id='1377'> +1.3233835e-12 </wgt>
<wgt id='1378'> +1.3267124e-12 </wgt>
<wgt id='1379'> +1.3240798e-12 </wgt>
<wgt id='1380'> +1.3244208e-12 </wgt>
<wgt id='1381'> +1.3042769e-12 </wgt>
<wgt id='1382'> +1.3388129e-12 </wgt>
<wgt id='1383'> +1.3453424e-12 </wgt>
<wgt id='1384'> +1.3071523e-12 </wgt>
<wgt id='1385'> +1.3188331e-12 </wgt>
<wgt id='1386'> +1.3374923e-12 </wgt>
<wgt id='1387'> +1.3203417e-12 </wgt>
<wgt id='1388'> +1.3149635e-12 </wgt>
<wgt id='1389'> +1.3199451e-12 </wgt>
<wgt id='1390'> +1.3247977e-12 </wgt>
<wgt id='1391'> +1.2823970e-12 </wgt>
<wgt id='1392'> +1.2585810e-12 </wgt>
<wgt id='1393'> +1.2667434e-12 </wgt>
<wgt id='1394'> +1.2748396e-12 </wgt>
<wgt id='1395'> +1.2899562e-12 </wgt>
<wgt id='1396'> +1.2829702e-12 </wgt>
<wgt id='1397'> +1.2511541e-12 </wgt>
<wgt id='1398'> +1.2582004e-12 </wgt>
<wgt id='1399'> +1.2643103e-12 </wgt>
<wgt id='1400'> +1.2702399e-12 </wgt>
<wgt id='1401'> +1.2767109e-12 </wgt>
<wgt id='1402'> +1.2887095e-12 </wgt>
<wgt id='1403'> +1.2942318e-12 </wgt>
<wgt id='1404'> +1.2992326e-12 </wgt>
<wgt id='1405'> +1.2829702e-12 </wgt>
<wgt id='1406'> +1.2796290e-12 </wgt>
<wgt id='1407'> +1.2815583e-12 </wgt>
<wgt id='1408'> +1.2843834e-12 </wgt>
<wgt id='1409'> +1.2859514e-12 </wgt>
<wgt id='1410'> +1.2943618e-12 </wgt>
<wgt id='1411'> +1.2928271e-12 </wgt>
<wgt id='1412'> +1.2963080e-12 </wgt>
<wgt id='1413'> +1.2989209e-12 </wgt>
<wgt id='1414'> +1.2898134e-12 </wgt>
<wgt id='1415'> +1.2875174e-12 </wgt>
<wgt id='1416'> +1.2971197e-12 </wgt>
<wgt id='1417'> +1.2885159e-12 </wgt>
<wgt id='1418'> +1.3001390e-12 </wgt>
<wgt id='1419'> +1.2949766e-12 </wgt>
<wgt id='1420'> +1.2937514e-12 </wgt>
<wgt id='1421'> +1.2870665e-12 </wgt>
<wgt id='1422'> +1.2975157e-12 </wgt>
<wgt id='1423'> +1.2940792e-12 </wgt>
<wgt id='1424'> +1.2947225e-12 </wgt>
<wgt id='1425'> +1.2910135e-12 </wgt>
<wgt id='1426'> +1.2979532e-12 </wgt>
<wgt id='1427'> +1.2985660e-12 </wgt>
<wgt id='1428'> +1.2919035e-12 </wgt>
<wgt id='1429'> +1.2912904e-12 </wgt>
<wgt id='1430'> +1.2984961e-12 </wgt>
<wgt id='1431'> +1.2949934e-12 </wgt>
<wgt id='1432'> +1.2938852e-12 </wgt>
<wgt id='1433'> +1.3000982e-12 </wgt>
<wgt id='1434'> +1.2885770e-12 </wgt>
<wgt id='1435'> +1.2960002e-12 </wgt>
<wgt id='1436'> +1.2903307e-12 </wgt>
<wgt id='1437'> +1.2992389e-12 </wgt>
<wgt id='1438'> +1.2928048e-12 </wgt>
<wgt id='1439'> +1.2879091e-12 </wgt>
<wgt id='1440'> +1.3109855e-12 </wgt>
<wgt id='1441'> +1.2973131e-12 </wgt>
<wgt id='1442'> +1.2887748e-12 </wgt>
<wgt id='1443'> +1.2926405e-12 </wgt>
<wgt id='1444'> +1.2981101e-12 </wgt>
<wgt id='1445'> +1.3016284e-12 </wgt>
<wgt id='1446'> +1.2917599e-12 </wgt>
<wgt id='1447'> +1.2951539e-12 </wgt>
<wgt id='1448'> +1.2943567e-12 </wgt>
<wgt id='1449'> +1.2947099e-12 </wgt>
<wgt id='1450'> +1.2939544e-12 </wgt>
<wgt id='1451'> +1.3029961e-12 </wgt>
<wgt id='1452'> +1.2713469e-12 </wgt>
<wgt id='1453'> +1.2967170e-12 </wgt>
<wgt id='1454'> +1.2785313e-12 </wgt>
<wgt id='1455'> +1.2784827e-12 </wgt>
<wgt id='1456'> +1.3002696e-12 </wgt>
<wgt id='1457'> +1.3026347e-12 </wgt>
<wgt id='1458'> +1.2901761e-12 </wgt>
<wgt id='1459'> +1.2952914e-12 </wgt>
<wgt id='1460'> +1.2882194e-12 </wgt>
<wgt id='1461'> +1.2943618e-12 </wgt>
<wgt id='1462'> +1.2881317e-12 </wgt>
<wgt id='1463'> +1.3030285e-12 </wgt>
<wgt id='1464'> +1.2954746e-12 </wgt>
<wgt id='1465'> +1.2700235e-12 </wgt>
<wgt id='1466'> +1.2759814e-12 </wgt>
<wgt id='1467'> +1.2818374e-12 </wgt>
<wgt id='1468'> +1.2853739e-12 </wgt>
<wgt id='1469'> +1.2909479e-12 </wgt>
<wgt id='1470'> +1.3003454e-12 </wgt>
<wgt id='1471'> +1.3032994e-12 </wgt>
<wgt id='1472'> +1.3077775e-12 </wgt>
<wgt id='1473'> +1.2954746e-12 </wgt>
<wgt id='1474'> +1.2917126e-12 </wgt>
<wgt id='1475'> +1.2927105e-12 </wgt>
<wgt id='1476'> +1.2971496e-12 </wgt>
<wgt id='1477'> +1.2987916e-12 </wgt>
<wgt id='1478'> +1.2709672e-12 </wgt>
<wgt id='1479'> +1.2694484e-12 </wgt>
<wgt id='1480'> +1.2754794e-12 </wgt>
<wgt id='1481'> +1.2646239e-12 </wgt>
<wgt id='1482'> +1.2697625e-12 </wgt>
<wgt id='1483'> +1.2528642e-12 </wgt>
<wgt id='1484'> +1.2685830e-12 </wgt>
<wgt id='1485'> +1.2724178e-12 </wgt>
<wgt id='1486'> +1.2718404e-12 </wgt>
<wgt id='1487'> +1.2724548e-12 </wgt>
<wgt id='1488'> +1.2677098e-12 </wgt>
<wgt id='1489'> +1.2910140e-12 </wgt>
<wgt id='1490'> +1.2685964e-12 </wgt>
<wgt id='1491'> +1.2706699e-12 </wgt>
<wgt id='1492'> +1.2716892e-12 </wgt>
<wgt id='1493'> +1.2632397e-12 </wgt>
<wgt id='1494'> +1.2834392e-12 </wgt>
<wgt id='1495'> +1.2660439e-12 </wgt>
<wgt id='1496'> +1.2702000e-12 </wgt>
<wgt id='1497'> +1.2708374e-12 </wgt>
<wgt id='1498'> +1.2694013e-12 </wgt>
<wgt id='1499'> +1.2723187e-12 </wgt>
<wgt id='1500'> +1.2717966e-12 </wgt>
<wgt id='1501'> +1.2700496e-12 </wgt>
<wgt id='1502'> +1.2711321e-12 </wgt>
<wgt id='1503'> +1.2697662e-12 </wgt>
<wgt id='1504'> +1.2662066e-12 </wgt>
<wgt id='1505'> +1.2700052e-12 </wgt>
<wgt id='1506'> +1.2706943e-12 </wgt>
<wgt id='1507'> +1.2691289e-12 </wgt>
<wgt id='1508'> +1.2766172e-12 </wgt>
<wgt id='1509'> +1.3522949e-12 </wgt>
<wgt id='1510'> +1.3517697e-12 </wgt>
<wgt id='1511'> +1.3566438e-12 </wgt>
<wgt id='1512'> +1.3551663e-12 </wgt>
<wgt id='1513'> +1.3581965e-12 </wgt>
<wgt id='1514'> +1.3504922e-12 </wgt>
<wgt id='1515'> +1.3478545e-12 </wgt>
<wgt id='1516'> +1.3489305e-12 </wgt>
<wgt id='1517'> +1.3491975e-12 </wgt>
<wgt id='1518'> +1.3585868e-12 </wgt>
<wgt id='1519'> +1.3472478e-12 </wgt>
<wgt id='1520'> +1.3531110e-12 </wgt>
<wgt id='1521'> +1.3611888e-12 </wgt>
<wgt id='1522'> +1.3580009e-12 </wgt>
<wgt id='1523'> +1.3645586e-12 </wgt>
<wgt id='1524'> +1.3565411e-12 </wgt>
<wgt id='1525'> +1.3569438e-12 </wgt>
<wgt id='1526'> +1.3490974e-12 </wgt>
<wgt id='1527'> +1.3524473e-12 </wgt>
<wgt id='1528'> +1.3539680e-12 </wgt>
<wgt id='1529'> +1.3555843e-12 </wgt>
<wgt id='1530'> +1.3576206e-12 </wgt>
<wgt id='1531'> +1.3543347e-12 </wgt>
<wgt id='1532'> +1.3477064e-12 </wgt>
<wgt id='1533'> +1.3503146e-12 </wgt>
<wgt id='1534'> +1.3552265e-12 </wgt>
<wgt id='1535'> +1.3452555e-12 </wgt>
<wgt id='1536'> +1.3514932e-12 </wgt>
<wgt id='1537'> +1.3540547e-12 </wgt>
<wgt id='1538'> +1.3491548e-12 </wgt>
<wgt id='1539'> +1.3444971e-12 </wgt>
<wgt id='1540'> +1.3547414e-12 </wgt>
<wgt id='1541'> +1.3533010e-12 </wgt>
<wgt id='1542'> +1.3555100e-12 </wgt>
<wgt id='1543'> +1.3527985e-12 </wgt>
<wgt id='1544'> +1.3480496e-12 </wgt>
<wgt id='1545'> +1.3531680e-12 </wgt>
<wgt id='1546'> +1.3534193e-12 </wgt>
<wgt id='1547'> +1.3525746e-12 </wgt>
<wgt id='1548'> +1.3509188e-12 </wgt>
<wgt id='1549'> +1.3508611e-12 </wgt>
<wgt id='1550'> +1.3550655e-12 </wgt>
<wgt id='1551'> +1.3493133e-12 </wgt>
<wgt id='1552'> +1.3519216e-12 </wgt>
<wgt id='1553'> +1.3524567e-12 </wgt>
<wgt id='1554'> +1.3565442e-12 </wgt>
<wgt id='1555'> +1.3559250e-12 </wgt>
<wgt id='1556'> +1.3523523e-12 </wgt>
<wgt id='1557'> +1.3537168e-12 </wgt>
<wgt id='1558'> +1.3495583e-12 </wgt>
<wgt id='1559'> +1.3503615e-12 </wgt>
<wgt id='1560'> +1.3531939e-12 </wgt>
<wgt id='1561'> +1.3502993e-12 </wgt>
<wgt id='1562'> +1.3522380e-12 </wgt>
<wgt id='1563'> +1.3520286e-12 </wgt>
<wgt id='1564'> +1.3515862e-12 </wgt>
<wgt id='1565'> +1.3527264e-12 </wgt>
<wgt id='1566'> +1.3528258e-12 </wgt>
<wgt id='1567'> +1.3528112e-12 </wgt>
<wgt id='1568'> +1.3502819e-12 </wgt>
<wgt id='1569'> +1.3530356e-12 </wgt>
<wgt id='1570'> +1.3509698e-12 </wgt>
<wgt id='1571'> +1.3526798e-12 </wgt>
<wgt id='1572'> +1.3519044e-12 </wgt>
<wgt id='1573'> +1.3536376e-12 </wgt>
<wgt id='1574'> +1.3518730e-12 </wgt>
<wgt id='1575'> +1.3518107e-12 </wgt>
<wgt id='1576'> +1.3524286e-12 </wgt>
<wgt id='1577'> +1.3533353e-12 </wgt>
<wgt id='1578'> +1.3525029e-12 </wgt>
<wgt id='1579'> +1.3519734e-12 </wgt>
<wgt id='1580'> +1.3522820e-12 </wgt>
<wgt id='1581'> +1.3523959e-12 </wgt>
<wgt id='1582'> +1.3525605e-12 </wgt>
<wgt id='1583'> +1.3522135e-12 </wgt>
<wgt id='1584'> +1.3513197e-12 </wgt>
<wgt id='1585'> +1.3523658e-12 </wgt>
<wgt id='1586'> +1.3518771e-12 </wgt>
<wgt id='1587'> +1.3522287e-12 </wgt>
<wgt id='1588'> +1.3525441e-12 </wgt>
<wgt id='1589'> +1.3517034e-12 </wgt>
<wgt id='1590'> +1.3519272e-12 </wgt>
<wgt id='1591'> +1.3519419e-12 </wgt>
<wgt id='1592'> +1.3512826e-12 </wgt>
<wgt id='1593'> +1.3523789e-12 </wgt>
<wgt id='1594'> +1.3528306e-12 </wgt>
<wgt id='1595'> +1.3529357e-12 </wgt>
<wgt id='1596'> +1.3525503e-12 </wgt>
<wgt id='1597'> +1.3528357e-12 </wgt>
<wgt id='1598'> +1.3526085e-12 </wgt>
<wgt id='1599'> +1.3523013e-12 </wgt>
<wgt id='1600'> +1.3537121e-12 </wgt>
<wgt id='1601'> +1.3523348e-12 </wgt>
<wgt id='1602'> +1.3521080e-12 </wgt>
<wgt id='1603'> +1.3519249e-12 </wgt>
<wgt id='1604'> +1.3527718e-12 </wgt>
<wgt id='1605'> +1.3520019e-12 </wgt>
<wgt id='1606'> +1.3528969e-12 </wgt>
<wgt id='1607'> +1.3526025e-12 </wgt>
<wgt id='1608'> +1.3522555e-12 </wgt>
<wgt id='1609'> +1.3521300e-12 </wgt>
<wgt id='1610'> +1.3397606e-12 </wgt>
<wgt id='1611'> +1.3648807e-12 </wgt>
<wgt id='1612'> +1.5244419e-12 </wgt>
<wgt id='1613'> +1.5117202e-12 </wgt>
<wgt id='1614'> +1.5354097e-12 </wgt>
<wgt id='1615'> +1.4916449e-12 </wgt>
<wgt id='1616'> +1.5761725e-12 </wgt>
<wgt id='1617'> +1.5611719e-12 </wgt>
<wgt id='1618'> +1.5132400e-12 </wgt>
<wgt id='1619'> +1.5551662e-12 </wgt>
<wgt id='1620'> +1.5034608e-12 </wgt>
<wgt id='1621'> +1.5161699e-12 </wgt>
<wgt id='1622'> +1.5389865e-12 </wgt>
<wgt id='1623'> +1.5408129e-12 </wgt>
<wgt id='1624'> +1.4975296e-12 </wgt>
<wgt id='1625'> +1.5064552e-12 </wgt>
<wgt id='1626'> +1.5046021e-12 </wgt>
<wgt id='1627'> +1.4884930e-12 </wgt>
<wgt id='1628'> +1.5054747e-12 </wgt>
<wgt id='1629'> +1.6086856e-12 </wgt>
<wgt id='1630'> +1.5452387e-12 </wgt>
<wgt id='1631'> +1.4966936e-12 </wgt>
<wgt id='1632'> +1.4551472e-12 </wgt>
<wgt id='1633'> +1.4720187e-12 </wgt>
<wgt id='1634'> +1.5581334e-12 </wgt>
<wgt id='1635'> +1.5318005e-12 </wgt>
<wgt id='1636'> +1.5444810e-12 </wgt>
<wgt id='1637'> +1.4798754e-12 </wgt>
<wgt id='1638'> +1.5109486e-12 </wgt>
<wgt id='1639'> +1.5491309e-12 </wgt>
<wgt id='1640'> +1.5074661e-12 </wgt>
<wgt id='1641'> +1.5114201e-12 </wgt>
<wgt id='1642'> +1.4975498e-12 </wgt>
<wgt id='1643'> +1.5621199e-12 </wgt>
<wgt id='1644'> +1.4482151e-12 </wgt>
<wgt id='1645'> +1.5089756e-12 </wgt>
<wgt id='1646'> +1.5246691e-12 </wgt>
<wgt id='1647'> +1.5206925e-12 </wgt>
<wgt id='1648'> +1.5040538e-12 </wgt>
<wgt id='1649'> +1.5436656e-12 </wgt>
<wgt id='1650'> +1.5137921e-12 </wgt>
<wgt id='1651'> +1.4951445e-12 </wgt>
<wgt id='1652'> +1.5120257e-12 </wgt>
<wgt id='1653'> +1.5775131e-12 </wgt>
<wgt id='1654'> +1.5255315e-12 </wgt>
<wgt id='1655'> +1.4988998e-12 </wgt>
<wgt id='1656'> +1.4581816e-12 </wgt>
<wgt id='1657'> +1.5011321e-12 </wgt>
<wgt id='1658'> +1.4787439e-12 </wgt>
<wgt id='1659'> +1.4975296e-12 </wgt>
<wgt id='1660'> +1.5590078e-12 </wgt>
<wgt id='1661'> +1.5108432e-12 </wgt>
<wgt id='1662'> +1.5192655e-12 </wgt>
<wgt id='1663'> +1.5546420e-12 </wgt>
<wgt id='1664'> +1.5023053e-12 </wgt>
<wgt id='1665'> +1.4414625e-12 </wgt>
<wgt id='1666'> +1.5422538e-12 </wgt>
<wgt id='1667'> +1.5455710e-12 </wgt>
<wgt id='1668'> +1.5743605e-12 </wgt>
<wgt id='1669'> +1.4633865e-12 </wgt>
<wgt id='1670'> +1.5372311e-12 </wgt>
<wgt id='1671'> +1.5077531e-12 </wgt>
<wgt id='1672'> +1.5196452e-12 </wgt>
<wgt id='1673'> +1.5883077e-12 </wgt>
<wgt id='1674'> +1.5186182e-12 </wgt>
<wgt id='1675'> +1.5518605e-12 </wgt>
<wgt id='1676'> +1.5613667e-12 </wgt>
<wgt id='1677'> +1.5783434e-12 </wgt>
<wgt id='1678'> +1.5054592e-12 </wgt>
<wgt id='1679'> +1.5895755e-12 </wgt>
<wgt id='1680'> +1.5246122e-12 </wgt>
<wgt id='1681'> +1.5535817e-12 </wgt>
<wgt id='1682'> +1.5381691e-12 </wgt>
<wgt id='1683'> +1.5251507e-12 </wgt>
<wgt id='1684'> +1.5154095e-12 </wgt>
<wgt id='1685'> +1.5019698e-12 </wgt>
<wgt id='1686'> +1.5200359e-12 </wgt>
<wgt id='1687'> +1.5800318e-12 </wgt>
<wgt id='1688'> +1.5132025e-12 </wgt>
<wgt id='1689'> +1.5184850e-12 </wgt>
<wgt id='1690'> +1.5231664e-12 </wgt>
<wgt id='1691'> +1.5332968e-12 </wgt>
<wgt id='1692'> +1.5913075e-12 </wgt>
<wgt id='1693'> +1.5610466e-12 </wgt>
<wgt id='1694'> +1.4649731e-12 </wgt>
<wgt id='1695'> +1.5050330e-12 </wgt>
<wgt id='1696'> +1.5617195e-12 </wgt>
<wgt id='1697'> +1.5739142e-12 </wgt>
<wgt id='1698'> +1.5062305e-12 </wgt>
<wgt id='1699'> +1.5442718e-12 </wgt>
<wgt id='1700'> +1.4897838e-12 </wgt>
<wgt id='1701'> +1.5496347e-12 </wgt>
<wgt id='1702'> +1.5495013e-12 </wgt>
<wgt id='1703'> +1.5387330e-12 </wgt>
<wgt id='1704'> +1.4813671e-12 </wgt>
<wgt id='1705'> +1.4954202e-12 </wgt>
<wgt id='1706'> +1.5333682e-12 </wgt>
<wgt id='1707'> +1.5372778e-12 </wgt>
<wgt id='1708'> +1.5225093e-12 </wgt>
<wgt id='1709'> +1.5048177e-12 </wgt>
<wgt id='1710'> +1.5260872e-12 </wgt>
<wgt id='1711'> +1.5752213e-12 </wgt>
<wgt id='1712'> +1.5307001e-12 </wgt>
<wgt id='1713'> +1.2627901e-12 </wgt>
<wgt id='1714'> +1.2398708e-12 </wgt>
<wgt id='1715'> +1.2717954e-12 </wgt>
<wgt id='1716'> +1.3080852e-12 </wgt>
<wgt id='1717'> +1.2853640e-12 </wgt>
<wgt id='1718'> +1.2646327e-12 </wgt>
<wgt id='1719'> +1.2678406e-12 </wgt>
<wgt id='1720'> +1.2780570e-12 </wgt>
<wgt id='1721'> +1.2440566e-12 </wgt>
<wgt id='1722'> +1.2598216e-12 </wgt>
<wgt id='1723'> +1.1984255e-12 </wgt>
<wgt id='1724'> +1.2031256e-12 </wgt>
<wgt id='1725'> +1.2834984e-12 </wgt>
<wgt id='1726'> +1.2932859e-12 </wgt>
<wgt id='1727'> +1.2329993e-12 </wgt>
<wgt id='1728'> +1.2553931e-12 </wgt>
<wgt id='1729'> +1.2693838e-12 </wgt>
<wgt id='1730'> +1.2356659e-12 </wgt>
<wgt id='1731'> +1.2324779e-12 </wgt>
<wgt id='1732'> +1.2564042e-12 </wgt>
<wgt id='1733'> +1.2771782e-12 </wgt>
<wgt id='1734'> +1.2962014e-12 </wgt>
<wgt id='1735'> +1.2413365e-12 </wgt>
<wgt id='1736'> +1.3449192e-12 </wgt>
<wgt id='1737'> +1.2971236e-12 </wgt>
<wgt id='1738'> +1.2803303e-12 </wgt>
<wgt id='1739'> +1.2634175e-12 </wgt>
<wgt id='1740'> +1.2458970e-12 </wgt>
<wgt id='1741'> +1.2466952e-12 </wgt>
<wgt id='1742'> +1.2624878e-12 </wgt>
<wgt id='1743'> +1.2883931e-12 </wgt>
<wgt id='1744'> +1.2882870e-12 </wgt>
<wgt id='1745'> +1.2069736e-12 </wgt>
<wgt id='1746'> +1.2771045e-12 </wgt>
<wgt id='1747'> +1.2789304e-12 </wgt>
<wgt id='1748'> +1.2816827e-12 </wgt>
<wgt id='1749'> +1.2887728e-12 </wgt>
<wgt id='1750'> +1.2579904e-12 </wgt>
<wgt id='1751'> +1.1904561e-12 </wgt>
<wgt id='1752'> +1.2511683e-12 </wgt>
<wgt id='1753'> +1.2853149e-12 </wgt>
<wgt id='1754'> +1.2555180e-12 </wgt>
<wgt id='1755'> +1.2727116e-12 </wgt>
<wgt id='1756'> +1.2803064e-12 </wgt>
<wgt id='1757'> +1.2457801e-12 </wgt>
<wgt id='1758'> +1.2886371e-12 </wgt>
<wgt id='1759'> +1.2627979e-12 </wgt>
<wgt id='1760'> +1.2174773e-12 </wgt>
<wgt id='1761'> +1.2466510e-12 </wgt>
<wgt id='1762'> +1.2852713e-12 </wgt>
<wgt id='1763'> +1.2956295e-12 </wgt>
<wgt id='1764'> +1.2580240e-12 </wgt>
<wgt id='1765'> +1.2704475e-12 </wgt>
<wgt id='1766'> +1.2718271e-12 </wgt>
<wgt id='1767'> +1.2764302e-12 </wgt>
<wgt id='1768'> +1.2722595e-12 </wgt>
<wgt id='1769'> +1.2329470e-12 </wgt>
<wgt id='1770'> +1.3225204e-12 </wgt>
<wgt id='1771'> +1.2776535e-12 </wgt>
<wgt id='1772'> +1.2823604e-12 </wgt>
<wgt id='1773'> +1.2588046e-12 </wgt>
<wgt id='1774'> +1.2741999e-12 </wgt>
<wgt id='1775'> +1.2672391e-12 </wgt>
<wgt id='1776'> +1.2610177e-12 </wgt>
<wgt id='1777'> +1.1969004e-12 </wgt>
<wgt id='1778'> +1.2537605e-12 </wgt>
<wgt id='1779'> +1.2805981e-12 </wgt>
<wgt id='1780'> +1.2809478e-12 </wgt>
<wgt id='1781'> +1.2485003e-12 </wgt>
<wgt id='1782'> +1.2046012e-12 </wgt>
<wgt id='1783'> +1.2632526e-12 </wgt>
<wgt id='1784'> +1.2793485e-12 </wgt>
<wgt id='1785'> +1.2253031e-12 </wgt>
<wgt id='1786'> +1.1748348e-12 </wgt>
<wgt id='1787'> +1.3135318e-12 </wgt>
<wgt id='1788'> +1.2471366e-12 </wgt>
<wgt id='1789'> +1.2262509e-12 </wgt>
<wgt id='1790'> +1.2695342e-12 </wgt>
<wgt id='1791'> +1.2749656e-12 </wgt>
<wgt id='1792'> +1.2317531e-12 </wgt>
<wgt id='1793'> +1.2933648e-12 </wgt>
<wgt id='1794'> +1.2673521e-12 </wgt>
<wgt id='1795'> +1.2772597e-12 </wgt>
<wgt id='1796'> +1.2533373e-12 </wgt>
<wgt id='1797'> +1.2795130e-12 </wgt>
<wgt id='1798'> +1.2429829e-12 </wgt>
<wgt id='1799'> +1.2489383e-12 </wgt>
<wgt id='1800'> +1.2569120e-12 </wgt>
<wgt id='1801'> +1.2749840e-12 </wgt>
<wgt id='1802'> +1.2640290e-12 </wgt>
<wgt id='1803'> +1.2757297e-12 </wgt>
<wgt id='1804'> +1.2346618e-12 </wgt>
<wgt id='1805'> +1.2767990e-12 </wgt>
<wgt id='1806'> +1.2577212e-12 </wgt>
<wgt id='1807'> +1.2651155e-12 </wgt>
<wgt id='1808'> +1.2595636e-12 </wgt>
<wgt id='1809'> +1.2444151e-12 </wgt>
<wgt id='1810'> +1.2688607e-12 </wgt>
<wgt id='1811'> +1.3082396e-12 </wgt>
<wgt id='1812'> +1.2998518e-12 </wgt>
<wgt id='1813'> +1.2583316e-12 </wgt>
<wgt id='1814'> +1.3433611e-12 </wgt>
<wgt id='1815'> +1.4671108e-12 </wgt>
<wgt id='1816'> +1.2627901e-12 </wgt>
<wgt id='1817'> +1.2398708e-12 </wgt>
<wgt id='1818'> +1.2717954e-12 </wgt>
<wgt id='1819'> +1.3080852e-12 </wgt>
<wgt id='1820'> +1.2853640e-12 </wgt>
<wgt id='1821'> +1.2646327e-12 </wgt>
<wgt id='1822'> +1.2678406e-12 </wgt>
<wgt id='1823'> +1.2780570e-12 </wgt>
<wgt id='1824'> +1.2440566e-12 </wgt>
<wgt id='1825'> +1.2598216e-12 </wgt>
<wgt id='1826'> +1.1984255e-12 </wgt>
<wgt id='1827'> +1.2031256e-12 </wgt>
<wgt id='1828'> +1.2834984e-12 </wgt>
<wgt id='1829'> +1.2932859e-12 </wgt>
<wgt id='1830'> +1.2329993e-12 </wgt>
<wgt id='1831'> +1.2553931e-12 </wgt>
<wgt id='1832'> +1.2693838e-12 </wgt>
<wgt id='1833'> +1.2356659e-12 </wgt>
<wgt id='1834'> +1.2324779e-12 </wgt>
<wgt id='1835'> +1.2564042e-12 </wgt>
<wgt id='1836'> +1.2771782e-12 </wgt>
<wgt id='1837'> +1.2962014e-12 </wgt>
<wgt id='1838'> +1.2413365e-12 </wgt>
<wgt id='1839'> +1.3449192e-12 </wgt>
<wgt id='1840'> +1.2971236e-12 </wgt>
<wgt id='1841'> +1.2803303e-12 </wgt>
<wgt id='1842'> +1.2634175e-12 </wgt>
<wgt id='1843'> +1.2458970e-12 </wgt>
<wgt id='1844'> +1.2466952e-12 </wgt>
<wgt id='1845'> +1.2624878e-12 </wgt>
<wgt id='1846'> +1.2883931e-12 </wgt>
<wgt id='1847'> +1.2882870e-12 </wgt>
<wgt id='1848'> +1.2069736e-12 </wgt>
<wgt id='1849'> +1.2771045e-12 </wgt>
<wgt id='1850'> +1.2789304e-12 </wgt>
<wgt id='1851'> +1.2816827e-12 </wgt>
<wgt id='1852'> +1.2887728e-12 </wgt>
<wgt id='1853'> +1.2579904e-12 </wgt>
<wgt id='1854'> +1.1904561e-12 </wgt>
<wgt id='1855'> +1.2511683e-12 </wgt>
<wgt id='1856'> +1.2853149e-12 </wgt>
<wgt id='1857'> +1.2555180e-12 </wgt>
<wgt id='1858'> +1.2727116e-12 </wgt>
<wgt id='1859'> +1.2803064e-12 </wgt>
<wgt id='1860'> +1.2457801e-12 </wgt>
<wgt id='1861'> +1.2886371e-12 </wgt>
<wgt id='1862'> +1.2627979e-12 </wgt>
<wgt id='1863'> +1.2174773e-12 </wgt>
<wgt id='1864'> +1.2466510e-12 </wgt>
<wgt id='1865'> +1.2852713e-12 </wgt>
<wgt id='1866'> +1.2956295e-12 </wgt>
<wgt id='1867'> +1.2580240e-12 </wgt>
<wgt id='1868'> +1.2704475e-12 </wgt>
<wgt id='1869'> +1.2718271e-12 </wgt>
<wgt id='1870'> +1.2764302e-12 </wgt>
<wgt id='1871'> +1.2722595e-12 </wgt>
<wgt id='1872'> +1.2329470e-12 </wgt>
<wgt id='1873'> +1.3225204e-12 </wgt>
<wgt id='1874'> +1.2776535e-12 </wgt>
<wgt id='1875'> +1.2823604e-12 </wgt>
<wgt id='1876'> +1.2588046e-12 </wgt>
<wgt id='1877'> +1.2741999e-12 </wgt>
<wgt id='1878'> +1.2672391e-12 </wgt>
<wgt id='1879'> +1.2610177e-12 </wgt>
<wgt id='1880'> +1.1969004e-12 </wgt>
<wgt id='1881'> +1.2537605e-12 </wgt>
<wgt id='1882'> +1.2805981e-12 </wgt>
<wgt id='1883'> +1.2809478e-12 </wgt>
<wgt id='1884'> +1.2485003e-12 </wgt>
<wgt id='1885'> +1.2046012e-12 </wgt>
<wgt id='1886'> +1.2632526e-12 </wgt>
<wgt id='1887'> +1.2793485e-12 </wgt>
<wgt id='1888'> +1.2253031e-12 </wgt>
<wgt id='1889'> +1.1748348e-12 </wgt>
<wgt id='1890'> +1.3135318e-12 </wgt>
<wgt id='1891'> +1.2471366e-12 </wgt>
<wgt id='1892'> +1.2262509e-12 </wgt>
<wgt id='1893'> +1.2695342e-12 </wgt>
<wgt id='1894'> +1.2749656e-12 </wgt>
<wgt id='1895'> +1.2317531e-12 </wgt>
<wgt id='1896'> +1.2933648e-12 </wgt>
<wgt id='1897'> +1.2673521e-12 </wgt>
<wgt id='1898'> +1.2772597e-12 </wgt>
<wgt id='1899'> +1.2533373e-12 </wgt>
<wgt id='1900'> +1.2795130e-12 </wgt>
<wgt id='1901'> +1.2429829e-12 </wgt>
<wgt id='1902'> +1.2489383e-12 </wgt>
<wgt id='1903'> +1.2569120e-12 </wgt>
<wgt id='1904'> +1.2749840e-12 </wgt>
<wgt id='1905'> +1.2640290e-12 </wgt>
<wgt id='1906'> +1.2757297e-12 </wgt>
<wgt id='1907'> +1.2346618e-12 </wgt>
<wgt id='1908'> +1.2767990e-12 </wgt>
<wgt id='1909'> +1.2577212e-12 </wgt>
<wgt id='1910'> +1.2651155e-12 </wgt>
<wgt id='1911'> +1.2595636e-12 </wgt>
<wgt id='1912'> +1.2444151e-12 </wgt>
<wgt id='1913'> +1.2688607e-12 </wgt>
<wgt id='1914'> +1.3082396e-12 </wgt>
<wgt id='1915'> +1.2998518e-12 </wgt>
<wgt id='1916'> +1.2583316e-12 </wgt>
<wgt id='1917'> +1.2561110e-12 </wgt>
<wgt id='1918'> +1.2672092e-12 </wgt>
<wgt id='1919'> +1.2960929e-12 </wgt>
</rwgt>
</event>
<event>
 9      1 +1.5607000e-12 2.85764000e+01 7.81860800e-03 1.46440800e-01
       21 -1    0    0  501  502 +0.0000000000e+00 +0.0000000000e+00 +5.2239236158e+01 5.2239236158e+01 0.0000000000e+00 0.0000e+00 1.0000e+00
        2 -1    0    0  502    0 -0.0000000000e+00 -0.0000000000e+00 -2.4456131190e+01 2.4456131190e+01 0.0000000000e+00 0.0000e+00 1.0000e+00
     1023  2    1    2    0    0 -4.4099922789e+00 +2.3919276361e+01 -1.1244522448e+01 3.0709113800e+01 1.5001019024e+01 0.0000e+00 0.0000e+00
  1000023  2    3    3    0    0 -5.9552779194e+00 +8.1075842769e+00 -7.3037997218e+00 1.3594009071e+01 5.5003031142e+00 0.0000e+00 0.0000e+00
        2  1    1    2  501    0 +4.4099922789e+00 -2.3919276361e+01 +3.9027627417e+01 4.5986253547e+01 0.0000000000e+00 0.0000e+00 1.0000e+00
  1000022  1    4    4    0    0 -5.9402517931e+00 +7.4816222006e+00 -6.6039168633e+00 1.2644088740e+01 5.0000000000e+00 0.0000e+00 1.0000e+00
      -11  1    4    4    0    0 -8.6326655223e-03 +5.0124236105e-01 -4.6436249747e-01 6.8333828929e-01 5.1100000000e-04 0.0000e+00 1.0000e+00
       11  1    4    4    0    0 -6.3934607997e-03 +1.2471971533e-01 -2.3552036101e-01 2.6658204235e-01 5.1100000000e-04 0.0000e+00 -1.0000e+00
  1000022  1    3    3    0    0 +1.5452856406e+00 +1.5811692084e+01 -3.9407227266e+00 1.7115104729e+01 5.0000000000e+00 0.0000e+00 1.0000e+00
<mgrwt>
<rscale>  1 0.28576396E+02</rscale>
<asrwt>0</asrwt>
<pdfrwt beam="1">  1       21 0.80368055E-02 0.28576396E+02</pdfrwt>
<pdfrwt beam="2">  1        2 0.37624817E-02 0.28576396E+02</pdfrwt>
<totfact> 0.29393294E+06</totfact>
</mgrwt>
<rwgt>
<wgt id='1001'> +1.5607000e-12 </wgt>
<wgt id='1002'> +1.5821853e-12 </wgt>
<wgt id='1003'> +1.5822931e-12 </wgt>
<wgt id='1004'> +1.5548359e-12 </wgt>
<wgt id='1005'> +1.5832976e-12 </wgt>
<wgt id='1006'> +1.3638023e-12 </wgt>
<wgt id='1007'> +1.4033383e-12 </wgt>
<wgt id='1008'> +1.4036862e-12 </wgt>
<wgt id='1009'> +1.3552891e-12 </wgt>
<wgt id='1010'> +1.4136947e-12 </wgt>
<wgt id='1011'> +1.8273857e-12 </wgt>
<wgt id='1012'> +1.8155755e-12 </wgt>
<wgt id='1013'> +1.8152630e-12 </wgt>
<wgt id='1014'> +1.8268258e-12 </wgt>
<wgt id='1015'> +1.8010445e-12 </wgt>
<wgt id='1016'> +1.8117391e-12 </wgt>
<wgt id='1017'> +1.7789612e-12 </wgt>
<wgt id='1018'> +1.7784316e-12 </wgt>
<wgt id='1019'> +1.8152630e-12 </wgt>
<wgt id='1020'> +1.7570915e-12 </wgt>
<wgt id='1021'> +1.5831704e-12 </wgt>
<wgt id='1022'> +1.5778711e-12 </wgt>
<wgt id='1023'> +1.5776849e-12 </wgt>
<wgt id='1024'> +1.5822931e-12 </wgt>
<wgt id='1025'> +1.5688718e-12 </wgt>
<wgt id='1026'> +2.1213213e-12 </wgt>
<wgt id='1027'> +2.0413782e-12 </wgt>
<wgt id='1028'> +2.0402801e-12 </wgt>
<wgt id='1029'> +2.1328098e-12 </wgt>
<wgt id='1030'> +1.9987399e-12 </wgt>
<wgt id='1031'> +1.2722743e-12 </wgt>
<wgt id='1032'> +1.3544595e-12 </wgt>
<wgt id='1033'> +1.3552891e-12 </wgt>
<wgt id='1034'> +1.2561436e-12 </wgt>
<wgt id='1035'> +1.3822140e-12 </wgt>
<wgt id='1036'> +1.1117644e-12 </wgt>
<wgt id='1037'> +1.2013542e-12 </wgt>
<wgt id='1038'> +1.2023060e-12 </wgt>
<wgt id='1039'> +1.0949308e-12 </wgt>
<wgt id='1040'> +1.2341512e-12 </wgt>
<wgt id='1041'> +1.4896751e-12 </wgt>
<wgt id='1042'> +1.5542577e-12 </wgt>
<wgt id='1043'> +1.5548359e-12 </wgt>
<wgt id='1044'> +1.4758828e-12 </wgt>
<wgt id='1045'> +1.5723064e-12 </wgt>
<wgt id='1046'> +1.5607000e-12 </wgt>
<wgt id='1047'> +1.5713781e-12 </wgt>
<wgt id='1048'> +1.5335184e-12 </wgt>
<wgt id='1049'> +1.5562298e-12 </wgt>
<wgt id='1050'> +1.5489429e-12 </wgt>
<wgt id='1051'> +1.5841932e-12 </wgt>
<wgt id='1052'> +1.5675333e-12 </wgt>
<wgt id='1053'> +1.5425009e-12 </wgt>
<wgt id='1054'> +1.5371027e-12 </wgt>
<wgt id='1055'> +1.5315822e-12 </wgt>
<wgt id='1056'> +1.5771683e-12 </wgt>
<wgt id='1057'> +1.6005384e-12 </wgt>
<wgt id='1058'> +1.5059604e-12 </wgt>
<wgt id='1059'> +1.5589921e-12 </wgt>
<wgt id='1060'> +1.5637153e-12 </wgt>
<wgt id='1061'> +1.5742754e-12 </wgt>
<wgt id='1062'> +1.5705674e-12 </wgt>
<wgt id='1063'> +1.5948010e-12 </wgt>
<wgt id='1064'> +1.5550529e-12 </wgt>
<wgt id='1065'> +1.5562395e-12 </wgt>
<wgt id='1066'> +1.5599462e-12 </wgt>
<wgt id='1067'> +1.5055308e-12 </wgt>
<wgt id='1068'> +1.5736654e-12 </wgt>
<wgt id='1069'> +1.5576141e-12 </wgt>
<wgt id='1070'> +1.5386718e-12 </wgt>
<wgt id='1071'> +1.5142987e-12 </wgt>
<wgt id='1072'> +1.5888187e-12 </wgt>
<wgt id='1073'> +1.5976550e-12 </wgt>
<wgt id='1074'> +1.5301624e-12 </wgt>
<wgt id='1075'> +1.5699961e-12 </wgt>
<wgt id='1076'> +1.5758242e-12 </wgt>
<wgt id='1077'> +1.5663480e-12 </wgt>
<wgt id='1078'> +1.5366071e-12 </wgt>
<wgt id='1079'> +1.5490960e-12 </wgt>
<wgt id='1080'> +1.5182471e-12 </wgt>
<wgt id='1081'> +1.6288961e-12 </wgt>
<wgt id='1082'> +1.5514344e-12 </wgt>
<wgt id='1083'> +1.5808538e-12 </wgt>
<wgt id='1084'> +1.5713083e-12 </wgt>
<wgt id='1085'> +1.5360994e-12 </wgt>
<wgt id='1086'> +1.5568676e-12 </wgt>
<wgt id='1087'> +1.5855286e-12 </wgt>
<wgt id='1088'> +1.5294762e-12 </wgt>
<wgt id='1089'> +1.5764091e-12 </wgt>
<wgt id='1090'> +1.5522603e-12 </wgt>
<wgt id='1091'> +1.5632477e-12 </wgt>
<wgt id='1092'> +1.5799547e-12 </wgt>
<wgt id='1093'> +1.5469255e-12 </wgt>
<wgt id='1094'> +1.5611740e-12 </wgt>
<wgt id='1095'> +1.5832472e-12 </wgt>
<wgt id='1096'> +1.6004783e-12 </wgt>
<wgt id='1097'> +1.5395487e-12 </wgt>
<wgt id='1098'> +1.5295332e-12 </wgt>
<wgt id='1099'> +1.5735701e-12 </wgt>
<wgt id='1100'> +1.5330781e-12 </wgt>
<wgt id='1101'> +1.5702085e-12 </wgt>
<wgt id='1102'> +1.5601361e-12 </wgt>
<wgt id='1103'> +1.5713319e-12 </wgt>
<wgt id='1104'> +1.5378190e-12 </wgt>
<wgt id='1105'> +1.6003174e-12 </wgt>
<wgt id='1106'> +1.5719266e-12 </wgt>
<wgt id='1107'> +1.5593759e-12 </wgt>
<wgt id='1108'> +1.5458227e-12 </wgt>
<wgt id='1109'> +1.6106950e-12 </wgt>
<wgt id='1110'> +1.5513545e-12 </wgt>
<wgt id='1111'> +1.5613428e-12 </wgt>
<wgt id='1112'> +1.5823232e-12 </wgt>
<wgt id='1113'> +1.5555910e-12 </wgt>
<wgt id='1114'> +1.5756701e-12 </wgt>
<wgt id='1115'> +1.5308594e-12 </wgt>
<wgt id='1116'> +1.5093142e-12 </wgt>
<wgt id='1117'> +1.5723797e-12 </wgt>
<wgt id='1118'> +1.6174937e-12 </wgt>
<wgt id='1119'> +1.5306082e-12 </wgt>
<wgt id='1120'> +1.5710964e-12 </wgt>
<wgt id='1121'> +1.5679095e-12 </wgt>
<wgt id='1122'> +1.6230284e-12 </wgt>
<wgt id='1123'> +1.5253556e-12 </wgt>
<wgt id='1124'> +1.5416348e-12 </wgt>
<wgt id='1125'> +1.5625034e-12 </wgt>
<wgt id='1126'> +1.5907974e-12 </wgt>
<wgt id='1127'> +1.5307804e-12 </wgt>
<wgt id='1128'> +1.5705674e-12 </wgt>
<wgt id='1129'> +1.5619777e-12 </wgt>
<wgt id='1130'> +1.5608353e-12 </wgt>
<wgt id='1131'> +1.5621095e-12 </wgt>
<wgt id='1132'> +1.5462931e-12 </wgt>
<wgt id='1133'> +1.5705424e-12 </wgt>
<wgt id='1134'> +1.5994815e-12 </wgt>
<wgt id='1135'> +1.5512458e-12 </wgt>
<wgt id='1136'> +1.5298941e-12 </wgt>
<wgt id='1137'> +1.5351416e-12 </wgt>
<wgt id='1138'> +1.5808426e-12 </wgt>
<wgt id='1139'> +1.5780998e-12 </wgt>
<wgt id='1140'> +1.5776448e-12 </wgt>
<wgt id='1141'> +1.5162825e-12 </wgt>
<wgt id='1142'> +1.5429358e-12 </wgt>
<wgt id='1143'> +1.5784102e-12 </wgt>
<wgt id='1144'> +1.5706758e-12 </wgt>
<wgt id='1145'> +1.5638917e-12 </wgt>
<wgt id='1146'> +1.5512330e-12 </wgt>
<wgt id='1147'> +1.2307580e-12 </wgt>
<wgt id='1148'> +1.2575937e-12 </wgt>
<wgt id='1149'> +1.3062870e-12 </wgt>
<wgt id='1150'> +1.2635383e-12 </wgt>
<wgt id='1151'> +1.2333986e-12 </wgt>
<wgt id='1152'> +1.5438748e-12 </wgt>
<wgt id='1153'> +1.5351090e-12 </wgt>
<wgt id='1154'> +1.5489682e-12 </wgt>
<wgt id='1155'> +1.5436470e-12 </wgt>
<wgt id='1156'> +1.5440207e-12 </wgt>
<wgt id='1157'> +1.5462510e-12 </wgt>
<wgt id='1158'> +1.5406480e-12 </wgt>
<wgt id='1159'> +1.5459113e-12 </wgt>
<wgt id='1160'> +1.5425893e-12 </wgt>
<wgt id='1161'> +1.5403417e-12 </wgt>
<wgt id='1162'> +1.5462909e-12 </wgt>
<wgt id='1163'> +1.5480002e-12 </wgt>
<wgt id='1164'> +1.5397711e-12 </wgt>
<wgt id='1165'> +1.5331693e-12 </wgt>
<wgt id='1166'> +1.5542565e-12 </wgt>
<wgt id='1167'> +1.5506869e-12 </wgt>
<wgt id='1168'> +1.5339905e-12 </wgt>
<wgt id='1169'> +1.5455328e-12 </wgt>
<wgt id='1170'> +1.5426139e-12 </wgt>
<wgt id='1171'> +1.5412893e-12 </wgt>
<wgt id='1172'> +1.5469076e-12 </wgt>
<wgt id='1173'> +1.5363128e-12 </wgt>
<wgt id='1174'> +1.5506183e-12 </wgt>
<wgt id='1175'> +1.5439198e-12 </wgt>
<wgt id='1176'> +1.5429677e-12 </wgt>
<wgt id='1177'> +1.5460224e-12 </wgt>
<wgt id='1178'> +1.5380454e-12 </wgt>
<wgt id='1179'> +1.5535122e-12 </wgt>
<wgt id='1180'> +1.5288519e-12 </wgt>
<wgt id='1181'> +1.5360519e-12 </wgt>
<wgt id='1182'> +1.5516902e-12 </wgt>
<wgt id='1183'> +1.5454449e-12 </wgt>
<wgt id='1184'> +1.5437685e-12 </wgt>
<wgt id='1185'> +1.5373766e-12 </wgt>
<wgt id='1186'> +1.5473511e-12 </wgt>
<wgt id='1187'> +1.5425526e-12 </wgt>
<wgt id='1188'> +1.5443302e-12 </wgt>
<wgt id='1189'> +1.5391177e-12 </wgt>
<wgt id='1190'> +1.5344128e-12 </wgt>
<wgt id='1191'> +1.5378890e-12 </wgt>
<wgt id='1192'> +1.5456657e-12 </wgt>
<wgt id='1193'> +1.2725964e-12 </wgt>
<wgt id='1194'> +1.2721556e-12 </wgt>
<wgt id='1195'> +1.2729338e-12 </wgt>
<wgt id='1196'> +1.2789160e-12 </wgt>
<wgt id='1197'> +1.2655994e-12 </wgt>
<wgt id='1198'> +1.2731811e-12 </wgt>
<wgt id='1199'> +1.2717333e-12 </wgt>
<wgt id='1200'> +1.2746232e-12 </wgt>
<wgt id='1201'> +1.2712713e-12 </wgt>
<wgt id='1202'> +1.2706444e-12 </wgt>
<wgt id='1203'> +1.2754054e-12 </wgt>
<wgt id='1204'> +1.2609763e-12 </wgt>
<wgt id='1205'> +1.2798016e-12 </wgt>
<wgt id='1206'> +1.2770209e-12 </wgt>
<wgt id='1207'> +1.2665748e-12 </wgt>
<wgt id='1208'> +1.2639647e-12 </wgt>
<wgt id='1209'> +1.2757240e-12 </wgt>
<wgt id='1210'> +1.2770973e-12 </wgt>
<wgt id='1211'> +1.2598019e-12 </wgt>
<wgt id='1212'> +1.2725765e-12 </wgt>
<wgt id='1213'> +1.2725759e-12 </wgt>
<wgt id='1214'> +1.2577934e-12 </wgt>
<wgt id='1215'> +1.2969749e-12 </wgt>
<wgt id='1216'> +1.2804400e-12 </wgt>
<wgt id='1217'> +1.2672057e-12 </wgt>
<wgt id='1218'> +1.2773893e-12 </wgt>
<wgt id='1219'> +1.2700853e-12 </wgt>
<wgt id='1220'> +1.2764551e-12 </wgt>
<wgt id='1221'> +1.2720317e-12 </wgt>
<wgt id='1222'> +1.2695868e-12 </wgt>
<wgt id='1223'> +1.2771491e-12 </wgt>
<wgt id='1224'> +1.2740105e-12 </wgt>
<wgt id='1225'> +1.2720442e-12 </wgt>
<wgt id='1226'> +1.2704190e-12 </wgt>
<wgt id='1227'> +1.2741062e-12 </wgt>
<wgt id='1228'> +1.2686962e-12 </wgt>
<wgt id='1229'> +1.2741060e-12 </wgt>
<wgt id='1230'> +1.2649947e-12 </wgt>
<wgt id='1231'> +1.2680161e-12 </wgt>
<wgt id='1232'> +1.2706172e-12 </wgt>
<wgt id='1233'> +1.2731360e-12 </wgt>
<wgt id='1234'> +1.2725964e-12 </wgt>
<wgt id='1235'> +1.2636201e-12 </wgt>
<wgt id='1236'> +1.2668714e-12 </wgt>
<wgt id='1237'> +1.2698529e-12 </wgt>
<wgt id='1238'> +1.2748675e-12 </wgt>
<wgt id='1239'> +1.2769723e-12 </wgt>
<wgt id='1240'> +1.2789525e-12 </wgt>
<wgt id='1241'> +1.2771926e-12 </wgt>
<wgt id='1242'> +1.2727913e-12 </wgt>
<wgt id='1243'> +1.2816150e-12 </wgt>
<wgt id='1244'> +1.2690782e-12 </wgt>
<wgt id='1245'> +1.2832011e-12 </wgt>
<wgt id='1246'> +1.2781076e-12 </wgt>
<wgt id='1247'> +1.2764506e-12 </wgt>
<wgt id='1248'> +1.2771130e-12 </wgt>
<wgt id='1249'> +1.2772915e-12 </wgt>
<wgt id='1250'> +1.2781770e-12 </wgt>
<wgt id='1251'> +1.2765229e-12 </wgt>
<wgt id='1252'> +1.2743085e-12 </wgt>
<wgt id='1253'> +1.2794641e-12 </wgt>
<wgt id='1254'> +1.2657435e-12 </wgt>
<wgt id='1255'> +1.2841010e-12 </wgt>
<wgt id='1256'> +1.2819540e-12 </wgt>
<wgt id='1257'> +1.2652381e-12 </wgt>
<wgt id='1258'> +1.2973167e-12 </wgt>
<wgt id='1259'> +1.2583261e-12 </wgt>
<wgt id='1260'> +1.2809873e-12 </wgt>
<wgt id='1261'> +1.2729270e-12 </wgt>
<wgt id='1262'> +1.2788485e-12 </wgt>
<wgt id='1263'> +1.2762779e-12 </wgt>
<wgt id='1264'> +1.2817261e-12 </wgt>
<wgt id='1265'> +1.2749195e-12 </wgt>
<wgt id='1266'> +1.2749678e-12 </wgt>
<wgt id='1267'> +1.2795021e-12 </wgt>
<wgt id='1268'> +1.2769462e-12 </wgt>
<wgt id='1269'> +1.2811645e-12 </wgt>
<wgt id='1270'> +1.2703320e-12 </wgt>
<wgt id='1271'> +1.2689685e-12 </wgt>
<wgt id='1272'> +1.2775046e-12 </wgt>
<wgt id='1273'> +1.2763663e-12 </wgt>
<wgt id='1274'> +1.2792844e-12 </wgt>
<wgt id='1275'> +1.2726341e-12 </wgt>
<wgt id='1276'> +1.2789675e-12 </wgt>
<wgt id='1277'> +1.2739452e-12 </wgt>
<wgt id='1278'> +1.2766884e-12 </wgt>
<wgt id='1279'> +1.2723658e-12 </wgt>
<wgt id='1280'> +1.2779464e-12 </wgt>
<wgt id='1281'> +1.2729237e-12 </wgt>
<wgt id='1282'> +1.2771926e-12 </wgt>
<wgt id='1283'> +1.2677645e-12 </wgt>
<wgt id='1284'> +1.2713075e-12 </wgt>
<wgt id='1285'> +1.2745754e-12 </wgt>
<wgt id='1286'> +1.2798075e-12 </wgt>
<wgt id='1287'> +1.2819693e-12 </wgt>
<wgt id='1288'> +1.2838084e-12 </wgt>
<wgt id='1289'> +1.3121765e-12 </wgt>
<wgt id='1290'> +1.3142608e-12 </wgt>
<wgt id='1291'> +1.3099370e-12 </wgt>
<wgt id='1292'> +1.3067240e-12 </wgt>
<wgt id='1293'> +1.3160907e-12 </wgt>
<wgt id='1294'> +1.3124285e-12 </wgt>
<wgt id='1295'> +1.3119199e-12 </wgt>
<wgt id='1296'> +1.3063246e-12 </wgt>
<wgt id='1297'> +1.3193599e-12 </wgt>
<wgt id='1298'> +1.3174074e-12 </wgt>
<wgt id='1299'> +1.3055860e-12 </wgt>
<wgt id='1300'> +1.3151154e-12 </wgt>
<wgt id='1301'> +1.3062606e-12 </wgt>
<wgt id='1302'> +1.3112508e-12 </wgt>
<wgt id='1303'> +1.3134558e-12 </wgt>
<wgt id='1304'> +1.3100460e-12 </wgt>
<wgt id='1305'> +1.3136072e-12 </wgt>
<wgt id='1306'> +1.3066597e-12 </wgt>
<wgt id='1307'> +1.3185418e-12 </wgt>
<wgt id='1308'> +1.3200680e-12 </wgt>
<wgt id='1309'> +1.3061372e-12 </wgt>
<wgt id='1310'> +1.3120267e-12 </wgt>
<wgt id='1311'> +1.3124480e-12 </wgt>
<wgt id='1312'> +1.3078259e-12 </wgt>
<wgt id='1313'> +1.3167159e-12 </wgt>
<wgt id='1314'> +1.3207415e-12 </wgt>
<wgt id='1315'> +1.2978679e-12 </wgt>
<wgt id='1316'> +1.3174748e-12 </wgt>
<wgt id='1317'> +1.3124469e-12 </wgt>
<wgt id='1318'> +1.3201791e-12 </wgt>
<wgt id='1319'> +1.3025193e-12 </wgt>
<wgt id='1320'> +1.3208315e-12 </wgt>
<wgt id='1321'> +1.3047182e-12 </wgt>
<wgt id='1322'> +1.3114536e-12 </wgt>
<wgt id='1323'> +1.3128120e-12 </wgt>
<wgt id='1324'> +1.3103082e-12 </wgt>
<wgt id='1325'> +1.3204700e-12 </wgt>
<wgt id='1326'> +1.3121290e-12 </wgt>
<wgt id='1327'> +1.3138891e-12 </wgt>
<wgt id='1328'> +1.3127268e-12 </wgt>
<wgt id='1329'> +1.3115018e-12 </wgt>
<wgt id='1330'> +1.2911874e-12 </wgt>
<wgt id='1331'> +1.3263159e-12 </wgt>
<wgt id='1332'> +1.3332188e-12 </wgt>
<wgt id='1333'> +1.2973018e-12 </wgt>
<wgt id='1334'> +1.3076811e-12 </wgt>
<wgt id='1335'> +1.3233008e-12 </wgt>
<wgt id='1336'> +1.3069447e-12 </wgt>
<wgt id='1337'> +1.3095830e-12 </wgt>
<wgt id='1338'> +1.3106558e-12 </wgt>
<wgt id='1339'> +1.3123391e-12 </wgt>
<wgt id='1340'> +1.2945279e-12 </wgt>
<wgt id='1341'> +1.2968262e-12 </wgt>
<wgt id='1342'> +1.2920646e-12 </wgt>
<wgt id='1343'> +1.2889538e-12 </wgt>
<wgt id='1344'> +1.2982770e-12 </wgt>
<wgt id='1345'> +1.2947787e-12 </wgt>
<wgt id='1346'> +1.2942945e-12 </wgt>
<wgt id='1347'> +1.2886744e-12 </wgt>
<wgt id='1348'> +1.3010222e-12 </wgt>
<wgt id='1349'> +1.2992307e-12 </wgt>
<wgt id='1350'> +1.2898932e-12 </wgt>
<wgt id='1351'> +1.2975158e-12 </wgt>
<wgt id='1352'> +1.2880141e-12 </wgt>
<wgt id='1353'> +1.2931914e-12 </wgt>
<wgt id='1354'> +1.2969138e-12 </wgt>
<wgt id='1355'> +1.2925315e-12 </wgt>
<wgt id='1356'> +1.2956285e-12 </wgt>
<wgt id='1357'> +1.2909600e-12 </wgt>
<wgt id='1358'> +1.2989002e-12 </wgt>
<wgt id='1359'> +1.3039905e-12 </wgt>
<wgt id='1360'> +1.2863645e-12 </wgt>
<wgt id='1361'> +1.2939261e-12 </wgt>
<wgt id='1362'> +1.2954525e-12 </wgt>
<wgt id='1363'> +1.2877531e-12 </wgt>
<wgt id='1364'> +1.2994138e-12 </wgt>
<wgt id='1365'> +1.2811882e-12 </wgt>
<wgt id='1366'> +1.3034657e-12 </wgt>
<wgt id='1367'> +1.2992916e-12 </wgt>
<wgt id='1368'> +1.2945892e-12 </wgt>
<wgt id='1369'> +1.3013640e-12 </wgt>
<wgt id='1370'> +1.2863130e-12 </wgt>
<wgt id='1371'> +1.3004964e-12 </wgt>
<wgt id='1372'> +1.2870864e-12 </wgt>
<wgt id='1373'> +1.2925535e-12 </wgt>
<wgt id='1374'> +1.2959279e-12 </wgt>
<wgt id='1375'> +1.2926112e-12 </wgt>
<wgt id='1376'> +1.3032281e-12 </wgt>
<wgt id='1377'> +1.2946505e-12 </wgt>
<wgt id='1378'> +1.2964397e-12 </wgt>
<wgt id='1379'> +1.2946780e-12 </wgt>
<wgt id='1380'> +1.2942010e-12 </wgt>
<wgt id='1381'> +1.2729765e-12 </wgt>
<wgt id='1382'> +1.3072639e-12 </wgt>
<wgt id='1383'> +1.3159076e-12 </wgt>
<wgt id='1384'> +1.2779281e-12 </wgt>
<wgt id='1385'> +1.2900382e-12 </wgt>
<wgt id='1386'> +1.3048976e-12 </wgt>
<wgt id='1387'> +1.2878621e-12 </wgt>
<wgt id='1388'> +1.2913974e-12 </wgt>
<wgt id='1389'> +1.2911090e-12 </wgt>
<wgt id='1390'> +1.2950506e-12 </wgt>
<wgt id='1391'> +1.2680633e-12 </wgt>
<wgt id='1392'> +1.2445622e-12 </wgt>
<wgt id='1393'> +1.2520602e-12 </wgt>
<wgt id='1394'> +1.2601057e-12 </wgt>
<wgt id='1395'> +1.2747927e-12 </wgt>
<wgt id='1396'> +1.2680792e-12 </wgt>
<wgt id='1397'> +1.2306040e-12 </wgt>
<wgt id='1398'> +1.2385407e-12 </wgt>
<wgt id='1399'> +1.2458134e-12 </wgt>
<wgt id='1400'> +1.2529534e-12 </wgt>
<wgt id='1401'> +1.2605113e-12 </wgt>
<wgt id='1402'> +1.2747600e-12 </wgt>
<wgt id='1403'> +1.2817063e-12 </wgt>
<wgt id='1404'> +1.2880940e-12 </wgt>
<wgt id='1405'> +1.2680792e-12 </wgt>
<wgt id='1406'> +1.2637377e-12 </wgt>
<wgt id='1407'> +1.2661827e-12 </wgt>
<wgt id='1408'> +1.2698918e-12 </wgt>
<wgt id='1409'> +1.2715519e-12 </wgt>
<wgt id='1410'> +1.2721828e-12 </wgt>
<wgt id='1411'> +1.2730972e-12 </wgt>
<wgt id='1412'> +1.2710414e-12 </wgt>
<wgt id='1413'> +1.2781036e-12 </wgt>
<wgt id='1414'> +1.2663017e-12 </wgt>
<wgt id='1415'> +1.2659653e-12 </wgt>
<wgt id='1416'> +1.2746942e-12 </wgt>
<wgt id='1417'> +1.2641241e-12 </wgt>
<wgt id='1418'> +1.2802468e-12 </wgt>
<wgt id='1419'> +1.2740591e-12 </wgt>
<wgt id='1420'> +1.2703822e-12 </wgt>
<wgt id='1421'> +1.2601669e-12 </wgt>
<wgt id='1422'> +1.2773873e-12 </wgt>
<wgt id='1423'> +1.2718723e-12 </wgt>
<wgt id='1424'> +1.2725747e-12 </wgt>
<wgt id='1425'> +1.2689510e-12 </wgt>
<wgt id='1426'> +1.2756800e-12 </wgt>
<wgt id='1427'> +1.2742402e-12 </wgt>
<wgt id='1428'> +1.2709105e-12 </wgt>
<wgt id='1429'> +1.2650630e-12 </wgt>
<wgt id='1430'> +1.2818511e-12 </wgt>
<wgt id='1431'> +1.2760609e-12 </wgt>
<wgt id='1432'> +1.2694267e-12 </wgt>
<wgt id='1433'> +1.2796906e-12 </wgt>
<wgt id='1434'> +1.2642477e-12 </wgt>
<wgt id='1435'> +1.2764834e-12 </wgt>
<wgt id='1436'> +1.2617718e-12 </wgt>
<wgt id='1437'> +1.2779632e-12 </wgt>
<wgt id='1438'> +1.2710341e-12 </wgt>
<wgt id='1439'> +1.2662760e-12 </wgt>
<wgt id='1440'> +1.2863292e-12 </wgt>
<wgt id='1441'> +1.2747095e-12 </wgt>
<wgt id='1442'> +1.2676308e-12 </wgt>
<wgt id='1443'> +1.2702274e-12 </wgt>
<wgt id='1444'> +1.2771204e-12 </wgt>
<wgt id='1445'> +1.2814172e-12 </wgt>
<wgt id='1446'> +1.2691581e-12 </wgt>
<wgt id='1447'> +1.2727559e-12 </wgt>
<wgt id='1448'> +1.2732295e-12 </wgt>
<wgt id='1449'> +1.2730191e-12 </wgt>
<wgt id='1450'> +1.2713949e-12 </wgt>
<wgt id='1451'> +1.2807885e-12 </wgt>
<wgt id='1452'> +1.2480974e-12 </wgt>
<wgt id='1453'> +1.2741092e-12 </wgt>
<wgt id='1454'> +1.2596072e-12 </wgt>
<wgt id='1455'> +1.2580643e-12 </wgt>
<wgt id='1456'> +1.2775086e-12 </wgt>
<wgt id='1457'> +1.2777153e-12 </wgt>
<wgt id='1458'> +1.2694163e-12 </wgt>
<wgt id='1459'> +1.2756012e-12 </wgt>
<wgt id='1460'> +1.2658158e-12 </wgt>
<wgt id='1461'> +1.2721828e-12 </wgt>
<wgt id='1462'> +1.2664690e-12 </wgt>
<wgt id='1463'> +1.2808132e-12 </wgt>
<wgt id='1464'> +1.2740893e-12 </wgt>
<wgt id='1465'> +1.2453529e-12 </wgt>
<wgt id='1466'> +1.2514922e-12 </wgt>
<wgt id='1467'> +1.2579074e-12 </wgt>
<wgt id='1468'> +1.2626763e-12 </wgt>
<wgt id='1469'> +1.2685477e-12 </wgt>
<wgt id='1470'> +1.2801259e-12 </wgt>
<wgt id='1471'> +1.2846123e-12 </wgt>
<wgt id='1472'> +1.2902370e-12 </wgt>
<wgt id='1473'> +1.2740893e-12 </wgt>
<wgt id='1474'> +1.2693008e-12 </wgt>
<wgt id='1475'> +1.2709975e-12 </wgt>
<wgt id='1476'> +1.2761507e-12 </wgt>
<wgt id='1477'> +1.2781156e-12 </wgt>
<wgt id='1478'> +1.2430491e-12 </wgt>
<wgt id='1479'> +1.2402500e-12 </wgt>
<wgt id='1480'> +1.2435374e-12 </wgt>
<wgt id='1481'> +1.2371434e-12 </wgt>
<wgt id='1482'> +1.2399564e-12 </wgt>
<wgt id='1483'> +1.2281055e-12 </wgt>
<wgt id='1484'> +1.2456645e-12 </wgt>
<wgt id='1485'> +1.2382595e-12 </wgt>
<wgt id='1486'> +1.2440584e-12 </wgt>
<wgt id='1487'> +1.2426791e-12 </wgt>
<wgt id='1488'> +1.2405665e-12 </wgt>
<wgt id='1489'> +1.2663380e-12 </wgt>
<wgt id='1490'> +1.2404432e-12 </wgt>
<wgt id='1491'> +1.2414553e-12 </wgt>
<wgt id='1492'> +1.2450150e-12 </wgt>
<wgt id='1493'> +1.2319869e-12 </wgt>
<wgt id='1494'> +1.2571928e-12 </wgt>
<wgt id='1495'> +1.2383278e-12 </wgt>
<wgt id='1496'> +1.2416834e-12 </wgt>
<wgt id='1497'> +1.2414739e-12 </wgt>
<wgt id='1498'> +1.2425169e-12 </wgt>
<wgt id='1499'> +1.2440696e-12 </wgt>
<wgt id='1500'> +1.2434816e-12 </wgt>
<wgt id='1501'> +1.2427433e-12 </wgt>
<wgt id='1502'> +1.2428708e-12 </wgt>
<wgt id='1503'> +1.2425461e-12 </wgt>
<wgt id='1504'> +1.2404514e-12 </wgt>
<wgt id='1505'> +1.2426935e-12 </wgt>
<wgt id='1506'> +1.2406671e-12 </wgt>
<wgt id='1507'> +1.2413601e-12 </wgt>
<wgt id='1508'> +1.2466467e-12 </wgt>
<wgt id='1509'> +1.3013745e-12 </wgt>
<wgt id='1510'> +1.3002389e-12 </wgt>
<wgt id='1511'> +1.3061180e-12 </wgt>
<wgt id='1512'> +1.3043927e-12 </wgt>
<wgt id='1513'> +1.3071774e-12 </wgt>
<wgt id='1514'> +1.2993745e-12 </wgt>
<wgt id='1515'> +1.2966563e-12 </wgt>
<wgt id='1516'> +1.2984774e-12 </wgt>
<wgt id='1517'> +1.2996476e-12 </wgt>
<wgt id='1518'> +1.3061142e-12 </wgt>
<wgt id='1519'> +1.2962027e-12 </wgt>
<wgt id='1520'> +1.3053402e-12 </wgt>
<wgt id='1521'> +1.3097100e-12 </wgt>
<wgt id='1522'> +1.3085133e-12 </wgt>
<wgt id='1523'> +1.3085870e-12 </wgt>
<wgt id='1524'> +1.3029949e-12 </wgt>
<wgt id='1525'> +1.3023656e-12 </wgt>
<wgt id='1526'> +1.2985224e-12 </wgt>
<wgt id='1527'> +1.3010913e-12 </wgt>
<wgt id='1528'> +1.3035997e-12 </wgt>
<wgt id='1529'> +1.3017301e-12 </wgt>
<wgt id='1530'> +1.3067323e-12 </wgt>
<wgt id='1531'> +1.3015277e-12 </wgt>
<wgt id='1532'> +1.2996206e-12 </wgt>
<wgt id='1533'> +1.3007064e-12 </wgt>
<wgt id='1534'> +1.3044309e-12 </wgt>
<wgt id='1535'> +1.2939503e-12 </wgt>
<wgt id='1536'> +1.2975961e-12 </wgt>
<wgt id='1537'> +1.2993918e-12 </wgt>
<wgt id='1538'> +1.3029780e-12 </wgt>
<wgt id='1539'> +1.3057858e-12 </wgt>
<wgt id='1540'> +1.3027009e-12 </wgt>
<wgt id='1541'> +1.3016362e-12 </wgt>
<wgt id='1542'> +1.3005263e-12 </wgt>
<wgt id='1543'> +1.2997189e-12 </wgt>
<wgt id='1544'> +1.3002813e-12 </wgt>
<wgt id='1545'> +1.3034299e-12 </wgt>
<wgt id='1546'> +1.3009947e-12 </wgt>
<wgt id='1547'> +1.3023402e-12 </wgt>
<wgt id='1548'> +1.3006805e-12 </wgt>
<wgt id='1549'> +1.2999149e-12 </wgt>
<wgt id='1550'> +1.3042608e-12 </wgt>
<wgt id='1551'> +1.3019973e-12 </wgt>
<wgt id='1552'> +1.3017132e-12 </wgt>
<wgt id='1553'> +1.3039250e-12 </wgt>
<wgt id='1554'> +1.3033428e-12 </wgt>
<wgt id='1555'> +1.3026573e-12 </wgt>
<wgt id='1556'> +1.3005693e-12 </wgt>
<wgt id='1557'> +1.3015630e-12 </wgt>
<wgt id='1558'> +1.3024314e-12 </wgt>
<wgt id='1559'> +1.3020123e-12 </wgt>
<wgt id='1560'> +1.3028223e-12 </wgt>
<wgt id='1561'> +1.3011100e-12 </wgt>
<wgt id='1562'> +1.3013790e-12 </wgt>
<wgt id='1563'> +1.3019489e-12 </wgt>
<wgt id='1564'> +1.2989825e-12 </wgt>
<wgt id='1565'> +1.3013314e-12 </wgt>
<wgt id='1566'> +1.3008662e-12 </wgt>
<wgt id='1567'> +1.2999123e-12 </wgt>
<wgt id='1568'> +1.3033609e-12 </wgt>
<wgt id='1569'> +1.3020626e-12 </wgt>
<wgt id='1570'> +1.3002467e-12 </wgt>
<wgt id='1571'> +1.3015703e-12 </wgt>
<wgt id='1572'> +1.3000916e-12 </wgt>
<wgt id='1573'> +1.3001918e-12 </wgt>
<wgt id='1574'> +1.3015131e-12 </wgt>
<wgt id='1575'> +1.3017687e-12 </wgt>
<wgt id='1576'> +1.3005090e-12 </wgt>
<wgt id='1577'> +1.3002607e-12 </wgt>
<wgt id='1578'> +1.3017394e-12 </wgt>
<wgt id='1579'> +1.3012874e-12 </wgt>
<wgt id='1580'> +1.3024120e-12 </wgt>
<wgt id='1581'> +1.3008589e-12 </wgt>
<wgt id='1582'> +1.3008828e-12 </wgt>
<wgt id='1583'> +1.3008876e-12 </wgt>
<wgt id='1584'> +1.3013263e-12 </wgt>
<wgt id='1585'> +1.3012704e-12 </wgt>
<wgt id='1586'> +1.3010529e-12 </wgt>
<wgt id='1587'> +1.3012685e-12 </wgt>
<wgt id='1588'> +1.3020882e-12 </wgt>
<wgt id='1589'> +1.3007718e-12 </wgt>
<wgt id='1590'> +1.3008887e-12 </wgt>
<wgt id='1591'> +1.3010720e-12 </wgt>
<wgt id='1592'> +1.3013064e-12 </wgt>
<wgt id='1593'> +1.3017354e-12 </wgt>
<wgt id='1594'> +1.3016186e-12 </wgt>
<wgt id='1595'> +1.3013281e-12 </wgt>
<wgt id='1596'> +1.3013642e-12 </wgt>
<wgt id='1597'> +1.3016955e-12 </wgt>
<wgt id='1598'> +1.3015070e-12 </wgt>
<wgt id='1599'> +1.3018245e-12 </wgt>
<wgt id='1600'> +1.3009463e-12 </wgt>
<wgt id='1601'> +1.3013992e-12 </wgt>
<wgt id='1602'> +1.3014672e-12 </wgt>
<wgt id='1603'> +1.3015072e-12 </wgt>
<wgt id='1604'> +1.3015067e-12 </wgt>
<wgt id='1605'> +1.3015738e-12 </wgt>
<wgt id='1606'> +1.3011216e-12 </wgt>
<wgt id='1607'> +1.3009343e-12 </wgt>
<wgt id='1608'> +1.3009807e-12 </wgt>
<wgt id='1609'> +1.3017694e-12 </wgt>
<wgt id='1610'> +1.2888335e-12 </wgt>
<wgt id='1611'> +1.3121081e-12 </wgt>
<wgt id='1612'> +1.5056686e-12 </wgt>
<wgt id='1613'> +1.4968998e-12 </wgt>
<wgt id='1614'> +1.5194724e-12 </wgt>
<wgt id='1615'> +1.4862173e-12 </wgt>
<wgt id='1616'> +1.5534945e-12 </wgt>
<wgt id='1617'> +1.5377231e-12 </wgt>
<wgt id='1618'> +1.5005538e-12 </wgt>
<wgt id='1619'> +1.5143605e-12 </wgt>
<wgt id='1620'> +1.4636285e-12 </wgt>
<wgt id='1621'> +1.5109096e-12 </wgt>
<wgt id='1622'> +1.5069968e-12 </wgt>
<wgt id='1623'> +1.5172246e-12 </wgt>
<wgt id='1624'> +1.4733468e-12 </wgt>
<wgt id='1625'> +1.4874070e-12 </wgt>
<wgt id='1626'> +1.4910538e-12 </wgt>
<wgt id='1627'> +1.4988937e-12 </wgt>
<wgt id='1628'> +1.5195620e-12 </wgt>
<wgt id='1629'> +1.5505479e-12 </wgt>
<wgt id='1630'> +1.5137405e-12 </wgt>
<wgt id='1631'> +1.4793690e-12 </wgt>
<wgt id='1632'> +1.4664156e-12 </wgt>
<wgt id='1633'> +1.4690946e-12 </wgt>
<wgt id='1634'> +1.5764685e-12 </wgt>
<wgt id='1635'> +1.5084588e-12 </wgt>
<wgt id='1636'> +1.5427110e-12 </wgt>
<wgt id='1637'> +1.4674177e-12 </wgt>
<wgt id='1638'> +1.5257091e-12 </wgt>
<wgt id='1639'> +1.5178934e-12 </wgt>
<wgt id='1640'> +1.5367199e-12 </wgt>
<wgt id='1641'> +1.4820219e-12 </wgt>
<wgt id='1642'> +1.5026861e-12 </wgt>
<wgt id='1643'> +1.5552413e-12 </wgt>
<wgt id='1644'> +1.4372766e-12 </wgt>
<wgt id='1645'> +1.5164174e-12 </wgt>
<wgt id='1646'> +1.4932245e-12 </wgt>
<wgt id='1647'> +1.5036340e-12 </wgt>
<wgt id='1648'> +1.5066723e-12 </wgt>
<wgt id='1649'> +1.5111390e-12 </wgt>
<wgt id='1650'> +1.4952318e-12 </wgt>
<wgt id='1651'> +1.4590432e-12 </wgt>
<wgt id='1652'> +1.4989872e-12 </wgt>
<wgt id='1653'> +1.5512909e-12 </wgt>
<wgt id='1654'> +1.5112494e-12 </wgt>
<wgt id='1655'> +1.4724877e-12 </wgt>
<wgt id='1656'> +1.4568500e-12 </wgt>
<wgt id='1657'> +1.4987770e-12 </wgt>
<wgt id='1658'> +1.4556766e-12 </wgt>
<wgt id='1659'> +1.4733468e-12 </wgt>
<wgt id='1660'> +1.5029382e-12 </wgt>
<wgt id='1661'> +1.4873287e-12 </wgt>
<wgt id='1662'> +1.5029305e-12 </wgt>
<wgt id='1663'> +1.4950049e-12 </wgt>
<wgt id='1664'> +1.5071510e-12 </wgt>
<wgt id='1665'> +1.4710369e-12 </wgt>
<wgt id='1666'> +1.5217400e-12 </wgt>
<wgt id='1667'> +1.4882342e-12 </wgt>
<wgt id='1668'> +1.5532656e-12 </wgt>
<wgt id='1669'> +1.4555646e-12 </wgt>
<wgt id='1670'> +1.5194971e-12 </wgt>
<wgt id='1671'> +1.4786063e-12 </wgt>
<wgt id='1672'> +1.5109413e-12 </wgt>
<wgt id='1673'> +1.4756208e-12 </wgt>
<wgt id='1674'> +1.4841349e-12 </wgt>
<wgt id='1675'> +1.5530535e-12 </wgt>
<wgt id='1676'> +1.5445735e-12 </wgt>
<wgt id='1677'> +1.5742396e-12 </wgt>
<wgt id='1678'> +1.5118208e-12 </wgt>
<wgt id='1679'> +1.5374191e-12 </wgt>
<wgt id='1680'> +1.5227211e-12 </wgt>
<wgt id='1681'> +1.5322344e-12 </wgt>
<wgt id='1682'> +1.5058075e-12 </wgt>
<wgt id='1683'> +1.4782402e-12 </wgt>
<wgt id='1684'> +1.4856982e-12 </wgt>
<wgt id='1685'> +1.4980456e-12 </wgt>
<wgt id='1686'> +1.5143234e-12 </wgt>
<wgt id='1687'> +1.5554830e-12 </wgt>
<wgt id='1688'> +1.5238759e-12 </wgt>
<wgt id='1689'> +1.4759823e-12 </wgt>
<wgt id='1690'> +1.5473669e-12 </wgt>
<wgt id='1691'> +1.5576264e-12 </wgt>
<wgt id='1692'> +1.5256191e-12 </wgt>
<wgt id='1693'> +1.5425835e-12 </wgt>
<wgt id='1694'> +1.4408336e-12 </wgt>
<wgt id='1695'> +1.5064376e-12 </wgt>
<wgt id='1696'> +1.5587348e-12 </wgt>
<wgt id='1697'> +1.4965868e-12 </wgt>
<wgt id='1698'> +1.4981454e-12 </wgt>
<wgt id='1699'> +1.5227008e-12 </wgt>
<wgt id='1700'> +1.4928829e-12 </wgt>
<wgt id='1701'> +1.4838993e-12 </wgt>
<wgt id='1702'> +1.4998918e-12 </wgt>
<wgt id='1703'> +1.5325832e-12 </wgt>
<wgt id='1704'> +1.4777227e-12 </wgt>
<wgt id='1705'> +1.4827918e-12 </wgt>
<wgt id='1706'> +1.5127189e-12 </wgt>
<wgt id='1707'> +1.4912040e-12 </wgt>
<wgt id='1708'> +1.4648326e-12 </wgt>
<wgt id='1709'> +1.4990253e-12 </wgt>
<wgt id='1710'> +1.4794634e-12 </wgt>
<wgt id='1711'> +1.5667475e-12 </wgt>
<wgt id='1712'> +1.5084230e-12 </wgt>
<wgt id='1713'> +1.2193539e-12 </wgt>
<wgt id='1714'> +1.1874025e-12 </wgt>
<wgt id='1715'> +1.2433690e-12 </wgt>
<wgt id='1716'> +1.2510550e-12 </wgt>
<wgt id='1717'> +1.2158407e-12 </wgt>
<wgt id='1718'> +1.2185245e-12 </wgt>
<wgt id='1719'> +1.2235007e-12 </wgt>
<wgt id='1720'> +1.2435098e-12 </wgt>
<wgt id='1721'> +1.1931237e-12 </wgt>
<wgt id='1722'> +1.2042285e-12 </wgt>
<wgt id='1723'> +1.1674490e-12 </wgt>
<wgt id='1724'> +1.1667697e-12 </wgt>
<wgt id='1725'> +1.2350944e-12 </wgt>
<wgt id='1726'> +1.2844011e-12 </wgt>
<wgt id='1727'> +1.1848243e-12 </wgt>
<wgt id='1728'> +1.2165799e-12 </wgt>
<wgt id='1729'> +1.2257232e-12 </wgt>
<wgt id='1730'> +1.1911580e-12 </wgt>
<wgt id='1731'> +1.1815493e-12 </wgt>
<wgt id='1732'> +1.2350468e-12 </wgt>
<wgt id='1733'> +1.2434934e-12 </wgt>
<wgt id='1734'> +1.2360469e-12 </wgt>
<wgt id='1735'> +1.1878861e-12 </wgt>
<wgt id='1736'> +1.2890927e-12 </wgt>
<wgt id='1737'> +1.2426237e-12 </wgt>
<wgt id='1738'> +1.2466908e-12 </wgt>
<wgt id='1739'> +1.1754291e-12 </wgt>
<wgt id='1740'> +1.2174383e-12 </wgt>
<wgt id='1741'> +1.2279216e-12 </wgt>
<wgt id='1742'> +1.2223690e-12 </wgt>
<wgt id='1743'> +1.2495994e-12 </wgt>
<wgt id='1744'> +1.2567279e-12 </wgt>
<wgt id='1745'> +1.1341295e-12 </wgt>
<wgt id='1746'> +1.2498428e-12 </wgt>
<wgt id='1747'> +1.2277893e-12 </wgt>
<wgt id='1748'> +1.2384858e-12 </wgt>
<wgt id='1749'> +1.2488041e-12 </wgt>
<wgt id='1750'> +1.2365840e-12 </wgt>
<wgt id='1751'> +1.1727523e-12 </wgt>
<wgt id='1752'> +1.2005903e-12 </wgt>
<wgt id='1753'> +1.2385859e-12 </wgt>
<wgt id='1754'> +1.2210738e-12 </wgt>
<wgt id='1755'> +1.2570940e-12 </wgt>
<wgt id='1756'> +1.2355829e-12 </wgt>
<wgt id='1757'> +1.2021188e-12 </wgt>
<wgt id='1758'> +1.2396579e-12 </wgt>
<wgt id='1759'> +1.2358729e-12 </wgt>
<wgt id='1760'> +1.1799958e-12 </wgt>
<wgt id='1761'> +1.1924080e-12 </wgt>
<wgt id='1762'> +1.2339503e-12 </wgt>
<wgt id='1763'> +1.2441155e-12 </wgt>
<wgt id='1764'> +1.2136703e-12 </wgt>
<wgt id='1765'> +1.2240486e-12 </wgt>
<wgt id='1766'> +1.2180222e-12 </wgt>
<wgt id='1767'> +1.2216855e-12 </wgt>
<wgt id='1768'> +1.2201841e-12 </wgt>
<wgt id='1769'> +1.1855922e-12 </wgt>
<wgt id='1770'> +1.2700667e-12 </wgt>
<wgt id='1771'> +1.2208922e-12 </wgt>
<wgt id='1772'> +1.2633480e-12 </wgt>
<wgt id='1773'> +1.2141375e-12 </wgt>
<wgt id='1774'> +1.2262585e-12 </wgt>
<wgt id='1775'> +1.2301525e-12 </wgt>
<wgt id='1776'> +1.2488609e-12 </wgt>
<wgt id='1777'> +1.1604376e-12 </wgt>
<wgt id='1778'> +1.2088092e-12 </wgt>
<wgt id='1779'> +1.2364592e-12 </wgt>
<wgt id='1780'> +1.2110244e-12 </wgt>
<wgt id='1781'> +1.2144673e-12 </wgt>
<wgt id='1782'> +1.1922200e-12 </wgt>
<wgt id='1783'> +1.2193709e-12 </wgt>
<wgt id='1784'> +1.2305783e-12 </wgt>
<wgt id='1785'> +1.1858376e-12 </wgt>
<wgt id='1786'> +1.1220859e-12 </wgt>
<wgt id='1787'> +1.2522397e-12 </wgt>
<wgt id='1788'> +1.2280314e-12 </wgt>
<wgt id='1789'> +1.1408973e-12 </wgt>
<wgt id='1790'> +1.2209342e-12 </wgt>
<wgt id='1791'> +1.2428483e-12 </wgt>
<wgt id='1792'> +1.1878486e-12 </wgt>
<wgt id='1793'> +1.2257791e-12 </wgt>
<wgt id='1794'> +1.2210909e-12 </wgt>
<wgt id='1795'> +1.2292946e-12 </wgt>
<wgt id='1796'> +1.2079436e-12 </wgt>
<wgt id='1797'> +1.2264912e-12 </wgt>
<wgt id='1798'> +1.2097929e-12 </wgt>
<wgt id='1799'> +1.2168639e-12 </wgt>
<wgt id='1800'> +1.2069037e-12 </wgt>
<wgt id='1801'> +1.2176847e-12 </wgt>
<wgt id='1802'> +1.2077271e-12 </wgt>
<wgt id='1803'> +1.2351009e-12 </wgt>
<wgt id='1804'> +1.1958677e-12 </wgt>
<wgt id='1805'> +1.2333474e-12 </wgt>
<wgt id='1806'> +1.2117935e-12 </wgt>
<wgt id='1807'> +1.2314409e-12 </wgt>
<wgt id='1808'> +1.2216873e-12 </wgt>
<wgt id='1809'> +1.2034814e-12 </wgt>
<wgt id='1810'> +1.2220837e-12 </wgt>
<wgt id='1811'> +1.2705964e-12 </wgt>
<wgt id='1812'> +1.2470102e-12 </wgt>
<wgt id='1813'> +1.2360024e-12 </wgt>
<wgt id='1814'> +1.3158647e-12 </wgt>
<wgt id='1815'> +1.4712664e-12 </wgt>
<wgt id='1816'> +1.2193539e-12 </wgt>
<wgt id='1817'> +1.1874025e-12 </wgt>
<wgt id='1818'> +1.2433690e-12 </wgt>
<wgt id='1819'> +1.2510550e-12 </wgt>
<wgt id='1820'> +1.2158407e-12 </wgt>
<wgt id='1821'> +1.2185245e-12 </wgt>
<wgt id='1822'> +1.2235007e-12 </wgt>
<wgt id='1823'> +1.2435098e-12 </wgt>
<wgt id='1824'> +1.1931237e-12 </wgt>
<wgt id='1825'> +1.2042285e-12 </wgt>
<wgt id='1826'> +1.1674490e-12 </wgt>
<wgt id='1827'> +1.1667697e-12 </wgt>
<wgt id='1828'> +1.2350944e-12 </wgt>
<wgt id='1829'> +1.2844011e-12 </wgt>
<wgt id='1830'> +1.1848243e-12 </wgt>
<wgt id='1831'> +1.2165799e-12 </wgt>
<wgt id='1832'> +1.2257232e-12 </wgt>
<wgt id='1833'> +1.1911580e-12 </wgt>
<wgt id='1834'> +1.1815493e-12 </wgt>
<wgt id='1835'> +1.2350468e-12 </wgt>
<wgt id='1836'> +1.2434934e-12 </wgt>
<wgt id='1837'> +1.2360469e-12 </wgt>
<wgt id='1838'> +1.1878861e-12 </wgt>
<wgt id='1839'> +1.2890927e-12 </wgt>
<wgt id='1840'> +1.2426237e-12 </wgt>
<wgt id='1841'> +1.2466908e-12 </wgt>
<wgt id='1842'> +1.1754291e-12 </wgt>
<wgt id='1843'> +1.2174383e-12 </wgt>
<wgt id='1844'> +1.2279216e-12 </wgt>
<wgt id='1845'> +1.2223690e-12 </wgt>
<wgt id='1846'> +1.2495994e-12 </wgt>
<wgt id='1847'> +1.2567279e-12 </wgt>
<wgt id='1848'> +1.1341295e-12 </wgt>
<wgt id='1849'> +1.2498428e-12 </wgt>
<wgt id='1850'> +1.2277893e-12 </wgt>
<wgt id='1851'> +1.2384858e-12 </wgt>
<wgt id='1852'> +1.2488041e-12 </wgt>
<wgt id='1853'> +1.2365840e-12 </wgt>
<wgt id='1854'> +1.1727523e-12 </wgt>
<wgt id='1855'> +1.2005903e-12 </wgt>
<wgt id='1856'> +1.2385859e-12 </wgt>
<wgt id='1857'> +1.2210738e-12 </wgt>
<wgt id='1858'> +1.2570940e-12 </wgt>
<wgt id='1859'> +1.2355829e-12 </wgt>
<wgt id='1860'> +1.2021188e-12 </wgt>
<wgt id='1861'> +1.2396579e-12 </wgt>
<wgt id='1862'> +1.2358729e-12 </wgt>
<wgt id='1863'> +1.1799958e-12 </wgt>
<wgt id='1864'> +1.1924080e-12 </wgt>
<wgt id='1865'> +1.2339503e-12 </wgt>
<wgt id='1866'> +1.2441155e-12 </wgt>
<wgt id='1867'> +1.2136703e-12 </wgt>
<wgt id='1868'> +1.2240486e-12 </wgt>
<wgt id='1869'> +1.2180222e-12 </wgt>
<wgt id='1870'> +1.2216855e-12 </wgt>
<wgt id='1871'> +1.2201841e-12 </wgt>
<wgt id='1872'> +1.1855922e-12 </wgt>
<wgt id='1873'> +1.2700667e-12 </wgt>
<wgt id='1874'> +1.2208922e-12 </wgt>
<wgt id='1875'> +1.2633480e-12 </wgt>
<wgt id='1876'> +1.2141375e-12 </wgt>
<wgt id='1877'> +1.2262585e-12 </wgt>
<wgt id='1878'> +1.2301525e-12 </wgt>
<wgt id='1879'> +1.2488609e-12 </wgt>
<wgt id='1880'> +1.1604376e-12 </wgt>
<wgt id='1881'> +1.2088092e-12 </wgt>
<wgt id='1882'> +1.2364592e-12 </wgt>
<wgt id='1883'> +1.2110244e-12 </wgt>
<wgt id='1884'> +1.2144673e-12 </wgt>
<wgt id='1885'> +1.1922200e-12 </wgt>
<wgt id='1886'> +1.2193709e-12 </wgt>
<wgt id='1887'> +1.2305783e-12 </wgt>
<wgt id='1888'> +1.1858376e-12 </wgt>
<wgt id='1889'> +1.1220859e-12 </wgt>
<wgt id='1890'> +1.2522397e-12 </wgt>
<wgt id='1891'> +1.2280314e-12 </wgt>
<wgt id='1892'> +1.1408973e-12 </wgt>
<wgt id='1893'> +1.2209342e-12 </wgt>
<wgt id='1894'> +1.2428483e-12 </wgt>
<wgt id='1895'> +1.1878486e-12 </wgt>
<wgt id='1896'> +1.2257791e-12 </wgt>
<wgt id='1897'> +1.2210909e-12 </wgt>
<wgt id='1898'> +1.2292946e-12 </wgt>
<wgt id='1899'> +1.2079436e-12 </wgt>
<wgt id='1900'> +1.2264912e-12 </wgt>
<wgt id='1901'> +1.2097929e-12 </wgt>
<wgt id='1902'> +1.2168639e-12 </wgt>
<wgt id='1903'> +1.2069037e-12 </wgt>
<wgt id='1904'> +1.2176847e-12 </wgt>
<wgt id='1905'> +1.2077271e-12 </wgt>
<wgt id='1906'> +1.2351009e-12 </wgt>
<wgt id='1907'> +1.1958677e-12 </wgt>
<wgt id='1908'> +1.2333474e-12 </wgt>
<wgt id='1909'> +1.2117935e-12 </wgt>
<wgt id='1910'> +1.2314409e-12 </wgt>
<wgt id='1911'> +1.2216873e-12 </wgt>
<wgt id='1912'> +1.2034814e-12 </wgt>
<wgt id='1913'> +1.2220837e-12 </wgt>
<wgt id='1914'> +1.2705964e-12 </wgt>
<wgt id='1915'> +1.2470102e-12 </wgt>
<wgt id='1916'> +1.2360024e-12 </wgt>
<wgt id='1917'> +1.2115983e-12 </wgt>
<wgt id='1918'> +1.2229987e-12 </wgt>
<wgt id='1919'> +1.2614256e-12 </wgt>
</rwgt>
</event>
<event>
 9      1 +1.5607000e-12 2.69332900e+01 7.81860800e-03 1.48279200e-01
       -2 -1    0    0    0  501 -0.0000000000e+00 +0.0000000000e+00 +1.3023026259e+02 1.3023026259e+02 0.0000000000e+00 0.0000e+00 -1.0000e+00
       21 -1    0    0  501  502 +0.0000000000e+00 -0.0000000000e+00 -5.5093471165e+00 5.5093471165e+00 0.0000000000e+00 0.0000e+00 -1.0000e+00
     1023  2    1    2    0    0 -1.5128029485e+01 +1.6477013078e+01 +9.3706588826e+01 9.7500393011e+01 1.5001753622e+01 0.0000e+00 0.0000e+00
  1000023  2    3    3    0    0 -1.1604482419e+01 +1.5831233653e+01 +6.4167193913e+01 6.7327420555e+01 5.5009828849e+00 0.0000e+00 0.0000e+00
       -2  1    1    2    0  502 +1.5128029485e+01 -1.6477013078e+01 +3.1014326646e+01 3.8239216695e+01 0.0000000000e+00 0.0000e+00 -1.0000e+00
  1000022  1    4    4    0    0 -1.1178005763e+01 +1.5101815665e+01 +6.1190915151e+01 6.4205457293e+01 5.0000000000e+00 0.0000e+00 -1.0000e+00
      -13  1    4    4    0    0 -2.1620489062e-01 +2.1656191021e-01 +1.6362836798e+00 1.6680049120e+00 1.0570000000e-01 0.0000e+00 -1.0000e+00
       13  1    4    4    0    0 -2.1027176549e-01 +5.1285607772e-01 +1.3399950823e+00 1.4539583496e+00 1.0570000000e-01 0.0000e+00 1.0000e+00
  1000022  1    3    3    0    0 -3.5235470660e+00 +6.4577942494e-01 +2.9539394913e+01 3.0172972456e+01 5.0000000000e+00 0.0000e+00 1.0000e+00
<mgrwt>
<rscale>  1 0.26933285E+02</rscale>
<asrwt>0</asrwt>
<pdfrwt beam="1">  1       21 0.84759196E-03 0.26933285E+02</pdfrwt>
<pdfrwt beam="2">  1       -2 0.20035423E-01 0.26933285E+02</pdfrwt>
<totfact> 0.60028685E+06</totfact>
</mgrwt>
<rwgt>
<wgt id='1001'> +1.5607000e-12 </wgt>
<wgt id='1002'> +1.6464846e-12 </wgt>
<wgt id='1003'> +1.6548542e-12 </wgt>
<wgt id='1004'> +1.5408693e-12 </wgt>
<wgt id='1005'> +1.6657736e-12 </wgt>
<wgt id='1006'> +1.3615081e-12 </wgt>
<wgt id='1007'> +1.4561255e-12 </wgt>
<wgt id='1008'> +1.4657658e-12 </wgt>
<wgt id='1009'> +1.3403281e-12 </wgt>
<wgt id='1010'> +1.4784683e-12 </wgt>
<wgt id='1011'> +1.8316565e-12 </wgt>
<wgt id='1012'> +1.8966605e-12 </wgt>
<wgt id='1013'> +1.9024550e-12 </wgt>
<wgt id='1014'> +1.8156399e-12 </wgt>
<wgt id='1015'> +1.9097842e-12 </wgt>
<wgt id='1016'> +1.9101936e-12 </wgt>
<wgt id='1017'> +1.9371039e-12 </wgt>
<wgt id='1018'> +1.9389310e-12 </wgt>
<wgt id='1019'> +1.9024550e-12 </wgt>
<wgt id='1020'> +1.9410085e-12 </wgt>
<wgt id='1021'> +1.6663959e-12 </wgt>
<wgt id='1022'> +1.7131447e-12 </wgt>
<wgt id='1023'> +1.7173832e-12 </wgt>
<wgt id='1024'> +1.6548542e-12 </wgt>
<wgt id='1025'> +1.7227548e-12 </wgt>
<wgt id='1026'> +2.2418264e-12 </wgt>
<wgt id='1027'> +2.2314381e-12 </wgt>
<wgt id='1028'> +2.2290357e-12 </wgt>
<wgt id='1029'> +2.2417043e-12 </wgt>
<wgt id='1030'> +2.2253368e-12 </wgt>
<wgt id='1031'> +1.1803724e-12 </wgt>
<wgt id='1032'> +1.3253261e-12 </wgt>
<wgt id='1033'> +1.3403281e-12 </wgt>
<wgt id='1034'> +1.1483051e-12 </wgt>
<wgt id='1035'> +1.3603407e-12 </wgt>
<wgt id='1036'> +1.0297217e-12 </wgt>
<wgt id='1037'> +1.1720978e-12 </wgt>
<wgt id='1038'> +1.1871784e-12 </wgt>
<wgt id='1039'> +9.9885541e-13 </wgt>
<wgt id='1040'> +1.2073794e-12 </wgt>
<wgt id='1041'> +1.3852994e-12 </wgt>
<wgt id='1042'> +1.5267034e-12 </wgt>
<wgt id='1043'> +1.5408693e-12 </wgt>
<wgt id='1044'> +1.3530729e-12 </wgt>
<wgt id='1045'> +1.5596100e-12 </wgt>
<wgt id='1046'> +1.5607000e-12 </wgt>
<wgt id='1047'> +1.7351551e-12 </wgt>
<wgt id='1048'> +1.5988603e-12 </wgt>
<wgt id='1049'> +1.5629211e-12 </wgt>
<wgt id='1050'> +1.5653232e-12 </wgt>
<wgt id='1051'> +1.4710171e-12 </wgt>
<wgt id='1052'> +1.5801644e-12 </wgt>
<wgt id='1053'> +1.5802333e-12 </wgt>
<wgt id='1054'> +1.5190734e-12 </wgt>
<wgt id='1055'> +1.4987129e-12 </wgt>
<wgt id='1056'> +1.5046324e-12 </wgt>
<wgt id='1057'> +1.5567705e-12 </wgt>
<wgt id='1058'> +1.4946538e-12 </wgt>
<wgt id='1059'> +1.5415650e-12 </wgt>
<wgt id='1060'> +1.5669500e-12 </wgt>
<wgt id='1061'> +1.5758609e-12 </wgt>
<wgt id='1062'> +1.5526035e-12 </wgt>
<wgt id='1063'> +1.5670735e-12 </wgt>
<wgt id='1064'> +1.5173254e-12 </wgt>
<wgt id='1065'> +1.5644467e-12 </wgt>
<wgt id='1066'> +1.4649212e-12 </wgt>
<wgt id='1067'> +1.5684415e-12 </wgt>
<wgt id='1068'> +1.6345694e-12 </wgt>
<wgt id='1069'> +1.5990506e-12 </wgt>
<wgt id='1070'> +1.5346438e-12 </wgt>
<wgt id='1071'> +1.5372846e-12 </wgt>
<wgt id='1072'> +1.6040379e-12 </wgt>
<wgt id='1073'> +1.6266241e-12 </wgt>
<wgt id='1074'> +1.5278515e-12 </wgt>
<wgt id='1075'> +1.5406866e-12 </wgt>
<wgt id='1076'> +1.5844246e-12 </wgt>
<wgt id='1077'> +1.6306877e-12 </wgt>
<wgt id='1078'> +1.5505195e-12 </wgt>
<wgt id='1079'> +1.6007012e-12 </wgt>
<wgt id='1080'> +1.5015385e-12 </wgt>
<wgt id='1081'> +1.5660926e-12 </wgt>
<wgt id='1082'> +1.5835091e-12 </wgt>
<wgt id='1083'> +1.5423958e-12 </wgt>
<wgt id='1084'> +1.5173311e-12 </wgt>
<wgt id='1085'> +1.5505336e-12 </wgt>
<wgt id='1086'> +1.6294432e-12 </wgt>
<wgt id='1087'> +1.5538425e-12 </wgt>
<wgt id='1088'> +1.5943646e-12 </wgt>
<wgt id='1089'> +1.5838255e-12 </wgt>
<wgt id='1090'> +1.5828875e-12 </wgt>
<wgt id='1091'> +1.5719232e-12 </wgt>
<wgt id='1092'> +1.6027479e-12 </wgt>
<wgt id='1093'> +1.5895996e-12 </wgt>
<wgt id='1094'> +1.5486399e-12 </wgt>
<wgt id='1095'> +1.5834003e-12 </wgt>
<wgt id='1096'> +1.5399367e-12 </wgt>
<wgt id='1097'> +1.5143754e-12 </wgt>
<wgt id='1098'> +1.5511305e-12 </wgt>
<wgt id='1099'> +1.5243523e-12 </wgt>
<wgt id='1100'> +1.6105085e-12 </wgt>
<wgt id='1101'> +1.6075666e-12 </wgt>
<wgt id='1102'> +1.5730181e-12 </wgt>
<wgt id='1103'> +1.6196222e-12 </wgt>
<wgt id='1104'> +1.5539464e-12 </wgt>
<wgt id='1105'> +1.5082160e-12 </wgt>
<wgt id='1106'> +1.6103310e-12 </wgt>
<wgt id='1107'> +1.6338807e-12 </wgt>
<wgt id='1108'> +1.5350432e-12 </wgt>
<wgt id='1109'> +1.5184470e-12 </wgt>
<wgt id='1110'> +1.4997451e-12 </wgt>
<wgt id='1111'> +1.5809561e-12 </wgt>
<wgt id='1112'> +1.5669872e-12 </wgt>
<wgt id='1113'> +1.6009965e-12 </wgt>
<wgt id='1114'> +1.6014736e-12 </wgt>
<wgt id='1115'> +1.5788639e-12 </wgt>
<wgt id='1116'> +1.5784770e-12 </wgt>
<wgt id='1117'> +1.5170433e-12 </wgt>
<wgt id='1118'> +1.5340164e-12 </wgt>
<wgt id='1119'> +1.4789005e-12 </wgt>
<wgt id='1120'> +1.4973923e-12 </wgt>
<wgt id='1121'> +1.4967931e-12 </wgt>
<wgt id='1122'> +1.6111905e-12 </wgt>
<wgt id='1123'> +1.5636867e-12 </wgt>
<wgt id='1124'> +1.5574472e-12 </wgt>
<wgt id='1125'> +1.5234764e-12 </wgt>
<wgt id='1126'> +1.5423245e-12 </wgt>
<wgt id='1127'> +1.6040840e-12 </wgt>
<wgt id='1128'> +1.5526035e-12 </wgt>
<wgt id='1129'> +1.5675188e-12 </wgt>
<wgt id='1130'> +1.5265085e-12 </wgt>
<wgt id='1131'> +1.5792230e-12 </wgt>
<wgt id='1132'> +1.6298986e-12 </wgt>
<wgt id='1133'> +1.4992190e-12 </wgt>
<wgt id='1134'> +1.5954162e-12 </wgt>
<wgt id='1135'> +1.4469034e-12 </wgt>
<wgt id='1136'> +1.5226738e-12 </wgt>
<wgt id='1137'> +1.5539895e-12 </wgt>
<wgt id='1138'> +1.4719381e-12 </wgt>
<wgt id='1139'> +1.5237981e-12 </wgt>
<wgt id='1140'> +1.5513561e-12 </wgt>
<wgt id='1141'> +1.6008163e-12 </wgt>
<wgt id='1142'> +1.5792120e-12 </wgt>
<wgt id='1143'> +1.6113072e-12 </wgt>
<wgt id='1144'> +1.5677805e-12 </wgt>
<wgt id='1145'> +1.6223531e-12 </wgt>
<wgt id='1146'> +1.5735416e-12 </wgt>
<wgt id='1147'> +1.2257643e-12 </wgt>
<wgt id='1148'> +1.2556863e-12 </wgt>
<wgt id='1149'> +1.2543118e-12 </wgt>
<wgt id='1150'> +1.2766588e-12 </wgt>
<wgt id='1151'> +1.4492705e-12 </wgt>
<wgt id='1152'> +1.8799602e-12 </wgt>
<wgt id='1153'> +1.8688386e-12 </wgt>
<wgt id='1154'> +1.8865012e-12 </wgt>
<wgt id='1155'> +1.8758962e-12 </wgt>
<wgt id='1156'> +1.8820848e-12 </wgt>
<wgt id='1157'> +1.8873684e-12 </wgt>
<wgt id='1158'> +1.8699490e-12 </wgt>
<wgt id='1159'> +1.8863610e-12 </wgt>
<wgt id='1160'> +1.8759385e-12 </wgt>
<wgt id='1161'> +1.8782903e-12 </wgt>
<wgt id='1162'> +1.8811549e-12 </wgt>
<wgt id='1163'> +1.8839458e-12 </wgt>
<wgt id='1164'> +1.8760287e-12 </wgt>
<wgt id='1165'> +1.8695484e-12 </wgt>
<wgt id='1166'> +1.8901610e-12 </wgt>
<wgt id='1167'> +1.8872114e-12 </wgt>
<wgt id='1168'> +1.8693947e-12 </wgt>
<wgt id='1169'> +1.8829176e-12 </wgt>
<wgt id='1170'> +1.8777951e-12 </wgt>
<wgt id='1171'> +1.8684062e-12 </wgt>
<wgt id='1172'> +1.8937674e-12 </wgt>
<wgt id='1173'> +1.8606504e-12 </wgt>
<wgt id='1174'> +1.8979410e-12 </wgt>
<wgt id='1175'> +1.8860985e-12 </wgt>
<wgt id='1176'> +1.8738607e-12 </wgt>
<wgt id='1177'> +1.8829165e-12 </wgt>
<wgt id='1178'> +1.8713237e-12 </wgt>
<wgt id='1179'> +1.8798915e-12 </wgt>
<wgt id='1180'> +1.8703571e-12 </wgt>
<wgt id='1181'> +1.8750528e-12 </wgt>
<wgt id='1182'> +1.8846681e-12 </wgt>
<wgt id='1183'> +1.8785188e-12 </wgt>
<wgt id='1184'> +1.8800010e-12 </wgt>
<wgt id='1185'> +1.8713695e-12 </wgt>
<wgt id='1186'> +1.8858358e-12 </wgt>
<wgt id='1187'> +1.8801824e-12 </wgt>
<wgt id='1188'> +1.8799449e-12 </wgt>
<wgt id='1189'> +1.8769382e-12 </wgt>
<wgt id='1190'> +1.8606955e-12 </wgt>
<wgt id='1191'> +1.8723324e-12 </wgt>
<wgt id='1192'> +1.8859556e-12 </wgt>
<wgt id='1193'> +1.2983173e-12 </wgt>
<wgt id='1194'> +1.2921715e-12 </wgt>
<wgt id='1195'> +1.3033509e-12 </wgt>
<wgt id='1196'> +1.3070358e-12 </wgt>
<wgt id='1197'> +1.2886307e-12 </wgt>
<wgt id='1198'> +1.2969350e-12 </wgt>
<wgt id='1199'> +1.3004447e-12 </wgt>
<wgt id='1200'> +1.2982921e-12 </wgt>
<wgt id='1201'> +1.2983504e-12 </wgt>
<wgt id='1202'> +1.2972811e-12 </wgt>
<wgt id='1203'> +1.2997672e-12 </wgt>
<wgt id='1204'> +1.2920930e-12 </wgt>
<wgt id='1205'> +1.3020773e-12 </wgt>
<wgt id='1206'> +1.3019124e-12 </wgt>
<wgt id='1207'> +1.2934258e-12 </wgt>
<wgt id='1208'> +1.2902626e-12 </wgt>
<wgt id='1209'> +1.3013038e-12 </wgt>
<wgt id='1210'> +1.2980896e-12 </wgt>
<wgt id='1211'> +1.2902392e-12 </wgt>
<wgt id='1212'> +1.2996899e-12 </wgt>
<wgt id='1213'> +1.2970510e-12 </wgt>
<wgt id='1214'> +1.2802397e-12 </wgt>
<wgt id='1215'> +1.3270217e-12 </wgt>
<wgt id='1216'> +1.2993146e-12 </wgt>
<wgt id='1217'> +1.2965189e-12 </wgt>
<wgt id='1218'> +1.3048708e-12 </wgt>
<wgt id='1219'> +1.2948108e-12 </wgt>
<wgt id='1220'> +1.3071374e-12 </wgt>
<wgt id='1221'> +1.2943593e-12 </wgt>
<wgt id='1222'> +1.3100170e-12 </wgt>
<wgt id='1223'> +1.2772346e-12 </wgt>
<wgt id='1224'> +1.2999160e-12 </wgt>
<wgt id='1225'> +1.2977145e-12 </wgt>
<wgt id='1226'> +1.2921957e-12 </wgt>
<wgt id='1227'> +1.3025531e-12 </wgt>
<wgt id='1228'> +1.3030434e-12 </wgt>
<wgt id='1229'> +1.2945561e-12 </wgt>
<wgt id='1230'> +1.2999818e-12 </wgt>
<wgt id='1231'> +1.2921278e-12 </wgt>
<wgt id='1232'> +1.3030982e-12 </wgt>
<wgt id='1233'> +1.2969467e-12 </wgt>
<wgt id='1234'> +1.2983173e-12 </wgt>
<wgt id='1235'> +1.2904881e-12 </wgt>
<wgt id='1236'> +1.2935462e-12 </wgt>
<wgt id='1237'> +1.2961436e-12 </wgt>
<wgt id='1238'> +1.3007652e-12 </wgt>
<wgt id='1239'> +1.3025712e-12 </wgt>
<wgt id='1240'> +1.3042732e-12 </wgt>
<wgt id='1241'> +1.2710740e-12 </wgt>
<wgt id='1242'> +1.2613001e-12 </wgt>
<wgt id='1243'> +1.2807057e-12 </wgt>
<wgt id='1244'> +1.2642335e-12 </wgt>
<wgt id='1245'> +1.2760563e-12 </wgt>
<wgt id='1246'> +1.2690533e-12 </wgt>
<wgt id='1247'> +1.2727951e-12 </wgt>
<wgt id='1248'> +1.2709895e-12 </wgt>
<wgt id='1249'> +1.2711513e-12 </wgt>
<wgt id='1250'> +1.2757297e-12 </wgt>
<wgt id='1251'> +1.2677639e-12 </wgt>
<wgt id='1252'> +1.2684735e-12 </wgt>
<wgt id='1253'> +1.2730514e-12 </wgt>
<wgt id='1254'> +1.2662274e-12 </wgt>
<wgt id='1255'> +1.2738767e-12 </wgt>
<wgt id='1256'> +1.2746761e-12 </wgt>
<wgt id='1257'> +1.2621070e-12 </wgt>
<wgt id='1258'> +1.2916915e-12 </wgt>
<wgt id='1259'> +1.2519844e-12 </wgt>
<wgt id='1260'> +1.2745633e-12 </wgt>
<wgt id='1261'> +1.2672519e-12 </wgt>
<wgt id='1262'> +1.2660634e-12 </wgt>
<wgt id='1263'> +1.2726936e-12 </wgt>
<wgt id='1264'> +1.2782881e-12 </wgt>
<wgt id='1265'> +1.2675158e-12 </wgt>
<wgt id='1266'> +1.2546154e-12 </wgt>
<wgt id='1267'> +1.2849787e-12 </wgt>
<wgt id='1268'> +1.2754041e-12 </wgt>
<wgt id='1269'> +1.2689670e-12 </wgt>
<wgt id='1270'> +1.2656565e-12 </wgt>
<wgt id='1271'> +1.2693323e-12 </wgt>
<wgt id='1272'> +1.2680396e-12 </wgt>
<wgt id='1273'> +1.2716982e-12 </wgt>
<wgt id='1274'> +1.2739698e-12 </wgt>
<wgt id='1275'> +1.2660864e-12 </wgt>
<wgt id='1276'> +1.2645591e-12 </wgt>
<wgt id='1277'> +1.2758408e-12 </wgt>
<wgt id='1278'> +1.2697904e-12 </wgt>
<wgt id='1279'> +1.2737644e-12 </wgt>
<wgt id='1280'> +1.2692967e-12 </wgt>
<wgt id='1281'> +1.2813273e-12 </wgt>
<wgt id='1282'> +1.2710740e-12 </wgt>
<wgt id='1283'> +1.2629986e-12 </wgt>
<wgt id='1284'> +1.2661803e-12 </wgt>
<wgt id='1285'> +1.2688264e-12 </wgt>
<wgt id='1286'> +1.2733366e-12 </wgt>
<wgt id='1287'> +1.2750235e-12 </wgt>
<wgt id='1288'> +1.2764542e-12 </wgt>
<wgt id='1289'> +1.3037412e-12 </wgt>
<wgt id='1290'> +1.3001903e-12 </wgt>
<wgt id='1291'> +1.3075930e-12 </wgt>
<wgt id='1292'> +1.2981466e-12 </wgt>
<wgt id='1293'> +1.3078033e-12 </wgt>
<wgt id='1294'> +1.2905257e-12 </wgt>
<wgt id='1295'> +1.3166725e-12 </wgt>
<wgt id='1296'> +1.3041296e-12 </wgt>
<wgt id='1297'> +1.3031148e-12 </wgt>
<wgt id='1298'> +1.3061739e-12 </wgt>
<wgt id='1299'> +1.3006650e-12 </wgt>
<wgt id='1300'> +1.3052759e-12 </wgt>
<wgt id='1301'> +1.3006673e-12 </wgt>
<wgt id='1302'> +1.3006844e-12 </wgt>
<wgt id='1303'> +1.3080039e-12 </wgt>
<wgt id='1304'> +1.3017467e-12 </wgt>
<wgt id='1305'> +1.3051077e-12 </wgt>
<wgt id='1306'> +1.3002158e-12 </wgt>
<wgt id='1307'> +1.3078125e-12 </wgt>
<wgt id='1308'> +1.2963306e-12 </wgt>
<wgt id='1309'> +1.3094254e-12 </wgt>
<wgt id='1310'> +1.3083875e-12 </wgt>
<wgt id='1311'> +1.2989892e-12 </wgt>
<wgt id='1312'> +1.3013368e-12 </wgt>
<wgt id='1313'> +1.3065584e-12 </wgt>
<wgt id='1314'> +1.2905103e-12 </wgt>
<wgt id='1315'> +1.3131946e-12 </wgt>
<wgt id='1316'> +1.3098444e-12 </wgt>
<wgt id='1317'> +1.3050576e-12 </wgt>
<wgt id='1318'> +1.3147386e-12 </wgt>
<wgt id='1319'> +1.2903329e-12 </wgt>
<wgt id='1320'> +1.3286713e-12 </wgt>
<wgt id='1321'> +1.2842294e-12 </wgt>
<wgt id='1322'> +1.3000059e-12 </wgt>
<wgt id='1323'> +1.3082308e-12 </wgt>
<wgt id='1324'> +1.3053113e-12 </wgt>
<wgt id='1325'> +1.3049556e-12 </wgt>
<wgt id='1326'> +1.3021347e-12 </wgt>
<wgt id='1327'> +1.3074925e-12 </wgt>
<wgt id='1328'> +1.3028753e-12 </wgt>
<wgt id='1329'> +1.3043828e-12 </wgt>
<wgt id='1330'> +1.2908733e-12 </wgt>
<wgt id='1331'> +1.3207631e-12 </wgt>
<wgt id='1332'> +1.3279294e-12 </wgt>
<wgt id='1333'> +1.2901542e-12 </wgt>
<wgt id='1334'> +1.2968507e-12 </wgt>
<wgt id='1335'> +1.3229350e-12 </wgt>
<wgt id='1336'> +1.3042542e-12 </wgt>
<wgt id='1337'> +1.2995406e-12 </wgt>
<wgt id='1338'> +1.2993701e-12 </wgt>
<wgt id='1339'> +1.3043224e-12 </wgt>
<wgt id='1340'> +1.2841050e-12 </wgt>
<wgt id='1341'> +1.2805370e-12 </wgt>
<wgt id='1342'> +1.2878274e-12 </wgt>
<wgt id='1343'> +1.2782945e-12 </wgt>
<wgt id='1344'> +1.2879846e-12 </wgt>
<wgt id='1345'> +1.2708297e-12 </wgt>
<wgt id='1346'> +1.2965133e-12 </wgt>
<wgt id='1347'> +1.2850695e-12 </wgt>
<wgt id='1348'> +1.2829414e-12 </wgt>
<wgt id='1349'> +1.2863628e-12 </wgt>
<wgt id='1350'> +1.2818195e-12 </wgt>
<wgt id='1351'> +1.2854256e-12 </wgt>
<wgt id='1352'> +1.2812367e-12 </wgt>
<wgt id='1353'> +1.2803349e-12 </wgt>
<wgt id='1354'> +1.2907726e-12 </wgt>
<wgt id='1355'> +1.2827337e-12 </wgt>
<wgt id='1356'> +1.2848140e-12 </wgt>
<wgt id='1357'> +1.2785957e-12 </wgt>
<wgt id='1358'> +1.2906251e-12 </wgt>
<wgt id='1359'> +1.2781553e-12 </wgt>
<wgt id='1360'> +1.2892317e-12 </wgt>
<wgt id='1361'> +1.2881727e-12 </wgt>
<wgt id='1362'> +1.2789107e-12 </wgt>
<wgt id='1363'> +1.2827985e-12 </wgt>
<wgt id='1364'> +1.2856312e-12 </wgt>
<wgt id='1365'> +1.2878947e-12 </wgt>
<wgt id='1366'> +1.2722270e-12 </wgt>
<wgt id='1367'> +1.2905434e-12 </wgt>
<wgt id='1368'> +1.2840961e-12 </wgt>
<wgt id='1369'> +1.2927848e-12 </wgt>
<wgt id='1370'> +1.2734180e-12 </wgt>
<wgt id='1371'> +1.3024934e-12 </wgt>
<wgt id='1372'> +1.2629341e-12 </wgt>
<wgt id='1373'> +1.2748204e-12 </wgt>
<wgt id='1374'> +1.2924894e-12 </wgt>
<wgt id='1375'> +1.2852621e-12 </wgt>
<wgt id='1376'> +1.2856498e-12 </wgt>
<wgt id='1377'> +1.2831632e-12 </wgt>
<wgt id='1378'> +1.2875139e-12 </wgt>
<wgt id='1379'> +1.2830919e-12 </wgt>
<wgt id='1380'> +1.2849364e-12 </wgt>
<wgt id='1381'> +1.2719421e-12 </wgt>
<wgt id='1382'> +1.2986116e-12 </wgt>
<wgt id='1383'> +1.3093244e-12 </wgt>
<wgt id='1384'> +1.2704446e-12 </wgt>
<wgt id='1385'> +1.2775977e-12 </wgt>
<wgt id='1386'> +1.3011836e-12 </wgt>
<wgt id='1387'> +1.2839809e-12 </wgt>
<wgt id='1388'> +1.2786149e-12 </wgt>
<wgt id='1389'> +1.2776140e-12 </wgt>
<wgt id='1390'> +1.2851672e-12 </wgt>
<wgt id='1391'> +1.2607818e-12 </wgt>
<wgt id='1392'> +1.2319696e-12 </wgt>
<wgt id='1393'> +1.2428287e-12 </wgt>
<wgt id='1394'> +1.2529066e-12 </wgt>
<wgt id='1395'> +1.2731160e-12 </wgt>
<wgt id='1396'> +1.2630874e-12 </wgt>
<wgt id='1397'> +1.2169351e-12 </wgt>
<wgt id='1398'> +1.2265549e-12 </wgt>
<wgt id='1399'> +1.2349609e-12 </wgt>
<wgt id='1400'> +1.2437470e-12 </wgt>
<wgt id='1401'> +1.2534639e-12 </wgt>
<wgt id='1402'> +1.2728529e-12 </wgt>
<wgt id='1403'> +1.2821965e-12 </wgt>
<wgt id='1404'> +1.2912619e-12 </wgt>
<wgt id='1405'> +1.2630874e-12 </wgt>
<wgt id='1406'> +1.2595368e-12 </wgt>
<wgt id='1407'> +1.2615678e-12 </wgt>
<wgt id='1408'> +1.2645068e-12 </wgt>
<wgt id='1409'> +1.2668031e-12 </wgt>
<wgt id='1410'> +1.2285475e-12 </wgt>
<wgt id='1411'> +1.2265960e-12 </wgt>
<wgt id='1412'> +1.2309790e-12 </wgt>
<wgt id='1413'> +1.2251853e-12 </wgt>
<wgt id='1414'> +1.2318454e-12 </wgt>
<wgt id='1415'> +1.2189078e-12 </wgt>
<wgt id='1416'> +1.2324002e-12 </wgt>
<wgt id='1417'> +1.2208804e-12 </wgt>
<wgt id='1418'> +1.2361546e-12 </wgt>
<wgt id='1419'> +1.2289552e-12 </wgt>
<wgt id='1420'> +1.2281132e-12 </wgt>
<wgt id='1421'> +1.2203003e-12 </wgt>
<wgt id='1422'> +1.2320594e-12 </wgt>
<wgt id='1423'> +1.2282053e-12 </wgt>
<wgt id='1424'> +1.2290048e-12 </wgt>
<wgt id='1425'> +1.2213204e-12 </wgt>
<wgt id='1426'> +1.2363299e-12 </wgt>
<wgt id='1427'> +1.2093060e-12 </wgt>
<wgt id='1428'> +1.2389923e-12 </wgt>
<wgt id='1429'> +1.2293953e-12 </wgt>
<wgt id='1430'> +1.2274937e-12 </wgt>
<wgt id='1431'> +1.2252504e-12 </wgt>
<wgt id='1432'> +1.2307220e-12 </wgt>
<wgt id='1433'> +1.2131758e-12 </wgt>
<wgt id='1434'> +1.2413674e-12 </wgt>
<wgt id='1435'> +1.2271679e-12 </wgt>
<wgt id='1436'> +1.2323357e-12 </wgt>
<wgt id='1437'> +1.2338105e-12 </wgt>
<wgt id='1438'> +1.2302032e-12 </wgt>
<wgt id='1439'> +1.2213805e-12 </wgt>
<wgt id='1440'> +1.2440340e-12 </wgt>
<wgt id='1441'> +1.2378563e-12 </wgt>
<wgt id='1442'> +1.2104113e-12 </wgt>
<wgt id='1443'> +1.2290545e-12 </wgt>
<wgt id='1444'> +1.2289006e-12 </wgt>
<wgt id='1445'> +1.2350121e-12 </wgt>
<wgt id='1446'> +1.2273110e-12 </wgt>
<wgt id='1447'> +1.2292314e-12 </wgt>
<wgt id='1448'> +1.2307117e-12 </wgt>
<wgt id='1449'> +1.2284398e-12 </wgt>
<wgt id='1450'> +1.2282320e-12 </wgt>
<wgt id='1451'> +1.2397254e-12 </wgt>
<wgt id='1452'> +1.2086933e-12 </wgt>
<wgt id='1453'> +1.2306677e-12 </wgt>
<wgt id='1454'> +1.2116041e-12 </wgt>
<wgt id='1455'> +1.2253073e-12 </wgt>
<wgt id='1456'> +1.2345404e-12 </wgt>
<wgt id='1457'> +1.2405951e-12 </wgt>
<wgt id='1458'> +1.2235508e-12 </wgt>
<wgt id='1459'> +1.2342877e-12 </wgt>
<wgt id='1460'> +1.2263178e-12 </wgt>
<wgt id='1461'> +1.2285475e-12 </wgt>
<wgt id='1462'> +1.2226960e-12 </wgt>
<wgt id='1463'> +1.2382717e-12 </wgt>
<wgt id='1464'> +1.2301894e-12 </wgt>
<wgt id='1465'> +1.1866370e-12 </wgt>
<wgt id='1466'> +1.1960428e-12 </wgt>
<wgt id='1467'> +1.2055530e-12 </wgt>
<wgt id='1468'> +1.2131584e-12 </wgt>
<wgt id='1469'> +1.2220599e-12 </wgt>
<wgt id='1470'> +1.2384877e-12 </wgt>
<wgt id='1471'> +1.2446267e-12 </wgt>
<wgt id='1472'> +1.2526538e-12 </wgt>
<wgt id='1473'> +1.2301894e-12 </wgt>
<wgt id='1474'> +1.2265246e-12 </wgt>
<wgt id='1475'> +1.2276291e-12 </wgt>
<wgt id='1476'> +1.2317064e-12 </wgt>
<wgt id='1477'> +1.2331901e-12 </wgt>
<wgt id='1478'> +1.2465376e-12 </wgt>
<wgt id='1479'> +1.2459696e-12 </wgt>
<wgt id='1480'> +1.2474712e-12 </wgt>
<wgt id='1481'> +1.2547687e-12 </wgt>
<wgt id='1482'> +1.2467281e-12 </wgt>
<wgt id='1483'> +1.2224102e-12 </wgt>
<wgt id='1484'> +1.2449084e-12 </wgt>
<wgt id='1485'> +1.2548031e-12 </wgt>
<wgt id='1486'> +1.2469062e-12 </wgt>
<wgt id='1487'> +1.2454011e-12 </wgt>
<wgt id='1488'> +1.2450947e-12 </wgt>
<wgt id='1489'> +1.2511336e-12 </wgt>
<wgt id='1490'> +1.2405732e-12 </wgt>
<wgt id='1491'> +1.2520872e-12 </wgt>
<wgt id='1492'> +1.2466157e-12 </wgt>
<wgt id='1493'> +1.2220497e-12 </wgt>
<wgt id='1494'> +1.2512182e-12 </wgt>
<wgt id='1495'> +1.2403906e-12 </wgt>
<wgt id='1496'> +1.2471977e-12 </wgt>
<wgt id='1497'> +1.2348932e-12 </wgt>
<wgt id='1498'> +1.2462953e-12 </wgt>
<wgt id='1499'> +1.2479750e-12 </wgt>
<wgt id='1500'> +1.2486854e-12 </wgt>
<wgt id='1501'> +1.2471928e-12 </wgt>
<wgt id='1502'> +1.2506702e-12 </wgt>
<wgt id='1503'> +1.2492996e-12 </wgt>
<wgt id='1504'> +1.2371291e-12 </wgt>
<wgt id='1505'> +1.2483332e-12 </wgt>
<wgt id='1506'> +1.2474642e-12 </wgt>
<wgt id='1507'> +1.2448350e-12 </wgt>
<wgt id='1508'> +1.2534334e-12 </wgt>
<wgt id='1509'> +1.2881654e-12 </wgt>
<wgt id='1510'> +1.2881184e-12 </wgt>
<wgt id='1511'> +1.2845464e-12 </wgt>
<wgt id='1512'> +1.2804502e-12 </wgt>
<wgt id='1513'> +1.2916829e-12 </wgt>
<wgt id='1514'> +1.2942770e-12 </wgt>
<wgt id='1515'> +1.2890026e-12 </wgt>
<wgt id='1516'> +1.2963585e-12 </wgt>
<wgt id='1517'> +1.2943671e-12 </wgt>
<wgt id='1518'> +1.2919907e-12 </wgt>
<wgt id='1519'> +1.2790435e-12 </wgt>
<wgt id='1520'> +1.2843191e-12 </wgt>
<wgt id='1521'> +1.2954848e-12 </wgt>
<wgt id='1522'> +1.2851095e-12 </wgt>
<wgt id='1523'> +1.2993501e-12 </wgt>
<wgt id='1524'> +1.2938690e-12 </wgt>
<wgt id='1525'> +1.2979958e-12 </wgt>
<wgt id='1526'> +1.2824372e-12 </wgt>
<wgt id='1527'> +1.2839062e-12 </wgt>
<wgt id='1528'> +1.2889143e-12 </wgt>
<wgt id='1529'> +1.2890297e-12 </wgt>
<wgt id='1530'> +1.2953549e-12 </wgt>
<wgt id='1531'> +1.2907782e-12 </wgt>
<wgt id='1532'> +1.2799263e-12 </wgt>
<wgt id='1533'> +1.2872832e-12 </wgt>
<wgt id='1534'> +1.2910006e-12 </wgt>
<wgt id='1535'> +1.2806024e-12 </wgt>
<wgt id='1536'> +1.2899605e-12 </wgt>
<wgt id='1537'> +1.2911358e-12 </wgt>
<wgt id='1538'> +1.2838539e-12 </wgt>
<wgt id='1539'> +1.2735946e-12 </wgt>
<wgt id='1540'> +1.2938182e-12 </wgt>
<wgt id='1541'> +1.2940923e-12 </wgt>
<wgt id='1542'> +1.2933636e-12 </wgt>
<wgt id='1543'> +1.2872658e-12 </wgt>
<wgt id='1544'> +1.2915861e-12 </wgt>
<wgt id='1545'> +1.2904033e-12 </wgt>
<wgt id='1546'> +1.2874915e-12 </wgt>
<wgt id='1547'> +1.2909893e-12 </wgt>
<wgt id='1548'> +1.2858095e-12 </wgt>
<wgt id='1549'> +1.2875947e-12 </wgt>
<wgt id='1550'> +1.2879180e-12 </wgt>
<wgt id='1551'> +1.2866042e-12 </wgt>
<wgt id='1552'> +1.2882410e-12 </wgt>
<wgt id='1553'> +1.2883565e-12 </wgt>
<wgt id='1554'> +1.2919976e-12 </wgt>
<wgt id='1555'> +1.2902457e-12 </wgt>
<wgt id='1556'> +1.2859796e-12 </wgt>
<wgt id='1557'> +1.2920397e-12 </wgt>
<wgt id='1558'> +1.2860890e-12 </wgt>
<wgt id='1559'> +1.2899188e-12 </wgt>
<wgt id='1560'> +1.2899715e-12 </wgt>
<wgt id='1561'> +1.2882549e-12 </wgt>
<wgt id='1562'> +1.2890832e-12 </wgt>
<wgt id='1563'> +1.2888831e-12 </wgt>
<wgt id='1564'> +1.2868877e-12 </wgt>
<wgt id='1565'> +1.2859663e-12 </wgt>
<wgt id='1566'> +1.2905007e-12 </wgt>
<wgt id='1567'> +1.2895811e-12 </wgt>
<wgt id='1568'> +1.2885957e-12 </wgt>
<wgt id='1569'> +1.2899683e-12 </wgt>
<wgt id='1570'> +1.2874582e-12 </wgt>
<wgt id='1571'> +1.2889654e-12 </wgt>
<wgt id='1572'> +1.2854380e-12 </wgt>
<wgt id='1573'> +1.2847442e-12 </wgt>
<wgt id='1574'> +1.2887216e-12 </wgt>
<wgt id='1575'> +1.2888093e-12 </wgt>
<wgt id='1576'> +1.2869665e-12 </wgt>
<wgt id='1577'> +1.2886123e-12 </wgt>
<wgt id='1578'> +1.2904217e-12 </wgt>
<wgt id='1579'> +1.2868859e-12 </wgt>
<wgt id='1580'> +1.2863054e-12 </wgt>
<wgt id='1581'> +1.2901681e-12 </wgt>
<wgt id='1582'> +1.2899584e-12 </wgt>
<wgt id='1583'> +1.2878969e-12 </wgt>
<wgt id='1584'> +1.2882960e-12 </wgt>
<wgt id='1585'> +1.2869242e-12 </wgt>
<wgt id='1586'> +1.2863548e-12 </wgt>
<wgt id='1587'> +1.2896639e-12 </wgt>
<wgt id='1588'> +1.2870336e-12 </wgt>
<wgt id='1589'> +1.2884461e-12 </wgt>
<wgt id='1590'> +1.2876666e-12 </wgt>
<wgt id='1591'> +1.2866950e-12 </wgt>
<wgt id='1592'> +1.2891049e-12 </wgt>
<wgt id='1593'> +1.2875595e-12 </wgt>
<wgt id='1594'> +1.2869686e-12 </wgt>
<wgt id='1595'> +1.2894732e-12 </wgt>
<wgt id='1596'> +1.2871747e-12 </wgt>
<wgt id='1597'> +1.2875210e-12 </wgt>
<wgt id='1598'> +1.2868764e-12 </wgt>
<wgt id='1599'> +1.2871292e-12 </wgt>
<wgt id='1600'> +1.2885570e-12 </wgt>
<wgt id='1601'> +1.2885152e-12 </wgt>
<wgt id='1602'> +1.2899324e-12 </wgt>
<wgt id='1603'> +1.2869527e-12 </wgt>
<wgt id='1604'> +1.2881896e-12 </wgt>
<wgt id='1605'> +1.2888446e-12 </wgt>
<wgt id='1606'> +1.2870993e-12 </wgt>
<wgt id='1607'> +1.2889181e-12 </wgt>
<wgt id='1608'> +1.2881603e-12 </wgt>
<wgt id='1609'> +1.2872109e-12 </wgt>
<wgt id='1610'> +1.2899930e-12 </wgt>
<wgt id='1611'> +1.2939151e-12 </wgt>
<wgt id='1612'> +1.5450211e-12 </wgt>
<wgt id='1613'> +1.5217781e-12 </wgt>
<wgt id='1614'> +1.5371403e-12 </wgt>
<wgt id='1615'> +1.5486356e-12 </wgt>
<wgt id='1616'> +1.5304162e-12 </wgt>
<wgt id='1617'> +1.6003540e-12 </wgt>
<wgt id='1618'> +1.6358055e-12 </wgt>
<wgt id='1619'> +1.5235047e-12 </wgt>
<wgt id='1620'> +1.4878585e-12 </wgt>
<wgt id='1621'> +1.5821168e-12 </wgt>
<wgt id='1622'> +1.5539656e-12 </wgt>
<wgt id='1623'> +1.5288770e-12 </wgt>
<wgt id='1624'> +1.5476246e-12 </wgt>
<wgt id='1625'> +1.5599469e-12 </wgt>
<wgt id='1626'> +1.5060171e-12 </wgt>
<wgt id='1627'> +1.5227100e-12 </wgt>
<wgt id='1628'> +1.5744822e-12 </wgt>
<wgt id='1629'> +1.6380485e-12 </wgt>
<wgt id='1630'> +1.5190298e-12 </wgt>
<wgt id='1631'> +1.5569528e-12 </wgt>
<wgt id='1632'> +1.4836334e-12 </wgt>
<wgt id='1633'> +1.4881408e-12 </wgt>
<wgt id='1634'> +1.5314523e-12 </wgt>
<wgt id='1635'> +1.5388851e-12 </wgt>
<wgt id='1636'> +1.6077605e-12 </wgt>
<wgt id='1637'> +1.5161595e-12 </wgt>
<wgt id='1638'> +1.5321574e-12 </wgt>
<wgt id='1639'> +1.5055014e-12 </wgt>
<wgt id='1640'> +1.4690587e-12 </wgt>
<wgt id='1641'> +1.5173806e-12 </wgt>
<wgt id='1642'> +1.4975415e-12 </wgt>
<wgt id='1643'> +1.6024922e-12 </wgt>
<wgt id='1644'> +1.5056260e-12 </wgt>
<wgt id='1645'> +1.5348888e-12 </wgt>
<wgt id='1646'> +1.5144796e-12 </wgt>
<wgt id='1647'> +1.5067284e-12 </wgt>
<wgt id='1648'> +1.5379861e-12 </wgt>
<wgt id='1649'> +1.6856140e-12 </wgt>
<wgt id='1650'> +1.5336077e-12 </wgt>
<wgt id='1651'> +1.5334429e-12 </wgt>
<wgt id='1652'> +1.5136436e-12 </wgt>
<wgt id='1653'> +1.5893075e-12 </wgt>
<wgt id='1654'> +1.5878906e-12 </wgt>
<wgt id='1655'> +1.5711923e-12 </wgt>
<wgt id='1656'> +1.5258278e-12 </wgt>
<wgt id='1657'> +1.5232050e-12 </wgt>
<wgt id='1658'> +1.4901842e-12 </wgt>
<wgt id='1659'> +1.5476246e-12 </wgt>
<wgt id='1660'> +1.5810261e-12 </wgt>
<wgt id='1661'> +1.5593401e-12 </wgt>
<wgt id='1662'> +1.5153125e-12 </wgt>
<wgt id='1663'> +1.5572848e-12 </wgt>
<wgt id='1664'> +1.5315191e-12 </wgt>
<wgt id='1665'> +1.4540171e-12 </wgt>
<wgt id='1666'> +1.5358989e-12 </wgt>
<wgt id='1667'> +1.5961576e-12 </wgt>
<wgt id='1668'> +1.5482405e-12 </wgt>
<wgt id='1669'> +1.5393369e-12 </wgt>
<wgt id='1670'> +1.5182073e-12 </wgt>
<wgt id='1671'> +1.5217409e-12 </wgt>
<wgt id='1672'> +1.5605391e-12 </wgt>
<wgt id='1673'> +1.5735894e-12 </wgt>
<wgt id='1674'> +1.5216385e-12 </wgt>
<wgt id='1675'> +1.5675616e-12 </wgt>
<wgt id='1676'> +1.5991876e-12 </wgt>
<wgt id='1677'> +1.5702720e-12 </wgt>
<wgt id='1678'> +1.4924432e-12 </wgt>
<wgt id='1679'> +1.5657180e-12 </wgt>
<wgt id='1680'> +1.5468796e-12 </wgt>
<wgt id='1681'> +1.5673546e-12 </wgt>
<wgt id='1682'> +1.5425848e-12 </wgt>
<wgt id='1683'> +1.5394956e-12 </wgt>
<wgt id='1684'> +1.5421801e-12 </wgt>
<wgt id='1685'> +1.5297684e-12 </wgt>
<wgt id='1686'> +1.5329002e-12 </wgt>
<wgt id='1687'> +1.5723805e-12 </wgt>
<wgt id='1688'> +1.5046758e-12 </wgt>
<wgt id='1689'> +1.5319993e-12 </wgt>
<wgt id='1690'> +1.5141601e-12 </wgt>
<wgt id='1691'> +1.5404028e-12 </wgt>
<wgt id='1692'> +1.5761988e-12 </wgt>
<wgt id='1693'> +1.5483364e-12 </wgt>
<wgt id='1694'> +1.5887466e-12 </wgt>
<wgt id='1695'> +1.5285137e-12 </wgt>
<wgt id='1696'> +1.5348362e-12 </wgt>
<wgt id='1697'> +1.5867208e-12 </wgt>
<wgt id='1698'> +1.5230033e-12 </wgt>
<wgt id='1699'> +1.5648572e-12 </wgt>
<wgt id='1700'> +1.5496659e-12 </wgt>
<wgt id='1701'> +1.5554410e-12 </wgt>
<wgt id='1702'> +1.5767854e-12 </wgt>
<wgt id='1703'> +1.5669238e-12 </wgt>
<wgt id='1704'> +1.5607315e-12 </wgt>
<wgt id='1705'> +1.4519964e-12 </wgt>
<wgt id='1706'> +1.5773926e-12 </wgt>
<wgt id='1707'> +1.5505770e-12 </wgt>
<wgt id='1708'> +1.6117529e-12 </wgt>
<wgt id='1709'> +1.5561436e-12 </wgt>
<wgt id='1710'> +1.5272177e-12 </wgt>
<wgt id='1711'> +1.5312955e-12 </wgt>
<wgt id='1712'> +1.5893615e-12 </wgt>
<wgt id='1713'> +1.2269174e-12 </wgt>
<wgt id='1714'> +1.1569534e-12 </wgt>
<wgt id='1715'> +1.1958965e-12 </wgt>
<wgt id='1716'> +1.2883704e-12 </wgt>
<wgt id='1717'> +1.2425501e-12 </wgt>
<wgt id='1718'> +1.2450022e-12 </wgt>
<wgt id='1719'> +1.2152116e-12 </wgt>
<wgt id='1720'> +1.2486448e-12 </wgt>
<wgt id='1721'> +1.2193048e-12 </wgt>
<wgt id='1722'> +1.2308933e-12 </wgt>
<wgt id='1723'> +1.2446701e-12 </wgt>
<wgt id='1724'> +1.2053276e-12 </wgt>
<wgt id='1725'> +1.2321727e-12 </wgt>
<wgt id='1726'> +1.2666332e-12 </wgt>
<wgt id='1727'> +1.2535026e-12 </wgt>
<wgt id='1728'> +1.2102504e-12 </wgt>
<wgt id='1729'> +1.1908715e-12 </wgt>
<wgt id='1730'> +1.2120813e-12 </wgt>
<wgt id='1731'> +1.1651581e-12 </wgt>
<wgt id='1732'> +1.2061930e-12 </wgt>
<wgt id='1733'> +1.2280206e-12 </wgt>
<wgt id='1734'> +1.2688758e-12 </wgt>
<wgt id='1735'> +1.2462983e-12 </wgt>
<wgt id='1736'> +1.2587225e-12 </wgt>
<wgt id='1737'> +1.3004877e-12 </wgt>
<wgt id='1738'> +1.2377538e-12 </wgt>
<wgt id='1739'> +1.2318611e-12 </wgt>
<wgt id='1740'> +1.1767726e-12 </wgt>
<wgt id='1741'> +1.2522826e-12 </wgt>
<wgt id='1742'> +1.2271761e-12 </wgt>
<wgt id='1743'> +1.2401632e-12 </wgt>
<wgt id='1744'> +1.2860645e-12 </wgt>
<wgt id='1745'> +1.2285826e-12 </wgt>
<wgt id='1746'> +1.2300953e-12 </wgt>
<wgt id='1747'> +1.2519991e-12 </wgt>
<wgt id='1748'> +1.2471883e-12 </wgt>
<wgt id='1749'> +1.2102910e-12 </wgt>
<wgt id='1750'> +1.2336279e-12 </wgt>
<wgt id='1751'> +1.1631929e-12 </wgt>
<wgt id='1752'> +1.1991300e-12 </wgt>
<wgt id='1753'> +1.2533398e-12 </wgt>
<wgt id='1754'> +1.1877978e-12 </wgt>
<wgt id='1755'> +1.1971728e-12 </wgt>
<wgt id='1756'> +1.2559336e-12 </wgt>
<wgt id='1757'> +1.2284033e-12 </wgt>
<wgt id='1758'> +1.2622456e-12 </wgt>
<wgt id='1759'> +1.1870889e-12 </wgt>
<wgt id='1760'> +1.1756048e-12 </wgt>
<wgt id='1761'> +1.2174212e-12 </wgt>
<wgt id='1762'> +1.2491271e-12 </wgt>
<wgt id='1763'> +1.2547900e-12 </wgt>
<wgt id='1764'> +1.2570338e-12 </wgt>
<wgt id='1765'> +1.2349160e-12 </wgt>
<wgt id='1766'> +1.2417577e-12 </wgt>
<wgt id='1767'> +1.2323202e-12 </wgt>
<wgt id='1768'> +1.2396422e-12 </wgt>
<wgt id='1769'> +1.2130410e-12 </wgt>
<wgt id='1770'> +1.2371158e-12 </wgt>
<wgt id='1771'> +1.2530003e-12 </wgt>
<wgt id='1772'> +1.2224815e-12 </wgt>
<wgt id='1773'> +1.2372159e-12 </wgt>
<wgt id='1774'> +1.2112194e-12 </wgt>
<wgt id='1775'> +1.2224742e-12 </wgt>
<wgt id='1776'> +1.2005523e-12 </wgt>
<wgt id='1777'> +1.1538032e-12 </wgt>
<wgt id='1778'> +1.2025432e-12 </wgt>
<wgt id='1779'> +1.2700952e-12 </wgt>
<wgt id='1780'> +1.2601847e-12 </wgt>
<wgt id='1781'> +1.2298691e-12 </wgt>
<wgt id='1782'> +1.2239576e-12 </wgt>
<wgt id='1783'> +1.2526996e-12 </wgt>
<wgt id='1784'> +1.2187675e-12 </wgt>
<wgt id='1785'> +1.2075112e-12 </wgt>
<wgt id='1786'> +1.1880196e-12 </wgt>
<wgt id='1787'> +1.2866938e-12 </wgt>
<wgt id='1788'> +1.1867487e-12 </wgt>
<wgt id='1789'> +1.2770483e-12 </wgt>
<wgt id='1790'> +1.2554741e-12 </wgt>
<wgt id='1791'> +1.2066131e-12 </wgt>
<wgt id='1792'> +1.1905615e-12 </wgt>
<wgt id='1793'> +1.2659601e-12 </wgt>
<wgt id='1794'> +1.2376027e-12 </wgt>
<wgt id='1795'> +1.2515050e-12 </wgt>
<wgt id='1796'> +1.1982389e-12 </wgt>
<wgt id='1797'> +1.2450838e-12 </wgt>
<wgt id='1798'> +1.2332176e-12 </wgt>
<wgt id='1799'> +1.2098912e-12 </wgt>
<wgt id='1800'> +1.2342817e-12 </wgt>
<wgt id='1801'> +1.2163220e-12 </wgt>
<wgt id='1802'> +1.1947169e-12 </wgt>
<wgt id='1803'> +1.2594844e-12 </wgt>
<wgt id='1804'> +1.2329578e-12 </wgt>
<wgt id='1805'> +1.2460148e-12 </wgt>
<wgt id='1806'> +1.2095045e-12 </wgt>
<wgt id='1807'> +1.1785959e-12 </wgt>
<wgt id='1808'> +1.2041096e-12 </wgt>
<wgt id='1809'> +1.2040534e-12 </wgt>
<wgt id='1810'> +1.2063630e-12 </wgt>
<wgt id='1811'> +1.2419438e-12 </wgt>
<wgt id='1812'> +1.2182968e-12 </wgt>
<wgt id='1813'> +1.1812416e-12 </wgt>
<wgt id='1814'> +1.5779453e-12 </wgt>
<wgt id='1815'> +1.8277987e-12 </wgt>
<wgt id='1816'> +1.2269174e-12 </wgt>
<wgt id='1817'> +1.1569534e-12 </wgt>
<wgt id='1818'> +1.1958965e-12 </wgt>
<wgt id='1819'> +1.2883704e-12 </wgt>
<wgt id='1820'> +1.2425501e-12 </wgt>
<wgt id='1821'> +1.2450022e-12 </wgt>
<wgt id='1822'> +1.2152116e-12 </wgt>
<wgt id='1823'> +1.2486448e-12 </wgt>
<wgt id='1824'> +1.2193048e-12 </wgt>
<wgt id='1825'> +1.2308933e-12 </wgt>
<wgt id='1826'> +1.2446701e-12 </wgt>
<wgt id='1827'> +1.2053276e-12 </wgt>
<wgt id='1828'> +1.2321727e-12 </wgt>
<wgt id='1829'> +1.2666332e-12 </wgt>
<wgt id='1830'> +1.2535026e-12 </wgt>
<wgt id='1831'> +1.2102504e-12 </wgt>
<wgt id='1832'> +1.1908715e-12 </wgt>
<wgt id='1833'> +1.2120813e-12 </wgt>
<wgt id='1834'> +1.1651581e-12 </wgt>
<wgt id='1835'> +1.2061930e-12 </wgt>
<wgt id='1836'> +1.2280206e-12 </wgt>
<wgt id='1837'> +1.2688758e-12 </wgt>
<wgt id='1838'> +1.2462983e-12 </wgt>
<wgt id='1839'> +1.2587225e-12 </wgt>
<wgt id='1840'> +1.3004877e-12 </wgt>
<wgt id='1841'> +1.2377538e-12 </wgt>
<wgt id='1842'> +1.2318611e-12 </wgt>
<wgt id='1843'> +1.1767726e-12 </wgt>
<wgt id='1844'> +1.2522826e-12 </wgt>
<wgt id='1845'> +1.2271761e-12 </wgt>
<wgt id='1846'> +1.2401632e-12 </wgt>
<wgt id='1847'> +1.2860645e-12 </wgt>
<wgt id='1848'> +1.2285826e-12 </wgt>
<wgt id='1849'> +1.2300953e-12 </wgt>
<wgt id='1850'> +1.2519991e-12 </wgt>
<wgt id='1851'> +1.2471883e-12 </wgt>
<wgt id='1852'> +1.2102910e-12 </wgt>
<wgt id='1853'> +1.2336279e-12 </wgt>
<wgt id='1854'> +1.1631929e-12 </wgt>
<wgt id='1855'> +1.1991300e-12 </wgt>
<wgt id='1856'> +1.2533398e-12 </wgt>
<wgt id='1857'> +1.1877978e-12 </wgt>
<wgt id='1858'> +1.1971728e-12 </wgt>
<wgt id='1859'> +1.2559336e-12 </wgt>
<wgt id='1860'> +1.2284033e-12 </wgt>
<wgt id='1861'> +1.2622456e-12 </wgt>
<wgt id='1862'> +1.1870889e-12 </wgt>
<wgt id='1863'> +1.1756048e-12 </wgt>
<wgt id='1864'> +1.2174212e-12 </wgt>
<wgt id='1865'> +1.2491271e-12 </wgt>
<wgt id='1866'> +1.2547900e-12 </wgt>
<wgt id='1867'> +1.2570338e-12 </wgt>
<wgt id='1868'> +1.2349160e-12 </wgt>
<wgt id='1869'> +1.2417577e-12 </wgt>
<wgt id='1870'> +1.2323202e-12 </wgt>
<wgt id='1871'> +1.2396422e-12 </wgt>
<wgt id='1872'> +1.2130410e-12 </wgt>
<wgt id='1873'> +1.2371158e-12 </wgt>
<wgt id='1874'> +1.2530003e-12 </wgt>
<wgt id='1875'> +1.2224815e-12 </wgt>
<wgt id='1876'> +1.2372159e-12 </wgt>
<wgt id='1877'> +1.2112194e-12 </wgt>
<wgt id='1878'> +1.2224742e-12 </wgt>
<wgt id='1879'> +1.2005523e-12 </wgt>
<wgt id='1880'> +1.1538032e-12 </wgt>
<wgt id='1881'> +1.2025432e-12 </wgt>
<wgt id='1882'> +1.2700952e-12 </wgt>
<wgt id='1883'> +1.2601847e-12 </wgt>
<wgt id='1884'> +1.2298691e-12 </wgt>
<wgt id='1885'> +1.2239576e-12 </wgt>
<wgt id='1886'> +1.2526996e-12 </wgt>
<wgt id='1887'> +1.2187675e-12 </wgt>
<wgt id='1888'> +1.2075112e-12 </wgt>
<wgt id='1889'> +1.1880196e-12 </wgt>
<wgt id='1890'> +1.2866938e-12 </wgt>
<wgt id='1891'> +1.1867487e-12 </wgt>
<wgt id='1892'> +1.2770483e-12 </wgt>
<wgt id='1893'> +1.2554741e-12 </wgt>
<wgt id='1894'> +1.2066131e-12 </wgt>
<wgt id='1895'> +1.1905615e-12 </wgt>
<wgt id='1896'> +1.2659601e-12 </wgt>
<wgt id='1897'> +1.2376027e-12 </wgt>
<wgt id='1898'> +1.2515050e-12 </wgt>
<wgt id='1899'> +1.1982389e-12 </wgt>
<wgt id='1900'> +1.2450838e-12 </wgt>
<wgt id='1901'> +1.2332176e-12 </wgt>
<wgt id='1902'> +1.2098912e-12 </wgt>
<wgt id='1903'> +1.2342817e-12 </wgt>
<wgt id='1904'> +1.2163220e-12 </wgt>
<wgt id='1905'> +1.1947169e-12 </wgt>
<wgt id='1906'> +1.2594844e-12 </wgt>
<wgt id='1907'> +1.2329578e-12 </wgt>
<wgt id='1908'> +1.2460148e-12 </wgt>
<wgt id='1909'> +1.2095045e-12 </wgt>
<wgt id='1910'> +1.1785959e-12 </wgt>
<wgt id='1911'> +1.2041096e-12 </wgt>
<wgt id='1912'> +1.2040534e-12 </wgt>
<wgt id='1913'> +1.2063630e-12 </wgt>
<wgt id='1914'> +1.2419438e-12 </wgt>
<wgt id='1915'> +1.2182968e-12 </wgt>
<wgt id='1916'> +1.1812416e-12 </wgt>
<wgt id='1917'> +1.2197259e-12 </wgt>
<wgt id='1918'> +1.2339109e-12 </wgt>
<wgt id='1919'> +1.2231667e-12 </wgt>
</rwgt>
</event>
<event>
 9      1 +1.5607000e-12 2.52684500e+01 7.81860800e-03 1.50315800e-01
       -2 -1    0    0    0  501 -0.0000000000e+00 +0.0000000000e+00 +1.6655062342e+01 1.6655062342e+01 0.0000000000e+00 0.0000e+00 1.0000e+00
       21 -1    0    0  501  502 +0.0000000000e+00 -0.0000000000e+00 -6.1497771051e+01 6.1497771051e+01 0.0000000000e+00 0.0000e+00 1.0000e+00
     1023  2    1    2    0    0 -1.8157289131e+01 -9.1555139825e+00 -5.0991196109e+01 5.6908669908e+01 1.4999468165e+01 0.0000e+00 0.0000e+00
  1000023  2    3    3    0    0 -1.1842407006e+01 -9.2499303699e+00 -4.1392483566e+01 4.4377830623e+01 5.5000308658e+00 0.0000e+00 0.0000e+00
       -2  1    1    2    0  502 +1.8157289131e+01 +9.1555139825e+00 +6.1484874001e+00 2.1244163485e+01 0.0000000000e+00 0.0000e+00 1.0000e+00
  1000022  1    4    4    0    0 -1.0722214214e+01 -8.6930341797e+00 -3.7216576379e+01 4.0007602756e+01 5.0000000000e+00 0.0000e+00 1.0000e+00
      -11  1    4    4    0    0 -2.7556880423e-01 -1.0935610167e-02 -7.2210277867e-01 7.7297505621e-01 5.1100000000e-04 0.0000e+00 1.0000e+00
       11  1    4    4    0    0 -8.4462398846e-01 -5.4596058006e-01 -3.4538044080e+00 3.5972528111e+00 5.1100000000e-04 0.0000e+00 -1.0000e+00
  1000022  1    3    3    0    0 -6.3148821248e+00 +9.4416387370e-02 -9.5987125431e+00 1.2530839285e+01 5.0000000000e+00 0.0000e+00 1.0000e+00
<mgrwt>
<rscale>  1 0.25268451E+02</rscale>
<asrwt>0</asrwt>
<pdfrwt beam="1">  1       21 0.94611954E-02 0.25268451E+02</pdfrwt>
<pdfrwt beam="2">  1       -2 0.25623173E-02 0.25268451E+02</pdfrwt>
<totfact> 0.32317848E+06</totfact>
</mgrwt>
<rwgt>
<wgt id='1001'> +1.5607000e-12 </wgt>
<wgt id='1002'> +1.5983459e-12 </wgt>
<wgt id='1003'> +1.6004225e-12 </wgt>
<wgt id='1004'> +1.5469939e-12 </wgt>
<wgt id='1005'> +1.6120188e-12 </wgt>
<wgt id='1006'> +1.3589549e-12 </wgt>
<wgt id='1007'> +1.4110750e-12 </wgt>
<wgt id='1008'> +1.4143980e-12 </wgt>
<wgt id='1009'> +1.3416755e-12 </wgt>
<wgt id='1010'> +1.4361512e-12 </wgt>
<wgt id='1011'> +1.8364092e-12 </wgt>
<wgt id='1012'> +1.8455726e-12 </wgt>
<wgt id='1013'> +1.8453374e-12 </wgt>
<wgt id='1014'> +1.8304864e-12 </wgt>
<wgt id='1015'> +1.8390273e-12 </wgt>
<wgt id='1016'> +1.8440028e-12 </wgt>
<wgt id='1017'> +1.8294128e-12 </wgt>
<wgt id='1018'> +1.8275823e-12 </wgt>
<wgt id='1019'> +1.8453374e-12 </wgt>
<wgt id='1020'> +1.8098006e-12 </wgt>
<wgt id='1021'> +1.6056363e-12 </wgt>
<wgt id='1022'> +1.6150688e-12 </wgt>
<wgt id='1023'> +1.6151540e-12 </wgt>
<wgt id='1024'> +1.6004225e-12 </wgt>
<wgt id='1025'> +1.6123555e-12 </wgt>
<wgt id='1026'> +2.1697595e-12 </wgt>
<wgt id='1027'> +2.1123801e-12 </wgt>
<wgt id='1028'> +2.1072597e-12 </wgt>
<wgt id='1029'> +2.1835025e-12 </wgt>
<wgt id='1030'> +2.0646612e-12 </wgt>
<wgt id='1031'> +1.2410473e-12 </wgt>
<wgt id='1032'> +1.3352664e-12 </wgt>
<wgt id='1033'> +1.3416755e-12 </wgt>
<wgt id='1034'> +1.2107859e-12 </wgt>
<wgt id='1035'> +1.3860834e-12 </wgt>
<wgt id='1036'> +1.0806223e-12 </wgt>
<wgt id='1037'> +1.1788193e-12 </wgt>
<wgt id='1038'> +1.1857263e-12 </wgt>
<wgt id='1039'> +1.0500893e-12 </wgt>
<wgt id='1040'> +1.2348649e-12 </wgt>
<wgt id='1041'> +1.4602875e-12 </wgt>
<wgt id='1042'> +1.5418009e-12 </wgt>
<wgt id='1043'> +1.5469939e-12 </wgt>
<wgt id='1044'> +1.4326670e-12 </wgt>
<wgt id='1045'> +1.5812751e-12 </wgt>
<wgt id='1046'> +1.5607000e-12 </wgt>
<wgt id='1047'> +1.5812389e-12 </wgt>
<wgt id='1048'> +1.5364508e-12 </wgt>
<wgt id='1049'> +1.5329636e-12 </wgt>
<wgt id='1050'> +1.5479837e-12 </wgt>
<wgt id='1051'> +1.5512883e-12 </wgt>
<wgt id='1052'> +1.5734971e-12 </wgt>
<wgt id='1053'> +1.5441836e-12 </wgt>
<wgt id='1054'> +1.5470036e-12 </wgt>
<wgt id='1055'> +1.5354659e-12 </wgt>
<wgt id='1056'> +1.5591705e-12 </wgt>
<wgt id='1057'> +1.6027104e-12 </wgt>
<wgt id='1058'> +1.5032625e-12 </wgt>
<wgt id='1059'> +1.5580852e-12 </wgt>
<wgt id='1060'> +1.5650756e-12 </wgt>
<wgt id='1061'> +1.5887990e-12 </wgt>
<wgt id='1062'> +1.5765741e-12 </wgt>
<wgt id='1063'> +1.5919867e-12 </wgt>
<wgt id='1064'> +1.5457341e-12 </wgt>
<wgt id='1065'> +1.5688140e-12 </wgt>
<wgt id='1066'> +1.5560064e-12 </wgt>
<wgt id='1067'> +1.4997957e-12 </wgt>
<wgt id='1068'> +1.5650363e-12 </wgt>
<wgt id='1069'> +1.5553979e-12 </wgt>
<wgt id='1070'> +1.5440303e-12 </wgt>
<wgt id='1071'> +1.5366582e-12 </wgt>
<wgt id='1072'> +1.6128889e-12 </wgt>
<wgt id='1073'> +1.6102869e-12 </wgt>
<wgt id='1074'> +1.5320180e-12 </wgt>
<wgt id='1075'> +1.5836257e-12 </wgt>
<wgt id='1076'> +1.5870054e-12 </wgt>
<wgt id='1077'> +1.5635197e-12 </wgt>
<wgt id='1078'> +1.5349127e-12 </wgt>
<wgt id='1079'> +1.5622144e-12 </wgt>
<wgt id='1080'> +1.5398817e-12 </wgt>
<wgt id='1081'> +1.6131963e-12 </wgt>
<wgt id='1082'> +1.5606426e-12 </wgt>
<wgt id='1083'> +1.5653374e-12 </wgt>
<wgt id='1084'> +1.5752019e-12 </wgt>
<wgt id='1085'> +1.5277294e-12 </wgt>
<wgt id='1086'> +1.5830631e-12 </wgt>
<wgt id='1087'> +1.6026106e-12 </wgt>
<wgt id='1088'> +1.5393321e-12 </wgt>
<wgt id='1089'> +1.5671931e-12 </wgt>
<wgt id='1090'> +1.5501102e-12 </wgt>
<wgt id='1091'> +1.5577133e-12 </wgt>
<wgt id='1092'> +1.5884946e-12 </wgt>
<wgt id='1093'> +1.5592342e-12 </wgt>
<wgt id='1094'> +1.5753675e-12 </wgt>
<wgt id='1095'> +1.5848387e-12 </wgt>
<wgt id='1096'> +1.5789394e-12 </wgt>
<wgt id='1097'> +1.5153632e-12 </wgt>
<wgt id='1098'> +1.5300869e-12 </wgt>
<wgt id='1099'> +1.5912815e-12 </wgt>
<wgt id='1100'> +1.5293064e-12 </wgt>
<wgt id='1101'> +1.5927727e-12 </wgt>
<wgt id='1102'> +1.5358997e-12 </wgt>
<wgt id='1103'> +1.5559844e-12 </wgt>
<wgt id='1104'> +1.5436564e-12 </wgt>
<wgt id='1105'> +1.6090019e-12 </wgt>
<wgt id='1106'> +1.5765569e-12 </wgt>
<wgt id='1107'> +1.5576384e-12 </wgt>
<wgt id='1108'> +1.5463563e-12 </wgt>
<wgt id='1109'> +1.5653853e-12 </wgt>
<wgt id='1110'> +1.5592442e-12 </wgt>
<wgt id='1111'> +1.5768109e-12 </wgt>
<wgt id='1112'> +1.5930854e-12 </wgt>
<wgt id='1113'> +1.5392324e-12 </wgt>
<wgt id='1114'> +1.5844738e-12 </wgt>
<wgt id='1115'> +1.5567040e-12 </wgt>
<wgt id='1116'> +1.5168279e-12 </wgt>
<wgt id='1117'> +1.5691999e-12 </wgt>
<wgt id='1118'> +1.5710547e-12 </wgt>
<wgt id='1119'> +1.5274247e-12 </wgt>
<wgt id='1120'> +1.5681837e-12 </wgt>
<wgt id='1121'> +1.5686484e-12 </wgt>
<wgt id='1122'> +1.6264915e-12 </wgt>
<wgt id='1123'> +1.5265767e-12 </wgt>
<wgt id='1124'> +1.5628556e-12 </wgt>
<wgt id='1125'> +1.5777715e-12 </wgt>
<wgt id='1126'> +1.5791994e-12 </wgt>
<wgt id='1127'> +1.5227262e-12 </wgt>
<wgt id='1128'> +1.5765741e-12 </wgt>
<wgt id='1129'> +1.5674504e-12 </wgt>
<wgt id='1130'> +1.5566531e-12 </wgt>
<wgt id='1131'> +1.5608062e-12 </wgt>
<wgt id='1132'> +1.5356870e-12 </wgt>
<wgt id='1133'> +1.5494538e-12 </wgt>
<wgt id='1134'> +1.5795421e-12 </wgt>
<wgt id='1135'> +1.5773856e-12 </wgt>
<wgt id='1136'> +1.5184382e-12 </wgt>
<wgt id='1137'> +1.5424804e-12 </wgt>
<wgt id='1138'> +1.5800800e-12 </wgt>
<wgt id='1139'> +1.5729627e-12 </wgt>
<wgt id='1140'> +1.5447523e-12 </wgt>
<wgt id='1141'> +1.4990473e-12 </wgt>
<wgt id='1142'> +1.5559386e-12 </wgt>
<wgt id='1143'> +1.5722825e-12 </wgt>
<wgt id='1144'> +1.5592591e-12 </wgt>
<wgt id='1145'> +1.5708977e-12 </wgt>
<wgt id='1146'> +1.5485923e-12 </wgt>
<wgt id='1147'> +1.1894109e-12 </wgt>
<wgt id='1148'> +1.2181609e-12 </wgt>
<wgt id='1149'> +1.2843638e-12 </wgt>
<wgt id='1150'> +1.2204077e-12 </wgt>
<wgt id='1151'> +1.1587340e-12 </wgt>
<wgt id='1152'> +1.4624657e-12 </wgt>
<wgt id='1153'> +1.4549264e-12 </wgt>
<wgt id='1154'> +1.4668541e-12 </wgt>
<wgt id='1155'> +1.4619379e-12 </wgt>
<wgt id='1156'> +1.4628258e-12 </wgt>
<wgt id='1157'> +1.4660637e-12 </wgt>
<wgt id='1158'> +1.4576196e-12 </wgt>
<wgt id='1159'> +1.4654614e-12 </wgt>
<wgt id='1160'> +1.4605664e-12 </wgt>
<wgt id='1161'> +1.4589073e-12 </wgt>
<wgt id='1162'> +1.4648648e-12 </wgt>
<wgt id='1163'> +1.4665592e-12 </wgt>
<wgt id='1164'> +1.4583774e-12 </wgt>
<wgt id='1165'> +1.4531152e-12 </wgt>
<wgt id='1166'> +1.4716775e-12 </wgt>
<wgt id='1167'> +1.4719316e-12 </wgt>
<wgt id='1168'> +1.4496219e-12 </wgt>
<wgt id='1169'> +1.4649094e-12 </wgt>
<wgt id='1170'> +1.4605954e-12 </wgt>
<wgt id='1171'> +1.4596001e-12 </wgt>
<wgt id='1172'> +1.4659276e-12 </wgt>
<wgt id='1173'> +1.4533759e-12 </wgt>
<wgt id='1174'> +1.4708897e-12 </wgt>
<wgt id='1175'> +1.4612686e-12 </wgt>
<wgt id='1176'> +1.4625856e-12 </wgt>
<wgt id='1177'> +1.4628072e-12 </wgt>
<wgt id='1178'> +1.4618130e-12 </wgt>
<wgt id='1179'> +1.4735394e-12 </wgt>
<wgt id='1180'> +1.4462466e-12 </wgt>
<wgt id='1181'> +1.4569120e-12 </wgt>
<wgt id='1182'> +1.4677748e-12 </wgt>
<wgt id='1183'> +1.4609708e-12 </wgt>
<wgt id='1184'> +1.4626228e-12 </wgt>
<wgt id='1185'> +1.4538419e-12 </wgt>
<wgt id='1186'> +1.4669734e-12 </wgt>
<wgt id='1187'> +1.4613364e-12 </wgt>
<wgt id='1188'> +1.4628942e-12 </wgt>
<wgt id='1189'> +1.4564827e-12 </wgt>
<wgt id='1190'> +1.4518669e-12 </wgt>
<wgt id='1191'> +1.4597594e-12 </wgt>
<wgt id='1192'> +1.4627653e-12 </wgt>
<wgt id='1193'> +1.2425915e-12 </wgt>
<wgt id='1194'> +1.2409377e-12 </wgt>
<wgt id='1195'> +1.2439244e-12 </wgt>
<wgt id='1196'> +1.2487155e-12 </wgt>
<wgt id='1197'> +1.2357946e-12 </wgt>
<wgt id='1198'> +1.2428907e-12 </wgt>
<wgt id='1199'> +1.2421480e-12 </wgt>
<wgt id='1200'> +1.2446702e-12 </wgt>
<wgt id='1201'> +1.2412200e-12 </wgt>
<wgt id='1202'> +1.2406399e-12 </wgt>
<wgt id='1203'> +1.2453954e-12 </wgt>
<wgt id='1204'> +1.2308705e-12 </wgt>
<wgt id='1205'> +1.2498551e-12 </wgt>
<wgt id='1206'> +1.2474415e-12 </wgt>
<wgt id='1207'> +1.2360061e-12 </wgt>
<wgt id='1208'> +1.2348573e-12 </wgt>
<wgt id='1209'> +1.2454240e-12 </wgt>
<wgt id='1210'> +1.2451895e-12 </wgt>
<wgt id='1211'> +1.2306777e-12 </wgt>
<wgt id='1212'> +1.2430519e-12 </wgt>
<wgt id='1213'> +1.2420823e-12 </wgt>
<wgt id='1214'> +1.2247948e-12 </wgt>
<wgt id='1215'> +1.2720709e-12 </wgt>
<wgt id='1216'> +1.2515724e-12 </wgt>
<wgt id='1217'> +1.2364361e-12 </wgt>
<wgt id='1218'> +1.2466801e-12 </wgt>
<wgt id='1219'> +1.2403665e-12 </wgt>
<wgt id='1220'> +1.2470790e-12 </wgt>
<wgt id='1221'> +1.2420101e-12 </wgt>
<wgt id='1222'> +1.2402583e-12 </wgt>
<wgt id='1223'> +1.2465256e-12 </wgt>
<wgt id='1224'> +1.2445133e-12 </wgt>
<wgt id='1225'> +1.2418456e-12 </wgt>
<wgt id='1226'> +1.2401735e-12 </wgt>
<wgt id='1227'> +1.2442662e-12 </wgt>
<wgt id='1228'> +1.2390121e-12 </wgt>
<wgt id='1229'> +1.2440949e-12 </wgt>
<wgt id='1230'> +1.2359500e-12 </wgt>
<wgt id='1231'> +1.2381089e-12 </wgt>
<wgt id='1232'> +1.2412810e-12 </wgt>
<wgt id='1233'> +1.2429761e-12 </wgt>
<wgt id='1234'> +1.2425915e-12 </wgt>
<wgt id='1235'> +1.2335352e-12 </wgt>
<wgt id='1236'> +1.2369163e-12 </wgt>
<wgt id='1237'> +1.2400027e-12 </wgt>
<wgt id='1238'> +1.2451197e-12 </wgt>
<wgt id='1239'> +1.2472791e-12 </wgt>
<wgt id='1240'> +1.2493107e-12 </wgt>
<wgt id='1241'> +1.2708493e-12 </wgt>
<wgt id='1242'> +1.2650401e-12 </wgt>
<wgt id='1243'> +1.2765358e-12 </wgt>
<wgt id='1244'> +1.2634434e-12 </wgt>
<wgt id='1245'> +1.2762046e-12 </wgt>
<wgt id='1246'> +1.2715743e-12 </wgt>
<wgt id='1247'> +1.2702102e-12 </wgt>
<wgt id='1248'> +1.2706743e-12 </wgt>
<wgt id='1249'> +1.2709035e-12 </wgt>
<wgt id='1250'> +1.2722273e-12 </wgt>
<wgt id='1251'> +1.2697972e-12 </wgt>
<wgt id='1252'> +1.2674161e-12 </wgt>
<wgt id='1253'> +1.2734535e-12 </wgt>
<wgt id='1254'> +1.2589173e-12 </wgt>
<wgt id='1255'> +1.2779813e-12 </wgt>
<wgt id='1256'> +1.2752960e-12 </wgt>
<wgt id='1257'> +1.2594804e-12 </wgt>
<wgt id='1258'> +1.2940781e-12 </wgt>
<wgt id='1259'> +1.2490023e-12 </wgt>
<wgt id='1260'> +1.2751994e-12 </wgt>
<wgt id='1261'> +1.2658228e-12 </wgt>
<wgt id='1262'> +1.2729075e-12 </wgt>
<wgt id='1263'> +1.2696595e-12 </wgt>
<wgt id='1264'> +1.2746892e-12 </wgt>
<wgt id='1265'> +1.2688437e-12 </wgt>
<wgt id='1266'> +1.2679450e-12 </wgt>
<wgt id='1267'> +1.2739184e-12 </wgt>
<wgt id='1268'> +1.2705982e-12 </wgt>
<wgt id='1269'> +1.2751580e-12 </wgt>
<wgt id='1270'> +1.2636060e-12 </wgt>
<wgt id='1271'> +1.2618439e-12 </wgt>
<wgt id='1272'> +1.2717635e-12 </wgt>
<wgt id='1273'> +1.2697617e-12 </wgt>
<wgt id='1274'> +1.2731817e-12 </wgt>
<wgt id='1275'> +1.2657033e-12 </wgt>
<wgt id='1276'> +1.2727441e-12 </wgt>
<wgt id='1277'> +1.2680018e-12 </wgt>
<wgt id='1278'> +1.2701005e-12 </wgt>
<wgt id='1279'> +1.2675109e-12 </wgt>
<wgt id='1280'> +1.2713499e-12 </wgt>
<wgt id='1281'> +1.2682017e-12 </wgt>
<wgt id='1282'> +1.2708493e-12 </wgt>
<wgt id='1283'> +1.2607981e-12 </wgt>
<wgt id='1284'> +1.2646466e-12 </wgt>
<wgt id='1285'> +1.2680104e-12 </wgt>
<wgt id='1286'> +1.2736562e-12 </wgt>
<wgt id='1287'> +1.2758758e-12 </wgt>
<wgt id='1288'> +1.2778518e-12 </wgt>
<wgt id='1289'> +1.2473913e-12 </wgt>
<wgt id='1290'> +1.2512236e-12 </wgt>
<wgt id='1291'> +1.2432678e-12 </wgt>
<wgt id='1292'> +1.2413757e-12 </wgt>
<wgt id='1293'> +1.2517127e-12 </wgt>
<wgt id='1294'> +1.2480975e-12 </wgt>
<wgt id='1295'> +1.2466843e-12 </wgt>
<wgt id='1296'> +1.2420181e-12 </wgt>
<wgt id='1297'> +1.2539576e-12 </wgt>
<wgt id='1298'> +1.2523862e-12 </wgt>
<wgt id='1299'> +1.2410598e-12 </wgt>
<wgt id='1300'> +1.2505325e-12 </wgt>
<wgt id='1301'> +1.2410375e-12 </wgt>
<wgt id='1302'> +1.2460637e-12 </wgt>
<wgt id='1303'> +1.2492082e-12 </wgt>
<wgt id='1304'> +1.2451740e-12 </wgt>
<wgt id='1305'> +1.2488713e-12 </wgt>
<wgt id='1306'> +1.2446502e-12 </wgt>
<wgt id='1307'> +1.2505825e-12 </wgt>
<wgt id='1308'> +1.2579993e-12 </wgt>
<wgt id='1309'> +1.2392854e-12 </wgt>
<wgt id='1310'> +1.2466163e-12 </wgt>
<wgt id='1311'> +1.2483241e-12 </wgt>
<wgt id='1312'> +1.2475287e-12 </wgt>
<wgt id='1313'> +1.2474372e-12 </wgt>
<wgt id='1314'> +1.2523903e-12 </wgt>
<wgt id='1315'> +1.2361948e-12 </wgt>
<wgt id='1316'> +1.2541091e-12 </wgt>
<wgt id='1317'> +1.2471161e-12 </wgt>
<wgt id='1318'> +1.2578555e-12 </wgt>
<wgt id='1319'> +1.2347616e-12 </wgt>
<wgt id='1320'> +1.2569619e-12 </wgt>
<wgt id='1321'> +1.2388497e-12 </wgt>
<wgt id='1322'> +1.2465002e-12 </wgt>
<wgt id='1323'> +1.2482279e-12 </wgt>
<wgt id='1324'> +1.2446790e-12 </wgt>
<wgt id='1325'> +1.2574210e-12 </wgt>
<wgt id='1326'> +1.2464181e-12 </wgt>
<wgt id='1327'> +1.2500802e-12 </wgt>
<wgt id='1328'> +1.2484120e-12 </wgt>
<wgt id='1329'> +1.2462148e-12 </wgt>
<wgt id='1330'> +1.2227312e-12 </wgt>
<wgt id='1331'> +1.2621693e-12 </wgt>
<wgt id='1332'> +1.2686283e-12 </wgt>
<wgt id='1333'> +1.2322977e-12 </wgt>
<wgt id='1334'> +1.2419969e-12 </wgt>
<wgt id='1335'> +1.2604933e-12 </wgt>
<wgt id='1336'> +1.2431086e-12 </wgt>
<wgt id='1337'> +1.2443378e-12 </wgt>
<wgt id='1338'> +1.2454619e-12 </wgt>
<wgt id='1339'> +1.2478453e-12 </wgt>
<wgt id='1340'> +1.2257591e-12 </wgt>
<wgt id='1341'> +1.2298166e-12 </wgt>
<wgt id='1342'> +1.2214182e-12 </wgt>
<wgt id='1343'> +1.2195999e-12 </wgt>
<wgt id='1344'> +1.2298966e-12 </wgt>
<wgt id='1345'> +1.2264273e-12 </wgt>
<wgt id='1346'> +1.2251235e-12 </wgt>
<wgt id='1347'> +1.2204550e-12 </wgt>
<wgt id='1348'> +1.2316635e-12 </wgt>
<wgt id='1349'> +1.2301315e-12 </wgt>
<wgt id='1350'> +1.2214565e-12 </wgt>
<wgt id='1351'> +1.2289105e-12 </wgt>
<wgt id='1352'> +1.2189027e-12 </wgt>
<wgt id='1353'> +1.2239757e-12 </wgt>
<wgt id='1354'> +1.2289274e-12 </wgt>
<wgt id='1355'> +1.2238251e-12 </wgt>
<wgt id='1356'> +1.2268319e-12 </wgt>
<wgt id='1357'> +1.2260297e-12 </wgt>
<wgt id='1358'> +1.2256142e-12 </wgt>
<wgt id='1359'> +1.2371660e-12 </wgt>
<wgt id='1360'> +1.2158953e-12 </wgt>
<wgt id='1361'> +1.2249402e-12 </wgt>
<wgt id='1362'> +1.2270234e-12 </wgt>
<wgt id='1363'> +1.2255598e-12 </wgt>
<wgt id='1364'> +1.2263066e-12 </wgt>
<wgt id='1365'> +1.2136569e-12 </wgt>
<wgt id='1366'> +1.2321585e-12 </wgt>
<wgt id='1367'> +1.2317959e-12 </wgt>
<wgt id='1368'> +1.2253695e-12 </wgt>
<wgt id='1369'> +1.2347203e-12 </wgt>
<wgt id='1370'> +1.2150148e-12 </wgt>
<wgt id='1371'> +1.2327727e-12 </wgt>
<wgt id='1372'> +1.2168619e-12 </wgt>
<wgt id='1373'> +1.2232730e-12 </wgt>
<wgt id='1374'> +1.2276180e-12 </wgt>
<wgt id='1375'> +1.2233196e-12 </wgt>
<wgt id='1376'> +1.2356427e-12 </wgt>
<wgt id='1377'> +1.2249282e-12 </wgt>
<wgt id='1378'> +1.2286281e-12 </wgt>
<wgt id='1379'> +1.2263290e-12 </wgt>
<wgt id='1380'> +1.2249477e-12 </wgt>
<wgt id='1381'> +1.1999067e-12 </wgt>
<wgt id='1382'> +1.2395298e-12 </wgt>
<wgt id='1383'> +1.2476223e-12 </wgt>
<wgt id='1384'> +1.2081407e-12 </wgt>
<wgt id='1385'> +1.2202273e-12 </wgt>
<wgt id='1386'> +1.2382938e-12 </wgt>
<wgt id='1387'> +1.2205241e-12 </wgt>
<wgt id='1388'> +1.2213402e-12 </wgt>
<wgt id='1389'> +1.2220867e-12 </wgt>
<wgt id='1390'> +1.2265483e-12 </wgt>
<wgt id='1391'> +1.2072170e-12 </wgt>
<wgt id='1392'> +1.1780067e-12 </wgt>
<wgt id='1393'> +1.1872615e-12 </wgt>
<wgt id='1394'> +1.1970414e-12 </wgt>
<wgt id='1395'> +1.2151251e-12 </wgt>
<wgt id='1396'> +1.2068900e-12 </wgt>
<wgt id='1397'> +1.1712929e-12 </wgt>
<wgt id='1398'> +1.1787909e-12 </wgt>
<wgt id='1399'> +1.1855472e-12 </wgt>
<wgt id='1400'> +1.1922485e-12 </wgt>
<wgt id='1401'> +1.1995642e-12 </wgt>
<wgt id='1402'> +1.2130539e-12 </wgt>
<wgt id='1403'> +1.2196749e-12 </wgt>
<wgt id='1404'> +1.2256146e-12 </wgt>
<wgt id='1405'> +1.2068900e-12 </wgt>
<wgt id='1406'> +1.2027142e-12 </wgt>
<wgt id='1407'> +1.2051025e-12 </wgt>
<wgt id='1408'> +1.2086373e-12 </wgt>
<wgt id='1409'> +1.2100207e-12 </wgt>
<wgt id='1410'> +1.2371419e-12 </wgt>
<wgt id='1411'> +1.2393610e-12 </wgt>
<wgt id='1412'> +1.2342483e-12 </wgt>
<wgt id='1413'> +1.2441648e-12 </wgt>
<wgt id='1414'> +1.2301416e-12 </wgt>
<wgt id='1415'> +1.2302916e-12 </wgt>
<wgt id='1416'> +1.2398590e-12 </wgt>
<wgt id='1417'> +1.2292025e-12 </wgt>
<wgt id='1418'> +1.2450934e-12 </wgt>
<wgt id='1419'> +1.2385977e-12 </wgt>
<wgt id='1420'> +1.2356050e-12 </wgt>
<wgt id='1421'> +1.2250992e-12 </wgt>
<wgt id='1422'> +1.2423582e-12 </wgt>
<wgt id='1423'> +1.2367146e-12 </wgt>
<wgt id='1424'> +1.2375959e-12 </wgt>
<wgt id='1425'> +1.2334579e-12 </wgt>
<wgt id='1426'> +1.2410450e-12 </wgt>
<wgt id='1427'> +1.2432786e-12 </wgt>
<wgt id='1428'> +1.2334934e-12 </wgt>
<wgt id='1429'> +1.2299935e-12 </wgt>
<wgt id='1430'> +1.2466772e-12 </wgt>
<wgt id='1431'> +1.2430285e-12 </wgt>
<wgt id='1432'> +1.2329139e-12 </wgt>
<wgt id='1433'> +1.2435767e-12 </wgt>
<wgt id='1434'> +1.2297726e-12 </wgt>
<wgt id='1435'> +1.2389589e-12 </wgt>
<wgt id='1436'> +1.2327884e-12 </wgt>
<wgt id='1437'> +1.2437616e-12 </wgt>
<wgt id='1438'> +1.2358625e-12 </wgt>
<wgt id='1439'> +1.2300200e-12 </wgt>
<wgt id='1440'> +1.2539780e-12 </wgt>
<wgt id='1441'> +1.2392235e-12 </wgt>
<wgt id='1442'> +1.2331913e-12 </wgt>
<wgt id='1443'> +1.2345460e-12 </wgt>
<wgt id='1444'> +1.2434542e-12 </wgt>
<wgt id='1445'> +1.2489626e-12 </wgt>
<wgt id='1446'> +1.2328762e-12 </wgt>
<wgt id='1447'> +1.2382546e-12 </wgt>
<wgt id='1448'> +1.2376736e-12 </wgt>
<wgt id='1449'> +1.2385063e-12 </wgt>
<wgt id='1450'> +1.2357932e-12 </wgt>
<wgt id='1451'> +1.2473617e-12 </wgt>
<wgt id='1452'> +1.2084307e-12 </wgt>
<wgt id='1453'> +1.2396149e-12 </wgt>
<wgt id='1454'> +1.2213000e-12 </wgt>
<wgt id='1455'> +1.2220913e-12 </wgt>
<wgt id='1456'> +1.2434636e-12 </wgt>
<wgt id='1457'> +1.2446708e-12 </wgt>
<wgt id='1458'> +1.2335874e-12 </wgt>
<wgt id='1459'> +1.2410796e-12 </wgt>
<wgt id='1460'> +1.2310876e-12 </wgt>
<wgt id='1461'> +1.2371419e-12 </wgt>
<wgt id='1462'> +1.2294863e-12 </wgt>
<wgt id='1463'> +1.2474848e-12 </wgt>
<wgt id='1464'> +1.2386688e-12 </wgt>
<wgt id='1465'> +1.2108845e-12 </wgt>
<wgt id='1466'> +1.2168263e-12 </wgt>
<wgt id='1467'> +1.2230077e-12 </wgt>
<wgt id='1468'> +1.2275365e-12 </wgt>
<wgt id='1469'> +1.2333072e-12 </wgt>
<wgt id='1470'> +1.2444345e-12 </wgt>
<wgt id='1471'> +1.2488147e-12 </wgt>
<wgt id='1472'> +1.2542538e-12 </wgt>
<wgt id='1473'> +1.2386688e-12 </wgt>
<wgt id='1474'> +1.2336925e-12 </wgt>
<wgt id='1475'> +1.2354087e-12 </wgt>
<wgt id='1476'> +1.2407329e-12 </wgt>
<wgt id='1477'> +1.2426930e-12 </wgt>
<wgt id='1478'> +1.1944211e-12 </wgt>
<wgt id='1479'> +1.1927571e-12 </wgt>
<wgt id='1480'> +1.1947502e-12 </wgt>
<wgt id='1481'> +1.1883871e-12 </wgt>
<wgt id='1482'> +1.1930292e-12 </wgt>
<wgt id='1483'> +1.1733225e-12 </wgt>
<wgt id='1484'> +1.1925646e-12 </wgt>
<wgt id='1485'> +1.1943552e-12 </wgt>
<wgt id='1486'> +1.1954397e-12 </wgt>
<wgt id='1487'> +1.1996690e-12 </wgt>
<wgt id='1488'> +1.1916147e-12 </wgt>
<wgt id='1489'> +1.2184010e-12 </wgt>
<wgt id='1490'> +1.1930286e-12 </wgt>
<wgt id='1491'> +1.1935520e-12 </wgt>
<wgt id='1492'> +1.1963798e-12 </wgt>
<wgt id='1493'> +1.1837891e-12 </wgt>
<wgt id='1494'> +1.2126689e-12 </wgt>
<wgt id='1495'> +1.1867451e-12 </wgt>
<wgt id='1496'> +1.1928535e-12 </wgt>
<wgt id='1497'> +1.1939113e-12 </wgt>
<wgt id='1498'> +1.1933956e-12 </wgt>
<wgt id='1499'> +1.1960473e-12 </wgt>
<wgt id='1500'> +1.1960471e-12 </wgt>
<wgt id='1501'> +1.1928931e-12 </wgt>
<wgt id='1502'> +1.1919717e-12 </wgt>
<wgt id='1503'> +1.1959942e-12 </wgt>
<wgt id='1504'> +1.1902576e-12 </wgt>
<wgt id='1505'> +1.1947879e-12 </wgt>
<wgt id='1506'> +1.1928435e-12 </wgt>
<wgt id='1507'> +1.1933596e-12 </wgt>
<wgt id='1508'> +1.1984885e-12 </wgt>
<wgt id='1509'> +1.2824307e-12 </wgt>
<wgt id='1510'> +1.2812258e-12 </wgt>
<wgt id='1511'> +1.2879558e-12 </wgt>
<wgt id='1512'> +1.2860017e-12 </wgt>
<wgt id='1513'> +1.2896800e-12 </wgt>
<wgt id='1514'> +1.2801057e-12 </wgt>
<wgt id='1515'> +1.2778131e-12 </wgt>
<wgt id='1516'> +1.2795089e-12 </wgt>
<wgt id='1517'> +1.2805607e-12 </wgt>
<wgt id='1518'> +1.2878494e-12 </wgt>
<wgt id='1519'> +1.2775265e-12 </wgt>
<wgt id='1520'> +1.2856964e-12 </wgt>
<wgt id='1521'> +1.2909468e-12 </wgt>
<wgt id='1522'> +1.2901101e-12 </wgt>
<wgt id='1523'> +1.2906141e-12 </wgt>
<wgt id='1524'> +1.2834161e-12 </wgt>
<wgt id='1525'> +1.2836401e-12 </wgt>
<wgt id='1526'> +1.2803504e-12 </wgt>
<wgt id='1527'> +1.2840268e-12 </wgt>
<wgt id='1528'> +1.2860532e-12 </wgt>
<wgt id='1529'> +1.2854888e-12 </wgt>
<wgt id='1530'> +1.2874895e-12 </wgt>
<wgt id='1531'> +1.2831361e-12 </wgt>
<wgt id='1532'> +1.2819304e-12 </wgt>
<wgt id='1533'> +1.2802899e-12 </wgt>
<wgt id='1534'> +1.2856586e-12 </wgt>
<wgt id='1535'> +1.2744953e-12 </wgt>
<wgt id='1536'> +1.2793016e-12 </wgt>
<wgt id='1537'> +1.2838594e-12 </wgt>
<wgt id='1538'> +1.2801050e-12 </wgt>
<wgt id='1539'> +1.2804675e-12 </wgt>
<wgt id='1540'> +1.2834186e-12 </wgt>
<wgt id='1541'> +1.2812701e-12 </wgt>
<wgt id='1542'> +1.2843329e-12 </wgt>
<wgt id='1543'> +1.2817590e-12 </wgt>
<wgt id='1544'> +1.2785401e-12 </wgt>
<wgt id='1545'> +1.2841914e-12 </wgt>
<wgt id='1546'> +1.2829378e-12 </wgt>
<wgt id='1547'> +1.2832014e-12 </wgt>
<wgt id='1548'> +1.2803071e-12 </wgt>
<wgt id='1549'> +1.2804138e-12 </wgt>
<wgt id='1550'> +1.2855988e-12 </wgt>
<wgt id='1551'> +1.2795502e-12 </wgt>
<wgt id='1552'> +1.2833136e-12 </wgt>
<wgt id='1553'> +1.2839612e-12 </wgt>
<wgt id='1554'> +1.2834690e-12 </wgt>
<wgt id='1555'> +1.2844994e-12 </wgt>
<wgt id='1556'> +1.2830184e-12 </wgt>
<wgt id='1557'> +1.2829547e-12 </wgt>
<wgt id='1558'> +1.2798377e-12 </wgt>
<wgt id='1559'> +1.2804158e-12 </wgt>
<wgt id='1560'> +1.2819779e-12 </wgt>
<wgt id='1561'> +1.2814722e-12 </wgt>
<wgt id='1562'> +1.2823063e-12 </wgt>
<wgt id='1563'> +1.2825721e-12 </wgt>
<wgt id='1564'> +1.2836332e-12 </wgt>
<wgt id='1565'> +1.2821027e-12 </wgt>
<wgt id='1566'> +1.2825364e-12 </wgt>
<wgt id='1567'> +1.2825852e-12 </wgt>
<wgt id='1568'> +1.2818744e-12 </wgt>
<wgt id='1569'> +1.2813726e-12 </wgt>
<wgt id='1570'> +1.2828706e-12 </wgt>
<wgt id='1571'> +1.2826290e-12 </wgt>
<wgt id='1572'> +1.2830235e-12 </wgt>
<wgt id='1573'> +1.2835372e-12 </wgt>
<wgt id='1574'> +1.2820176e-12 </wgt>
<wgt id='1575'> +1.2822776e-12 </wgt>
<wgt id='1576'> +1.2825035e-12 </wgt>
<wgt id='1577'> +1.2822924e-12 </wgt>
<wgt id='1578'> +1.2817167e-12 </wgt>
<wgt id='1579'> +1.2827456e-12 </wgt>
<wgt id='1580'> +1.2820412e-12 </wgt>
<wgt id='1581'> +1.2823928e-12 </wgt>
<wgt id='1582'> +1.2813370e-12 </wgt>
<wgt id='1583'> +1.2826015e-12 </wgt>
<wgt id='1584'> +1.2825843e-12 </wgt>
<wgt id='1585'> +1.2819953e-12 </wgt>
<wgt id='1586'> +1.2827776e-12 </wgt>
<wgt id='1587'> +1.2817830e-12 </wgt>
<wgt id='1588'> +1.2829068e-12 </wgt>
<wgt id='1589'> +1.2822296e-12 </wgt>
<wgt id='1590'> +1.2824129e-12 </wgt>
<wgt id='1591'> +1.2822644e-12 </wgt>
<wgt id='1592'> +1.2826107e-12 </wgt>
<wgt id='1593'> +1.2823591e-12 </wgt>
<wgt id='1594'> +1.2825500e-12 </wgt>
<wgt id='1595'> +1.2814368e-12 </wgt>
<wgt id='1596'> +1.2822841e-12 </wgt>
<wgt id='1597'> +1.2825147e-12 </wgt>
<wgt id='1598'> +1.2820465e-12 </wgt>
<wgt id='1599'> +1.2825440e-12 </wgt>
<wgt id='1600'> +1.2814814e-12 </wgt>
<wgt id='1601'> +1.2820908e-12 </wgt>
<wgt id='1602'> +1.2824748e-12 </wgt>
<wgt id='1603'> +1.2828167e-12 </wgt>
<wgt id='1604'> +1.2824129e-12 </wgt>
<wgt id='1605'> +1.2825865e-12 </wgt>
<wgt id='1606'> +1.2826512e-12 </wgt>
<wgt id='1607'> +1.2819900e-12 </wgt>
<wgt id='1608'> +1.2824859e-12 </wgt>
<wgt id='1609'> +1.2829524e-12 </wgt>
<wgt id='1610'> +1.2682836e-12 </wgt>
<wgt id='1611'> +1.2952425e-12 </wgt>
<wgt id='1612'> +1.4907148e-12 </wgt>
<wgt id='1613'> +1.4738420e-12 </wgt>
<wgt id='1614'> +1.4990798e-12 </wgt>
<wgt id='1615'> +1.4627049e-12 </wgt>
<wgt id='1616'> +1.5625406e-12 </wgt>
<wgt id='1617'> +1.5257274e-12 </wgt>
<wgt id='1618'> +1.4398081e-12 </wgt>
<wgt id='1619'> +1.5127350e-12 </wgt>
<wgt id='1620'> +1.4589861e-12 </wgt>
<wgt id='1621'> +1.4836011e-12 </wgt>
<wgt id='1622'> +1.4870161e-12 </wgt>
<wgt id='1623'> +1.5142909e-12 </wgt>
<wgt id='1624'> +1.4556828e-12 </wgt>
<wgt id='1625'> +1.4643468e-12 </wgt>
<wgt id='1626'> +1.4792830e-12 </wgt>
<wgt id='1627'> +1.4645748e-12 </wgt>
<wgt id='1628'> +1.4713641e-12 </wgt>
<wgt id='1629'> +1.5328423e-12 </wgt>
<wgt id='1630'> +1.5052678e-12 </wgt>
<wgt id='1631'> +1.4591165e-12 </wgt>
<wgt id='1632'> +1.4421712e-12 </wgt>
<wgt id='1633'> +1.4436448e-12 </wgt>
<wgt id='1634'> +1.5482310e-12 </wgt>
<wgt id='1635'> +1.4984511e-12 </wgt>
<wgt id='1636'> +1.4992845e-12 </wgt>
<wgt id='1637'> +1.4585225e-12 </wgt>
<wgt id='1638'> +1.4841538e-12 </wgt>
<wgt id='1639'> +1.5129792e-12 </wgt>
<wgt id='1640'> +1.5083807e-12 </wgt>
<wgt id='1641'> +1.4719198e-12 </wgt>
<wgt id='1642'> +1.4787999e-12 </wgt>
<wgt id='1643'> +1.5354734e-12 </wgt>
<wgt id='1644'> +1.4147072e-12 </wgt>
<wgt id='1645'> +1.4857825e-12 </wgt>
<wgt id='1646'> +1.5061466e-12 </wgt>
<wgt id='1647'> +1.5020996e-12 </wgt>
<wgt id='1648'> +1.4804062e-12 </wgt>
<wgt id='1649'> +1.4793587e-12 </wgt>
<wgt id='1650'> +1.4779412e-12 </wgt>
<wgt id='1651'> +1.4460485e-12 </wgt>
<wgt id='1652'> +1.4878261e-12 </wgt>
<wgt id='1653'> +1.5381308e-12 </wgt>
<wgt id='1654'> +1.4795785e-12 </wgt>
<wgt id='1655'> +1.4536006e-12 </wgt>
<wgt id='1656'> +1.4385125e-12 </wgt>
<wgt id='1657'> +1.4715608e-12 </wgt>
<wgt id='1658'> +1.4293639e-12 </wgt>
<wgt id='1659'> +1.4556828e-12 </wgt>
<wgt id='1660'> +1.4921678e-12 </wgt>
<wgt id='1661'> +1.4902773e-12 </wgt>
<wgt id='1662'> +1.4970548e-12 </wgt>
<wgt id='1663'> +1.5251644e-12 </wgt>
<wgt id='1664'> +1.4736525e-12 </wgt>
<wgt id='1665'> +1.4174627e-12 </wgt>
<wgt id='1666'> +1.5221523e-12 </wgt>
<wgt id='1667'> +1.4890199e-12 </wgt>
<wgt id='1668'> +1.5389076e-12 </wgt>
<wgt id='1669'> +1.4258705e-12 </wgt>
<wgt id='1670'> +1.5127154e-12 </wgt>
<wgt id='1671'> +1.4801559e-12 </wgt>
<wgt id='1672'> +1.4845088e-12 </wgt>
<wgt id='1673'> +1.5304436e-12 </wgt>
<wgt id='1674'> +1.4670105e-12 </wgt>
<wgt id='1675'> +1.5259000e-12 </wgt>
<wgt id='1676'> +1.5240636e-12 </wgt>
<wgt id='1677'> +1.5791442e-12 </wgt>
<wgt id='1678'> +1.4928541e-12 </wgt>
<wgt id='1679'> +1.5381988e-12 </wgt>
<wgt id='1680'> +1.5173691e-12 </wgt>
<wgt id='1681'> +1.5169833e-12 </wgt>
<wgt id='1682'> +1.5070534e-12 </wgt>
<wgt id='1683'> +1.4763101e-12 </wgt>
<wgt id='1684'> +1.4826647e-12 </wgt>
<wgt id='1685'> +1.4655839e-12 </wgt>
<wgt id='1686'> +1.4971539e-12 </wgt>
<wgt id='1687'> +1.5467614e-12 </wgt>
<wgt id='1688'> +1.5011068e-12 </wgt>
<wgt id='1689'> +1.4695466e-12 </wgt>
<wgt id='1690'> +1.4925044e-12 </wgt>
<wgt id='1691'> +1.5079459e-12 </wgt>
<wgt id='1692'> +1.5458765e-12 </wgt>
<wgt id='1693'> +1.5496368e-12 </wgt>
<wgt id='1694'> +1.4247110e-12 </wgt>
<wgt id='1695'> +1.4881165e-12 </wgt>
<wgt id='1696'> +1.5424871e-12 </wgt>
<wgt id='1697'> +1.5055960e-12 </wgt>
<wgt id='1698'> +1.4721498e-12 </wgt>
<wgt id='1699'> +1.5049043e-12 </wgt>
<wgt id='1700'> +1.4655267e-12 </wgt>
<wgt id='1701'> +1.5206763e-12 </wgt>
<wgt id='1702'> +1.4979167e-12 </wgt>
<wgt id='1703'> +1.5048742e-12 </wgt>
<wgt id='1704'> +1.4599613e-12 </wgt>
<wgt id='1705'> +1.4740819e-12 </wgt>
<wgt id='1706'> +1.4779443e-12 </wgt>
<wgt id='1707'> +1.4969127e-12 </wgt>
<wgt id='1708'> +1.4671833e-12 </wgt>
<wgt id='1709'> +1.4836688e-12 </wgt>
<wgt id='1710'> +1.4807926e-12 </wgt>
<wgt id='1711'> +1.5634190e-12 </wgt>
<wgt id='1712'> +1.4812588e-12 </wgt>
<wgt id='1713'> +1.1792668e-12 </wgt>
<wgt id='1714'> +1.1489232e-12 </wgt>
<wgt id='1715'> +1.1985589e-12 </wgt>
<wgt id='1716'> +1.2142229e-12 </wgt>
<wgt id='1717'> +1.1920379e-12 </wgt>
<wgt id='1718'> +1.1839030e-12 </wgt>
<wgt id='1719'> +1.1898034e-12 </wgt>
<wgt id='1720'> +1.1921726e-12 </wgt>
<wgt id='1721'> +1.1557194e-12 </wgt>
<wgt id='1722'> +1.1670017e-12 </wgt>
<wgt id='1723'> +1.1215821e-12 </wgt>
<wgt id='1724'> +1.1052254e-12 </wgt>
<wgt id='1725'> +1.2077031e-12 </wgt>
<wgt id='1726'> +1.2254562e-12 </wgt>
<wgt id='1727'> +1.1471298e-12 </wgt>
<wgt id='1728'> +1.1760677e-12 </wgt>
<wgt id='1729'> +1.1783869e-12 </wgt>
<wgt id='1730'> +1.1508397e-12 </wgt>
<wgt id='1731'> +1.1405963e-12 </wgt>
<wgt id='1732'> +1.1843613e-12 </wgt>
<wgt id='1733'> +1.1851411e-12 </wgt>
<wgt id='1734'> +1.2100576e-12 </wgt>
<wgt id='1735'> +1.1344657e-12 </wgt>
<wgt id='1736'> +1.2627129e-12 </wgt>
<wgt id='1737'> +1.2117789e-12 </wgt>
<wgt id='1738'> +1.1925945e-12 </wgt>
<wgt id='1739'> +1.1843025e-12 </wgt>
<wgt id='1740'> +1.1618557e-12 </wgt>
<wgt id='1741'> +1.1765738e-12 </wgt>
<wgt id='1742'> +1.1745493e-12 </wgt>
<wgt id='1743'> +1.2085861e-12 </wgt>
<wgt id='1744'> +1.2156948e-12 </wgt>
<wgt id='1745'> +1.0978931e-12 </wgt>
<wgt id='1746'> +1.2103589e-12 </wgt>
<wgt id='1747'> +1.2042912e-12 </wgt>
<wgt id='1748'> +1.1960655e-12 </wgt>
<wgt id='1749'> +1.2082899e-12 </wgt>
<wgt id='1750'> +1.1822815e-12 </wgt>
<wgt id='1751'> +1.0884422e-12 </wgt>
<wgt id='1752'> +1.1639192e-12 </wgt>
<wgt id='1753'> +1.1993719e-12 </wgt>
<wgt id='1754'> +1.1824009e-12 </wgt>
<wgt id='1755'> +1.2037735e-12 </wgt>
<wgt id='1756'> +1.1910751e-12 </wgt>
<wgt id='1757'> +1.1630159e-12 </wgt>
<wgt id='1758'> +1.2056333e-12 </wgt>
<wgt id='1759'> +1.1907140e-12 </wgt>
<wgt id='1760'> +1.1469640e-12 </wgt>
<wgt id='1761'> +1.1577994e-12 </wgt>
<wgt id='1762'> +1.1996237e-12 </wgt>
<wgt id='1763'> +1.2077370e-12 </wgt>
<wgt id='1764'> +1.1832921e-12 </wgt>
<wgt id='1765'> +1.1840508e-12 </wgt>
<wgt id='1766'> +1.2063294e-12 </wgt>
<wgt id='1767'> +1.1869070e-12 </wgt>
<wgt id='1768'> +1.1821965e-12 </wgt>
<wgt id='1769'> +1.1425406e-12 </wgt>
<wgt id='1770'> +1.2496843e-12 </wgt>
<wgt id='1771'> +1.1911528e-12 </wgt>
<wgt id='1772'> +1.2159881e-12 </wgt>
<wgt id='1773'> +1.1739808e-12 </wgt>
<wgt id='1774'> +1.1988924e-12 </wgt>
<wgt id='1775'> +1.1829412e-12 </wgt>
<wgt id='1776'> +1.2253652e-12 </wgt>
<wgt id='1777'> +1.1092161e-12 </wgt>
<wgt id='1778'> +1.1713664e-12 </wgt>
<wgt id='1779'> +1.1967494e-12 </wgt>
<wgt id='1780'> +1.1661477e-12 </wgt>
<wgt id='1781'> +1.1755953e-12 </wgt>
<wgt id='1782'> +1.1380331e-12 </wgt>
<wgt id='1783'> +1.1761484e-12 </wgt>
<wgt id='1784'> +1.1939147e-12 </wgt>
<wgt id='1785'> +1.1348015e-12 </wgt>
<wgt id='1786'> +1.0778670e-12 </wgt>
<wgt id='1787'> +1.2233011e-12 </wgt>
<wgt id='1788'> +1.1666768e-12 </wgt>
<wgt id='1789'> +1.1226453e-12 </wgt>
<wgt id='1790'> +1.1660543e-12 </wgt>
<wgt id='1791'> +1.1985256e-12 </wgt>
<wgt id='1792'> +1.1417748e-12 </wgt>
<wgt id='1793'> +1.1986000e-12 </wgt>
<wgt id='1794'> +1.1873733e-12 </wgt>
<wgt id='1795'> +1.2037898e-12 </wgt>
<wgt id='1796'> +1.1569766e-12 </wgt>
<wgt id='1797'> +1.1865792e-12 </wgt>
<wgt id='1798'> +1.1604206e-12 </wgt>
<wgt id='1799'> +1.1624741e-12 </wgt>
<wgt id='1800'> +1.1819467e-12 </wgt>
<wgt id='1801'> +1.1841944e-12 </wgt>
<wgt id='1802'> +1.1576961e-12 </wgt>
<wgt id='1803'> +1.1953953e-12 </wgt>
<wgt id='1804'> +1.1545707e-12 </wgt>
<wgt id='1805'> +1.1804784e-12 </wgt>
<wgt id='1806'> +1.1670940e-12 </wgt>
<wgt id='1807'> +1.1968242e-12 </wgt>
<wgt id='1808'> +1.1799007e-12 </wgt>
<wgt id='1809'> +1.1643598e-12 </wgt>
<wgt id='1810'> +1.1863574e-12 </wgt>
<wgt id='1811'> +1.2440745e-12 </wgt>
<wgt id='1812'> +1.2175262e-12 </wgt>
<wgt id='1813'> +1.1894189e-12 </wgt>
<wgt id='1814'> +1.2678196e-12 </wgt>
<wgt id='1815'> +1.4301534e-12 </wgt>
<wgt id='1816'> +1.1792668e-12 </wgt>
<wgt id='1817'> +1.1489232e-12 </wgt>
<wgt id='1818'> +1.1985589e-12 </wgt>
<wgt id='1819'> +1.2142229e-12 </wgt>
<wgt id='1820'> +1.1920379e-12 </wgt>
<wgt id='1821'> +1.1839030e-12 </wgt>
<wgt id='1822'> +1.1898034e-12 </wgt>
<wgt id='1823'> +1.1921726e-12 </wgt>
<wgt id='1824'> +1.1557194e-12 </wgt>
<wgt id='1825'> +1.1670017e-12 </wgt>
<wgt id='1826'> +1.1215821e-12 </wgt>
<wgt id='1827'> +1.1052254e-12 </wgt>
<wgt id='1828'> +1.2077031e-12 </wgt>
<wgt id='1829'> +1.2254562e-12 </wgt>
<wgt id='1830'> +1.1471298e-12 </wgt>
<wgt id='1831'> +1.1760677e-12 </wgt>
<wgt id='1832'> +1.1783869e-12 </wgt>
<wgt id='1833'> +1.1508397e-12 </wgt>
<wgt id='1834'> +1.1405963e-12 </wgt>
<wgt id='1835'> +1.1843613e-12 </wgt>
<wgt id='1836'> +1.1851411e-12 </wgt>
<wgt id='1837'> +1.2100576e-12 </wgt>
<wgt id='1838'> +1.1344657e-12 </wgt>
<wgt id='1839'> +1.2627129e-12 </wgt>
<wgt id='1840'> +1.2117789e-12 </wgt>
<wgt id='1841'> +1.1925945e-12 </wgt>
<wgt id='1842'> +1.1843025e-12 </wgt>
<wgt id='1843'> +1.1618557e-12 </wgt>
<wgt id='1844'> +1.1765738e-12 </wgt>
<wgt id='1845'> +1.1745493e-12 </wgt>
<wgt id='1846'> +1.2085861e-12 </wgt>
<wgt id='1847'> +1.2156948e-12 </wgt>
<wgt id='1848'> +1.0978931e-12 </wgt>
<wgt id='1849'> +1.2103589e-12 </wgt>
<wgt id='1850'> +1.2042912e-12 </wgt>
<wgt id='1851'> +1.1960655e-12 </wgt>
<wgt id='1852'> +1.2082899e-12 </wgt>
<wgt id='1853'> +1.1822815e-12 </wgt>
<wgt id='1854'> +1.0884422e-12 </wgt>
<wgt id='1855'> +1.1639192e-12 </wgt>
<wgt id='1856'> +1.1993719e-12 </wgt>
<wgt id='1857'> +1.1824009e-12 </wgt>
<wgt id='1858'> +1.2037735e-12 </wgt>
<wgt id='1859'> +1.1910751e-12 </wgt>
<wgt id='1860'> +1.1630159e-12 </wgt>
<wgt id='1861'> +1.2056333e-12 </wgt>
<wgt id='1862'> +1.1907140e-12 </wgt>
<wgt id='1863'> +1.1469640e-12 </wgt>
<wgt id='1864'> +1.1577994e-12 </wgt>
<wgt id='1865'> +1.1996237e-12 </wgt>
<wgt id='1866'> +1.2077370e-12 </wgt>
<wgt id='1867'> +1.1832921e-12 </wgt>
<wgt id='1868'> +1.1840508e-12 </wgt>
<wgt id='1869'> +1.2063294e-12 </wgt>
<wgt id='1870'> +1.1869070e-12 </wgt>
<wgt id='1871'> +1.1821965e-12 </wgt>
<wgt id='1872'> +1.1425406e-12 </wgt>
<wgt id='1873'> +1.2496843e-12 </wgt>
<wgt id='1874'> +1.1911528e-12 </wgt>
<wgt id='1875'> +1.2159881e-12 </wgt>
<wgt id='1876'> +1.1739808e-12 </wgt>
<wgt id='1877'> +1.1988924e-12 </wgt>
<wgt id='1878'> +1.1829412e-12 </wgt>
<wgt id='1879'> +1.2253652e-12 </wgt>
<wgt id='1880'> +1.1092161e-12 </wgt>
<wgt id='1881'> +1.1713664e-12 </wgt>
<wgt id='1882'> +1.1967494e-12 </wgt>
<wgt id='1883'> +1.1661477e-12 </wgt>
<wgt id='1884'> +1.1755953e-12 </wgt>
<wgt id='1885'> +1.1380331e-12 </wgt>
<wgt id='1886'> +1.1761484e-12 </wgt>
<wgt id='1887'> +1.1939147e-12 </wgt>
<wgt id='1888'> +1.1348015e-12 </wgt>
<wgt id='1889'> +1.0778670e-12 </wgt>
<wgt id='1890'> +1.2233011e-12 </wgt>
<wgt id='1891'> +1.1666768e-12 </wgt>
<wgt id='1892'> +1.1226453e-12 </wgt>
<wgt id='1893'> +1.1660543e-12 </wgt>
<wgt id='1894'> +1.1985256e-12 </wgt>
<wgt id='1895'> +1.1417748e-12 </wgt>
<wgt id='1896'> +1.1986000e-12 </wgt>
<wgt id='1897'> +1.1873733e-12 </wgt>
<wgt id='1898'> +1.2037898e-12 </wgt>
<wgt id='1899'> +1.1569766e-12 </wgt>
<wgt id='1900'> +1.1865792e-12 </wgt>
<wgt id='1901'> +1.1604206e-12 </wgt>
<wgt id='1902'> +1.1624741e-12 </wgt>
<wgt id='1903'> +1.1819467e-12 </wgt>
<wgt id='1904'> +1.1841944e-12 </wgt>
<wgt id='1905'> +1.1576961e-12 </wgt>
<wgt id='1906'> +1.1953953e-12 </wgt>
<wgt id='1907'> +1.1545707e-12 </wgt>
<wgt id='1908'> +1.1804784e-12 </wgt>
<wgt id='1909'> +1.1670940e-12 </wgt>
<wgt id='1910'> +1.1968242e-12 </wgt>
<wgt id='1911'> +1.1799007e-12 </wgt>
<wgt id='1912'> +1.1643598e-12 </wgt>
<wgt id='1913'> +1.1863574e-12 </wgt>
<wgt id='1914'> +1.2440745e-12 </wgt>
<wgt id='1915'> +1.2175262e-12 </wgt>
<wgt id='1916'> +1.1894189e-12 </wgt>
<wgt id='1917'> +1.1708424e-12 </wgt>
<wgt id='1918'> +1.1835772e-12 </wgt>
<wgt id='1919'> +1.2368597e-12 </wgt>
</rwgt>
</event>
<event>
 9      1 +1.5607000e-12 6.59166600e+01 7.81860800e-03 1.24743900e-01
       21 -1    0    0  501  502 +0.0000000000e+00 +0.0000000000e+00 +5.0741477365e+00 5.0741477365e+00 0.0000000000e+00 0.0000e+00 1.0000e+00
       -4 -1    0    0    0  501 -0.0000000000e+00 -0.0000000000e+00 -2.1397393961e+02 2.1397865135e+02 1.4200000000e+00 0.0000e+00 1.0000e+00
     1023  2    1    2    0    0 +2.7651526327e+01 -2.9094659078e+00 -1.5710186177e+02 1.6024706924e+02 1.5001877438e+01 0.0000e+00 0.0000e+00
  1000023  2    3    3    0    0 +1.3160576465e+01 -6.4352214730e+00 -6.8998936214e+01 7.0751013055e+01 5.4990727723e+00 0.0000e+00 0.0000e+00
       -4  1    1    2    0  502 -2.7651526327e+01 +2.9094659078e+00 -5.1797930106e+01 5.8805729851e+01 1.4200000000e+00 0.0000e+00 1.0000e+00
  1000022  1    4    4    0    0 +1.1413053608e+01 -5.4894116964e+00 -5.8883524079e+01 6.0437247136e+01 5.0000000000e+00 0.0000e+00 1.0000e+00
      -13  1    4    4    0    0 +6.6634903088e-01 -2.3509281132e-01 -3.6872345174e+00 3.7558168935e+00 1.0570000000e-01 0.0000e+00 1.0000e+00
       13  1    4    4    0    0 +1.0811738258e+00 -7.1071696522e-01 -6.4281776181e+00 6.5579490259e+00 1.0570000000e-01 0.0000e+00 -1.0000e+00
  1000022  1    3    3    0    0 +1.4490949862e+01 +3.5257555652e+00 -8.8102925557e+01 8.9496056180e+01 5.0000000000e+00 0.0000e+00 1.0000e+00
<mgrwt>
<rscale>  1 0.65916658E+02</rscale>
<asrwt>0</asrwt>
<pdfrwt beam="1">  1       21 0.78063803E-03 0.65916658E+02</pdfrwt>
<pdfrwt beam="2">  1       -4 0.32934718E-01 0.65916658E+02</pdfrwt>
<totfact> 0.18143958E+06</totfact>
</mgrwt>
<rwgt>
<wgt id='1001'> +1.5607000e-12 </wgt>
<wgt id='1002'> +1.5359503e-12 </wgt>
<wgt id='1003'> +1.5415195e-12 </wgt>
<wgt id='1004'> +1.3811739e-12 </wgt>
<wgt id='1005'> +1.5607000e-12 </wgt>
<wgt id='1006'> +1.3912626e-12 </wgt>
<wgt id='1007'> +1.3653001e-12 </wgt>
<wgt id='1008'> +1.3711181e-12 </wgt>
<wgt id='1009'> +1.2081019e-12 </wgt>
<wgt id='1010'> +1.3912626e-12 </wgt>
<wgt id='1011'> +1.7790821e-12 </wgt>
<wgt id='1012'> +1.7574404e-12 </wgt>
<wgt id='1013'> +1.7623568e-12 </wgt>
<wgt id='1014'> +1.6149985e-12 </wgt>
<wgt id='1015'> +1.7790821e-12 </wgt>
<wgt id='1016'> +1.8570290e-12 </wgt>
<wgt id='1017'> +1.8451497e-12 </wgt>
<wgt id='1018'> +1.8478544e-12 </wgt>
<wgt id='1019'> +1.7623568e-12 </wgt>
<wgt id='1020'> +1.8570290e-12 </wgt>
<wgt id='1021'> +1.6554207e-12 </wgt>
<wgt id='1022'> +1.6401462e-12 </wgt>
<wgt id='1023'> +1.6435903e-12 </wgt>
<wgt id='1024'> +1.5415195e-12 </wgt>
<wgt id='1025'> +1.6554207e-12 </wgt>
<wgt id='1026'> +2.1168751e-12 </wgt>
<wgt id='1027'> +2.1112276e-12 </wgt>
<wgt id='1028'> +2.1125771e-12 </wgt>
<wgt id='1029'> +2.0607134e-12 </wgt>
<wgt id='1030'> +2.1168751e-12 </wgt>
<wgt id='1031'> +1.2375868e-12 </wgt>
<wgt id='1032'> +1.1995984e-12 </wgt>
<wgt id='1033'> +1.2081019e-12 </wgt>
<wgt id='1034'> +9.7800323e-13 </wgt>
<wgt id='1035'> +1.2375868e-12 </wgt>
<wgt id='1036'> +1.1032282e-12 </wgt>
<wgt id='1037'> +1.0663183e-12 </wgt>
<wgt id='1038'> +1.0745568e-12 </wgt>
<wgt id='1039'> +8.5545165e-13 </wgt>
<wgt id='1040'> +1.1032282e-12 </wgt>
<wgt id='1041'> +1.4107571e-12 </wgt>
<wgt id='1042'> +1.3725853e-12 </wgt>
<wgt id='1043'> +1.3811739e-12 </wgt>
<wgt id='1044'> +1.1435734e-12 </wgt>
<wgt id='1045'> +1.4107571e-12 </wgt>
<wgt id='1046'> +1.5607000e-12 </wgt>
<wgt id='1047'> +1.3088727e-12 </wgt>
<wgt id='1048'> +1.5929134e-12 </wgt>
<wgt id='1049'> +1.5744958e-12 </wgt>
<wgt id='1050'> +1.5839797e-12 </wgt>
<wgt id='1051'> +1.5451390e-12 </wgt>
<wgt id='1052'> +1.4827754e-12 </wgt>
<wgt id='1053'> +1.5732940e-12 </wgt>
<wgt id='1054'> +1.6342453e-12 </wgt>
<wgt id='1055'> +1.6254120e-12 </wgt>
<wgt id='1056'> +1.5902570e-12 </wgt>
<wgt id='1057'> +1.6059165e-12 </wgt>
<wgt id='1058'> +1.5829063e-12 </wgt>
<wgt id='1059'> +1.6073856e-12 </wgt>
<wgt id='1060'> +1.5936770e-12 </wgt>
<wgt id='1061'> +1.5648988e-12 </wgt>
<wgt id='1062'> +1.5757052e-12 </wgt>
<wgt id='1063'> +1.5288089e-12 </wgt>
<wgt id='1064'> +1.5999701e-12 </wgt>
<wgt id='1065'> +1.5038014e-12 </wgt>
<wgt id='1066'> +1.6367091e-12 </wgt>
<wgt id='1067'> +1.5328944e-12 </wgt>
<wgt id='1068'> +1.4549116e-12 </wgt>
<wgt id='1069'> +1.5020868e-12 </wgt>
<wgt id='1070'> +1.5460710e-12 </wgt>
<wgt id='1071'> +1.6470144e-12 </wgt>
<wgt id='1072'> +1.5043551e-12 </wgt>
<wgt id='1073'> +1.4952900e-12 </wgt>
<wgt id='1074'> +1.5779710e-12 </wgt>
<wgt id='1075'> +1.5287636e-12 </wgt>
<wgt id='1076'> +1.6313696e-12 </wgt>
<wgt id='1077'> +1.4928178e-12 </wgt>
<wgt id='1078'> +1.7073641e-12 </wgt>
<wgt id='1079'> +1.5238575e-12 </wgt>
<wgt id='1080'> +1.5881090e-12 </wgt>
<wgt id='1081'> +1.5229040e-12 </wgt>
<wgt id='1082'> +1.5210650e-12 </wgt>
<wgt id='1083'> +1.5418845e-12 </wgt>
<wgt id='1084'> +1.5773116e-12 </wgt>
<wgt id='1085'> +1.5336357e-12 </wgt>
<wgt id='1086'> +1.5780888e-12 </wgt>
<wgt id='1087'> +1.5292236e-12 </wgt>
<wgt id='1088'> +1.5718118e-12 </wgt>
<wgt id='1089'> +1.4729855e-12 </wgt>
<wgt id='1090'> +1.4283605e-12 </wgt>
<wgt id='1091'> +1.5173286e-12 </wgt>
<wgt id='1092'> +1.4569994e-12 </wgt>
<wgt id='1093'> +1.5825677e-12 </wgt>
<wgt id='1094'> +1.6367062e-12 </wgt>
<wgt id='1095'> +1.5638270e-12 </wgt>
<wgt id='1096'> +1.5197758e-12 </wgt>
<wgt id='1097'> +1.5201075e-12 </wgt>
<wgt id='1098'> +1.6176362e-12 </wgt>
<wgt id='1099'> +1.6335943e-12 </wgt>
<wgt id='1100'> +1.4292798e-12 </wgt>
<wgt id='1101'> +1.4727596e-12 </wgt>
<wgt id='1102'> +1.5155904e-12 </wgt>
<wgt id='1103'> +1.4475822e-12 </wgt>
<wgt id='1104'> +1.5600357e-12 </wgt>
<wgt id='1105'> +1.6458393e-12 </wgt>
<wgt id='1106'> +1.4451369e-12 </wgt>
<wgt id='1107'> +1.5546631e-12 </wgt>
<wgt id='1108'> +1.5985941e-12 </wgt>
<wgt id='1109'> +1.4625052e-12 </wgt>
<wgt id='1110'> +1.6772858e-12 </wgt>
<wgt id='1111'> +1.5707559e-12 </wgt>
<wgt id='1112'> +1.5943901e-12 </wgt>
<wgt id='1113'> +1.4385919e-12 </wgt>
<wgt id='1114'> +1.5785250e-12 </wgt>
<wgt id='1115'> +1.5792396e-12 </wgt>
<wgt id='1116'> +1.6072563e-12 </wgt>
<wgt id='1117'> +1.5934792e-12 </wgt>
<wgt id='1118'> +1.5051740e-12 </wgt>
<wgt id='1119'> +1.7704693e-12 </wgt>
<wgt id='1120'> +1.7238687e-12 </wgt>
<wgt id='1121'> +1.6065191e-12 </wgt>
<wgt id='1122'> +1.3848390e-12 </wgt>
<wgt id='1123'> +1.6753347e-12 </wgt>
<wgt id='1124'> +1.5785739e-12 </wgt>
<wgt id='1125'> +1.5805567e-12 </wgt>
<wgt id='1126'> +1.5874516e-12 </wgt>
<wgt id='1127'> +1.5553461e-12 </wgt>
<wgt id='1128'> +1.5757052e-12 </wgt>
<wgt id='1129'> +1.5425786e-12 </wgt>
<wgt id='1130'> +1.6045674e-12 </wgt>
<wgt id='1131'> +1.6385415e-12 </wgt>
<wgt id='1132'> +1.4575621e-12 </wgt>
<wgt id='1133'> +1.5908161e-12 </wgt>
<wgt id='1134'> +1.5667865e-12 </wgt>
<wgt id='1135'> +1.7469639e-12 </wgt>
<wgt id='1136'> +1.5590376e-12 </wgt>
<wgt id='1137'> +1.4791048e-12 </wgt>
<wgt id='1138'> +1.6664549e-12 </wgt>
<wgt id='1139'> +1.5912833e-12 </wgt>
<wgt id='1140'> +1.5792889e-12 </wgt>
<wgt id='1141'> +1.5519786e-12 </wgt>
<wgt id='1142'> +1.5413812e-12 </wgt>
<wgt id='1143'> +1.4400091e-12 </wgt>
<wgt id='1144'> +1.6116753e-12 </wgt>
<wgt id='1145'> +1.6721507e-12 </wgt>
<wgt id='1146'> +1.5475537e-12 </wgt>
<wgt id='1147'> +1.3518529e-12 </wgt>
<wgt id='1148'> +1.3888303e-12 </wgt>
<wgt id='1149'> +1.4311943e-12 </wgt>
<wgt id='1150'> +1.3787185e-12 </wgt>
<wgt id='1151'> +1.2184727e-12 </wgt>
<wgt id='1152'> +1.9185544e-12 </wgt>
<wgt id='1153'> +1.9096468e-12 </wgt>
<wgt id='1154'> +1.9238159e-12 </wgt>
<wgt id='1155'> +1.9196415e-12 </wgt>
<wgt id='1156'> +1.9180843e-12 </wgt>
<wgt id='1157'> +1.9132751e-12 </wgt>
<wgt id='1158'> +1.9257476e-12 </wgt>
<wgt id='1159'> +1.9141214e-12 </wgt>
<wgt id='1160'> +1.9214416e-12 </wgt>
<wgt id='1161'> +1.9075194e-12 </wgt>
<wgt id='1162'> +1.9261995e-12 </wgt>
<wgt id='1163'> +1.9255130e-12 </wgt>
<wgt id='1164'> +1.9117821e-12 </wgt>
<wgt id='1165'> +1.9010032e-12 </wgt>
<wgt id='1166'> +1.9356399e-12 </wgt>
<wgt id='1167'> +1.9264553e-12 </wgt>
<wgt id='1168'> +1.9053562e-12 </wgt>
<wgt id='1169'> +1.9216243e-12 </wgt>
<wgt id='1170'> +1.9162494e-12 </wgt>
<wgt id='1171'> +1.9175195e-12 </wgt>
<wgt id='1172'> +1.9198526e-12 </wgt>
<wgt id='1173'> +1.9134548e-12 </wgt>
<wgt id='1174'> +1.9226778e-12 </wgt>
<wgt id='1175'> +1.9156127e-12 </wgt>
<wgt id='1176'> +1.9195490e-12 </wgt>
<wgt id='1177'> +1.9192598e-12 </wgt>
<wgt id='1178'> +1.9177139e-12 </wgt>
<wgt id='1179'> +1.9437627e-12 </wgt>
<wgt id='1180'> +1.8879284e-12 </wgt>
<wgt id='1181'> +1.9081794e-12 </wgt>
<wgt id='1182'> +1.9290280e-12 </wgt>
<wgt id='1183'> +1.9181153e-12 </wgt>
<wgt id='1184'> +1.9187406e-12 </wgt>
<wgt id='1185'> +1.9237792e-12 </wgt>
<wgt id='1186'> +1.9160516e-12 </wgt>
<wgt id='1187'> +1.9178467e-12 </wgt>
<wgt id='1188'> +1.9188723e-12 </wgt>
<wgt id='1189'> +1.9212821e-12 </wgt>
<wgt id='1190'> +1.8943601e-12 </wgt>
<wgt id='1191'> +1.8936604e-12 </wgt>
<wgt id='1192'> +1.9330445e-12 </wgt>
<wgt id='1193'> +1.4181712e-12 </wgt>
<wgt id='1194'> +1.4151120e-12 </wgt>
<wgt id='1195'> +1.4205688e-12 </wgt>
<wgt id='1196'> +1.4200452e-12 </wgt>
<wgt id='1197'> +1.4160700e-12 </wgt>
<wgt id='1198'> +1.4209310e-12 </wgt>
<wgt id='1199'> +1.4140836e-12 </wgt>
<wgt id='1200'> +1.4198285e-12 </wgt>
<wgt id='1201'> +1.4170366e-12 </wgt>
<wgt id='1202'> +1.4141016e-12 </wgt>
<wgt id='1203'> +1.4239470e-12 </wgt>
<wgt id='1204'> +1.3944020e-12 </wgt>
<wgt id='1205'> +1.4328959e-12 </wgt>
<wgt id='1206'> +1.4244969e-12 </wgt>
<wgt id='1207'> +1.4095438e-12 </wgt>
<wgt id='1208'> +1.4100811e-12 </wgt>
<wgt id='1209'> +1.4211033e-12 </wgt>
<wgt id='1210'> +1.4153346e-12 </wgt>
<wgt id='1211'> +1.4137669e-12 </wgt>
<wgt id='1212'> +1.4162414e-12 </wgt>
<wgt id='1213'> +1.4199607e-12 </wgt>
<wgt id='1214'> +1.4146741e-12 </wgt>
<wgt id='1215'> +1.4207251e-12 </wgt>
<wgt id='1216'> +1.4202906e-12 </wgt>
<wgt id='1217'> +1.4162841e-12 </wgt>
<wgt id='1218'> +1.4225338e-12 </wgt>
<wgt id='1219'> +1.4157783e-12 </wgt>
<wgt id='1220'> +1.4217121e-12 </wgt>
<wgt id='1221'> +1.4192486e-12 </wgt>
<wgt id='1222'> +1.4170991e-12 </wgt>
<wgt id='1223'> +1.4235587e-12 </wgt>
<wgt id='1224'> +1.4182797e-12 </wgt>
<wgt id='1225'> +1.4181294e-12 </wgt>
<wgt id='1226'> +1.4194550e-12 </wgt>
<wgt id='1227'> +1.4175415e-12 </wgt>
<wgt id='1228'> +1.4152532e-12 </wgt>
<wgt id='1229'> +1.4192867e-12 </wgt>
<wgt id='1230'> +1.4355999e-12 </wgt>
<wgt id='1231'> +1.3943358e-12 </wgt>
<wgt id='1232'> +1.4163959e-12 </wgt>
<wgt id='1233'> +1.4186499e-12 </wgt>
<wgt id='1234'> +1.4181712e-12 </wgt>
<wgt id='1235'> +1.4069767e-12 </wgt>
<wgt id='1236'> +1.4112484e-12 </wgt>
<wgt id='1237'> +1.4149811e-12 </wgt>
<wgt id='1238'> +1.4217107e-12 </wgt>
<wgt id='1239'> +1.4243549e-12 </wgt>
<wgt id='1240'> +1.4268251e-12 </wgt>
<wgt id='1241'> +1.3778992e-12 </wgt>
<wgt id='1242'> +1.3717164e-12 </wgt>
<wgt id='1243'> +1.3839930e-12 </wgt>
<wgt id='1244'> +1.3714047e-12 </wgt>
<wgt id='1245'> +1.3827295e-12 </wgt>
<wgt id='1246'> +1.3796022e-12 </wgt>
<wgt id='1247'> +1.3764977e-12 </wgt>
<wgt id='1248'> +1.3777827e-12 </wgt>
<wgt id='1249'> +1.3780384e-12 </wgt>
<wgt id='1250'> +1.3735286e-12 </wgt>
<wgt id='1251'> +1.3809670e-12 </wgt>
<wgt id='1252'> +1.3746161e-12 </wgt>
<wgt id='1253'> +1.3804520e-12 </wgt>
<wgt id='1254'> +1.3554119e-12 </wgt>
<wgt id='1255'> +1.3914973e-12 </wgt>
<wgt id='1256'> +1.3836765e-12 </wgt>
<wgt id='1257'> +1.3633386e-12 </wgt>
<wgt id='1258'> +1.3825410e-12 </wgt>
<wgt id='1259'> +1.3721238e-12 </wgt>
<wgt id='1260'> +1.3809599e-12 </wgt>
<wgt id='1261'> +1.3746433e-12 </wgt>
<wgt id='1262'> +1.3792746e-12 </wgt>
<wgt id='1263'> +1.3772108e-12 </wgt>
<wgt id='1264'> +1.3864510e-12 </wgt>
<wgt id='1265'> +1.3738580e-12 </wgt>
<wgt id='1266'> +1.3780061e-12 </wgt>
<wgt id='1267'> +1.3795062e-12 </wgt>
<wgt id='1268'> +1.3780004e-12 </wgt>
<wgt id='1269'> +1.3826333e-12 </wgt>
<wgt id='1270'> +1.3763306e-12 </wgt>
<wgt id='1271'> +1.3748553e-12 </wgt>
<wgt id='1272'> +1.3794483e-12 </wgt>
<wgt id='1273'> +1.3773879e-12 </wgt>
<wgt id='1274'> +1.3779036e-12 </wgt>
<wgt id='1275'> +1.3772397e-12 </wgt>
<wgt id='1276'> +1.3776208e-12 </wgt>
<wgt id='1277'> +1.3773848e-12 </wgt>
<wgt id='1278'> +1.3703883e-12 </wgt>
<wgt id='1279'> +1.3800159e-12 </wgt>
<wgt id='1280'> +1.3782790e-12 </wgt>
<wgt id='1281'> +1.3764611e-12 </wgt>
<wgt id='1282'> +1.3778992e-12 </wgt>
<wgt id='1283'> +1.3660961e-12 </wgt>
<wgt id='1284'> +1.3707546e-12 </wgt>
<wgt id='1285'> +1.3746865e-12 </wgt>
<wgt id='1286'> +1.3813266e-12 </wgt>
<wgt id='1287'> +1.3839218e-12 </wgt>
<wgt id='1288'> +1.3861420e-12 </wgt>
<wgt id='1289'> +1.4685157e-12 </wgt>
<wgt id='1290'> +1.4715474e-12 </wgt>
<wgt id='1291'> +1.4652699e-12 </wgt>
<wgt id='1292'> +1.4693578e-12 </wgt>
<wgt id='1293'> +1.4679046e-12 </wgt>
<wgt id='1294'> +1.4684364e-12 </wgt>
<wgt id='1295'> +1.4685631e-12 </wgt>
<wgt id='1296'> +1.4635453e-12 </wgt>
<wgt id='1297'> +1.4746251e-12 </wgt>
<wgt id='1298'> +1.4786274e-12 </wgt>
<wgt id='1299'> +1.4559575e-12 </wgt>
<wgt id='1300'> +1.4731535e-12 </wgt>
<wgt id='1301'> +1.4591936e-12 </wgt>
<wgt id='1302'> +1.4668399e-12 </wgt>
<wgt id='1303'> +1.4707972e-12 </wgt>
<wgt id='1304'> +1.4635453e-12 </wgt>
<wgt id='1305'> +1.4719401e-12 </wgt>
<wgt id='1306'> +1.4576438e-12 </wgt>
<wgt id='1307'> +1.4808418e-12 </wgt>
<wgt id='1308'> +1.4655183e-12 </wgt>
<wgt id='1309'> +1.4708068e-12 </wgt>
<wgt id='1310'> +1.4645633e-12 </wgt>
<wgt id='1311'> +1.4728428e-12 </wgt>
<wgt id='1312'> +1.4590885e-12 </wgt>
<wgt id='1313'> +1.4782749e-12 </wgt>
<wgt id='1314'> +1.4722055e-12 </wgt>
<wgt id='1315'> +1.4582607e-12 </wgt>
<wgt id='1316'> +1.4747895e-12 </wgt>
<wgt id='1317'> +1.4693991e-12 </wgt>
<wgt id='1318'> +1.4754419e-12 </wgt>
<wgt id='1319'> +1.4599392e-12 </wgt>
<wgt id='1320'> +1.4657359e-12 </wgt>
<wgt id='1321'> +1.4689668e-12 </wgt>
<wgt id='1322'> +1.4708159e-12 </wgt>
<wgt id='1323'> +1.4652599e-12 </wgt>
<wgt id='1324'> +1.4689843e-12 </wgt>
<wgt id='1325'> +1.4719203e-12 </wgt>
<wgt id='1326'> +1.4717558e-12 </wgt>
<wgt id='1327'> +1.4683339e-12 </wgt>
<wgt id='1328'> +1.4656013e-12 </wgt>
<wgt id='1329'> +1.4712191e-12 </wgt>
<wgt id='1330'> +1.4651048e-12 </wgt>
<wgt id='1331'> +1.4731938e-12 </wgt>
<wgt id='1332'> +1.4954168e-12 </wgt>
<wgt id='1333'> +1.4606597e-12 </wgt>
<wgt id='1334'> +1.4671517e-12 </wgt>
<wgt id='1335'> +1.4725748e-12 </wgt>
<wgt id='1336'> +1.4773410e-12 </wgt>
<wgt id='1337'> +1.4511594e-12 </wgt>
<wgt id='1338'> +1.4714337e-12 </wgt>
<wgt id='1339'> +1.4669483e-12 </wgt>
<wgt id='1340'> +1.4208088e-12 </wgt>
<wgt id='1341'> +1.4238275e-12 </wgt>
<wgt id='1342'> +1.4174914e-12 </wgt>
<wgt id='1343'> +1.4218127e-12 </wgt>
<wgt id='1344'> +1.4201950e-12 </wgt>
<wgt id='1345'> +1.4204373e-12 </wgt>
<wgt id='1346'> +1.4211162e-12 </wgt>
<wgt id='1347'> +1.4159618e-12 </wgt>
<wgt id='1348'> +1.4262511e-12 </wgt>
<wgt id='1349'> +1.4301954e-12 </wgt>
<wgt id='1350'> +1.4116996e-12 </wgt>
<wgt id='1351'> +1.4254521e-12 </wgt>
<wgt id='1352'> +1.4107196e-12 </wgt>
<wgt id='1353'> +1.4182405e-12 </wgt>
<wgt id='1354'> +1.4254265e-12 </wgt>
<wgt id='1355'> +1.4158560e-12 </wgt>
<wgt id='1356'> +1.4236475e-12 </wgt>
<wgt id='1357'> +1.4087765e-12 </wgt>
<wgt id='1358'> +1.4350478e-12 </wgt>
<wgt id='1359'> +1.4206504e-12 </wgt>
<wgt id='1360'> +1.4210109e-12 </wgt>
<wgt id='1361'> +1.4170036e-12 </wgt>
<wgt id='1362'> +1.4260879e-12 </wgt>
<wgt id='1363'> +1.4083582e-12 </wgt>
<wgt id='1364'> +1.4298259e-12 </wgt>
<wgt id='1365'> +1.4160221e-12 </wgt>
<wgt id='1366'> +1.4189632e-12 </wgt>
<wgt id='1367'> +1.4266521e-12 </wgt>
<wgt id='1368'> +1.4211693e-12 </wgt>
<wgt id='1369'> +1.4267643e-12 </wgt>
<wgt id='1370'> +1.4136590e-12 </wgt>
<wgt id='1371'> +1.4202393e-12 </wgt>
<wgt id='1372'> +1.4203140e-12 </wgt>
<wgt id='1373'> +1.4243425e-12 </wgt>
<wgt id='1374'> +1.4169627e-12 </wgt>
<wgt id='1375'> +1.4211213e-12 </wgt>
<wgt id='1376'> +1.4243595e-12 </wgt>
<wgt id='1377'> +1.4240551e-12 </wgt>
<wgt id='1378'> +1.4210586e-12 </wgt>
<wgt id='1379'> +1.4180166e-12 </wgt>
<wgt id='1380'> +1.4238684e-12 </wgt>
<wgt id='1381'> +1.4188220e-12 </wgt>
<wgt id='1382'> +1.4236621e-12 </wgt>
<wgt id='1383'> +1.4461328e-12 </wgt>
<wgt id='1384'> +1.4132882e-12 </wgt>
<wgt id='1385'> +1.4196015e-12 </wgt>
<wgt id='1386'> +1.4242738e-12 </wgt>
<wgt id='1387'> +1.4306683e-12 </wgt>
<wgt id='1388'> +1.4029548e-12 </wgt>
<wgt id='1389'> +1.4253817e-12 </wgt>
<wgt id='1390'> +1.4181617e-12 </wgt>
<wgt id='1391'> +1.4076986e-12 </wgt>
<wgt id='1392'> +1.3410844e-12 </wgt>
<wgt id='1393'> +1.3631765e-12 </wgt>
<wgt id='1394'> +1.3858264e-12 </wgt>
<wgt id='1395'> +1.4299365e-12 </wgt>
<wgt id='1396'> +1.4075632e-12 </wgt>
<wgt id='1397'> +1.5036431e-12 </wgt>
<wgt id='1398'> +1.4814772e-12 </wgt>
<wgt id='1399'> +1.4610470e-12 </wgt>
<wgt id='1400'> +1.4423775e-12 </wgt>
<wgt id='1401'> +1.4244539e-12 </wgt>
<wgt id='1402'> +1.3921731e-12 </wgt>
<wgt id='1403'> +1.3773778e-12 </wgt>
<wgt id='1404'> +1.3633854e-12 </wgt>
<wgt id='1405'> +1.4075632e-12 </wgt>
<wgt id='1406'> +1.3991947e-12 </wgt>
<wgt id='1407'> +1.4034469e-12 </wgt>
<wgt id='1408'> +1.4114240e-12 </wgt>
<wgt id='1409'> +1.4149202e-12 </wgt>
<wgt id='1410'> +1.3606581e-12 </wgt>
<wgt id='1411'> +1.3633946e-12 </wgt>
<wgt id='1412'> +1.3570713e-12 </wgt>
<wgt id='1413'> +1.3638361e-12 </wgt>
<wgt id='1414'> +1.3575068e-12 </wgt>
<wgt id='1415'> +1.3626607e-12 </wgt>
<wgt id='1416'> +1.3598759e-12 </wgt>
<wgt id='1417'> +1.3535966e-12 </wgt>
<wgt id='1418'> +1.3677468e-12 </wgt>
<wgt id='1419'> +1.3650829e-12 </wgt>
<wgt id='1420'> +1.3564531e-12 </wgt>
<wgt id='1421'> +1.3396679e-12 </wgt>
<wgt id='1422'> +1.3697334e-12 </wgt>
<wgt id='1423'> +1.3604259e-12 </wgt>
<wgt id='1424'> +1.3609661e-12 </wgt>
<wgt id='1425'> +1.3543423e-12 </wgt>
<wgt id='1426'> +1.3675202e-12 </wgt>
<wgt id='1427'> +1.3462978e-12 </wgt>
<wgt id='1428'> +1.3683846e-12 </wgt>
<wgt id='1429'> +1.3588551e-12 </wgt>
<wgt id='1430'> +1.3631415e-12 </wgt>
<wgt id='1431'> +1.3601156e-12 </wgt>
<wgt id='1432'> +1.3609864e-12 </wgt>
<wgt id='1433'> +1.3713094e-12 </wgt>
<wgt id='1434'> +1.3487562e-12 </wgt>
<wgt id='1435'> +1.3660372e-12 </wgt>
<wgt id='1436'> +1.3476773e-12 </wgt>
<wgt id='1437'> +1.3683094e-12 </wgt>
<wgt id='1438'> +1.3595503e-12 </wgt>
<wgt id='1439'> +1.3558067e-12 </wgt>
<wgt id='1440'> +1.3706623e-12 </wgt>
<wgt id='1441'> +1.3601161e-12 </wgt>
<wgt id='1442'> +1.3623476e-12 </wgt>
<wgt id='1443'> +1.3595175e-12 </wgt>
<wgt id='1444'> +1.3646968e-12 </wgt>
<wgt id='1445'> +1.3635955e-12 </wgt>
<wgt id='1446'> +1.3609068e-12 </wgt>
<wgt id='1447'> +1.3613349e-12 </wgt>
<wgt id='1448'> +1.3625837e-12 </wgt>
<wgt id='1449'> +1.3575328e-12 </wgt>
<wgt id='1450'> +1.3628144e-12 </wgt>
<wgt id='1451'> +1.3571720e-12 </wgt>
<wgt id='1452'> +1.3658604e-12 </wgt>
<wgt id='1453'> +1.3619046e-12 </wgt>
<wgt id='1454'> +1.3536359e-12 </wgt>
<wgt id='1455'> +1.3482914e-12 </wgt>
<wgt id='1456'> +1.3706778e-12 </wgt>
<wgt id='1457'> +1.3658048e-12 </wgt>
<wgt id='1458'> +1.3587099e-12 </wgt>
<wgt id='1459'> +1.3585031e-12 </wgt>
<wgt id='1460'> +1.3647869e-12 </wgt>
<wgt id='1461'> +1.3606581e-12 </wgt>
<wgt id='1462'> +1.3439626e-12 </wgt>
<wgt id='1463'> +1.3740181e-12 </wgt>
<wgt id='1464'> +1.3592340e-12 </wgt>
<wgt id='1465'> +1.4533354e-12 </wgt>
<wgt id='1466'> +1.4313699e-12 </wgt>
<wgt id='1467'> +1.4111465e-12 </wgt>
<wgt id='1468'> +1.3940758e-12 </wgt>
<wgt id='1469'> +1.3756805e-12 </wgt>
<wgt id='1470'> +1.3441460e-12 </wgt>
<wgt id='1471'> +1.3283473e-12 </wgt>
<wgt id='1472'> +1.3144193e-12 </wgt>
<wgt id='1473'> +1.3592340e-12 </wgt>
<wgt id='1474'> +1.3507271e-12 </wgt>
<wgt id='1475'> +1.3554922e-12 </wgt>
<wgt id='1476'> +1.3628236e-12 </wgt>
<wgt id='1477'> +1.3659865e-12 </wgt>
<wgt id='1478'> +1.3816035e-12 </wgt>
<wgt id='1479'> +1.3841964e-12 </wgt>
<wgt id='1480'> +1.3889136e-12 </wgt>
<wgt id='1481'> +1.3747730e-12 </wgt>
<wgt id='1482'> +1.3923417e-12 </wgt>
<wgt id='1483'> +1.3677341e-12 </wgt>
<wgt id='1484'> +1.3814408e-12 </wgt>
<wgt id='1485'> +1.4112004e-12 </wgt>
<wgt id='1486'> +1.3808545e-12 </wgt>
<wgt id='1487'> +1.3906027e-12 </wgt>
<wgt id='1488'> +1.3751571e-12 </wgt>
<wgt id='1489'> +1.3930363e-12 </wgt>
<wgt id='1490'> +1.3861430e-12 </wgt>
<wgt id='1491'> +1.3863962e-12 </wgt>
<wgt id='1492'> +1.3754615e-12 </wgt>
<wgt id='1493'> +1.3784424e-12 </wgt>
<wgt id='1494'> +1.3835990e-12 </wgt>
<wgt id='1495'> +1.3994267e-12 </wgt>
<wgt id='1496'> +1.3795413e-12 </wgt>
<wgt id='1497'> +1.3904258e-12 </wgt>
<wgt id='1498'> +1.3779659e-12 </wgt>
<wgt id='1499'> +1.3866449e-12 </wgt>
<wgt id='1500'> +1.3805512e-12 </wgt>
<wgt id='1501'> +1.3794909e-12 </wgt>
<wgt id='1502'> +1.3825964e-12 </wgt>
<wgt id='1503'> +1.3857145e-12 </wgt>
<wgt id='1504'> +1.3849382e-12 </wgt>
<wgt id='1505'> +1.3806053e-12 </wgt>
<wgt id='1506'> +1.3854410e-12 </wgt>
<wgt id='1507'> +1.3805814e-12 </wgt>
<wgt id='1508'> +1.3960320e-12 </wgt>
<wgt id='1509'> +1.2591288e-12 </wgt>
<wgt id='1510'> +1.2563021e-12 </wgt>
<wgt id='1511'> +1.2539656e-12 </wgt>
<wgt id='1512'> +1.2555269e-12 </wgt>
<wgt id='1513'> +1.2584839e-12 </wgt>
<wgt id='1514'> +1.2585087e-12 </wgt>
<wgt id='1515'> +1.2598634e-12 </wgt>
<wgt id='1516'> +1.2648119e-12 </wgt>
<wgt id='1517'> +1.2628290e-12 </wgt>
<wgt id='1518'> +1.2489917e-12 </wgt>
<wgt id='1519'> +1.2641210e-12 </wgt>
<wgt id='1520'> +1.2669572e-12 </wgt>
<wgt id='1521'> +1.2599717e-12 </wgt>
<wgt id='1522'> +1.2686537e-12 </wgt>
<wgt id='1523'> +1.2501194e-12 </wgt>
<wgt id='1524'> +1.2558245e-12 </wgt>
<wgt id='1525'> +1.2439052e-12 </wgt>
<wgt id='1526'> +1.2675707e-12 </wgt>
<wgt id='1527'> +1.2706483e-12 </wgt>
<wgt id='1528'> +1.2608491e-12 </wgt>
<wgt id='1529'> +1.2700789e-12 </wgt>
<wgt id='1530'> +1.2447337e-12 </wgt>
<wgt id='1531'> +1.2580389e-12 </wgt>
<wgt id='1532'> +1.2774219e-12 </wgt>
<wgt id='1533'> +1.2556209e-12 </wgt>
<wgt id='1534'> +1.2570498e-12 </wgt>
<wgt id='1535'> +1.2785791e-12 </wgt>
<wgt id='1536'> +1.2560720e-12 </wgt>
<wgt id='1537'> +1.2579344e-12 </wgt>
<wgt id='1538'> +1.2650286e-12 </wgt>
<wgt id='1539'> +1.2526748e-12 </wgt>
<wgt id='1540'> +1.2515621e-12 </wgt>
<wgt id='1541'> +1.2543202e-12 </wgt>
<wgt id='1542'> +1.2582918e-12 </wgt>
<wgt id='1543'> +1.2624181e-12 </wgt>
<wgt id='1544'> +1.2477777e-12 </wgt>
<wgt id='1545'> +1.2600729e-12 </wgt>
<wgt id='1546'> +1.2681578e-12 </wgt>
<wgt id='1547'> +1.2542223e-12 </wgt>
<wgt id='1548'> +1.2650390e-12 </wgt>
<wgt id='1549'> +1.2585115e-12 </wgt>
<wgt id='1550'> +1.2601418e-12 </wgt>
<wgt id='1551'> +1.2560243e-12 </wgt>
<wgt id='1552'> +1.2576307e-12 </wgt>
<wgt id='1553'> +1.2568727e-12 </wgt>
<wgt id='1554'> +1.2547432e-12 </wgt>
<wgt id='1555'> +1.2575569e-12 </wgt>
<wgt id='1556'> +1.2653275e-12 </wgt>
<wgt id='1557'> +1.2515891e-12 </wgt>
<wgt id='1558'> +1.2649218e-12 </wgt>
<wgt id='1559'> +1.2541010e-12 </wgt>
<wgt id='1560'> +1.2533108e-12 </wgt>
<wgt id='1561'> +1.2655712e-12 </wgt>
<wgt id='1562'> +1.2571305e-12 </wgt>
<wgt id='1563'> +1.2568142e-12 </wgt>
<wgt id='1564'> +1.2584606e-12 </wgt>
<wgt id='1565'> +1.2625000e-12 </wgt>
<wgt id='1566'> +1.2532917e-12 </wgt>
<wgt id='1567'> +1.2473545e-12 </wgt>
<wgt id='1568'> +1.2613633e-12 </wgt>
<wgt id='1569'> +1.2576751e-12 </wgt>
<wgt id='1570'> +1.2625634e-12 </wgt>
<wgt id='1571'> +1.2578902e-12 </wgt>
<wgt id='1572'> +1.2653298e-12 </wgt>
<wgt id='1573'> +1.2658840e-12 </wgt>
<wgt id='1574'> +1.2530138e-12 </wgt>
<wgt id='1575'> +1.2599867e-12 </wgt>
<wgt id='1576'> +1.2624006e-12 </wgt>
<wgt id='1577'> +1.2556206e-12 </wgt>
<wgt id='1578'> +1.2544930e-12 </wgt>
<wgt id='1579'> +1.2639959e-12 </wgt>
<wgt id='1580'> +1.2713262e-12 </wgt>
<wgt id='1581'> +1.2554128e-12 </wgt>
<wgt id='1582'> +1.2515998e-12 </wgt>
<wgt id='1583'> +1.2624882e-12 </wgt>
<wgt id='1584'> +1.2579976e-12 </wgt>
<wgt id='1585'> +1.2575022e-12 </wgt>
<wgt id='1586'> +1.2663610e-12 </wgt>
<wgt id='1587'> +1.2573715e-12 </wgt>
<wgt id='1588'> +1.2570907e-12 </wgt>
<wgt id='1589'> +1.2590492e-12 </wgt>
<wgt id='1590'> +1.2561368e-12 </wgt>
<wgt id='1591'> +1.2576677e-12 </wgt>
<wgt id='1592'> +1.2575893e-12 </wgt>
<wgt id='1593'> +1.2620715e-12 </wgt>
<wgt id='1594'> +1.2604081e-12 </wgt>
<wgt id='1595'> +1.2572429e-12 </wgt>
<wgt id='1596'> +1.2623657e-12 </wgt>
<wgt id='1597'> +1.2580240e-12 </wgt>
<wgt id='1598'> +1.2634006e-12 </wgt>
<wgt id='1599'> +1.2637063e-12 </wgt>
<wgt id='1600'> +1.2585089e-12 </wgt>
<wgt id='1601'> +1.2604076e-12 </wgt>
<wgt id='1602'> +1.2573621e-12 </wgt>
<wgt id='1603'> +1.2610564e-12 </wgt>
<wgt id='1604'> +1.2612090e-12 </wgt>
<wgt id='1605'> +1.2589953e-12 </wgt>
<wgt id='1606'> +1.2532903e-12 </wgt>
<wgt id='1607'> +1.2619980e-12 </wgt>
<wgt id='1608'> +1.2587685e-12 </wgt>
<wgt id='1609'> +1.2580015e-12 </wgt>
<wgt id='1610'> +1.2053285e-12 </wgt>
<wgt id='1611'> +1.3115310e-12 </wgt>
<wgt id='1612'> +1.4495820e-12 </wgt>
<wgt id='1613'> +1.4594181e-12 </wgt>
<wgt id='1614'> +1.4390007e-12 </wgt>
<wgt id='1615'> +1.4794250e-12 </wgt>
<wgt id='1616'> +1.4527159e-12 </wgt>
<wgt id='1617'> +1.3318905e-12 </wgt>
<wgt id='1618'> +1.2881598e-12 </wgt>
<wgt id='1619'> +1.4175481e-12 </wgt>
<wgt id='1620'> +1.4786857e-12 </wgt>
<wgt id='1621'> +1.4450620e-12 </wgt>
<wgt id='1622'> +1.5247129e-12 </wgt>
<wgt id='1623'> +1.4889461e-12 </wgt>
<wgt id='1624'> +1.4374782e-12 </wgt>
<wgt id='1625'> +1.4298899e-12 </wgt>
<wgt id='1626'> +1.5739921e-12 </wgt>
<wgt id='1627'> +1.4808167e-12 </wgt>
<wgt id='1628'> +1.5199530e-12 </wgt>
<wgt id='1629'> +1.4663735e-12 </wgt>
<wgt id='1630'> +1.4637396e-12 </wgt>
<wgt id='1631'> +1.5331122e-12 </wgt>
<wgt id='1632'> +1.5192674e-12 </wgt>
<wgt id='1633'> +1.5160260e-12 </wgt>
<wgt id='1634'> +1.4435745e-12 </wgt>
<wgt id='1635'> +1.3801161e-12 </wgt>
<wgt id='1636'> +1.4134348e-12 </wgt>
<wgt id='1637'> +1.4154204e-12 </wgt>
<wgt id='1638'> +1.4412971e-12 </wgt>
<wgt id='1639'> +1.5147580e-12 </wgt>
<wgt id='1640'> +1.5262311e-12 </wgt>
<wgt id='1641'> +1.4801842e-12 </wgt>
<wgt id='1642'> +1.4911801e-12 </wgt>
<wgt id='1643'> +1.5317044e-12 </wgt>
<wgt id='1644'> +1.4704309e-12 </wgt>
<wgt id='1645'> +1.4345445e-12 </wgt>
<wgt id='1646'> +1.4981633e-12 </wgt>
<wgt id='1647'> +1.4839150e-12 </wgt>
<wgt id='1648'> +1.4176286e-12 </wgt>
<wgt id='1649'> +1.4294587e-12 </wgt>
<wgt id='1650'> +1.5736960e-12 </wgt>
<wgt id='1651'> +1.6065953e-12 </wgt>
<wgt id='1652'> +1.5682134e-12 </wgt>
<wgt id='1653'> +1.2713292e-12 </wgt>
<wgt id='1654'> +1.3515555e-12 </wgt>
<wgt id='1655'> +1.4146062e-12 </wgt>
<wgt id='1656'> +1.5239357e-12 </wgt>
<wgt id='1657'> +1.4728430e-12 </wgt>
<wgt id='1658'> +1.5124879e-12 </wgt>
<wgt id='1659'> +1.4374782e-12 </wgt>
<wgt id='1660'> +1.3648641e-12 </wgt>
<wgt id='1661'> +1.4159559e-12 </wgt>
<wgt id='1662'> +1.4489409e-12 </wgt>
<wgt id='1663'> +1.4913853e-12 </wgt>
<wgt id='1664'> +1.4848610e-12 </wgt>
<wgt id='1665'> +1.6554167e-12 </wgt>
<wgt id='1666'> +1.4840692e-12 </wgt>
<wgt id='1667'> +1.3826689e-12 </wgt>
<wgt id='1668'> +1.3810203e-12 </wgt>
<wgt id='1669'> +1.4516822e-12 </wgt>
<wgt id='1670'> +1.4664191e-12 </wgt>
<wgt id='1671'> +1.4516120e-12 </wgt>
<wgt id='1672'> +1.3828513e-12 </wgt>
<wgt id='1673'> +1.4286079e-12 </wgt>
<wgt id='1674'> +1.4222165e-12 </wgt>
<wgt id='1675'> +1.4040983e-12 </wgt>
<wgt id='1676'> +1.3944502e-12 </wgt>
<wgt id='1677'> +1.4426964e-12 </wgt>
<wgt id='1678'> +1.4769465e-12 </wgt>
<wgt id='1679'> +1.5115797e-12 </wgt>
<wgt id='1680'> +1.3514861e-12 </wgt>
<wgt id='1681'> +1.3967805e-12 </wgt>
<wgt id='1682'> +1.4364885e-12 </wgt>
<wgt id='1683'> +1.4340752e-12 </wgt>
<wgt id='1684'> +1.4613322e-12 </wgt>
<wgt id='1685'> +1.4150601e-12 </wgt>
<wgt id='1686'> +1.4280398e-12 </wgt>
<wgt id='1687'> +1.4520188e-12 </wgt>
<wgt id='1688'> +1.5112902e-12 </wgt>
<wgt id='1689'> +1.3957387e-12 </wgt>
<wgt id='1690'> +1.2883056e-12 </wgt>
<wgt id='1691'> +1.3431992e-12 </wgt>
<wgt id='1692'> +1.3877667e-12 </wgt>
<wgt id='1693'> +1.5726584e-12 </wgt>
<wgt id='1694'> +1.4032829e-12 </wgt>
<wgt id='1695'> +1.4618054e-12 </wgt>
<wgt id='1696'> +1.4718610e-12 </wgt>
<wgt id='1697'> +1.4579681e-12 </wgt>
<wgt id='1698'> +1.4225712e-12 </wgt>
<wgt id='1699'> +1.4027518e-12 </wgt>
<wgt id='1700'> +1.4662580e-12 </wgt>
<wgt id='1701'> +1.4100159e-12 </wgt>
<wgt id='1702'> +1.3045650e-12 </wgt>
<wgt id='1703'> +1.4231098e-12 </wgt>
<wgt id='1704'> +1.4369997e-12 </wgt>
<wgt id='1705'> +1.6175693e-12 </wgt>
<wgt id='1706'> +1.3386844e-12 </wgt>
<wgt id='1707'> +1.4455374e-12 </wgt>
<wgt id='1708'> +1.4095045e-12 </wgt>
<wgt id='1709'> +1.4571105e-12 </wgt>
<wgt id='1710'> +1.4426146e-12 </wgt>
<wgt id='1711'> +1.4802729e-12 </wgt>
<wgt id='1712'> +1.4402179e-12 </wgt>
<wgt id='1713'> +1.4133703e-12 </wgt>
<wgt id='1714'> +1.4032284e-12 </wgt>
<wgt id='1715'> +1.3911288e-12 </wgt>
<wgt id='1716'> +1.4163741e-12 </wgt>
<wgt id='1717'> +1.3906656e-12 </wgt>
<wgt id='1718'> +1.4100808e-12 </wgt>
<wgt id='1719'> +1.4582700e-12 </wgt>
<wgt id='1720'> +1.4090052e-12 </wgt>
<wgt id='1721'> +1.4275065e-12 </wgt>
<wgt id='1722'> +1.4209470e-12 </wgt>
<wgt id='1723'> +1.3683474e-12 </wgt>
<wgt id='1724'> +1.3486472e-12 </wgt>
<wgt id='1725'> +1.4426984e-12 </wgt>
<wgt id='1726'> +1.4366449e-12 </wgt>
<wgt id='1727'> +1.3811507e-12 </wgt>
<wgt id='1728'> +1.4350282e-12 </wgt>
<wgt id='1729'> +1.4165368e-12 </wgt>
<wgt id='1730'> +1.3994948e-12 </wgt>
<wgt id='1731'> +1.4010686e-12 </wgt>
<wgt id='1732'> +1.4464890e-12 </wgt>
<wgt id='1733'> +1.4482269e-12 </wgt>
<wgt id='1734'> +1.4395991e-12 </wgt>
<wgt id='1735'> +1.3987698e-12 </wgt>
<wgt id='1736'> +1.5161297e-12 </wgt>
<wgt id='1737'> +1.4257366e-12 </wgt>
<wgt id='1738'> +1.4168162e-12 </wgt>
<wgt id='1739'> +1.4110473e-12 </wgt>
<wgt id='1740'> +1.3664943e-12 </wgt>
<wgt id='1741'> +1.4112692e-12 </wgt>
<wgt id='1742'> +1.4206799e-12 </wgt>
<wgt id='1743'> +1.4517611e-12 </wgt>
<wgt id='1744'> +1.4175515e-12 </wgt>
<wgt id='1745'> +1.3601045e-12 </wgt>
<wgt id='1746'> +1.3921646e-12 </wgt>
<wgt id='1747'> +1.4339387e-12 </wgt>
<wgt id='1748'> +1.3964125e-12 </wgt>
<wgt id='1749'> +1.4249492e-12 </wgt>
<wgt id='1750'> +1.4435445e-12 </wgt>
<wgt id='1751'> +1.4237549e-12 </wgt>
<wgt id='1752'> +1.3891136e-12 </wgt>
<wgt id='1753'> +1.4233739e-12 </wgt>
<wgt id='1754'> +1.4231614e-12 </wgt>
<wgt id='1755'> +1.4054693e-12 </wgt>
<wgt id='1756'> +1.4243181e-12 </wgt>
<wgt id='1757'> +1.4181976e-12 </wgt>
<wgt id='1758'> +1.4151667e-12 </wgt>
<wgt id='1759'> +1.4441508e-12 </wgt>
<wgt id='1760'> +1.3979456e-12 </wgt>
<wgt id='1761'> +1.4065472e-12 </wgt>
<wgt id='1762'> +1.3916555e-12 </wgt>
<wgt id='1763'> +1.4074279e-12 </wgt>
<wgt id='1764'> +1.4199990e-12 </wgt>
<wgt id='1765'> +1.3883833e-12 </wgt>
<wgt id='1766'> +1.4431348e-12 </wgt>
<wgt id='1767'> +1.4178374e-12 </wgt>
<wgt id='1768'> +1.3949892e-12 </wgt>
<wgt id='1769'> +1.3988605e-12 </wgt>
<wgt id='1770'> +1.4370703e-12 </wgt>
<wgt id='1771'> +1.4048231e-12 </wgt>
<wgt id='1772'> +1.4386441e-12 </wgt>
<wgt id='1773'> +1.4106195e-12 </wgt>
<wgt id='1774'> +1.4117181e-12 </wgt>
<wgt id='1775'> +1.4230870e-12 </wgt>
<wgt id='1776'> +1.4182137e-12 </wgt>
<wgt id='1777'> +1.3794644e-12 </wgt>
<wgt id='1778'> +1.3793014e-12 </wgt>
<wgt id='1779'> +1.4216354e-12 </wgt>
<wgt id='1780'> +1.4974458e-12 </wgt>
<wgt id='1781'> +1.3930985e-12 </wgt>
<wgt id='1782'> +1.3506399e-12 </wgt>
<wgt id='1783'> +1.4048434e-12 </wgt>
<wgt id='1784'> +1.4103990e-12 </wgt>
<wgt id='1785'> +1.4298397e-12 </wgt>
<wgt id='1786'> +1.3306704e-12 </wgt>
<wgt id='1787'> +1.4409356e-12 </wgt>
<wgt id='1788'> +1.3978871e-12 </wgt>
<wgt id='1789'> +1.4054720e-12 </wgt>
<wgt id='1790'> +1.4245006e-12 </wgt>
<wgt id='1791'> +1.4409947e-12 </wgt>
<wgt id='1792'> +1.3936833e-12 </wgt>
<wgt id='1793'> +1.4110654e-12 </wgt>
<wgt id='1794'> +1.4098185e-12 </wgt>
<wgt id='1795'> +1.3833565e-12 </wgt>
<wgt id='1796'> +1.4550981e-12 </wgt>
<wgt id='1797'> +1.4092500e-12 </wgt>
<wgt id='1798'> +1.3857351e-12 </wgt>
<wgt id='1799'> +1.4022730e-12 </wgt>
<wgt id='1800'> +1.4023611e-12 </wgt>
<wgt id='1801'> +1.3967402e-12 </wgt>
<wgt id='1802'> +1.4653260e-12 </wgt>
<wgt id='1803'> +1.4034342e-12 </wgt>
<wgt id='1804'> +1.4092781e-12 </wgt>
<wgt id='1805'> +1.4092712e-12 </wgt>
<wgt id='1806'> +1.4088302e-12 </wgt>
<wgt id='1807'> +1.4323527e-12 </wgt>
<wgt id='1808'> +1.3956201e-12 </wgt>
<wgt id='1809'> +1.4122378e-12 </wgt>
<wgt id='1810'> +1.4003244e-12 </wgt>
<wgt id='1811'> +1.4341671e-12 </wgt>
<wgt id='1812'> +1.4314643e-12 </wgt>
<wgt id='1813'> +1.4200515e-12 </wgt>
<wgt id='1814'> +1.4724410e-12 </wgt>
<wgt id='1815'> +1.7381807e-12 </wgt>
<wgt id='1816'> +1.4133703e-12 </wgt>
<wgt id='1817'> +1.4032284e-12 </wgt>
<wgt id='1818'> +1.3911288e-12 </wgt>
<wgt id='1819'> +1.4163741e-12 </wgt>
<wgt id='1820'> +1.3906656e-12 </wgt>
<wgt id='1821'> +1.4100808e-12 </wgt>
<wgt id='1822'> +1.4582700e-12 </wgt>
<wgt id='1823'> +1.4090052e-12 </wgt>
<wgt id='1824'> +1.4275065e-12 </wgt>
<wgt id='1825'> +1.4209470e-12 </wgt>
<wgt id='1826'> +1.3683474e-12 </wgt>
<wgt id='1827'> +1.3486472e-12 </wgt>
<wgt id='1828'> +1.4426984e-12 </wgt>
<wgt id='1829'> +1.4366449e-12 </wgt>
<wgt id='1830'> +1.3811507e-12 </wgt>
<wgt id='1831'> +1.4350282e-12 </wgt>
<wgt id='1832'> +1.4165368e-12 </wgt>
<wgt id='1833'> +1.3994948e-12 </wgt>
<wgt id='1834'> +1.4010686e-12 </wgt>
<wgt id='1835'> +1.4464890e-12 </wgt>
<wgt id='1836'> +1.4482269e-12 </wgt>
<wgt id='1837'> +1.4395991e-12 </wgt>
<wgt id='1838'> +1.3987698e-12 </wgt>
<wgt id='1839'> +1.5161297e-12 </wgt>
<wgt id='1840'> +1.4257366e-12 </wgt>
<wgt id='1841'> +1.4168162e-12 </wgt>
<wgt id='1842'> +1.4110473e-12 </wgt>
<wgt id='1843'> +1.3664943e-12 </wgt>
<wgt id='1844'> +1.4112692e-12 </wgt>
<wgt id='1845'> +1.4206799e-12 </wgt>
<wgt id='1846'> +1.4517611e-12 </wgt>
<wgt id='1847'> +1.4175515e-12 </wgt>
<wgt id='1848'> +1.3601045e-12 </wgt>
<wgt id='1849'> +1.3921646e-12 </wgt>
<wgt id='1850'> +1.4339387e-12 </wgt>
<wgt id='1851'> +1.3964125e-12 </wgt>
<wgt id='1852'> +1.4249492e-12 </wgt>
<wgt id='1853'> +1.4435445e-12 </wgt>
<wgt id='1854'> +1.4237549e-12 </wgt>
<wgt id='1855'> +1.3891136e-12 </wgt>
<wgt id='1856'> +1.4233739e-12 </wgt>
<wgt id='1857'> +1.4231614e-12 </wgt>
<wgt id='1858'> +1.4054693e-12 </wgt>
<wgt id='1859'> +1.4243181e-12 </wgt>
<wgt id='1860'> +1.4181976e-12 </wgt>
<wgt id='1861'> +1.4151667e-12 </wgt>
<wgt id='1862'> +1.4441508e-12 </wgt>
<wgt id='1863'> +1.3979456e-12 </wgt>
<wgt id='1864'> +1.4065472e-12 </wgt>
<wgt id='1865'> +1.3916555e-12 </wgt>
<wgt id='1866'> +1.4074279e-12 </wgt>
<wgt id='1867'> +1.4199990e-12 </wgt>
<wgt id='1868'> +1.3883833e-12 </wgt>
<wgt id='1869'> +1.4431348e-12 </wgt>
<wgt id='1870'> +1.4178374e-12 </wgt>
<wgt id='1871'> +1.3949892e-12 </wgt>
<wgt id='1872'> +1.3988605e-12 </wgt>
<wgt id='1873'> +1.4370703e-12 </wgt>
<wgt id='1874'> +1.4048231e-12 </wgt>
<wgt id='1875'> +1.4386441e-12 </wgt>
<wgt id='1876'> +1.4106195e-12 </wgt>
<wgt id='1877'> +1.4117181e-12 </wgt>
<wgt id='1878'> +1.4230870e-12 </wgt>
<wgt id='1879'> +1.4182137e-12 </wgt>
<wgt id='1880'> +1.3794644e-12 </wgt>
<wgt id='1881'> +1.3793014e-12 </wgt>
<wgt id='1882'> +1.4216354e-12 </wgt>
<wgt id='1883'> +1.4974458e-12 </wgt>
<wgt id='1884'> +1.3930985e-12 </wgt>
<wgt id='1885'> +1.3506399e-12 </wgt>
<wgt id='1886'> +1.4048434e-12 </wgt>
<wgt id='1887'> +1.4103990e-12 </wgt>
<wgt id='1888'> +1.4298397e-12 </wgt>
<wgt id='1889'> +1.3306704e-12 </wgt>
<wgt id='1890'> +1.4409356e-12 </wgt>
<wgt id='1891'> +1.3978871e-12 </wgt>
<wgt id='1892'> +1.4054720e-12 </wgt>
<wgt id='1893'> +1.4245006e-12 </wgt>
<wgt id='1894'> +1.4409947e-12 </wgt>
<wgt id='1895'> +1.3936833e-12 </wgt>
<wgt id='1896'> +1.4110654e-12 </wgt>
<wgt id='1897'> +1.4098185e-12 </wgt>
<wgt id='1898'> +1.3833565e-12 </wgt>
<wgt id='1899'> +1.4550981e-12 </wgt>
<wgt id='1900'> +1.4092500e-12 </wgt>
<wgt id='1901'> +1.3857351e-12 </wgt>
<wgt id='1902'> +1.4022730e-12 </wgt>
<wgt id='1903'> +1.4023611e-12 </wgt>
<wgt id='1904'> +1.3967402e-12 </wgt>
<wgt id='1905'> +1.4653260e-12 </wgt>
<wgt id='1906'> +1.4034342e-12 </wgt>
<wgt id='1907'> +1.4092781e-12 </wgt>
<wgt id='1908'> +1.4092712e-12 </wgt>
<wgt id='1909'> +1.4088302e-12 </wgt>
<wgt id='1910'> +1.4323527e-12 </wgt>
<wgt id='1911'> +1.3956201e-12 </wgt>
<wgt id='1912'> +1.4122378e-12 </wgt>
<wgt id='1913'> +1.4003244e-12 </wgt>
<wgt id='1914'> +1.4341671e-12 </wgt>
<wgt id='1915'> +1.4314643e-12 </wgt>
<wgt id='1916'> +1.4200515e-12 </wgt>
<wgt id='1917'> +1.3904820e-12 </wgt>
<wgt id='1918'> +1.4360781e-12 </wgt>
<wgt id='1919'> +1.4463279e-12 </wgt>
</rwgt>
</event>
<event>
 9      1 +1.5607000e-12 5.02591100e+01 7.81860800e-03 1.31019100e-01
        2 -1    0    0  502    0 -0.0000000000e+00 +0.0000000000e+00 +4.1623982581e+02 4.1623982581e+02 0.0000000000e+00 0.0000e+00 1.0000e+00
       21 -1    0    0  501  502 +0.0000000000e+00 -0.0000000000e+00 -1.5171412485e+00 1.5171412485e+00 0.0000000000e+00 0.0000e+00 1.0000e+00
     1023  2    1    2    0    0 +1.3445742150e+01 +1.8042937284e+01 +1.9092227188e+02 1.9282817770e+02 1.5001888074e+01 0.0000e+00 0.0000e+00
  1000023  2    3    3    0    0 +5.0795982733e+00 +1.3451589264e+01 +8.7271432612e+01 8.8618920329e+01 5.5011378571e+00 0.0000e+00 0.0000e+00
        2  1    1    2  501    0 -1.3445742150e+01 -1.8042937284e+01 +2.2380041268e+02 2.2492878936e+02 0.0000000000e+00 0.0000e+00 1.0000e+00
  1000022  1    4    4    0    0 +4.5794887842e+00 +1.1946818420e+01 +8.0482149089e+01 8.1646031807e+01 5.0000000000e+00 0.0000e+00 1.0000e+00
      -11  1    4    4    0    0 +3.5223610116e-01 +9.7077432326e-01 +4.6120827965e+00 4.7262861784e+00 5.1100000000e-04 0.0000e+00 -1.0000e+00
       11  1    4    4    0    0 +1.4787338794e-01 +5.3399652052e-01 +2.1772007268e+00 2.2466023433e+00 5.1100000000e-04 0.0000e+00 1.0000e+00
  1000022  1    3    3    0    0 +8.3661438769e+00 +4.5913480204e+00 +1.0365083927e+02 1.0420925737e+02 5.0000000000e+00 0.0000e+00 1.0000e+00
<mgrwt>
<rscale>  1 0.50259113E+02</rscale>
<asrwt>0</asrwt>
<pdfrwt beam="1">  1       21 0.23340668E-03 0.50259113E+02</pdfrwt>
<pdfrwt beam="2">  1        2 0.64036806E-01 0.50259113E+02</pdfrwt>
<totfact> 0.23222168E+07</totfact>
</mgrwt>
<rwgt>
<wgt id='1001'> +1.5607000e-12 </wgt>
<wgt id='1002'> +1.5492679e-12 </wgt>
<wgt id='1003'> +1.5558809e-12 </wgt>
<wgt id='1004'> +1.4269947e-12 </wgt>
<wgt id='1005'> +1.5607000e-12 </wgt>
<wgt id='1006'> +1.3832566e-12 </wgt>
<wgt id='1007'> +1.3706666e-12 </wgt>
<wgt id='1008'> +1.3779404e-12 </wgt>
<wgt id='1009'> +1.2410823e-12 </wgt>
<wgt id='1010'> +1.3832566e-12 </wgt>
<wgt id='1011'> +1.7926892e-12 </wgt>
<wgt id='1012'> +1.7837756e-12 </wgt>
<wgt id='1013'> +1.7889496e-12 </wgt>
<wgt id='1014'> +1.6818234e-12 </wgt>
<wgt id='1015'> +1.7926892e-12 </wgt>
<wgt id='1016'> +1.8466461e-12 </wgt>
<wgt id='1017'> +1.8424897e-12 </wgt>
<wgt id='1018'> +1.8449186e-12 </wgt>
<wgt id='1019'> +1.7889496e-12 </wgt>
<wgt id='1020'> +1.8466461e-12 </wgt>
<wgt id='1021'> +1.6366921e-12 </wgt>
<wgt id='1022'> +1.6300856e-12 </wgt>
<wgt id='1023'> +1.6339219e-12 </wgt>
<wgt id='1024'> +1.5558809e-12 </wgt>
<wgt id='1025'> +1.6366921e-12 </wgt>
<wgt id='1026'> +2.1211396e-12 </wgt>
<wgt id='1027'> +2.1213815e-12 </wgt>
<wgt id='1028'> +2.1212848e-12 </wgt>
<wgt id='1029'> +2.1084152e-12 </wgt>
<wgt id='1030'> +2.1211396e-12 </wgt>
<wgt id='1031'> +1.2489583e-12 </wgt>
<wgt id='1032'> +1.2303307e-12 </wgt>
<wgt id='1033'> +1.2410823e-12 </wgt>
<wgt id='1034'> +1.0405669e-12 </wgt>
<wgt id='1035'> +1.2489583e-12 </wgt>
<wgt id='1036'> +1.1069583e-12 </wgt>
<wgt id='1037'> +1.0884969e-12 </wgt>
<wgt id='1038'> +1.0991442e-12 </wgt>
<wgt id='1039'> +9.0499931e-13 </wgt>
<wgt id='1040'> +1.1069583e-12 </wgt>
<wgt id='1041'> +1.4346088e-12 </wgt>
<wgt id='1042'> +1.4165619e-12 </wgt>
<wgt id='1043'> +1.4269947e-12 </wgt>
<wgt id='1044'> +1.2263884e-12 </wgt>
<wgt id='1045'> +1.4346088e-12 </wgt>
<wgt id='1046'> +1.5607000e-12 </wgt>
<wgt id='1047'> +1.5718504e-12 </wgt>
<wgt id='1048'> +1.6011753e-12 </wgt>
<wgt id='1049'> +1.5060774e-12 </wgt>
<wgt id='1050'> +1.5359326e-12 </wgt>
<wgt id='1051'> +1.5318274e-12 </wgt>
<wgt id='1052'> +1.5330846e-12 </wgt>
<wgt id='1053'> +1.6254912e-12 </wgt>
<wgt id='1054'> +1.5869199e-12 </wgt>
<wgt id='1055'> +1.5375328e-12 </wgt>
<wgt id='1056'> +1.5158494e-12 </wgt>
<wgt id='1057'> +1.5469622e-12 </wgt>
<wgt id='1058'> +1.5198293e-12 </wgt>
<wgt id='1059'> +1.5728008e-12 </wgt>
<wgt id='1060'> +1.5775059e-12 </wgt>
<wgt id='1061'> +1.5858960e-12 </wgt>
<wgt id='1062'> +1.5634094e-12 </wgt>
<wgt id='1063'> +1.5169232e-12 </wgt>
<wgt id='1064'> +1.5524120e-12 </wgt>
<wgt id='1065'> +1.6065507e-12 </wgt>
<wgt id='1066'> +1.5615971e-12 </wgt>
<wgt id='1067'> +1.5880824e-12 </wgt>
<wgt id='1068'> +1.6023809e-12 </wgt>
<wgt id='1069'> +1.6135384e-12 </wgt>
<wgt id='1070'> +1.5570183e-12 </wgt>
<wgt id='1071'> +1.5593448e-12 </wgt>
<wgt id='1072'> +1.5775903e-12 </wgt>
<wgt id='1073'> +1.5551791e-12 </wgt>
<wgt id='1074'> +1.5613701e-12 </wgt>
<wgt id='1075'> +1.5609967e-12 </wgt>
<wgt id='1076'> +1.5658522e-12 </wgt>
<wgt id='1077'> +1.5773426e-12 </wgt>
<wgt id='1078'> +1.5170278e-12 </wgt>
<wgt id='1079'> +1.5562327e-12 </wgt>
<wgt id='1080'> +1.5483482e-12 </wgt>
<wgt id='1081'> +1.5255856e-12 </wgt>
<wgt id='1082'> +1.5505726e-12 </wgt>
<wgt id='1083'> +1.5385722e-12 </wgt>
<wgt id='1084'> +1.5410245e-12 </wgt>
<wgt id='1085'> +1.5874308e-12 </wgt>
<wgt id='1086'> +1.6053733e-12 </wgt>
<wgt id='1087'> +1.5430777e-12 </wgt>
<wgt id='1088'> +1.5624241e-12 </wgt>
<wgt id='1089'> +1.5384411e-12 </wgt>
<wgt id='1090'> +1.5669016e-12 </wgt>
<wgt id='1091'> +1.5671418e-12 </wgt>
<wgt id='1092'> +1.5641016e-12 </wgt>
<wgt id='1093'> +1.5828390e-12 </wgt>
<wgt id='1094'> +1.6136157e-12 </wgt>
<wgt id='1095'> +1.5998620e-12 </wgt>
<wgt id='1096'> +1.5410782e-12 </wgt>
<wgt id='1097'> +1.5666369e-12 </wgt>
<wgt id='1098'> +1.5821614e-12 </wgt>
<wgt id='1099'> +1.5458924e-12 </wgt>
<wgt id='1100'> +1.5921864e-12 </wgt>
<wgt id='1101'> +1.5766696e-12 </wgt>
<wgt id='1102'> +1.5425491e-12 </wgt>
<wgt id='1103'> +1.5522877e-12 </wgt>
<wgt id='1104'> +1.5664245e-12 </wgt>
<wgt id='1105'> +1.5104781e-12 </wgt>
<wgt id='1106'> +1.5609220e-12 </wgt>
<wgt id='1107'> +1.6103321e-12 </wgt>
<wgt id='1108'> +1.5541241e-12 </wgt>
<wgt id='1109'> +1.5563022e-12 </wgt>
<wgt id='1110'> +1.5470412e-12 </wgt>
<wgt id='1111'> +1.5649522e-12 </wgt>
<wgt id='1112'> +1.5542820e-12 </wgt>
<wgt id='1113'> +1.6248230e-12 </wgt>
<wgt id='1114'> +1.5877124e-12 </wgt>
<wgt id='1115'> +1.5993449e-12 </wgt>
<wgt id='1116'> +1.6278640e-12 </wgt>
<wgt id='1117'> +1.5495174e-12 </wgt>
<wgt id='1118'> +1.6247054e-12 </wgt>
<wgt id='1119'> +1.4997943e-12 </wgt>
<wgt id='1120'> +1.5427749e-12 </wgt>
<wgt id='1121'> +1.5255454e-12 </wgt>
<wgt id='1122'> +1.5494183e-12 </wgt>
<wgt id='1123'> +1.5885451e-12 </wgt>
<wgt id='1124'> +1.5808993e-12 </wgt>
<wgt id='1125'> +1.5120851e-12 </wgt>
<wgt id='1126'> +1.5515836e-12 </wgt>
<wgt id='1127'> +1.5627272e-12 </wgt>
<wgt id='1128'> +1.5634094e-12 </wgt>
<wgt id='1129'> +1.5345436e-12 </wgt>
<wgt id='1130'> +1.5439903e-12 </wgt>
<wgt id='1131'> +1.5715672e-12 </wgt>
<wgt id='1132'> +1.5877067e-12 </wgt>
<wgt id='1133'> +1.5249677e-12 </wgt>
<wgt id='1134'> +1.5364128e-12 </wgt>
<wgt id='1135'> +1.4989824e-12 </wgt>
<wgt id='1136'> +1.5209333e-12 </wgt>
<wgt id='1137'> +1.5662736e-12 </wgt>
<wgt id='1138'> +1.5415769e-12 </wgt>
<wgt id='1139'> +1.5530095e-12 </wgt>
<wgt id='1140'> +1.5787579e-12 </wgt>
<wgt id='1141'> +1.5545263e-12 </wgt>
<wgt id='1142'> +1.5824112e-12 </wgt>
<wgt id='1143'> +1.5118370e-12 </wgt>
<wgt id='1144'> +1.5467313e-12 </wgt>
<wgt id='1145'> +1.5605343e-12 </wgt>
<wgt id='1146'> +1.5641588e-12 </wgt>
<wgt id='1147'> +1.3889105e-12 </wgt>
<wgt id='1148'> +1.4177250e-12 </wgt>
<wgt id='1149'> +1.3387150e-12 </wgt>
<wgt id='1150'> +1.3912090e-12 </wgt>
<wgt id='1151'> +1.6217630e-12 </wgt>
<wgt id='1152'> +2.1825697e-12 </wgt>
<wgt id='1153'> +2.1808327e-12 </wgt>
<wgt id='1154'> +2.1834508e-12 </wgt>
<wgt id='1155'> +2.1770551e-12 </wgt>
<wgt id='1156'> +2.1853429e-12 </wgt>
<wgt id='1157'> +2.1860320e-12 </wgt>
<wgt id='1158'> +2.1778149e-12 </wgt>
<wgt id='1159'> +2.1855875e-12 </wgt>
<wgt id='1160'> +2.1806003e-12 </wgt>
<wgt id='1161'> +2.1788423e-12 </wgt>
<wgt id='1162'> +2.1850583e-12 </wgt>
<wgt id='1163'> +2.1830121e-12 </wgt>
<wgt id='1164'> +2.1820854e-12 </wgt>
<wgt id='1165'> +2.1823546e-12 </wgt>
<wgt id='1166'> +2.1825319e-12 </wgt>
<wgt id='1167'> +2.2051190e-12 </wgt>
<wgt id='1168'> +2.1548319e-12 </wgt>
<wgt id='1169'> +2.1892194e-12 </wgt>
<wgt id='1170'> +2.1775957e-12 </wgt>
<wgt id='1171'> +2.1738968e-12 </wgt>
<wgt id='1172'> +2.1937168e-12 </wgt>
<wgt id='1173'> +2.1602447e-12 </wgt>
<wgt id='1174'> +2.2054811e-12 </wgt>
<wgt id='1175'> +2.1871365e-12 </wgt>
<wgt id='1176'> +2.1783079e-12 </wgt>
<wgt id='1177'> +2.1768692e-12 </wgt>
<wgt id='1178'> +2.1977027e-12 </wgt>
<wgt id='1179'> +2.1806785e-12 </wgt>
<wgt id='1180'> +2.1781860e-12 </wgt>
<wgt id='1181'> +2.1892010e-12 </wgt>
<wgt id='1182'> +2.1743004e-12 </wgt>
<wgt id='1183'> +2.1728501e-12 </wgt>
<wgt id='1184'> +2.1832215e-12 </wgt>
<wgt id='1185'> +2.1788691e-12 </wgt>
<wgt id='1186'> +2.1848022e-12 </wgt>
<wgt id='1187'> +2.1853372e-12 </wgt>
<wgt id='1188'> +2.1815700e-12 </wgt>
<wgt id='1189'> +2.1768875e-12 </wgt>
<wgt id='1190'> +2.1612291e-12 </wgt>
<wgt id='1191'> +2.1850675e-12 </wgt>
<wgt id='1192'> +2.1878255e-12 </wgt>
<wgt id='1193'> +1.3868222e-12 </wgt>
<wgt id='1194'> +1.3729452e-12 </wgt>
<wgt id='1195'> +1.3982149e-12 </wgt>
<wgt id='1196'> +1.3879716e-12 </wgt>
<wgt id='1197'> +1.3855453e-12 </wgt>
<wgt id='1198'> +1.3861104e-12 </wgt>
<wgt id='1199'> +1.3879473e-12 </wgt>
<wgt id='1200'> +1.3838004e-12 </wgt>
<wgt id='1201'> +1.3889000e-12 </wgt>
<wgt id='1202'> +1.3857112e-12 </wgt>
<wgt id='1203'> +1.3884271e-12 </wgt>
<wgt id='1204'> +1.3802117e-12 </wgt>
<wgt id='1205'> +1.3907542e-12 </wgt>
<wgt id='1206'> +1.3898051e-12 </wgt>
<wgt id='1207'> +1.3827760e-12 </wgt>
<wgt id='1208'> +1.3909643e-12 </wgt>
<wgt id='1209'> +1.3853897e-12 </wgt>
<wgt id='1210'> +1.3868259e-12 </wgt>
<wgt id='1211'> +1.3835213e-12 </wgt>
<wgt id='1212'> +1.3872844e-12 </wgt>
<wgt id='1213'> +1.3867721e-12 </wgt>
<wgt id='1214'> +1.3738174e-12 </wgt>
<wgt id='1215'> +1.4045463e-12 </wgt>
<wgt id='1216'> +1.3904340e-12 </wgt>
<wgt id='1217'> +1.3843547e-12 </wgt>
<wgt id='1218'> +1.3917117e-12 </wgt>
<wgt id='1219'> +1.3841711e-12 </wgt>
<wgt id='1220'> +1.3946937e-12 </wgt>
<wgt id='1221'> +1.3849813e-12 </wgt>
<wgt id='1222'> +1.4054505e-12 </wgt>
<wgt id='1223'> +1.3596229e-12 </wgt>
<wgt id='1224'> +1.3909064e-12 </wgt>
<wgt id='1225'> +1.3852076e-12 </wgt>
<wgt id='1226'> +1.3852371e-12 </wgt>
<wgt id='1227'> +1.3882038e-12 </wgt>
<wgt id='1228'> +1.3759631e-12 </wgt>
<wgt id='1229'> +1.3913084e-12 </wgt>
<wgt id='1230'> +1.3876238e-12 </wgt>
<wgt id='1231'> +1.3950319e-12 </wgt>
<wgt id='1232'> +1.3860025e-12 </wgt>
<wgt id='1233'> +1.3870116e-12 </wgt>
<wgt id='1234'> +1.3868222e-12 </wgt>
<wgt id='1235'> +1.3792904e-12 </wgt>
<wgt id='1236'> +1.3822073e-12 </wgt>
<wgt id='1237'> +1.3848158e-12 </wgt>
<wgt id='1238'> +1.3890533e-12 </wgt>
<wgt id='1239'> +1.3907336e-12 </wgt>
<wgt id='1240'> +1.3924725e-12 </wgt>
<wgt id='1241'> +1.3180944e-12 </wgt>
<wgt id='1242'> +1.3036220e-12 </wgt>
<wgt id='1243'> +1.3323921e-12 </wgt>
<wgt id='1244'> +1.3198786e-12 </wgt>
<wgt id='1245'> +1.3167253e-12 </wgt>
<wgt id='1246'> +1.3142894e-12 </wgt>
<wgt id='1247'> +1.3213207e-12 </wgt>
<wgt id='1248'> +1.3180920e-12 </wgt>
<wgt id='1249'> +1.3181240e-12 </wgt>
<wgt id='1250'> +1.3191585e-12 </wgt>
<wgt id='1251'> +1.3173477e-12 </wgt>
<wgt id='1252'> +1.3159081e-12 </wgt>
<wgt id='1253'> +1.3197859e-12 </wgt>
<wgt id='1254'> +1.3132135e-12 </wgt>
<wgt id='1255'> +1.3209511e-12 </wgt>
<wgt id='1256'> +1.3167835e-12 </wgt>
<wgt id='1257'> +1.3213272e-12 </wgt>
<wgt id='1258'> +1.3284797e-12 </wgt>
<wgt id='1259'> +1.3068526e-12 </wgt>
<wgt id='1260'> +1.3201128e-12 </wgt>
<wgt id='1261'> +1.3161569e-12 </wgt>
<wgt id='1262'> +1.3166222e-12 </wgt>
<wgt id='1263'> +1.3190144e-12 </wgt>
<wgt id='1264'> +1.3246599e-12 </wgt>
<wgt id='1265'> +1.3151120e-12 </wgt>
<wgt id='1266'> +1.2992521e-12 </wgt>
<wgt id='1267'> +1.3355402e-12 </wgt>
<wgt id='1268'> +1.3249625e-12 </wgt>
<wgt id='1269'> +1.3125674e-12 </wgt>
<wgt id='1270'> +1.3228006e-12 </wgt>
<wgt id='1271'> +1.3203369e-12 </wgt>
<wgt id='1272'> +1.3210604e-12 </wgt>
<wgt id='1273'> +1.3178134e-12 </wgt>
<wgt id='1274'> +1.3195876e-12 </wgt>
<wgt id='1275'> +1.3160638e-12 </wgt>
<wgt id='1276'> +1.3253758e-12 </wgt>
<wgt id='1277'> +1.3080602e-12 </wgt>
<wgt id='1278'> +1.3289189e-12 </wgt>
<wgt id='1279'> +1.3225416e-12 </wgt>
<wgt id='1280'> +1.3188860e-12 </wgt>
<wgt id='1281'> +1.3181194e-12 </wgt>
<wgt id='1282'> +1.3180944e-12 </wgt>
<wgt id='1283'> +1.3110289e-12 </wgt>
<wgt id='1284'> +1.3139515e-12 </wgt>
<wgt id='1285'> +1.3162061e-12 </wgt>
<wgt id='1286'> +1.3200553e-12 </wgt>
<wgt id='1287'> +1.3213768e-12 </wgt>
<wgt id='1288'> +1.3224988e-12 </wgt>
<wgt id='1289'> +1.4367961e-12 </wgt>
<wgt id='1290'> +1.4388671e-12 </wgt>
<wgt id='1291'> +1.4345331e-12 </wgt>
<wgt id='1292'> +1.4374595e-12 </wgt>
<wgt id='1293'> +1.4363241e-12 </wgt>
<wgt id='1294'> +1.4217500e-12 </wgt>
<wgt id='1295'> +1.4513242e-12 </wgt>
<wgt id='1296'> +1.4398036e-12 </wgt>
<wgt id='1297'> +1.4329515e-12 </wgt>
<wgt id='1298'> +1.4430502e-12 </wgt>
<wgt id='1299'> +1.4289324e-12 </wgt>
<wgt id='1300'> +1.4398392e-12 </wgt>
<wgt id='1301'> +1.4306950e-12 </wgt>
<wgt id='1302'> +1.4328005e-12 </wgt>
<wgt id='1303'> +1.4423417e-12 </wgt>
<wgt id='1304'> +1.4353080e-12 </wgt>
<wgt id='1305'> +1.4377951e-12 </wgt>
<wgt id='1306'> +1.4369061e-12 </wgt>
<wgt id='1307'> +1.4364994e-12 </wgt>
<wgt id='1308'> +1.4288449e-12 </wgt>
<wgt id='1309'> +1.4428648e-12 </wgt>
<wgt id='1310'> +1.4348814e-12 </wgt>
<wgt id='1311'> +1.4389945e-12 </wgt>
<wgt id='1312'> +1.4447129e-12 </wgt>
<wgt id='1313'> +1.4292711e-12 </wgt>
<wgt id='1314'> +1.4185755e-12 </wgt>
<wgt id='1315'> +1.4527913e-12 </wgt>
<wgt id='1316'> +1.4456787e-12 </wgt>
<wgt id='1317'> +1.4365555e-12 </wgt>
<wgt id='1318'> +1.4472894e-12 </wgt>
<wgt id='1319'> +1.4233842e-12 </wgt>
<wgt id='1320'> +1.4498333e-12 </wgt>
<wgt id='1321'> +1.4251642e-12 </wgt>
<wgt id='1322'> +1.4362692e-12 </wgt>
<wgt id='1323'> +1.4380094e-12 </wgt>
<wgt id='1324'> +1.4328310e-12 </wgt>
<wgt id='1325'> +1.4491053e-12 </wgt>
<wgt id='1326'> +1.4357827e-12 </wgt>
<wgt id='1327'> +1.4403209e-12 </wgt>
<wgt id='1328'> +1.4364183e-12 </wgt>
<wgt id='1329'> +1.4367618e-12 </wgt>
<wgt id='1330'> +1.4445719e-12 </wgt>
<wgt id='1331'> +1.4317246e-12 </wgt>
<wgt id='1332'> +1.4487308e-12 </wgt>
<wgt id='1333'> +1.4396706e-12 </wgt>
<wgt id='1334'> +1.4348707e-12 </wgt>
<wgt id='1335'> +1.4428982e-12 </wgt>
<wgt id='1336'> +1.4387646e-12 </wgt>
<wgt id='1337'> +1.4438164e-12 </wgt>
<wgt id='1338'> +1.4354192e-12 </wgt>
<wgt id='1339'> +1.4376261e-12 </wgt>
<wgt id='1340'> +1.4026468e-12 </wgt>
<wgt id='1341'> +1.4045343e-12 </wgt>
<wgt id='1342'> +1.4006038e-12 </wgt>
<wgt id='1343'> +1.4033699e-12 </wgt>
<wgt id='1344'> +1.4021507e-12 </wgt>
<wgt id='1345'> +1.3870626e-12 </wgt>
<wgt id='1346'> +1.4170933e-12 </wgt>
<wgt id='1347'> +1.4064429e-12 </wgt>
<wgt id='1348'> +1.3982880e-12 </wgt>
<wgt id='1349'> +1.4084462e-12 </wgt>
<wgt id='1350'> +1.3969327e-12 </wgt>
<wgt id='1351'> +1.4054609e-12 </wgt>
<wgt id='1352'> +1.3965068e-12 </wgt>
<wgt id='1353'> +1.3977058e-12 </wgt>
<wgt id='1354'> +1.4114563e-12 </wgt>
<wgt id='1355'> +1.4020201e-12 </wgt>
<wgt id='1356'> +1.4029824e-12 </wgt>
<wgt id='1357'> +1.4012892e-12 </wgt>
<wgt id='1358'> +1.4039939e-12 </wgt>
<wgt id='1359'> +1.3949832e-12 </wgt>
<wgt id='1360'> +1.4092617e-12 </wgt>
<wgt id='1361'> +1.4016848e-12 </wgt>
<wgt id='1362'> +1.4040900e-12 </wgt>
<wgt id='1363'> +1.4167268e-12 </wgt>
<wgt id='1364'> +1.3938713e-12 </wgt>
<wgt id='1365'> +1.4108770e-12 </wgt>
<wgt id='1366'> +1.3867850e-12 </wgt>
<wgt id='1367'> +1.4114073e-12 </wgt>
<wgt id='1368'> +1.4014871e-12 </wgt>
<wgt id='1369'> +1.4113793e-12 </wgt>
<wgt id='1370'> +1.3917632e-12 </wgt>
<wgt id='1371'> +1.4135246e-12 </wgt>
<wgt id='1372'> +1.3893350e-12 </wgt>
<wgt id='1373'> +1.3993158e-12 </wgt>
<wgt id='1374'> +1.4062633e-12 </wgt>
<wgt id='1375'> +1.3988483e-12 </wgt>
<wgt id='1376'> +1.4150716e-12 </wgt>
<wgt id='1377'> +1.4013563e-12 </wgt>
<wgt id='1378'> +1.4065587e-12 </wgt>
<wgt id='1379'> +1.4024079e-12 </wgt>
<wgt id='1380'> +1.4024379e-12 </wgt>
<wgt id='1381'> +1.4106896e-12 </wgt>
<wgt id='1382'> +1.3974954e-12 </wgt>
<wgt id='1383'> +1.4129015e-12 </wgt>
<wgt id='1384'> +1.4067964e-12 </wgt>
<wgt id='1385'> +1.4010106e-12 </wgt>
<wgt id='1386'> +1.4074984e-12 </wgt>
<wgt id='1387'> +1.4041429e-12 </wgt>
<wgt id='1388'> +1.4096518e-12 </wgt>
<wgt id='1389'> +1.4009936e-12 </wgt>
<wgt id='1390'> +1.4039220e-12 </wgt>
<wgt id='1391'> +1.3805120e-12 </wgt>
<wgt id='1392'> +1.3325101e-12 </wgt>
<wgt id='1393'> +1.3488869e-12 </wgt>
<wgt id='1394'> +1.3651374e-12 </wgt>
<wgt id='1395'> +1.3972108e-12 </wgt>
<wgt id='1396'> +1.3812632e-12 </wgt>
<wgt id='1397'> +1.3587142e-12 </wgt>
<wgt id='1398'> +1.3622945e-12 </wgt>
<wgt id='1399'> +1.3660230e-12 </wgt>
<wgt id='1400'> +1.3706142e-12 </wgt>
<wgt id='1401'> +1.3758859e-12 </wgt>
<wgt id='1402'> +1.3865006e-12 </wgt>
<wgt id='1403'> +1.3922314e-12 </wgt>
<wgt id='1404'> +1.3980610e-12 </wgt>
<wgt id='1405'> +1.3812632e-12 </wgt>
<wgt id='1406'> +1.3767272e-12 </wgt>
<wgt id='1407'> +1.3790850e-12 </wgt>
<wgt id='1408'> +1.3832364e-12 </wgt>
<wgt id='1409'> +1.3848512e-12 </wgt>
<wgt id='1410'> +1.3031721e-12 </wgt>
<wgt id='1411'> +1.3077835e-12 </wgt>
<wgt id='1412'> +1.2971981e-12 </wgt>
<wgt id='1413'> +1.2957839e-12 </wgt>
<wgt id='1414'> +1.3105308e-12 </wgt>
<wgt id='1415'> +1.3006069e-12 </wgt>
<wgt id='1416'> +1.3042003e-12 </wgt>
<wgt id='1417'> +1.2977029e-12 </wgt>
<wgt id='1418'> +1.3085858e-12 </wgt>
<wgt id='1419'> +1.3047299e-12 </wgt>
<wgt id='1420'> +1.3016632e-12 </wgt>
<wgt id='1421'> +1.2906664e-12 </wgt>
<wgt id='1422'> +1.3084824e-12 </wgt>
<wgt id='1423'> +1.3018484e-12 </wgt>
<wgt id='1424'> +1.3047746e-12 </wgt>
<wgt id='1425'> +1.2956085e-12 </wgt>
<wgt id='1426'> +1.3113008e-12 </wgt>
<wgt id='1427'> +1.2855515e-12 </wgt>
<wgt id='1428'> +1.3126192e-12 </wgt>
<wgt id='1429'> +1.3070749e-12 </wgt>
<wgt id='1430'> +1.2979288e-12 </wgt>
<wgt id='1431'> +1.3036915e-12 </wgt>
<wgt id='1432'> +1.3027269e-12 </wgt>
<wgt id='1433'> +1.2916537e-12 </wgt>
<wgt id='1434'> +1.3117267e-12 </wgt>
<wgt id='1435'> +1.2959150e-12 </wgt>
<wgt id='1436'> +1.3214698e-12 </wgt>
<wgt id='1437'> +1.3111677e-12 </wgt>
<wgt id='1438'> +1.3045413e-12 </wgt>
<wgt id='1439'> +1.2973176e-12 </wgt>
<wgt id='1440'> +1.3130716e-12 </wgt>
<wgt id='1441'> +1.3063340e-12 </wgt>
<wgt id='1442'> +1.2972006e-12 </wgt>
<wgt id='1443'> +1.2999860e-12 </wgt>
<wgt id='1444'> +1.3123506e-12 </wgt>
<wgt id='1445'> +1.3198651e-12 </wgt>
<wgt id='1446'> +1.2976257e-12 </wgt>
<wgt id='1447'> +1.3039231e-12 </wgt>
<wgt id='1448'> +1.3065933e-12 </wgt>
<wgt id='1449'> +1.3034504e-12 </wgt>
<wgt id='1450'> +1.3023520e-12 </wgt>
<wgt id='1451'> +1.3012271e-12 </wgt>
<wgt id='1452'> +1.3108377e-12 </wgt>
<wgt id='1453'> +1.3035454e-12 </wgt>
<wgt id='1454'> +1.2994799e-12 </wgt>
<wgt id='1455'> +1.3120224e-12 </wgt>
<wgt id='1456'> +1.3096094e-12 </wgt>
<wgt id='1457'> +1.3094204e-12 </wgt>
<wgt id='1458'> +1.3019506e-12 </wgt>
<wgt id='1459'> +1.3081646e-12 </wgt>
<wgt id='1460'> +1.3117392e-12 </wgt>
<wgt id='1461'> +1.3031721e-12 </wgt>
<wgt id='1462'> +1.2908080e-12 </wgt>
<wgt id='1463'> +1.3111428e-12 </wgt>
<wgt id='1464'> +1.3006587e-12 </wgt>
<wgt id='1465'> +1.2752033e-12 </wgt>
<wgt id='1466'> +1.2795813e-12 </wgt>
<wgt id='1467'> +1.2844452e-12 </wgt>
<wgt id='1468'> +1.2910438e-12 </wgt>
<wgt id='1469'> +1.2953840e-12 </wgt>
<wgt id='1470'> +1.3062309e-12 </wgt>
<wgt id='1471'> +1.3112701e-12 </wgt>
<wgt id='1472'> +1.3166299e-12 </wgt>
<wgt id='1473'> +1.3006587e-12 </wgt>
<wgt id='1474'> +1.2968485e-12 </wgt>
<wgt id='1475'> +1.2992060e-12 </wgt>
<wgt id='1476'> +1.3020930e-12 </wgt>
<wgt id='1477'> +1.3033403e-12 </wgt>
<wgt id='1478'> +1.3467713e-12 </wgt>
<wgt id='1479'> +1.3460826e-12 </wgt>
<wgt id='1480'> +1.3321866e-12 </wgt>
<wgt id='1481'> +1.3655621e-12 </wgt>
<wgt id='1482'> +1.3474582e-12 </wgt>
<wgt id='1483'> +1.3314701e-12 </wgt>
<wgt id='1484'> +1.3392793e-12 </wgt>
<wgt id='1485'> +1.3517307e-12 </wgt>
<wgt id='1486'> +1.3466316e-12 </wgt>
<wgt id='1487'> +1.3557855e-12 </wgt>
<wgt id='1488'> +1.3441048e-12 </wgt>
<wgt id='1489'> +1.3495602e-12 </wgt>
<wgt id='1490'> +1.3427962e-12 </wgt>
<wgt id='1491'> +1.3520243e-12 </wgt>
<wgt id='1492'> +1.3486640e-12 </wgt>
<wgt id='1493'> +1.3284306e-12 </wgt>
<wgt id='1494'> +1.3441800e-12 </wgt>
<wgt id='1495'> +1.3310314e-12 </wgt>
<wgt id='1496'> +1.3470707e-12 </wgt>
<wgt id='1497'> +1.3481843e-12 </wgt>
<wgt id='1498'> +1.3465536e-12 </wgt>
<wgt id='1499'> +1.3494482e-12 </wgt>
<wgt id='1500'> +1.3463927e-12 </wgt>
<wgt id='1501'> +1.3472682e-12 </wgt>
<wgt id='1502'> +1.3472149e-12 </wgt>
<wgt id='1503'> +1.3509683e-12 </wgt>
<wgt id='1504'> +1.3437101e-12 </wgt>
<wgt id='1505'> +1.3489271e-12 </wgt>
<wgt id='1506'> +1.3477622e-12 </wgt>
<wgt id='1507'> +1.3464053e-12 </wgt>
<wgt id='1508'> +1.3509166e-12 </wgt>
<wgt id='1509'> +1.3239184e-12 </wgt>
<wgt id='1510'> +1.3275579e-12 </wgt>
<wgt id='1511'> +1.3093743e-12 </wgt>
<wgt id='1512'> +1.3132910e-12 </wgt>
<wgt id='1513'> +1.3233333e-12 </wgt>
<wgt id='1514'> +1.3294467e-12 </wgt>
<wgt id='1515'> +1.3271614e-12 </wgt>
<wgt id='1516'> +1.3282604e-12 </wgt>
<wgt id='1517'> +1.3253611e-12 </wgt>
<wgt id='1518'> +1.3240505e-12 </wgt>
<wgt id='1519'> +1.3232169e-12 </wgt>
<wgt id='1520'> +1.3242357e-12 </wgt>
<wgt id='1521'> +1.3247469e-12 </wgt>
<wgt id='1522'> +1.3256509e-12 </wgt>
<wgt id='1523'> +1.3266541e-12 </wgt>
<wgt id='1524'> +1.3232201e-12 </wgt>
<wgt id='1525'> +1.3252774e-12 </wgt>
<wgt id='1526'> +1.3239736e-12 </wgt>
<wgt id='1527'> +1.3230851e-12 </wgt>
<wgt id='1528'> +1.3246233e-12 </wgt>
<wgt id='1529'> +1.3238051e-12 </wgt>
<wgt id='1530'> +1.3261863e-12 </wgt>
<wgt id='1531'> +1.3254329e-12 </wgt>
<wgt id='1532'> +1.3193170e-12 </wgt>
<wgt id='1533'> +1.3244865e-12 </wgt>
<wgt id='1534'> +1.3241322e-12 </wgt>
<wgt id='1535'> +1.3179011e-12 </wgt>
<wgt id='1536'> +1.3255296e-12 </wgt>
<wgt id='1537'> +1.3250739e-12 </wgt>
<wgt id='1538'> +1.3150864e-12 </wgt>
<wgt id='1539'> +1.3270851e-12 </wgt>
<wgt id='1540'> +1.3239937e-12 </wgt>
<wgt id='1541'> +1.3217518e-12 </wgt>
<wgt id='1542'> +1.3220321e-12 </wgt>
<wgt id='1543'> +1.3244570e-12 </wgt>
<wgt id='1544'> +1.3238018e-12 </wgt>
<wgt id='1545'> +1.3219761e-12 </wgt>
<wgt id='1546'> +1.3219143e-12 </wgt>
<wgt id='1547'> +1.3229582e-12 </wgt>
<wgt id='1548'> +1.3244711e-12 </wgt>
<wgt id='1549'> +1.3222694e-12 </wgt>
<wgt id='1550'> +1.3240730e-12 </wgt>
<wgt id='1551'> +1.3252078e-12 </wgt>
<wgt id='1552'> +1.3253347e-12 </wgt>
<wgt id='1553'> +1.3235054e-12 </wgt>
<wgt id='1554'> +1.3227052e-12 </wgt>
<wgt id='1555'> +1.3258364e-12 </wgt>
<wgt id='1556'> +1.3273052e-12 </wgt>
<wgt id='1557'> +1.3233942e-12 </wgt>
<wgt id='1558'> +1.3226194e-12 </wgt>
<wgt id='1559'> +1.3207049e-12 </wgt>
<wgt id='1560'> +1.3237001e-12 </wgt>
<wgt id='1561'> +1.3229875e-12 </wgt>
<wgt id='1562'> +1.3240352e-12 </wgt>
<wgt id='1563'> +1.3235312e-12 </wgt>
<wgt id='1564'> +1.3234094e-12 </wgt>
<wgt id='1565'> +1.3245492e-12 </wgt>
<wgt id='1566'> +1.3244704e-12 </wgt>
<wgt id='1567'> +1.3252506e-12 </wgt>
<wgt id='1568'> +1.3226295e-12 </wgt>
<wgt id='1569'> +1.3259114e-12 </wgt>
<wgt id='1570'> +1.3245842e-12 </wgt>
<wgt id='1571'> +1.3241644e-12 </wgt>
<wgt id='1572'> +1.3244998e-12 </wgt>
<wgt id='1573'> +1.3244485e-12 </wgt>
<wgt id='1574'> +1.3249006e-12 </wgt>
<wgt id='1575'> +1.3226154e-12 </wgt>
<wgt id='1576'> +1.3240308e-12 </wgt>
<wgt id='1577'> +1.3242057e-12 </wgt>
<wgt id='1578'> +1.3255589e-12 </wgt>
<wgt id='1579'> +1.3228281e-12 </wgt>
<wgt id='1580'> +1.3232517e-12 </wgt>
<wgt id='1581'> +1.3239769e-12 </wgt>
<wgt id='1582'> +1.3259017e-12 </wgt>
<wgt id='1583'> +1.3233484e-12 </wgt>
<wgt id='1584'> +1.3251820e-12 </wgt>
<wgt id='1585'> +1.3246136e-12 </wgt>
<wgt id='1586'> +1.3236028e-12 </wgt>
<wgt id='1587'> +1.3235457e-12 </wgt>
<wgt id='1588'> +1.3234720e-12 </wgt>
<wgt id='1589'> +1.3243835e-12 </wgt>
<wgt id='1590'> +1.3241716e-12 </wgt>
<wgt id='1591'> +1.3242480e-12 </wgt>
<wgt id='1592'> +1.3234678e-12 </wgt>
<wgt id='1593'> +1.3248933e-12 </wgt>
<wgt id='1594'> +1.3238508e-12 </wgt>
<wgt id='1595'> +1.3244749e-12 </wgt>
<wgt id='1596'> +1.3229696e-12 </wgt>
<wgt id='1597'> +1.3251754e-12 </wgt>
<wgt id='1598'> +1.3232793e-12 </wgt>
<wgt id='1599'> +1.3229028e-12 </wgt>
<wgt id='1600'> +1.3228202e-12 </wgt>
<wgt id='1601'> +1.3238173e-12 </wgt>
<wgt id='1602'> +1.3244834e-12 </wgt>
<wgt id='1603'> +1.3240690e-12 </wgt>
<wgt id='1604'> +1.3243162e-12 </wgt>
<wgt id='1605'> +1.3240055e-12 </wgt>
<wgt id='1606'> +1.3237732e-12 </wgt>
<wgt id='1607'> +1.3231801e-12 </wgt>
<wgt id='1608'> +1.3241587e-12 </wgt>
<wgt id='1609'> +1.3243912e-12 </wgt>
<wgt id='1610'> +1.3073093e-12 </wgt>
<wgt id='1611'> +1.3396485e-12 </wgt>
<wgt id='1612'> +1.5422363e-12 </wgt>
<wgt id='1613'> +1.5125228e-12 </wgt>
<wgt id='1614'> +1.4960456e-12 </wgt>
<wgt id='1615'> +1.5315336e-12 </wgt>
<wgt id='1616'> +1.4962827e-12 </wgt>
<wgt id='1617'> +1.5250163e-12 </wgt>
<wgt id='1618'> +1.5574713e-12 </wgt>
<wgt id='1619'> +1.5314192e-12 </wgt>
<wgt id='1620'> +1.5129148e-12 </wgt>
<wgt id='1621'> +1.5554949e-12 </wgt>
<wgt id='1622'> +1.5518542e-12 </wgt>
<wgt id='1623'> +1.5261347e-12 </wgt>
<wgt id='1624'> +1.5694089e-12 </wgt>
<wgt id='1625'> +1.4995209e-12 </wgt>
<wgt id='1626'> +1.5165880e-12 </wgt>
<wgt id='1627'> +1.5627387e-12 </wgt>
<wgt id='1628'> +1.4945844e-12 </wgt>
<wgt id='1629'> +1.5721609e-12 </wgt>
<wgt id='1630'> +1.5024096e-12 </wgt>
<wgt id='1631'> +1.5279687e-12 </wgt>
<wgt id='1632'> +1.4756070e-12 </wgt>
<wgt id='1633'> +1.4903996e-12 </wgt>
<wgt id='1634'> +1.5384138e-12 </wgt>
<wgt id='1635'> +1.5743679e-12 </wgt>
<wgt id='1636'> +1.5631366e-12 </wgt>
<wgt id='1637'> +1.5711514e-12 </wgt>
<wgt id='1638'> +1.5591150e-12 </wgt>
<wgt id='1639'> +1.5130936e-12 </wgt>
<wgt id='1640'> +1.5471621e-12 </wgt>
<wgt id='1641'> +1.5373840e-12 </wgt>
<wgt id='1642'> +1.4962638e-12 </wgt>
<wgt id='1643'> +1.5150032e-12 </wgt>
<wgt id='1644'> +1.5669151e-12 </wgt>
<wgt id='1645'> +1.5269032e-12 </wgt>
<wgt id='1646'> +1.5398139e-12 </wgt>
<wgt id='1647'> +1.5577361e-12 </wgt>
<wgt id='1648'> +1.5533800e-12 </wgt>
<wgt id='1649'> +1.6131521e-12 </wgt>
<wgt id='1650'> +1.5204847e-12 </wgt>
<wgt id='1651'> +1.5497749e-12 </wgt>
<wgt id='1652'> +1.5049043e-12 </wgt>
<wgt id='1653'> +1.5611487e-12 </wgt>
<wgt id='1654'> +1.5470377e-12 </wgt>
<wgt id='1655'> +1.5753913e-12 </wgt>
<wgt id='1656'> +1.5374322e-12 </wgt>
<wgt id='1657'> +1.5467477e-12 </wgt>
<wgt id='1658'> +1.5096628e-12 </wgt>
<wgt id='1659'> +1.5694089e-12 </wgt>
<wgt id='1660'> +1.5656704e-12 </wgt>
<wgt id='1661'> +1.5639359e-12 </wgt>
<wgt id='1662'> +1.6070087e-12 </wgt>
<wgt id='1663'> +1.5391353e-12 </wgt>
<wgt id='1664'> +1.5269953e-12 </wgt>
<wgt id='1665'> +1.4978581e-12 </wgt>
<wgt id='1666'> +1.5656989e-12 </wgt>
<wgt id='1667'> +1.5301028e-12 </wgt>
<wgt id='1668'> +1.5657352e-12 </wgt>
<wgt id='1669'> +1.5616467e-12 </wgt>
<wgt id='1670'> +1.5309637e-12 </wgt>
<wgt id='1671'> +1.5301305e-12 </wgt>
<wgt id='1672'> +1.5698942e-12 </wgt>
<wgt id='1673'> +1.5353647e-12 </wgt>
<wgt id='1674'> +1.5012430e-12 </wgt>
<wgt id='1675'> +1.5415283e-12 </wgt>
<wgt id='1676'> +1.5290203e-12 </wgt>
<wgt id='1677'> +1.5559312e-12 </wgt>
<wgt id='1678'> +1.5205714e-12 </wgt>
<wgt id='1679'> +1.5404815e-12 </wgt>
<wgt id='1680'> +1.5903290e-12 </wgt>
<wgt id='1681'> +1.5754447e-12 </wgt>
<wgt id='1682'> +1.5339778e-12 </wgt>
<wgt id='1683'> +1.5294127e-12 </wgt>
<wgt id='1684'> +1.5827444e-12 </wgt>
<wgt id='1685'> +1.5370737e-12 </wgt>
<wgt id='1686'> +1.5326589e-12 </wgt>
<wgt id='1687'> +1.5597199e-12 </wgt>
<wgt id='1688'> +1.5292219e-12 </wgt>
<wgt id='1689'> +1.5996324e-12 </wgt>
<wgt id='1690'> +1.5391520e-12 </wgt>
<wgt id='1691'> +1.5068098e-12 </wgt>
<wgt id='1692'> +1.5850229e-12 </wgt>
<wgt id='1693'> +1.5366086e-12 </wgt>
<wgt id='1694'> +1.5347571e-12 </wgt>
<wgt id='1695'> +1.5614678e-12 </wgt>
<wgt id='1696'> +1.5376603e-12 </wgt>
<wgt id='1697'> +1.5350079e-12 </wgt>
<wgt id='1698'> +1.5546882e-12 </wgt>
<wgt id='1699'> +1.5492913e-12 </wgt>
<wgt id='1700'> +1.5226916e-12 </wgt>
<wgt id='1701'> +1.6016691e-12 </wgt>
<wgt id='1702'> +1.5039803e-12 </wgt>
<wgt id='1703'> +1.5258301e-12 </wgt>
<wgt id='1704'> +1.5245417e-12 </wgt>
<wgt id='1705'> +1.4745863e-12 </wgt>
<wgt id='1706'> +1.5850109e-12 </wgt>
<wgt id='1707'> +1.5527034e-12 </wgt>
<wgt id='1708'> +1.5964984e-12 </wgt>
<wgt id='1709'> +1.5898390e-12 </wgt>
<wgt id='1710'> +1.5296070e-12 </wgt>
<wgt id='1711'> +1.5414522e-12 </wgt>
<wgt id='1712'> +1.5806996e-12 </wgt>
<wgt id='1713'> +1.3069396e-12 </wgt>
<wgt id='1714'> +1.3009861e-12 </wgt>
<wgt id='1715'> +1.2795121e-12 </wgt>
<wgt id='1716'> +1.3367160e-12 </wgt>
<wgt id='1717'> +1.3168997e-12 </wgt>
<wgt id='1718'> +1.3277067e-12 </wgt>
<wgt id='1719'> +1.3220561e-12 </wgt>
<wgt id='1720'> +1.2726474e-12 </wgt>
<wgt id='1721'> +1.2803483e-12 </wgt>
<wgt id='1722'> +1.2985400e-12 </wgt>
<wgt id='1723'> +1.3478460e-12 </wgt>
<wgt id='1724'> +1.3198263e-12 </wgt>
<wgt id='1725'> +1.3079687e-12 </wgt>
<wgt id='1726'> +1.3067387e-12 </wgt>
<wgt id='1727'> +1.3524595e-12 </wgt>
<wgt id='1728'> +1.2975346e-12 </wgt>
<wgt id='1729'> +1.2557826e-12 </wgt>
<wgt id='1730'> +1.2926335e-12 </wgt>
<wgt id='1731'> +1.2407204e-12 </wgt>
<wgt id='1732'> +1.3136117e-12 </wgt>
<wgt id='1733'> +1.2437569e-12 </wgt>
<wgt id='1734'> +1.3711815e-12 </wgt>
<wgt id='1735'> +1.2880861e-12 </wgt>
<wgt id='1736'> +1.3342977e-12 </wgt>
<wgt id='1737'> +1.3502042e-12 </wgt>
<wgt id='1738'> +1.2988347e-12 </wgt>
<wgt id='1739'> +1.3078618e-12 </wgt>
<wgt id='1740'> +1.2307447e-12 </wgt>
<wgt id='1741'> +1.3519629e-12 </wgt>
<wgt id='1742'> +1.2879784e-12 </wgt>
<wgt id='1743'> +1.2779180e-12 </wgt>
<wgt id='1744'> +1.3241001e-12 </wgt>
<wgt id='1745'> +1.3280616e-12 </wgt>
<wgt id='1746'> +1.2877506e-12 </wgt>
<wgt id='1747'> +1.3584834e-12 </wgt>
<wgt id='1748'> +1.2909881e-12 </wgt>
<wgt id='1749'> +1.2920592e-12 </wgt>
<wgt id='1750'> +1.2834316e-12 </wgt>
<wgt id='1751'> +1.2831005e-12 </wgt>
<wgt id='1752'> +1.2987766e-12 </wgt>
<wgt id='1753'> +1.3207515e-12 </wgt>
<wgt id='1754'> +1.3310304e-12 </wgt>
<wgt id='1755'> +1.3158183e-12 </wgt>
<wgt id='1756'> +1.3279118e-12 </wgt>
<wgt id='1757'> +1.3240422e-12 </wgt>
<wgt id='1758'> +1.3613676e-12 </wgt>
<wgt id='1759'> +1.3272391e-12 </wgt>
<wgt id='1760'> +1.2988625e-12 </wgt>
<wgt id='1761'> +1.3098350e-12 </wgt>
<wgt id='1762'> +1.2787515e-12 </wgt>
<wgt id='1763'> +1.3275950e-12 </wgt>
<wgt id='1764'> +1.3389458e-12 </wgt>
<wgt id='1765'> +1.2887740e-12 </wgt>
<wgt id='1766'> +1.3419379e-12 </wgt>
<wgt id='1767'> +1.3155770e-12 </wgt>
<wgt id='1768'> +1.3237728e-12 </wgt>
<wgt id='1769'> +1.3214725e-12 </wgt>
<wgt id='1770'> +1.2928120e-12 </wgt>
<wgt id='1771'> +1.3544666e-12 </wgt>
<wgt id='1772'> +1.3028591e-12 </wgt>
<wgt id='1773'> +1.3061360e-12 </wgt>
<wgt id='1774'> +1.2847852e-12 </wgt>
<wgt id='1775'> +1.3045109e-12 </wgt>
<wgt id='1776'> +1.3595349e-12 </wgt>
<wgt id='1777'> +1.2520916e-12 </wgt>
<wgt id='1778'> +1.3075884e-12 </wgt>
<wgt id='1779'> +1.2978674e-12 </wgt>
<wgt id='1780'> +1.3075009e-12 </wgt>
<wgt id='1781'> +1.3296115e-12 </wgt>
<wgt id='1782'> +1.2933778e-12 </wgt>
<wgt id='1783'> +1.3143004e-12 </wgt>
<wgt id='1784'> +1.3035295e-12 </wgt>
<wgt id='1785'> +1.3117720e-12 </wgt>
<wgt id='1786'> +1.3056021e-12 </wgt>
<wgt id='1787'> +1.3803124e-12 </wgt>
<wgt id='1788'> +1.3015152e-12 </wgt>
<wgt id='1789'> +1.3748069e-12 </wgt>
<wgt id='1790'> +1.3186432e-12 </wgt>
<wgt id='1791'> +1.2951278e-12 </wgt>
<wgt id='1792'> +1.2816649e-12 </wgt>
<wgt id='1793'> +1.2909820e-12 </wgt>
<wgt id='1794'> +1.3454413e-12 </wgt>
<wgt id='1795'> +1.3164559e-12 </wgt>
<wgt id='1796'> +1.2774883e-12 </wgt>
<wgt id='1797'> +1.3145086e-12 </wgt>
<wgt id='1798'> +1.2966358e-12 </wgt>
<wgt id='1799'> +1.2990852e-12 </wgt>
<wgt id='1800'> +1.3216295e-12 </wgt>
<wgt id='1801'> +1.3053770e-12 </wgt>
<wgt id='1802'> +1.2830891e-12 </wgt>
<wgt id='1803'> +1.3255605e-12 </wgt>
<wgt id='1804'> +1.3100393e-12 </wgt>
<wgt id='1805'> +1.2714839e-12 </wgt>
<wgt id='1806'> +1.2801036e-12 </wgt>
<wgt id='1807'> +1.2980195e-12 </wgt>
<wgt id='1808'> +1.2744696e-12 </wgt>
<wgt id='1809'> +1.2939914e-12 </wgt>
<wgt id='1810'> +1.2840474e-12 </wgt>
<wgt id='1811'> +1.3100242e-12 </wgt>
<wgt id='1812'> +1.2809573e-12 </wgt>
<wgt id='1813'> +1.2297963e-12 </wgt>
<wgt id='1814'> +1.6329720e-12 </wgt>
<wgt id='1815'> +1.9742799e-12 </wgt>
<wgt id='1816'> +1.3069396e-12 </wgt>
<wgt id='1817'> +1.3009861e-12 </wgt>
<wgt id='1818'> +1.2795121e-12 </wgt>
<wgt id='1819'> +1.3367160e-12 </wgt>
<wgt id='1820'> +1.3168997e-12 </wgt>
<wgt id='1821'> +1.3277067e-12 </wgt>
<wgt id='1822'> +1.3220561e-12 </wgt>
<wgt id='1823'> +1.2726474e-12 </wgt>
<wgt id='1824'> +1.2803483e-12 </wgt>
<wgt id='1825'> +1.2985400e-12 </wgt>
<wgt id='1826'> +1.3478460e-12 </wgt>
<wgt id='1827'> +1.3198263e-12 </wgt>
<wgt id='1828'> +1.3079687e-12 </wgt>
<wgt id='1829'> +1.3067387e-12 </wgt>
<wgt id='1830'> +1.3524595e-12 </wgt>
<wgt id='1831'> +1.2975346e-12 </wgt>
<wgt id='1832'> +1.2557826e-12 </wgt>
<wgt id='1833'> +1.2926335e-12 </wgt>
<wgt id='1834'> +1.2407204e-12 </wgt>
<wgt id='1835'> +1.3136117e-12 </wgt>
<wgt id='1836'> +1.2437569e-12 </wgt>
<wgt id='1837'> +1.3711815e-12 </wgt>
<wgt id='1838'> +1.2880861e-12 </wgt>
<wgt id='1839'> +1.3342977e-12 </wgt>
<wgt id='1840'> +1.3502042e-12 </wgt>
<wgt id='1841'> +1.2988347e-12 </wgt>
<wgt id='1842'> +1.3078618e-12 </wgt>
<wgt id='1843'> +1.2307447e-12 </wgt>
<wgt id='1844'> +1.3519629e-12 </wgt>
<wgt id='1845'> +1.2879784e-12 </wgt>
<wgt id='1846'> +1.2779180e-12 </wgt>
<wgt id='1847'> +1.3241001e-12 </wgt>
<wgt id='1848'> +1.3280616e-12 </wgt>
<wgt id='1849'> +1.2877506e-12 </wgt>
<wgt id='1850'> +1.3584834e-12 </wgt>
<wgt id='1851'> +1.2909881e-12 </wgt>
<wgt id='1852'> +1.2920592e-12 </wgt>
<wgt id='1853'> +1.2834316e-12 </wgt>
<wgt id='1854'> +1.2831005e-12 </wgt>
<wgt id='1855'> +1.2987766e-12 </wgt>
<wgt id='1856'> +1.3207515e-12 </wgt>
<wgt id='1857'> +1.3310304e-12 </wgt>
<wgt id='1858'> +1.3158183e-12 </wgt>
<wgt id='1859'> +1.3279118e-12 </wgt>
<wgt id='1860'> +1.3240422e-12 </wgt>
<wgt id='1861'> +1.3613676e-12 </wgt>
<wgt id='1862'> +1.3272391e-12 </wgt>
<wgt id='1863'> +1.2988625e-12 </wgt>
<wgt id='1864'> +1.3098350e-12 </wgt>
<wgt id='1865'> +1.2787515e-12 </wgt>
<wgt id='1866'> +1.3275950e-12 </wgt>
<wgt id='1867'> +1.3389458e-12 </wgt>
<wgt id='1868'> +1.2887740e-12 </wgt>
<wgt id='1869'> +1.3419379e-12 </wgt>
<wgt id='1870'> +1.3155770e-12 </wgt>
<wgt id='1871'> +1.3237728e-12 </wgt>
<wgt id='1872'> +1.3214725e-12 </wgt>
<wgt id='1873'> +1.2928120e-12 </wgt>
<wgt id='1874'> +1.3544666e-12 </wgt>
<wgt id='1875'> +1.3028591e-12 </wgt>
<wgt id='1876'> +1.3061360e-12 </wgt>
<wgt id='1877'> +1.2847852e-12 </wgt>
<wgt id='1878'> +1.3045109e-12 </wgt>
<wgt id='1879'> +1.3595349e-12 </wgt>
<wgt id='1880'> +1.2520916e-12 </wgt>
<wgt id='1881'> +1.3075884e-12 </wgt>
<wgt id='1882'> +1.2978674e-12 </wgt>
<wgt id='1883'> +1.3075009e-12 </wgt>
<wgt id='1884'> +1.3296115e-12 </wgt>
<wgt id='1885'> +1.2933778e-12 </wgt>
<wgt id='1886'> +1.3143004e-12 </wgt>
<wgt id='1887'> +1.3035295e-12 </wgt>
<wgt id='1888'> +1.3117720e-12 </wgt>
<wgt id='1889'> +1.3056021e-12 </wgt>
<wgt id='1890'> +1.3803124e-12 </wgt>
<wgt id='1891'> +1.3015152e-12 </wgt>
<wgt id='1892'> +1.3748069e-12 </wgt>
<wgt id='1893'> +1.3186432e-12 </wgt>
<wgt id='1894'> +1.2951278e-12 </wgt>
<wgt id='1895'> +1.2816649e-12 </wgt>
<wgt id='1896'> +1.2909820e-12 </wgt>
<wgt id='1897'> +1.3454413e-12 </wgt>
<wgt id='1898'> +1.3164559e-12 </wgt>
<wgt id='1899'> +1.2774883e-12 </wgt>
<wgt id='1900'> +1.3145086e-12 </wgt>
<wgt id='1901'> +1.2966358e-12 </wgt>
<wgt id='1902'> +1.2990852e-12 </wgt>
<wgt id='1903'> +1.3216295e-12 </wgt>
<wgt id='1904'> +1.3053770e-12 </wgt>
<wgt id='1905'> +1.2830891e-12 </wgt>
<wgt id='1906'> +1.3255605e-12 </wgt>
<wgt id='1907'> +1.3100393e-12 </wgt>
<wgt id='1908'> +1.2714839e-12 </wgt>
<wgt id='1909'> +1.2801036e-12 </wgt>
<wgt id='1910'> +1.2980195e-12 </wgt>
<wgt id='1911'> +1.2744696e-12 </wgt>
<wgt id='1912'> +1.2939914e-12 </wgt>
<wgt id='1913'> +1.2840474e-12 </wgt>
<wgt id='1914'> +1.3100242e-12 </wgt>
<wgt id='1915'> +1.2809573e-12 </wgt>
<wgt id='1916'> +1.2297963e-12 </wgt>
<wgt id='1917'> +1.2971744e-12 </wgt>
<wgt id='1918'> +1.3221121e-12 </wgt>
<wgt id='1919'> +1.2744104e-12 </wgt>
</rwgt>
</event>
<event>
 9      1 +1.5607000e-12 2.82322600e+01 7.81860800e-03 1.46813000e-01
        2 -1    0    0  502    0 -0.0000000000e+00 +0.0000000000e+00 +1.2018603037e+02 1.2018603037e+02 0.0000000000e+00 0.0000e+00 -1.0000e+00
       21 -1    0    0  501  502 +0.0000000000e+00 -0.0000000000e+00 -6.5420644185e+00 6.5420644185e+00 0.0000000000e+00 0.0000e+00 -1.0000e+00
     1023  2    1    2    0    0 +7.3981932487e+00 +2.2745626585e+01 +8.4119908237e+01 8.8731163649e+01 1.4998788237e+01 0.0000e+00 0.0000e+00
  1000023  2    3    3    0    0 +7.3077380228e+00 +1.7679202134e+01 +7.1742058844e+01 7.4452228308e+01 5.5003699648e+00 0.0000e+00 0.0000e+00
        2  1    1    2  501    0 -7.3981932487e+00 -2.2745626585e+01 +2.9524057713e+01 3.7996931139e+01 0.0000000000e+00 0.0000e+00 -1.0000e+00
  1000022  1    4    4    0    0 +6.9966412513e+00 +1.6908572369e+01 +6.9252291750e+01 7.1803431123e+01 5.0000000000e+00 0.0000e+00 -1.0000e+00
      -13  1    4    4    0    0 +3.1896896015e-01 +6.7857842290e-01 +1.9735290643e+00 2.1138115647e+00 1.0570000000e-01 0.0000e+00 -1.0000e+00
       13  1    4    4    0    0 -7.8721886486e-03 +9.2051341290e-02 +5.1623802985e-01 5.3498562060e-01 1.0570000000e-01 0.0000e+00 -1.0000e+00
  1000022  1    3    3    0    0 +9.0455225851e-02 +5.0664244514e+00 +1.2377849393e+01 1.4278935341e+01 5.0000000000e+00 0.0000e+00 -1.0000e+00
<mgrwt>
<rscale>  1 0.28232259E+02</rscale>
<asrwt>0</asrwt>
<pdfrwt beam="1">  1       21 0.10064715E-02 0.28232259E+02</pdfrwt>
<pdfrwt beam="2">  1        2 0.18490157E-01 0.28232259E+02</pdfrwt>
<totfact> 0.94467077E+06</totfact>
</mgrwt>
<rwgt>
<wgt id='1001'> +1.5607000e-12 </wgt>
<wgt id='1002'> +1.6371692e-12 </wgt>
<wgt id='1003'> +1.6424244e-12 </wgt>
<wgt id='1004'> +1.5418481e-12 </wgt>
<wgt id='1005'> +1.6523615e-12 </wgt>
<wgt id='1006'> +1.3633393e-12 </wgt>
<wgt id='1007'> +1.4498761e-12 </wgt>
<wgt id='1008'> +1.4561045e-12 </wgt>
<wgt id='1009'> +1.3428289e-12 </wgt>
<wgt id='1010'> +1.4680165e-12 </wgt>
<wgt id='1011'> +1.8282474e-12 </wgt>
<wgt id='1012'> +1.8825109e-12 </wgt>
<wgt id='1013'> +1.8858463e-12 </wgt>
<wgt id='1014'> +1.8136857e-12 </wgt>
<wgt id='1015'> +1.8919253e-12 </wgt>
<wgt id='1016'> +1.8923228e-12 </wgt>
<wgt id='1017'> +1.9122510e-12 </wgt>
<wgt id='1018'> +1.9130548e-12 </wgt>
<wgt id='1019'> +1.8858463e-12 </wgt>
<wgt id='1020'> +1.9143026e-12 </wgt>
<wgt id='1021'> +1.6530263e-12 </wgt>
<wgt id='1022'> +1.6934884e-12 </wgt>
<wgt id='1023'> +1.6960340e-12 </wgt>
<wgt id='1024'> +1.6424244e-12 </wgt>
<wgt id='1025'> +1.7007343e-12 </wgt>
<wgt id='1026'> +2.2167195e-12 </wgt>
<wgt id='1027'> +2.1988157e-12 </wgt>
<wgt id='1028'> +2.1965865e-12 </wgt>
<wgt id='1029'> +2.2183329e-12 </wgt>
<wgt id='1030'> +2.1918433e-12 </wgt>
<wgt id='1031'> +1.1985177e-12 </wgt>
<wgt id='1032'> +1.3329954e-12 </wgt>
<wgt id='1033'> +1.3428289e-12 </wgt>
<wgt id='1034'> +1.1673116e-12 </wgt>
<wgt id='1035'> +1.3620216e-12 </wgt>
<wgt id='1036'> +1.0469573e-12 </wgt>
<wgt id='1037'> +1.1805000e-12 </wgt>
<wgt id='1038'> +1.1904957e-12 </wgt>
<wgt id='1039'> +1.0166370e-12 </wgt>
<wgt id='1040'> +1.2100683e-12 </wgt>
<wgt id='1041'> +1.4039769e-12 </wgt>
<wgt id='1042'> +1.5327544e-12 </wgt>
<wgt id='1043'> +1.5418481e-12 </wgt>
<wgt id='1044'> +1.3731160e-12 </wgt>
<wgt id='1045'> +1.5594912e-12 </wgt>
<wgt id='1046'> +1.5607000e-12 </wgt>
<wgt id='1047'> +1.6112995e-12 </wgt>
<wgt id='1048'> +1.5558115e-12 </wgt>
<wgt id='1049'> +1.5101399e-12 </wgt>
<wgt id='1050'> +1.5296064e-12 </wgt>
<wgt id='1051'> +1.5401596e-12 </wgt>
<wgt id='1052'> +1.5314989e-12 </wgt>
<wgt id='1053'> +1.5700507e-12 </wgt>
<wgt id='1054'> +1.5576795e-12 </wgt>
<wgt id='1055'> +1.5134848e-12 </wgt>
<wgt id='1056'> +1.5400083e-12 </wgt>
<wgt id='1057'> +1.5672581e-12 </wgt>
<wgt id='1058'> +1.5149865e-12 </wgt>
<wgt id='1059'> +1.5732220e-12 </wgt>
<wgt id='1060'> +1.5677022e-12 </wgt>
<wgt id='1061'> +1.5635267e-12 </wgt>
<wgt id='1062'> +1.5744878e-12 </wgt>
<wgt id='1063'> +1.5689356e-12 </wgt>
<wgt id='1064'> +1.5537160e-12 </wgt>
<wgt id='1065'> +1.5719125e-12 </wgt>
<wgt id='1066'> +1.5363170e-12 </wgt>
<wgt id='1067'> +1.5374403e-12 </wgt>
<wgt id='1068'> +1.5891989e-12 </wgt>
<wgt id='1069'> +1.5949212e-12 </wgt>
<wgt id='1070'> +1.5611333e-12 </wgt>
<wgt id='1071'> +1.5174223e-12 </wgt>
<wgt id='1072'> +1.6033337e-12 </wgt>
<wgt id='1073'> +1.5803520e-12 </wgt>
<wgt id='1074'> +1.5439108e-12 </wgt>
<wgt id='1075'> +1.5746063e-12 </wgt>
<wgt id='1076'> +1.5399704e-12 </wgt>
<wgt id='1077'> +1.5768334e-12 </wgt>
<wgt id='1078'> +1.5163062e-12 </wgt>
<wgt id='1079'> +1.5242675e-12 </wgt>
<wgt id='1080'> +1.5463085e-12 </wgt>
<wgt id='1081'> +1.5741733e-12 </wgt>
<wgt id='1082'> +1.5362929e-12 </wgt>
<wgt id='1083'> +1.5759496e-12 </wgt>
<wgt id='1084'> +1.5162385e-12 </wgt>
<wgt id='1085'> +1.5436607e-12 </wgt>
<wgt id='1086'> +1.5770743e-12 </wgt>
<wgt id='1087'> +1.5392499e-12 </wgt>
<wgt id='1088'> +1.5783991e-12 </wgt>
<wgt id='1089'> +1.5712005e-12 </wgt>
<wgt id='1090'> +1.5478119e-12 </wgt>
<wgt id='1091'> +1.5822201e-12 </wgt>
<wgt id='1092'> +1.5992266e-12 </wgt>
<wgt id='1093'> +1.5471427e-12 </wgt>
<wgt id='1094'> +1.5932382e-12 </wgt>
<wgt id='1095'> +1.5793326e-12 </wgt>
<wgt id='1096'> +1.6028267e-12 </wgt>
<wgt id='1097'> +1.5651484e-12 </wgt>
<wgt id='1098'> +1.5521550e-12 </wgt>
<wgt id='1099'> +1.5472658e-12 </wgt>
<wgt id='1100'> +1.6002695e-12 </wgt>
<wgt id='1101'> +1.6064894e-12 </wgt>
<wgt id='1102'> +1.5544203e-12 </wgt>
<wgt id='1103'> +1.6126088e-12 </wgt>
<wgt id='1104'> +1.5314113e-12 </wgt>
<wgt id='1105'> +1.5134513e-12 </wgt>
<wgt id='1106'> +1.5910818e-12 </wgt>
<wgt id='1107'> +1.5733169e-12 </wgt>
<wgt id='1108'> +1.5654161e-12 </wgt>
<wgt id='1109'> +1.5878679e-12 </wgt>
<wgt id='1110'> +1.5511975e-12 </wgt>
<wgt id='1111'> +1.5610973e-12 </wgt>
<wgt id='1112'> +1.5621676e-12 </wgt>
<wgt id='1113'> +1.6230407e-12 </wgt>
<wgt id='1114'> +1.5692105e-12 </wgt>
<wgt id='1115'> +1.5583738e-12 </wgt>
<wgt id='1116'> +1.5981077e-12 </wgt>
<wgt id='1117'> +1.5303277e-12 </wgt>
<wgt id='1118'> +1.6496473e-12 </wgt>
<wgt id='1119'> +1.4906018e-12 </wgt>
<wgt id='1120'> +1.5221182e-12 </wgt>
<wgt id='1121'> +1.5306817e-12 </wgt>
<wgt id='1122'> +1.5570266e-12 </wgt>
<wgt id='1123'> +1.5455752e-12 </wgt>
<wgt id='1124'> +1.5354799e-12 </wgt>
<wgt id='1125'> +1.5297753e-12 </wgt>
<wgt id='1126'> +1.5690110e-12 </wgt>
<wgt id='1127'> +1.5755539e-12 </wgt>
<wgt id='1128'> +1.5744878e-12 </wgt>
<wgt id='1129'> +1.5718313e-12 </wgt>
<wgt id='1130'> +1.5586041e-12 </wgt>
<wgt id='1131'> +1.5509912e-12 </wgt>
<wgt id='1132'> +1.5928078e-12 </wgt>
<wgt id='1133'> +1.5461121e-12 </wgt>
<wgt id='1134'> +1.5656759e-12 </wgt>
<wgt id='1135'> +1.5242612e-12 </wgt>
<wgt id='1136'> +1.5482748e-12 </wgt>
<wgt id='1137'> +1.5559324e-12 </wgt>
<wgt id='1138'> +1.5519655e-12 </wgt>
<wgt id='1139'> +1.5609519e-12 </wgt>
<wgt id='1140'> +1.5946879e-12 </wgt>
<wgt id='1141'> +1.5819425e-12 </wgt>
<wgt id='1142'> +1.5353721e-12 </wgt>
<wgt id='1143'> +1.5830355e-12 </wgt>
<wgt id='1144'> +1.5408263e-12 </wgt>
<wgt id='1145'> +1.5774150e-12 </wgt>
<wgt id='1146'> +1.5719308e-12 </wgt>
<wgt id='1147'> +1.3083231e-12 </wgt>
<wgt id='1148'> +1.3380590e-12 </wgt>
<wgt id='1149'> +1.3104358e-12 </wgt>
<wgt id='1150'> +1.3309269e-12 </wgt>
<wgt id='1151'> +1.5278127e-12 </wgt>
<wgt id='1152'> +1.9097754e-12 </wgt>
<wgt id='1153'> +1.9012793e-12 </wgt>
<wgt id='1154'> +1.9146918e-12 </wgt>
<wgt id='1155'> +1.9078288e-12 </wgt>
<wgt id='1156'> +1.9108195e-12 </wgt>
<wgt id='1157'> +1.9131133e-12 </wgt>
<wgt id='1158'> +1.9052597e-12 </wgt>
<wgt id='1159'> +1.9126529e-12 </wgt>
<wgt id='1160'> +1.9079506e-12 </wgt>
<wgt id='1161'> +1.9060871e-12 </wgt>
<wgt id='1162'> +1.9123327e-12 </wgt>
<wgt id='1163'> +1.9129181e-12 </wgt>
<wgt id='1164'> +1.9066956e-12 </wgt>
<wgt id='1165'> +1.9013076e-12 </wgt>
<wgt id='1166'> +1.9178625e-12 </wgt>
<wgt id='1167'> +1.9223148e-12 </wgt>
<wgt id='1168'> +1.8932539e-12 </wgt>
<wgt id='1169'> +1.9125385e-12 </wgt>
<wgt id='1170'> +1.9076990e-12 </wgt>
<wgt id='1171'> +1.9017459e-12 </wgt>
<wgt id='1172'> +1.9194202e-12 </wgt>
<wgt id='1173'> +1.8939446e-12 </wgt>
<wgt id='1174'> +1.9248178e-12 </wgt>
<wgt id='1175'> +1.9134921e-12 </wgt>
<wgt id='1176'> +1.9058355e-12 </wgt>
<wgt id='1177'> +1.9096665e-12 </wgt>
<wgt id='1178'> +1.9101058e-12 </wgt>
<wgt id='1179'> +1.9108378e-12 </wgt>
<wgt id='1180'> +1.9014585e-12 </wgt>
<wgt id='1181'> +1.9075959e-12 </wgt>
<wgt id='1182'> +1.9115875e-12 </wgt>
<wgt id='1183'> +1.9060562e-12 </wgt>
<wgt id='1184'> +1.9100737e-12 </wgt>
<wgt id='1185'> +1.9038267e-12 </wgt>
<wgt id='1186'> +1.9135415e-12 </wgt>
<wgt id='1187'> +1.9101571e-12 </wgt>
<wgt id='1188'> +1.9096764e-12 </wgt>
<wgt id='1189'> +1.9052231e-12 </wgt>
<wgt id='1190'> +1.8946088e-12 </wgt>
<wgt id='1191'> +1.9063878e-12 </wgt>
<wgt id='1192'> +1.9130371e-12 </wgt>
<wgt id='1193'> +1.3046334e-12 </wgt>
<wgt id='1194'> +1.2988094e-12 </wgt>
<wgt id='1195'> +1.3094271e-12 </wgt>
<wgt id='1196'> +1.3100487e-12 </wgt>
<wgt id='1197'> +1.2986299e-12 </wgt>
<wgt id='1198'> +1.3047654e-12 </wgt>
<wgt id='1199'> +1.3045068e-12 </wgt>
<wgt id='1200'> +1.3050901e-12 </wgt>
<wgt id='1201'> +1.3043774e-12 </wgt>
<wgt id='1202'> +1.3030334e-12 </wgt>
<wgt id='1203'> +1.3069468e-12 </wgt>
<wgt id='1204'> +1.2950489e-12 </wgt>
<wgt id='1205'> +1.3104797e-12 </wgt>
<wgt id='1206'> +1.3083769e-12 </wgt>
<wgt id='1207'> +1.2995372e-12 </wgt>
<wgt id='1208'> +1.2999708e-12 </wgt>
<wgt id='1209'> +1.3063419e-12 </wgt>
<wgt id='1210'> +1.3026528e-12 </wgt>
<wgt id='1211'> +1.2990746e-12 </wgt>
<wgt id='1212'> +1.3060220e-12 </wgt>
<wgt id='1213'> +1.3033771e-12 </wgt>
<wgt id='1214'> +1.2898209e-12 </wgt>
<wgt id='1215'> +1.3274428e-12 </wgt>
<wgt id='1216'> +1.3069548e-12 </wgt>
<wgt id='1217'> +1.3023067e-12 </wgt>
<wgt id='1218'> +1.3099283e-12 </wgt>
<wgt id='1219'> +1.3017908e-12 </wgt>
<wgt id='1220'> +1.3108161e-12 </wgt>
<wgt id='1221'> +1.3028612e-12 </wgt>
<wgt id='1222'> +1.3149257e-12 </wgt>
<wgt id='1223'> +1.2880194e-12 </wgt>
<wgt id='1224'> +1.3070065e-12 </wgt>
<wgt id='1225'> +1.3036864e-12 </wgt>
<wgt id='1226'> +1.3014926e-12 </wgt>
<wgt id='1227'> +1.3068779e-12 </wgt>
<wgt id='1228'> +1.2942907e-12 </wgt>
<wgt id='1229'> +1.3088485e-12 </wgt>
<wgt id='1230'> +1.3010272e-12 </wgt>
<wgt id='1231'> +1.3053381e-12 </wgt>
<wgt id='1232'> +1.3025137e-12 </wgt>
<wgt id='1233'> +1.3051561e-12 </wgt>
<wgt id='1234'> +1.3046334e-12 </wgt>
<wgt id='1235'> +1.2961549e-12 </wgt>
<wgt id='1236'> +1.2993051e-12 </wgt>
<wgt id='1237'> +1.3021228e-12 </wgt>
<wgt id='1238'> +1.3068840e-12 </wgt>
<wgt id='1239'> +1.3088099e-12 </wgt>
<wgt id='1240'> +1.3106865e-12 </wgt>
<wgt id='1241'> +1.2676367e-12 </wgt>
<wgt id='1242'> +1.2584325e-12 </wgt>
<wgt id='1243'> +1.2767318e-12 </wgt>
<wgt id='1244'> +1.2625522e-12 </wgt>
<wgt id='1245'> +1.2713673e-12 </wgt>
<wgt id='1246'> +1.2669286e-12 </wgt>
<wgt id='1247'> +1.2682489e-12 </wgt>
<wgt id='1248'> +1.2675875e-12 </wgt>
<wgt id='1249'> +1.2676797e-12 </wgt>
<wgt id='1250'> +1.2690694e-12 </wgt>
<wgt id='1251'> +1.2666302e-12 </wgt>
<wgt id='1252'> +1.2652607e-12 </wgt>
<wgt id='1253'> +1.2694682e-12 </wgt>
<wgt id='1254'> +1.2597131e-12 </wgt>
<wgt id='1255'> +1.2723317e-12 </wgt>
<wgt id='1256'> +1.2702903e-12 </wgt>
<wgt id='1257'> +1.2608666e-12 </wgt>
<wgt id='1258'> +1.2842793e-12 </wgt>
<wgt id='1259'> +1.2515531e-12 </wgt>
<wgt id='1260'> +1.2704093e-12 </wgt>
<wgt id='1261'> +1.2646261e-12 </wgt>
<wgt id='1262'> +1.2652110e-12 </wgt>
<wgt id='1263'> +1.2683581e-12 </wgt>
<wgt id='1264'> +1.2746580e-12 </wgt>
<wgt id='1265'> +1.2642531e-12 </wgt>
<wgt id='1266'> +1.2549680e-12 </wgt>
<wgt id='1267'> +1.2789173e-12 </wgt>
<wgt id='1268'> +1.2715412e-12 </wgt>
<wgt id='1269'> +1.2657927e-12 </wgt>
<wgt id='1270'> +1.2619535e-12 </wgt>
<wgt id='1271'> +1.2656217e-12 </wgt>
<wgt id='1272'> +1.2657592e-12 </wgt>
<wgt id='1273'> +1.2679736e-12 </wgt>
<wgt id='1274'> +1.2693205e-12 </wgt>
<wgt id='1275'> +1.2644176e-12 </wgt>
<wgt id='1276'> +1.2739955e-12 </wgt>
<wgt id='1277'> +1.2580380e-12 </wgt>
<wgt id='1278'> +1.2702818e-12 </wgt>
<wgt id='1279'> +1.2688070e-12 </wgt>
<wgt id='1280'> +1.2682993e-12 </wgt>
<wgt id='1281'> +1.2653478e-12 </wgt>
<wgt id='1282'> +1.2676367e-12 </wgt>
<wgt id='1283'> +1.2594002e-12 </wgt>
<wgt id='1284'> +1.2626828e-12 </wgt>
<wgt id='1285'> +1.2653964e-12 </wgt>
<wgt id='1286'> +1.2699500e-12 </wgt>
<wgt id='1287'> +1.2717016e-12 </wgt>
<wgt id='1288'> +1.2731851e-12 </wgt>
<wgt id='1289'> +1.3784200e-12 </wgt>
<wgt id='1290'> +1.3774993e-12 </wgt>
<wgt id='1291'> +1.3794453e-12 </wgt>
<wgt id='1292'> +1.3750769e-12 </wgt>
<wgt id='1293'> +1.3808483e-12 </wgt>
<wgt id='1294'> +1.3686503e-12 </wgt>
<wgt id='1295'> +1.3879317e-12 </wgt>
<wgt id='1296'> +1.3767217e-12 </wgt>
<wgt id='1297'> +1.3804334e-12 </wgt>
<wgt id='1298'> +1.3841792e-12 </wgt>
<wgt id='1299'> +1.3712468e-12 </wgt>
<wgt id='1300'> +1.3810694e-12 </wgt>
<wgt id='1301'> +1.3731153e-12 </wgt>
<wgt id='1302'> +1.3763433e-12 </wgt>
<wgt id='1303'> +1.3813247e-12 </wgt>
<wgt id='1304'> +1.3760574e-12 </wgt>
<wgt id='1305'> +1.3800303e-12 </wgt>
<wgt id='1306'> +1.3731324e-12 </wgt>
<wgt id='1307'> +1.3844481e-12 </wgt>
<wgt id='1308'> +1.3741632e-12 </wgt>
<wgt id='1309'> +1.3816903e-12 </wgt>
<wgt id='1310'> +1.3775967e-12 </wgt>
<wgt id='1311'> +1.3794628e-12 </wgt>
<wgt id='1312'> +1.3769536e-12 </wgt>
<wgt id='1313'> +1.3799021e-12 </wgt>
<wgt id='1314'> +1.3678287e-12 </wgt>
<wgt id='1315'> +1.3846881e-12 </wgt>
<wgt id='1316'> +1.3863056e-12 </wgt>
<wgt id='1317'> +1.3777042e-12 </wgt>
<wgt id='1318'> +1.3879650e-12 </wgt>
<wgt id='1319'> +1.3666436e-12 </wgt>
<wgt id='1320'> +1.3889441e-12 </wgt>
<wgt id='1321'> +1.3695716e-12 </wgt>
<wgt id='1322'> +1.3777829e-12 </wgt>
<wgt id='1323'> +1.3789647e-12 </wgt>
<wgt id='1324'> +1.3733027e-12 </wgt>
<wgt id='1325'> +1.3960368e-12 </wgt>
<wgt id='1326'> +1.3785172e-12 </wgt>
<wgt id='1327'> +1.3805865e-12 </wgt>
<wgt id='1328'> +1.3788801e-12 </wgt>
<wgt id='1329'> +1.3778395e-12 </wgt>
<wgt id='1330'> +1.3778883e-12 </wgt>
<wgt id='1331'> +1.3800341e-12 </wgt>
<wgt id='1332'> +1.3975788e-12 </wgt>
<wgt id='1333'> +1.3706975e-12 </wgt>
<wgt id='1334'> +1.3759333e-12 </wgt>
<wgt id='1335'> +1.3860808e-12 </wgt>
<wgt id='1336'> +1.3755934e-12 </wgt>
<wgt id='1337'> +1.3813430e-12 </wgt>
<wgt id='1338'> +1.3757914e-12 </wgt>
<wgt id='1339'> +1.3788962e-12 </wgt>
<wgt id='1340'> +1.3545046e-12 </wgt>
<wgt id='1341'> +1.3535870e-12 </wgt>
<wgt id='1342'> +1.3554799e-12 </wgt>
<wgt id='1343'> +1.3510785e-12 </wgt>
<wgt id='1344'> +1.3567942e-12 </wgt>
<wgt id='1345'> +1.3445456e-12 </wgt>
<wgt id='1346'> +1.3637935e-12 </wgt>
<wgt id='1347'> +1.3532843e-12 </wgt>
<wgt id='1348'> +1.3557717e-12 </wgt>
<wgt id='1349'> +1.3598563e-12 </wgt>
<wgt id='1350'> +1.3492428e-12 </wgt>
<wgt id='1351'> +1.3570847e-12 </wgt>
<wgt id='1352'> +1.3489101e-12 </wgt>
<wgt id='1353'> +1.3517209e-12 </wgt>
<wgt id='1354'> +1.3594294e-12 </wgt>
<wgt id='1355'> +1.3524726e-12 </wgt>
<wgt id='1356'> +1.3556032e-12 </wgt>
<wgt id='1357'> +1.3482339e-12 </wgt>
<wgt id='1358'> +1.3618440e-12 </wgt>
<wgt id='1359'> +1.3517096e-12 </wgt>
<wgt id='1360'> +1.3569108e-12 </wgt>
<wgt id='1361'> +1.3538293e-12 </wgt>
<wgt id='1362'> +1.3555482e-12 </wgt>
<wgt id='1363'> +1.3548725e-12 </wgt>
<wgt id='1364'> +1.3545205e-12 </wgt>
<wgt id='1365'> +1.3571633e-12 </wgt>
<wgt id='1366'> +1.3440003e-12 </wgt>
<wgt id='1367'> +1.3622696e-12 </wgt>
<wgt id='1368'> +1.3531170e-12 </wgt>
<wgt id='1369'> +1.3627340e-12 </wgt>
<wgt id='1370'> +1.3443838e-12 </wgt>
<wgt id='1371'> +1.3627570e-12 </wgt>
<wgt id='1372'> +1.3446946e-12 </wgt>
<wgt id='1373'> +1.3515809e-12 </wgt>
<wgt id='1374'> +1.3567915e-12 </wgt>
<wgt id='1375'> +1.3493625e-12 </wgt>
<wgt id='1376'> +1.3731030e-12 </wgt>
<wgt id='1377'> +1.3543889e-12 </wgt>
<wgt id='1378'> +1.3570473e-12 </wgt>
<wgt id='1379'> +1.3548280e-12 </wgt>
<wgt id='1380'> +1.3539229e-12 </wgt>
<wgt id='1381'> +1.3543594e-12 </wgt>
<wgt id='1382'> +1.3549868e-12 </wgt>
<wgt id='1383'> +1.3719882e-12 </wgt>
<wgt id='1384'> +1.3484217e-12 </wgt>
<wgt id='1385'> +1.3524219e-12 </wgt>
<wgt id='1386'> +1.3605243e-12 </wgt>
<wgt id='1387'> +1.3502315e-12 </wgt>
<wgt id='1388'> +1.3576715e-12 </wgt>
<wgt id='1389'> +1.3503513e-12 </wgt>
<wgt id='1390'> +1.3554335e-12 </wgt>
<wgt id='1391'> +1.3322656e-12 </wgt>
<wgt id='1392'> +1.2991804e-12 </wgt>
<wgt id='1393'> +1.3102504e-12 </wgt>
<wgt id='1394'> +1.3222789e-12 </wgt>
<wgt id='1395'> +1.3446186e-12 </wgt>
<wgt id='1396'> +1.3337141e-12 </wgt>
<wgt id='1397'> +1.2978646e-12 </wgt>
<wgt id='1398'> +1.3049347e-12 </wgt>
<wgt id='1399'> +1.3113486e-12 </wgt>
<wgt id='1400'> +1.3183691e-12 </wgt>
<wgt id='1401'> +1.3260267e-12 </wgt>
<wgt id='1402'> +1.3412765e-12 </wgt>
<wgt id='1403'> +1.3489766e-12 </wgt>
<wgt id='1404'> +1.3565045e-12 </wgt>
<wgt id='1405'> +1.3337141e-12 </wgt>
<wgt id='1406'> +1.3288969e-12 </wgt>
<wgt id='1407'> +1.3315158e-12 </wgt>
<wgt id='1408'> +1.3357386e-12 </wgt>
<wgt id='1409'> +1.3379386e-12 </wgt>
<wgt id='1410'> +1.2802358e-12 </wgt>
<wgt id='1411'> +1.2803257e-12 </wgt>
<wgt id='1412'> +1.2800272e-12 </wgt>
<wgt id='1413'> +1.2786455e-12 </wgt>
<wgt id='1414'> +1.2817654e-12 </wgt>
<wgt id='1415'> +1.2743722e-12 </wgt>
<wgt id='1416'> +1.2825820e-12 </wgt>
<wgt id='1417'> +1.2719661e-12 </wgt>
<wgt id='1418'> +1.2884108e-12 </wgt>
<wgt id='1419'> +1.2823557e-12 </wgt>
<wgt id='1420'> +1.2781846e-12 </wgt>
<wgt id='1421'> +1.2670490e-12 </wgt>
<wgt id='1422'> +1.2858949e-12 </wgt>
<wgt id='1423'> +1.2798838e-12 </wgt>
<wgt id='1424'> +1.2806199e-12 </wgt>
<wgt id='1425'> +1.2742997e-12 </wgt>
<wgt id='1426'> +1.2865945e-12 </wgt>
<wgt id='1427'> +1.2628688e-12 </wgt>
<wgt id='1428'> +1.2896134e-12 </wgt>
<wgt id='1429'> +1.2795589e-12 </wgt>
<wgt id='1430'> +1.2811480e-12 </wgt>
<wgt id='1431'> +1.2807246e-12 </wgt>
<wgt id='1432'> +1.2797679e-12 </wgt>
<wgt id='1433'> +1.2738905e-12 </wgt>
<wgt id='1434'> +1.2843336e-12 </wgt>
<wgt id='1435'> +1.2785138e-12 </wgt>
<wgt id='1436'> +1.2843047e-12 </wgt>
<wgt id='1437'> +1.2875913e-12 </wgt>
<wgt id='1438'> +1.2795764e-12 </wgt>
<wgt id='1439'> +1.2750629e-12 </wgt>
<wgt id='1440'> +1.2904453e-12 </wgt>
<wgt id='1441'> +1.2826853e-12 </wgt>
<wgt id='1442'> +1.2763146e-12 </wgt>
<wgt id='1443'> +1.2762848e-12 </wgt>
<wgt id='1444'> +1.2896505e-12 </wgt>
<wgt id='1445'> +1.2975694e-12 </wgt>
<wgt id='1446'> +1.2744453e-12 </wgt>
<wgt id='1447'> +1.2792811e-12 </wgt>
<wgt id='1448'> +1.2846005e-12 </wgt>
<wgt id='1449'> +1.2811928e-12 </wgt>
<wgt id='1450'> +1.2792126e-12 </wgt>
<wgt id='1451'> +1.2809826e-12 </wgt>
<wgt id='1452'> +1.2780444e-12 </wgt>
<wgt id='1453'> +1.2809938e-12 </wgt>
<wgt id='1454'> +1.2735115e-12 </wgt>
<wgt id='1455'> +1.2802775e-12 </wgt>
<wgt id='1456'> +1.2831613e-12 </wgt>
<wgt id='1457'> +1.2831483e-12 </wgt>
<wgt id='1458'> +1.2792600e-12 </wgt>
<wgt id='1459'> +1.2853682e-12 </wgt>
<wgt id='1460'> +1.2792332e-12 </wgt>
<wgt id='1461'> +1.2802358e-12 </wgt>
<wgt id='1462'> +1.2713356e-12 </wgt>
<wgt id='1463'> +1.2876482e-12 </wgt>
<wgt id='1464'> +1.2802415e-12 </wgt>
<wgt id='1465'> +1.2473923e-12 </wgt>
<wgt id='1466'> +1.2537014e-12 </wgt>
<wgt id='1467'> +1.2607906e-12 </wgt>
<wgt id='1468'> +1.2674594e-12 </wgt>
<wgt id='1469'> +1.2735566e-12 </wgt>
<wgt id='1470'> +1.2872950e-12 </wgt>
<wgt id='1471'> +1.2929810e-12 </wgt>
<wgt id='1472'> +1.2997393e-12 </wgt>
<wgt id='1473'> +1.2802415e-12 </wgt>
<wgt id='1474'> +1.2756668e-12 </wgt>
<wgt id='1475'> +1.2776837e-12 </wgt>
<wgt id='1476'> +1.2821325e-12 </wgt>
<wgt id='1477'> +1.2838705e-12 </wgt>
<wgt id='1478'> +1.2939093e-12 </wgt>
<wgt id='1479'> +1.2911878e-12 </wgt>
<wgt id='1480'> +1.2835035e-12 </wgt>
<wgt id='1481'> +1.3000745e-12 </wgt>
<wgt id='1482'> +1.2908814e-12 </wgt>
<wgt id='1483'> +1.2810478e-12 </wgt>
<wgt id='1484'> +1.2939359e-12 </wgt>
<wgt id='1485'> +1.2897332e-12 </wgt>
<wgt id='1486'> +1.2939570e-12 </wgt>
<wgt id='1487'> +1.2955841e-12 </wgt>
<wgt id='1488'> +1.2924047e-12 </wgt>
<wgt id='1489'> +1.3026136e-12 </wgt>
<wgt id='1490'> +1.2883419e-12 </wgt>
<wgt id='1491'> +1.2954548e-12 </wgt>
<wgt id='1492'> +1.2981311e-12 </wgt>
<wgt id='1493'> +1.2734032e-12 </wgt>
<wgt id='1494'> +1.2972770e-12 </wgt>
<wgt id='1495'> +1.2788925e-12 </wgt>
<wgt id='1496'> +1.2924482e-12 </wgt>
<wgt id='1497'> +1.2933579e-12 </wgt>
<wgt id='1498'> +1.2948715e-12 </wgt>
<wgt id='1499'> +1.2943995e-12 </wgt>
<wgt id='1500'> +1.2926921e-12 </wgt>
<wgt id='1501'> +1.2949129e-12 </wgt>
<wgt id='1502'> +1.2983198e-12 </wgt>
<wgt id='1503'> +1.2959353e-12 </wgt>
<wgt id='1504'> +1.2915148e-12 </wgt>
<wgt id='1505'> +1.2942071e-12 </wgt>
<wgt id='1506'> +1.2926875e-12 </wgt>
<wgt id='1507'> +1.2932646e-12 </wgt>
<wgt id='1508'> +1.2982465e-12 </wgt>
<wgt id='1509'> +1.2986334e-12 </wgt>
<wgt id='1510'> +1.2985283e-12 </wgt>
<wgt id='1511'> +1.2972438e-12 </wgt>
<wgt id='1512'> +1.2945730e-12 </wgt>
<wgt id='1513'> +1.2985652e-12 </wgt>
<wgt id='1514'> +1.3035444e-12 </wgt>
<wgt id='1515'> +1.3009598e-12 </wgt>
<wgt id='1516'> +1.3046898e-12 </wgt>
<wgt id='1517'> +1.3047790e-12 </wgt>
<wgt id='1518'> +1.2994077e-12 </wgt>
<wgt id='1519'> +1.2930045e-12 </wgt>
<wgt id='1520'> +1.2998881e-12 </wgt>
<wgt id='1521'> +1.3023036e-12 </wgt>
<wgt id='1522'> +1.2973006e-12 </wgt>
<wgt id='1523'> +1.3050668e-12 </wgt>
<wgt id='1524'> +1.3010286e-12 </wgt>
<wgt id='1525'> +1.3040822e-12 </wgt>
<wgt id='1526'> +1.2968404e-12 </wgt>
<wgt id='1527'> +1.2962380e-12 </wgt>
<wgt id='1528'> +1.3002436e-12 </wgt>
<wgt id='1529'> +1.2981897e-12 </wgt>
<wgt id='1530'> +1.3039929e-12 </wgt>
<wgt id='1531'> +1.2999706e-12 </wgt>
<wgt id='1532'> +1.2923931e-12 </wgt>
<wgt id='1533'> +1.2986786e-12 </wgt>
<wgt id='1534'> +1.3015859e-12 </wgt>
<wgt id='1535'> +1.2899978e-12 </wgt>
<wgt id='1536'> +1.2963068e-12 </wgt>
<wgt id='1537'> +1.2955276e-12 </wgt>
<wgt id='1538'> +1.2982794e-12 </wgt>
<wgt id='1539'> +1.3085786e-12 </wgt>
<wgt id='1540'> +1.3013063e-12 </wgt>
<wgt id='1541'> +1.2983899e-12 </wgt>
<wgt id='1542'> +1.2962101e-12 </wgt>
<wgt id='1543'> +1.2991451e-12 </wgt>
<wgt id='1544'> +1.2989236e-12 </wgt>
<wgt id='1545'> +1.2971177e-12 </wgt>
<wgt id='1546'> +1.2950165e-12 </wgt>
<wgt id='1547'> +1.2990100e-12 </wgt>
<wgt id='1548'> +1.2976491e-12 </wgt>
<wgt id='1549'> +1.2977641e-12 </wgt>
<wgt id='1550'> +1.2990297e-12 </wgt>
<wgt id='1551'> +1.3005105e-12 </wgt>
<wgt id='1552'> +1.2994103e-12 </wgt>
<wgt id='1553'> +1.2975662e-12 </wgt>
<wgt id='1554'> +1.3002012e-12 </wgt>
<wgt id='1555'> +1.2996320e-12 </wgt>
<wgt id='1556'> +1.2978594e-12 </wgt>
<wgt id='1557'> +1.3017655e-12 </wgt>
<wgt id='1558'> +1.2958530e-12 </wgt>
<wgt id='1559'> +1.2983593e-12 </wgt>
<wgt id='1560'> +1.3008802e-12 </wgt>
<wgt id='1561'> +1.2978039e-12 </wgt>
<wgt id='1562'> +1.2995446e-12 </wgt>
<wgt id='1563'> +1.2997192e-12 </wgt>
<wgt id='1564'> +1.3002664e-12 </wgt>
<wgt id='1565'> +1.2974811e-12 </wgt>
<wgt id='1566'> +1.2993503e-12 </wgt>
<wgt id='1567'> +1.3002671e-12 </wgt>
<wgt id='1568'> +1.2969734e-12 </wgt>
<wgt id='1569'> +1.2982735e-12 </wgt>
<wgt id='1570'> +1.2986602e-12 </wgt>
<wgt id='1571'> +1.2983528e-12 </wgt>
<wgt id='1572'> +1.2979147e-12 </wgt>
<wgt id='1573'> +1.2978560e-12 </wgt>
<wgt id='1574'> +1.2979888e-12 </wgt>
<wgt id='1575'> +1.2990002e-12 </wgt>
<wgt id='1576'> +1.2986639e-12 </wgt>
<wgt id='1577'> +1.2998575e-12 </wgt>
<wgt id='1578'> +1.2992827e-12 </wgt>
<wgt id='1579'> +1.2980686e-12 </wgt>
<wgt id='1580'> +1.2978656e-12 </wgt>
<wgt id='1581'> +1.3002220e-12 </wgt>
<wgt id='1582'> +1.2993689e-12 </wgt>
<wgt id='1583'> +1.2989633e-12 </wgt>
<wgt id='1584'> +1.2993210e-12 </wgt>
<wgt id='1585'> +1.2985907e-12 </wgt>
<wgt id='1586'> +1.2990345e-12 </wgt>
<wgt id='1587'> +1.2996248e-12 </wgt>
<wgt id='1588'> +1.2984678e-12 </wgt>
<wgt id='1589'> +1.2992896e-12 </wgt>
<wgt id='1590'> +1.2985679e-12 </wgt>
<wgt id='1591'> +1.2984471e-12 </wgt>
<wgt id='1592'> +1.2987294e-12 </wgt>
<wgt id='1593'> +1.2972538e-12 </wgt>
<wgt id='1594'> +1.2983183e-12 </wgt>
<wgt id='1595'> +1.2987478e-12 </wgt>
<wgt id='1596'> +1.2984026e-12 </wgt>
<wgt id='1597'> +1.2981920e-12 </wgt>
<wgt id='1598'> +1.2984569e-12 </wgt>
<wgt id='1599'> +1.2985565e-12 </wgt>
<wgt id='1600'> +1.2996545e-12 </wgt>
<wgt id='1601'> +1.2976609e-12 </wgt>
<wgt id='1602'> +1.2982136e-12 </wgt>
<wgt id='1603'> +1.2978829e-12 </wgt>
<wgt id='1604'> +1.2987685e-12 </wgt>
<wgt id='1605'> +1.2989529e-12 </wgt>
<wgt id='1606'> +1.2985820e-12 </wgt>
<wgt id='1607'> +1.2993362e-12 </wgt>
<wgt id='1608'> +1.2987194e-12 </wgt>
<wgt id='1609'> +1.2982456e-12 </wgt>
<wgt id='1610'> +1.2887413e-12 </wgt>
<wgt id='1611'> +1.3096030e-12 </wgt>
<wgt id='1612'> +1.5363871e-12 </wgt>
<wgt id='1613'> +1.5032460e-12 </wgt>
<wgt id='1614'> +1.5185534e-12 </wgt>
<wgt id='1615'> +1.5440387e-12 </wgt>
<wgt id='1616'> +1.5051925e-12 </wgt>
<wgt id='1617'> +1.5439845e-12 </wgt>
<wgt id='1618'> +1.5781644e-12 </wgt>
<wgt id='1619'> +1.5249322e-12 </wgt>
<wgt id='1620'> +1.4695562e-12 </wgt>
<wgt id='1621'> +1.5710450e-12 </wgt>
<wgt id='1622'> +1.5352288e-12 </wgt>
<wgt id='1623'> +1.5171535e-12 </wgt>
<wgt id='1624'> +1.5266565e-12 </wgt>
<wgt id='1625'> +1.5431809e-12 </wgt>
<wgt id='1626'> +1.5157368e-12 </wgt>
<wgt id='1627'> +1.5250023e-12 </wgt>
<wgt id='1628'> +1.5325303e-12 </wgt>
<wgt id='1629'> +1.5742883e-12 </wgt>
<wgt id='1630'> +1.5116754e-12 </wgt>
<wgt id='1631'> +1.5470323e-12 </wgt>
<wgt id='1632'> +1.5072791e-12 </wgt>
<wgt id='1633'> +1.5035155e-12 </wgt>
<wgt id='1634'> +1.5600885e-12 </wgt>
<wgt id='1635'> +1.5614410e-12 </wgt>
<wgt id='1636'> +1.5863680e-12 </wgt>
<wgt id='1637'> +1.5325685e-12 </wgt>
<wgt id='1638'> +1.5623750e-12 </wgt>
<wgt id='1639'> +1.5059698e-12 </wgt>
<wgt id='1640'> +1.5578673e-12 </wgt>
<wgt id='1641'> +1.5248733e-12 </wgt>
<wgt id='1642'> +1.5432316e-12 </wgt>
<wgt id='1643'> +1.5111012e-12 </wgt>
<wgt id='1644'> +1.5502359e-12 </wgt>
<wgt id='1645'> +1.5637778e-12 </wgt>
<wgt id='1646'> +1.5134304e-12 </wgt>
<wgt id='1647'> +1.5263642e-12 </wgt>
<wgt id='1648'> +1.5875834e-12 </wgt>
<wgt id='1649'> +1.5757957e-12 </wgt>
<wgt id='1650'> +1.5222306e-12 </wgt>
<wgt id='1651'> +1.5004467e-12 </wgt>
<wgt id='1652'> +1.4967732e-12 </wgt>
<wgt id='1653'> +1.5480381e-12 </wgt>
<wgt id='1654'> +1.5488034e-12 </wgt>
<wgt id='1655'> +1.5192208e-12 </wgt>
<wgt id='1656'> +1.5262349e-12 </wgt>
<wgt id='1657'> +1.5001213e-12 </wgt>
<wgt id='1658'> +1.5285346e-12 </wgt>
<wgt id='1659'> +1.5266565e-12 </wgt>
<wgt id='1660'> +1.5927390e-12 </wgt>
<wgt id='1661'> +1.5414189e-12 </wgt>
<wgt id='1662'> +1.5467668e-12 </wgt>
<wgt id='1663'> +1.5266405e-12 </wgt>
<wgt id='1664'> +1.5444095e-12 </wgt>
<wgt id='1665'> +1.5043245e-12 </wgt>
<wgt id='1666'> +1.5183792e-12 </wgt>
<wgt id='1667'> +1.5088646e-12 </wgt>
<wgt id='1668'> +1.5515697e-12 </wgt>
<wgt id='1669'> +1.5663454e-12 </wgt>
<wgt id='1670'> +1.5653042e-12 </wgt>
<wgt id='1671'> +1.5677359e-12 </wgt>
<wgt id='1672'> +1.5851335e-12 </wgt>
<wgt id='1673'> +1.5126191e-12 </wgt>
<wgt id='1674'> +1.4639300e-12 </wgt>
<wgt id='1675'> +1.5718883e-12 </wgt>
<wgt id='1676'> +1.5645600e-12 </wgt>
<wgt id='1677'> +1.5967099e-12 </wgt>
<wgt id='1678'> +1.5231373e-12 </wgt>
<wgt id='1679'> +1.5067689e-12 </wgt>
<wgt id='1680'> +1.5536143e-12 </wgt>
<wgt id='1681'> +1.5446437e-12 </wgt>
<wgt id='1682'> +1.5494830e-12 </wgt>
<wgt id='1683'> +1.4907049e-12 </wgt>
<wgt id='1684'> +1.5374072e-12 </wgt>
<wgt id='1685'> +1.5176984e-12 </wgt>
<wgt id='1686'> +1.5411407e-12 </wgt>
<wgt id='1687'> +1.5588845e-12 </wgt>
<wgt id='1688'> +1.5312575e-12 </wgt>
<wgt id='1689'> +1.5505215e-12 </wgt>
<wgt id='1690'> +1.5547367e-12 </wgt>
<wgt id='1691'> +1.5614405e-12 </wgt>
<wgt id='1692'> +1.5799581e-12 </wgt>
<wgt id='1693'> +1.5517214e-12 </wgt>
<wgt id='1694'> +1.5535808e-12 </wgt>
<wgt id='1695'> +1.6054824e-12 </wgt>
<wgt id='1696'> +1.5548832e-12 </wgt>
<wgt id='1697'> +1.5185915e-12 </wgt>
<wgt id='1698'> +1.5208677e-12 </wgt>
<wgt id='1699'> +1.5324168e-12 </wgt>
<wgt id='1700'> +1.5190159e-12 </wgt>
<wgt id='1701'> +1.5423748e-12 </wgt>
<wgt id='1702'> +1.5115575e-12 </wgt>
<wgt id='1703'> +1.5577370e-12 </wgt>
<wgt id='1704'> +1.5352601e-12 </wgt>
<wgt id='1705'> +1.4644572e-12 </wgt>
<wgt id='1706'> +1.5544991e-12 </wgt>
<wgt id='1707'> +1.5096804e-12 </wgt>
<wgt id='1708'> +1.5227586e-12 </wgt>
<wgt id='1709'> +1.5410890e-12 </wgt>
<wgt id='1710'> +1.4955136e-12 </wgt>
<wgt id='1711'> +1.5043122e-12 </wgt>
<wgt id='1712'> +1.5355024e-12 </wgt>
<wgt id='1713'> +1.2472082e-12 </wgt>
<wgt id='1714'> +1.2116656e-12 </wgt>
<wgt id='1715'> +1.2399368e-12 </wgt>
<wgt id='1716'> +1.2482685e-12 </wgt>
<wgt id='1717'> +1.2381567e-12 </wgt>
<wgt id='1718'> +1.2586054e-12 </wgt>
<wgt id='1719'> +1.2451111e-12 </wgt>
<wgt id='1720'> +1.2437298e-12 </wgt>
<wgt id='1721'> +1.2080896e-12 </wgt>
<wgt id='1722'> +1.2283594e-12 </wgt>
<wgt id='1723'> +1.2435900e-12 </wgt>
<wgt id='1724'> +1.3211851e-12 </wgt>
<wgt id='1725'> +1.2381873e-12 </wgt>
<wgt id='1726'> +1.2512719e-12 </wgt>
<wgt id='1727'> +1.2785258e-12 </wgt>
<wgt id='1728'> +1.2432827e-12 </wgt>
<wgt id='1729'> +1.2076947e-12 </wgt>
<wgt id='1730'> +1.2491980e-12 </wgt>
<wgt id='1731'> +1.1927161e-12 </wgt>
<wgt id='1732'> +1.2630467e-12 </wgt>
<wgt id='1733'> +1.2244498e-12 </wgt>
<wgt id='1734'> +1.2780540e-12 </wgt>
<wgt id='1735'> +1.2468438e-12 </wgt>
<wgt id='1736'> +1.2834585e-12 </wgt>
<wgt id='1737'> +1.2828722e-12 </wgt>
<wgt id='1738'> +1.2617307e-12 </wgt>
<wgt id='1739'> +1.2140452e-12 </wgt>
<wgt id='1740'> +1.2048889e-12 </wgt>
<wgt id='1741'> +1.2995605e-12 </wgt>
<wgt id='1742'> +1.2381930e-12 </wgt>
<wgt id='1743'> +1.2422339e-12 </wgt>
<wgt id='1744'> +1.2707766e-12 </wgt>
<wgt id='1745'> +1.2312009e-12 </wgt>
<wgt id='1746'> +1.2472805e-12 </wgt>
<wgt id='1747'> +1.2556152e-12 </wgt>
<wgt id='1748'> +1.2289913e-12 </wgt>
<wgt id='1749'> +1.2384847e-12 </wgt>
<wgt id='1750'> +1.2388424e-12 </wgt>
<wgt id='1751'> +1.2144964e-12 </wgt>
<wgt id='1752'> +1.2346200e-12 </wgt>
<wgt id='1753'> +1.2594861e-12 </wgt>
<wgt id='1754'> +1.2680317e-12 </wgt>
<wgt id='1755'> +1.2692313e-12 </wgt>
<wgt id='1756'> +1.2654307e-12 </wgt>
<wgt id='1757'> +1.2372258e-12 </wgt>
<wgt id='1758'> +1.2711794e-12 </wgt>
<wgt id='1759'> +1.2516376e-12 </wgt>
<wgt id='1760'> +1.2265607e-12 </wgt>
<wgt id='1761'> +1.2372316e-12 </wgt>
<wgt id='1762'> +1.2187435e-12 </wgt>
<wgt id='1763'> +1.2583838e-12 </wgt>
<wgt id='1764'> +1.2735521e-12 </wgt>
<wgt id='1765'> +1.2316297e-12 </wgt>
<wgt id='1766'> +1.2558042e-12 </wgt>
<wgt id='1767'> +1.2559461e-12 </wgt>
<wgt id='1768'> +1.2553948e-12 </wgt>
<wgt id='1769'> +1.2347955e-12 </wgt>
<wgt id='1770'> +1.2286694e-12 </wgt>
<wgt id='1771'> +1.2721955e-12 </wgt>
<wgt id='1772'> +1.2508732e-12 </wgt>
<wgt id='1773'> +1.2399524e-12 </wgt>
<wgt id='1774'> +1.2247955e-12 </wgt>
<wgt id='1775'> +1.2570056e-12 </wgt>
<wgt id='1776'> +1.2897424e-12 </wgt>
<wgt id='1777'> +1.2047675e-12 </wgt>
<wgt id='1778'> +1.2369193e-12 </wgt>
<wgt id='1779'> +1.2675656e-12 </wgt>
<wgt id='1780'> +1.2506430e-12 </wgt>
<wgt id='1781'> +1.2469321e-12 </wgt>
<wgt id='1782'> +1.2506635e-12 </wgt>
<wgt id='1783'> +1.2475495e-12 </wgt>
<wgt id='1784'> +1.2541132e-12 </wgt>
<wgt id='1785'> +1.2534498e-12 </wgt>
<wgt id='1786'> +1.2310412e-12 </wgt>
<wgt id='1787'> +1.2887011e-12 </wgt>
<wgt id='1788'> +1.2619478e-12 </wgt>
<wgt id='1789'> +1.2888886e-12 </wgt>
<wgt id='1790'> +1.2678302e-12 </wgt>
<wgt id='1791'> +1.2499167e-12 </wgt>
<wgt id='1792'> +1.2349588e-12 </wgt>
<wgt id='1793'> +1.2418641e-12 </wgt>
<wgt id='1794'> +1.2658825e-12 </wgt>
<wgt id='1795'> +1.2507328e-12 </wgt>
<wgt id='1796'> +1.2280981e-12 </wgt>
<wgt id='1797'> +1.2457204e-12 </wgt>
<wgt id='1798'> +1.2613300e-12 </wgt>
<wgt id='1799'> +1.2635906e-12 </wgt>
<wgt id='1800'> +1.2756665e-12 </wgt>
<wgt id='1801'> +1.2419577e-12 </wgt>
<wgt id='1802'> +1.2354952e-12 </wgt>
<wgt id='1803'> +1.2767979e-12 </wgt>
<wgt id='1804'> +1.2345377e-12 </wgt>
<wgt id='1805'> +1.2098528e-12 </wgt>
<wgt id='1806'> +1.2190500e-12 </wgt>
<wgt id='1807'> +1.2731173e-12 </wgt>
<wgt id='1808'> +1.2373982e-12 </wgt>
<wgt id='1809'> +1.2397277e-12 </wgt>
<wgt id='1810'> +1.2264360e-12 </wgt>
<wgt id='1811'> +1.2569987e-12 </wgt>
<wgt id='1812'> +1.2265122e-12 </wgt>
<wgt id='1813'> +1.1982593e-12 </wgt>
<wgt id='1814'> +1.5196827e-12 </wgt>
<wgt id='1815'> +1.7732052e-12 </wgt>
<wgt id='1816'> +1.2472082e-12 </wgt>
<wgt id='1817'> +1.2116656e-12 </wgt>
<wgt id='1818'> +1.2399368e-12 </wgt>
<wgt id='1819'> +1.2482685e-12 </wgt>
<wgt id='1820'> +1.2381567e-12 </wgt>
<wgt id='1821'> +1.2586054e-12 </wgt>
<wgt id='1822'> +1.2451111e-12 </wgt>
<wgt id='1823'> +1.2437298e-12 </wgt>
<wgt id='1824'> +1.2080896e-12 </wgt>
<wgt id='1825'> +1.2283594e-12 </wgt>
<wgt id='1826'> +1.2435900e-12 </wgt>
<wgt id='1827'> +1.3211851e-12 </wgt>
<wgt id='1828'> +1.2381873e-12 </wgt>
<wgt id='1829'> +1.2512719e-12 </wgt>
<wgt id='1830'> +1.2785258e-12 </wgt>
<wgt id='1831'> +1.2432827e-12 </wgt>
<wgt id='1832'> +1.2076947e-12 </wgt>
<wgt id='1833'> +1.2491980e-12 </wgt>
<wgt id='1834'> +1.1927161e-12 </wgt>
<wgt id='1835'> +1.2630467e-12 </wgt>
<wgt id='1836'> +1.2244498e-12 </wgt>
<wgt id='1837'> +1.2780540e-12 </wgt>
<wgt id='1838'> +1.2468438e-12 </wgt>
<wgt id='1839'> +1.2834585e-12 </wgt>
<wgt id='1840'> +1.2828722e-12 </wgt>
<wgt id='1841'> +1.2617307e-12 </wgt>
<wgt id='1842'> +1.2140452e-12 </wgt>
<wgt id='1843'> +1.2048889e-12 </wgt>
<wgt id='1844'> +1.2995605e-12 </wgt>
<wgt id='1845'> +1.2381930e-12 </wgt>
<wgt id='1846'> +1.2422339e-12 </wgt>
<wgt id='1847'> +1.2707766e-12 </wgt>
<wgt id='1848'> +1.2312009e-12 </wgt>
<wgt id='1849'> +1.2472805e-12 </wgt>
<wgt id='1850'> +1.2556152e-12 </wgt>
<wgt id='1851'> +1.2289913e-12 </wgt>
<wgt id='1852'> +1.2384847e-12 </wgt>
<wgt id='1853'> +1.2388424e-12 </wgt>
<wgt id='1854'> +1.2144964e-12 </wgt>
<wgt id='1855'> +1.2346200e-12 </wgt>
<wgt id='1856'> +1.2594861e-12 </wgt>
<wgt id='1857'> +1.2680317e-12 </wgt>
<wgt id='1858'> +1.2692313e-12 </wgt>
<wgt id='1859'> +1.2654307e-12 </wgt>
<wgt id='1860'> +1.2372258e-12 </wgt>
<wgt id='1861'> +1.2711794e-12 </wgt>
<wgt id='1862'> +1.2516376e-12 </wgt>
<wgt id='1863'> +1.2265607e-12 </wgt>
<wgt id='1864'> +1.2372316e-12 </wgt>
<wgt id='1865'> +1.2187435e-12 </wgt>
<wgt id='1866'> +1.2583838e-12 </wgt>
<wgt id='1867'> +1.2735521e-12 </wgt>
<wgt id='1868'> +1.2316297e-12 </wgt>
<wgt id='1869'> +1.2558042e-12 </wgt>
<wgt id='1870'> +1.2559461e-12 </wgt>
<wgt id='1871'> +1.2553948e-12 </wgt>
<wgt id='1872'> +1.2347955e-12 </wgt>
<wgt id='1873'> +1.2286694e-12 </wgt>
<wgt id='1874'> +1.2721955e-12 </wgt>
<wgt id='1875'> +1.2508732e-12 </wgt>
<wgt id='1876'> +1.2399524e-12 </wgt>
<wgt id='1877'> +1.2247955e-12 </wgt>
<wgt id='1878'> +1.2570056e-12 </wgt>
<wgt id='1879'> +1.2897424e-12 </wgt>
<wgt id='1880'> +1.2047675e-12 </wgt>
<wgt id='1881'> +1.2369193e-12 </wgt>
<wgt id='1882'> +1.2675656e-12 </wgt>
<wgt id='1883'> +1.2506430e-12 </wgt>
<wgt id='1884'> +1.2469321e-12 </wgt>
<wgt id='1885'> +1.2506635e-12 </wgt>
<wgt id='1886'> +1.2475495e-12 </wgt>
<wgt id='1887'> +1.2541132e-12 </wgt>
<wgt id='1888'> +1.2534498e-12 </wgt>
<wgt id='1889'> +1.2310412e-12 </wgt>
<wgt id='1890'> +1.2887011e-12 </wgt>
<wgt id='1891'> +1.2619478e-12 </wgt>
<wgt id='1892'> +1.2888886e-12 </wgt>
<wgt id='1893'> +1.2678302e-12 </wgt>
<wgt id='1894'> +1.2499167e-12 </wgt>
<wgt id='1895'> +1.2349588e-12 </wgt>
<wgt id='1896'> +1.2418641e-12 </wgt>
<wgt id='1897'> +1.2658825e-12 </wgt>
<wgt id='1898'> +1.2507328e-12 </wgt>
<wgt id='1899'> +1.2280981e-12 </wgt>
<wgt id='1900'> +1.2457204e-12 </wgt>
<wgt id='1901'> +1.2613300e-12 </wgt>
<wgt id='1902'> +1.2635906e-12 </wgt>
<wgt id='1903'> +1.2756665e-12 </wgt>
<wgt id='1904'> +1.2419577e-12 </wgt>
<wgt id='1905'> +1.2354952e-12 </wgt>
<wgt id='1906'> +1.2767979e-12 </wgt>
<wgt id='1907'> +1.2345377e-12 </wgt>
<wgt id='1908'> +1.2098528e-12 </wgt>
<wgt id='1909'> +1.2190500e-12 </wgt>
<wgt id='1910'> +1.2731173e-12 </wgt>
<wgt id='1911'> +1.2373982e-12 </wgt>
<wgt id='1912'> +1.2397277e-12 </wgt>
<wgt id='1913'> +1.2264360e-12 </wgt>
<wgt id='1914'> +1.2569987e-12 </wgt>
<wgt id='1915'> +1.2265122e-12 </wgt>
<wgt id='1916'> +1.1982593e-12 </wgt>
<wgt id='1917'> +1.2363371e-12 </wgt>
<wgt id='1918'> +1.2541218e-12 </wgt>
<wgt id='1919'> +1.2502654e-12 </wgt>
</rwgt>
</event>
<event>
 9      1 +1.5607000e-12 5.66883500e+01 7.81860800e-03 1.28155400e-01
       -4 -1    0    0    0  501 -0.0000000000e+00 +0.0000000000e+00 +1.3456461450e+02 1.3457210661e+02 0.0000000000e+00 0.0000e+00 -1.0000e+00
       21 -1    0    0  501  502 +0.0000000000e+00 -0.0000000000e+00 -5.9663959330e+00 5.9663959330e+00 1.4200000000e+00 0.0000e+00 -1.0000e+00
     1023  2    1    2    0    0 +1.5692266506e+01 -1.3558598361e+01 +1.0901700527e+02 1.1198113691e+02 1.4999492217e+01 0.0000e+00 0.0000e+00
  1000023  2    3    3    0    0 +1.2844968683e+01 -1.0201250274e+01 +5.7825820795e+01 6.0358309987e+01 5.4992095936e+00 0.0000e+00 0.0000e+00
       -4  1    1    2    0  502 -1.5692266506e+01 +1.3558598361e+01 +1.9581213295e+01 2.8557365630e+01 1.4200000000e+00 0.0000e+00 -1.0000e+00
  1000022  1    4    4    0    0 +1.1262589882e+01 -8.8085132301e+00 +5.0953934935e+01 5.3157683561e+01 5.0000000000e+00 0.0000e+00 -1.0000e+00
      -11  1    4    4    0    0 +1.4358913604e+00 -1.0787457193e+00 +5.9775043053e+00 6.2414769332e+00 5.1100000000e-04 0.0000e+00 -1.0000e+00
       11  1    4    4    0    0 +1.4648744072e-01 -3.1399132498e-01 +8.9438155478e-01 9.5914949258e-01 5.1100000000e-04 0.0000e+00 1.0000e+00
  1000022  1    3    3    0    0 +2.8472978227e+00 -3.3573480866e+00 +5.1191184479e+01 5.1622826922e+01 5.0000000000e+00 0.0000e+00 -1.0000e+00
<mgrwt>
<rscale>  1 0.56688349E+02</rscale>
<asrwt>0</asrwt>
<pdfrwt beam="1">  1       21 0.91790753E-03 0.56688349E+02</pdfrwt>
<pdfrwt beam="2">  1       -4 0.20715813E-01 0.56688349E+02</pdfrwt>
<totfact> 0.33363266E+06</totfact>
</mgrwt>
<rwgt>
<wgt id='1001'> +1.5607000e-12 </wgt>
<wgt id='1002'> +1.4892074e-12 </wgt>
<wgt id='1003'> +1.5066781e-12 </wgt>
<wgt id='1004'> +1.3025115e-12 </wgt>
<wgt id='1005'> +1.5607000e-12 </wgt>
<wgt id='1006'> +1.3869009e-12 </wgt>
<wgt id='1007'> +1.3141808e-12 </wgt>
<wgt id='1008'> +1.3318188e-12 </wgt>
<wgt id='1009'> +1.1299491e-12 </wgt>
<wgt id='1010'> +1.3869009e-12 </wgt>
<wgt id='1011'> +1.7864325e-12 </wgt>
<wgt id='1012'> +1.7205103e-12 </wgt>
<wgt id='1013'> +1.7367734e-12 </wgt>
<wgt id='1014'> +1.5406136e-12 </wgt>
<wgt id='1015'> +1.7864325e-12 </wgt>
<wgt id='1016'> +1.8920196e-12 </wgt>
<wgt id='1017'> +1.8517742e-12 </wgt>
<wgt id='1018'> +1.8618878e-12 </wgt>
<wgt id='1019'> +1.7367734e-12 </wgt>
<wgt id='1020'> +1.8920196e-12 </wgt>
<wgt id='1021'> +1.6813249e-12 </wgt>
<wgt id='1022'> +1.6341350e-12 </wgt>
<wgt id='1023'> +1.6458043e-12 </wgt>
<wgt id='1024'> +1.5066781e-12 </wgt>
<wgt id='1025'> +1.6813249e-12 </wgt>
<wgt id='1026'> +2.1656727e-12 </wgt>
<wgt id='1027'> +2.1393907e-12 </wgt>
<wgt id='1028'> +2.1462297e-12 </wgt>
<wgt id='1029'> +2.0542595e-12 </wgt>
<wgt id='1030'> +2.1656727e-12 </wgt>
<wgt id='1031'> +1.2060151e-12 </wgt>
<wgt id='1032'> +1.1057466e-12 </wgt>
<wgt id='1033'> +1.1299491e-12 </wgt>
<wgt id='1034'> +8.5896449e-13 </wgt>
<wgt id='1035'> +1.2060151e-12 </wgt>
<wgt id='1036'> +1.0717136e-12 </wgt>
<wgt id='1037'> +9.7578817e-13 </wgt>
<wgt id='1038'> +9.9881151e-13 </wgt>
<wgt id='1039'> +7.4516512e-13 </wgt>
<wgt id='1040'> +1.0717136e-12 </wgt>
<wgt id='1041'> +1.3804476e-12 </wgt>
<wgt id='1042'> +1.2774906e-12 </wgt>
<wgt id='1043'> +1.3025115e-12 </wgt>
<wgt id='1044'> +1.0159852e-12 </wgt>
<wgt id='1045'> +1.3804476e-12 </wgt>
<wgt id='1046'> +1.5607000e-12 </wgt>
<wgt id='1047'> +1.3413735e-12 </wgt>
<wgt id='1048'> +1.5885341e-12 </wgt>
<wgt id='1049'> +1.5903285e-12 </wgt>
<wgt id='1050'> +1.5799899e-12 </wgt>
<wgt id='1051'> +1.5539051e-12 </wgt>
<wgt id='1052'> +1.4500374e-12 </wgt>
<wgt id='1053'> +1.5794424e-12 </wgt>
<wgt id='1054'> +1.6269014e-12 </wgt>
<wgt id='1055'> +1.6670375e-12 </wgt>
<wgt id='1056'> +1.5963512e-12 </wgt>
<wgt id='1057'> +1.5771487e-12 </wgt>
<wgt id='1058'> +1.5724318e-12 </wgt>
<wgt id='1059'> +1.5943023e-12 </wgt>
<wgt id='1060'> +1.5561149e-12 </wgt>
<wgt id='1061'> +1.6051444e-12 </wgt>
<wgt id='1062'> +1.5824284e-12 </wgt>
<wgt id='1063'> +1.5644270e-12 </wgt>
<wgt id='1064'> +1.5812567e-12 </wgt>
<wgt id='1065'> +1.5358078e-12 </wgt>
<wgt id='1066'> +1.6442261e-12 </wgt>
<wgt id='1067'> +1.5639545e-12 </wgt>
<wgt id='1068'> +1.5062834e-12 </wgt>
<wgt id='1069'> +1.5286153e-12 </wgt>
<wgt id='1070'> +1.5467775e-12 </wgt>
<wgt id='1071'> +1.6021610e-12 </wgt>
<wgt id='1072'> +1.5151216e-12 </wgt>
<wgt id='1073'> +1.5472978e-12 </wgt>
<wgt id='1074'> +1.5471731e-12 </wgt>
<wgt id='1075'> +1.5363520e-12 </wgt>
<wgt id='1076'> +1.6256749e-12 </wgt>
<wgt id='1077'> +1.4965426e-12 </wgt>
<wgt id='1078'> +1.6517252e-12 </wgt>
<wgt id='1079'> +1.5152896e-12 </wgt>
<wgt id='1080'> +1.5685306e-12 </wgt>
<wgt id='1081'> +1.5211806e-12 </wgt>
<wgt id='1082'> +1.5240687e-12 </wgt>
<wgt id='1083'> +1.5593615e-12 </wgt>
<wgt id='1084'> +1.5674187e-12 </wgt>
<wgt id='1085'> +1.5572018e-12 </wgt>
<wgt id='1086'> +1.5342693e-12 </wgt>
<wgt id='1087'> +1.5560395e-12 </wgt>
<wgt id='1088'> +1.5433911e-12 </wgt>
<wgt id='1089'> +1.5039752e-12 </wgt>
<wgt id='1090'> +1.4611335e-12 </wgt>
<wgt id='1091'> +1.5174225e-12 </wgt>
<wgt id='1092'> +1.4669657e-12 </wgt>
<wgt id='1093'> +1.5428217e-12 </wgt>
<wgt id='1094'> +1.6041723e-12 </wgt>
<wgt id='1095'> +1.5637678e-12 </wgt>
<wgt id='1096'> +1.5225123e-12 </wgt>
<wgt id='1097'> +1.5241117e-12 </wgt>
<wgt id='1098'> +1.6214411e-12 </wgt>
<wgt id='1099'> +1.5948794e-12 </wgt>
<wgt id='1100'> +1.4623077e-12 </wgt>
<wgt id='1101'> +1.4861498e-12 </wgt>
<wgt id='1102'> +1.5336357e-12 </wgt>
<wgt id='1103'> +1.4916651e-12 </wgt>
<wgt id='1104'> +1.5767975e-12 </wgt>
<wgt id='1105'> +1.6358305e-12 </wgt>
<wgt id='1106'> +1.4953914e-12 </wgt>
<wgt id='1107'> +1.5658558e-12 </wgt>
<wgt id='1108'> +1.6013243e-12 </wgt>
<wgt id='1109'> +1.4741036e-12 </wgt>
<wgt id='1110'> +1.6168939e-12 </wgt>
<wgt id='1111'> +1.5303252e-12 </wgt>
<wgt id='1112'> +1.5401433e-12 </wgt>
<wgt id='1113'> +1.4559396e-12 </wgt>
<wgt id='1114'> +1.5954672e-12 </wgt>
<wgt id='1115'> +1.5692154e-12 </wgt>
<wgt id='1116'> +1.5753310e-12 </wgt>
<wgt id='1117'> +1.6297780e-12 </wgt>
<wgt id='1118'> +1.4927710e-12 </wgt>
<wgt id='1119'> +1.7197978e-12 </wgt>
<wgt id='1120'> +1.7023987e-12 </wgt>
<wgt id='1121'> +1.6035906e-12 </wgt>
<wgt id='1122'> +1.4372438e-12 </wgt>
<wgt id='1123'> +1.6877022e-12 </wgt>
<wgt id='1124'> +1.5884897e-12 </wgt>
<wgt id='1125'> +1.5777854e-12 </wgt>
<wgt id='1126'> +1.5626736e-12 </wgt>
<wgt id='1127'> +1.5476433e-12 </wgt>
<wgt id='1128'> +1.5824284e-12 </wgt>
<wgt id='1129'> +1.5241519e-12 </wgt>
<wgt id='1130'> +1.6061854e-12 </wgt>
<wgt id='1131'> +1.6321960e-12 </wgt>
<wgt id='1132'> +1.4594424e-12 </wgt>
<wgt id='1133'> +1.5902551e-12 </wgt>
<wgt id='1134'> +1.5550437e-12 </wgt>
<wgt id='1135'> +1.7112594e-12 </wgt>
<wgt id='1136'> +1.5428235e-12 </wgt>
<wgt id='1137'> +1.5033445e-12 </wgt>
<wgt id='1138'> +1.6468087e-12 </wgt>
<wgt id='1139'> +1.5983823e-12 </wgt>
<wgt id='1140'> +1.5510896e-12 </wgt>
<wgt id='1141'> +1.5510644e-12 </wgt>
<wgt id='1142'> +1.5532572e-12 </wgt>
<wgt id='1143'> +1.4594757e-12 </wgt>
<wgt id='1144'> +1.6145007e-12 </wgt>
<wgt id='1145'> +1.6276343e-12 </wgt>
<wgt id='1146'> +1.5826609e-12 </wgt>
<wgt id='1147'> +1.3311748e-12 </wgt>
<wgt id='1148'> +1.3707443e-12 </wgt>
<wgt id='1149'> +1.3749527e-12 </wgt>
<wgt id='1150'> +1.3522611e-12 </wgt>
<wgt id='1151'> +1.1653390e-12 </wgt>
<wgt id='1152'> +1.8053455e-12 </wgt>
<wgt id='1153'> +1.7967924e-12 </wgt>
<wgt id='1154'> +1.8103332e-12 </wgt>
<wgt id='1155'> +1.8063641e-12 </wgt>
<wgt id='1156'> +1.8048761e-12 </wgt>
<wgt id='1157'> +1.8008232e-12 </wgt>
<wgt id='1158'> +1.8114900e-12 </wgt>
<wgt id='1159'> +1.8014893e-12 </wgt>
<wgt id='1160'> +1.8078412e-12 </wgt>
<wgt id='1161'> +1.7949132e-12 </wgt>
<wgt id='1162'> +1.8125135e-12 </wgt>
<wgt id='1163'> +1.8112437e-12 </wgt>
<wgt id='1164'> +1.7995246e-12 </wgt>
<wgt id='1165'> +1.7872684e-12 </wgt>
<wgt id='1166'> +1.8228559e-12 </wgt>
<wgt id='1167'> +1.8184104e-12 </wgt>
<wgt id='1168'> +1.7864071e-12 </wgt>
<wgt id='1169'> +1.8101565e-12 </wgt>
<wgt id='1170'> +1.8017121e-12 </wgt>
<wgt id='1171'> +1.8027897e-12 </wgt>
<wgt id='1172'> +1.8084544e-12 </wgt>
<wgt id='1173'> +1.7952882e-12 </wgt>
<wgt id='1174'> +1.8146978e-12 </wgt>
<wgt id='1175'> +1.8053042e-12 </wgt>
<wgt id='1176'> +1.8040642e-12 </wgt>
<wgt id='1177'> +1.8059513e-12 </wgt>
<wgt id='1178'> +1.8043055e-12 </wgt>
<wgt id='1179'> +1.8263329e-12 </wgt>
<wgt id='1180'> +1.7784424e-12 </wgt>
<wgt id='1181'> +1.7964076e-12 </wgt>
<wgt id='1182'> +1.8140950e-12 </wgt>
<wgt id='1183'> +1.8045954e-12 </wgt>
<wgt id='1184'> +1.8054940e-12 </wgt>
<wgt id='1185'> +1.8079681e-12 </wgt>
<wgt id='1186'> +1.8040842e-12 </wgt>
<wgt id='1187'> +1.8045992e-12 </wgt>
<wgt id='1188'> +1.8055970e-12 </wgt>
<wgt id='1189'> +1.8030530e-12 </wgt>
<wgt id='1190'> +1.7863286e-12 </wgt>
<wgt id='1191'> +1.7857021e-12 </wgt>
<wgt id='1192'> +1.8162991e-12 </wgt>
<wgt id='1193'> +1.3877953e-12 </wgt>
<wgt id='1194'> +1.3848581e-12 </wgt>
<wgt id='1195'> +1.3902181e-12 </wgt>
<wgt id='1196'> +1.3899220e-12 </wgt>
<wgt id='1197'> +1.3855071e-12 </wgt>
<wgt id='1198'> +1.3906477e-12 </wgt>
<wgt id='1199'> +1.3836184e-12 </wgt>
<wgt id='1200'> +1.3894974e-12 </wgt>
<wgt id='1201'> +1.3867380e-12 </wgt>
<wgt id='1202'> +1.3838259e-12 </wgt>
<wgt id='1203'> +1.3935969e-12 </wgt>
<wgt id='1204'> +1.3643649e-12 </wgt>
<wgt id='1205'> +1.4023812e-12 </wgt>
<wgt id='1206'> +1.3943088e-12 </wgt>
<wgt id='1207'> +1.3790052e-12 </wgt>
<wgt id='1208'> +1.3793074e-12 </wgt>
<wgt id='1209'> +1.3909653e-12 </wgt>
<wgt id='1210'> +1.3892630e-12 </wgt>
<wgt id='1211'> +1.3777734e-12 </wgt>
<wgt id='1212'> +1.3853929e-12 </wgt>
<wgt id='1213'> +1.3901597e-12 </wgt>
<wgt id='1214'> +1.3795300e-12 </wgt>
<wgt id='1215'> +1.3989044e-12 </wgt>
<wgt id='1216'> +1.3939403e-12 </wgt>
<wgt id='1217'> +1.3835001e-12 </wgt>
<wgt id='1218'> +1.3945148e-12 </wgt>
<wgt id='1219'> +1.3843338e-12 </wgt>
<wgt id='1220'> +1.3923264e-12 </wgt>
<wgt id='1221'> +1.3879669e-12 </wgt>
<wgt id='1222'> +1.3870933e-12 </wgt>
<wgt id='1223'> +1.3926126e-12 </wgt>
<wgt id='1224'> +1.3887687e-12 </wgt>
<wgt id='1225'> +1.3874434e-12 </wgt>
<wgt id='1226'> +1.3887881e-12 </wgt>
<wgt id='1227'> +1.3873443e-12 </wgt>
<wgt id='1228'> +1.3836090e-12 </wgt>
<wgt id='1229'> +1.3897568e-12 </wgt>
<wgt id='1230'> +1.3968392e-12 </wgt>
<wgt id='1231'> +1.3686633e-12 </wgt>
<wgt id='1232'> +1.3849613e-12 </wgt>
<wgt id='1233'> +1.3886123e-12 </wgt>
<wgt id='1234'> +1.3877953e-12 </wgt>
<wgt id='1235'> +1.3758548e-12 </wgt>
<wgt id='1236'> +1.3804142e-12 </wgt>
<wgt id='1237'> +1.3844525e-12 </wgt>
<wgt id='1238'> +1.3916364e-12 </wgt>
<wgt id='1239'> +1.3944724e-12 </wgt>
<wgt id='1240'> +1.3971939e-12 </wgt>
<wgt id='1241'> +1.3295802e-12 </wgt>
<wgt id='1242'> +1.3228423e-12 </wgt>
<wgt id='1243'> +1.3362163e-12 </wgt>
<wgt id='1244'> +1.3230475e-12 </wgt>
<wgt id='1245'> +1.3343704e-12 </wgt>
<wgt id='1246'> +1.3311998e-12 </wgt>
<wgt id='1247'> +1.3282014e-12 </wgt>
<wgt id='1248'> +1.3294009e-12 </wgt>
<wgt id='1249'> +1.3296910e-12 </wgt>
<wgt id='1250'> +1.3252699e-12 </wgt>
<wgt id='1251'> +1.3326307e-12 </wgt>
<wgt id='1252'> +1.3261676e-12 </wgt>
<wgt id='1253'> +1.3322289e-12 </wgt>
<wgt id='1254'> +1.3073292e-12 </wgt>
<wgt id='1255'> +1.3429787e-12 </wgt>
<wgt id='1256'> +1.3354647e-12 </wgt>
<wgt id='1257'> +1.3147100e-12 </wgt>
<wgt id='1258'> +1.3417560e-12 </wgt>
<wgt id='1259'> +1.3172825e-12 </wgt>
<wgt id='1260'> +1.3340662e-12 </wgt>
<wgt id='1261'> +1.3246545e-12 </wgt>
<wgt id='1262'> +1.3323683e-12 </wgt>
<wgt id='1263'> +1.3281954e-12 </wgt>
<wgt id='1264'> +1.3400998e-12 </wgt>
<wgt id='1265'> +1.3245038e-12 </wgt>
<wgt id='1266'> +1.3264337e-12 </wgt>
<wgt id='1267'> +1.3340738e-12 </wgt>
<wgt id='1268'> +1.3299478e-12 </wgt>
<wgt id='1269'> +1.3338535e-12 </wgt>
<wgt id='1270'> +1.3240836e-12 </wgt>
<wgt id='1271'> +1.3258447e-12 </wgt>
<wgt id='1272'> +1.3304485e-12 </wgt>
<wgt id='1273'> +1.3289736e-12 </wgt>
<wgt id='1274'> +1.3297637e-12 </wgt>
<wgt id='1275'> +1.3283800e-12 </wgt>
<wgt id='1276'> +1.3303473e-12 </wgt>
<wgt id='1277'> +1.3278413e-12 </wgt>
<wgt id='1278'> +1.3264158e-12 </wgt>
<wgt id='1279'> +1.3274207e-12 </wgt>
<wgt id='1280'> +1.3305688e-12 </wgt>
<wgt id='1281'> +1.3249590e-12 </wgt>
<wgt id='1282'> +1.3295802e-12 </wgt>
<wgt id='1283'> +1.3171212e-12 </wgt>
<wgt id='1284'> +1.3219506e-12 </wgt>
<wgt id='1285'> +1.3261468e-12 </wgt>
<wgt id='1286'> +1.3330905e-12 </wgt>
<wgt id='1287'> +1.3359152e-12 </wgt>
<wgt id='1288'> +1.3383118e-12 </wgt>
<wgt id='1289'> +1.4375448e-12 </wgt>
<wgt id='1290'> +1.4403216e-12 </wgt>
<wgt id='1291'> +1.4345979e-12 </wgt>
<wgt id='1292'> +1.4383462e-12 </wgt>
<wgt id='1293'> +1.4369527e-12 </wgt>
<wgt id='1294'> +1.4372020e-12 </wgt>
<wgt id='1295'> +1.4378515e-12 </wgt>
<wgt id='1296'> +1.4324792e-12 </wgt>
<wgt id='1297'> +1.4438197e-12 </wgt>
<wgt id='1298'> +1.4475243e-12 </wgt>
<wgt id='1299'> +1.4251541e-12 </wgt>
<wgt id='1300'> +1.4422737e-12 </wgt>
<wgt id='1301'> +1.4281453e-12 </wgt>
<wgt id='1302'> +1.4359008e-12 </wgt>
<wgt id='1303'> +1.4398067e-12 </wgt>
<wgt id='1304'> +1.4323411e-12 </wgt>
<wgt id='1305'> +1.4411264e-12 </wgt>
<wgt id='1306'> +1.4268711e-12 </wgt>
<wgt id='1307'> +1.4497269e-12 </wgt>
<wgt id='1308'> +1.4351505e-12 </wgt>
<wgt id='1309'> +1.4394124e-12 </wgt>
<wgt id='1310'> +1.4337861e-12 </wgt>
<wgt id='1311'> +1.4417657e-12 </wgt>
<wgt id='1312'> +1.4287267e-12 </wgt>
<wgt id='1313'> +1.4467201e-12 </wgt>
<wgt id='1314'> +1.4450992e-12 </wgt>
<wgt id='1315'> +1.4225673e-12 </wgt>
<wgt id='1316'> +1.4441384e-12 </wgt>
<wgt id='1317'> +1.4383666e-12 </wgt>
<wgt id='1318'> +1.4486748e-12 </wgt>
<wgt id='1319'> +1.4243152e-12 </wgt>
<wgt id='1320'> +1.4409229e-12 </wgt>
<wgt id='1321'> +1.4334062e-12 </wgt>
<wgt id='1322'> +1.4395429e-12 </wgt>
<wgt id='1323'> +1.4347616e-12 </wgt>
<wgt id='1324'> +1.4370263e-12 </wgt>
<wgt id='1325'> +1.4433962e-12 </wgt>
<wgt id='1326'> +1.4409515e-12 </wgt>
<wgt id='1327'> +1.4372531e-12 </wgt>
<wgt id='1328'> +1.4356225e-12 </wgt>
<wgt id='1329'> +1.4393002e-12 </wgt>
<wgt id='1330'> +1.4357272e-12 </wgt>
<wgt id='1331'> +1.4402751e-12 </wgt>
<wgt id='1332'> +1.4648341e-12 </wgt>
<wgt id='1333'> +1.4289388e-12 </wgt>
<wgt id='1334'> +1.4361016e-12 </wgt>
<wgt id='1335'> +1.4419646e-12 </wgt>
<wgt id='1336'> +1.4395321e-12 </wgt>
<wgt id='1337'> +1.4269968e-12 </wgt>
<wgt id='1338'> +1.4383680e-12 </wgt>
<wgt id='1339'> +1.4370041e-12 </wgt>
<wgt id='1340'> +1.3950951e-12 </wgt>
<wgt id='1341'> +1.3979136e-12 </wgt>
<wgt id='1342'> +1.3921677e-12 </wgt>
<wgt id='1343'> +1.3960243e-12 </wgt>
<wgt id='1344'> +1.3945363e-12 </wgt>
<wgt id='1345'> +1.3944445e-12 </wgt>
<wgt id='1346'> +1.3957231e-12 </wgt>
<wgt id='1347'> +1.3901283e-12 </wgt>
<wgt id='1348'> +1.4006095e-12 </wgt>
<wgt id='1349'> +1.4043285e-12 </wgt>
<wgt id='1350'> +1.3860855e-12 </wgt>
<wgt id='1351'> +1.3997799e-12 </wgt>
<wgt id='1352'> +1.3848862e-12 </wgt>
<wgt id='1353'> +1.3925669e-12 </wgt>
<wgt id='1354'> +1.3996654e-12 </wgt>
<wgt id='1355'> +1.3899281e-12 </wgt>
<wgt id='1356'> +1.3980334e-12 </wgt>
<wgt id='1357'> +1.3833241e-12 </wgt>
<wgt id='1358'> +1.4090610e-12 </wgt>
<wgt id='1359'> +1.3954558e-12 </wgt>
<wgt id='1360'> +1.3948577e-12 </wgt>
<wgt id='1361'> +1.3913478e-12 </wgt>
<wgt id='1362'> +1.4002311e-12 </wgt>
<wgt id='1363'> +1.3829226e-12 </wgt>
<wgt id='1364'> +1.4038987e-12 </wgt>
<wgt id='1365'> +1.3845052e-12 </wgt>
<wgt id='1366'> +1.3990653e-12 </wgt>
<wgt id='1367'> +1.4010528e-12 </wgt>
<wgt id='1368'> +1.3954743e-12 </wgt>
<wgt id='1369'> +1.4044039e-12 </wgt>
<wgt id='1370'> +1.3840589e-12 </wgt>
<wgt id='1371'> +1.3987277e-12 </wgt>
<wgt id='1372'> +1.3899440e-12 </wgt>
<wgt id='1373'> +1.3973884e-12 </wgt>
<wgt id='1374'> +1.3924693e-12 </wgt>
<wgt id='1375'> +1.3944782e-12 </wgt>
<wgt id='1376'> +1.4011864e-12 </wgt>
<wgt id='1377'> +1.3984014e-12 </wgt>
<wgt id='1378'> +1.3953574e-12 </wgt>
<wgt id='1379'> +1.3931396e-12 </wgt>
<wgt id='1380'> +1.3971938e-12 </wgt>
<wgt id='1381'> +1.3947161e-12 </wgt>
<wgt id='1382'> +1.3960765e-12 </wgt>
<wgt id='1383'> +1.4205392e-12 </wgt>
<wgt id='1384'> +1.3870256e-12 </wgt>
<wgt id='1385'> +1.3938938e-12 </wgt>
<wgt id='1386'> +1.3984670e-12 </wgt>
<wgt id='1387'> +1.3973078e-12 </wgt>
<wgt id='1388'> +1.3836560e-12 </wgt>
<wgt id='1389'> +1.3961581e-12 </wgt>
<wgt id='1390'> +1.3939766e-12 </wgt>
<wgt id='1391'> +1.3797573e-12 </wgt>
<wgt id='1392'> +1.3204166e-12 </wgt>
<wgt id='1393'> +1.3401981e-12 </wgt>
<wgt id='1394'> +1.3604546e-12 </wgt>
<wgt id='1395'> +1.3991597e-12 </wgt>
<wgt id='1396'> +1.3796682e-12 </wgt>
<wgt id='1397'> +1.4625111e-12 </wgt>
<wgt id='1398'> +1.4432608e-12 </wgt>
<wgt id='1399'> +1.4256934e-12 </wgt>
<wgt id='1400'> +1.4095330e-12 </wgt>
<wgt id='1401'> +1.3941799e-12 </wgt>
<wgt id='1402'> +1.3663976e-12 </wgt>
<wgt id='1403'> +1.3539189e-12 </wgt>
<wgt id='1404'> +1.3420786e-12 </wgt>
<wgt id='1405'> +1.3796682e-12 </wgt>
<wgt id='1406'> +1.3708171e-12 </wgt>
<wgt id='1407'> +1.3753985e-12 </wgt>
<wgt id='1408'> +1.3836798e-12 </wgt>
<wgt id='1409'> +1.3871571e-12 </wgt>
<wgt id='1410'> +1.3164557e-12 </wgt>
<wgt id='1411'> +1.3189159e-12 </wgt>
<wgt id='1412'> +1.3132784e-12 </wgt>
<wgt id='1413'> +1.3196493e-12 </wgt>
<wgt id='1414'> +1.3131990e-12 </wgt>
<wgt id='1415'> +1.3184380e-12 </wgt>
<wgt id='1416'> +1.3156962e-12 </wgt>
<wgt id='1417'> +1.3090159e-12 </wgt>
<wgt id='1418'> +1.3238509e-12 </wgt>
<wgt id='1419'> +1.3207599e-12 </wgt>
<wgt id='1420'> +1.3122657e-12 </wgt>
<wgt id='1421'> +1.2952087e-12 </wgt>
<wgt id='1422'> +1.3257001e-12 </wgt>
<wgt id='1423'> +1.3162782e-12 </wgt>
<wgt id='1424'> +1.3166822e-12 </wgt>
<wgt id='1425'> +1.3100138e-12 </wgt>
<wgt id='1426'> +1.3234258e-12 </wgt>
<wgt id='1427'> +1.3026694e-12 </wgt>
<wgt id='1428'> +1.3239085e-12 </wgt>
<wgt id='1429'> +1.3143288e-12 </wgt>
<wgt id='1430'> +1.3194271e-12 </wgt>
<wgt id='1431'> +1.3162894e-12 </wgt>
<wgt id='1432'> +1.3164913e-12 </wgt>
<wgt id='1433'> +1.3277774e-12 </wgt>
<wgt id='1434'> +1.3040421e-12 </wgt>
<wgt id='1435'> +1.3221475e-12 </wgt>
<wgt id='1436'> +1.3028259e-12 </wgt>
<wgt id='1437'> +1.3246519e-12 </wgt>
<wgt id='1438'> +1.3149738e-12 </wgt>
<wgt id='1439'> +1.3093954e-12 </wgt>
<wgt id='1440'> +1.3323971e-12 </wgt>
<wgt id='1441'> +1.3174406e-12 </wgt>
<wgt id='1442'> +1.3150081e-12 </wgt>
<wgt id='1443'> +1.3144881e-12 </wgt>
<wgt id='1444'> +1.3220995e-12 </wgt>
<wgt id='1445'> +1.3220888e-12 </wgt>
<wgt id='1446'> +1.3155016e-12 </wgt>
<wgt id='1447'> +1.3172355e-12 </wgt>
<wgt id='1448'> +1.3182395e-12 </wgt>
<wgt id='1449'> +1.3145580e-12 </wgt>
<wgt id='1450'> +1.3176659e-12 </wgt>
<wgt id='1451'> +1.3128697e-12 </wgt>
<wgt id='1452'> +1.3211492e-12 </wgt>
<wgt id='1453'> +1.3176036e-12 </wgt>
<wgt id='1454'> +1.3098794e-12 </wgt>
<wgt id='1455'> +1.3076590e-12 </wgt>
<wgt id='1456'> +1.3221013e-12 </wgt>
<wgt id='1457'> +1.3189740e-12 </wgt>
<wgt id='1458'> +1.3155030e-12 </wgt>
<wgt id='1459'> +1.3173039e-12 </wgt>
<wgt id='1460'> +1.3169554e-12 </wgt>
<wgt id='1461'> +1.3164557e-12 </wgt>
<wgt id='1462'> +1.3038084e-12 </wgt>
<wgt id='1463'> +1.3273581e-12 </wgt>
<wgt id='1464'> +1.3161600e-12 </wgt>
<wgt id='1465'> +1.3936248e-12 </wgt>
<wgt id='1466'> +1.3754530e-12 </wgt>
<wgt id='1467'> +1.3587951e-12 </wgt>
<wgt id='1468'> +1.3449540e-12 </wgt>
<wgt id='1469'> +1.3295629e-12 </wgt>
<wgt id='1470'> +1.3041361e-12 </wgt>
<wgt id='1471'> +1.2911194e-12 </wgt>
<wgt id='1472'> +1.2796541e-12 </wgt>
<wgt id='1473'> +1.3161600e-12 </wgt>
<wgt id='1474'> +1.3076255e-12 </wgt>
<wgt id='1475'> +1.3124037e-12 </wgt>
<wgt id='1476'> +1.3196977e-12 </wgt>
<wgt id='1477'> +1.3228947e-12 </wgt>
<wgt id='1478'> +1.3507597e-12 </wgt>
<wgt id='1479'> +1.3523727e-12 </wgt>
<wgt id='1480'> +1.3532483e-12 </wgt>
<wgt id='1481'> +1.3422223e-12 </wgt>
<wgt id='1482'> +1.3591604e-12 </wgt>
<wgt id='1483'> +1.3393418e-12 </wgt>
<wgt id='1484'> +1.3500484e-12 </wgt>
<wgt id='1485'> +1.3746848e-12 </wgt>
<wgt id='1486'> +1.3501703e-12 </wgt>
<wgt id='1487'> +1.3572082e-12 </wgt>
<wgt id='1488'> +1.3448114e-12 </wgt>
<wgt id='1489'> +1.3736229e-12 </wgt>
<wgt id='1490'> +1.3538235e-12 </wgt>
<wgt id='1491'> +1.3559206e-12 </wgt>
<wgt id='1492'> +1.3458635e-12 </wgt>
<wgt id='1493'> +1.3439436e-12 </wgt>
<wgt id='1494'> +1.3519923e-12 </wgt>
<wgt id='1495'> +1.3642135e-12 </wgt>
<wgt id='1496'> +1.3490430e-12 </wgt>
<wgt id='1497'> +1.3571510e-12 </wgt>
<wgt id='1498'> +1.3482898e-12 </wgt>
<wgt id='1499'> +1.3552158e-12 </wgt>
<wgt id='1500'> +1.3500854e-12 </wgt>
<wgt id='1501'> +1.3490513e-12 </wgt>
<wgt id='1502'> +1.3512710e-12 </wgt>
<wgt id='1503'> +1.3544224e-12 </wgt>
<wgt id='1504'> +1.3524829e-12 </wgt>
<wgt id='1505'> +1.3509568e-12 </wgt>
<wgt id='1506'> +1.3539535e-12 </wgt>
<wgt id='1507'> +1.3501339e-12 </wgt>
<wgt id='1508'> +1.3618759e-12 </wgt>
<wgt id='1509'> +1.2393200e-12 </wgt>
<wgt id='1510'> +1.2358738e-12 </wgt>
<wgt id='1511'> +1.2369945e-12 </wgt>
<wgt id='1512'> +1.2380277e-12 </wgt>
<wgt id='1513'> +1.2377987e-12 </wgt>
<wgt id='1514'> +1.2378860e-12 </wgt>
<wgt id='1515'> +1.2403807e-12 </wgt>
<wgt id='1516'> +1.2436668e-12 </wgt>
<wgt id='1517'> +1.2429977e-12 </wgt>
<wgt id='1518'> +1.2306982e-12 </wgt>
<wgt id='1519'> +1.2428243e-12 </wgt>
<wgt id='1520'> +1.2486458e-12 </wgt>
<wgt id='1521'> +1.2427798e-12 </wgt>
<wgt id='1522'> +1.2511842e-12 </wgt>
<wgt id='1523'> +1.2348104e-12 </wgt>
<wgt id='1524'> +1.2361614e-12 </wgt>
<wgt id='1525'> +1.2269055e-12 </wgt>
<wgt id='1526'> +1.2445816e-12 </wgt>
<wgt id='1527'> +1.2513625e-12 </wgt>
<wgt id='1528'> +1.2385658e-12 </wgt>
<wgt id='1529'> +1.2486018e-12 </wgt>
<wgt id='1530'> +1.2249206e-12 </wgt>
<wgt id='1531'> +1.2390363e-12 </wgt>
<wgt id='1532'> +1.2524074e-12 </wgt>
<wgt id='1533'> +1.2364377e-12 </wgt>
<wgt id='1534'> +1.2343287e-12 </wgt>
<wgt id='1535'> +1.2539167e-12 </wgt>
<wgt id='1536'> +1.2387874e-12 </wgt>
<wgt id='1537'> +1.2401190e-12 </wgt>
<wgt id='1538'> +1.2420802e-12 </wgt>
<wgt id='1539'> +1.2340477e-12 </wgt>
<wgt id='1540'> +1.2325812e-12 </wgt>
<wgt id='1541'> +1.2366356e-12 </wgt>
<wgt id='1542'> +1.2373132e-12 </wgt>
<wgt id='1543'> +1.2401162e-12 </wgt>
<wgt id='1544'> +1.2353888e-12 </wgt>
<wgt id='1545'> +1.2384674e-12 </wgt>
<wgt id='1546'> +1.2443253e-12 </wgt>
<wgt id='1547'> +1.2356540e-12 </wgt>
<wgt id='1548'> +1.2438672e-12 </wgt>
<wgt id='1549'> +1.2387997e-12 </wgt>
<wgt id='1550'> +1.2379480e-12 </wgt>
<wgt id='1551'> +1.2396639e-12 </wgt>
<wgt id='1552'> +1.2385712e-12 </wgt>
<wgt id='1553'> +1.2367041e-12 </wgt>
<wgt id='1554'> +1.2328882e-12 </wgt>
<wgt id='1555'> +1.2364552e-12 </wgt>
<wgt id='1556'> +1.2442487e-12 </wgt>
<wgt id='1557'> +1.2326725e-12 </wgt>
<wgt id='1558'> +1.2441994e-12 </wgt>
<wgt id='1559'> +1.2354024e-12 </wgt>
<wgt id='1560'> +1.2340705e-12 </wgt>
<wgt id='1561'> +1.2431187e-12 </wgt>
<wgt id='1562'> +1.2382414e-12 </wgt>
<wgt id='1563'> +1.2384295e-12 </wgt>
<wgt id='1564'> +1.2393676e-12 </wgt>
<wgt id='1565'> +1.2417953e-12 </wgt>
<wgt id='1566'> +1.2343243e-12 </wgt>
<wgt id='1567'> +1.2317106e-12 </wgt>
<wgt id='1568'> +1.2412236e-12 </wgt>
<wgt id='1569'> +1.2376989e-12 </wgt>
<wgt id='1570'> +1.2439936e-12 </wgt>
<wgt id='1571'> +1.2382248e-12 </wgt>
<wgt id='1572'> +1.2433212e-12 </wgt>
<wgt id='1573'> +1.2430799e-12 </wgt>
<wgt id='1574'> +1.2360260e-12 </wgt>
<wgt id='1575'> +1.2398074e-12 </wgt>
<wgt id='1576'> +1.2421272e-12 </wgt>
<wgt id='1577'> +1.2365788e-12 </wgt>
<wgt id='1578'> +1.2362433e-12 </wgt>
<wgt id='1579'> +1.2417528e-12 </wgt>
<wgt id='1580'> +1.2465941e-12 </wgt>
<wgt id='1581'> +1.2359629e-12 </wgt>
<wgt id='1582'> +1.2354781e-12 </wgt>
<wgt id='1583'> +1.2411978e-12 </wgt>
<wgt id='1584'> +1.2396693e-12 </wgt>
<wgt id='1585'> +1.2392285e-12 </wgt>
<wgt id='1586'> +1.2443729e-12 </wgt>
<wgt id='1587'> +1.2372790e-12 </wgt>
<wgt id='1588'> +1.2378273e-12 </wgt>
<wgt id='1589'> +1.2393067e-12 </wgt>
<wgt id='1590'> +1.2379666e-12 </wgt>
<wgt id='1591'> +1.2388990e-12 </wgt>
<wgt id='1592'> +1.2393090e-12 </wgt>
<wgt id='1593'> +1.2421210e-12 </wgt>
<wgt id='1594'> +1.2404464e-12 </wgt>
<wgt id='1595'> +1.2373140e-12 </wgt>
<wgt id='1596'> +1.2391059e-12 </wgt>
<wgt id='1597'> +1.2386644e-12 </wgt>
<wgt id='1598'> +1.2413601e-12 </wgt>
<wgt id='1599'> +1.2415651e-12 </wgt>
<wgt id='1600'> +1.2363593e-12 </wgt>
<wgt id='1601'> +1.2405826e-12 </wgt>
<wgt id='1602'> +1.2382578e-12 </wgt>
<wgt id='1603'> +1.2414354e-12 </wgt>
<wgt id='1604'> +1.2399100e-12 </wgt>
<wgt id='1605'> +1.2399952e-12 </wgt>
<wgt id='1606'> +1.2367619e-12 </wgt>
<wgt id='1607'> +1.2389141e-12 </wgt>
<wgt id='1608'> +1.2393559e-12 </wgt>
<wgt id='1609'> +1.2404089e-12 </wgt>
<wgt id='1610'> +1.1954634e-12 </wgt>
<wgt id='1611'> +1.2806020e-12 </wgt>
<wgt id='1612'> +1.4516445e-12 </wgt>
<wgt id='1613'> +1.4937227e-12 </wgt>
<wgt id='1614'> +1.4527902e-12 </wgt>
<wgt id='1615'> +1.4690431e-12 </wgt>
<wgt id='1616'> +1.4525114e-12 </wgt>
<wgt id='1617'> +1.3283292e-12 </wgt>
<wgt id='1618'> +1.2512749e-12 </wgt>
<wgt id='1619'> +1.4438310e-12 </wgt>
<wgt id='1620'> +1.4962914e-12 </wgt>
<wgt id='1621'> +1.4471405e-12 </wgt>
<wgt id='1622'> +1.4665216e-12 </wgt>
<wgt id='1623'> +1.5014595e-12 </wgt>
<wgt id='1624'> +1.4429838e-12 </wgt>
<wgt id='1625'> +1.4652759e-12 </wgt>
<wgt id='1626'> +1.5638435e-12 </wgt>
<wgt id='1627'> +1.4816862e-12 </wgt>
<wgt id='1628'> +1.5150182e-12 </wgt>
<wgt id='1629'> +1.5029074e-12 </wgt>
<wgt id='1630'> +1.4722131e-12 </wgt>
<wgt id='1631'> +1.4663277e-12 </wgt>
<wgt id='1632'> +1.4949217e-12 </wgt>
<wgt id='1633'> +1.4834589e-12 </wgt>
<wgt id='1634'> +1.4706023e-12 </wgt>
<wgt id='1635'> +1.4277461e-12 </wgt>
<wgt id='1636'> +1.4127113e-12 </wgt>
<wgt id='1637'> +1.4098022e-12 </wgt>
<wgt id='1638'> +1.4743273e-12 </wgt>
<wgt id='1639'> +1.5101381e-12 </wgt>
<wgt id='1640'> +1.5430512e-12 </wgt>
<wgt id='1641'> +1.4680706e-12 </wgt>
<wgt id='1642'> +1.4922675e-12 </wgt>
<wgt id='1643'> +1.5296315e-12 </wgt>
<wgt id='1644'> +1.4591940e-12 </wgt>
<wgt id='1645'> +1.4679869e-12 </wgt>
<wgt id='1646'> +1.5260537e-12 </wgt>
<wgt id='1647'> +1.5178864e-12 </wgt>
<wgt id='1648'> +1.4271929e-12 </wgt>
<wgt id='1649'> +1.2776810e-12 </wgt>
<wgt id='1650'> +1.5468324e-12 </wgt>
<wgt id='1651'> +1.5148057e-12 </wgt>
<wgt id='1652'> +1.5615410e-12 </wgt>
<wgt id='1653'> +1.3205705e-12 </wgt>
<wgt id='1654'> +1.3575335e-12 </wgt>
<wgt id='1655'> +1.4022397e-12 </wgt>
<wgt id='1656'> +1.5116297e-12 </wgt>
<wgt id='1657'> +1.4544196e-12 </wgt>
<wgt id='1658'> +1.4977399e-12 </wgt>
<wgt id='1659'> +1.4429838e-12 </wgt>
<wgt id='1660'> +1.3571414e-12 </wgt>
<wgt id='1661'> +1.4392105e-12 </wgt>
<wgt id='1662'> +1.4575512e-12 </wgt>
<wgt id='1663'> +1.4563634e-12 </wgt>
<wgt id='1664'> +1.5168032e-12 </wgt>
<wgt id='1665'> +1.5857400e-12 </wgt>
<wgt id='1666'> +1.4591776e-12 </wgt>
<wgt id='1667'> +1.4138061e-12 </wgt>
<wgt id='1668'> +1.4079161e-12 </wgt>
<wgt id='1669'> +1.4560990e-12 </wgt>
<wgt id='1670'> +1.4725958e-12 </wgt>
<wgt id='1671'> +1.4853168e-12 </wgt>
<wgt id='1672'> +1.4170972e-12 </wgt>
<wgt id='1673'> +1.3955854e-12 </wgt>
<wgt id='1674'> +1.4570658e-12 </wgt>
<wgt id='1675'> +1.4387568e-12 </wgt>
<wgt id='1676'> +1.4115055e-12 </wgt>
<wgt id='1677'> +1.4269300e-12 </wgt>
<wgt id='1678'> +1.4802164e-12 </wgt>
<wgt id='1679'> +1.4812888e-12 </wgt>
<wgt id='1680'> +1.4044897e-12 </wgt>
<wgt id='1681'> +1.4538519e-12 </wgt>
<wgt id='1682'> +1.4206468e-12 </wgt>
<wgt id='1683'> +1.4021959e-12 </wgt>
<wgt id='1684'> +1.4425432e-12 </wgt>
<wgt id='1685'> +1.4383884e-12 </wgt>
<wgt id='1686'> +1.4712393e-12 </wgt>
<wgt id='1687'> +1.4653146e-12 </wgt>
<wgt id='1688'> +1.4936898e-12 </wgt>
<wgt id='1689'> +1.4056545e-12 </wgt>
<wgt id='1690'> +1.3613509e-12 </wgt>
<wgt id='1691'> +1.4039006e-12 </wgt>
<wgt id='1692'> +1.4101095e-12 </wgt>
<wgt id='1693'> +1.5495145e-12 </wgt>
<wgt id='1694'> +1.4030957e-12 </wgt>
<wgt id='1695'> +1.4797358e-12 </wgt>
<wgt id='1696'> +1.4658638e-12 </wgt>
<wgt id='1697'> +1.3599340e-12 </wgt>
<wgt id='1698'> +1.4364760e-12 </wgt>
<wgt id='1699'> +1.3842898e-12 </wgt>
<wgt id='1700'> +1.4634509e-12 </wgt>
<wgt id='1701'> +1.4398171e-12 </wgt>
<wgt id='1702'> +1.3521985e-12 </wgt>
<wgt id='1703'> +1.4516211e-12 </wgt>
<wgt id='1704'> +1.4362474e-12 </wgt>
<wgt id='1705'> +1.5634791e-12 </wgt>
<wgt id='1706'> +1.3767372e-12 </wgt>
<wgt id='1707'> +1.4418189e-12 </wgt>
<wgt id='1708'> +1.3864947e-12 </wgt>
<wgt id='1709'> +1.4728964e-12 </wgt>
<wgt id='1710'> +1.4563087e-12 </wgt>
<wgt id='1711'> +1.5006634e-12 </wgt>
<wgt id='1712'> +1.4415754e-12 </wgt>
<wgt id='1713'> +1.3695982e-12 </wgt>
<wgt id='1714'> +1.3407971e-12 </wgt>
<wgt id='1715'> +1.3467422e-12 </wgt>
<wgt id='1716'> +1.3611886e-12 </wgt>
<wgt id='1717'> +1.3520696e-12 </wgt>
<wgt id='1718'> +1.3428980e-12 </wgt>
<wgt id='1719'> +1.3991127e-12 </wgt>
<wgt id='1720'> +1.3737961e-12 </wgt>
<wgt id='1721'> +1.3770075e-12 </wgt>
<wgt id='1722'> +1.3674670e-12 </wgt>
<wgt id='1723'> +1.3218697e-12 </wgt>
<wgt id='1724'> +1.3270510e-12 </wgt>
<wgt id='1725'> +1.3972572e-12 </wgt>
<wgt id='1726'> +1.3936248e-12 </wgt>
<wgt id='1727'> +1.3313962e-12 </wgt>
<wgt id='1728'> +1.3752983e-12 </wgt>
<wgt id='1729'> +1.3743716e-12 </wgt>
<wgt id='1730'> +1.3469422e-12 </wgt>
<wgt id='1731'> +1.3485602e-12 </wgt>
<wgt id='1732'> +1.3990807e-12 </wgt>
<wgt id='1733'> +1.3873979e-12 </wgt>
<wgt id='1734'> +1.3890556e-12 </wgt>
<wgt id='1735'> +1.3595965e-12 </wgt>
<wgt id='1736'> +1.4717950e-12 </wgt>
<wgt id='1737'> +1.3766819e-12 </wgt>
<wgt id='1738'> +1.3838946e-12 </wgt>
<wgt id='1739'> +1.3556234e-12 </wgt>
<wgt id='1740'> +1.3221005e-12 </wgt>
<wgt id='1741'> +1.3716583e-12 </wgt>
<wgt id='1742'> +1.3573569e-12 </wgt>
<wgt id='1743'> +1.3980548e-12 </wgt>
<wgt id='1744'> +1.3752428e-12 </wgt>
<wgt id='1745'> +1.3199562e-12 </wgt>
<wgt id='1746'> +1.3732340e-12 </wgt>
<wgt id='1747'> +1.3914870e-12 </wgt>
<wgt id='1748'> +1.3559656e-12 </wgt>
<wgt id='1749'> +1.4001161e-12 </wgt>
<wgt id='1750'> +1.3938867e-12 </wgt>
<wgt id='1751'> +1.3748437e-12 </wgt>
<wgt id='1752'> +1.3322467e-12 </wgt>
<wgt id='1753'> +1.3932605e-12 </wgt>
<wgt id='1754'> +1.3738563e-12 </wgt>
<wgt id='1755'> +1.3713643e-12 </wgt>
<wgt id='1756'> +1.3905268e-12 </wgt>
<wgt id='1757'> +1.3681481e-12 </wgt>
<wgt id='1758'> +1.3845317e-12 </wgt>
<wgt id='1759'> +1.3900035e-12 </wgt>
<wgt id='1760'> +1.3517693e-12 </wgt>
<wgt id='1761'> +1.3540959e-12 </wgt>
<wgt id='1762'> +1.3582097e-12 </wgt>
<wgt id='1763'> +1.3714640e-12 </wgt>
<wgt id='1764'> +1.3804984e-12 </wgt>
<wgt id='1765'> +1.3516525e-12 </wgt>
<wgt id='1766'> +1.4002624e-12 </wgt>
<wgt id='1767'> +1.3729896e-12 </wgt>
<wgt id='1768'> +1.3663006e-12 </wgt>
<wgt id='1769'> +1.3436000e-12 </wgt>
<wgt id='1770'> +1.4073186e-12 </wgt>
<wgt id='1771'> +1.3667356e-12 </wgt>
<wgt id='1772'> +1.3818235e-12 </wgt>
<wgt id='1773'> +1.3681141e-12 </wgt>
<wgt id='1774'> +1.3772527e-12 </wgt>
<wgt id='1775'> +1.3720205e-12 </wgt>
<wgt id='1776'> +1.3945859e-12 </wgt>
<wgt id='1777'> +1.3338465e-12 </wgt>
<wgt id='1778'> +1.3510319e-12 </wgt>
<wgt id='1779'> +1.3821777e-12 </wgt>
<wgt id='1780'> +1.4299323e-12 </wgt>
<wgt id='1781'> +1.3510503e-12 </wgt>
<wgt id='1782'> +1.3165364e-12 </wgt>
<wgt id='1783'> +1.3772612e-12 </wgt>
<wgt id='1784'> +1.3884050e-12 </wgt>
<wgt id='1785'> +1.3740614e-12 </wgt>
<wgt id='1786'> +1.2767274e-12 </wgt>
<wgt id='1787'> +1.3920646e-12 </wgt>
<wgt id='1788'> +1.3540224e-12 </wgt>
<wgt id='1789'> +1.3606411e-12 </wgt>
<wgt id='1790'> +1.3871740e-12 </wgt>
<wgt id='1791'> +1.4076652e-12 </wgt>
<wgt id='1792'> +1.3536067e-12 </wgt>
<wgt id='1793'> +1.3737161e-12 </wgt>
<wgt id='1794'> +1.3697848e-12 </wgt>
<wgt id='1795'> +1.3492673e-12 </wgt>
<wgt id='1796'> +1.3904596e-12 </wgt>
<wgt id='1797'> +1.3737850e-12 </wgt>
<wgt id='1798'> +1.3336643e-12 </wgt>
<wgt id='1799'> +1.3633946e-12 </wgt>
<wgt id='1800'> +1.3567583e-12 </wgt>
<wgt id='1801'> +1.3579181e-12 </wgt>
<wgt id='1802'> +1.4068252e-12 </wgt>
<wgt id='1803'> +1.3612903e-12 </wgt>
<wgt id='1804'> +1.3565405e-12 </wgt>
<wgt id='1805'> +1.3826183e-12 </wgt>
<wgt id='1806'> +1.3578605e-12 </wgt>
<wgt id='1807'> +1.3896801e-12 </wgt>
<wgt id='1808'> +1.3508929e-12 </wgt>
<wgt id='1809'> +1.3733107e-12 </wgt>
<wgt id='1810'> +1.3612182e-12 </wgt>
<wgt id='1811'> +1.4073989e-12 </wgt>
<wgt id='1812'> +1.3977839e-12 </wgt>
<wgt id='1813'> +1.3529263e-12 </wgt>
<wgt id='1814'> +1.3823487e-12 </wgt>
<wgt id='1815'> +1.6402156e-12 </wgt>
<wgt id='1816'> +1.3695982e-12 </wgt>
<wgt id='1817'> +1.3407971e-12 </wgt>
<wgt id='1818'> +1.3467422e-12 </wgt>
<wgt id='1819'> +1.3611886e-12 </wgt>
<wgt id='1820'> +1.3520696e-12 </wgt>
<wgt id='1821'> +1.3428980e-12 </wgt>
<wgt id='1822'> +1.3991127e-12 </wgt>
<wgt id='1823'> +1.3737961e-12 </wgt>
<wgt id='1824'> +1.3770075e-12 </wgt>
<wgt id='1825'> +1.3674670e-12 </wgt>
<wgt id='1826'> +1.3218697e-12 </wgt>
<wgt id='1827'> +1.3270510e-12 </wgt>
<wgt id='1828'> +1.3972572e-12 </wgt>
<wgt id='1829'> +1.3936248e-12 </wgt>
<wgt id='1830'> +1.3313962e-12 </wgt>
<wgt id='1831'> +1.3752983e-12 </wgt>
<wgt id='1832'> +1.3743716e-12 </wgt>
<wgt id='1833'> +1.3469422e-12 </wgt>
<wgt id='1834'> +1.3485602e-12 </wgt>
<wgt id='1835'> +1.3990807e-12 </wgt>
<wgt id='1836'> +1.3873979e-12 </wgt>
<wgt id='1837'> +1.3890556e-12 </wgt>
<wgt id='1838'> +1.3595965e-12 </wgt>
<wgt id='1839'> +1.4717950e-12 </wgt>
<wgt id='1840'> +1.3766819e-12 </wgt>
<wgt id='1841'> +1.3838946e-12 </wgt>
<wgt id='1842'> +1.3556234e-12 </wgt>
<wgt id='1843'> +1.3221005e-12 </wgt>
<wgt id='1844'> +1.3716583e-12 </wgt>
<wgt id='1845'> +1.3573569e-12 </wgt>
<wgt id='1846'> +1.3980548e-12 </wgt>
<wgt id='1847'> +1.3752428e-12 </wgt>
<wgt id='1848'> +1.3199562e-12 </wgt>
<wgt id='1849'> +1.3732340e-12 </wgt>
<wgt id='1850'> +1.3914870e-12 </wgt>
<wgt id='1851'> +1.3559656e-12 </wgt>
<wgt id='1852'> +1.4001161e-12 </wgt>
<wgt id='1853'> +1.3938867e-12 </wgt>
<wgt id='1854'> +1.3748437e-12 </wgt>
<wgt id='1855'> +1.3322467e-12 </wgt>
<wgt id='1856'> +1.3932605e-12 </wgt>
<wgt id='1857'> +1.3738563e-12 </wgt>
<wgt id='1858'> +1.3713643e-12 </wgt>
<wgt id='1859'> +1.3905268e-12 </wgt>
<wgt id='1860'> +1.3681481e-12 </wgt>
<wgt id='1861'> +1.3845317e-12 </wgt>
<wgt id='1862'> +1.3900035e-12 </wgt>
<wgt id='1863'> +1.3517693e-12 </wgt>
<wgt id='1864'> +1.3540959e-12 </wgt>
<wgt id='1865'> +1.3582097e-12 </wgt>
<wgt id='1866'> +1.3714640e-12 </wgt>
<wgt id='1867'> +1.3804984e-12 </wgt>
<wgt id='1868'> +1.3516525e-12 </wgt>
<wgt id='1869'> +1.4002624e-12 </wgt>
<wgt id='1870'> +1.3729896e-12 </wgt>
<wgt id='1871'> +1.3663006e-12 </wgt>
<wgt id='1872'> +1.3436000e-12 </wgt>
<wgt id='1873'> +1.4073186e-12 </wgt>
<wgt id='1874'> +1.3667356e-12 </wgt>
<wgt id='1875'> +1.3818235e-12 </wgt>
<wgt id='1876'> +1.3681141e-12 </wgt>
<wgt id='1877'> +1.3772527e-12 </wgt>
<wgt id='1878'> +1.3720205e-12 </wgt>
<wgt id='1879'> +1.3945859e-12 </wgt>
<wgt id='1880'> +1.3338465e-12 </wgt>
<wgt id='1881'> +1.3510319e-12 </wgt>
<wgt id='1882'> +1.3821777e-12 </wgt>
<wgt id='1883'> +1.4299323e-12 </wgt>
<wgt id='1884'> +1.3510503e-12 </wgt>
<wgt id='1885'> +1.3165364e-12 </wgt>
<wgt id='1886'> +1.3772612e-12 </wgt>
<wgt id='1887'> +1.3884050e-12 </wgt>
<wgt id='1888'> +1.3740614e-12 </wgt>
<wgt id='1889'> +1.2767274e-12 </wgt>
<wgt id='1890'> +1.3920646e-12 </wgt>
<wgt id='1891'> +1.3540224e-12 </wgt>
<wgt id='1892'> +1.3606411e-12 </wgt>
<wgt id='1893'> +1.3871740e-12 </wgt>
<wgt id='1894'> +1.4076652e-12 </wgt>
<wgt id='1895'> +1.3536067e-12 </wgt>
<wgt id='1896'> +1.3737161e-12 </wgt>
<wgt id='1897'> +1.3697848e-12 </wgt>
<wgt id='1898'> +1.3492673e-12 </wgt>
<wgt id='1899'> +1.3904596e-12 </wgt>
<wgt id='1900'> +1.3737850e-12 </wgt>
<wgt id='1901'> +1.3336643e-12 </wgt>
<wgt id='1902'> +1.3633946e-12 </wgt>
<wgt id='1903'> +1.3567583e-12 </wgt>
<wgt id='1904'> +1.3579181e-12 </wgt>
<wgt id='1905'> +1.4068252e-12 </wgt>
<wgt id='1906'> +1.3612903e-12 </wgt>
<wgt id='1907'> +1.3565405e-12 </wgt>
<wgt id='1908'> +1.3826183e-12 </wgt>
<wgt id='1909'> +1.3578605e-12 </wgt>
<wgt id='1910'> +1.3896801e-12 </wgt>
<wgt id='1911'> +1.3508929e-12 </wgt>
<wgt id='1912'> +1.3733107e-12 </wgt>
<wgt id='1913'> +1.3612182e-12 </wgt>
<wgt id='1914'> +1.4073989e-12 </wgt>
<wgt id='1915'> +1.3977839e-12 </wgt>
<wgt id='1916'> +1.3529263e-12 </wgt>
<wgt id='1917'> +1.3488550e-12 </wgt>
<wgt id='1918'> +1.3893914e-12 </wgt>
<wgt id='1919'> +1.3838800e-12 </wgt>
</rwgt>
</event>
<event>
 9      1 +1.5607000e-12 5.57428800e+01 7.81860800e-03 1.28547900e-01
       21 -1    0    0  501  502 +0.0000000000e+00 +0.0000000000e+00 +2.2542532464e-01 2.2542532464e-01 0.0000000000e+00 0.0000e+00 -1.0000e+00
        2 -1    0    0  502    0 -0.0000000000e+00 -0.0000000000e+00 -3.4460068511e+03 3.4460068511e+03 0.0000000000e+00 0.0000e+00 -1.0000e+00
     1023  2    1    2    0    0 -9.3577108834e+00 +2.1989362748e+01 -2.4574212293e+03 2.4575832099e+03 1.5001212692e+01 0.0000e+00 0.0000e+00
  1000023  2    3    3    0    0 -7.2064757433e+00 +1.1285470070e+01 -1.7517826819e+03 1.7518424921e+03 5.5006739003e+00 0.0000e+00 0.0000e+00
        2  1    1    2  501    0 +9.3577108834e+00 -2.1989362748e+01 -9.8836019640e+02 9.8864906649e+02 0.0000000000e+00 0.0000e+00 -1.0000e+00
  1000022  1    4    4    0    0 -6.1247096971e+00 +9.7076915060e+00 -1.4939957085e+03 1.4940481680e+03 5.0000000000e+00 0.0000e+00 -1.0000e+00
      -13  1    4    4    0    0 -5.5049563698e-01 +8.7559202329e-01 -1.2041251709e+02 1.2041700525e+02 1.0570000000e-01 0.0000e+00 1.0000e+00
       13  1    4    4    0    0 -5.3127040921e-01 +7.0218654058e-01 -1.3737445637e+02 1.3737731891e+02 1.0570000000e-01 0.0000e+00 -1.0000e+00
  1000022  1    3    3    0    0 -2.1512351401e+00 +1.0703892678e+01 -7.0563854739e+02 7.0574071775e+02 5.0000000000e+00 0.0000e+00 -1.0000e+00
<mgrwt>
<rscale>  1 0.55742882E+02</rscale>
<asrwt>0</asrwt>
<pdfrwt beam="1">  1       21 0.34680311E-04 0.55742882E+02</pdfrwt>
<pdfrwt beam="2">  1        2 0.53016267E+00 0.55742882E+02</pdfrwt>
<totfact> 0.52419711E+06</totfact>
</mgrwt>
<rwgt>
<wgt id='1001'> +1.5607000e-12 </wgt>
<wgt id='1002'> +1.5651926e-12 </wgt>
<wgt id='1003'> +1.5640326e-12 </wgt>
<wgt id='1004'> +1.5570724e-12 </wgt>
<wgt id='1005'> +1.5607000e-12 </wgt>
<wgt id='1006'> +1.3864014e-12 </wgt>
<wgt id='1007'> +1.3859327e-12 </wgt>
<wgt id='1008'> +1.3862679e-12 </wgt>
<wgt id='1009'> +1.3556489e-12 </wgt>
<wgt id='1010'> +1.3864014e-12 </wgt>
<wgt id='1011'> +1.7872801e-12 </wgt>
<wgt id='1012'> +1.8000930e-12 </wgt>
<wgt id='1013'> +1.7964179e-12 </wgt>
<wgt id='1014'> +1.8324171e-12 </wgt>
<wgt id='1015'> +1.7872801e-12 </wgt>
<wgt id='1016'> +1.7092207e-12 </wgt>
<wgt id='1017'> +1.7272422e-12 </wgt>
<wgt id='1018'> +1.7219021e-12 </wgt>
<wgt id='1019'> +1.7964179e-12 </wgt>
<wgt id='1020'> +1.7092207e-12 </wgt>
<wgt id='1021'> +1.5183353e-12 </wgt>
<wgt id='1022'> +1.5294229e-12 </wgt>
<wgt id='1023'> +1.5261943e-12 </wgt>
<wgt id='1024'> +1.5640326e-12 </wgt>
<wgt id='1025'> +1.5183353e-12 </wgt>
<wgt id='1026'> +1.9573629e-12 </wgt>
<wgt id='1027'> +1.9864625e-12 </wgt>
<wgt id='1028'> +1.9777437e-12 </wgt>
<wgt id='1029'> +2.1140872e-12 </wgt>
<wgt id='1030'> +1.9573629e-12 </wgt>
<wgt id='1031'> +1.3640769e-12 </wgt>
<wgt id='1032'> +1.3516502e-12 </wgt>
<wgt id='1033'> +1.3556489e-12 </wgt>
<wgt id='1034'> +1.2481174e-12 </wgt>
<wgt id='1035'> +1.3640769e-12 </wgt>
<wgt id='1036'> +1.2117371e-12 </wgt>
<wgt id='1037'> +1.1968471e-12 </wgt>
<wgt id='1038'> +1.2015687e-12 </wgt>
<wgt id='1039'> +1.0866605e-12 </wgt>
<wgt id='1040'> +1.2117371e-12 </wgt>
<wgt id='1041'> +1.5621116e-12 </wgt>
<wgt id='1042'> +1.5545026e-12 </wgt>
<wgt id='1043'> +1.5570724e-12 </wgt>
<wgt id='1044'> +1.4688281e-12 </wgt>
<wgt id='1045'> +1.5621116e-12 </wgt>
<wgt id='1046'> +1.5607000e-12 </wgt>
<wgt id='1047'> +1.6075177e-12 </wgt>
<wgt id='1048'> +1.6303222e-12 </wgt>
<wgt id='1049'> +1.4918546e-12 </wgt>
<wgt id='1050'> +1.5362987e-12 </wgt>
<wgt id='1051'> +1.6582345e-12 </wgt>
<wgt id='1052'> +1.5898383e-12 </wgt>
<wgt id='1053'> +1.5100450e-12 </wgt>
<wgt id='1054'> +1.6239900e-12 </wgt>
<wgt id='1055'> +1.5659316e-12 </wgt>
<wgt id='1056'> +1.5698710e-12 </wgt>
<wgt id='1057'> +1.4906069e-12 </wgt>
<wgt id='1058'> +1.5006376e-12 </wgt>
<wgt id='1059'> +1.6182685e-12 </wgt>
<wgt id='1060'> +1.6086262e-12 </wgt>
<wgt id='1061'> +1.5812127e-12 </wgt>
<wgt id='1062'> +1.5134866e-12 </wgt>
<wgt id='1063'> +1.3968658e-12 </wgt>
<wgt id='1064'> +1.5428807e-12 </wgt>
<wgt id='1065'> +1.5307889e-12 </wgt>
<wgt id='1066'> +1.5323435e-12 </wgt>
<wgt id='1067'> +1.7750555e-12 </wgt>
<wgt id='1068'> +1.6951243e-12 </wgt>
<wgt id='1069'> +1.5763677e-12 </wgt>
<wgt id='1070'> +1.5583489e-12 </wgt>
<wgt id='1071'> +1.6470602e-12 </wgt>
<wgt id='1072'> +1.6273442e-12 </wgt>
<wgt id='1073'> +1.5587722e-12 </wgt>
<wgt id='1074'> +1.5572566e-12 </wgt>
<wgt id='1075'> +1.4531705e-12 </wgt>
<wgt id='1076'> +1.4883985e-12 </wgt>
<wgt id='1077'> +1.6142600e-12 </wgt>
<wgt id='1078'> +1.4424446e-12 </wgt>
<wgt id='1079'> +1.6403971e-12 </wgt>
<wgt id='1080'> +1.5760595e-12 </wgt>
<wgt id='1081'> +1.5043632e-12 </wgt>
<wgt id='1082'> +1.5498479e-12 </wgt>
<wgt id='1083'> +1.5029673e-12 </wgt>
<wgt id='1084'> +1.4926603e-12 </wgt>
<wgt id='1085'> +1.4434881e-12 </wgt>
<wgt id='1086'> +1.6707654e-12 </wgt>
<wgt id='1087'> +1.5170642e-12 </wgt>
<wgt id='1088'> +1.5534781e-12 </wgt>
<wgt id='1089'> +1.5286891e-12 </wgt>
<wgt id='1090'> +1.5417358e-12 </wgt>
<wgt id='1091'> +1.5542136e-12 </wgt>
<wgt id='1092'> +1.5533422e-12 </wgt>
<wgt id='1093'> +1.6847726e-12 </wgt>
<wgt id='1094'> +1.5516209e-12 </wgt>
<wgt id='1095'> +1.5642223e-12 </wgt>
<wgt id='1096'> +1.5567044e-12 </wgt>
<wgt id='1097'> +1.7052113e-12 </wgt>
<wgt id='1098'> +1.5636188e-12 </wgt>
<wgt id='1099'> +1.5888504e-12 </wgt>
<wgt id='1100'> +1.7602708e-12 </wgt>
<wgt id='1101'> +1.6230585e-12 </wgt>
<wgt id='1102'> +1.4033039e-12 </wgt>
<wgt id='1103'> +1.4709307e-12 </wgt>
<wgt id='1104'> +1.6521736e-12 </wgt>
<wgt id='1105'> +1.4504588e-12 </wgt>
<wgt id='1106'> +1.6059062e-12 </wgt>
<wgt id='1107'> +1.6722942e-12 </wgt>
<wgt id='1108'> +1.5016605e-12 </wgt>
<wgt id='1109'> +1.5385305e-12 </wgt>
<wgt id='1110'> +1.5608526e-12 </wgt>
<wgt id='1111'> +1.6743838e-12 </wgt>
<wgt id='1112'> +1.5941690e-12 </wgt>
<wgt id='1113'> +1.7368869e-12 </wgt>
<wgt id='1114'> +1.6246099e-12 </wgt>
<wgt id='1115'> +1.6040910e-12 </wgt>
<wgt id='1116'> +1.6841761e-12 </wgt>
<wgt id='1117'> +1.5356900e-12 </wgt>
<wgt id='1118'> +1.5167505e-12 </wgt>
<wgt id='1119'> +1.5563134e-12 </wgt>
<wgt id='1120'> +1.5588712e-12 </wgt>
<wgt id='1121'> +1.4699994e-12 </wgt>
<wgt id='1122'> +1.6401886e-12 </wgt>
<wgt id='1123'> +1.5592157e-12 </wgt>
<wgt id='1124'> +1.5908840e-12 </wgt>
<wgt id='1125'> +1.6248084e-12 </wgt>
<wgt id='1126'> +1.4651983e-12 </wgt>
<wgt id='1127'> +1.5617558e-12 </wgt>
<wgt id='1128'> +1.5134866e-12 </wgt>
<wgt id='1129'> +1.5331772e-12 </wgt>
<wgt id='1130'> +1.5379581e-12 </wgt>
<wgt id='1131'> +1.5787380e-12 </wgt>
<wgt id='1132'> +1.3573474e-12 </wgt>
<wgt id='1133'> +1.5819877e-12 </wgt>
<wgt id='1134'> +1.3937754e-12 </wgt>
<wgt id='1135'> +1.4569661e-12 </wgt>
<wgt id='1136'> +1.4626408e-12 </wgt>
<wgt id='1137'> +1.5029296e-12 </wgt>
<wgt id='1138'> +1.4924051e-12 </wgt>
<wgt id='1139'> +1.5501108e-12 </wgt>
<wgt id='1140'> +1.6425090e-12 </wgt>
<wgt id='1141'> +1.5717117e-12 </wgt>
<wgt id='1142'> +1.5852648e-12 </wgt>
<wgt id='1143'> +1.4241930e-12 </wgt>
<wgt id='1144'> +1.5849175e-12 </wgt>
<wgt id='1145'> +1.5751773e-12 </wgt>
<wgt id='1146'> +1.5457304e-12 </wgt>
<wgt id='1147'> +1.6191857e-12 </wgt>
<wgt id='1148'> +1.6322823e-12 </wgt>
<wgt id='1149'> +1.4755898e-12 </wgt>
<wgt id='1150'> +1.6388937e-12 </wgt>
<wgt id='1151'> +2.6051090e-12 </wgt>
<wgt id='1152'> +3.7273418e-12 </wgt>
<wgt id='1153'> +3.7577927e-12 </wgt>
<wgt id='1154'> +3.7097128e-12 </wgt>
<wgt id='1155'> +3.7223749e-12 </wgt>
<wgt id='1156'> +3.7297451e-12 </wgt>
<wgt id='1157'> +3.7426456e-12 </wgt>
<wgt id='1158'> +3.7068655e-12 </wgt>
<wgt id='1159'> +3.7387700e-12 </wgt>
<wgt id='1160'> +3.7198991e-12 </wgt>
<wgt id='1161'> +3.7178763e-12 </wgt>
<wgt id='1162'> +3.7336581e-12 </wgt>
<wgt id='1163'> +3.7207747e-12 </wgt>
<wgt id='1164'> +3.7339263e-12 </wgt>
<wgt id='1165'> +3.7000528e-12 </wgt>
<wgt id='1166'> +3.7544671e-12 </wgt>
<wgt id='1167'> +3.7731076e-12 </wgt>
<wgt id='1168'> +3.6765747e-12 </wgt>
<wgt id='1169'> +3.7675324e-12 </wgt>
<wgt id='1170'> +3.6974630e-12 </wgt>
<wgt id='1171'> +3.7139443e-12 </wgt>
<wgt id='1172'> +3.7439113e-12 </wgt>
<wgt id='1173'> +3.6812099e-12 </wgt>
<wgt id='1174'> +3.7762100e-12 </wgt>
<wgt id='1175'> +3.7444321e-12 </wgt>
<wgt id='1176'> +3.7147224e-12 </wgt>
<wgt id='1177'> +3.7368083e-12 </wgt>
<wgt id='1178'> +3.7030193e-12 </wgt>
<wgt id='1179'> +3.7130745e-12 </wgt>
<wgt id='1180'> +3.7405021e-12 </wgt>
<wgt id='1181'> +3.7492987e-12 </wgt>
<wgt id='1182'> +3.7101015e-12 </wgt>
<wgt id='1183'> +3.7484555e-12 </wgt>
<wgt id='1184'> +3.7256811e-12 </wgt>
<wgt id='1185'> +3.7150317e-12 </wgt>
<wgt id='1186'> +3.7334924e-12 </wgt>
<wgt id='1187'> +3.7310354e-12 </wgt>
<wgt id='1188'> +3.7260440e-12 </wgt>
<wgt id='1189'> +3.7057779e-12 </wgt>
<wgt id='1190'> +3.6908656e-12 </wgt>
<wgt id='1191'> +3.7231395e-12 </wgt>
<wgt id='1192'> +3.7771915e-12 </wgt>
<wgt id='1193'> +1.6331604e-12 </wgt>
<wgt id='1194'> +1.5936639e-12 </wgt>
<wgt id='1195'> +1.6657587e-12 </wgt>
<wgt id='1196'> +1.6191994e-12 </wgt>
<wgt id='1197'> +1.6488847e-12 </wgt>
<wgt id='1198'> +1.6299039e-12 </wgt>
<wgt id='1199'> +1.6382532e-12 </wgt>
<wgt id='1200'> +1.6301562e-12 </wgt>
<wgt id='1201'> +1.6353558e-12 </wgt>
<wgt id='1202'> +1.6341685e-12 </wgt>
<wgt id='1203'> +1.6317746e-12 </wgt>
<wgt id='1204'> +1.6372809e-12 </wgt>
<wgt id='1205'> +1.6303734e-12 </wgt>
<wgt id='1206'> +1.6355422e-12 </wgt>
<wgt id='1207'> +1.6299047e-12 </wgt>
<wgt id='1208'> +1.6278040e-12 </wgt>
<wgt id='1209'> +1.6353008e-12 </wgt>
<wgt id='1210'> +1.6791723e-12 </wgt>
<wgt id='1211'> +1.6090492e-12 </wgt>
<wgt id='1212'> +1.6164062e-12 </wgt>
<wgt id='1213'> +1.6516178e-12 </wgt>
<wgt id='1214'> +1.6336992e-12 </wgt>
<wgt id='1215'> +1.6187156e-12 </wgt>
<wgt id='1216'> +1.6432335e-12 </wgt>
<wgt id='1217'> +1.6257579e-12 </wgt>
<wgt id='1218'> +1.6406043e-12 </wgt>
<wgt id='1219'> +1.6293347e-12 </wgt>
<wgt id='1220'> +1.6571452e-12 </wgt>
<wgt id='1221'> +1.6205569e-12 </wgt>
<wgt id='1222'> +1.6637415e-12 </wgt>
<wgt id='1223'> +1.5957850e-12 </wgt>
<wgt id='1224'> +1.6382498e-12 </wgt>
<wgt id='1225'> +1.6311892e-12 </wgt>
<wgt id='1226'> +1.6295905e-12 </wgt>
<wgt id='1227'> +1.6358927e-12 </wgt>
<wgt id='1228'> +1.6402763e-12 </wgt>
<wgt id='1229'> +1.6318636e-12 </wgt>
<wgt id='1230'> +1.6269093e-12 </wgt>
<wgt id='1231'> +1.6666323e-12 </wgt>
<wgt id='1232'> +1.6379351e-12 </wgt>
<wgt id='1233'> +1.6323285e-12 </wgt>
<wgt id='1234'> +1.6331604e-12 </wgt>
<wgt id='1235'> +1.6259814e-12 </wgt>
<wgt id='1236'> +1.6286230e-12 </wgt>
<wgt id='1237'> +1.6309808e-12 </wgt>
<wgt id='1238'> +1.6348855e-12 </wgt>
<wgt id='1239'> +1.6365643e-12 </wgt>
<wgt id='1240'> +1.6384908e-12 </wgt>
<wgt id='1241'> +1.4281891e-12 </wgt>
<wgt id='1242'> +1.4002871e-12 </wgt>
<wgt id='1243'> +1.4556144e-12 </wgt>
<wgt id='1244'> +1.4505858e-12 </wgt>
<wgt id='1245'> +1.4118362e-12 </wgt>
<wgt id='1246'> +1.4240876e-12 </wgt>
<wgt id='1247'> +1.4316787e-12 </wgt>
<wgt id='1248'> +1.4283596e-12 </wgt>
<wgt id='1249'> +1.4280178e-12 </wgt>
<wgt id='1250'> +1.4307078e-12 </wgt>
<wgt id='1251'> +1.4264731e-12 </wgt>
<wgt id='1252'> +1.4247636e-12 </wgt>
<wgt id='1253'> +1.4307952e-12 </wgt>
<wgt id='1254'> +1.4326464e-12 </wgt>
<wgt id='1255'> +1.4253350e-12 </wgt>
<wgt id='1256'> +1.4286488e-12 </wgt>
<wgt id='1257'> +1.4265618e-12 </wgt>
<wgt id='1258'> +1.4058256e-12 </wgt>
<wgt id='1259'> +1.4382711e-12 </wgt>
<wgt id='1260'> +1.4340058e-12 </wgt>
<wgt id='1261'> +1.4216808e-12 </wgt>
<wgt id='1262'> +1.4274494e-12 </wgt>
<wgt id='1263'> +1.4285895e-12 </wgt>
<wgt id='1264'> +1.4322292e-12 </wgt>
<wgt id='1265'> +1.4271896e-12 </wgt>
<wgt id='1266'> +1.3953830e-12 </wgt>
<wgt id='1267'> +1.4603222e-12 </wgt>
<wgt id='1268'> +1.4372422e-12 </wgt>
<wgt id='1269'> +1.4211524e-12 </wgt>
<wgt id='1270'> +1.4711599e-12 </wgt>
<wgt id='1271'> +1.4315829e-12 </wgt>
<wgt id='1272'> +1.4450414e-12 </wgt>
<wgt id='1273'> +1.4256898e-12 </wgt>
<wgt id='1274'> +1.4336904e-12 </wgt>
<wgt id='1275'> +1.4209226e-12 </wgt>
<wgt id='1276'> +1.4266578e-12 </wgt>
<wgt id='1277'> +1.4344539e-12 </wgt>
<wgt id='1278'> +1.4712926e-12 </wgt>
<wgt id='1279'> +1.4204890e-12 </wgt>
<wgt id='1280'> +1.4298840e-12 </wgt>
<wgt id='1281'> +1.4318339e-12 </wgt>
<wgt id='1282'> +1.4281891e-12 </wgt>
<wgt id='1283'> +1.4252739e-12 </wgt>
<wgt id='1284'> +1.4264656e-12 </wgt>
<wgt id='1285'> +1.4276316e-12 </wgt>
<wgt id='1286'> +1.4293380e-12 </wgt>
<wgt id='1287'> +1.4297240e-12 </wgt>
<wgt id='1288'> +1.4304687e-12 </wgt>
<wgt id='1289'> +1.7267413e-12 </wgt>
<wgt id='1290'> +1.7363068e-12 </wgt>
<wgt id='1291'> +1.7165210e-12 </wgt>
<wgt id='1292'> +1.7287502e-12 </wgt>
<wgt id='1293'> +1.7253024e-12 </wgt>
<wgt id='1294'> +1.6906762e-12 </wgt>
<wgt id='1295'> +1.7612455e-12 </wgt>
<wgt id='1296'> +1.7587599e-12 </wgt>
<wgt id='1297'> +1.6873791e-12 </wgt>
<wgt id='1298'> +1.7384734e-12 </wgt>
<wgt id='1299'> +1.7117417e-12 </wgt>
<wgt id='1300'> +1.7281629e-12 </wgt>
<wgt id='1301'> +1.7236978e-12 </wgt>
<wgt id='1302'> +1.7227736e-12 </wgt>
<wgt id='1303'> +1.7323344e-12 </wgt>
<wgt id='1304'> +1.7252021e-12 </wgt>
<wgt id='1305'> +1.7276465e-12 </wgt>
<wgt id='1306'> +1.7196300e-12 </wgt>
<wgt id='1307'> +1.7346547e-12 </wgt>
<wgt id='1308'> +1.7218760e-12 </wgt>
<wgt id='1309'> +1.7303894e-12 </wgt>
<wgt id='1310'> +1.7395543e-12 </wgt>
<wgt id='1311'> +1.7135491e-12 </wgt>
<wgt id='1312'> +1.7497519e-12 </wgt>
<wgt id='1313'> +1.7056364e-12 </wgt>
<wgt id='1314'> +1.7309016e-12 </wgt>
<wgt id='1315'> +1.7319309e-12 </wgt>
<wgt id='1316'> +1.7394428e-12 </wgt>
<wgt id='1317'> +1.7290601e-12 </wgt>
<wgt id='1318'> +1.7297695e-12 </wgt>
<wgt id='1319'> +1.7190953e-12 </wgt>
<wgt id='1320'> +1.7520128e-12 </wgt>
<wgt id='1321'> +1.7042903e-12 </wgt>
<wgt id='1322'> +1.7258818e-12 </wgt>
<wgt id='1323'> +1.7275996e-12 </wgt>
<wgt id='1324'> +1.7264861e-12 </wgt>
<wgt id='1325'> +1.7395963e-12 </wgt>
<wgt id='1326'> +1.7255901e-12 </wgt>
<wgt id='1327'> +1.7325732e-12 </wgt>
<wgt id='1328'> +1.7278972e-12 </wgt>
<wgt id='1329'> +1.7250928e-12 </wgt>
<wgt id='1330'> +1.7338383e-12 </wgt>
<wgt id='1331'> +1.7193333e-12 </wgt>
<wgt id='1332'> +1.7385341e-12 </wgt>
<wgt id='1333'> +1.7481344e-12 </wgt>
<wgt id='1334'> +1.7281593e-12 </wgt>
<wgt id='1335'> +1.7251067e-12 </wgt>
<wgt id='1336'> +1.7330960e-12 </wgt>
<wgt id='1337'> +1.7465024e-12 </wgt>
<wgt id='1338'> +1.7275149e-12 </wgt>
<wgt id='1339'> +1.7274568e-12 </wgt>
<wgt id='1340'> +1.7023574e-12 </wgt>
<wgt id='1341'> +1.7114892e-12 </wgt>
<wgt id='1342'> +1.6923856e-12 </wgt>
<wgt id='1343'> +1.7045321e-12 </wgt>
<wgt id='1344'> +1.7007501e-12 </wgt>
<wgt id='1345'> +1.6646244e-12 </wgt>
<wgt id='1346'> +1.7369402e-12 </wgt>
<wgt id='1347'> +1.7356935e-12 </wgt>
<wgt id='1348'> +1.6653969e-12 </wgt>
<wgt id='1349'> +1.7146954e-12 </wgt>
<wgt id='1350'> +1.6900491e-12 </wgt>
<wgt id='1351'> +1.7040746e-12 </wgt>
<wgt id='1352'> +1.6983115e-12 </wgt>
<wgt id='1353'> +1.6975905e-12 </wgt>
<wgt id='1354'> +1.7107992e-12 </wgt>
<wgt id='1355'> +1.7021193e-12 </wgt>
<wgt id='1356'> +1.7024009e-12 </wgt>
<wgt id='1357'> +1.6944727e-12 </wgt>
<wgt id='1358'> +1.7113246e-12 </wgt>
<wgt id='1359'> +1.6996456e-12 </wgt>
<wgt id='1360'> +1.7046519e-12 </wgt>
<wgt id='1361'> +1.7139327e-12 </wgt>
<wgt id='1362'> +1.6875042e-12 </wgt>
<wgt id='1363'> +1.7335376e-12 </wgt>
<wgt id='1364'> +1.6827501e-12 </wgt>
<wgt id='1365'> +1.6954886e-12 </wgt>
<wgt id='1366'> +1.7192838e-12 </wgt>
<wgt id='1367'> +1.7136670e-12 </wgt>
<wgt id='1368'> +1.7034867e-12 </wgt>
<wgt id='1369'> +1.7029339e-12 </wgt>
<wgt id='1370'> +1.6992239e-12 </wgt>
<wgt id='1371'> +1.7208257e-12 </wgt>
<wgt id='1372'> +1.6796352e-12 </wgt>
<wgt id='1373'> +1.6971072e-12 </wgt>
<wgt id='1374'> +1.7066485e-12 </wgt>
<wgt id='1375'> +1.7020224e-12 </wgt>
<wgt id='1376'> +1.7141455e-12 </wgt>
<wgt id='1377'> +1.7004173e-12 </wgt>
<wgt id='1378'> +1.7090857e-12 </wgt>
<wgt id='1379'> +1.7036624e-12 </wgt>
<wgt id='1380'> +1.7004648e-12 </wgt>
<wgt id='1381'> +1.7090036e-12 </wgt>
<wgt id='1382'> +1.6958084e-12 </wgt>
<wgt id='1383'> +1.7117216e-12 </wgt>
<wgt id='1384'> +1.7237503e-12 </wgt>
<wgt id='1385'> +1.7037799e-12 </wgt>
<wgt id='1386'> +1.7000079e-12 </wgt>
<wgt id='1387'> +1.7093604e-12 </wgt>
<wgt id='1388'> +1.7221717e-12 </wgt>
<wgt id='1389'> +1.7037055e-12 </wgt>
<wgt id='1390'> +1.7038574e-12 </wgt>
<wgt id='1391'> +1.6575727e-12 </wgt>
<wgt id='1392'> +1.6220797e-12 </wgt>
<wgt id='1393'> +1.6356098e-12 </wgt>
<wgt id='1394'> +1.6466214e-12 </wgt>
<wgt id='1395'> +1.6682508e-12 </wgt>
<wgt id='1396'> +1.6574593e-12 </wgt>
<wgt id='1397'> +1.6277784e-12 </wgt>
<wgt id='1398'> +1.6315127e-12 </wgt>
<wgt id='1399'> +1.6364725e-12 </wgt>
<wgt id='1400'> +1.6426158e-12 </wgt>
<wgt id='1401'> +1.6499287e-12 </wgt>
<wgt id='1402'> +1.6641279e-12 </wgt>
<wgt id='1403'> +1.6708600e-12 </wgt>
<wgt id='1404'> +1.6779504e-12 </wgt>
<wgt id='1405'> +1.6574593e-12 </wgt>
<wgt id='1406'> +1.6537602e-12 </wgt>
<wgt id='1407'> +1.6555443e-12 </wgt>
<wgt id='1408'> +1.6592530e-12 </wgt>
<wgt id='1409'> +1.6600400e-12 </wgt>
<wgt id='1410'> +1.4157888e-12 </wgt>
<wgt id='1411'> +1.4336148e-12 </wgt>
<wgt id='1412'> +1.3928707e-12 </wgt>
<wgt id='1413'> +1.3873251e-12 </wgt>
<wgt id='1414'> +1.4440341e-12 </wgt>
<wgt id='1415'> +1.4044852e-12 </wgt>
<wgt id='1416'> +1.4203213e-12 </wgt>
<wgt id='1417'> +1.4320567e-12 </wgt>
<wgt id='1418'> +1.3995838e-12 </wgt>
<wgt id='1419'> +1.4173553e-12 </wgt>
<wgt id='1420'> +1.4141605e-12 </wgt>
<wgt id='1421'> +1.4072466e-12 </wgt>
<wgt id='1422'> +1.4190838e-12 </wgt>
<wgt id='1423'> +1.4158978e-12 </wgt>
<wgt id='1424'> +1.4156457e-12 </wgt>
<wgt id='1425'> +1.4064523e-12 </wgt>
<wgt id='1426'> +1.4258014e-12 </wgt>
<wgt id='1427'> +1.4019899e-12 </wgt>
<wgt id='1428'> +1.4238756e-12 </wgt>
<wgt id='1429'> +1.4086191e-12 </wgt>
<wgt id='1430'> +1.4260836e-12 </wgt>
<wgt id='1431'> +1.4066188e-12 </wgt>
<wgt id='1432'> +1.4225209e-12 </wgt>
<wgt id='1433'> +1.4043856e-12 </wgt>
<wgt id='1434'> +1.4265031e-12 </wgt>
<wgt id='1435'> +1.4079030e-12 </wgt>
<wgt id='1436'> +1.4373633e-12 </wgt>
<wgt id='1437'> +1.4305520e-12 </wgt>
<wgt id='1438'> +1.4204245e-12 </wgt>
<wgt id='1439'> +1.4091226e-12 </wgt>
<wgt id='1440'> +1.4212791e-12 </wgt>
<wgt id='1441'> +1.4260714e-12 </wgt>
<wgt id='1442'> +1.3964981e-12 </wgt>
<wgt id='1443'> +1.4124484e-12 </wgt>
<wgt id='1444'> +1.4285033e-12 </wgt>
<wgt id='1445'> +1.4331226e-12 </wgt>
<wgt id='1446'> +1.4132197e-12 </wgt>
<wgt id='1447'> +1.4188199e-12 </wgt>
<wgt id='1448'> +1.4214925e-12 </wgt>
<wgt id='1449'> +1.4176859e-12 </wgt>
<wgt id='1450'> +1.4135708e-12 </wgt>
<wgt id='1451'> +1.4143833e-12 </wgt>
<wgt id='1452'> +1.4307999e-12 </wgt>
<wgt id='1453'> +1.4154100e-12 </wgt>
<wgt id='1454'> +1.4203909e-12 </wgt>
<wgt id='1455'> +1.4362005e-12 </wgt>
<wgt id='1456'> +1.4372160e-12 </wgt>
<wgt id='1457'> +1.4244641e-12 </wgt>
<wgt id='1458'> +1.4167329e-12 </wgt>
<wgt id='1459'> +1.4298693e-12 </wgt>
<wgt id='1460'> +1.4412143e-12 </wgt>
<wgt id='1461'> +1.4157888e-12 </wgt>
<wgt id='1462'> +1.4142460e-12 </wgt>
<wgt id='1463'> +1.4105083e-12 </wgt>
<wgt id='1464'> +1.4126864e-12 </wgt>
<wgt id='1465'> +1.3785559e-12 </wgt>
<wgt id='1466'> +1.3833916e-12 </wgt>
<wgt id='1467'> +1.3895439e-12 </wgt>
<wgt id='1468'> +1.4013960e-12 </wgt>
<wgt id='1469'> +1.4054383e-12 </wgt>
<wgt id='1470'> +1.4201956e-12 </wgt>
<wgt id='1471'> +1.4273437e-12 </wgt>
<wgt id='1472'> +1.4342796e-12 </wgt>
<wgt id='1473'> +1.4126864e-12 </wgt>
<wgt id='1474'> +1.4117073e-12 </wgt>
<wgt id='1475'> +1.4135656e-12 </wgt>
<wgt id='1476'> +1.4124677e-12 </wgt>
<wgt id='1477'> +1.4125217e-12 </wgt>
<wgt id='1478'> +1.5954653e-12 </wgt>
<wgt id='1479'> +1.5918398e-12 </wgt>
<wgt id='1480'> +1.5782125e-12 </wgt>
<wgt id='1481'> +1.6638561e-12 </wgt>
<wgt id='1482'> +1.5967885e-12 </wgt>
<wgt id='1483'> +1.5898731e-12 </wgt>
<wgt id='1484'> +1.5669076e-12 </wgt>
<wgt id='1485'> +1.5868805e-12 </wgt>
<wgt id='1486'> +1.5981437e-12 </wgt>
<wgt id='1487'> +1.5966844e-12 </wgt>
<wgt id='1488'> +1.5921901e-12 </wgt>
<wgt id='1489'> +1.6058077e-12 </wgt>
<wgt id='1490'> +1.5944789e-12 </wgt>
<wgt id='1491'> +1.5975816e-12 </wgt>
<wgt id='1492'> +1.6014203e-12 </wgt>
<wgt id='1493'> +1.5742209e-12 </wgt>
<wgt id='1494'> +1.5881785e-12 </wgt>
<wgt id='1495'> +1.5890666e-12 </wgt>
<wgt id='1496'> +1.5970942e-12 </wgt>
<wgt id='1497'> +1.5951730e-12 </wgt>
<wgt id='1498'> +1.5982755e-12 </wgt>
<wgt id='1499'> +1.5888946e-12 </wgt>
<wgt id='1500'> +1.5943738e-12 </wgt>
<wgt id='1501'> +1.6007902e-12 </wgt>
<wgt id='1502'> +1.5997507e-12 </wgt>
<wgt id='1503'> +1.5955489e-12 </wgt>
<wgt id='1504'> +1.5931061e-12 </wgt>
<wgt id='1505'> +1.5959664e-12 </wgt>
<wgt id='1506'> +1.5898449e-12 </wgt>
<wgt id='1507'> +1.5969526e-12 </wgt>
<wgt id='1508'> +1.5929401e-12 </wgt>
<wgt id='1509'> +1.4308121e-12 </wgt>
<wgt id='1510'> +1.4422275e-12 </wgt>
<wgt id='1511'> +1.4026996e-12 </wgt>
<wgt id='1512'> +1.4305170e-12 </wgt>
<wgt id='1513'> +1.4279540e-12 </wgt>
<wgt id='1514'> +1.4307462e-12 </wgt>
<wgt id='1515'> +1.4379705e-12 </wgt>
<wgt id='1516'> +1.4283411e-12 </wgt>
<wgt id='1517'> +1.4378224e-12 </wgt>
<wgt id='1518'> +1.4342510e-12 </wgt>
<wgt id='1519'> +1.4315906e-12 </wgt>
<wgt id='1520'> +1.4307506e-12 </wgt>
<wgt id='1521'> +1.4291925e-12 </wgt>
<wgt id='1522'> +1.4328529e-12 </wgt>
<wgt id='1523'> +1.4357008e-12 </wgt>
<wgt id='1524'> +1.4247139e-12 </wgt>
<wgt id='1525'> +1.4325033e-12 </wgt>
<wgt id='1526'> +1.4317166e-12 </wgt>
<wgt id='1527'> +1.4301075e-12 </wgt>
<wgt id='1528'> +1.4331304e-12 </wgt>
<wgt id='1529'> +1.4278505e-12 </wgt>
<wgt id='1530'> +1.4291123e-12 </wgt>
<wgt id='1531'> +1.4326007e-12 </wgt>
<wgt id='1532'> +1.4287984e-12 </wgt>
<wgt id='1533'> +1.4352509e-12 </wgt>
<wgt id='1534'> +1.4292502e-12 </wgt>
<wgt id='1535'> +1.4291501e-12 </wgt>
<wgt id='1536'> +1.4378464e-12 </wgt>
<wgt id='1537'> +1.4335148e-12 </wgt>
<wgt id='1538'> +1.4129606e-12 </wgt>
<wgt id='1539'> +1.4260959e-12 </wgt>
<wgt id='1540'> +1.4248577e-12 </wgt>
<wgt id='1541'> +1.4204362e-12 </wgt>
<wgt id='1542'> +1.4393721e-12 </wgt>
<wgt id='1543'> +1.4266063e-12 </wgt>
<wgt id='1544'> +1.4322244e-12 </wgt>
<wgt id='1545'> +1.4309396e-12 </wgt>
<wgt id='1546'> +1.4351779e-12 </wgt>
<wgt id='1547'> +1.4229023e-12 </wgt>
<wgt id='1548'> +1.4309780e-12 </wgt>
<wgt id='1549'> +1.4328861e-12 </wgt>
<wgt id='1550'> +1.4334248e-12 </wgt>
<wgt id='1551'> +1.4276611e-12 </wgt>
<wgt id='1552'> +1.4326004e-12 </wgt>
<wgt id='1553'> +1.4296003e-12 </wgt>
<wgt id='1554'> +1.4377776e-12 </wgt>
<wgt id='1555'> +1.4286370e-12 </wgt>
<wgt id='1556'> +1.4315361e-12 </wgt>
<wgt id='1557'> +1.4272305e-12 </wgt>
<wgt id='1558'> +1.4305118e-12 </wgt>
<wgt id='1559'> +1.4427891e-12 </wgt>
<wgt id='1560'> +1.4401298e-12 </wgt>
<wgt id='1561'> +1.4271550e-12 </wgt>
<wgt id='1562'> +1.4345696e-12 </wgt>
<wgt id='1563'> +1.4403699e-12 </wgt>
<wgt id='1564'> +1.4345208e-12 </wgt>
<wgt id='1565'> +1.4355276e-12 </wgt>
<wgt id='1566'> +1.4362886e-12 </wgt>
<wgt id='1567'> +1.4459153e-12 </wgt>
<wgt id='1568'> +1.4420730e-12 </wgt>
<wgt id='1569'> +1.4401257e-12 </wgt>
<wgt id='1570'> +1.4357366e-12 </wgt>
<wgt id='1571'> +1.4209869e-12 </wgt>
<wgt id='1572'> +1.4266665e-12 </wgt>
<wgt id='1573'> +1.4413115e-12 </wgt>
<wgt id='1574'> +1.4368090e-12 </wgt>
<wgt id='1575'> +1.4275002e-12 </wgt>
<wgt id='1576'> +1.4322293e-12 </wgt>
<wgt id='1577'> +1.4255299e-12 </wgt>
<wgt id='1578'> +1.4250490e-12 </wgt>
<wgt id='1579'> +1.4278685e-12 </wgt>
<wgt id='1580'> +1.4353003e-12 </wgt>
<wgt id='1581'> +1.4340130e-12 </wgt>
<wgt id='1582'> +1.4256052e-12 </wgt>
<wgt id='1583'> +1.4304987e-12 </wgt>
<wgt id='1584'> +1.4266583e-12 </wgt>
<wgt id='1585'> +1.4361605e-12 </wgt>
<wgt id='1586'> +1.4326315e-12 </wgt>
<wgt id='1587'> +1.4384140e-12 </wgt>
<wgt id='1588'> +1.4357072e-12 </wgt>
<wgt id='1589'> +1.4316604e-12 </wgt>
<wgt id='1590'> +1.4269899e-12 </wgt>
<wgt id='1591'> +1.4291966e-12 </wgt>
<wgt id='1592'> +1.4368613e-12 </wgt>
<wgt id='1593'> +1.4334844e-12 </wgt>
<wgt id='1594'> +1.4300823e-12 </wgt>
<wgt id='1595'> +1.4331299e-12 </wgt>
<wgt id='1596'> +1.4350927e-12 </wgt>
<wgt id='1597'> +1.4237800e-12 </wgt>
<wgt id='1598'> +1.4260768e-12 </wgt>
<wgt id='1599'> +1.4273367e-12 </wgt>
<wgt id='1600'> +1.4304150e-12 </wgt>
<wgt id='1601'> +1.4263080e-12 </wgt>
<wgt id='1602'> +1.4284939e-12 </wgt>
<wgt id='1603'> +1.4335639e-12 </wgt>
<wgt id='1604'> +1.4312807e-12 </wgt>
<wgt id='1605'> +1.4303983e-12 </wgt>
<wgt id='1606'> +1.4283690e-12 </wgt>
<wgt id='1607'> +1.4310732e-12 </wgt>
<wgt id='1608'> +1.4353294e-12 </wgt>
<wgt id='1609'> +1.4286589e-12 </wgt>
<wgt id='1610'> +1.4206948e-12 </wgt>
<wgt id='1611'> +1.4495813e-12 </wgt>
<wgt id='1612'> +1.5954709e-12 </wgt>
<wgt id='1613'> +1.4720958e-12 </wgt>
<wgt id='1614'> +1.5658228e-12 </wgt>
<wgt id='1615'> +1.4873959e-12 </wgt>
<wgt id='1616'> +1.4864275e-12 </wgt>
<wgt id='1617'> +1.5131502e-12 </wgt>
<wgt id='1618'> +1.5516154e-12 </wgt>
<wgt id='1619'> +1.5795244e-12 </wgt>
<wgt id='1620'> +1.5689393e-12 </wgt>
<wgt id='1621'> +1.6582165e-12 </wgt>
<wgt id='1622'> +1.5876013e-12 </wgt>
<wgt id='1623'> +1.6970941e-12 </wgt>
<wgt id='1624'> +1.6988957e-12 </wgt>
<wgt id='1625'> +1.4485896e-12 </wgt>
<wgt id='1626'> +1.5250479e-12 </wgt>
<wgt id='1627'> +1.7190980e-12 </wgt>
<wgt id='1628'> +1.5084411e-12 </wgt>
<wgt id='1629'> +1.5639678e-12 </wgt>
<wgt id='1630'> +1.6476856e-12 </wgt>
<wgt id='1631'> +1.5821977e-12 </wgt>
<wgt id='1632'> +1.5136919e-12 </wgt>
<wgt id='1633'> +1.4494970e-12 </wgt>
<wgt id='1634'> +1.7082042e-12 </wgt>
<wgt id='1635'> +1.6274323e-12 </wgt>
<wgt id='1636'> +1.5703966e-12 </wgt>
<wgt id='1637'> +1.6055067e-12 </wgt>
<wgt id='1638'> +1.6046784e-12 </wgt>
<wgt id='1639'> +1.5967180e-12 </wgt>
<wgt id='1640'> +1.6098993e-12 </wgt>
<wgt id='1641'> +1.5680998e-12 </wgt>
<wgt id='1642'> +1.5432692e-12 </wgt>
<wgt id='1643'> +1.4268368e-12 </wgt>
<wgt id='1644'> +1.5795299e-12 </wgt>
<wgt id='1645'> +1.5044166e-12 </wgt>
<wgt id='1646'> +1.5517390e-12 </wgt>
<wgt id='1647'> +1.6838821e-12 </wgt>
<wgt id='1648'> +1.5573419e-12 </wgt>
<wgt id='1649'> +1.6672386e-12 </wgt>
<wgt id='1650'> +1.5556665e-12 </wgt>
<wgt id='1651'> +1.7612937e-12 </wgt>
<wgt id='1652'> +1.5387518e-12 </wgt>
<wgt id='1653'> +1.5990997e-12 </wgt>
<wgt id='1654'> +1.6677546e-12 </wgt>
<wgt id='1655'> +1.7287165e-12 </wgt>
<wgt id='1656'> +1.5093206e-12 </wgt>
<wgt id='1657'> +1.6556830e-12 </wgt>
<wgt id='1658'> +1.4244950e-12 </wgt>
<wgt id='1659'> +1.6988957e-12 </wgt>
<wgt id='1660'> +1.5838988e-12 </wgt>
<wgt id='1661'> +1.8253347e-12 </wgt>
<wgt id='1662'> +1.6573979e-12 </wgt>
<wgt id='1663'> +1.6337556e-12 </wgt>
<wgt id='1664'> +1.6644614e-12 </wgt>
<wgt id='1665'> +1.6183128e-12 </wgt>
<wgt id='1666'> +1.5570505e-12 </wgt>
<wgt id='1667'> +1.6548771e-12 </wgt>
<wgt id='1668'> +1.7028353e-12 </wgt>
<wgt id='1669'> +1.7240340e-12 </wgt>
<wgt id='1670'> +1.5136335e-12 </wgt>
<wgt id='1671'> +1.6409234e-12 </wgt>
<wgt id='1672'> +1.6570836e-12 </wgt>
<wgt id='1673'> +1.6393627e-12 </wgt>
<wgt id='1674'> +1.5703626e-12 </wgt>
<wgt id='1675'> +1.5257472e-12 </wgt>
<wgt id='1676'> +1.5556293e-12 </wgt>
<wgt id='1677'> +1.6017827e-12 </wgt>
<wgt id='1678'> +1.5261857e-12 </wgt>
<wgt id='1679'> +1.5821872e-12 </wgt>
<wgt id='1680'> +1.5861530e-12 </wgt>
<wgt id='1681'> +1.6208918e-12 </wgt>
<wgt id='1682'> +1.6354046e-12 </wgt>
<wgt id='1683'> +1.6386215e-12 </wgt>
<wgt id='1684'> +1.7018321e-12 </wgt>
<wgt id='1685'> +1.6903808e-12 </wgt>
<wgt id='1686'> +1.5405016e-12 </wgt>
<wgt id='1687'> +1.5685926e-12 </wgt>
<wgt id='1688'> +1.4754465e-12 </wgt>
<wgt id='1689'> +1.6296500e-12 </wgt>
<wgt id='1690'> +1.6661322e-12 </wgt>
<wgt id='1691'> +1.4909032e-12 </wgt>
<wgt id='1692'> +1.5737768e-12 </wgt>
<wgt id='1693'> +1.5787032e-12 </wgt>
<wgt id='1694'> +1.4949646e-12 </wgt>
<wgt id='1695'> +1.6717597e-12 </wgt>
<wgt id='1696'> +1.6669376e-12 </wgt>
<wgt id='1697'> +1.5813414e-12 </wgt>
<wgt id='1698'> +1.5539978e-12 </wgt>
<wgt id='1699'> +1.6258655e-12 </wgt>
<wgt id='1700'> +1.4901552e-12 </wgt>
<wgt id='1701'> +1.5969249e-12 </wgt>
<wgt id='1702'> +1.5456147e-12 </wgt>
<wgt id='1703'> +1.6117312e-12 </wgt>
<wgt id='1704'> +1.4397855e-12 </wgt>
<wgt id='1705'> +1.5635305e-12 </wgt>
<wgt id='1706'> +1.6101179e-12 </wgt>
<wgt id='1707'> +1.6615124e-12 </wgt>
<wgt id='1708'> +1.7307240e-12 </wgt>
<wgt id='1709'> +1.6294275e-12 </wgt>
<wgt id='1710'> +1.6291709e-12 </wgt>
<wgt id='1711'> +1.5622590e-12 </wgt>
<wgt id='1712'> +1.6401479e-12 </wgt>
<wgt id='1713'> +1.5186686e-12 </wgt>
<wgt id='1714'> +1.5094592e-12 </wgt>
<wgt id='1715'> +1.4315821e-12 </wgt>
<wgt id='1716'> +1.5231185e-12 </wgt>
<wgt id='1717'> +1.5820467e-12 </wgt>
<wgt id='1718'> +1.5710405e-12 </wgt>
<wgt id='1719'> +1.5286239e-12 </wgt>
<wgt id='1720'> +1.4597471e-12 </wgt>
<wgt id='1721'> +1.4184791e-12 </wgt>
<wgt id='1722'> +1.5042970e-12 </wgt>
<wgt id='1723'> +1.6126621e-12 </wgt>
<wgt id='1724'> +1.4700105e-12 </wgt>
<wgt id='1725'> +1.5365567e-12 </wgt>
<wgt id='1726'> +1.4454621e-12 </wgt>
<wgt id='1727'> +1.6456236e-12 </wgt>
<wgt id='1728'> +1.4723710e-12 </wgt>
<wgt id='1729'> +1.4363023e-12 </wgt>
<wgt id='1730'> +1.4669360e-12 </wgt>
<wgt id='1731'> +1.4785367e-12 </wgt>
<wgt id='1732'> +1.5183177e-12 </wgt>
<wgt id='1733'> +1.4434174e-12 </wgt>
<wgt id='1734'> +1.5818033e-12 </wgt>
<wgt id='1735'> +1.6567437e-12 </wgt>
<wgt id='1736'> +1.5188896e-12 </wgt>
<wgt id='1737'> +1.6318078e-12 </wgt>
<wgt id='1738'> +1.4896897e-12 </wgt>
<wgt id='1739'> +1.5556279e-12 </wgt>
<wgt id='1740'> +1.4258295e-12 </wgt>
<wgt id='1741'> +1.6070879e-12 </wgt>
<wgt id='1742'> +1.4860709e-12 </wgt>
<wgt id='1743'> +1.4696189e-12 </wgt>
<wgt id='1744'> +1.5356907e-12 </wgt>
<wgt id='1745'> +1.5225762e-12 </wgt>
<wgt id='1746'> +1.4420441e-12 </wgt>
<wgt id='1747'> +1.6209691e-12 </wgt>
<wgt id='1748'> +1.5367942e-12 </wgt>
<wgt id='1749'> +1.5598464e-12 </wgt>
<wgt id='1750'> +1.5047591e-12 </wgt>
<wgt id='1751'> +1.5257110e-12 </wgt>
<wgt id='1752'> +1.5844964e-12 </wgt>
<wgt id='1753'> +1.5081740e-12 </wgt>
<wgt id='1754'> +1.5743749e-12 </wgt>
<wgt id='1755'> +1.4940833e-12 </wgt>
<wgt id='1756'> +1.5275133e-12 </wgt>
<wgt id='1757'> +1.5496358e-12 </wgt>
<wgt id='1758'> +1.6517463e-12 </wgt>
<wgt id='1759'> +1.5805092e-12 </wgt>
<wgt id='1760'> +1.5110926e-12 </wgt>
<wgt id='1761'> +1.5363103e-12 </wgt>
<wgt id='1762'> +1.4117119e-12 </wgt>
<wgt id='1763'> +1.5019834e-12 </wgt>
<wgt id='1764'> +1.6218557e-12 </wgt>
<wgt id='1765'> +1.4924717e-12 </wgt>
<wgt id='1766'> +1.5665951e-12 </wgt>
<wgt id='1767'> +1.4830353e-12 </wgt>
<wgt id='1768'> +1.5751144e-12 </wgt>
<wgt id='1769'> +1.5578164e-12 </wgt>
<wgt id='1770'> +1.5190293e-12 </wgt>
<wgt id='1771'> +1.5618687e-12 </wgt>
<wgt id='1772'> +1.4668889e-12 </wgt>
<wgt id='1773'> +1.5129899e-12 </wgt>
<wgt id='1774'> +1.4887274e-12 </wgt>
<wgt id='1775'> +1.4177498e-12 </wgt>
<wgt id='1776'> +1.7758087e-12 </wgt>
<wgt id='1777'> +1.4596280e-12 </wgt>
<wgt id='1778'> +1.6376354e-12 </wgt>
<wgt id='1779'> +1.5292437e-12 </wgt>
<wgt id='1780'> +1.5331867e-12 </wgt>
<wgt id='1781'> +1.5459915e-12 </wgt>
<wgt id='1782'> +1.5716160e-12 </wgt>
<wgt id='1783'> +1.5162212e-12 </wgt>
<wgt id='1784'> +1.5428667e-12 </wgt>
<wgt id='1785'> +1.4897375e-12 </wgt>
<wgt id='1786'> +1.5332029e-12 </wgt>
<wgt id='1787'> +1.6576095e-12 </wgt>
<wgt id='1788'> +1.4161782e-12 </wgt>
<wgt id='1789'> +1.5434346e-12 </wgt>
<wgt id='1790'> +1.5375330e-12 </wgt>
<wgt id='1791'> +1.4507895e-12 </wgt>
<wgt id='1792'> +1.4732927e-12 </wgt>
<wgt id='1793'> +1.4507962e-12 </wgt>
<wgt id='1794'> +1.5243805e-12 </wgt>
<wgt id='1795'> +1.4811324e-12 </wgt>
<wgt id='1796'> +1.4237848e-12 </wgt>
<wgt id='1797'> +1.5852180e-12 </wgt>
<wgt id='1798'> +1.4682984e-12 </wgt>
<wgt id='1799'> +1.5338440e-12 </wgt>
<wgt id='1800'> +1.5054153e-12 </wgt>
<wgt id='1801'> +1.4687270e-12 </wgt>
<wgt id='1802'> +1.4945486e-12 </wgt>
<wgt id='1803'> +1.5089029e-12 </wgt>
<wgt id='1804'> +1.5545823e-12 </wgt>
<wgt id='1805'> +1.4865926e-12 </wgt>
<wgt id='1806'> +1.5092279e-12 </wgt>
<wgt id='1807'> +1.4840919e-12 </wgt>
<wgt id='1808'> +1.4040440e-12 </wgt>
<wgt id='1809'> +1.4889820e-12 </wgt>
<wgt id='1810'> +1.5214261e-12 </wgt>
<wgt id='1811'> +1.5374778e-12 </wgt>
<wgt id='1812'> +1.4266903e-12 </wgt>
<wgt id='1813'> +1.3849875e-12 </wgt>
<wgt id='1814'> +2.5126783e-12 </wgt>
<wgt id='1815'> +3.1042276e-12 </wgt>
<wgt id='1816'> +1.5186686e-12 </wgt>
<wgt id='1817'> +1.5094592e-12 </wgt>
<wgt id='1818'> +1.4315821e-12 </wgt>
<wgt id='1819'> +1.5231185e-12 </wgt>
<wgt id='1820'> +1.5820467e-12 </wgt>
<wgt id='1821'> +1.5710405e-12 </wgt>
<wgt id='1822'> +1.5286239e-12 </wgt>
<wgt id='1823'> +1.4597471e-12 </wgt>
<wgt id='1824'> +1.4184791e-12 </wgt>
<wgt id='1825'> +1.5042970e-12 </wgt>
<wgt id='1826'> +1.6126621e-12 </wgt>
<wgt id='1827'> +1.4700105e-12 </wgt>
<wgt id='1828'> +1.5365567e-12 </wgt>
<wgt id='1829'> +1.4454621e-12 </wgt>
<wgt id='1830'> +1.6456236e-12 </wgt>
<wgt id='1831'> +1.4723710e-12 </wgt>
<wgt id='1832'> +1.4363023e-12 </wgt>
<wgt id='1833'> +1.4669360e-12 </wgt>
<wgt id='1834'> +1.4785367e-12 </wgt>
<wgt id='1835'> +1.5183177e-12 </wgt>
<wgt id='1836'> +1.4434174e-12 </wgt>
<wgt id='1837'> +1.5818033e-12 </wgt>
<wgt id='1838'> +1.6567437e-12 </wgt>
<wgt id='1839'> +1.5188896e-12 </wgt>
<wgt id='1840'> +1.6318078e-12 </wgt>
<wgt id='1841'> +1.4896897e-12 </wgt>
<wgt id='1842'> +1.5556279e-12 </wgt>
<wgt id='1843'> +1.4258295e-12 </wgt>
<wgt id='1844'> +1.6070879e-12 </wgt>
<wgt id='1845'> +1.4860709e-12 </wgt>
<wgt id='1846'> +1.4696189e-12 </wgt>
<wgt id='1847'> +1.5356907e-12 </wgt>
<wgt id='1848'> +1.5225762e-12 </wgt>
<wgt id='1849'> +1.4420441e-12 </wgt>
<wgt id='1850'> +1.6209691e-12 </wgt>
<wgt id='1851'> +1.5367942e-12 </wgt>
<wgt id='1852'> +1.5598464e-12 </wgt>
<wgt id='1853'> +1.5047591e-12 </wgt>
<wgt id='1854'> +1.5257110e-12 </wgt>
<wgt id='1855'> +1.5844964e-12 </wgt>
<wgt id='1856'> +1.5081740e-12 </wgt>
<wgt id='1857'> +1.5743749e-12 </wgt>
<wgt id='1858'> +1.4940833e-12 </wgt>
<wgt id='1859'> +1.5275133e-12 </wgt>
<wgt id='1860'> +1.5496358e-12 </wgt>
<wgt id='1861'> +1.6517463e-12 </wgt>
<wgt id='1862'> +1.5805092e-12 </wgt>
<wgt id='1863'> +1.5110926e-12 </wgt>
<wgt id='1864'> +1.5363103e-12 </wgt>
<wgt id='1865'> +1.4117119e-12 </wgt>
<wgt id='1866'> +1.5019834e-12 </wgt>
<wgt id='1867'> +1.6218557e-12 </wgt>
<wgt id='1868'> +1.4924717e-12 </wgt>
<wgt id='1869'> +1.5665951e-12 </wgt>
<wgt id='1870'> +1.4830353e-12 </wgt>
<wgt id='1871'> +1.5751144e-12 </wgt>
<wgt id='1872'> +1.5578164e-12 </wgt>
<wgt id='1873'> +1.5190293e-12 </wgt>
<wgt id='1874'> +1.5618687e-12 </wgt>
<wgt id='1875'> +1.4668889e-12 </wgt>
<wgt id='1876'> +1.5129899e-12 </wgt>
<wgt id='1877'> +1.4887274e-12 </wgt>
<wgt id='1878'> +1.4177498e-12 </wgt>
<wgt id='1879'> +1.7758087e-12 </wgt>
<wgt id='1880'> +1.4596280e-12 </wgt>
<wgt id='1881'> +1.6376354e-12 </wgt>
<wgt id='1882'> +1.5292437e-12 </wgt>
<wgt id='1883'> +1.5331867e-12 </wgt>
<wgt id='1884'> +1.5459915e-12 </wgt>
<wgt id='1885'> +1.5716160e-12 </wgt>
<wgt id='1886'> +1.5162212e-12 </wgt>
<wgt id='1887'> +1.5428667e-12 </wgt>
<wgt id='1888'> +1.4897375e-12 </wgt>
<wgt id='1889'> +1.5332029e-12 </wgt>
<wgt id='1890'> +1.6576095e-12 </wgt>
<wgt id='1891'> +1.4161782e-12 </wgt>
<wgt id='1892'> +1.5434346e-12 </wgt>
<wgt id='1893'> +1.5375330e-12 </wgt>
<wgt id='1894'> +1.4507895e-12 </wgt>
<wgt id='1895'> +1.4732927e-12 </wgt>
<wgt id='1896'> +1.4507962e-12 </wgt>
<wgt id='1897'> +1.5243805e-12 </wgt>
<wgt id='1898'> +1.4811324e-12 </wgt>
<wgt id='1899'> +1.4237848e-12 </wgt>
<wgt id='1900'> +1.5852180e-12 </wgt>
<wgt id='1901'> +1.4682984e-12 </wgt>
<wgt id='1902'> +1.5338440e-12 </wgt>
<wgt id='1903'> +1.5054153e-12 </wgt>
<wgt id='1904'> +1.4687270e-12 </wgt>
<wgt id='1905'> +1.4945486e-12 </wgt>
<wgt id='1906'> +1.5089029e-12 </wgt>
<wgt id='1907'> +1.5545823e-12 </wgt>
<wgt id='1908'> +1.4865926e-12 </wgt>
<wgt id='1909'> +1.5092279e-12 </wgt>
<wgt id='1910'> +1.4840919e-12 </wgt>
<wgt id='1911'> +1.4040440e-12 </wgt>
<wgt id='1912'> +1.4889820e-12 </wgt>
<wgt id='1913'> +1.5214261e-12 </wgt>
<wgt id='1914'> +1.5374778e-12 </wgt>
<wgt id='1915'> +1.4266903e-12 </wgt>
<wgt id='1916'> +1.3849875e-12 </wgt>
<wgt id='1917'> +1.5222072e-12 </wgt>
<wgt id='1918'> +1.5380157e-12 </wgt>
<wgt id='1919'> +1.3853736e-12 </wgt>
</rwgt>
</event>
<event>
 9      1 +1.5607000e-12 6.61302400e+01 7.81860800e-03 1.24672800e-01
        4 -1    0    0  502    0 -0.0000000000e+00 +0.0000000000e+00 +7.8377730622e+00 7.9653679497e+00 0.0000000000e+00 0.0000e+00 1.0000e+00
       21 -1    0    0  501  502 +0.0000000000e+00 -0.0000000000e+00 -1.3830137835e+02 1.3830137835e+02 1.4200000000e+00 0.0000e+00 1.0000e+00
     1023  2    1    2    0    0 -2.0446638377e+01 -2.1930973895e+01 -4.8340277095e+01 5.8829396898e+01 1.5002763507e+01 0.0000e+00 0.0000e+00
  1000023  2    3    3    0    0 -1.1398326013e+01 -1.6834573490e+01 -3.7484127793e+01 4.2995849241e+01 5.5007740455e+00 0.0000e+00 0.0000e+00
        4  1    1    2  501    0 +2.0446638377e+01 +2.1930973895e+01 -8.2123328193e+01 8.7437349402e+01 1.4200000000e+00 0.0000e+00 1.0000e+00
  1000022  1    4    4    0    0 -9.6171352791e+00 -1.4717845909e+01 -3.2582270379e+01 3.7359183907e+01 5.0000000000e+00 0.0000e+00 1.0000e+00
      -13  1    4    4    0    0 -4.2666435534e-01 -4.1561547364e-01 -1.0128864422e+00 1.1797839331e+00 1.0570000000e-01 0.0000e+00 -1.0000e+00
       13  1    4    4    0    0 -1.3545263788e+00 -1.7011121075e+00 -3.8889709720e+00 4.4568814012e+00 1.0570000000e-01 0.0000e+00 1.0000e+00
  1000022  1    3    3    0    0 -9.0483123641e+00 -5.0964004055e+00 -1.0856149303e+01 1.5833547657e+01 5.0000000000e+00 0.0000e+00 1.0000e+00
<mgrwt>
<rscale>  1 0.66130241E+02</rscale>
<asrwt>0</asrwt>
<pdfrwt beam="1">  1       21 0.21277139E-01 0.66130241E+02</pdfrwt>
<pdfrwt beam="2">  1        4 0.12161868E-02 0.66130241E+02</pdfrwt>
<totfact> 0.22059326E+06</totfact>
</mgrwt>
<rwgt>
<wgt id='1001'> +1.5607000e-12 </wgt>
<wgt id='1002'> +1.5561980e-12 </wgt>
<wgt id='1003'> +1.5573856e-12 </wgt>
<wgt id='1004'> +1.4894385e-12 </wgt>
<wgt id='1005'> +1.5607000e-12 </wgt>
<wgt id='1006'> +1.3913536e-12 </wgt>
<wgt id='1007'> +1.3852542e-12 </wgt>
<wgt id='1008'> +1.3868467e-12 </wgt>
<wgt id='1009'> +1.3047974e-12 </wgt>
<wgt id='1010'> +1.3913536e-12 </wgt>
<wgt id='1011'> +1.7789294e-12 </wgt>
<wgt id='1012'> +1.7773189e-12 </wgt>
<wgt id='1013'> +1.7777702e-12 </wgt>
<wgt id='1014'> +1.7379305e-12 </wgt>
<wgt id='1015'> +1.7789294e-12 </wgt>
<wgt id='1016'> +1.7763192e-12 </wgt>
<wgt id='1017'> +1.7778455e-12 </wgt>
<wgt id='1018'> +1.7774822e-12 </wgt>
<wgt id='1019'> +1.7777702e-12 </wgt>
<wgt id='1020'> +1.7763192e-12 </wgt>
<wgt id='1021'> +1.5835767e-12 </wgt>
<wgt id='1022'> +1.5825544e-12 </wgt>
<wgt id='1023'> +1.5828419e-12 </wgt>
<wgt id='1024'> +1.5573856e-12 </wgt>
<wgt id='1025'> +1.5835767e-12 </wgt>
<wgt id='1026'> +2.0246982e-12 </wgt>
<wgt id='1027'> +2.0304605e-12 </wgt>
<wgt id='1028'> +2.0290125e-12 </wgt>
<wgt id='1029'> +2.0743664e-12 </wgt>
<wgt id='1030'> +2.0246982e-12 </wgt>
<wgt id='1031'> +1.3132303e-12 </wgt>
<wgt id='1032'> +1.3018307e-12 </wgt>
<wgt id='1033'> +1.3047974e-12 </wgt>
<wgt id='1034'> +1.1617817e-12 </wgt>
<wgt id='1035'> +1.3132303e-12 </wgt>
<wgt id='1036'> +1.1707360e-12 </wgt>
<wgt id='1037'> +1.1588284e-12 </wgt>
<wgt id='1038'> +1.1619177e-12 </wgt>
<wgt id='1039'> +1.0177592e-12 </wgt>
<wgt id='1040'> +1.1707360e-12 </wgt>
<wgt id='1041'> +1.4968565e-12 </wgt>
<wgt id='1042'> +1.4868085e-12 </wgt>
<wgt id='1043'> +1.4894385e-12 </wgt>
<wgt id='1044'> +1.3556087e-12 </wgt>
<wgt id='1045'> +1.4968565e-12 </wgt>
<wgt id='1046'> +1.5607000e-12 </wgt>
<wgt id='1047'> +1.5279299e-12 </wgt>
<wgt id='1048'> +1.5797080e-12 </wgt>
<wgt id='1049'> +1.5608802e-12 </wgt>
<wgt id='1050'> +1.5567554e-12 </wgt>
<wgt id='1051'> +1.5543523e-12 </wgt>
<wgt id='1052'> +1.5171040e-12 </wgt>
<wgt id='1053'> +1.5735250e-12 </wgt>
<wgt id='1054'> +1.5780958e-12 </wgt>
<wgt id='1055'> +1.5947540e-12 </wgt>
<wgt id='1056'> +1.5841208e-12 </wgt>
<wgt id='1057'> +1.5591141e-12 </wgt>
<wgt id='1058'> +1.5387600e-12 </wgt>
<wgt id='1059'> +1.5565134e-12 </wgt>
<wgt id='1060'> +1.5437830e-12 </wgt>
<wgt id='1061'> +1.5907625e-12 </wgt>
<wgt id='1062'> +1.5858854e-12 </wgt>
<wgt id='1063'> +1.5980255e-12 </wgt>
<wgt id='1064'> +1.5532711e-12 </wgt>
<wgt id='1065'> +1.5545539e-12 </wgt>
<wgt id='1066'> +1.5864952e-12 </wgt>
<wgt id='1067'> +1.5631239e-12 </wgt>
<wgt id='1068'> +1.5826207e-12 </wgt>
<wgt id='1069'> +1.5768031e-12 </wgt>
<wgt id='1070'> +1.5637189e-12 </wgt>
<wgt id='1071'> +1.5522461e-12 </wgt>
<wgt id='1072'> +1.5824091e-12 </wgt>
<wgt id='1073'> +1.5642897e-12 </wgt>
<wgt id='1074'> +1.5250076e-12 </wgt>
<wgt id='1075'> +1.5574495e-12 </wgt>
<wgt id='1076'> +1.5790423e-12 </wgt>
<wgt id='1077'> +1.5876149e-12 </wgt>
<wgt id='1078'> +1.5628009e-12 </wgt>
<wgt id='1079'> +1.5258401e-12 </wgt>
<wgt id='1080'> +1.5333672e-12 </wgt>
<wgt id='1081'> +1.5817166e-12 </wgt>
<wgt id='1082'> +1.5448776e-12 </wgt>
<wgt id='1083'> +1.5763985e-12 </wgt>
<wgt id='1084'> +1.5416441e-12 </wgt>
<wgt id='1085'> +1.5522572e-12 </wgt>
<wgt id='1086'> +1.5547155e-12 </wgt>
<wgt id='1087'> +1.5438919e-12 </wgt>
<wgt id='1088'> +1.5071026e-12 </wgt>
<wgt id='1089'> +1.5409478e-12 </wgt>
<wgt id='1090'> +1.5124346e-12 </wgt>
<wgt id='1091'> +1.5514062e-12 </wgt>
<wgt id='1092'> +1.5632620e-12 </wgt>
<wgt id='1093'> +1.4987933e-12 </wgt>
<wgt id='1094'> +1.5660758e-12 </wgt>
<wgt id='1095'> +1.5656952e-12 </wgt>
<wgt id='1096'> +1.5712364e-12 </wgt>
<wgt id='1097'> +1.5407977e-12 </wgt>
<wgt id='1098'> +1.5845047e-12 </wgt>
<wgt id='1099'> +1.5495803e-12 </wgt>
<wgt id='1100'> +1.5562373e-12 </wgt>
<wgt id='1101'> +1.5383747e-12 </wgt>
<wgt id='1102'> +1.5514941e-12 </wgt>
<wgt id='1103'> +1.5766425e-12 </wgt>
<wgt id='1104'> +1.5596326e-12 </wgt>
<wgt id='1105'> +1.5772846e-12 </wgt>
<wgt id='1106'> +1.5771330e-12 </wgt>
<wgt id='1107'> +1.5671289e-12 </wgt>
<wgt id='1108'> +1.5696308e-12 </wgt>
<wgt id='1109'> +1.5229131e-12 </wgt>
<wgt id='1110'> +1.5540382e-12 </wgt>
<wgt id='1111'> +1.5502335e-12 </wgt>
<wgt id='1112'> +1.5395189e-12 </wgt>
<wgt id='1113'> +1.5147850e-12 </wgt>
<wgt id='1114'> +1.6049421e-12 </wgt>
<wgt id='1115'> +1.5443752e-12 </wgt>
<wgt id='1116'> +1.5788881e-12 </wgt>
<wgt id='1117'> +1.6005121e-12 </wgt>
<wgt id='1118'> +1.5878151e-12 </wgt>
<wgt id='1119'> +1.6025246e-12 </wgt>
<wgt id='1120'> +1.5985434e-12 </wgt>
<wgt id='1121'> +1.5621016e-12 </wgt>
<wgt id='1122'> +1.5345253e-12 </wgt>
<wgt id='1123'> +1.5873905e-12 </wgt>
<wgt id='1124'> +1.5552518e-12 </wgt>
<wgt id='1125'> +1.5577870e-12 </wgt>
<wgt id='1126'> +1.5331400e-12 </wgt>
<wgt id='1127'> +1.5399882e-12 </wgt>
<wgt id='1128'> +1.5858854e-12 </wgt>
<wgt id='1129'> +1.5352080e-12 </wgt>
<wgt id='1130'> +1.5872264e-12 </wgt>
<wgt id='1131'> +1.5961302e-12 </wgt>
<wgt id='1132'> +1.5094254e-12 </wgt>
<wgt id='1133'> +1.5369040e-12 </wgt>
<wgt id='1134'> +1.5523095e-12 </wgt>
<wgt id='1135'> +1.6040090e-12 </wgt>
<wgt id='1136'> +1.5324296e-12 </wgt>
<wgt id='1137'> +1.5281507e-12 </wgt>
<wgt id='1138'> +1.5655622e-12 </wgt>
<wgt id='1139'> +1.5799582e-12 </wgt>
<wgt id='1140'> +1.5629468e-12 </wgt>
<wgt id='1141'> +1.5540859e-12 </wgt>
<wgt id='1142'> +1.5454482e-12 </wgt>
<wgt id='1143'> +1.5432764e-12 </wgt>
<wgt id='1144'> +1.5979754e-12 </wgt>
<wgt id='1145'> +1.6041250e-12 </wgt>
<wgt id='1146'> +1.6073607e-12 </wgt>
<wgt id='1147'> +1.2505967e-12 </wgt>
<wgt id='1148'> +1.2835559e-12 </wgt>
<wgt id='1149'> +1.2530990e-12 </wgt>
<wgt id='1150'> +1.2676537e-12 </wgt>
<wgt id='1151'> +9.9944160e-13 </wgt>
<wgt id='1152'> +1.4342158e-12 </wgt>
<wgt id='1153'> +1.4283894e-12 </wgt>
<wgt id='1154'> +1.4376056e-12 </wgt>
<wgt id='1155'> +1.4348187e-12 </wgt>
<wgt id='1156'> +1.4339216e-12 </wgt>
<wgt id='1157'> +1.4313813e-12 </wgt>
<wgt id='1158'> +1.4379713e-12 </wgt>
<wgt id='1159'> +1.4318348e-12 </wgt>
<wgt id='1160'> +1.4357544e-12 </wgt>
<wgt id='1161'> +1.4271739e-12 </wgt>
<wgt id='1162'> +1.4390400e-12 </wgt>
<wgt id='1163'> +1.4377789e-12 </wgt>
<wgt id='1164'> +1.4306403e-12 </wgt>
<wgt id='1165'> +1.4214489e-12 </wgt>
<wgt id='1166'> +1.4465904e-12 </wgt>
<wgt id='1167'> +1.4458092e-12 </wgt>
<wgt id='1168'> +1.4182463e-12 </wgt>
<wgt id='1169'> +1.4384854e-12 </wgt>
<wgt id='1170'> +1.4309671e-12 </wgt>
<wgt id='1171'> +1.4320873e-12 </wgt>
<wgt id='1172'> +1.4368345e-12 </wgt>
<wgt id='1173'> +1.4258746e-12 </wgt>
<wgt id='1174'> +1.4422103e-12 </wgt>
<wgt id='1175'> +1.4360196e-12 </wgt>
<wgt id='1176'> +1.4319016e-12 </wgt>
<wgt id='1177'> +1.4347068e-12 </wgt>
<wgt id='1178'> +1.4331205e-12 </wgt>
<wgt id='1179'> +1.4435609e-12 </wgt>
<wgt id='1180'> +1.4198193e-12 </wgt>
<wgt id='1181'> +1.4298584e-12 </wgt>
<wgt id='1182'> +1.4383061e-12 </wgt>
<wgt id='1183'> +1.4337672e-12 </wgt>
<wgt id='1184'> +1.4342994e-12 </wgt>
<wgt id='1185'> +1.4344962e-12 </wgt>
<wgt id='1186'> +1.4341440e-12 </wgt>
<wgt id='1187'> +1.4336025e-12 </wgt>
<wgt id='1188'> +1.4343743e-12 </wgt>
<wgt id='1189'> +1.4321195e-12 </wgt>
<wgt id='1190'> +1.4180690e-12 </wgt>
<wgt id='1191'> +1.4246769e-12 </wgt>
<wgt id='1192'> +1.4403965e-12 </wgt>
<wgt id='1193'> +1.2985290e-12 </wgt>
<wgt id='1194'> +1.2955283e-12 </wgt>
<wgt id='1195'> +1.3008673e-12 </wgt>
<wgt id='1196'> +1.3004028e-12 </wgt>
<wgt id='1197'> +1.2963699e-12 </wgt>
<wgt id='1198'> +1.3010379e-12 </wgt>
<wgt id='1199'> +1.2947385e-12 </wgt>
<wgt id='1200'> +1.2999811e-12 </wgt>
<wgt id='1201'> +1.2976284e-12 </wgt>
<wgt id='1202'> +1.2950484e-12 </wgt>
<wgt id='1203'> +1.3034954e-12 </wgt>
<wgt id='1204'> +1.2782018e-12 </wgt>
<wgt id='1205'> +1.3111031e-12 </wgt>
<wgt id='1206'> +1.3041662e-12 </wgt>
<wgt id='1207'> +1.2907755e-12 </wgt>
<wgt id='1208'> +1.2913922e-12 </wgt>
<wgt id='1209'> +1.3012190e-12 </wgt>
<wgt id='1210'> +1.2975344e-12 </wgt>
<wgt id='1211'> +1.2909779e-12 </wgt>
<wgt id='1212'> +1.2966656e-12 </wgt>
<wgt id='1213'> +1.3001922e-12 </wgt>
<wgt id='1214'> +1.2886375e-12 </wgt>
<wgt id='1215'> +1.3129052e-12 </wgt>
<wgt id='1216'> +1.3048969e-12 </wgt>
<wgt id='1217'> +1.2940031e-12 </wgt>
<wgt id='1218'> +1.3052556e-12 </wgt>
<wgt id='1219'> +1.2950572e-12 </wgt>
<wgt id='1220'> +1.3034361e-12 </wgt>
<wgt id='1221'> +1.2977072e-12 </wgt>
<wgt id='1222'> +1.3001164e-12 </wgt>
<wgt id='1223'> +1.2990185e-12 </wgt>
<wgt id='1224'> +1.2997463e-12 </wgt>
<wgt id='1225'> +1.2979794e-12 </wgt>
<wgt id='1226'> +1.2987563e-12 </wgt>
<wgt id='1227'> +1.2984154e-12 </wgt>
<wgt id='1228'> +1.2944052e-12 </wgt>
<wgt id='1229'> +1.3002901e-12 </wgt>
<wgt id='1230'> +1.3026928e-12 </wgt>
<wgt id='1231'> +1.2861525e-12 </wgt>
<wgt id='1232'> +1.2958975e-12 </wgt>
<wgt id='1233'> +1.2992461e-12 </wgt>
<wgt id='1234'> +1.2985290e-12 </wgt>
<wgt id='1235'> +1.2887931e-12 </wgt>
<wgt id='1236'> +1.2924100e-12 </wgt>
<wgt id='1237'> +1.2956928e-12 </wgt>
<wgt id='1238'> +1.3014306e-12 </wgt>
<wgt id='1239'> +1.3037704e-12 </wgt>
<wgt id='1240'> +1.3059773e-12 </wgt>
<wgt id='1241'> +1.2394493e-12 </wgt>
<wgt id='1242'> +1.2324464e-12 </wgt>
<wgt id='1243'> +1.2462831e-12 </wgt>
<wgt id='1244'> +1.2343080e-12 </wgt>
<wgt id='1245'> +1.2432214e-12 </wgt>
<wgt id='1246'> +1.2407631e-12 </wgt>
<wgt id='1247'> +1.2383349e-12 </wgt>
<wgt id='1248'> +1.2392827e-12 </wgt>
<wgt id='1249'> +1.2395175e-12 </wgt>
<wgt id='1250'> +1.2357534e-12 </wgt>
<wgt id='1251'> +1.2420810e-12 </wgt>
<wgt id='1252'> +1.2365206e-12 </wgt>
<wgt id='1253'> +1.2416711e-12 </wgt>
<wgt id='1254'> +1.2210522e-12 </wgt>
<wgt id='1255'> +1.2504869e-12 </wgt>
<wgt id='1256'> +1.2442404e-12 </wgt>
<wgt id='1257'> +1.2273434e-12 </wgt>
<wgt id='1258'> +1.2508137e-12 </wgt>
<wgt id='1259'> +1.2276173e-12 </wgt>
<wgt id='1260'> +1.2435587e-12 </wgt>
<wgt id='1261'> +1.2348122e-12 </wgt>
<wgt id='1262'> +1.2420737e-12 </wgt>
<wgt id='1263'> +1.2381580e-12 </wgt>
<wgt id='1264'> +1.2495496e-12 </wgt>
<wgt id='1265'> +1.2345404e-12 </wgt>
<wgt id='1266'> +1.2339952e-12 </wgt>
<wgt id='1267'> +1.2456329e-12 </wgt>
<wgt id='1268'> +1.2403177e-12 </wgt>
<wgt id='1269'> +1.2422936e-12 </wgt>
<wgt id='1270'> +1.2328553e-12 </wgt>
<wgt id='1271'> +1.2357634e-12 </wgt>
<wgt id='1272'> +1.2396574e-12 </wgt>
<wgt id='1273'> +1.2389851e-12 </wgt>
<wgt id='1274'> +1.2397351e-12 </wgt>
<wgt id='1275'> +1.2379619e-12 </wgt>
<wgt id='1276'> +1.2403662e-12 </wgt>
<wgt id='1277'> +1.2375908e-12 </wgt>
<wgt id='1278'> +1.2368984e-12 </wgt>
<wgt id='1279'> +1.2400042e-12 </wgt>
<wgt id='1280'> +1.2401180e-12 </wgt>
<wgt id='1281'> +1.2369525e-12 </wgt>
<wgt id='1282'> +1.2394493e-12 </wgt>
<wgt id='1283'> +1.2295563e-12 </wgt>
<wgt id='1284'> +1.2334530e-12 </wgt>
<wgt id='1285'> +1.2367867e-12 </wgt>
<wgt id='1286'> +1.2423295e-12 </wgt>
<wgt id='1287'> +1.2445034e-12 </wgt>
<wgt id='1288'> +1.2463880e-12 </wgt>
<wgt id='1289'> +1.3487783e-12 </wgt>
<wgt id='1290'> +1.3508106e-12 </wgt>
<wgt id='1291'> +1.3466609e-12 </wgt>
<wgt id='1292'> +1.3497124e-12 </wgt>
<wgt id='1293'> +1.3481545e-12 </wgt>
<wgt id='1294'> +1.3476031e-12 </wgt>
<wgt id='1295'> +1.3499810e-12 </wgt>
<wgt id='1296'> +1.3446474e-12 </wgt>
<wgt id='1297'> +1.3539941e-12 </wgt>
<wgt id='1298'> +1.3576004e-12 </wgt>
<wgt id='1299'> +1.3378963e-12 </wgt>
<wgt id='1300'> +1.3529643e-12 </wgt>
<wgt id='1301'> +1.3402892e-12 </wgt>
<wgt id='1302'> +1.3474281e-12 </wgt>
<wgt id='1303'> +1.3507190e-12 </wgt>
<wgt id='1304'> +1.3440949e-12 </wgt>
<wgt id='1305'> +1.3519733e-12 </wgt>
<wgt id='1306'> +1.3397133e-12 </wgt>
<wgt id='1307'> +1.3590773e-12 </wgt>
<wgt id='1308'> +1.3482971e-12 </wgt>
<wgt id='1309'> +1.3491422e-12 </wgt>
<wgt id='1310'> +1.3456285e-12 </wgt>
<wgt id='1311'> +1.3522874e-12 </wgt>
<wgt id='1312'> +1.3406695e-12 </wgt>
<wgt id='1313'> +1.3572162e-12 </wgt>
<wgt id='1314'> +1.3530223e-12 </wgt>
<wgt id='1315'> +1.3378522e-12 </wgt>
<wgt id='1316'> +1.3547506e-12 </wgt>
<wgt id='1317'> +1.3495430e-12 </wgt>
<wgt id='1318'> +1.3600004e-12 </wgt>
<wgt id='1319'> +1.3354573e-12 </wgt>
<wgt id='1320'> +1.3551618e-12 </wgt>
<wgt id='1321'> +1.3425880e-12 </wgt>
<wgt id='1322'> +1.3501919e-12 </wgt>
<wgt id='1323'> +1.3467069e-12 </wgt>
<wgt id='1324'> +1.3479590e-12 </wgt>
<wgt id='1325'> +1.3547941e-12 </wgt>
<wgt id='1326'> +1.3518945e-12 </wgt>
<wgt id='1327'> +1.3484543e-12 </wgt>
<wgt id='1328'> +1.3476027e-12 </wgt>
<wgt id='1329'> +1.3497303e-12 </wgt>
<wgt id='1330'> +1.3473881e-12 </wgt>
<wgt id='1331'> +1.3509210e-12 </wgt>
<wgt id='1332'> +1.3744316e-12 </wgt>
<wgt id='1333'> +1.3394885e-12 </wgt>
<wgt id='1334'> +1.3471870e-12 </wgt>
<wgt id='1335'> +1.3533029e-12 </wgt>
<wgt id='1336'> +1.3472420e-12 </wgt>
<wgt id='1337'> +1.3451876e-12 </wgt>
<wgt id='1338'> +1.3484598e-12 </wgt>
<wgt id='1339'> +1.3487878e-12 </wgt>
<wgt id='1340'> +1.3217637e-12 </wgt>
<wgt id='1341'> +1.3238156e-12 </wgt>
<wgt id='1342'> +1.3196241e-12 </wgt>
<wgt id='1343'> +1.3228163e-12 </wgt>
<wgt id='1344'> +1.3211505e-12 </wgt>
<wgt id='1345'> +1.3205057e-12 </wgt>
<wgt id='1346'> +1.3229985e-12 </wgt>
<wgt id='1347'> +1.3175870e-12 </wgt>
<wgt id='1348'> +1.3264767e-12 </wgt>
<wgt id='1349'> +1.3299758e-12 </wgt>
<wgt id='1350'> +1.3138307e-12 </wgt>
<wgt id='1351'> +1.3260466e-12 </wgt>
<wgt id='1352'> +1.3125316e-12 </wgt>
<wgt id='1353'> +1.3196218e-12 </wgt>
<wgt id='1354'> +1.3256546e-12 </wgt>
<wgt id='1355'> +1.3170947e-12 </wgt>
<wgt id='1356'> +1.3244688e-12 </wgt>
<wgt id='1357'> +1.3120997e-12 </wgt>
<wgt id='1358'> +1.3333025e-12 </wgt>
<wgt id='1359'> +1.3234762e-12 </wgt>
<wgt id='1360'> +1.3204118e-12 </wgt>
<wgt id='1361'> +1.3186372e-12 </wgt>
<wgt id='1362'> +1.3261126e-12 </wgt>
<wgt id='1363'> +1.3109453e-12 </wgt>
<wgt id='1364'> +1.3296301e-12 </wgt>
<wgt id='1365'> +1.3128485e-12 </wgt>
<wgt id='1366'> +1.3241127e-12 </wgt>
<wgt id='1367'> +1.3271740e-12 </wgt>
<wgt id='1368'> +1.3221077e-12 </wgt>
<wgt id='1369'> +1.3314227e-12 </wgt>
<wgt id='1370'> +1.3104872e-12 </wgt>
<wgt id='1371'> +1.3275616e-12 </wgt>
<wgt id='1372'> +1.3143892e-12 </wgt>
<wgt id='1373'> +1.3229329e-12 </wgt>
<wgt id='1374'> +1.3203236e-12 </wgt>
<wgt id='1375'> +1.3208806e-12 </wgt>
<wgt id='1376'> +1.3282250e-12 </wgt>
<wgt id='1377'> +1.3248223e-12 </wgt>
<wgt id='1378'> +1.3220577e-12 </wgt>
<wgt id='1379'> +1.3205784e-12 </wgt>
<wgt id='1380'> +1.3230738e-12 </wgt>
<wgt id='1381'> +1.3215926e-12 </wgt>
<wgt id='1382'> +1.3225199e-12 </wgt>
<wgt id='1383'> +1.3457432e-12 </wgt>
<wgt id='1384'> +1.3130749e-12 </wgt>
<wgt id='1385'> +1.3206040e-12 </wgt>
<wgt id='1386'> +1.3252574e-12 </wgt>
<wgt id='1387'> +1.3195033e-12 </wgt>
<wgt id='1388'> +1.3177677e-12 </wgt>
<wgt id='1389'> +1.3207985e-12 </wgt>
<wgt id='1390'> +1.3219000e-12 </wgt>
<wgt id='1391'> +1.2928861e-12 </wgt>
<wgt id='1392'> +1.2553737e-12 </wgt>
<wgt id='1393'> +1.2681157e-12 </wgt>
<wgt id='1394'> +1.2809231e-12 </wgt>
<wgt id='1395'> +1.3049785e-12 </wgt>
<wgt id='1396'> +1.2928981e-12 </wgt>
<wgt id='1397'> +1.3129738e-12 </wgt>
<wgt id='1398'> +1.3084312e-12 </wgt>
<wgt id='1399'> +1.3042497e-12 </wgt>
<wgt id='1400'> +1.3003987e-12 </wgt>
<wgt id='1401'> +1.2965729e-12 </wgt>
<wgt id='1402'> +1.2896163e-12 </wgt>
<wgt id='1403'> +1.2866799e-12 </wgt>
<wgt id='1404'> +1.2838418e-12 </wgt>
<wgt id='1405'> +1.2928981e-12 </wgt>
<wgt id='1406'> +1.2857983e-12 </wgt>
<wgt id='1407'> +1.2894393e-12 </wgt>
<wgt id='1408'> +1.2960585e-12 </wgt>
<wgt id='1409'> +1.2986021e-12 </wgt>
<wgt id='1410'> +1.2190547e-12 </wgt>
<wgt id='1411'> +1.2209757e-12 </wgt>
<wgt id='1412'> +1.2165146e-12 </wgt>
<wgt id='1413'> +1.2212580e-12 </wgt>
<wgt id='1414'> +1.2168524e-12 </wgt>
<wgt id='1415'> +1.2208879e-12 </wgt>
<wgt id='1416'> +1.2183116e-12 </wgt>
<wgt id='1417'> +1.2123692e-12 </wgt>
<wgt id='1418'> +1.2256878e-12 </wgt>
<wgt id='1419'> +1.2227848e-12 </wgt>
<wgt id='1420'> +1.2154791e-12 </wgt>
<wgt id='1421'> +1.1998015e-12 </wgt>
<wgt id='1422'> +1.2274039e-12 </wgt>
<wgt id='1423'> +1.2190590e-12 </wgt>
<wgt id='1424'> +1.2190414e-12 </wgt>
<wgt id='1425'> +1.2131976e-12 </wgt>
<wgt id='1426'> +1.2253895e-12 </wgt>
<wgt id='1427'> +1.2063945e-12 </wgt>
<wgt id='1428'> +1.2257989e-12 </wgt>
<wgt id='1429'> +1.2159947e-12 </wgt>
<wgt id='1430'> +1.2232612e-12 </wgt>
<wgt id='1431'> +1.2211922e-12 </wgt>
<wgt id='1432'> +1.2174964e-12 </wgt>
<wgt id='1433'> +1.2249444e-12 </wgt>
<wgt id='1434'> +1.2117373e-12 </wgt>
<wgt id='1435'> +1.2231016e-12 </wgt>
<wgt id='1436'> +1.2093243e-12 </wgt>
<wgt id='1437'> +1.2259946e-12 </wgt>
<wgt id='1438'> +1.2181532e-12 </wgt>
<wgt id='1439'> +1.2129356e-12 </wgt>
<wgt id='1440'> +1.2326477e-12 </wgt>
<wgt id='1441'> +1.2205889e-12 </wgt>
<wgt id='1442'> +1.2163569e-12 </wgt>
<wgt id='1443'> +1.2172551e-12 </wgt>
<wgt id='1444'> +1.2241161e-12 </wgt>
<wgt id='1445'> +1.2245481e-12 </wgt>
<wgt id='1446'> +1.2179210e-12 </wgt>
<wgt id='1447'> +1.2197856e-12 </wgt>
<wgt id='1448'> +1.2205033e-12 </wgt>
<wgt id='1449'> +1.2180569e-12 </wgt>
<wgt id='1450'> +1.2195401e-12 </wgt>
<wgt id='1451'> +1.2171518e-12 </wgt>
<wgt id='1452'> +1.2213008e-12 </wgt>
<wgt id='1453'> +1.2199681e-12 </wgt>
<wgt id='1454'> +1.2135088e-12 </wgt>
<wgt id='1455'> +1.2138104e-12 </wgt>
<wgt id='1456'> +1.2227227e-12 </wgt>
<wgt id='1457'> +1.2203466e-12 </wgt>
<wgt id='1458'> +1.2186415e-12 </wgt>
<wgt id='1459'> +1.2221357e-12 </wgt>
<wgt id='1460'> +1.2181343e-12 </wgt>
<wgt id='1461'> +1.2190547e-12 </wgt>
<wgt id='1462'> +1.2123509e-12 </wgt>
<wgt id='1463'> +1.2254976e-12 </wgt>
<wgt id='1464'> +1.2194461e-12 </wgt>
<wgt id='1465'> +1.2429137e-12 </wgt>
<wgt id='1466'> +1.2370172e-12 </wgt>
<wgt id='1467'> +1.2319022e-12 </wgt>
<wgt id='1468'> +1.2285679e-12 </wgt>
<wgt id='1469'> +1.2233638e-12 </wgt>
<wgt id='1470'> +1.2163484e-12 </wgt>
<wgt id='1471'> +1.2119819e-12 </wgt>
<wgt id='1472'> +1.2084586e-12 </wgt>
<wgt id='1473'> +1.2194461e-12 </wgt>
<wgt id='1474'> +1.2127966e-12 </wgt>
<wgt id='1475'> +1.2166031e-12 </wgt>
<wgt id='1476'> +1.2221642e-12 </wgt>
<wgt id='1477'> +1.2245145e-12 </wgt>
<wgt id='1478'> +1.2722823e-12 </wgt>
<wgt id='1479'> +1.2724178e-12 </wgt>
<wgt id='1480'> +1.2701719e-12 </wgt>
<wgt id='1481'> +1.2643998e-12 </wgt>
<wgt id='1482'> +1.2771395e-12 </wgt>
<wgt id='1483'> +1.2646617e-12 </wgt>
<wgt id='1484'> +1.2728001e-12 </wgt>
<wgt id='1485'> +1.2862604e-12 </wgt>
<wgt id='1486'> +1.2720224e-12 </wgt>
<wgt id='1487'> +1.2737863e-12 </wgt>
<wgt id='1488'> +1.2676509e-12 </wgt>
<wgt id='1489'> +1.2939311e-12 </wgt>
<wgt id='1490'> +1.2736924e-12 </wgt>
<wgt id='1491'> +1.2753508e-12 </wgt>
<wgt id='1492'> +1.2700074e-12 </wgt>
<wgt id='1493'> +1.2604234e-12 </wgt>
<wgt id='1494'> +1.2743453e-12 </wgt>
<wgt id='1495'> +1.2810046e-12 </wgt>
<wgt id='1496'> +1.2717699e-12 </wgt>
<wgt id='1497'> +1.2766732e-12 </wgt>
<wgt id='1498'> +1.2706808e-12 </wgt>
<wgt id='1499'> +1.2758095e-12 </wgt>
<wgt id='1500'> +1.2713461e-12 </wgt>
<wgt id='1501'> +1.2716454e-12 </wgt>
<wgt id='1502'> +1.2733403e-12 </wgt>
<wgt id='1503'> +1.2751032e-12 </wgt>
<wgt id='1504'> +1.2733553e-12 </wgt>
<wgt id='1505'> +1.2723879e-12 </wgt>
<wgt id='1506'> +1.2739452e-12 </wgt>
<wgt id='1507'> +1.2714446e-12 </wgt>
<wgt id='1508'> +1.2802688e-12 </wgt>
<wgt id='1509'> +1.2658622e-12 </wgt>
<wgt id='1510'> +1.2635638e-12 </wgt>
<wgt id='1511'> +1.2674827e-12 </wgt>
<wgt id='1512'> +1.2656638e-12 </wgt>
<wgt id='1513'> +1.2674983e-12 </wgt>
<wgt id='1514'> +1.2665599e-12 </wgt>
<wgt id='1515'> +1.2661636e-12 </wgt>
<wgt id='1516'> +1.2679949e-12 </wgt>
<wgt id='1517'> +1.2707184e-12 </wgt>
<wgt id='1518'> +1.2650089e-12 </wgt>
<wgt id='1519'> +1.2612596e-12 </wgt>
<wgt id='1520'> +1.2725877e-12 </wgt>
<wgt id='1521'> +1.2714476e-12 </wgt>
<wgt id='1522'> +1.2739377e-12 </wgt>
<wgt id='1523'> +1.2718649e-12 </wgt>
<wgt id='1524'> +1.2690114e-12 </wgt>
<wgt id='1525'> +1.2654899e-12 </wgt>
<wgt id='1526'> +1.2679222e-12 </wgt>
<wgt id='1527'> +1.2694014e-12 </wgt>
<wgt id='1528'> +1.2629011e-12 </wgt>
<wgt id='1529'> +1.2698141e-12 </wgt>
<wgt id='1530'> +1.2584054e-12 </wgt>
<wgt id='1531'> +1.2681601e-12 </wgt>
<wgt id='1532'> +1.2664544e-12 </wgt>
<wgt id='1533'> +1.2641905e-12 </wgt>
<wgt id='1534'> +1.2640712e-12 </wgt>
<wgt id='1535'> +1.2712158e-12 </wgt>
<wgt id='1536'> +1.2684695e-12 </wgt>
<wgt id='1537'> +1.2658118e-12 </wgt>
<wgt id='1538'> +1.2657972e-12 </wgt>
<wgt id='1539'> +1.2659593e-12 </wgt>
<wgt id='1540'> +1.2645688e-12 </wgt>
<wgt id='1541'> +1.2665067e-12 </wgt>
<wgt id='1542'> +1.2647812e-12 </wgt>
<wgt id='1543'> +1.2662278e-12 </wgt>
<wgt id='1544'> +1.2671967e-12 </wgt>
<wgt id='1545'> +1.2643651e-12 </wgt>
<wgt id='1546'> +1.2651295e-12 </wgt>
<wgt id='1547'> +1.2652664e-12 </wgt>
<wgt id='1548'> +1.2668501e-12 </wgt>
<wgt id='1549'> +1.2660078e-12 </wgt>
<wgt id='1550'> +1.2645121e-12 </wgt>
<wgt id='1551'> +1.2664563e-12 </wgt>
<wgt id='1552'> +1.2655246e-12 </wgt>
<wgt id='1553'> +1.2654084e-12 </wgt>
<wgt id='1554'> +1.2645798e-12 </wgt>
<wgt id='1555'> +1.2664236e-12 </wgt>
<wgt id='1556'> +1.2661583e-12 </wgt>
<wgt id='1557'> +1.2661704e-12 </wgt>
<wgt id='1558'> +1.2658573e-12 </wgt>
<wgt id='1559'> +1.2653226e-12 </wgt>
<wgt id='1560'> +1.2661464e-12 </wgt>
<wgt id='1561'> +1.2655394e-12 </wgt>
<wgt id='1562'> +1.2659119e-12 </wgt>
<wgt id='1563'> +1.2665060e-12 </wgt>
<wgt id='1564'> +1.2658002e-12 </wgt>
<wgt id='1565'> +1.2658808e-12 </wgt>
<wgt id='1566'> +1.2660857e-12 </wgt>
<wgt id='1567'> +1.2657300e-12 </wgt>
<wgt id='1568'> +1.2651759e-12 </wgt>
<wgt id='1569'> +1.2658420e-12 </wgt>
<wgt id='1570'> +1.2658297e-12 </wgt>
<wgt id='1571'> +1.2659910e-12 </wgt>
<wgt id='1572'> +1.2655854e-12 </wgt>
<wgt id='1573'> +1.2660491e-12 </wgt>
<wgt id='1574'> +1.2659247e-12 </wgt>
<wgt id='1575'> +1.2658842e-12 </wgt>
<wgt id='1576'> +1.2658937e-12 </wgt>
<wgt id='1577'> +1.2663484e-12 </wgt>
<wgt id='1578'> +1.2656515e-12 </wgt>
<wgt id='1579'> +1.2658562e-12 </wgt>
<wgt id='1580'> +1.2661453e-12 </wgt>
<wgt id='1581'> +1.2663267e-12 </wgt>
<wgt id='1582'> +1.2661624e-12 </wgt>
<wgt id='1583'> +1.2661549e-12 </wgt>
<wgt id='1584'> +1.2660187e-12 </wgt>
<wgt id='1585'> +1.2658861e-12 </wgt>
<wgt id='1586'> +1.2665430e-12 </wgt>
<wgt id='1587'> +1.2662135e-12 </wgt>
<wgt id='1588'> +1.2655716e-12 </wgt>
<wgt id='1589'> +1.2657735e-12 </wgt>
<wgt id='1590'> +1.2656932e-12 </wgt>
<wgt id='1591'> +1.2655682e-12 </wgt>
<wgt id='1592'> +1.2659117e-12 </wgt>
<wgt id='1593'> +1.2665906e-12 </wgt>
<wgt id='1594'> +1.2656442e-12 </wgt>
<wgt id='1595'> +1.2661287e-12 </wgt>
<wgt id='1596'> +1.2656603e-12 </wgt>
<wgt id='1597'> +1.2657123e-12 </wgt>
<wgt id='1598'> +1.2663339e-12 </wgt>
<wgt id='1599'> +1.2656917e-12 </wgt>
<wgt id='1600'> +1.2656242e-12 </wgt>
<wgt id='1601'> +1.2661515e-12 </wgt>
<wgt id='1602'> +1.2661496e-12 </wgt>
<wgt id='1603'> +1.2659592e-12 </wgt>
<wgt id='1604'> +1.2659652e-12 </wgt>
<wgt id='1605'> +1.2663192e-12 </wgt>
<wgt id='1606'> +1.2650696e-12 </wgt>
<wgt id='1607'> +1.2662286e-12 </wgt>
<wgt id='1608'> +1.2658899e-12 </wgt>
<wgt id='1609'> +1.2659170e-12 </wgt>
<wgt id='1610'> +1.2387880e-12 </wgt>
<wgt id='1611'> +1.2931447e-12 </wgt>
<wgt id='1612'> +1.4882422e-12 </wgt>
<wgt id='1613'> +1.5048094e-12 </wgt>
<wgt id='1614'> +1.4990685e-12 </wgt>
<wgt id='1615'> +1.4859091e-12 </wgt>
<wgt id='1616'> +1.4933351e-12 </wgt>
<wgt id='1617'> +1.4523044e-12 </wgt>
<wgt id='1618'> +1.4204704e-12 </wgt>
<wgt id='1619'> +1.4853157e-12 </wgt>
<wgt id='1620'> +1.5017412e-12 </wgt>
<wgt id='1621'> +1.4881892e-12 </wgt>
<wgt id='1622'> +1.4985988e-12 </wgt>
<wgt id='1623'> +1.4949067e-12 </wgt>
<wgt id='1624'> +1.4772697e-12 </wgt>
<wgt id='1625'> +1.5020820e-12 </wgt>
<wgt id='1626'> +1.5007965e-12 </wgt>
<wgt id='1627'> +1.4861491e-12 </wgt>
<wgt id='1628'> +1.5230036e-12 </wgt>
<wgt id='1629'> +1.5360109e-12 </wgt>
<wgt id='1630'> +1.4987826e-12 </wgt>
<wgt id='1631'> +1.4885194e-12 </wgt>
<wgt id='1632'> +1.5188746e-12 </wgt>
<wgt id='1633'> +1.4729336e-12 </wgt>
<wgt id='1634'> +1.5018294e-12 </wgt>
<wgt id='1635'> +1.4717157e-12 </wgt>
<wgt id='1636'> +1.4674507e-12 </wgt>
<wgt id='1637'> +1.4372773e-12 </wgt>
<wgt id='1638'> +1.4973203e-12 </wgt>
<wgt id='1639'> +1.5095683e-12 </wgt>
<wgt id='1640'> +1.5091361e-12 </wgt>
<wgt id='1641'> +1.4707357e-12 </wgt>
<wgt id='1642'> +1.4992959e-12 </wgt>
<wgt id='1643'> +1.5152670e-12 </wgt>
<wgt id='1644'> +1.4552813e-12 </wgt>
<wgt id='1645'> +1.5090696e-12 </wgt>
<wgt id='1646'> +1.5273350e-12 </wgt>
<wgt id='1647'> +1.5076877e-12 </wgt>
<wgt id='1648'> +1.5104780e-12 </wgt>
<wgt id='1649'> +1.4368269e-12 </wgt>
<wgt id='1650'> +1.4910272e-12 </wgt>
<wgt id='1651'> +1.4562147e-12 </wgt>
<wgt id='1652'> +1.5127115e-12 </wgt>
<wgt id='1653'> +1.4570668e-12 </wgt>
<wgt id='1654'> +1.4516232e-12 </wgt>
<wgt id='1655'> +1.4646624e-12 </wgt>
<wgt id='1656'> +1.4909176e-12 </wgt>
<wgt id='1657'> +1.4582676e-12 </wgt>
<wgt id='1658'> +1.4989092e-12 </wgt>
<wgt id='1659'> +1.4772697e-12 </wgt>
<wgt id='1660'> +1.4666040e-12 </wgt>
<wgt id='1661'> +1.4665170e-12 </wgt>
<wgt id='1662'> +1.4893069e-12 </wgt>
<wgt id='1663'> +1.4822364e-12 </wgt>
<wgt id='1664'> +1.5381750e-12 </wgt>
<wgt id='1665'> +1.4920077e-12 </wgt>
<wgt id='1666'> +1.4625861e-12 </wgt>
<wgt id='1667'> +1.4873460e-12 </wgt>
<wgt id='1668'> +1.4770078e-12 </wgt>
<wgt id='1669'> +1.4832789e-12 </wgt>
<wgt id='1670'> +1.4946474e-12 </wgt>
<wgt id='1671'> +1.5098533e-12 </wgt>
<wgt id='1672'> +1.5157413e-12 </wgt>
<wgt id='1673'> +1.4580419e-12 </wgt>
<wgt id='1674'> +1.4896977e-12 </wgt>
<wgt id='1675'> +1.5219944e-12 </wgt>
<wgt id='1676'> +1.4773456e-12 </wgt>
<wgt id='1677'> +1.4941615e-12 </wgt>
<wgt id='1678'> +1.4838156e-12 </wgt>
<wgt id='1679'> +1.5061783e-12 </wgt>
<wgt id='1680'> +1.5050588e-12 </wgt>
<wgt id='1681'> +1.5057029e-12 </wgt>
<wgt id='1682'> +1.4826118e-12 </wgt>
<wgt id='1683'> +1.4734244e-12 </wgt>
<wgt id='1684'> +1.4747969e-12 </wgt>
<wgt id='1685'> +1.4878998e-12 </wgt>
<wgt id='1686'> +1.4950251e-12 </wgt>
<wgt id='1687'> +1.5099835e-12 </wgt>
<wgt id='1688'> +1.4824475e-12 </wgt>
<wgt id='1689'> +1.4869039e-12 </wgt>
<wgt id='1690'> +1.4802595e-12 </wgt>
<wgt id='1691'> +1.5171544e-12 </wgt>
<wgt id='1692'> +1.5093449e-12 </wgt>
<wgt id='1693'> +1.4966148e-12 </wgt>
<wgt id='1694'> +1.4480824e-12 </wgt>
<wgt id='1695'> +1.5297806e-12 </wgt>
<wgt id='1696'> +1.5194207e-12 </wgt>
<wgt id='1697'> +1.4733670e-12 </wgt>
<wgt id='1698'> +1.4673639e-12 </wgt>
<wgt id='1699'> +1.4679355e-12 </wgt>
<wgt id='1700'> +1.4795177e-12 </wgt>
<wgt id='1701'> +1.4947733e-12 </wgt>
<wgt id='1702'> +1.4582819e-12 </wgt>
<wgt id='1703'> +1.5174302e-12 </wgt>
<wgt id='1704'> +1.4833206e-12 </wgt>
<wgt id='1705'> +1.5062726e-12 </wgt>
<wgt id='1706'> +1.4820012e-12 </wgt>
<wgt id='1707'> +1.4657786e-12 </wgt>
<wgt id='1708'> +1.4753379e-12 </wgt>
<wgt id='1709'> +1.4894495e-12 </wgt>
<wgt id='1710'> +1.4615932e-12 </wgt>
<wgt id='1711'> +1.4822895e-12 </wgt>
<wgt id='1712'> +1.5031097e-12 </wgt>
<wgt id='1713'> +1.2909591e-12 </wgt>
<wgt id='1714'> +1.2540768e-12 </wgt>
<wgt id='1715'> +1.2804516e-12 </wgt>
<wgt id='1716'> +1.2891932e-12 </wgt>
<wgt id='1717'> +1.2722603e-12 </wgt>
<wgt id='1718'> +1.2721485e-12 </wgt>
<wgt id='1719'> +1.3082250e-12 </wgt>
<wgt id='1720'> +1.3026285e-12 </wgt>
<wgt id='1721'> +1.2904742e-12 </wgt>
<wgt id='1722'> +1.2857059e-12 </wgt>
<wgt id='1723'> +1.2557833e-12 </wgt>
<wgt id='1724'> +1.2797336e-12 </wgt>
<wgt id='1725'> +1.3123580e-12 </wgt>
<wgt id='1726'> +1.3156574e-12 </wgt>
<wgt id='1727'> +1.2645956e-12 </wgt>
<wgt id='1728'> +1.2987556e-12 </wgt>
<wgt id='1729'> +1.2949108e-12 </wgt>
<wgt id='1730'> +1.2699287e-12 </wgt>
<wgt id='1731'> +1.2660096e-12 </wgt>
<wgt id='1732'> +1.3070345e-12 </wgt>
<wgt id='1733'> +1.2992232e-12 </wgt>
<wgt id='1734'> +1.3062979e-12 </wgt>
<wgt id='1735'> +1.2889724e-12 </wgt>
<wgt id='1736'> +1.3851694e-12 </wgt>
<wgt id='1737'> +1.2975760e-12 </wgt>
<wgt id='1738'> +1.3071820e-12 </wgt>
<wgt id='1739'> +1.2685616e-12 </wgt>
<wgt id='1740'> +1.2489991e-12 </wgt>
<wgt id='1741'> +1.2914123e-12 </wgt>
<wgt id='1742'> +1.2796417e-12 </wgt>
<wgt id='1743'> +1.3159257e-12 </wgt>
<wgt id='1744'> +1.3027095e-12 </wgt>
<wgt id='1745'> +1.2468290e-12 </wgt>
<wgt id='1746'> +1.3004226e-12 </wgt>
<wgt id='1747'> +1.3103104e-12 </wgt>
<wgt id='1748'> +1.2834728e-12 </wgt>
<wgt id='1749'> +1.3118459e-12 </wgt>
<wgt id='1750'> +1.3128367e-12 </wgt>
<wgt id='1751'> +1.2831450e-12 </wgt>
<wgt id='1752'> +1.2498564e-12 </wgt>
<wgt id='1753'> +1.3154022e-12 </wgt>
<wgt id='1754'> +1.2855749e-12 </wgt>
<wgt id='1755'> +1.2974701e-12 </wgt>
<wgt id='1756'> +1.3121200e-12 </wgt>
<wgt id='1757'> +1.2900817e-12 </wgt>
<wgt id='1758'> +1.3109105e-12 </wgt>
<wgt id='1759'> +1.3012358e-12 </wgt>
<wgt id='1760'> +1.2694845e-12 </wgt>
<wgt id='1761'> +1.2705242e-12 </wgt>
<wgt id='1762'> +1.2851898e-12 </wgt>
<wgt id='1763'> +1.2962348e-12 </wgt>
<wgt id='1764'> +1.2985530e-12 </wgt>
<wgt id='1765'> +1.2837643e-12 </wgt>
<wgt id='1766'> +1.3150262e-12 </wgt>
<wgt id='1767'> +1.2949882e-12 </wgt>
<wgt id='1768'> +1.2883021e-12 </wgt>
<wgt id='1769'> +1.2662588e-12 </wgt>
<wgt id='1770'> +1.3186203e-12 </wgt>
<wgt id='1771'> +1.2919444e-12 </wgt>
<wgt id='1772'> +1.3048534e-12 </wgt>
<wgt id='1773'> +1.2851913e-12 </wgt>
<wgt id='1774'> +1.2942315e-12 </wgt>
<wgt id='1775'> +1.2946793e-12 </wgt>
<wgt id='1776'> +1.3135071e-12 </wgt>
<wgt id='1777'> +1.2619924e-12 </wgt>
<wgt id='1778'> +1.2679346e-12 </wgt>
<wgt id='1779'> +1.3136506e-12 </wgt>
<wgt id='1780'> +1.3302628e-12 </wgt>
<wgt id='1781'> +1.2733154e-12 </wgt>
<wgt id='1782'> +1.2479157e-12 </wgt>
<wgt id='1783'> +1.3021500e-12 </wgt>
<wgt id='1784'> +1.3082930e-12 </wgt>
<wgt id='1785'> +1.2869861e-12 </wgt>
<wgt id='1786'> +1.2098297e-12 </wgt>
<wgt id='1787'> +1.3118619e-12 </wgt>
<wgt id='1788'> +1.2760975e-12 </wgt>
<wgt id='1789'> +1.2849226e-12 </wgt>
<wgt id='1790'> +1.3163444e-12 </wgt>
<wgt id='1791'> +1.3287498e-12 </wgt>
<wgt id='1792'> +1.2721752e-12 </wgt>
<wgt id='1793'> +1.2999158e-12 </wgt>
<wgt id='1794'> +1.2929837e-12 </wgt>
<wgt id='1795'> +1.2793779e-12 </wgt>
<wgt id='1796'> +1.2930592e-12 </wgt>
<wgt id='1797'> +1.2945273e-12 </wgt>
<wgt id='1798'> +1.2621353e-12 </wgt>
<wgt id='1799'> +1.2890057e-12 </wgt>
<wgt id='1800'> +1.2860124e-12 </wgt>
<wgt id='1801'> +1.2810372e-12 </wgt>
<wgt id='1802'> +1.3094663e-12 </wgt>
<wgt id='1803'> +1.2906500e-12 </wgt>
<wgt id='1804'> +1.2688409e-12 </wgt>
<wgt id='1805'> +1.3016833e-12 </wgt>
<wgt id='1806'> +1.2752465e-12 </wgt>
<wgt id='1807'> +1.3183929e-12 </wgt>
<wgt id='1808'> +1.2830628e-12 </wgt>
<wgt id='1809'> +1.2873070e-12 </wgt>
<wgt id='1810'> +1.2816848e-12 </wgt>
<wgt id='1811'> +1.3246080e-12 </wgt>
<wgt id='1812'> +1.3122755e-12 </wgt>
<wgt id='1813'> +1.2800711e-12 </wgt>
<wgt id='1814'> +1.1384675e-12 </wgt>
<wgt id='1815'> +1.2876773e-12 </wgt>
<wgt id='1816'> +1.2909591e-12 </wgt>
<wgt id='1817'> +1.2540768e-12 </wgt>
<wgt id='1818'> +1.2804516e-12 </wgt>
<wgt id='1819'> +1.2891932e-12 </wgt>
<wgt id='1820'> +1.2722603e-12 </wgt>
<wgt id='1821'> +1.2721485e-12 </wgt>
<wgt id='1822'> +1.3082250e-12 </wgt>
<wgt id='1823'> +1.3026285e-12 </wgt>
<wgt id='1824'> +1.2904742e-12 </wgt>
<wgt id='1825'> +1.2857059e-12 </wgt>
<wgt id='1826'> +1.2557833e-12 </wgt>
<wgt id='1827'> +1.2797336e-12 </wgt>
<wgt id='1828'> +1.3123580e-12 </wgt>
<wgt id='1829'> +1.3156574e-12 </wgt>
<wgt id='1830'> +1.2645956e-12 </wgt>
<wgt id='1831'> +1.2987556e-12 </wgt>
<wgt id='1832'> +1.2949108e-12 </wgt>
<wgt id='1833'> +1.2699287e-12 </wgt>
<wgt id='1834'> +1.2660096e-12 </wgt>
<wgt id='1835'> +1.3070345e-12 </wgt>
<wgt id='1836'> +1.2992232e-12 </wgt>
<wgt id='1837'> +1.3062979e-12 </wgt>
<wgt id='1838'> +1.2889724e-12 </wgt>
<wgt id='1839'> +1.3851694e-12 </wgt>
<wgt id='1840'> +1.2975760e-12 </wgt>
<wgt id='1841'> +1.3071820e-12 </wgt>
<wgt id='1842'> +1.2685616e-12 </wgt>
<wgt id='1843'> +1.2489991e-12 </wgt>
<wgt id='1844'> +1.2914123e-12 </wgt>
<wgt id='1845'> +1.2796417e-12 </wgt>
<wgt id='1846'> +1.3159257e-12 </wgt>
<wgt id='1847'> +1.3027095e-12 </wgt>
<wgt id='1848'> +1.2468290e-12 </wgt>
<wgt id='1849'> +1.3004226e-12 </wgt>
<wgt id='1850'> +1.3103104e-12 </wgt>
<wgt id='1851'> +1.2834728e-12 </wgt>
<wgt id='1852'> +1.3118459e-12 </wgt>
<wgt id='1853'> +1.3128367e-12 </wgt>
<wgt id='1854'> +1.2831450e-12 </wgt>
<wgt id='1855'> +1.2498564e-12 </wgt>
<wgt id='1856'> +1.3154022e-12 </wgt>
<wgt id='1857'> +1.2855749e-12 </wgt>
<wgt id='1858'> +1.2974701e-12 </wgt>
<wgt id='1859'> +1.3121200e-12 </wgt>
<wgt id='1860'> +1.2900817e-12 </wgt>
<wgt id='1861'> +1.3109105e-12 </wgt>
<wgt id='1862'> +1.3012358e-12 </wgt>
<wgt id='1863'> +1.2694845e-12 </wgt>
<wgt id='1864'> +1.2705242e-12 </wgt>
<wgt id='1865'> +1.2851898e-12 </wgt>
<wgt id='1866'> +1.2962348e-12 </wgt>
<wgt id='1867'> +1.2985530e-12 </wgt>
<wgt id='1868'> +1.2837643e-12 </wgt>
<wgt id='1869'> +1.3150262e-12 </wgt>
<wgt id='1870'> +1.2949882e-12 </wgt>
<wgt id='1871'> +1.2883021e-12 </wgt>
<wgt id='1872'> +1.2662588e-12 </wgt>
<wgt id='1873'> +1.3186203e-12 </wgt>
<wgt id='1874'> +1.2919444e-12 </wgt>
<wgt id='1875'> +1.3048534e-12 </wgt>
<wgt id='1876'> +1.2851913e-12 </wgt>
<wgt id='1877'> +1.2942315e-12 </wgt>
<wgt id='1878'> +1.2946793e-12 </wgt>
<wgt id='1879'> +1.3135071e-12 </wgt>
<wgt id='1880'> +1.2619924e-12 </wgt>
<wgt id='1881'> +1.2679346e-12 </wgt>
<wgt id='1882'> +1.3136506e-12 </wgt>
<wgt id='1883'> +1.3302628e-12 </wgt>
<wgt id='1884'> +1.2733154e-12 </wgt>
<wgt id='1885'> +1.2479157e-12 </wgt>
<wgt id='1886'> +1.3021500e-12 </wgt>
<wgt id='1887'> +1.3082930e-12 </wgt>
<wgt id='1888'> +1.2869861e-12 </wgt>
<wgt id='1889'> +1.2098297e-12 </wgt>
<wgt id='1890'> +1.3118619e-12 </wgt>
<wgt id='1891'> +1.2760975e-12 </wgt>
<wgt id='1892'> +1.2849226e-12 </wgt>
<wgt id='1893'> +1.3163444e-12 </wgt>
<wgt id='1894'> +1.3287498e-12 </wgt>
<wgt id='1895'> +1.2721752e-12 </wgt>
<wgt id='1896'> +1.2999158e-12 </wgt>
<wgt id='1897'> +1.2929837e-12 </wgt>
<wgt id='1898'> +1.2793779e-12 </wgt>
<wgt id='1899'> +1.2930592e-12 </wgt>
<wgt id='1900'> +1.2945273e-12 </wgt>
<wgt id='1901'> +1.2621353e-12 </wgt>
<wgt id='1902'> +1.2890057e-12 </wgt>
<wgt id='1903'> +1.2860124e-12 </wgt>
<wgt id='1904'> +1.2810372e-12 </wgt>
<wgt id='1905'> +1.3094663e-12 </wgt>
<wgt id='1906'> +1.2906500e-12 </wgt>
<wgt id='1907'> +1.2688409e-12 </wgt>
<wgt id='1908'> +1.3016833e-12 </wgt>
<wgt id='1909'> +1.2752465e-12 </wgt>
<wgt id='1910'> +1.3183929e-12 </wgt>
<wgt id='1911'> +1.2830628e-12 </wgt>
<wgt id='1912'> +1.2873070e-12 </wgt>
<wgt id='1913'> +1.2816848e-12 </wgt>
<wgt id='1914'> +1.3246080e-12 </wgt>
<wgt id='1915'> +1.3122755e-12 </wgt>
<wgt id='1916'> +1.2800711e-12 </wgt>
<wgt id='1917'> +1.2761708e-12 </wgt>
<wgt id='1918'> +1.3029590e-12 </wgt>
<wgt id='1919'> +1.2582198e-12 </wgt>
</rwgt>
</event>
<event>
 9      1 +1.5607000e-12 2.98119100e+01 7.81860800e-03 1.45155700e-01
       21 -1    0    0  501  502 +0.0000000000e+00 +0.0000000000e+00 +6.0074928161e+01 6.0074928161e+01 0.0000000000e+00 0.0000e+00 -1.0000e+00
       -3 -1    0    0    0  501 -0.0000000000e+00 -0.0000000000e+00 -2.1913890423e+02 2.1913890423e+02 0.0000000000e+00 0.0000e+00 -1.0000e+00
     1023  2    1    2    0    0 +8.1378232897e-01 -2.5750182306e+01 -2.1530166777e+02 2.1735583292e+02 1.5000527691e+01 0.0000e+00 0.0000e+00
  1000023  2    3    3    0    0 +4.4718435565e+00 -7.4135550163e+00 -6.3065943282e+01 6.3894668055e+01 5.5006564267e+00 0.0000e+00 0.0000e+00
       -3  1    1    2    0  502 -8.1378232897e-01 +2.5750182306e+01 +5.6237691700e+01 6.1857999469e+01 0.0000000000e+00 0.0000e+00 -1.0000e+00
  1000022  1    4    4    0    0 +3.7952685008e+00 -6.8020351205e+00 -5.8571335905e+01 5.9298171426e+01 5.0000000000e+00 0.0000e+00 -1.0000e+00
      -11  1    4    4    0    0 +4.6072031844e-01 -2.2093398446e-01 -2.1590666267e+00 2.2187032242e+00 5.1100000000e-04 0.0000e+00 -1.0000e+00
       11  1    4    4    0    0 +2.1585473729e-01 -3.9058591140e-01 -2.3355407498e+00 2.3777934050e+00 5.1100000000e-04 0.0000e+00 1.0000e+00
  1000022  1    3    3    0    0 -3.6580612275e+00 -1.8336627290e+01 -1.5223572449e+02 1.5346116487e+02 5.0000000000e+00 0.0000e+00 -1.0000e+00
<mgrwt>
<rscale>  1 0.29811910E+02</rscale>
<asrwt>0</asrwt>
<pdfrwt beam="1">  1       21 0.92422966E-02 0.29811910E+02</pdfrwt>
<pdfrwt beam="2">  1       -3 0.33713678E-01 0.29811910E+02</pdfrwt>
<totfact> 0.54010502E+04</totfact>
</mgrwt>
<rwgt>
<wgt id='1001'> +1.5607000e-12 </wgt>
<wgt id='1002'> +1.4924564e-12 </wgt>
<wgt id='1003'> +1.4875606e-12 </wgt>
<wgt id='1004'> +1.5683634e-12 </wgt>
<wgt id='1005'> +1.2981904e-12 </wgt>
<wgt id='1006'> +1.3654011e-12 </wgt>
<wgt id='1007'> +1.3244626e-12 </wgt>
<wgt id='1008'> +1.3212193e-12 </wgt>
<wgt id='1009'> +1.3692476e-12 </wgt>
<wgt id='1010'> +1.1813486e-12 </wgt>
<wgt id='1011'> +1.8244203e-12 </wgt>
<wgt id='1012'> +1.7113832e-12 </wgt>
<wgt id='1013'> +1.7038813e-12 </wgt>
<wgt id='1014'> +1.8386873e-12 </wgt>
<wgt id='1015'> +1.4415104e-12 </wgt>
<wgt id='1016'> +1.6893464e-12 </wgt>
<wgt id='1017'> +1.5786554e-12 </wgt>
<wgt id='1018'> +1.5715115e-12 </wgt>
<wgt id='1019'> +1.7038813e-12 </wgt>
<wgt id='1020'> +1.3287744e-12 </wgt>
<wgt id='1021'> +1.4779493e-12 </wgt>
<wgt id='1022'> +1.4009588e-12 </wgt>
<wgt id='1023'> +1.3957827e-12 </wgt>
<wgt id='1024'> +1.4875606e-12 </wgt>
<wgt id='1025'> +1.2091799e-12 </wgt>
<wgt id='1026'> +1.9748048e-12 </wgt>
<wgt id='1027'> +1.8102266e-12 </wgt>
<wgt id='1028'> +1.8000404e-12 </wgt>
<wgt id='1029'> +1.9975632e-12 </wgt>
<wgt id='1030'> +1.4754709e-12 </wgt>
<wgt id='1031'> +1.3814204e-12 </wgt>
<wgt id='1032'> +1.3710597e-12 </wgt>
<wgt id='1033'> +1.3692476e-12 </wgt>
<wgt id='1034'> +1.3797628e-12 </wgt>
<wgt id='1035'> +1.2526175e-12 </wgt>
<wgt id='1036'> +1.2085558e-12 </wgt>
<wgt id='1037'> +1.2167305e-12 </wgt>
<wgt id='1038'> +1.2161363e-12 </wgt>
<wgt id='1039'> +1.2045914e-12 </wgt>
<wgt id='1040'> +1.1398774e-12 </wgt>
<wgt id='1041'> +1.6148468e-12 </wgt>
<wgt id='1042'> +1.5721789e-12 </wgt>
<wgt id='1043'> +1.5683634e-12 </wgt>
<wgt id='1044'> +1.6175795e-12 </wgt>
<wgt id='1045'> +1.3909063e-12 </wgt>
<wgt id='1046'> +1.5607000e-12 </wgt>
<wgt id='1047'> +1.2750070e-12 </wgt>
<wgt id='1048'> +1.5479653e-12 </wgt>
<wgt id='1049'> +1.6229291e-12 </wgt>
<wgt id='1050'> +1.5307267e-12 </wgt>
<wgt id='1051'> +1.6773282e-12 </wgt>
<wgt id='1052'> +1.5071712e-12 </wgt>
<wgt id='1053'> +1.3264675e-12 </wgt>
<wgt id='1054'> +1.6891894e-12 </wgt>
<wgt id='1055'> +1.6692689e-12 </wgt>
<wgt id='1056'> +1.5318170e-12 </wgt>
<wgt id='1057'> +1.6075972e-12 </wgt>
<wgt id='1058'> +1.6036020e-12 </wgt>
<wgt id='1059'> +1.5650886e-12 </wgt>
<wgt id='1060'> +1.5907300e-12 </wgt>
<wgt id='1061'> +1.6192608e-12 </wgt>
<wgt id='1062'> +1.4668928e-12 </wgt>
<wgt id='1063'> +1.4953489e-12 </wgt>
<wgt id='1064'> +1.4694499e-12 </wgt>
<wgt id='1065'> +1.5781874e-12 </wgt>
<wgt id='1066'> +1.7281302e-12 </wgt>
<wgt id='1067'> +1.5760368e-12 </wgt>
<wgt id='1068'> +1.5757807e-12 </wgt>
<wgt id='1069'> +1.4897797e-12 </wgt>
<wgt id='1070'> +1.5609932e-12 </wgt>
<wgt id='1071'> +1.5553757e-12 </wgt>
<wgt id='1072'> +1.5802883e-12 </wgt>
<wgt id='1073'> +1.5226836e-12 </wgt>
<wgt id='1074'> +1.6372835e-12 </wgt>
<wgt id='1075'> +1.4507680e-12 </wgt>
<wgt id='1076'> +1.5429041e-12 </wgt>
<wgt id='1077'> +1.4841553e-12 </wgt>
<wgt id='1078'> +1.6012296e-12 </wgt>
<wgt id='1079'> +1.3847834e-12 </wgt>
<wgt id='1080'> +1.6479597e-12 </wgt>
<wgt id='1081'> +1.5419076e-12 </wgt>
<wgt id='1082'> +1.5808974e-12 </wgt>
<wgt id='1083'> +1.5067623e-12 </wgt>
<wgt id='1084'> +1.5950981e-12 </wgt>
<wgt id='1085'> +1.6291444e-12 </wgt>
<wgt id='1086'> +1.5034317e-12 </wgt>
<wgt id='1087'> +1.5618869e-12 </wgt>
<wgt id='1088'> +1.4965719e-12 </wgt>
<wgt id='1089'> +1.5306225e-12 </wgt>
<wgt id='1090'> +1.4545551e-12 </wgt>
<wgt id='1091'> +1.6304864e-12 </wgt>
<wgt id='1092'> +1.4784051e-12 </wgt>
<wgt id='1093'> +1.5678390e-12 </wgt>
<wgt id='1094'> +1.6659804e-12 </wgt>
<wgt id='1095'> +1.6128533e-12 </wgt>
<wgt id='1096'> +1.5479224e-12 </wgt>
<wgt id='1097'> +1.6196752e-12 </wgt>
<wgt id='1098'> +1.5148221e-12 </wgt>
<wgt id='1099'> +1.6275898e-12 </wgt>
<wgt id='1100'> +1.4682769e-12 </wgt>
<wgt id='1101'> +1.5083191e-12 </wgt>
<wgt id='1102'> +1.6054051e-12 </wgt>
<wgt id='1103'> +1.5326161e-12 </wgt>
<wgt id='1104'> +1.6342366e-12 </wgt>
<wgt id='1105'> +1.5630568e-12 </wgt>
<wgt id='1106'> +1.5750763e-12 </wgt>
<wgt id='1107'> +1.4431218e-12 </wgt>
<wgt id='1108'> +1.6178491e-12 </wgt>
<wgt id='1109'> +1.5271496e-12 </wgt>
<wgt id='1110'> +1.5065538e-12 </wgt>
<wgt id='1111'> +1.3985354e-12 </wgt>
<wgt id='1112'> +1.5883360e-12 </wgt>
<wgt id='1113'> +1.4579356e-12 </wgt>
<wgt id='1114'> +1.5991984e-12 </wgt>
<wgt id='1115'> +1.5217009e-12 </wgt>
<wgt id='1116'> +1.6064079e-12 </wgt>
<wgt id='1117'> +1.5887905e-12 </wgt>
<wgt id='1118'> +1.5787968e-12 </wgt>
<wgt id='1119'> +1.7170400e-12 </wgt>
<wgt id='1120'> +1.5807082e-12 </wgt>
<wgt id='1121'> +1.7597057e-12 </wgt>
<wgt id='1122'> +1.5155945e-12 </wgt>
<wgt id='1123'> +1.4360843e-12 </wgt>
<wgt id='1124'> +1.5210389e-12 </wgt>
<wgt id='1125'> +1.6700541e-12 </wgt>
<wgt id='1126'> +1.4539293e-12 </wgt>
<wgt id='1127'> +1.5428522e-12 </wgt>
<wgt id='1128'> +1.4668928e-12 </wgt>
<wgt id='1129'> +1.6462601e-12 </wgt>
<wgt id='1130'> +1.6679060e-12 </wgt>
<wgt id='1131'> +1.5360279e-12 </wgt>
<wgt id='1132'> +1.5509027e-12 </wgt>
<wgt id='1133'> +1.7095817e-12 </wgt>
<wgt id='1134'> +1.4794561e-12 </wgt>
<wgt id='1135'> +1.9982966e-12 </wgt>
<wgt id='1136'> +1.5746759e-12 </wgt>
<wgt id='1137'> +1.5257028e-12 </wgt>
<wgt id='1138'> +1.6860271e-12 </wgt>
<wgt id='1139'> +1.7163558e-12 </wgt>
<wgt id='1140'> +1.4692451e-12 </wgt>
<wgt id='1141'> +1.4418986e-12 </wgt>
<wgt id='1142'> +1.6011063e-12 </wgt>
<wgt id='1143'> +1.5172474e-12 </wgt>
<wgt id='1144'> +1.4987241e-12 </wgt>
<wgt id='1145'> +1.5946526e-12 </wgt>
<wgt id='1146'> +1.5075975e-12 </wgt>
<wgt id='1147'> +1.4865619e-12 </wgt>
<wgt id='1148'> +1.5032678e-12 </wgt>
<wgt id='1149'> +1.3541231e-12 </wgt>
<wgt id='1150'> +1.3039660e-12 </wgt>
<wgt id='1151'> +1.0596225e-12 </wgt>
<wgt id='1152'> +1.3881436e-12 </wgt>
<wgt id='1153'> +1.3844520e-12 </wgt>
<wgt id='1154'> +1.3902474e-12 </wgt>
<wgt id='1155'> +1.3897772e-12 </wgt>
<wgt id='1156'> +1.3873062e-12 </wgt>
<wgt id='1157'> +1.3875849e-12 </wgt>
<wgt id='1158'> +1.3888218e-12 </wgt>
<wgt id='1159'> +1.3623780e-12 </wgt>
<wgt id='1160'> +1.4046559e-12 </wgt>
<wgt id='1161'> +1.3744429e-12 </wgt>
<wgt id='1162'> +1.3974881e-12 </wgt>
<wgt id='1163'> +1.3689136e-12 </wgt>
<wgt id='1164'> +1.4071595e-12 </wgt>
<wgt id='1165'> +1.3779490e-12 </wgt>
<wgt id='1166'> +1.3978157e-12 </wgt>
<wgt id='1167'> +1.4009250e-12 </wgt>
<wgt id='1168'> +1.3695205e-12 </wgt>
<wgt id='1169'> +1.3899183e-12 </wgt>
<wgt id='1170'> +1.3867341e-12 </wgt>
<wgt id='1171'> +1.3801999e-12 </wgt>
<wgt id='1172'> +1.3981384e-12 </wgt>
<wgt id='1173'> +1.3810804e-12 </wgt>
<wgt id='1174'> +1.3941837e-12 </wgt>
<wgt id='1175'> +1.3689466e-12 </wgt>
<wgt id='1176'> +1.4027764e-12 </wgt>
<wgt id='1177'> +1.3891695e-12 </wgt>
<wgt id='1178'> +1.3854225e-12 </wgt>
<wgt id='1179'> +1.4033672e-12 </wgt>
<wgt id='1180'> +1.3674893e-12 </wgt>
<wgt id='1181'> +1.3848030e-12 </wgt>
<wgt id='1182'> +1.3913894e-12 </wgt>
<wgt id='1183'> +1.3855933e-12 </wgt>
<wgt id='1184'> +1.3884488e-12 </wgt>
<wgt id='1185'> +1.4086388e-12 </wgt>
<wgt id='1186'> +1.3722786e-12 </wgt>
<wgt id='1187'> +1.3470541e-12 </wgt>
<wgt id='1188'> +1.4077928e-12 </wgt>
<wgt id='1189'> +1.3849887e-12 </wgt>
<wgt id='1190'> +1.3806430e-12 </wgt>
<wgt id='1191'> +1.3765065e-12 </wgt>
<wgt id='1192'> +1.3890625e-12 </wgt>
<wgt id='1193'> +1.3293411e-12 </wgt>
<wgt id='1194'> +1.3333271e-12 </wgt>
<wgt id='1195'> +1.3260317e-12 </wgt>
<wgt id='1196'> +1.3192693e-12 </wgt>
<wgt id='1197'> +1.3406253e-12 </wgt>
<wgt id='1198'> +1.3446964e-12 </wgt>
<wgt id='1199'> +1.3065881e-12 </wgt>
<wgt id='1200'> +1.3201569e-12 </wgt>
<wgt id='1201'> +1.3354943e-12 </wgt>
<wgt id='1202'> +1.3376374e-12 </wgt>
<wgt id='1203'> +1.3174736e-12 </wgt>
<wgt id='1204'> +1.3167023e-12 </wgt>
<wgt id='1205'> +1.3371785e-12 </wgt>
<wgt id='1206'> +1.3323961e-12 </wgt>
<wgt id='1207'> +1.3251900e-12 </wgt>
<wgt id='1208'> +1.3232456e-12 </wgt>
<wgt id='1209'> +1.3315487e-12 </wgt>
<wgt id='1210'> +1.3417498e-12 </wgt>
<wgt id='1211'> +1.3102173e-12 </wgt>
<wgt id='1212'> +1.3243134e-12 </wgt>
<wgt id='1213'> +1.3340527e-12 </wgt>
<wgt id='1214'> +1.3149080e-12 </wgt>
<wgt id='1215'> +1.3547982e-12 </wgt>
<wgt id='1216'> +1.3392354e-12 </wgt>
<wgt id='1217'> +1.3229784e-12 </wgt>
<wgt id='1218'> +1.3291038e-12 </wgt>
<wgt id='1219'> +1.3292634e-12 </wgt>
<wgt id='1220'> +1.3338676e-12 </wgt>
<wgt id='1221'> +1.3269441e-12 </wgt>
<wgt id='1222'> +1.3276754e-12 </wgt>
<wgt id='1223'> +1.3318599e-12 </wgt>
<wgt id='1224'> +1.3174072e-12 </wgt>
<wgt id='1225'> +1.3338947e-12 </wgt>
<wgt id='1226'> +1.3485932e-12 </wgt>
<wgt id='1227'> +1.3153160e-12 </wgt>
<wgt id='1228'> +1.3227787e-12 </wgt>
<wgt id='1229'> +1.3328632e-12 </wgt>
<wgt id='1230'> +1.3296201e-12 </wgt>
<wgt id='1231'> +1.3145467e-12 </wgt>
<wgt id='1232'> +1.2856893e-12 </wgt>
<wgt id='1233'> +1.3476468e-12 </wgt>
<wgt id='1234'> +1.3293411e-12 </wgt>
<wgt id='1235'> +1.3216407e-12 </wgt>
<wgt id='1236'> +1.3245360e-12 </wgt>
<wgt id='1237'> +1.3271804e-12 </wgt>
<wgt id='1238'> +1.3317021e-12 </wgt>
<wgt id='1239'> +1.3336101e-12 </wgt>
<wgt id='1240'> +1.3353725e-12 </wgt>
<wgt id='1241'> +1.2938696e-12 </wgt>
<wgt id='1242'> +1.2955507e-12 </wgt>
<wgt id='1243'> +1.2922210e-12 </wgt>
<wgt id='1244'> +1.2900809e-12 </wgt>
<wgt id='1245'> +1.2967290e-12 </wgt>
<wgt id='1246'> +1.2974486e-12 </wgt>
<wgt id='1247'> +1.2908819e-12 </wgt>
<wgt id='1248'> +1.3016993e-12 </wgt>
<wgt id='1249'> +1.2824331e-12 </wgt>
<wgt id='1250'> +1.2691572e-12 </wgt>
<wgt id='1251'> +1.3113329e-12 </wgt>
<wgt id='1252'> +1.2858177e-12 </wgt>
<wgt id='1253'> +1.3001668e-12 </wgt>
<wgt id='1254'> +1.2993849e-12 </wgt>
<wgt id='1255'> +1.2904635e-12 </wgt>
<wgt id='1256'> +1.2968743e-12 </wgt>
<wgt id='1257'> +1.2863673e-12 </wgt>
<wgt id='1258'> +1.3167763e-12 </wgt>
<wgt id='1259'> +1.2752908e-12 </wgt>
<wgt id='1260'> +1.3004721e-12 </wgt>
<wgt id='1261'> +1.2862156e-12 </wgt>
<wgt id='1262'> +1.2951469e-12 </wgt>
<wgt id='1263'> +1.2932550e-12 </wgt>
<wgt id='1264'> +1.2965412e-12 </wgt>
<wgt id='1265'> +1.2924762e-12 </wgt>
<wgt id='1266'> +1.2872944e-12 </wgt>
<wgt id='1267'> +1.2995291e-12 </wgt>
<wgt id='1268'> +1.2928035e-12 </wgt>
<wgt id='1269'> +1.2981064e-12 </wgt>
<wgt id='1270'> +1.2956238e-12 </wgt>
<wgt id='1271'> +1.2868917e-12 </wgt>
<wgt id='1272'> +1.2941877e-12 </wgt>
<wgt id='1273'> +1.2933185e-12 </wgt>
<wgt id='1274'> +1.2802685e-12 </wgt>
<wgt id='1275'> +1.3130520e-12 </wgt>
<wgt id='1276'> +1.2959839e-12 </wgt>
<wgt id='1277'> +1.2910106e-12 </wgt>
<wgt id='1278'> +1.2906984e-12 </wgt>
<wgt id='1279'> +1.2847828e-12 </wgt>
<wgt id='1280'> +1.3097347e-12 </wgt>
<wgt id='1281'> +1.2347811e-12 </wgt>
<wgt id='1282'> +1.2938696e-12 </wgt>
<wgt id='1283'> +1.2851319e-12 </wgt>
<wgt id='1284'> +1.2888071e-12 </wgt>
<wgt id='1285'> +1.2914881e-12 </wgt>
<wgt id='1286'> +1.2964339e-12 </wgt>
<wgt id='1287'> +1.2985630e-12 </wgt>
<wgt id='1288'> +1.3003417e-12 </wgt>
<wgt id='1289'> +1.4730391e-12 </wgt>
<wgt id='1290'> +1.4710331e-12 </wgt>
<wgt id='1291'> +1.4752074e-12 </wgt>
<wgt id='1292'> +1.4687235e-12 </wgt>
<wgt id='1293'> +1.4761599e-12 </wgt>
<wgt id='1294'> +1.4743443e-12 </wgt>
<wgt id='1295'> +1.4718658e-12 </wgt>
<wgt id='1296'> +1.4688973e-12 </wgt>
<wgt id='1297'> +1.4781648e-12 </wgt>
<wgt id='1298'> +1.4699309e-12 </wgt>
<wgt id='1299'> +1.4769350e-12 </wgt>
<wgt id='1300'> +1.4817625e-12 </wgt>
<wgt id='1301'> +1.4555694e-12 </wgt>
<wgt id='1302'> +1.4781077e-12 </wgt>
<wgt id='1303'> +1.4660352e-12 </wgt>
<wgt id='1304'> +1.4770504e-12 </wgt>
<wgt id='1305'> +1.4702202e-12 </wgt>
<wgt id='1306'> +1.4783189e-12 </wgt>
<wgt id='1307'> +1.4672727e-12 </wgt>
<wgt id='1308'> +1.5409369e-12 </wgt>
<wgt id='1309'> +1.4212924e-12 </wgt>
<wgt id='1310'> +1.4737592e-12 </wgt>
<wgt id='1311'> +1.4723983e-12 </wgt>
<wgt id='1312'> +1.4669680e-12 </wgt>
<wgt id='1313'> +1.4793641e-12 </wgt>
<wgt id='1314'> +1.4929636e-12 </wgt>
<wgt id='1315'> +1.4478188e-12 </wgt>
<wgt id='1316'> +1.4818523e-12 </wgt>
<wgt id='1317'> +1.4691363e-12 </wgt>
<wgt id='1318'> +1.4865315e-12 </wgt>
<wgt id='1319'> +1.4576687e-12 </wgt>
<wgt id='1320'> +1.4706655e-12 </wgt>
<wgt id='1321'> +1.4740641e-12 </wgt>
<wgt id='1322'> +1.4748434e-12 </wgt>
<wgt id='1323'> +1.4704991e-12 </wgt>
<wgt id='1324'> +1.4736911e-12 </wgt>
<wgt id='1325'> +1.4741033e-12 </wgt>
<wgt id='1326'> +1.4825672e-12 </wgt>
<wgt id='1327'> +1.4666729e-12 </wgt>
<wgt id='1328'> +1.4796093e-12 </wgt>
<wgt id='1329'> +1.4672147e-12 </wgt>
<wgt id='1330'> +1.5457352e-12 </wgt>
<wgt id='1331'> +1.3658558e-12 </wgt>
<wgt id='1332'> +1.4384666e-12 </wgt>
<wgt id='1333'> +1.4659017e-12 </wgt>
<wgt id='1334'> +1.5159025e-12 </wgt>
<wgt id='1335'> +1.3602540e-12 </wgt>
<wgt id='1336'> +1.4614271e-12 </wgt>
<wgt id='1337'> +1.4789036e-12 </wgt>
<wgt id='1338'> +1.4708029e-12 </wgt>
<wgt id='1339'> +1.4737345e-12 </wgt>
<wgt id='1340'> +1.4110825e-12 </wgt>
<wgt id='1341'> +1.4088404e-12 </wgt>
<wgt id='1342'> +1.4135150e-12 </wgt>
<wgt id='1343'> +1.4060389e-12 </wgt>
<wgt id='1344'> +1.4144687e-12 </wgt>
<wgt id='1345'> +1.4120281e-12 </wgt>
<wgt id='1346'> +1.4102787e-12 </wgt>
<wgt id='1347'> +1.4074621e-12 </wgt>
<wgt id='1348'> +1.4150824e-12 </wgt>
<wgt id='1349'> +1.4067458e-12 </wgt>
<wgt id='1350'> +1.4152773e-12 </wgt>
<wgt id='1351'> +1.4195187e-12 </wgt>
<wgt id='1352'> +1.3927419e-12 </wgt>
<wgt id='1353'> +1.4169130e-12 </wgt>
<wgt id='1354'> +1.4007074e-12 </wgt>
<wgt id='1355'> +1.4146271e-12 </wgt>
<wgt id='1356'> +1.4090386e-12 </wgt>
<wgt id='1357'> +1.4345446e-12 </wgt>
<wgt id='1358'> +1.3837436e-12 </wgt>
<wgt id='1359'> +1.4739609e-12 </wgt>
<wgt id='1360'> +1.3568268e-12 </wgt>
<wgt id='1361'> +1.4114496e-12 </wgt>
<wgt id='1362'> +1.4106845e-12 </wgt>
<wgt id='1363'> +1.4017806e-12 </wgt>
<wgt id='1364'> +1.4176434e-12 </wgt>
<wgt id='1365'> +1.3923919e-12 </wgt>
<wgt id='1366'> +1.4285267e-12 </wgt>
<wgt id='1367'> +1.4179720e-12 </wgt>
<wgt id='1368'> +1.4087496e-12 </wgt>
<wgt id='1369'> +1.4228621e-12 </wgt>
<wgt id='1370'> +1.3974094e-12 </wgt>
<wgt id='1371'> +1.4094311e-12 </wgt>
<wgt id='1372'> +1.4123265e-12 </wgt>
<wgt id='1373'> +1.4150650e-12 </wgt>
<wgt id='1374'> +1.4069112e-12 </wgt>
<wgt id='1375'> +1.4117087e-12 </wgt>
<wgt id='1376'> +1.4120162e-12 </wgt>
<wgt id='1377'> +1.4194186e-12 </wgt>
<wgt id='1378'> +1.4062610e-12 </wgt>
<wgt id='1379'> +1.4187946e-12 </wgt>
<wgt id='1380'> +1.4031647e-12 </wgt>
<wgt id='1381'> +1.4829183e-12 </wgt>
<wgt id='1382'> +1.3112936e-12 </wgt>
<wgt id='1383'> +1.3629951e-12 </wgt>
<wgt id='1384'> +1.4079239e-12 </wgt>
<wgt id='1385'> +1.4547378e-12 </wgt>
<wgt id='1386'> +1.3023433e-12 </wgt>
<wgt id='1387'> +1.4004512e-12 </wgt>
<wgt id='1388'> +1.4143838e-12 </wgt>
<wgt id='1389'> +1.4101830e-12 </wgt>
<wgt id='1390'> +1.4105174e-12 </wgt>
<wgt id='1391'> +1.4228337e-12 </wgt>
<wgt id='1392'> +1.3391219e-12 </wgt>
<wgt id='1393'> +1.3641411e-12 </wgt>
<wgt id='1394'> +1.3881666e-12 </wgt>
<wgt id='1395'> +1.4352360e-12 </wgt>
<wgt id='1396'> +1.4146141e-12 </wgt>
<wgt id='1397'> +1.4127393e-12 </wgt>
<wgt id='1398'> +1.4110618e-12 </wgt>
<wgt id='1399'> +1.4123886e-12 </wgt>
<wgt id='1400'> +1.4132926e-12 </wgt>
<wgt id='1401'> +1.4134700e-12 </wgt>
<wgt id='1402'> +1.4126777e-12 </wgt>
<wgt id='1403'> +1.4128620e-12 </wgt>
<wgt id='1404'> +1.4139421e-12 </wgt>
<wgt id='1405'> +1.4146141e-12 </wgt>
<wgt id='1406'> +1.4011559e-12 </wgt>
<wgt id='1407'> +1.4078447e-12 </wgt>
<wgt id='1408'> +1.4202974e-12 </wgt>
<wgt id='1409'> +1.4222011e-12 </wgt>
<wgt id='1410'> +1.3099066e-12 </wgt>
<wgt id='1411'> +1.3065109e-12 </wgt>
<wgt id='1412'> +1.3142400e-12 </wgt>
<wgt id='1413'> +1.3131783e-12 </wgt>
<wgt id='1414'> +1.3066601e-12 </wgt>
<wgt id='1415'> +1.3025481e-12 </wgt>
<wgt id='1416'> +1.3128644e-12 </wgt>
<wgt id='1417'> +1.3071576e-12 </wgt>
<wgt id='1418'> +1.3126093e-12 </wgt>
<wgt id='1419'> +1.3049526e-12 </wgt>
<wgt id='1420'> +1.3146544e-12 </wgt>
<wgt id='1421'> +1.2873771e-12 </wgt>
<wgt id='1422'> +1.3196419e-12 </wgt>
<wgt id='1423'> +1.3094582e-12 </wgt>
<wgt id='1424'> +1.3104643e-12 </wgt>
<wgt id='1425'> +1.3171996e-12 </wgt>
<wgt id='1426'> +1.3020306e-12 </wgt>
<wgt id='1427'> +1.3727068e-12 </wgt>
<wgt id='1428'> +1.2747124e-12 </wgt>
<wgt id='1429'> +1.2672552e-12 </wgt>
<wgt id='1430'> +1.3672585e-12 </wgt>
<wgt id='1431'> +1.3588740e-12 </wgt>
<wgt id='1432'> +1.2755932e-12 </wgt>
<wgt id='1433'> +1.3094897e-12 </wgt>
<wgt id='1434'> +1.3102702e-12 </wgt>
<wgt id='1435'> +1.3141259e-12 </wgt>
<wgt id='1436'> +1.2995949e-12 </wgt>
<wgt id='1437'> +1.3178122e-12 </wgt>
<wgt id='1438'> +1.3049934e-12 </wgt>
<wgt id='1439'> +1.3036104e-12 </wgt>
<wgt id='1440'> +1.3266946e-12 </wgt>
<wgt id='1441'> +1.3070421e-12 </wgt>
<wgt id='1442'> +1.3160575e-12 </wgt>
<wgt id='1443'> +1.3099622e-12 </wgt>
<wgt id='1444'> +1.3103873e-12 </wgt>
<wgt id='1445'> +1.3097855e-12 </wgt>
<wgt id='1446'> +1.3105005e-12 </wgt>
<wgt id='1447'> +1.3114396e-12 </wgt>
<wgt id='1448'> +1.3085749e-12 </wgt>
<wgt id='1449'> +1.3191999e-12 </wgt>
<wgt id='1450'> +1.3037594e-12 </wgt>
<wgt id='1451'> +1.2440518e-12 </wgt>
<wgt id='1452'> +1.4066062e-12 </wgt>
<wgt id='1453'> +1.3064145e-12 </wgt>
<wgt id='1454'> +1.3267414e-12 </wgt>
<wgt id='1455'> +1.3247844e-12 </wgt>
<wgt id='1456'> +1.2846652e-12 </wgt>
<wgt id='1457'> +1.2284167e-12 </wgt>
<wgt id='1458'> +1.3453353e-12 </wgt>
<wgt id='1459'> +1.2921474e-12 </wgt>
<wgt id='1460'> +1.3138416e-12 </wgt>
<wgt id='1461'> +1.3099066e-12 </wgt>
<wgt id='1462'> +1.2896909e-12 </wgt>
<wgt id='1463'> +1.3211724e-12 </wgt>
<wgt id='1464'> +1.3057191e-12 </wgt>
<wgt id='1465'> +1.2673588e-12 </wgt>
<wgt id='1466'> +1.2739989e-12 </wgt>
<wgt id='1467'> +1.2811856e-12 </wgt>
<wgt id='1468'> +1.2892752e-12 </wgt>
<wgt id='1469'> +1.2976748e-12 </wgt>
<wgt id='1470'> +1.3157071e-12 </wgt>
<wgt id='1471'> +1.3356942e-12 </wgt>
<wgt id='1472'> +1.3444427e-12 </wgt>
<wgt id='1473'> +1.3057191e-12 </wgt>
<wgt id='1474'> +1.2953140e-12 </wgt>
<wgt id='1475'> +1.3013766e-12 </wgt>
<wgt id='1476'> +1.3112137e-12 </wgt>
<wgt id='1477'> +1.3151287e-12 </wgt>
<wgt id='1478'> +1.2748175e-12 </wgt>
<wgt id='1479'> +1.2662320e-12 </wgt>
<wgt id='1480'> +1.2358818e-12 </wgt>
<wgt id='1481'> +1.2647972e-12 </wgt>
<wgt id='1482'> +1.2571970e-12 </wgt>
<wgt id='1483'> +1.3824031e-12 </wgt>
<wgt id='1484'> +1.2801233e-12 </wgt>
<wgt id='1485'> +1.2331627e-12 </wgt>
<wgt id='1486'> +1.2783962e-12 </wgt>
<wgt id='1487'> +1.2879767e-12 </wgt>
<wgt id='1488'> +1.2759317e-12 </wgt>
<wgt id='1489'> +1.2952597e-12 </wgt>
<wgt id='1490'> +1.2666413e-12 </wgt>
<wgt id='1491'> +1.2734443e-12 </wgt>
<wgt id='1492'> +1.2889754e-12 </wgt>
<wgt id='1493'> +1.2693490e-12 </wgt>
<wgt id='1494'> +1.2701168e-12 </wgt>
<wgt id='1495'> +1.2610043e-12 </wgt>
<wgt id='1496'> +1.2769926e-12 </wgt>
<wgt id='1497'> +1.2746621e-12 </wgt>
<wgt id='1498'> +1.2977648e-12 </wgt>
<wgt id='1499'> +1.2710161e-12 </wgt>
<wgt id='1500'> +1.2717570e-12 </wgt>
<wgt id='1501'> +1.2880053e-12 </wgt>
<wgt id='1502'> +1.2734061e-12 </wgt>
<wgt id='1503'> +1.2687610e-12 </wgt>
<wgt id='1504'> +1.2812121e-12 </wgt>
<wgt id='1505'> +1.2879742e-12 </wgt>
<wgt id='1506'> +1.2628462e-12 </wgt>
<wgt id='1507'> +1.2727184e-12 </wgt>
<wgt id='1508'> +1.2513412e-12 </wgt>
<wgt id='1509'> +1.3786338e-12 </wgt>
<wgt id='1510'> +1.3769887e-12 </wgt>
<wgt id='1511'> +1.3838012e-12 </wgt>
<wgt id='1512'> +1.3803738e-12 </wgt>
<wgt id='1513'> +1.3775555e-12 </wgt>
<wgt id='1514'> +1.3736366e-12 </wgt>
<wgt id='1515'> +1.3789458e-12 </wgt>
<wgt id='1516'> +1.3780073e-12 </wgt>
<wgt id='1517'> +1.3848034e-12 </wgt>
<wgt id='1518'> +1.3697986e-12 </wgt>
<wgt id='1519'> +1.3875195e-12 </wgt>
<wgt id='1520'> +1.3913309e-12 </wgt>
<wgt id='1521'> +1.3749945e-12 </wgt>
<wgt id='1522'> +1.3907716e-12 </wgt>
<wgt id='1523'> +1.3663603e-12 </wgt>
<wgt id='1524'> +1.3684852e-12 </wgt>
<wgt id='1525'> +1.3562859e-12 </wgt>
<wgt id='1526'> +1.3864498e-12 </wgt>
<wgt id='1527'> +1.3870381e-12 </wgt>
<wgt id='1528'> +1.3817964e-12 </wgt>
<wgt id='1529'> +1.3794296e-12 </wgt>
<wgt id='1530'> +1.3666552e-12 </wgt>
<wgt id='1531'> +1.3719925e-12 </wgt>
<wgt id='1532'> +1.3978227e-12 </wgt>
<wgt id='1533'> +1.3768601e-12 </wgt>
<wgt id='1534'> +1.3738771e-12 </wgt>
<wgt id='1535'> +1.3940327e-12 </wgt>
<wgt id='1536'> +1.3784994e-12 </wgt>
<wgt id='1537'> +1.3854022e-12 </wgt>
<wgt id='1538'> +1.3845619e-12 </wgt>
<wgt id='1539'> +1.3877408e-12 </wgt>
<wgt id='1540'> +1.3579116e-12 </wgt>
<wgt id='1541'> +1.3791815e-12 </wgt>
<wgt id='1542'> +1.3669775e-12 </wgt>
<wgt id='1543'> +1.3701525e-12 </wgt>
<wgt id='1544'> +1.3518191e-12 </wgt>
<wgt id='1545'> +1.3842869e-12 </wgt>
<wgt id='1546'> +1.4072554e-12 </wgt>
<wgt id='1547'> +1.3710933e-12 </wgt>
<wgt id='1548'> +1.3876544e-12 </wgt>
<wgt id='1549'> +1.3844407e-12 </wgt>
<wgt id='1550'> +1.3939175e-12 </wgt>
<wgt id='1551'> +1.3731738e-12 </wgt>
<wgt id='1552'> +1.3664453e-12 </wgt>
<wgt id='1553'> +1.3699162e-12 </wgt>
<wgt id='1554'> +1.3939314e-12 </wgt>
<wgt id='1555'> +1.3790058e-12 </wgt>
<wgt id='1556'> +1.3655286e-12 </wgt>
<wgt id='1557'> +1.3916276e-12 </wgt>
<wgt id='1558'> +1.3866925e-12 </wgt>
<wgt id='1559'> +1.3860058e-12 </wgt>
<wgt id='1560'> +1.3797606e-12 </wgt>
<wgt id='1561'> +1.3778571e-12 </wgt>
<wgt id='1562'> +1.3741951e-12 </wgt>
<wgt id='1563'> +1.3744233e-12 </wgt>
<wgt id='1564'> +1.3753283e-12 </wgt>
<wgt id='1565'> +1.3807447e-12 </wgt>
<wgt id='1566'> +1.3751970e-12 </wgt>
<wgt id='1567'> +1.3843334e-12 </wgt>
<wgt id='1568'> +1.3792147e-12 </wgt>
<wgt id='1569'> +1.3664269e-12 </wgt>
<wgt id='1570'> +1.3710550e-12 </wgt>
<wgt id='1571'> +1.3778634e-12 </wgt>
<wgt id='1572'> +1.3749738e-12 </wgt>
<wgt id='1573'> +1.3767488e-12 </wgt>
<wgt id='1574'> +1.3790118e-12 </wgt>
<wgt id='1575'> +1.3761746e-12 </wgt>
<wgt id='1576'> +1.3874649e-12 </wgt>
<wgt id='1577'> +1.3829156e-12 </wgt>
<wgt id='1578'> +1.3761413e-12 </wgt>
<wgt id='1579'> +1.3762452e-12 </wgt>
<wgt id='1580'> +1.3703160e-12 </wgt>
<wgt id='1581'> +1.3848537e-12 </wgt>
<wgt id='1582'> +1.3811427e-12 </wgt>
<wgt id='1583'> +1.3794616e-12 </wgt>
<wgt id='1584'> +1.3762966e-12 </wgt>
<wgt id='1585'> +1.3804165e-12 </wgt>
<wgt id='1586'> +1.3786878e-12 </wgt>
<wgt id='1587'> +1.3803684e-12 </wgt>
<wgt id='1588'> +1.3759426e-12 </wgt>
<wgt id='1589'> +1.3773595e-12 </wgt>
<wgt id='1590'> +1.3776327e-12 </wgt>
<wgt id='1591'> +1.3766486e-12 </wgt>
<wgt id='1592'> +1.3818887e-12 </wgt>
<wgt id='1593'> +1.3786925e-12 </wgt>
<wgt id='1594'> +1.3774314e-12 </wgt>
<wgt id='1595'> +1.3744813e-12 </wgt>
<wgt id='1596'> +1.3756677e-12 </wgt>
<wgt id='1597'> +1.3781824e-12 </wgt>
<wgt id='1598'> +1.3776644e-12 </wgt>
<wgt id='1599'> +1.3794768e-12 </wgt>
<wgt id='1600'> +1.3746360e-12 </wgt>
<wgt id='1601'> +1.3828006e-12 </wgt>
<wgt id='1602'> +1.3809523e-12 </wgt>
<wgt id='1603'> +1.3751476e-12 </wgt>
<wgt id='1604'> +1.3802014e-12 </wgt>
<wgt id='1605'> +1.3806854e-12 </wgt>
<wgt id='1606'> +1.3762336e-12 </wgt>
<wgt id='1607'> +1.3777918e-12 </wgt>
<wgt id='1608'> +1.3783759e-12 </wgt>
<wgt id='1609'> +1.3796474e-12 </wgt>
<wgt id='1610'> +1.3487406e-12 </wgt>
<wgt id='1611'> +1.3974928e-12 </wgt>
<wgt id='1612'> +1.4704008e-12 </wgt>
<wgt id='1613'> +1.3388706e-12 </wgt>
<wgt id='1614'> +1.4230597e-12 </wgt>
<wgt id='1615'> +1.4868860e-12 </wgt>
<wgt id='1616'> +1.5017880e-12 </wgt>
<wgt id='1617'> +1.4615505e-12 </wgt>
<wgt id='1618'> +1.3225434e-12 </wgt>
<wgt id='1619'> +1.3255178e-12 </wgt>
<wgt id='1620'> +1.4061863e-12 </wgt>
<wgt id='1621'> +1.4716097e-12 </wgt>
<wgt id='1622'> +1.4289788e-12 </wgt>
<wgt id='1623'> +1.5208763e-12 </wgt>
<wgt id='1624'> +1.3959379e-12 </wgt>
<wgt id='1625'> +1.3974878e-12 </wgt>
<wgt id='1626'> +1.5609044e-12 </wgt>
<wgt id='1627'> +1.4467622e-12 </wgt>
<wgt id='1628'> +1.5007794e-12 </wgt>
<wgt id='1629'> +1.3365738e-12 </wgt>
<wgt id='1630'> +1.4729068e-12 </wgt>
<wgt id='1631'> +1.3386669e-12 </wgt>
<wgt id='1632'> +1.5968059e-12 </wgt>
<wgt id='1633'> +1.6529054e-12 </wgt>
<wgt id='1634'> +1.4809903e-12 </wgt>
<wgt id='1635'> +1.5326756e-12 </wgt>
<wgt id='1636'> +1.3087721e-12 </wgt>
<wgt id='1637'> +1.4764911e-12 </wgt>
<wgt id='1638'> +1.5727106e-12 </wgt>
<wgt id='1639'> +1.5262395e-12 </wgt>
<wgt id='1640'> +1.5386248e-12 </wgt>
<wgt id='1641'> +1.4892896e-12 </wgt>
<wgt id='1642'> +1.5976159e-12 </wgt>
<wgt id='1643'> +1.4773189e-12 </wgt>
<wgt id='1644'> +1.5314577e-12 </wgt>
<wgt id='1645'> +1.4723536e-12 </wgt>
<wgt id='1646'> +1.5072056e-12 </wgt>
<wgt id='1647'> +1.6149058e-12 </wgt>
<wgt id='1648'> +1.4585252e-12 </wgt>
<wgt id='1649'> +1.4696681e-12 </wgt>
<wgt id='1650'> +1.5642393e-12 </wgt>
<wgt id='1651'> +1.4203017e-12 </wgt>
<wgt id='1652'> +1.4082675e-12 </wgt>
<wgt id='1653'> +1.4025959e-12 </wgt>
<wgt id='1654'> +1.4182693e-12 </wgt>
<wgt id='1655'> +1.3888768e-12 </wgt>
<wgt id='1656'> +1.6146391e-12 </wgt>
<wgt id='1657'> +1.3372376e-12 </wgt>
<wgt id='1658'> +1.7025492e-12 </wgt>
<wgt id='1659'> +1.3959379e-12 </wgt>
<wgt id='1660'> +1.3232112e-12 </wgt>
<wgt id='1661'> +1.5604536e-12 </wgt>
<wgt id='1662'> +1.5430833e-12 </wgt>
<wgt id='1663'> +1.5027328e-12 </wgt>
<wgt id='1664'> +1.5508086e-12 </wgt>
<wgt id='1665'> +1.7528564e-12 </wgt>
<wgt id='1666'> +1.4212461e-12 </wgt>
<wgt id='1667'> +1.3895403e-12 </wgt>
<wgt id='1668'> +1.3529756e-12 </wgt>
<wgt id='1669'> +1.3413521e-12 </wgt>
<wgt id='1670'> +1.4041378e-12 </wgt>
<wgt id='1671'> +1.5064321e-12 </wgt>
<wgt id='1672'> +1.4431228e-12 </wgt>
<wgt id='1673'> +1.4973142e-12 </wgt>
<wgt id='1674'> +1.4879660e-12 </wgt>
<wgt id='1675'> +1.5144483e-12 </wgt>
<wgt id='1676'> +1.4407305e-12 </wgt>
<wgt id='1677'> +1.4348778e-12 </wgt>
<wgt id='1678'> +1.3747955e-12 </wgt>
<wgt id='1679'> +1.4863085e-12 </wgt>
<wgt id='1680'> +1.4508390e-12 </wgt>
<wgt id='1681'> +1.4880702e-12 </wgt>
<wgt id='1682'> +1.4974960e-12 </wgt>
<wgt id='1683'> +1.5992707e-12 </wgt>
<wgt id='1684'> +1.5373334e-12 </wgt>
<wgt id='1685'> +1.5113266e-12 </wgt>
<wgt id='1686'> +1.4941298e-12 </wgt>
<wgt id='1687'> +1.4623901e-12 </wgt>
<wgt id='1688'> +1.6049164e-12 </wgt>
<wgt id='1689'> +1.4021631e-12 </wgt>
<wgt id='1690'> +1.4847814e-12 </wgt>
<wgt id='1691'> +1.4681463e-12 </wgt>
<wgt id='1692'> +1.3797978e-12 </wgt>
<wgt id='1693'> +1.4739806e-12 </wgt>
<wgt id='1694'> +1.4232783e-12 </wgt>
<wgt id='1695'> +1.5828287e-12 </wgt>
<wgt id='1696'> +1.4461531e-12 </wgt>
<wgt id='1697'> +1.3556605e-12 </wgt>
<wgt id='1698'> +1.4745214e-12 </wgt>
<wgt id='1699'> +1.3602614e-12 </wgt>
<wgt id='1700'> +1.4639164e-12 </wgt>
<wgt id='1701'> +1.3324295e-12 </wgt>
<wgt id='1702'> +1.4142180e-12 </wgt>
<wgt id='1703'> +1.4374493e-12 </wgt>
<wgt id='1704'> +1.4680483e-12 </wgt>
<wgt id='1705'> +1.5539895e-12 </wgt>
<wgt id='1706'> +1.4072550e-12 </wgt>
<wgt id='1707'> +1.4722261e-12 </wgt>
<wgt id='1708'> +1.5065669e-12 </wgt>
<wgt id='1709'> +1.5272524e-12 </wgt>
<wgt id='1710'> +1.4785173e-12 </wgt>
<wgt id='1711'> +1.6720098e-12 </wgt>
<wgt id='1712'> +1.3816514e-12 </wgt>
<wgt id='1713'> +1.1614241e-12 </wgt>
<wgt id='1714'> +1.1008783e-12 </wgt>
<wgt id='1715'> +1.2050576e-12 </wgt>
<wgt id='1716'> +1.1373544e-12 </wgt>
<wgt id='1717'> +1.1035076e-12 </wgt>
<wgt id='1718'> +1.1230512e-12 </wgt>
<wgt id='1719'> +1.2758827e-12 </wgt>
<wgt id='1720'> +1.1401433e-12 </wgt>
<wgt id='1721'> +1.1575293e-12 </wgt>
<wgt id='1722'> +1.1917190e-12 </wgt>
<wgt id='1723'> +1.1628818e-12 </wgt>
<wgt id='1724'> +1.0839564e-12 </wgt>
<wgt id='1725'> +1.1192723e-12 </wgt>
<wgt id='1726'> +1.2058839e-12 </wgt>
<wgt id='1727'> +1.0714491e-12 </wgt>
<wgt id='1728'> +1.2882215e-12 </wgt>
<wgt id='1729'> +1.1597501e-12 </wgt>
<wgt id='1730'> +1.1452920e-12 </wgt>
<wgt id='1731'> +1.3249921e-12 </wgt>
<wgt id='1732'> +1.0804662e-12 </wgt>
<wgt id='1733'> +1.1098995e-12 </wgt>
<wgt id='1734'> +1.1281573e-12 </wgt>
<wgt id='1735'> +1.1009922e-12 </wgt>
<wgt id='1736'> +1.2380600e-12 </wgt>
<wgt id='1737'> +1.0509962e-12 </wgt>
<wgt id='1738'> +1.1357936e-12 </wgt>
<wgt id='1739'> +1.1843331e-12 </wgt>
<wgt id='1740'> +1.1690845e-12 </wgt>
<wgt id='1741'> +1.0442413e-12 </wgt>
<wgt id='1742'> +1.1781735e-12 </wgt>
<wgt id='1743'> +1.1775051e-12 </wgt>
<wgt id='1744'> +1.2269887e-12 </wgt>
<wgt id='1745'> +1.1925555e-12 </wgt>
<wgt id='1746'> +1.1133669e-12 </wgt>
<wgt id='1747'> +1.2075728e-12 </wgt>
<wgt id='1748'> +1.2032230e-12 </wgt>
<wgt id='1749'> +1.1620366e-12 </wgt>
<wgt id='1750'> +1.2085366e-12 </wgt>
<wgt id='1751'> +1.0957661e-12 </wgt>
<wgt id='1752'> +1.1230390e-12 </wgt>
<wgt id='1753'> +1.1350386e-12 </wgt>
<wgt id='1754'> +1.1258585e-12 </wgt>
<wgt id='1755'> +1.2116350e-12 </wgt>
<wgt id='1756'> +1.1704108e-12 </wgt>
<wgt id='1757'> +1.2430668e-12 </wgt>
<wgt id='1758'> +1.2104092e-12 </wgt>
<wgt id='1759'> +1.2114525e-12 </wgt>
<wgt id='1760'> +1.2079959e-12 </wgt>
<wgt id='1761'> +1.1546830e-12 </wgt>
<wgt id='1762'> +1.1698029e-12 </wgt>
<wgt id='1763'> +1.1855706e-12 </wgt>
<wgt id='1764'> +1.0403889e-12 </wgt>
<wgt id='1765'> +1.1807673e-12 </wgt>
<wgt id='1766'> +1.1978464e-12 </wgt>
<wgt id='1767'> +1.2387579e-12 </wgt>
<wgt id='1768'> +1.1503102e-12 </wgt>
<wgt id='1769'> +1.1546932e-12 </wgt>
<wgt id='1770'> +1.2539610e-12 </wgt>
<wgt id='1771'> +1.1184305e-12 </wgt>
<wgt id='1772'> +1.1474507e-12 </wgt>
<wgt id='1773'> +1.1568813e-12 </wgt>
<wgt id='1774'> +1.2332270e-12 </wgt>
<wgt id='1775'> +1.1481444e-12 </wgt>
<wgt id='1776'> +1.1545681e-12 </wgt>
<wgt id='1777'> +1.2555324e-12 </wgt>
<wgt id='1778'> +1.1397563e-12 </wgt>
<wgt id='1779'> +1.2435098e-12 </wgt>
<wgt id='1780'> +1.2172493e-12 </wgt>
<wgt id='1781'> +1.1597331e-12 </wgt>
<wgt id='1782'> +1.0432670e-12 </wgt>
<wgt id='1783'> +1.1075588e-12 </wgt>
<wgt id='1784'> +1.2280002e-12 </wgt>
<wgt id='1785'> +1.1495745e-12 </wgt>
<wgt id='1786'> +1.0413935e-12 </wgt>
<wgt id='1787'> +1.2008671e-12 </wgt>
<wgt id='1788'> +1.1090272e-12 </wgt>
<wgt id='1789'> +1.0611514e-12 </wgt>
<wgt id='1790'> +1.1678571e-12 </wgt>
<wgt id='1791'> +1.1951144e-12 </wgt>
<wgt id='1792'> +1.1135348e-12 </wgt>
<wgt id='1793'> +1.1719641e-12 </wgt>
<wgt id='1794'> +1.1478481e-12 </wgt>
<wgt id='1795'> +1.0908666e-12 </wgt>
<wgt id='1796'> +1.1806769e-12 </wgt>
<wgt id='1797'> +1.1139448e-12 </wgt>
<wgt id='1798'> +1.1264573e-12 </wgt>
<wgt id='1799'> +1.1853672e-12 </wgt>
<wgt id='1800'> +1.1020826e-12 </wgt>
<wgt id='1801'> +1.1069077e-12 </wgt>
<wgt id='1802'> +1.1518231e-12 </wgt>
<wgt id='1803'> +1.0840472e-12 </wgt>
<wgt id='1804'> +1.1304146e-12 </wgt>
<wgt id='1805'> +1.2193967e-12 </wgt>
<wgt id='1806'> +1.1902747e-12 </wgt>
<wgt id='1807'> +1.1609412e-12 </wgt>
<wgt id='1808'> +1.2900904e-12 </wgt>
<wgt id='1809'> +1.1751768e-12 </wgt>
<wgt id='1810'> +1.0483695e-12 </wgt>
<wgt id='1811'> +1.2792490e-12 </wgt>
<wgt id='1812'> +1.2203561e-12 </wgt>
<wgt id='1813'> +1.2116878e-12 </wgt>
<wgt id='1814'> +1.0065315e-12 </wgt>
<wgt id='1815'> +1.1629569e-12 </wgt>
<wgt id='1816'> +1.1614241e-12 </wgt>
<wgt id='1817'> +1.1008783e-12 </wgt>
<wgt id='1818'> +1.2050576e-12 </wgt>
<wgt id='1819'> +1.1373544e-12 </wgt>
<wgt id='1820'> +1.1035076e-12 </wgt>
<wgt id='1821'> +1.1230512e-12 </wgt>
<wgt id='1822'> +1.2758827e-12 </wgt>
<wgt id='1823'> +1.1401433e-12 </wgt>
<wgt id='1824'> +1.1575293e-12 </wgt>
<wgt id='1825'> +1.1917190e-12 </wgt>
<wgt id='1826'> +1.1628818e-12 </wgt>
<wgt id='1827'> +1.0839564e-12 </wgt>
<wgt id='1828'> +1.1192723e-12 </wgt>
<wgt id='1829'> +1.2058839e-12 </wgt>
<wgt id='1830'> +1.0714491e-12 </wgt>
<wgt id='1831'> +1.2882215e-12 </wgt>
<wgt id='1832'> +1.1597501e-12 </wgt>
<wgt id='1833'> +1.1452920e-12 </wgt>
<wgt id='1834'> +1.3249921e-12 </wgt>
<wgt id='1835'> +1.0804662e-12 </wgt>
<wgt id='1836'> +1.1098995e-12 </wgt>
<wgt id='1837'> +1.1281573e-12 </wgt>
<wgt id='1838'> +1.1009922e-12 </wgt>
<wgt id='1839'> +1.2380600e-12 </wgt>
<wgt id='1840'> +1.0509962e-12 </wgt>
<wgt id='1841'> +1.1357936e-12 </wgt>
<wgt id='1842'> +1.1843331e-12 </wgt>
<wgt id='1843'> +1.1690845e-12 </wgt>
<wgt id='1844'> +1.0442413e-12 </wgt>
<wgt id='1845'> +1.1781735e-12 </wgt>
<wgt id='1846'> +1.1775051e-12 </wgt>
<wgt id='1847'> +1.2269887e-12 </wgt>
<wgt id='1848'> +1.1925555e-12 </wgt>
<wgt id='1849'> +1.1133669e-12 </wgt>
<wgt id='1850'> +1.2075728e-12 </wgt>
<wgt id='1851'> +1.2032230e-12 </wgt>
<wgt id='1852'> +1.1620366e-12 </wgt>
<wgt id='1853'> +1.2085366e-12 </wgt>
<wgt id='1854'> +1.0957661e-12 </wgt>
<wgt id='1855'> +1.1230390e-12 </wgt>
<wgt id='1856'> +1.1350386e-12 </wgt>
<wgt id='1857'> +1.1258585e-12 </wgt>
<wgt id='1858'> +1.2116350e-12 </wgt>
<wgt id='1859'> +1.1704108e-12 </wgt>
<wgt id='1860'> +1.2430668e-12 </wgt>
<wgt id='1861'> +1.2104092e-12 </wgt>
<wgt id='1862'> +1.2114525e-12 </wgt>
<wgt id='1863'> +1.2079959e-12 </wgt>
<wgt id='1864'> +1.1546830e-12 </wgt>
<wgt id='1865'> +1.1698029e-12 </wgt>
<wgt id='1866'> +1.1855706e-12 </wgt>
<wgt id='1867'> +1.0403889e-12 </wgt>
<wgt id='1868'> +1.1807673e-12 </wgt>
<wgt id='1869'> +1.1978464e-12 </wgt>
<wgt id='1870'> +1.2387579e-12 </wgt>
<wgt id='1871'> +1.1503102e-12 </wgt>
<wgt id='1872'> +1.1546932e-12 </wgt>
<wgt id='1873'> +1.2539610e-12 </wgt>
<wgt id='1874'> +1.1184305e-12 </wgt>
<wgt id='1875'> +1.1474507e-12 </wgt>
<wgt id='1876'> +1.1568813e-12 </wgt>
<wgt id='1877'> +1.2332270e-12 </wgt>
<wgt id='1878'> +1.1481444e-12 </wgt>
<wgt id='1879'> +1.1545681e-12 </wgt>
<wgt id='1880'> +1.2555324e-12 </wgt>
<wgt id='1881'> +1.1397563e-12 </wgt>
<wgt id='1882'> +1.2435098e-12 </wgt>
<wgt id='1883'> +1.2172493e-12 </wgt>
<wgt id='1884'> +1.1597331e-12 </wgt>
<wgt id='1885'> +1.0432670e-12 </wgt>
<wgt id='1886'> +1.1075588e-12 </wgt>
<wgt id='1887'> +1.2280002e-12 </wgt>
<wgt id='1888'> +1.1495745e-12 </wgt>
<wgt id='1889'> +1.0413935e-12 </wgt>
<wgt id='1890'> +1.2008671e-12 </wgt>
<wgt id='1891'> +1.1090272e-12 </wgt>
<wgt id='1892'> +1.0611514e-12 </wgt>
<wgt id='1893'> +1.1678571e-12 </wgt>
<wgt id='1894'> +1.1951144e-12 </wgt>
<wgt id='1895'> +1.1135348e-12 </wgt>
<wgt id='1896'> +1.1719641e-12 </wgt>
<wgt id='1897'> +1.1478481e-12 </wgt>
<wgt id='1898'> +1.0908666e-12 </wgt>
<wgt id='1899'> +1.1806769e-12 </wgt>
<wgt id='1900'> +1.1139448e-12 </wgt>
<wgt id='1901'> +1.1264573e-12 </wgt>
<wgt id='1902'> +1.1853672e-12 </wgt>
<wgt id='1903'> +1.1020826e-12 </wgt>
<wgt id='1904'> +1.1069077e-12 </wgt>
<wgt id='1905'> +1.1518231e-12 </wgt>
<wgt id='1906'> +1.0840472e-12 </wgt>
<wgt id='1907'> +1.1304146e-12 </wgt>
<wgt id='1908'> +1.2193967e-12 </wgt>
<wgt id='1909'> +1.1902747e-12 </wgt>
<wgt id='1910'> +1.1609412e-12 </wgt>
<wgt id='1911'> +1.2900904e-12 </wgt>
<wgt id='1912'> +1.1751768e-12 </wgt>
<wgt id='1913'> +1.0483695e-12 </wgt>
<wgt id='1914'> +1.2792490e-12 </wgt>
<wgt id='1915'> +1.2203561e-12 </wgt>
<wgt id='1916'> +1.2116878e-12 </wgt>
<wgt id='1917'> +1.1530753e-12 </wgt>
<wgt id='1918'> +1.1840877e-12 </wgt>
<wgt id='1919'> +1.2090765e-12 </wgt>
</rwgt>
</event>
<event>
 9      1 +1.5607000e-12 2.65580500e+01 7.81860800e-03 1.48722100e-01
       21 -1    0    0  501  502 +0.0000000000e+00 +0.0000000000e+00 +1.3252815260e+00 1.3252815260e+00 0.0000000000e+00 0.0000e+00 -1.0000e+00
        1 -1    0    0  502    0 -0.0000000000e+00 -0.0000000000e+00 -5.5048647724e+02 5.5048647724e+02 0.0000000000e+00 0.0000e+00 -1.0000e+00
     1023  2    1    2    0    0 -9.2641926172e+00 +1.9862101278e+01 -4.1707132293e+02 4.1791604254e+02 1.5000062280e+01 0.0000e+00 0.0000e+00
  1000023  2    3    3    0    0 +1.4616365930e+00 +5.1707398897e+00 -1.2423479186e+02 1.2447249866e+02 5.4996802606e+00 0.0000e+00 0.0000e+00
        1  1    1    2  501    0 +9.2641926172e+00 -1.9862101278e+01 -1.3208987278e+02 1.3389571623e+02 0.0000000000e+00 0.0000e+00 -1.0000e+00
  1000022  1    4    4    0    0 +1.1846960389e+00 +4.6382668240e+00 -1.1917555681e+02 1.1937642299e+02 5.0000000000e+00 0.0000e+00 1.0000e+00
      -11  1    4    4    0    0 +2.3773220828e-01 +3.8038359415e-01 -3.4093872313e+00 3.4387686511e+00 5.1100000000e-04 0.0000e+00 -1.0000e+00
       11  1    4    4    0    0 +3.9208345867e-02 +1.5208947157e-01 -1.6498478127e+00 1.6573070228e+00 5.1100000000e-04 0.0000e+00 1.0000e+00
  1000022  1    3    3    0    0 -1.0725829210e+01 +1.4691361388e+01 -2.9283653107e+02 2.9344354388e+02 5.0000000000e+00 0.0000e+00 -1.0000e+00
<mgrwt>
<rscale>  1 0.26558053E+02</rscale>
<asrwt>0</asrwt>
<pdfrwt beam="1">  1       21 0.20388939E-03 0.26558053E+02</pdfrwt>
<pdfrwt beam="2">  1        1 0.84690260E-01 0.26558053E+02</pdfrwt>
<totfact> 0.10910510E+07</totfact>
</mgrwt>
<rwgt>
<wgt id='1001'> +1.5607000e-12 </wgt>
<wgt id='1002'> +1.6470578e-12 </wgt>
<wgt id='1003'> +1.6543390e-12 </wgt>
<wgt id='1004'> +1.5413918e-12 </wgt>
<wgt id='1005'> +1.6670122e-12 </wgt>
<wgt id='1006'> +1.3609528e-12 </wgt>
<wgt id='1007'> +1.4564820e-12 </wgt>
<wgt id='1008'> +1.4649385e-12 </wgt>
<wgt id='1009'> +1.3403339e-12 </wgt>
<wgt id='1010'> +1.4798363e-12 </wgt>
<wgt id='1011'> +1.8326910e-12 </wgt>
<wgt id='1012'> +1.8975827e-12 </wgt>
<wgt id='1013'> +1.9024994e-12 </wgt>
<wgt id='1014'> +1.8171088e-12 </wgt>
<wgt id='1015'> +1.9107424e-12 </wgt>
<wgt id='1016'> +1.9095799e-12 </wgt>
<wgt id='1017'> +1.9337026e-12 </wgt>
<wgt id='1018'> +1.9349298e-12 </wgt>
<wgt id='1019'> +1.9024994e-12 </wgt>
<wgt id='1020'> +1.9366170e-12 </wgt>
<wgt id='1021'> +1.6651811e-12 </wgt>
<wgt id='1022'> +1.7099600e-12 </wgt>
<wgt id='1023'> +1.7134052e-12 </wgt>
<wgt id='1024'> +1.6543390e-12 </wgt>
<wgt id='1025'> +1.7191693e-12 </wgt>
<wgt id='1026'> +2.2423719e-12 </wgt>
<wgt id='1027'> +2.2278275e-12 </wgt>
<wgt id='1028'> +2.2251804e-12 </wgt>
<wgt id='1029'> +2.2428098e-12 </wgt>
<wgt id='1030'> +2.2197656e-12 </wgt>
<wgt id='1031'> +1.1763510e-12 </wgt>
<wgt id='1032'> +1.3267678e-12 </wgt>
<wgt id='1033'> +1.3403339e-12 </wgt>
<wgt id='1034'> +1.1442135e-12 </wgt>
<wgt id='1035'> +1.3645344e-12 </wgt>
<wgt id='1036'> +1.0257950e-12 </wgt>
<wgt id='1037'> +1.1732517e-12 </wgt>
<wgt id='1038'> +1.1868829e-12 </wgt>
<wgt id='1039'> +9.9496328e-13 </wgt>
<wgt id='1040'> +1.2113214e-12 </wgt>
<wgt id='1041'> +1.3813596e-12 </wgt>
<wgt id='1042'> +1.5285752e-12 </wgt>
<wgt id='1043'> +1.5413918e-12 </wgt>
<wgt id='1044'> +1.3488852e-12 </wgt>
<wgt id='1045'> +1.5640400e-12 </wgt>
<wgt id='1046'> +1.5607000e-12 </wgt>
<wgt id='1047'> +1.5816598e-12 </wgt>
<wgt id='1048'> +1.6353118e-12 </wgt>
<wgt id='1049'> +1.4866802e-12 </wgt>
<wgt id='1050'> +1.5542346e-12 </wgt>
<wgt id='1051'> +1.5509580e-12 </wgt>
<wgt id='1052'> +1.5382338e-12 </wgt>
<wgt id='1053'> +1.6435503e-12 </wgt>
<wgt id='1054'> +1.5856129e-12 </wgt>
<wgt id='1055'> +1.5583721e-12 </wgt>
<wgt id='1056'> +1.4567095e-12 </wgt>
<wgt id='1057'> +1.5180335e-12 </wgt>
<wgt id='1058'> +1.5242774e-12 </wgt>
<wgt id='1059'> +1.5503884e-12 </wgt>
<wgt id='1060'> +1.5372755e-12 </wgt>
<wgt id='1061'> +1.6039627e-12 </wgt>
<wgt id='1062'> +1.5298507e-12 </wgt>
<wgt id='1063'> +1.5090049e-12 </wgt>
<wgt id='1064'> +1.5770782e-12 </wgt>
<wgt id='1065'> +1.5994878e-12 </wgt>
<wgt id='1066'> +1.5689906e-12 </wgt>
<wgt id='1067'> +1.6212568e-12 </wgt>
<wgt id='1068'> +1.6362608e-12 </wgt>
<wgt id='1069'> +1.6453484e-12 </wgt>
<wgt id='1070'> +1.5472364e-12 </wgt>
<wgt id='1071'> +1.5690116e-12 </wgt>
<wgt id='1072'> +1.5264183e-12 </wgt>
<wgt id='1073'> +1.5558788e-12 </wgt>
<wgt id='1074'> +1.5859350e-12 </wgt>
<wgt id='1075'> +1.5184101e-12 </wgt>
<wgt id='1076'> +1.5981632e-12 </wgt>
<wgt id='1077'> +1.5979970e-12 </wgt>
<wgt id='1078'> +1.5632030e-12 </wgt>
<wgt id='1079'> +1.5956965e-12 </wgt>
<wgt id='1080'> +1.5434914e-12 </wgt>
<wgt id='1081'> +1.5085466e-12 </wgt>
<wgt id='1082'> +1.5447284e-12 </wgt>
<wgt id='1083'> +1.5313039e-12 </wgt>
<wgt id='1084'> +1.5350247e-12 </wgt>
<wgt id='1085'> +1.5894600e-12 </wgt>
<wgt id='1086'> +1.5717735e-12 </wgt>
<wgt id='1087'> +1.5507779e-12 </wgt>
<wgt id='1088'> +1.5695084e-12 </wgt>
<wgt id='1089'> +1.5617370e-12 </wgt>
<wgt id='1090'> +1.5784750e-12 </wgt>
<wgt id='1091'> +1.5741137e-12 </wgt>
<wgt id='1092'> +1.5129653e-12 </wgt>
<wgt id='1093'> +1.5939401e-12 </wgt>
<wgt id='1094'> +1.5827409e-12 </wgt>
<wgt id='1095'> +1.6227895e-12 </wgt>
<wgt id='1096'> +1.5109644e-12 </wgt>
<wgt id='1097'> +1.5792636e-12 </wgt>
<wgt id='1098'> +1.6162345e-12 </wgt>
<wgt id='1099'> +1.5491143e-12 </wgt>
<wgt id='1100'> +1.6167904e-12 </wgt>
<wgt id='1101'> +1.5202598e-12 </wgt>
<wgt id='1102'> +1.5467533e-12 </wgt>
<wgt id='1103'> +1.5423754e-12 </wgt>
<wgt id='1104'> +1.5876283e-12 </wgt>
<wgt id='1105'> +1.4975002e-12 </wgt>
<wgt id='1106'> +1.5545118e-12 </wgt>
<wgt id='1107'> +1.6200181e-12 </wgt>
<wgt id='1108'> +1.5508720e-12 </wgt>
<wgt id='1109'> +1.5298338e-12 </wgt>
<wgt id='1110'> +1.5162246e-12 </wgt>
<wgt id='1111'> +1.5656354e-12 </wgt>
<wgt id='1112'> +1.5573155e-12 </wgt>
<wgt id='1113'> +1.6196343e-12 </wgt>
<wgt id='1114'> +1.5963832e-12 </wgt>
<wgt id='1115'> +1.5810002e-12 </wgt>
<wgt id='1116'> +1.6553068e-12 </wgt>
<wgt id='1117'> +1.5944485e-12 </wgt>
<wgt id='1118'> +1.5899472e-12 </wgt>
<wgt id='1119'> +1.5116210e-12 </wgt>
<wgt id='1120'> +1.5255616e-12 </wgt>
<wgt id='1121'> +1.5151627e-12 </wgt>
<wgt id='1122'> +1.5169447e-12 </wgt>
<wgt id='1123'> +1.5910801e-12 </wgt>
<wgt id='1124'> +1.6298908e-12 </wgt>
<wgt id='1125'> +1.4896560e-12 </wgt>
<wgt id='1126'> +1.5033428e-12 </wgt>
<wgt id='1127'> +1.5920688e-12 </wgt>
<wgt id='1128'> +1.5298507e-12 </wgt>
<wgt id='1129'> +1.4868402e-12 </wgt>
<wgt id='1130'> +1.5513014e-12 </wgt>
<wgt id='1131'> +1.5883654e-12 </wgt>
<wgt id='1132'> +1.6330350e-12 </wgt>
<wgt id='1133'> +1.5454450e-12 </wgt>
<wgt id='1134'> +1.5544409e-12 </wgt>
<wgt id='1135'> +1.4054622e-12 </wgt>
<wgt id='1136'> +1.5230246e-12 </wgt>
<wgt id='1137'> +1.5815018e-12 </wgt>
<wgt id='1138'> +1.5371984e-12 </wgt>
<wgt id='1139'> +1.5695533e-12 </wgt>
<wgt id='1140'> +1.6042651e-12 </wgt>
<wgt id='1141'> +1.5835102e-12 </wgt>
<wgt id='1142'> +1.6322451e-12 </wgt>
<wgt id='1143'> +1.4846710e-12 </wgt>
<wgt id='1144'> +1.5345127e-12 </wgt>
<wgt id='1145'> +1.5212523e-12 </wgt>
<wgt id='1146'> +1.5891291e-12 </wgt>
<wgt id='1147'> +1.4024415e-12 </wgt>
<wgt id='1148'> +1.4305730e-12 </wgt>
<wgt id='1149'> +1.3558007e-12 </wgt>
<wgt id='1150'> +1.4261739e-12 </wgt>
<wgt id='1151'> +1.7081647e-12 </wgt>
<wgt id='1152'> +2.3605023e-12 </wgt>
<wgt id='1153'> +2.3518777e-12 </wgt>
<wgt id='1154'> +2.3654616e-12 </wgt>
<wgt id='1155'> +2.3695542e-12 </wgt>
<wgt id='1156'> +2.3559263e-12 </wgt>
<wgt id='1157'> +2.3644212e-12 </wgt>
<wgt id='1158'> +2.3552050e-12 </wgt>
<wgt id='1159'> +2.3638973e-12 </wgt>
<wgt id='1160'> +2.3583480e-12 </wgt>
<wgt id='1161'> +2.3696232e-12 </wgt>
<wgt id='1162'> +2.3539372e-12 </wgt>
<wgt id='1163'> +2.3591887e-12 </wgt>
<wgt id='1164'> +2.3618126e-12 </wgt>
<wgt id='1165'> +2.3564356e-12 </wgt>
<wgt id='1166'> +2.3646100e-12 </wgt>
<wgt id='1167'> +2.3856171e-12 </wgt>
<wgt id='1168'> +2.3301271e-12 </wgt>
<wgt id='1169'> +2.3916734e-12 </wgt>
<wgt id='1170'> +2.3350207e-12 </wgt>
<wgt id='1171'> +2.3497549e-12 </wgt>
<wgt id='1172'> +2.3725407e-12 </wgt>
<wgt id='1173'> +2.3343210e-12 </wgt>
<wgt id='1174'> +2.3854871e-12 </wgt>
<wgt id='1175'> +2.3507266e-12 </wgt>
<wgt id='1176'> +2.3669390e-12 </wgt>
<wgt id='1177'> +2.3626205e-12 </wgt>
<wgt id='1178'> +2.3474273e-12 </wgt>
<wgt id='1179'> +2.3446558e-12 </wgt>
<wgt id='1180'> +2.3644491e-12 </wgt>
<wgt id='1181'> +2.3477490e-12 </wgt>
<wgt id='1182'> +2.3609125e-12 </wgt>
<wgt id='1183'> +2.3623370e-12 </wgt>
<wgt id='1184'> +2.3600913e-12 </wgt>
<wgt id='1185'> +2.3534368e-12 </wgt>
<wgt id='1186'> +2.3637939e-12 </wgt>
<wgt id='1187'> +2.3673229e-12 </wgt>
<wgt id='1188'> +2.3580476e-12 </wgt>
<wgt id='1189'> +2.3536690e-12 </wgt>
<wgt id='1190'> +2.3334463e-12 </wgt>
<wgt id='1191'> +2.3618109e-12 </wgt>
<wgt id='1192'> +2.3722675e-12 </wgt>
<wgt id='1193'> +1.4240847e-12 </wgt>
<wgt id='1194'> +1.4042291e-12 </wgt>
<wgt id='1195'> +1.4403721e-12 </wgt>
<wgt id='1196'> +1.4269413e-12 </wgt>
<wgt id='1197'> +1.4209147e-12 </wgt>
<wgt id='1198'> +1.4244848e-12 </wgt>
<wgt id='1199'> +1.4235143e-12 </wgt>
<wgt id='1200'> +1.4313553e-12 </wgt>
<wgt id='1201'> +1.4192493e-12 </wgt>
<wgt id='1202'> +1.4231095e-12 </wgt>
<wgt id='1203'> +1.4254896e-12 </wgt>
<wgt id='1204'> +1.4175076e-12 </wgt>
<wgt id='1205'> +1.4279715e-12 </wgt>
<wgt id='1206'> +1.4219356e-12 </wgt>
<wgt id='1207'> +1.4267744e-12 </wgt>
<wgt id='1208'> +1.4255718e-12 </wgt>
<wgt id='1209'> +1.4237010e-12 </wgt>
<wgt id='1210'> +1.4258170e-12 </wgt>
<wgt id='1211'> +1.4215543e-12 </wgt>
<wgt id='1212'> +1.4128269e-12 </wgt>
<wgt id='1213'> +1.4341947e-12 </wgt>
<wgt id='1214'> +1.4088026e-12 </wgt>
<wgt id='1215'> +1.4434906e-12 </wgt>
<wgt id='1216'> +1.4302189e-12 </wgt>
<wgt id='1217'> +1.4179672e-12 </wgt>
<wgt id='1218'> +1.4227592e-12 </wgt>
<wgt id='1219'> +1.4239445e-12 </wgt>
<wgt id='1220'> +1.4268056e-12 </wgt>
<wgt id='1221'> +1.4113744e-12 </wgt>
<wgt id='1222'> +1.4478564e-12 </wgt>
<wgt id='1223'> +1.3873311e-12 </wgt>
<wgt id='1224'> +1.4221235e-12 </wgt>
<wgt id='1225'> +1.4248550e-12 </wgt>
<wgt id='1226'> +1.4177442e-12 </wgt>
<wgt id='1227'> +1.4284156e-12 </wgt>
<wgt id='1228'> +1.4249768e-12 </wgt>
<wgt id='1229'> +1.4212776e-12 </wgt>
<wgt id='1230'> +1.4294135e-12 </wgt>
<wgt id='1231'> +1.4335034e-12 </wgt>
<wgt id='1232'> +1.4317880e-12 </wgt>
<wgt id='1233'> +1.4214036e-12 </wgt>
<wgt id='1234'> +1.4240847e-12 </wgt>
<wgt id='1235'> +1.4171869e-12 </wgt>
<wgt id='1236'> +1.4198353e-12 </wgt>
<wgt id='1237'> +1.4222638e-12 </wgt>
<wgt id='1238'> +1.4261148e-12 </wgt>
<wgt id='1239'> +1.4276988e-12 </wgt>
<wgt id='1240'> +1.4292045e-12 </wgt>
<wgt id='1241'> +1.3680543e-12 </wgt>
<wgt id='1242'> +1.3479173e-12 </wgt>
<wgt id='1243'> +1.3879789e-12 </wgt>
<wgt id='1244'> +1.3683302e-12 </wgt>
<wgt id='1245'> +1.3677892e-12 </wgt>
<wgt id='1246'> +1.3725722e-12 </wgt>
<wgt id='1247'> +1.3642162e-12 </wgt>
<wgt id='1248'> +1.3680100e-12 </wgt>
<wgt id='1249'> +1.3681069e-12 </wgt>
<wgt id='1250'> +1.3701535e-12 </wgt>
<wgt id='1251'> +1.3665464e-12 </wgt>
<wgt id='1252'> +1.3718578e-12 </wgt>
<wgt id='1253'> +1.3649460e-12 </wgt>
<wgt id='1254'> +1.3671060e-12 </wgt>
<wgt id='1255'> +1.3684738e-12 </wgt>
<wgt id='1256'> +1.3673384e-12 </wgt>
<wgt id='1257'> +1.3701992e-12 </wgt>
<wgt id='1258'> +1.3718332e-12 </wgt>
<wgt id='1259'> +1.3614205e-12 </wgt>
<wgt id='1260'> +1.3771180e-12 </wgt>
<wgt id='1261'> +1.3559254e-12 </wgt>
<wgt id='1262'> +1.3671804e-12 </wgt>
<wgt id='1263'> +1.3676102e-12 </wgt>
<wgt id='1264'> +1.3709092e-12 </wgt>
<wgt id='1265'> +1.3666228e-12 </wgt>
<wgt id='1266'> +1.3398325e-12 </wgt>
<wgt id='1267'> +1.3931484e-12 </wgt>
<wgt id='1268'> +1.3693181e-12 </wgt>
<wgt id='1269'> +1.3596767e-12 </wgt>
<wgt id='1270'> +1.3806132e-12 </wgt>
<wgt id='1271'> +1.3714116e-12 </wgt>
<wgt id='1272'> +1.3658028e-12 </wgt>
<wgt id='1273'> +1.3693674e-12 </wgt>
<wgt id='1274'> +1.3703041e-12 </wgt>
<wgt id='1275'> +1.3653322e-12 </wgt>
<wgt id='1276'> +1.3647350e-12 </wgt>
<wgt id='1277'> +1.3681273e-12 </wgt>
<wgt id='1278'> +1.3821663e-12 </wgt>
<wgt id='1279'> +1.3750712e-12 </wgt>
<wgt id='1280'> +1.3667930e-12 </wgt>
<wgt id='1281'> +1.3762111e-12 </wgt>
<wgt id='1282'> +1.3680543e-12 </wgt>
<wgt id='1283'> +1.3616399e-12 </wgt>
<wgt id='1284'> +1.3642962e-12 </wgt>
<wgt id='1285'> +1.3664285e-12 </wgt>
<wgt id='1286'> +1.3697869e-12 </wgt>
<wgt id='1287'> +1.3709244e-12 </wgt>
<wgt id='1288'> +1.3718068e-12 </wgt>
<wgt id='1289'> +1.4349699e-12 </wgt>
<wgt id='1290'> +1.4379491e-12 </wgt>
<wgt id='1291'> +1.4318112e-12 </wgt>
<wgt id='1292'> +1.4365954e-12 </wgt>
<wgt id='1293'> +1.4338563e-12 </wgt>
<wgt id='1294'> +1.4146640e-12 </wgt>
<wgt id='1295'> +1.4546204e-12 </wgt>
<wgt id='1296'> +1.4393437e-12 </wgt>
<wgt id='1297'> +1.4294420e-12 </wgt>
<wgt id='1298'> +1.4455836e-12 </wgt>
<wgt id='1299'> +1.4218028e-12 </wgt>
<wgt id='1300'> +1.4366778e-12 </wgt>
<wgt id='1301'> +1.4315213e-12 </wgt>
<wgt id='1302'> +1.4374367e-12 </wgt>
<wgt id='1303'> +1.4315854e-12 </wgt>
<wgt id='1304'> +1.4296183e-12 </wgt>
<wgt id='1305'> +1.4386180e-12 </wgt>
<wgt id='1306'> +1.4317673e-12 </wgt>
<wgt id='1307'> +1.4386258e-12 </wgt>
<wgt id='1308'> +1.4233520e-12 </wgt>
<wgt id='1309'> +1.4438995e-12 </wgt>
<wgt id='1310'> +1.4484353e-12 </wgt>
<wgt id='1311'> +1.4208452e-12 </wgt>
<wgt id='1312'> +1.4410467e-12 </wgt>
<wgt id='1313'> +1.4298678e-12 </wgt>
<wgt id='1314'> +1.4149337e-12 </wgt>
<wgt id='1315'> +1.4535913e-12 </wgt>
<wgt id='1316'> +1.4326249e-12 </wgt>
<wgt id='1317'> +1.4424375e-12 </wgt>
<wgt id='1318'> +1.4433411e-12 </wgt>
<wgt id='1319'> +1.4231616e-12 </wgt>
<wgt id='1320'> +1.4653371e-12 </wgt>
<wgt id='1321'> +1.4097062e-12 </wgt>
<wgt id='1322'> +1.4362015e-12 </wgt>
<wgt id='1323'> +1.4318228e-12 </wgt>
<wgt id='1324'> +1.4365831e-12 </wgt>
<wgt id='1325'> +1.4364976e-12 </wgt>
<wgt id='1326'> +1.4332512e-12 </wgt>
<wgt id='1327'> +1.4356602e-12 </wgt>
<wgt id='1328'> +1.4311227e-12 </wgt>
<wgt id='1329'> +1.4381515e-12 </wgt>
<wgt id='1330'> +1.4235217e-12 </wgt>
<wgt id='1331'> +1.4515647e-12 </wgt>
<wgt id='1332'> +1.4436838e-12 </wgt>
<wgt id='1333'> +1.4394320e-12 </wgt>
<wgt id='1334'> +1.4306199e-12 </wgt>
<wgt id='1335'> +1.4479344e-12 </wgt>
<wgt id='1336'> +1.4375532e-12 </wgt>
<wgt id='1337'> +1.4454858e-12 </wgt>
<wgt id='1338'> +1.4349500e-12 </wgt>
<wgt id='1339'> +1.4348236e-12 </wgt>
<wgt id='1340'> +1.4121622e-12 </wgt>
<wgt id='1341'> +1.4148635e-12 </wgt>
<wgt id='1342'> +1.4092107e-12 </wgt>
<wgt id='1343'> +1.4138684e-12 </wgt>
<wgt id='1344'> +1.4109816e-12 </wgt>
<wgt id='1345'> +1.3909495e-12 </wgt>
<wgt id='1346'> +1.4318242e-12 </wgt>
<wgt id='1347'> +1.4173642e-12 </wgt>
<wgt id='1348'> +1.4061976e-12 </wgt>
<wgt id='1349'> +1.4227090e-12 </wgt>
<wgt id='1350'> +1.4018269e-12 </wgt>
<wgt id='1351'> +1.4142245e-12 </wgt>
<wgt id='1352'> +1.4075438e-12 </wgt>
<wgt id='1353'> +1.4145521e-12 </wgt>
<wgt id='1354'> +1.4077724e-12 </wgt>
<wgt id='1355'> +1.4061494e-12 </wgt>
<wgt id='1356'> +1.4154816e-12 </wgt>
<wgt id='1357'> +1.4063262e-12 </wgt>
<wgt id='1358'> +1.4189580e-12 </wgt>
<wgt id='1359'> +1.4022700e-12 </wgt>
<wgt id='1360'> +1.4207290e-12 </wgt>
<wgt id='1361'> +1.4238754e-12 </wgt>
<wgt id='1362'> +1.3967925e-12 </wgt>
<wgt id='1363'> +1.4229694e-12 </wgt>
<wgt id='1364'> +1.4060984e-12 </wgt>
<wgt id='1365'> +1.4208348e-12 </wgt>
<wgt id='1366'> +1.3958285e-12 </wgt>
<wgt id='1367'> +1.4104835e-12 </wgt>
<wgt id='1368'> +1.4170430e-12 </wgt>
<wgt id='1369'> +1.4179126e-12 </wgt>
<wgt id='1370'> +1.4040159e-12 </wgt>
<wgt id='1371'> +1.4365411e-12 </wgt>
<wgt id='1372'> +1.3827136e-12 </wgt>
<wgt id='1373'> +1.4085781e-12 </wgt>
<wgt id='1374'> +1.4135287e-12 </wgt>
<wgt id='1375'> +1.4133789e-12 </wgt>
<wgt id='1376'> +1.4140085e-12 </wgt>
<wgt id='1377'> +1.4122319e-12 </wgt>
<wgt id='1378'> +1.4135937e-12 </wgt>
<wgt id='1379'> +1.4084239e-12 </wgt>
<wgt id='1380'> +1.4156083e-12 </wgt>
<wgt id='1381'> +1.4007986e-12 </wgt>
<wgt id='1382'> +1.4275086e-12 </wgt>
<wgt id='1383'> +1.4230418e-12 </wgt>
<wgt id='1384'> +1.4162232e-12 </wgt>
<wgt id='1385'> +1.4074106e-12 </wgt>
<wgt id='1386'> +1.4250207e-12 </wgt>
<wgt id='1387'> +1.4140900e-12 </wgt>
<wgt id='1388'> +1.4227474e-12 </wgt>
<wgt id='1389'> +1.4110564e-12 </wgt>
<wgt id='1390'> +1.4128089e-12 </wgt>
<wgt id='1391'> +1.3879180e-12 </wgt>
<wgt id='1392'> +1.3545470e-12 </wgt>
<wgt id='1393'> +1.3669953e-12 </wgt>
<wgt id='1394'> +1.3781983e-12 </wgt>
<wgt id='1395'> +1.4011272e-12 </wgt>
<wgt id='1396'> +1.3893675e-12 </wgt>
<wgt id='1397'> +1.3516850e-12 </wgt>
<wgt id='1398'> +1.3582867e-12 </wgt>
<wgt id='1399'> +1.3650294e-12 </wgt>
<wgt id='1400'> +1.3724960e-12 </wgt>
<wgt id='1401'> +1.3809241e-12 </wgt>
<wgt id='1402'> +1.3980044e-12 </wgt>
<wgt id='1403'> +1.4068897e-12 </wgt>
<wgt id='1404'> +1.4159528e-12 </wgt>
<wgt id='1405'> +1.3893675e-12 </wgt>
<wgt id='1406'> +1.3858748e-12 </wgt>
<wgt id='1407'> +1.3877180e-12 </wgt>
<wgt id='1408'> +1.3908233e-12 </wgt>
<wgt id='1409'> +1.3923071e-12 </wgt>
<wgt id='1410'> +1.3154297e-12 </wgt>
<wgt id='1411'> +1.3223039e-12 </wgt>
<wgt id='1412'> +1.3065397e-12 </wgt>
<wgt id='1413'> +1.3037621e-12 </wgt>
<wgt id='1414'> +1.3270262e-12 </wgt>
<wgt id='1415'> +1.3123312e-12 </wgt>
<wgt id='1416'> +1.3166466e-12 </wgt>
<wgt id='1417'> +1.3090282e-12 </wgt>
<wgt id='1418'> +1.3217994e-12 </wgt>
<wgt id='1419'> +1.3193988e-12 </wgt>
<wgt id='1420'> +1.3115396e-12 </wgt>
<wgt id='1421'> +1.2991346e-12 </wgt>
<wgt id='1422'> +1.3223321e-12 </wgt>
<wgt id='1423'> +1.3190199e-12 </wgt>
<wgt id='1424'> +1.3110236e-12 </wgt>
<wgt id='1425'> +1.3107917e-12 </wgt>
<wgt id='1426'> +1.3202732e-12 </wgt>
<wgt id='1427'> +1.2939882e-12 </wgt>
<wgt id='1428'> +1.3270152e-12 </wgt>
<wgt id='1429'> +1.3152120e-12 </wgt>
<wgt id='1430'> +1.3159426e-12 </wgt>
<wgt id='1431'> +1.3060739e-12 </wgt>
<wgt id='1432'> +1.3216967e-12 </wgt>
<wgt id='1433'> +1.2924152e-12 </wgt>
<wgt id='1434'> +1.3345641e-12 </wgt>
<wgt id='1435'> +1.3108859e-12 </wgt>
<wgt id='1436'> +1.3277977e-12 </wgt>
<wgt id='1437'> +1.3159659e-12 </wgt>
<wgt id='1438'> +1.3238864e-12 </wgt>
<wgt id='1439'> +1.3083692e-12 </wgt>
<wgt id='1440'> +1.3266653e-12 </wgt>
<wgt id='1441'> +1.3251910e-12 </wgt>
<wgt id='1442'> +1.2958863e-12 </wgt>
<wgt id='1443'> +1.3112118e-12 </wgt>
<wgt id='1444'> +1.3247167e-12 </wgt>
<wgt id='1445'> +1.3219815e-12 </wgt>
<wgt id='1446'> +1.3144408e-12 </wgt>
<wgt id='1447'> +1.3183977e-12 </wgt>
<wgt id='1448'> +1.3092727e-12 </wgt>
<wgt id='1449'> +1.3123541e-12 </wgt>
<wgt id='1450'> +1.3167652e-12 </wgt>
<wgt id='1451'> +1.3277302e-12 </wgt>
<wgt id='1452'> +1.3018877e-12 </wgt>
<wgt id='1453'> +1.3156167e-12 </wgt>
<wgt id='1454'> +1.3148404e-12 </wgt>
<wgt id='1455'> +1.3241962e-12 </wgt>
<wgt id='1456'> +1.3285537e-12 </wgt>
<wgt id='1457'> +1.3268465e-12 </wgt>
<wgt id='1458'> +1.3127246e-12 </wgt>
<wgt id='1459'> +1.3225344e-12 </wgt>
<wgt id='1460'> +1.3278568e-12 </wgt>
<wgt id='1461'> +1.3154297e-12 </wgt>
<wgt id='1462'> +1.3092162e-12 </wgt>
<wgt id='1463'> +1.3205703e-12 </wgt>
<wgt id='1464'> +1.3139006e-12 </wgt>
<wgt id='1465'> +1.2766204e-12 </wgt>
<wgt id='1466'> +1.2834502e-12 </wgt>
<wgt id='1467'> +1.2903993e-12 </wgt>
<wgt id='1468'> +1.2997936e-12 </wgt>
<wgt id='1469'> +1.3063595e-12 </wgt>
<wgt id='1470'> +1.3216409e-12 </wgt>
<wgt id='1471'> +1.3284078e-12 </wgt>
<wgt id='1472'> +1.3359892e-12 </wgt>
<wgt id='1473'> +1.3139006e-12 </wgt>
<wgt id='1474'> +1.3111855e-12 </wgt>
<wgt id='1475'> +1.3131908e-12 </wgt>
<wgt id='1476'> +1.3147754e-12 </wgt>
<wgt id='1477'> +1.3155714e-12 </wgt>
<wgt id='1478'> +1.3746881e-12 </wgt>
<wgt id='1479'> +1.3759816e-12 </wgt>
<wgt id='1480'> +1.3714402e-12 </wgt>
<wgt id='1481'> +1.4001571e-12 </wgt>
<wgt id='1482'> +1.3773495e-12 </wgt>
<wgt id='1483'> +1.3485842e-12 </wgt>
<wgt id='1484'> +1.3651145e-12 </wgt>
<wgt id='1485'> +1.3842186e-12 </wgt>
<wgt id='1486'> +1.3737573e-12 </wgt>
<wgt id='1487'> +1.3829995e-12 </wgt>
<wgt id='1488'> +1.3723446e-12 </wgt>
<wgt id='1489'> +1.3761276e-12 </wgt>
<wgt id='1490'> +1.3684352e-12 </wgt>
<wgt id='1491'> +1.3847865e-12 </wgt>
<wgt id='1492'> +1.3751471e-12 </wgt>
<wgt id='1493'> +1.3492187e-12 </wgt>
<wgt id='1494'> +1.3642264e-12 </wgt>
<wgt id='1495'> +1.3695588e-12 </wgt>
<wgt id='1496'> +1.3804726e-12 </wgt>
<wgt id='1497'> +1.3738369e-12 </wgt>
<wgt id='1498'> +1.3786278e-12 </wgt>
<wgt id='1499'> +1.3770989e-12 </wgt>
<wgt id='1500'> +1.3761327e-12 </wgt>
<wgt id='1501'> +1.3777995e-12 </wgt>
<wgt id='1502'> +1.3726869e-12 </wgt>
<wgt id='1503'> +1.3780836e-12 </wgt>
<wgt id='1504'> +1.3690010e-12 </wgt>
<wgt id='1505'> +1.3945553e-12 </wgt>
<wgt id='1506'> +1.3746797e-12 </wgt>
<wgt id='1507'> +1.3748570e-12 </wgt>
<wgt id='1508'> +1.3760246e-12 </wgt>
<wgt id='1509'> +1.3195529e-12 </wgt>
<wgt id='1510'> +1.3254542e-12 </wgt>
<wgt id='1511'> +1.2973310e-12 </wgt>
<wgt id='1512'> +1.3051504e-12 </wgt>
<wgt id='1513'> +1.3175128e-12 </wgt>
<wgt id='1514'> +1.3247702e-12 </wgt>
<wgt id='1515'> +1.3223957e-12 </wgt>
<wgt id='1516'> +1.3218586e-12 </wgt>
<wgt id='1517'> +1.3175725e-12 </wgt>
<wgt id='1518'> +1.3192413e-12 </wgt>
<wgt id='1519'> +1.3197366e-12 </wgt>
<wgt id='1520'> +1.3158813e-12 </wgt>
<wgt id='1521'> +1.3179691e-12 </wgt>
<wgt id='1522'> +1.3197608e-12 </wgt>
<wgt id='1523'> +1.3193066e-12 </wgt>
<wgt id='1524'> +1.3215001e-12 </wgt>
<wgt id='1525'> +1.3214071e-12 </wgt>
<wgt id='1526'> +1.3187178e-12 </wgt>
<wgt id='1527'> +1.3180751e-12 </wgt>
<wgt id='1528'> +1.3164891e-12 </wgt>
<wgt id='1529'> +1.3180674e-12 </wgt>
<wgt id='1530'> +1.3209128e-12 </wgt>
<wgt id='1531'> +1.3221797e-12 </wgt>
<wgt id='1532'> +1.3138766e-12 </wgt>
<wgt id='1533'> +1.3276890e-12 </wgt>
<wgt id='1534'> +1.3185544e-12 </wgt>
<wgt id='1535'> +1.3158763e-12 </wgt>
<wgt id='1536'> +1.3257518e-12 </wgt>
<wgt id='1537'> +1.3235781e-12 </wgt>
<wgt id='1538'> +1.3034021e-12 </wgt>
<wgt id='1539'> +1.3196831e-12 </wgt>
<wgt id='1540'> +1.3184321e-12 </wgt>
<wgt id='1541'> +1.3175325e-12 </wgt>
<wgt id='1542'> +1.3151949e-12 </wgt>
<wgt id='1543'> +1.3191582e-12 </wgt>
<wgt id='1544'> +1.3221034e-12 </wgt>
<wgt id='1545'> +1.3187840e-12 </wgt>
<wgt id='1546'> +1.3231091e-12 </wgt>
<wgt id='1547'> +1.3181435e-12 </wgt>
<wgt id='1548'> +1.3206321e-12 </wgt>
<wgt id='1549'> +1.3190342e-12 </wgt>
<wgt id='1550'> +1.3182797e-12 </wgt>
<wgt id='1551'> +1.3188127e-12 </wgt>
<wgt id='1552'> +1.3182070e-12 </wgt>
<wgt id='1553'> +1.3224185e-12 </wgt>
<wgt id='1554'> +1.3157385e-12 </wgt>
<wgt id='1555'> +1.3221843e-12 </wgt>
<wgt id='1556'> +1.3241792e-12 </wgt>
<wgt id='1557'> +1.3178899e-12 </wgt>
<wgt id='1558'> +1.3236084e-12 </wgt>
<wgt id='1559'> +1.3198041e-12 </wgt>
<wgt id='1560'> +1.3197066e-12 </wgt>
<wgt id='1561'> +1.3185791e-12 </wgt>
<wgt id='1562'> +1.3174090e-12 </wgt>
<wgt id='1563'> +1.3190909e-12 </wgt>
<wgt id='1564'> +1.3157507e-12 </wgt>
<wgt id='1565'> +1.3223131e-12 </wgt>
<wgt id='1566'> +1.3183118e-12 </wgt>
<wgt id='1567'> +1.3194524e-12 </wgt>
<wgt id='1568'> +1.3207396e-12 </wgt>
<wgt id='1569'> +1.3205523e-12 </wgt>
<wgt id='1570'> +1.3183230e-12 </wgt>
<wgt id='1571'> +1.3218528e-12 </wgt>
<wgt id='1572'> +1.3200291e-12 </wgt>
<wgt id='1573'> +1.3174480e-12 </wgt>
<wgt id='1574'> +1.3208614e-12 </wgt>
<wgt id='1575'> +1.3190407e-12 </wgt>
<wgt id='1576'> +1.3204809e-12 </wgt>
<wgt id='1577'> +1.3209802e-12 </wgt>
<wgt id='1578'> +1.3183963e-12 </wgt>
<wgt id='1579'> +1.3184712e-12 </wgt>
<wgt id='1580'> +1.3178220e-12 </wgt>
<wgt id='1581'> +1.3219960e-12 </wgt>
<wgt id='1582'> +1.3171195e-12 </wgt>
<wgt id='1583'> +1.3206794e-12 </wgt>
<wgt id='1584'> +1.3188024e-12 </wgt>
<wgt id='1585'> +1.3184114e-12 </wgt>
<wgt id='1586'> +1.3200539e-12 </wgt>
<wgt id='1587'> +1.3189916e-12 </wgt>
<wgt id='1588'> +1.3198102e-12 </wgt>
<wgt id='1589'> +1.3211661e-12 </wgt>
<wgt id='1590'> +1.3190660e-12 </wgt>
<wgt id='1591'> +1.3198166e-12 </wgt>
<wgt id='1592'> +1.3185616e-12 </wgt>
<wgt id='1593'> +1.3185026e-12 </wgt>
<wgt id='1594'> +1.3196352e-12 </wgt>
<wgt id='1595'> +1.3196657e-12 </wgt>
<wgt id='1596'> +1.3190440e-12 </wgt>
<wgt id='1597'> +1.3189825e-12 </wgt>
<wgt id='1598'> +1.3195437e-12 </wgt>
<wgt id='1599'> +1.3202347e-12 </wgt>
<wgt id='1600'> +1.3206718e-12 </wgt>
<wgt id='1601'> +1.3182656e-12 </wgt>
<wgt id='1602'> +1.3188119e-12 </wgt>
<wgt id='1603'> +1.3189332e-12 </wgt>
<wgt id='1604'> +1.3192880e-12 </wgt>
<wgt id='1605'> +1.3189885e-12 </wgt>
<wgt id='1606'> +1.3210906e-12 </wgt>
<wgt id='1607'> +1.3193438e-12 </wgt>
<wgt id='1608'> +1.3189492e-12 </wgt>
<wgt id='1609'> +1.3205228e-12 </wgt>
<wgt id='1610'> +1.3078884e-12 </wgt>
<wgt id='1611'> +1.3294279e-12 </wgt>
<wgt id='1612'> +1.5588601e-12 </wgt>
<wgt id='1613'> +1.5311182e-12 </wgt>
<wgt id='1614'> +1.5019660e-12 </wgt>
<wgt id='1615'> +1.5086604e-12 </wgt>
<wgt id='1616'> +1.4874641e-12 </wgt>
<wgt id='1617'> +1.5332058e-12 </wgt>
<wgt id='1618'> +1.5922321e-12 </wgt>
<wgt id='1619'> +1.4851895e-12 </wgt>
<wgt id='1620'> +1.5434383e-12 </wgt>
<wgt id='1621'> +1.5609012e-12 </wgt>
<wgt id='1622'> +1.5420861e-12 </wgt>
<wgt id='1623'> +1.5695698e-12 </wgt>
<wgt id='1624'> +1.6147683e-12 </wgt>
<wgt id='1625'> +1.5010766e-12 </wgt>
<wgt id='1626'> +1.5271721e-12 </wgt>
<wgt id='1627'> +1.5950566e-12 </wgt>
<wgt id='1628'> +1.4997292e-12 </wgt>
<wgt id='1629'> +1.5663022e-12 </wgt>
<wgt id='1630'> +1.5052016e-12 </wgt>
<wgt id='1631'> +1.5521648e-12 </wgt>
<wgt id='1632'> +1.4351977e-12 </wgt>
<wgt id='1633'> +1.5249876e-12 </wgt>
<wgt id='1634'> +1.5171808e-12 </wgt>
<wgt id='1635'> +1.5872329e-12 </wgt>
<wgt id='1636'> +1.5652950e-12 </wgt>
<wgt id='1637'> +1.5956011e-12 </wgt>
<wgt id='1638'> +1.5717558e-12 </wgt>
<wgt id='1639'> +1.5575531e-12 </wgt>
<wgt id='1640'> +1.5211435e-12 </wgt>
<wgt id='1641'> +1.5461973e-12 </wgt>
<wgt id='1642'> +1.4716113e-12 </wgt>
<wgt id='1643'> +1.5305354e-12 </wgt>
<wgt id='1644'> +1.6096118e-12 </wgt>
<wgt id='1645'> +1.5075535e-12 </wgt>
<wgt id='1646'> +1.5637803e-12 </wgt>
<wgt id='1647'> +1.6007203e-12 </wgt>
<wgt id='1648'> +1.5649277e-12 </wgt>
<wgt id='1649'> +1.6788595e-12 </wgt>
<wgt id='1650'> +1.5122565e-12 </wgt>
<wgt id='1651'> +1.5992559e-12 </wgt>
<wgt id='1652'> +1.5269693e-12 </wgt>
<wgt id='1653'> +1.5805095e-12 </wgt>
<wgt id='1654'> +1.6023793e-12 </wgt>
<wgt id='1655'> +1.6285038e-12 </wgt>
<wgt id='1656'> +1.5424430e-12 </wgt>
<wgt id='1657'> +1.5907189e-12 </wgt>
<wgt id='1658'> +1.5331685e-12 </wgt>
<wgt id='1659'> +1.6147683e-12 </wgt>
<wgt id='1660'> +1.5571424e-12 </wgt>
<wgt id='1661'> +1.5849817e-12 </wgt>
<wgt id='1662'> +1.6164435e-12 </wgt>
<wgt id='1663'> +1.5413727e-12 </wgt>
<wgt id='1664'> +1.5413922e-12 </wgt>
<wgt id='1665'> +1.5443044e-12 </wgt>
<wgt id='1666'> +1.5790080e-12 </wgt>
<wgt id='1667'> +1.5843998e-12 </wgt>
<wgt id='1668'> +1.5622399e-12 </wgt>
<wgt id='1669'> +1.5948729e-12 </wgt>
<wgt id='1670'> +1.5198398e-12 </wgt>
<wgt id='1671'> +1.5293559e-12 </wgt>
<wgt id='1672'> +1.5689379e-12 </wgt>
<wgt id='1673'> +1.5973896e-12 </wgt>
<wgt id='1674'> +1.5708033e-12 </wgt>
<wgt id='1675'> +1.5490842e-12 </wgt>
<wgt id='1676'> +1.5601524e-12 </wgt>
<wgt id='1677'> +1.5181780e-12 </wgt>
<wgt id='1678'> +1.5530047e-12 </wgt>
<wgt id='1679'> +1.5946052e-12 </wgt>
<wgt id='1680'> +1.6320149e-12 </wgt>
<wgt id='1681'> +1.5879851e-12 </wgt>
<wgt id='1682'> +1.5295368e-12 </wgt>
<wgt id='1683'> +1.5997312e-12 </wgt>
<wgt id='1684'> +1.6053224e-12 </wgt>
<wgt id='1685'> +1.5772965e-12 </wgt>
<wgt id='1686'> +1.5361344e-12 </wgt>
<wgt id='1687'> +1.5614201e-12 </wgt>
<wgt id='1688'> +1.5063474e-12 </wgt>
<wgt id='1689'> +1.6310308e-12 </wgt>
<wgt id='1690'> +1.5574452e-12 </wgt>
<wgt id='1691'> +1.5027518e-12 </wgt>
<wgt id='1692'> +1.4526315e-12 </wgt>
<wgt id='1693'> +1.5282230e-12 </wgt>
<wgt id='1694'> +1.5281284e-12 </wgt>
<wgt id='1695'> +1.5145347e-12 </wgt>
<wgt id='1696'> +1.5612601e-12 </wgt>
<wgt id='1697'> +1.6002206e-12 </wgt>
<wgt id='1698'> +1.5709581e-12 </wgt>
<wgt id='1699'> +1.6200568e-12 </wgt>
<wgt id='1700'> +1.5330439e-12 </wgt>
<wgt id='1701'> +1.6335888e-12 </wgt>
<wgt id='1702'> +1.5431199e-12 </wgt>
<wgt id='1703'> +1.5019257e-12 </wgt>
<wgt id='1704'> +1.5317305e-12 </wgt>
<wgt id='1705'> +1.4673924e-12 </wgt>
<wgt id='1706'> +1.6420886e-12 </wgt>
<wgt id='1707'> +1.5811178e-12 </wgt>
<wgt id='1708'> +1.6834358e-12 </wgt>
<wgt id='1709'> +1.6313231e-12 </wgt>
<wgt id='1710'> +1.5641143e-12 </wgt>
<wgt id='1711'> +1.5592263e-12 </wgt>
<wgt id='1712'> +1.6470725e-12 </wgt>
<wgt id='1713'> +1.3388999e-12 </wgt>
<wgt id='1714'> +1.3445472e-12 </wgt>
<wgt id='1715'> +1.2942124e-12 </wgt>
<wgt id='1716'> +1.3405365e-12 </wgt>
<wgt id='1717'> +1.3789382e-12 </wgt>
<wgt id='1718'> +1.3254042e-12 </wgt>
<wgt id='1719'> +1.3632571e-12 </wgt>
<wgt id='1720'> +1.3119944e-12 </wgt>
<wgt id='1721'> +1.3363498e-12 </wgt>
<wgt id='1722'> +1.3303528e-12 </wgt>
<wgt id='1723'> +1.4011774e-12 </wgt>
<wgt id='1724'> +1.3562373e-12 </wgt>
<wgt id='1725'> +1.3136544e-12 </wgt>
<wgt id='1726'> +1.3390077e-12 </wgt>
<wgt id='1727'> +1.3784598e-12 </wgt>
<wgt id='1728'> +1.3261468e-12 </wgt>
<wgt id='1729'> +1.2594524e-12 </wgt>
<wgt id='1730'> +1.2912677e-12 </wgt>
<wgt id='1731'> +1.2232495e-12 </wgt>
<wgt id='1732'> +1.3579189e-12 </wgt>
<wgt id='1733'> +1.3208736e-12 </wgt>
<wgt id='1734'> +1.4404435e-12 </wgt>
<wgt id='1735'> +1.3476695e-12 </wgt>
<wgt id='1736'> +1.3362461e-12 </wgt>
<wgt id='1737'> +1.3820440e-12 </wgt>
<wgt id='1738'> +1.3061356e-12 </wgt>
<wgt id='1739'> +1.3453743e-12 </wgt>
<wgt id='1740'> +1.2416714e-12 </wgt>
<wgt id='1741'> +1.3791027e-12 </wgt>
<wgt id='1742'> +1.3403806e-12 </wgt>
<wgt id='1743'> +1.2978452e-12 </wgt>
<wgt id='1744'> +1.3627010e-12 </wgt>
<wgt id='1745'> +1.4015236e-12 </wgt>
<wgt id='1746'> +1.3561180e-12 </wgt>
<wgt id='1747'> +1.3716361e-12 </wgt>
<wgt id='1748'> +1.3372430e-12 </wgt>
<wgt id='1749'> +1.2961144e-12 </wgt>
<wgt id='1750'> +1.2952988e-12 </wgt>
<wgt id='1751'> +1.3419189e-12 </wgt>
<wgt id='1752'> +1.3268643e-12 </wgt>
<wgt id='1753'> +1.3548605e-12 </wgt>
<wgt id='1754'> +1.3881907e-12 </wgt>
<wgt id='1755'> +1.3406788e-12 </wgt>
<wgt id='1756'> +1.3650791e-12 </wgt>
<wgt id='1757'> +1.3698358e-12 </wgt>
<wgt id='1758'> +1.4175410e-12 </wgt>
<wgt id='1759'> +1.3493207e-12 </wgt>
<wgt id='1760'> +1.3464211e-12 </wgt>
<wgt id='1761'> +1.3423761e-12 </wgt>
<wgt id='1762'> +1.2999947e-12 </wgt>
<wgt id='1763'> +1.3667249e-12 </wgt>
<wgt id='1764'> +1.4025116e-12 </wgt>
<wgt id='1765'> +1.3388681e-12 </wgt>
<wgt id='1766'> +1.3275881e-12 </wgt>
<wgt id='1767'> +1.3488460e-12 </wgt>
<wgt id='1768'> +1.3714302e-12 </wgt>
<wgt id='1769'> +1.3161694e-12 </wgt>
<wgt id='1770'> +1.2924372e-12 </wgt>
<wgt id='1771'> +1.4016452e-12 </wgt>
<wgt id='1772'> +1.3053094e-12 </wgt>
<wgt id='1773'> +1.3706442e-12 </wgt>
<wgt id='1774'> +1.3291239e-12 </wgt>
<wgt id='1775'> +1.3373696e-12 </wgt>
<wgt id='1776'> +1.3329903e-12 </wgt>
<wgt id='1777'> +1.2514042e-12 </wgt>
<wgt id='1778'> +1.3507556e-12 </wgt>
<wgt id='1779'> +1.3144005e-12 </wgt>
<wgt id='1780'> +1.4239349e-12 </wgt>
<wgt id='1781'> +1.3692301e-12 </wgt>
<wgt id='1782'> +1.3235781e-12 </wgt>
<wgt id='1783'> +1.3799003e-12 </wgt>
<wgt id='1784'> +1.3300449e-12 </wgt>
<wgt id='1785'> +1.3252827e-12 </wgt>
<wgt id='1786'> +1.3647515e-12 </wgt>
<wgt id='1787'> +1.4031162e-12 </wgt>
<wgt id='1788'> +1.3219139e-12 </wgt>
<wgt id='1789'> +1.4279825e-12 </wgt>
<wgt id='1790'> +1.3328157e-12 </wgt>
<wgt id='1791'> +1.3255078e-12 </wgt>
<wgt id='1792'> +1.3369717e-12 </wgt>
<wgt id='1793'> +1.3269347e-12 </wgt>
<wgt id='1794'> +1.3755646e-12 </wgt>
<wgt id='1795'> +1.3496129e-12 </wgt>
<wgt id='1796'> +1.3326628e-12 </wgt>
<wgt id='1797'> +1.3355722e-12 </wgt>
<wgt id='1798'> +1.3537373e-12 </wgt>
<wgt id='1799'> +1.3201868e-12 </wgt>
<wgt id='1800'> +1.3828586e-12 </wgt>
<wgt id='1801'> +1.3392092e-12 </wgt>
<wgt id='1802'> +1.2875459e-12 </wgt>
<wgt id='1803'> +1.3467990e-12 </wgt>
<wgt id='1804'> +1.3698028e-12 </wgt>
<wgt id='1805'> +1.3153918e-12 </wgt>
<wgt id='1806'> +1.3084035e-12 </wgt>
<wgt id='1807'> +1.3176881e-12 </wgt>
<wgt id='1808'> +1.2830450e-12 </wgt>
<wgt id='1809'> +1.3151659e-12 </wgt>
<wgt id='1810'> +1.2787781e-12 </wgt>
<wgt id='1811'> +1.3304300e-12 </wgt>
<wgt id='1812'> +1.3095619e-12 </wgt>
<wgt id='1813'> +1.2197097e-12 </wgt>
<wgt id='1814'> +1.7530488e-12 </wgt>
<wgt id='1815'> +2.1725904e-12 </wgt>
<wgt id='1816'> +1.3388999e-12 </wgt>
<wgt id='1817'> +1.3445472e-12 </wgt>
<wgt id='1818'> +1.2942124e-12 </wgt>
<wgt id='1819'> +1.3405365e-12 </wgt>
<wgt id='1820'> +1.3789382e-12 </wgt>
<wgt id='1821'> +1.3254042e-12 </wgt>
<wgt id='1822'> +1.3632571e-12 </wgt>
<wgt id='1823'> +1.3119944e-12 </wgt>
<wgt id='1824'> +1.3363498e-12 </wgt>
<wgt id='1825'> +1.3303528e-12 </wgt>
<wgt id='1826'> +1.4011774e-12 </wgt>
<wgt id='1827'> +1.3562373e-12 </wgt>
<wgt id='1828'> +1.3136544e-12 </wgt>
<wgt id='1829'> +1.3390077e-12 </wgt>
<wgt id='1830'> +1.3784598e-12 </wgt>
<wgt id='1831'> +1.3261468e-12 </wgt>
<wgt id='1832'> +1.2594524e-12 </wgt>
<wgt id='1833'> +1.2912677e-12 </wgt>
<wgt id='1834'> +1.2232495e-12 </wgt>
<wgt id='1835'> +1.3579189e-12 </wgt>
<wgt id='1836'> +1.3208736e-12 </wgt>
<wgt id='1837'> +1.4404435e-12 </wgt>
<wgt id='1838'> +1.3476695e-12 </wgt>
<wgt id='1839'> +1.3362461e-12 </wgt>
<wgt id='1840'> +1.3820440e-12 </wgt>
<wgt id='1841'> +1.3061356e-12 </wgt>
<wgt id='1842'> +1.3453743e-12 </wgt>
<wgt id='1843'> +1.2416714e-12 </wgt>
<wgt id='1844'> +1.3791027e-12 </wgt>
<wgt id='1845'> +1.3403806e-12 </wgt>
<wgt id='1846'> +1.2978452e-12 </wgt>
<wgt id='1847'> +1.3627010e-12 </wgt>
<wgt id='1848'> +1.4015236e-12 </wgt>
<wgt id='1849'> +1.3561180e-12 </wgt>
<wgt id='1850'> +1.3716361e-12 </wgt>
<wgt id='1851'> +1.3372430e-12 </wgt>
<wgt id='1852'> +1.2961144e-12 </wgt>
<wgt id='1853'> +1.2952988e-12 </wgt>
<wgt id='1854'> +1.3419189e-12 </wgt>
<wgt id='1855'> +1.3268643e-12 </wgt>
<wgt id='1856'> +1.3548605e-12 </wgt>
<wgt id='1857'> +1.3881907e-12 </wgt>
<wgt id='1858'> +1.3406788e-12 </wgt>
<wgt id='1859'> +1.3650791e-12 </wgt>
<wgt id='1860'> +1.3698358e-12 </wgt>
<wgt id='1861'> +1.4175410e-12 </wgt>
<wgt id='1862'> +1.3493207e-12 </wgt>
<wgt id='1863'> +1.3464211e-12 </wgt>
<wgt id='1864'> +1.3423761e-12 </wgt>
<wgt id='1865'> +1.2999947e-12 </wgt>
<wgt id='1866'> +1.3667249e-12 </wgt>
<wgt id='1867'> +1.4025116e-12 </wgt>
<wgt id='1868'> +1.3388681e-12 </wgt>
<wgt id='1869'> +1.3275881e-12 </wgt>
<wgt id='1870'> +1.3488460e-12 </wgt>
<wgt id='1871'> +1.3714302e-12 </wgt>
<wgt id='1872'> +1.3161694e-12 </wgt>
<wgt id='1873'> +1.2924372e-12 </wgt>
<wgt id='1874'> +1.4016452e-12 </wgt>
<wgt id='1875'> +1.3053094e-12 </wgt>
<wgt id='1876'> +1.3706442e-12 </wgt>
<wgt id='1877'> +1.3291239e-12 </wgt>
<wgt id='1878'> +1.3373696e-12 </wgt>
<wgt id='1879'> +1.3329903e-12 </wgt>
<wgt id='1880'> +1.2514042e-12 </wgt>
<wgt id='1881'> +1.3507556e-12 </wgt>
<wgt id='1882'> +1.3144005e-12 </wgt>
<wgt id='1883'> +1.4239349e-12 </wgt>
<wgt id='1884'> +1.3692301e-12 </wgt>
<wgt id='1885'> +1.3235781e-12 </wgt>
<wgt id='1886'> +1.3799003e-12 </wgt>
<wgt id='1887'> +1.3300449e-12 </wgt>
<wgt id='1888'> +1.3252827e-12 </wgt>
<wgt id='1889'> +1.3647515e-12 </wgt>
<wgt id='1890'> +1.4031162e-12 </wgt>
<wgt id='1891'> +1.3219139e-12 </wgt>
<wgt id='1892'> +1.4279825e-12 </wgt>
<wgt id='1893'> +1.3328157e-12 </wgt>
<wgt id='1894'> +1.3255078e-12 </wgt>
<wgt id='1895'> +1.3369717e-12 </wgt>
<wgt id='1896'> +1.3269347e-12 </wgt>
<wgt id='1897'> +1.3755646e-12 </wgt>
<wgt id='1898'> +1.3496129e-12 </wgt>
<wgt id='1899'> +1.3326628e-12 </wgt>
<wgt id='1900'> +1.3355722e-12 </wgt>
<wgt id='1901'> +1.3537373e-12 </wgt>
<wgt id='1902'> +1.3201868e-12 </wgt>
<wgt id='1903'> +1.3828586e-12 </wgt>
<wgt id='1904'> +1.3392092e-12 </wgt>
<wgt id='1905'> +1.2875459e-12 </wgt>
<wgt id='1906'> +1.3467990e-12 </wgt>
<wgt id='1907'> +1.3698028e-12 </wgt>
<wgt id='1908'> +1.3153918e-12 </wgt>
<wgt id='1909'> +1.3084035e-12 </wgt>
<wgt id='1910'> +1.3176881e-12 </wgt>
<wgt id='1911'> +1.2830450e-12 </wgt>
<wgt id='1912'> +1.3151659e-12 </wgt>
<wgt id='1913'> +1.2787781e-12 </wgt>
<wgt id='1914'> +1.3304300e-12 </wgt>
<wgt id='1915'> +1.3095619e-12 </wgt>
<wgt id='1916'> +1.2197097e-12 </wgt>
<wgt id='1917'> +1.3385441e-12 </wgt>
<wgt id='1918'> +1.3580554e-12 </wgt>
<wgt id='1919'> +1.2996930e-12 </wgt>
</rwgt>
</event>
<event>
 9      1 +1.5607000e-12 7.59343300e+01 7.81860800e-03 1.21709300e-01
       21 -1    0    0  501  502 +0.0000000000e+00 +0.0000000000e+00 +3.6889442252e+02 3.6889442252e+02 0.0000000000e+00 0.0000e+00 -1.0000e+00
       -1 -1    0    0    0  501 -0.0000000000e+00 -0.0000000000e+00 -3.9076372187e+00 3.9076372187e+00 0.0000000000e+00 0.0000e+00 -1.0000e+00
     1023  2    1    2    0    0 +3.5918130159e+01 +4.4679918403e+00 +2.1218496674e+02 2.1577190091e+02 1.4999269583e+01 0.0000e+00 0.0000e+00
  1000023  2    3    3    0    0 +2.8249319405e+01 +4.8479313785e+00 +1.7816891908e+02 1.8054341087e+02 5.4984539918e+00 0.0000e+00 0.0000e+00
       -1  1    1    2    0  502 -3.5918130159e+01 -4.4679918403e+00 +1.5280181856e+02 1.5703015883e+02 0.0000000000e+00 0.0000e+00 -1.0000e+00
  1000022  1    4    4    0    0 +2.7920104147e+01 +4.6984718652e+00 +1.7549478737e+02 1.7783427186e+02 5.0000000000e+00 0.0000e+00 -1.0000e+00
      -11  1    4    4    0    0 +9.4798811363e-02 -3.2653305421e-02 +1.2711257828e+00 1.2750741429e+00 5.1100000000e-04 0.0000e+00 -1.0000e+00
       11  1    4    4    0    0 +2.3441644702e-01 +1.8211281874e-01 +1.4030059320e+00 1.4340648715e+00 5.1100000000e-04 0.0000e+00 1.0000e+00
  1000022  1    3    3    0    0 +7.6688107535e+00 -3.7993953821e-01 +3.4016047654e+01 3.5228490039e+01 5.0000000000e+00 0.0000e+00 -1.0000e+00
<mgrwt>
<rscale>  1 0.75934329E+02</rscale>
<asrwt>0</asrwt>
<pdfrwt beam="1">  1       21 0.56752961E-01 0.75934329E+02</pdfrwt>
<pdfrwt beam="2">  1       -1 0.60117525E-03 0.75934329E+02</pdfrwt>
<totfact> 0.11208563E+06</totfact>
</mgrwt>
<rwgt>
<wgt id='1001'> +1.5607000e-12 </wgt>
<wgt id='1002'> +1.5649740e-12 </wgt>
<wgt id='1003'> +1.5625518e-12 </wgt>
<wgt id='1004'> +1.6248910e-12 </wgt>
<wgt id='1005'> +1.5607000e-12 </wgt>
<wgt id='1006'> +1.3951538e-12 </wgt>
<wgt id='1007'> +1.3977857e-12 </wgt>
<wgt id='1008'> +1.3962978e-12 </wgt>
<wgt id='1009'> +1.4299357e-12 </wgt>
<wgt id='1010'> +1.3951538e-12 </wgt>
<wgt id='1011'> +1.7726364e-12 </wgt>
<wgt id='1012'> +1.7794586e-12 </wgt>
<wgt id='1013'> +1.7755878e-12 </wgt>
<wgt id='1014'> +1.8842811e-12 </wgt>
<wgt id='1015'> +1.7726364e-12 </wgt>
<wgt id='1016'> +1.6674644e-12 </wgt>
<wgt id='1017'> +1.6739751e-12 </wgt>
<wgt id='1018'> +1.6702785e-12 </wgt>
<wgt id='1019'> +1.7755878e-12 </wgt>
<wgt id='1020'> +1.6674644e-12 </wgt>
<wgt id='1021'> +1.4905935e-12 </wgt>
<wgt id='1022'> +1.4951420e-12 </wgt>
<wgt id='1023'> +1.4925625e-12 </wgt>
<wgt id='1024'> +1.5625518e-12 </wgt>
<wgt id='1025'> +1.4905935e-12 </wgt>
<wgt id='1026'> +1.8938990e-12 </wgt>
<wgt id='1027'> +1.9033986e-12 </wgt>
<wgt id='1028'> +1.8980018e-12 </wgt>
<wgt id='1029'> +2.0590345e-12 </wgt>
<wgt id='1030'> +1.8938990e-12 </wgt>
<wgt id='1031'> +1.4292718e-12 </wgt>
<wgt id='1032'> +1.4307814e-12 </wgt>
<wgt id='1033'> +1.4299357e-12 </wgt>
<wgt id='1034'> +1.4389363e-12 </wgt>
<wgt id='1035'> +1.4292718e-12 </wgt>
<wgt id='1036'> +1.2776664e-12 </wgt>
<wgt id='1037'> +1.2779290e-12 </wgt>
<wgt id='1038'> +1.2777919e-12 </wgt>
<wgt id='1039'> +1.2662919e-12 </wgt>
<wgt id='1040'> +1.2776664e-12 </wgt>
<wgt id='1041'> +1.6233608e-12 </wgt>
<wgt id='1042'> +1.6268745e-12 </wgt>
<wgt id='1043'> +1.6248910e-12 </wgt>
<wgt id='1044'> +1.6686415e-12 </wgt>
<wgt id='1045'> +1.6233608e-12 </wgt>
<wgt id='1046'> +1.5607000e-12 </wgt>
<wgt id='1047'> +1.5667973e-12 </wgt>
<wgt id='1048'> +1.5583898e-12 </wgt>
<wgt id='1049'> +1.5028026e-12 </wgt>
<wgt id='1050'> +1.5692908e-12 </wgt>
<wgt id='1051'> +1.5404964e-12 </wgt>
<wgt id='1052'> +1.6196768e-12 </wgt>
<wgt id='1053'> +1.5722852e-12 </wgt>
<wgt id='1054'> +1.5247275e-12 </wgt>
<wgt id='1055'> +1.5556326e-12 </wgt>
<wgt id='1056'> +1.5894911e-12 </wgt>
<wgt id='1057'> +1.5739436e-12 </wgt>
<wgt id='1058'> +1.5677084e-12 </wgt>
<wgt id='1059'> +1.5664965e-12 </wgt>
<wgt id='1060'> +1.5385760e-12 </wgt>
<wgt id='1061'> +1.5364953e-12 </wgt>
<wgt id='1062'> +1.5661501e-12 </wgt>
<wgt id='1063'> +1.5957563e-12 </wgt>
<wgt id='1064'> +1.5629015e-12 </wgt>
<wgt id='1065'> +1.5407333e-12 </wgt>
<wgt id='1066'> +1.5356938e-12 </wgt>
<wgt id='1067'> +1.5360116e-12 </wgt>
<wgt id='1068'> +1.5440739e-12 </wgt>
<wgt id='1069'> +1.5517516e-12 </wgt>
<wgt id='1070'> +1.5470183e-12 </wgt>
<wgt id='1071'> +1.5440266e-12 </wgt>
<wgt id='1072'> +1.5166075e-12 </wgt>
<wgt id='1073'> +1.5997705e-12 </wgt>
<wgt id='1074'> +1.5703676e-12 </wgt>
<wgt id='1075'> +1.5823207e-12 </wgt>
<wgt id='1076'> +1.6147526e-12 </wgt>
<wgt id='1077'> +1.5385600e-12 </wgt>
<wgt id='1078'> +1.5975199e-12 </wgt>
<wgt id='1079'> +1.5544896e-12 </wgt>
<wgt id='1080'> +1.5697471e-12 </wgt>
<wgt id='1081'> +1.5565226e-12 </wgt>
<wgt id='1082'> +1.5600464e-12 </wgt>
<wgt id='1083'> +1.5461043e-12 </wgt>
<wgt id='1084'> +1.5559415e-12 </wgt>
<wgt id='1085'> +1.5592393e-12 </wgt>
<wgt id='1086'> +1.5458480e-12 </wgt>
<wgt id='1087'> +1.5567427e-12 </wgt>
<wgt id='1088'> +1.5982493e-12 </wgt>
<wgt id='1089'> +1.5775400e-12 </wgt>
<wgt id='1090'> +1.5722546e-12 </wgt>
<wgt id='1091'> +1.5348153e-12 </wgt>
<wgt id='1092'> +1.5717247e-12 </wgt>
<wgt id='1093'> +1.5829355e-12 </wgt>
<wgt id='1094'> +1.5155301e-12 </wgt>
<wgt id='1095'> +1.5879805e-12 </wgt>
<wgt id='1096'> +1.5969049e-12 </wgt>
<wgt id='1097'> +1.5339347e-12 </wgt>
<wgt id='1098'> +1.5525097e-12 </wgt>
<wgt id='1099'> +1.5741025e-12 </wgt>
<wgt id='1100'> +1.5800739e-12 </wgt>
<wgt id='1101'> +1.4973750e-12 </wgt>
<wgt id='1102'> +1.5634820e-12 </wgt>
<wgt id='1103'> +1.5725859e-12 </wgt>
<wgt id='1104'> +1.5454412e-12 </wgt>
<wgt id='1105'> +1.5776264e-12 </wgt>
<wgt id='1106'> +1.5326297e-12 </wgt>
<wgt id='1107'> +1.5810598e-12 </wgt>
<wgt id='1108'> +1.5610965e-12 </wgt>
<wgt id='1109'> +1.5426798e-12 </wgt>
<wgt id='1110'> +1.5105909e-12 </wgt>
<wgt id='1111'> +1.5556618e-12 </wgt>
<wgt id='1112'> +1.5465458e-12 </wgt>
<wgt id='1113'> +1.5225911e-12 </wgt>
<wgt id='1114'> +1.5815766e-12 </wgt>
<wgt id='1115'> +1.5804779e-12 </wgt>
<wgt id='1116'> +1.5774013e-12 </wgt>
<wgt id='1117'> +1.5551289e-12 </wgt>
<wgt id='1118'> +1.5382107e-12 </wgt>
<wgt id='1119'> +1.5519105e-12 </wgt>
<wgt id='1120'> +1.5563230e-12 </wgt>
<wgt id='1121'> +1.5691567e-12 </wgt>
<wgt id='1122'> +1.5559775e-12 </wgt>
<wgt id='1123'> +1.5660504e-12 </wgt>
<wgt id='1124'> +1.5704728e-12 </wgt>
<wgt id='1125'> +1.5502443e-12 </wgt>
<wgt id='1126'> +1.5662851e-12 </wgt>
<wgt id='1127'> +1.5683761e-12 </wgt>
<wgt id='1128'> +1.5661501e-12 </wgt>
<wgt id='1129'> +1.5675003e-12 </wgt>
<wgt id='1130'> +1.5538409e-12 </wgt>
<wgt id='1131'> +1.5659975e-12 </wgt>
<wgt id='1132'> +1.6017784e-12 </wgt>
<wgt id='1133'> +1.5693264e-12 </wgt>
<wgt id='1134'> +1.6113638e-12 </wgt>
<wgt id='1135'> +1.5747266e-12 </wgt>
<wgt id='1136'> +1.5696866e-12 </wgt>
<wgt id='1137'> +1.5425554e-12 </wgt>
<wgt id='1138'> +1.5668091e-12 </wgt>
<wgt id='1139'> +1.5646572e-12 </wgt>
<wgt id='1140'> +1.5868820e-12 </wgt>
<wgt id='1141'> +1.5771296e-12 </wgt>
<wgt id='1142'> +1.5552178e-12 </wgt>
<wgt id='1143'> +1.5411447e-12 </wgt>
<wgt id='1144'> +1.5716219e-12 </wgt>
<wgt id='1145'> +1.5249726e-12 </wgt>
<wgt id='1146'> +1.5512002e-12 </wgt>
<wgt id='1147'> +1.2628117e-12 </wgt>
<wgt id='1148'> +1.2843419e-12 </wgt>
<wgt id='1149'> +1.3262002e-12 </wgt>
<wgt id='1150'> +1.2438715e-12 </wgt>
<wgt id='1151'> +1.0723651e-12 </wgt>
<wgt id='1152'> +1.5265041e-12 </wgt>
<wgt id='1153'> +1.5206922e-12 </wgt>
<wgt id='1154'> +1.5298818e-12 </wgt>
<wgt id='1155'> +1.5265881e-12 </wgt>
<wgt id='1156'> +1.5264312e-12 </wgt>
<wgt id='1157'> +1.5273275e-12 </wgt>
<wgt id='1158'> +1.5252906e-12 </wgt>
<wgt id='1159'> +1.5272135e-12 </wgt>
<wgt id='1160'> +1.5260540e-12 </wgt>
<wgt id='1161'> +1.5225856e-12 </wgt>
<wgt id='1162'> +1.5292371e-12 </wgt>
<wgt id='1163'> +1.5309264e-12 </wgt>
<wgt id='1164'> +1.5220985e-12 </wgt>
<wgt id='1165'> +1.5194235e-12 </wgt>
<wgt id='1166'> +1.5333201e-12 </wgt>
<wgt id='1167'> +1.5281173e-12 </wgt>
<wgt id='1168'> +1.5227920e-12 </wgt>
<wgt id='1169'> +1.5263924e-12 </wgt>
<wgt id='1170'> +1.5265757e-12 </wgt>
<wgt id='1171'> +1.5278129e-12 </wgt>
<wgt id='1172'> +1.5247378e-12 </wgt>
<wgt id='1173'> +1.5290330e-12 </wgt>
<wgt id='1174'> +1.5230714e-12 </wgt>
<wgt id='1175'> +1.5227050e-12 </wgt>
<wgt id='1176'> +1.5288634e-12 </wgt>
<wgt id='1177'> +1.5266180e-12 </wgt>
<wgt id='1178'> +1.5268983e-12 </wgt>
<wgt id='1179'> +1.5388007e-12 </wgt>
<wgt id='1180'> +1.5107849e-12 </wgt>
<wgt id='1181'> +1.5210184e-12 </wgt>
<wgt id='1182'> +1.5319362e-12 </wgt>
<wgt id='1183'> +1.5262010e-12 </wgt>
<wgt id='1184'> +1.5266028e-12 </wgt>
<wgt id='1185'> +1.5246698e-12 </wgt>
<wgt id='1186'> +1.5274871e-12 </wgt>
<wgt id='1187'> +1.5255114e-12 </wgt>
<wgt id='1188'> +1.5267728e-12 </wgt>
<wgt id='1189'> +1.5304820e-12 </wgt>
<wgt id='1190'> +1.5031131e-12 </wgt>
<wgt id='1191'> +1.5179986e-12 </wgt>
<wgt id='1192'> +1.5344224e-12 </wgt>
<wgt id='1193'> +1.3315598e-12 </wgt>
<wgt id='1194'> +1.3252126e-12 </wgt>
<wgt id='1195'> +1.3366272e-12 </wgt>
<wgt id='1196'> +1.3348214e-12 </wgt>
<wgt id='1197'> +1.3278386e-12 </wgt>
<wgt id='1198'> +1.3321096e-12 </wgt>
<wgt id='1199'> +1.3305567e-12 </wgt>
<wgt id='1200'> +1.3331990e-12 </wgt>
<wgt id='1201'> +1.3303885e-12 </wgt>
<wgt id='1202'> +1.3292783e-12 </wgt>
<wgt id='1203'> +1.3347503e-12 </wgt>
<wgt id='1204'> +1.3180456e-12 </wgt>
<wgt id='1205'> +1.3398189e-12 </wgt>
<wgt id='1206'> +1.3354552e-12 </wgt>
<wgt id='1207'> +1.3261525e-12 </wgt>
<wgt id='1208'> +1.3265992e-12 </wgt>
<wgt id='1209'> +1.3333025e-12 </wgt>
<wgt id='1210'> +1.3214472e-12 </wgt>
<wgt id='1211'> +1.3365556e-12 </wgt>
<wgt id='1212'> +1.3328250e-12 </wgt>
<wgt id='1213'> +1.3303151e-12 </wgt>
<wgt id='1214'> +1.3273205e-12 </wgt>
<wgt id='1215'> +1.3353159e-12 </wgt>
<wgt id='1216'> +1.3305470e-12 </wgt>
<wgt id='1217'> +1.3315229e-12 </wgt>
<wgt id='1218'> +1.3311397e-12 </wgt>
<wgt id='1219'> +1.3314174e-12 </wgt>
<wgt id='1220'> +1.3340400e-12 </wgt>
<wgt id='1221'> +1.3331494e-12 </wgt>
<wgt id='1222'> +1.3312413e-12 </wgt>
<wgt id='1223'> +1.3341472e-12 </wgt>
<wgt id='1224'> +1.3317651e-12 </wgt>
<wgt id='1225'> +1.3313418e-12 </wgt>
<wgt id='1226'> +1.3301431e-12 </wgt>
<wgt id='1227'> +1.3325183e-12 </wgt>
<wgt id='1228'> +1.3304385e-12 </wgt>
<wgt id='1229'> +1.3316470e-12 </wgt>
<wgt id='1230'> +1.3486241e-12 </wgt>
<wgt id='1231'> +1.3183124e-12 </wgt>
<wgt id='1232'> +1.3319930e-12 </wgt>
<wgt id='1233'> +1.3314398e-12 </wgt>
<wgt id='1234'> +1.3315598e-12 </wgt>
<wgt id='1235'> +1.3256528e-12 </wgt>
<wgt id='1236'> +1.3279495e-12 </wgt>
<wgt id='1237'> +1.3299198e-12 </wgt>
<wgt id='1238'> +1.3332664e-12 </wgt>
<wgt id='1239'> +1.3346132e-12 </wgt>
<wgt id='1240'> +1.3357970e-12 </wgt>
<wgt id='1241'> +1.3646949e-12 </wgt>
<wgt id='1242'> +1.3569467e-12 </wgt>
<wgt id='1243'> +1.3722450e-12 </wgt>
<wgt id='1244'> +1.3602862e-12 </wgt>
<wgt id='1245'> +1.3679646e-12 </wgt>
<wgt id='1246'> +1.3653317e-12 </wgt>
<wgt id='1247'> +1.3641464e-12 </wgt>
<wgt id='1248'> +1.3646141e-12 </wgt>
<wgt id='1249'> +1.3647840e-12 </wgt>
<wgt id='1250'> +1.3647444e-12 </wgt>
<wgt id='1251'> +1.3646360e-12 </wgt>
<wgt id='1252'> +1.3626416e-12 </wgt>
<wgt id='1253'> +1.3663063e-12 </wgt>
<wgt id='1254'> +1.3529450e-12 </wgt>
<wgt id='1255'> +1.3717362e-12 </wgt>
<wgt id='1256'> +1.3679206e-12 </wgt>
<wgt id='1257'> +1.3566044e-12 </wgt>
<wgt id='1258'> +1.3648922e-12 </wgt>
<wgt id='1259'> +1.3627417e-12 </wgt>
<wgt id='1260'> +1.3654796e-12 </wgt>
<wgt id='1261'> +1.3641445e-12 </wgt>
<wgt id='1262'> +1.3638915e-12 </wgt>
<wgt id='1263'> +1.3648942e-12 </wgt>
<wgt id='1264'> +1.3656525e-12 </wgt>
<wgt id='1265'> +1.3643778e-12 </wgt>
<wgt id='1266'> +1.3685470e-12 </wgt>
<wgt id='1267'> +1.3624613e-12 </wgt>
<wgt id='1268'> +1.3641968e-12 </wgt>
<wgt id='1269'> +1.3688084e-12 </wgt>
<wgt id='1270'> +1.3683556e-12 </wgt>
<wgt id='1271'> +1.3620937e-12 </wgt>
<wgt id='1272'> +1.3669732e-12 </wgt>
<wgt id='1273'> +1.3641378e-12 </wgt>
<wgt id='1274'> +1.3660211e-12 </wgt>
<wgt id='1275'> +1.3621146e-12 </wgt>
<wgt id='1276'> +1.3644060e-12 </wgt>
<wgt id='1277'> +1.3643664e-12 </wgt>
<wgt id='1278'> +1.3577955e-12 </wgt>
<wgt id='1279'> +1.3747386e-12 </wgt>
<wgt id='1280'> +1.3640415e-12 </wgt>
<wgt id='1281'> +1.3699383e-12 </wgt>
<wgt id='1282'> +1.3646949e-12 </wgt>
<wgt id='1283'> +1.3580891e-12 </wgt>
<wgt id='1284'> +1.3608647e-12 </wgt>
<wgt id='1285'> +1.3630370e-12 </wgt>
<wgt id='1286'> +1.3665160e-12 </wgt>
<wgt id='1287'> +1.3678058e-12 </wgt>
<wgt id='1288'> +1.3689210e-12 </wgt>
<wgt id='1289'> +1.3714682e-12 </wgt>
<wgt id='1290'> +1.3783143e-12 </wgt>
<wgt id='1291'> +1.3641601e-12 </wgt>
<wgt id='1292'> +1.3686062e-12 </wgt>
<wgt id='1293'> +1.3735292e-12 </wgt>
<wgt id='1294'> +1.3708746e-12 </wgt>
<wgt id='1295'> +1.3720194e-12 </wgt>
<wgt id='1296'> +1.3673238e-12 </wgt>
<wgt id='1297'> +1.3766538e-12 </wgt>
<wgt id='1298'> +1.3776121e-12 </wgt>
<wgt id='1299'> +1.3638184e-12 </wgt>
<wgt id='1300'> +1.3747043e-12 </wgt>
<wgt id='1301'> +1.3650255e-12 </wgt>
<wgt id='1302'> +1.3704938e-12 </wgt>
<wgt id='1303'> +1.3728815e-12 </wgt>
<wgt id='1304'> +1.3695273e-12 </wgt>
<wgt id='1305'> +1.3728151e-12 </wgt>
<wgt id='1306'> +1.3671904e-12 </wgt>
<wgt id='1307'> +1.3764572e-12 </wgt>
<wgt id='1308'> +1.3801940e-12 </wgt>
<wgt id='1309'> +1.3648527e-12 </wgt>
<wgt id='1310'> +1.3694432e-12 </wgt>
<wgt id='1311'> +1.3738113e-12 </wgt>
<wgt id='1312'> +1.3674409e-12 </wgt>
<wgt id='1313'> +1.3757634e-12 </wgt>
<wgt id='1314'> +1.3652256e-12 </wgt>
<wgt id='1315'> +1.3723116e-12 </wgt>
<wgt id='1316'> +1.3774190e-12 </wgt>
<wgt id='1317'> +1.3719676e-12 </wgt>
<wgt id='1318'> +1.3719463e-12 </wgt>
<wgt id='1319'> +1.3699444e-12 </wgt>
<wgt id='1320'> +1.3660004e-12 </wgt>
<wgt id='1321'> +1.3736738e-12 </wgt>
<wgt id='1322'> +1.3719634e-12 </wgt>
<wgt id='1323'> +1.3707786e-12 </wgt>
<wgt id='1324'> +1.3712733e-12 </wgt>
<wgt id='1325'> +1.3758937e-12 </wgt>
<wgt id='1326'> +1.3712852e-12 </wgt>
<wgt id='1327'> +1.3737855e-12 </wgt>
<wgt id='1328'> +1.3703577e-12 </wgt>
<wgt id='1329'> +1.3724322e-12 </wgt>
<wgt id='1330'> +1.3477520e-12 </wgt>
<wgt id='1331'> +1.3866975e-12 </wgt>
<wgt id='1332'> +1.3921307e-12 </wgt>
<wgt id='1333'> +1.3609908e-12 </wgt>
<wgt id='1334'> +1.3676014e-12 </wgt>
<wgt id='1335'> +1.3808584e-12 </wgt>
<wgt id='1336'> +1.3840390e-12 </wgt>
<wgt id='1337'> +1.3569396e-12 </wgt>
<wgt id='1338'> +1.3755133e-12 </wgt>
<wgt id='1339'> +1.3696468e-12 </wgt>
<wgt id='1340'> +1.3411307e-12 </wgt>
<wgt id='1341'> +1.3481188e-12 </wgt>
<wgt id='1342'> +1.3337518e-12 </wgt>
<wgt id='1343'> +1.3383370e-12 </wgt>
<wgt id='1344'> +1.3430963e-12 </wgt>
<wgt id='1345'> +1.3401871e-12 </wgt>
<wgt id='1346'> +1.3419962e-12 </wgt>
<wgt id='1347'> +1.3370128e-12 </wgt>
<wgt id='1348'> +1.3457874e-12 </wgt>
<wgt id='1349'> +1.3466540e-12 </wgt>
<wgt id='1350'> +1.3357723e-12 </wgt>
<wgt id='1351'> +1.3444145e-12 </wgt>
<wgt id='1352'> +1.3340445e-12 </wgt>
<wgt id='1353'> +1.3397627e-12 </wgt>
<wgt id='1354'> +1.3436753e-12 </wgt>
<wgt id='1355'> +1.3392568e-12 </wgt>
<wgt id='1356'> +1.3422315e-12 </wgt>
<wgt id='1357'> +1.3393725e-12 </wgt>
<wgt id='1358'> +1.3433747e-12 </wgt>
<wgt id='1359'> +1.3510242e-12 </wgt>
<wgt id='1360'> +1.3325900e-12 </wgt>
<wgt id='1361'> +1.3392906e-12 </wgt>
<wgt id='1362'> +1.3437711e-12 </wgt>
<wgt id='1363'> +1.3368060e-12 </wgt>
<wgt id='1364'> +1.3446186e-12 </wgt>
<wgt id='1365'> +1.3442396e-12 </wgt>
<wgt id='1366'> +1.3303003e-12 </wgt>
<wgt id='1367'> +1.3467547e-12 </wgt>
<wgt id='1368'> +1.3410802e-12 </wgt>
<wgt id='1369'> +1.3423155e-12 </wgt>
<wgt id='1370'> +1.3394499e-12 </wgt>
<wgt id='1371'> +1.3379738e-12 </wgt>
<wgt id='1372'> +1.3433584e-12 </wgt>
<wgt id='1373'> +1.3423120e-12 </wgt>
<wgt id='1374'> +1.3396888e-12 </wgt>
<wgt id='1375'> +1.3410384e-12 </wgt>
<wgt id='1376'> +1.3452384e-12 </wgt>
<wgt id='1377'> +1.3413974e-12 </wgt>
<wgt id='1378'> +1.3433397e-12 </wgt>
<wgt id='1379'> +1.3398603e-12 </wgt>
<wgt id='1380'> +1.3425331e-12 </wgt>
<wgt id='1381'> +1.3162080e-12 </wgt>
<wgt id='1382'> +1.3555182e-12 </wgt>
<wgt id='1383'> +1.3624999e-12 </wgt>
<wgt id='1384'> +1.3278412e-12 </wgt>
<wgt id='1385'> +1.3368079e-12 </wgt>
<wgt id='1386'> +1.3509518e-12 </wgt>
<wgt id='1387'> +1.3554324e-12 </wgt>
<wgt id='1388'> +1.3249022e-12 </wgt>
<wgt id='1389'> +1.3475568e-12 </wgt>
<wgt id='1390'> +1.3382744e-12 </wgt>
<wgt id='1391'> +1.3131827e-12 </wgt>
<wgt id='1392'> +1.2725909e-12 </wgt>
<wgt id='1393'> +1.2852767e-12 </wgt>
<wgt id='1394'> +1.2989911e-12 </wgt>
<wgt id='1395'> +1.3248103e-12 </wgt>
<wgt id='1396'> +1.3124100e-12 </wgt>
<wgt id='1397'> +1.2882888e-12 </wgt>
<wgt id='1398'> +1.2933268e-12 </wgt>
<wgt id='1399'> +1.2981936e-12 </wgt>
<wgt id='1400'> +1.3028238e-12 </wgt>
<wgt id='1401'> +1.3076832e-12 </wgt>
<wgt id='1402'> +1.3162171e-12 </wgt>
<wgt id='1403'> +1.3204892e-12 </wgt>
<wgt id='1404'> +1.3239517e-12 </wgt>
<wgt id='1405'> +1.3124100e-12 </wgt>
<wgt id='1406'> +1.3093610e-12 </wgt>
<wgt id='1407'> +1.3110763e-12 </wgt>
<wgt id='1408'> +1.3138176e-12 </wgt>
<wgt id='1409'> +1.3147304e-12 </wgt>
<wgt id='1410'> +1.3299303e-12 </wgt>
<wgt id='1411'> +1.3353463e-12 </wgt>
<wgt id='1412'> +1.3229934e-12 </wgt>
<wgt id='1413'> +1.3345204e-12 </wgt>
<wgt id='1414'> +1.3253438e-12 </wgt>
<wgt id='1415'> +1.3267202e-12 </wgt>
<wgt id='1416'> +1.3312508e-12 </wgt>
<wgt id='1417'> +1.3228897e-12 </wgt>
<wgt id='1418'> +1.3369663e-12 </wgt>
<wgt id='1419'> +1.3318047e-12 </wgt>
<wgt id='1420'> +1.3281399e-12 </wgt>
<wgt id='1421'> +1.3180677e-12 </wgt>
<wgt id='1422'> +1.3350429e-12 </wgt>
<wgt id='1423'> +1.3296238e-12 </wgt>
<wgt id='1424'> +1.3303075e-12 </wgt>
<wgt id='1425'> +1.3266993e-12 </wgt>
<wgt id='1426'> +1.3334508e-12 </wgt>
<wgt id='1427'> +1.3292336e-12 </wgt>
<wgt id='1428'> +1.3300674e-12 </wgt>
<wgt id='1429'> +1.3238312e-12 </wgt>
<wgt id='1430'> +1.3380652e-12 </wgt>
<wgt id='1431'> +1.3358088e-12 </wgt>
<wgt id='1432'> +1.3256992e-12 </wgt>
<wgt id='1433'> +1.3315415e-12 </wgt>
<wgt id='1434'> +1.3262769e-12 </wgt>
<wgt id='1435'> +1.3312143e-12 </wgt>
<wgt id='1436'> +1.3269959e-12 </wgt>
<wgt id='1437'> +1.3354133e-12 </wgt>
<wgt id='1438'> +1.3302892e-12 </wgt>
<wgt id='1439'> +1.3288400e-12 </wgt>
<wgt id='1440'> +1.3290697e-12 </wgt>
<wgt id='1441'> +1.3283426e-12 </wgt>
<wgt id='1442'> +1.3336801e-12 </wgt>
<wgt id='1443'> +1.3296627e-12 </wgt>
<wgt id='1444'> +1.3320330e-12 </wgt>
<wgt id='1445'> +1.3339357e-12 </wgt>
<wgt id='1446'> +1.3294870e-12 </wgt>
<wgt id='1447'> +1.3305113e-12 </wgt>
<wgt id='1448'> +1.3317277e-12 </wgt>
<wgt id='1449'> +1.3283654e-12 </wgt>
<wgt id='1450'> +1.3308548e-12 </wgt>
<wgt id='1451'> +1.3379752e-12 </wgt>
<wgt id='1452'> +1.3101783e-12 </wgt>
<wgt id='1453'> +1.3318753e-12 </wgt>
<wgt id='1454'> +1.3177983e-12 </wgt>
<wgt id='1455'> +1.3137371e-12 </wgt>
<wgt id='1456'> +1.3464181e-12 </wgt>
<wgt id='1457'> +1.3416257e-12 </wgt>
<wgt id='1458'> +1.3256342e-12 </wgt>
<wgt id='1459'> +1.3299581e-12 </wgt>
<wgt id='1460'> +1.3349991e-12 </wgt>
<wgt id='1461'> +1.3299303e-12 </wgt>
<wgt id='1462'> +1.3174340e-12 </wgt>
<wgt id='1463'> +1.3411878e-12 </wgt>
<wgt id='1464'> +1.3292845e-12 </wgt>
<wgt id='1465'> +1.3101167e-12 </wgt>
<wgt id='1466'> +1.3142449e-12 </wgt>
<wgt id='1467'> +1.3183684e-12 </wgt>
<wgt id='1468'> +1.3223266e-12 </wgt>
<wgt id='1469'> +1.3258766e-12 </wgt>
<wgt id='1470'> +1.3325936e-12 </wgt>
<wgt id='1471'> +1.3350430e-12 </wgt>
<wgt id='1472'> +1.3383137e-12 </wgt>
<wgt id='1473'> +1.3292845e-12 </wgt>
<wgt id='1474'> +1.3254031e-12 </wgt>
<wgt id='1475'> +1.3270850e-12 </wgt>
<wgt id='1476'> +1.3308296e-12 </wgt>
<wgt id='1477'> +1.3325169e-12 </wgt>
<wgt id='1478'> +1.2790043e-12 </wgt>
<wgt id='1479'> +1.2802082e-12 </wgt>
<wgt id='1480'> +1.3137696e-12 </wgt>
<wgt id='1481'> +1.2761871e-12 </wgt>
<wgt id='1482'> +1.2835674e-12 </wgt>
<wgt id='1483'> +1.2736248e-12 </wgt>
<wgt id='1484'> +1.2827040e-12 </wgt>
<wgt id='1485'> +1.2882848e-12 </wgt>
<wgt id='1486'> +1.2783298e-12 </wgt>
<wgt id='1487'> +1.2780133e-12 </wgt>
<wgt id='1488'> +1.2752250e-12 </wgt>
<wgt id='1489'> +1.2828611e-12 </wgt>
<wgt id='1490'> +1.2796177e-12 </wgt>
<wgt id='1491'> +1.2773873e-12 </wgt>
<wgt id='1492'> +1.2769979e-12 </wgt>
<wgt id='1493'> +1.2745820e-12 </wgt>
<wgt id='1494'> +1.2870432e-12 </wgt>
<wgt id='1495'> +1.2911075e-12 </wgt>
<wgt id='1496'> +1.2803225e-12 </wgt>
<wgt id='1497'> +1.2868200e-12 </wgt>
<wgt id='1498'> +1.2754462e-12 </wgt>
<wgt id='1499'> +1.2821101e-12 </wgt>
<wgt id='1500'> +1.2744684e-12 </wgt>
<wgt id='1501'> +1.2796524e-12 </wgt>
<wgt id='1502'> +1.2831397e-12 </wgt>
<wgt id='1503'> +1.2748427e-12 </wgt>
<wgt id='1504'> +1.2811506e-12 </wgt>
<wgt id='1505'> +1.2749172e-12 </wgt>
<wgt id='1506'> +1.2803939e-12 </wgt>
<wgt id='1507'> +1.2770290e-12 </wgt>
<wgt id='1508'> +1.2904123e-12 </wgt>
<wgt id='1509'> +1.3474811e-12 </wgt>
<wgt id='1510'> +1.3459755e-12 </wgt>
<wgt id='1511'> +1.3447587e-12 </wgt>
<wgt id='1512'> +1.3447490e-12 </wgt>
<wgt id='1513'> +1.3557058e-12 </wgt>
<wgt id='1514'> +1.3463585e-12 </wgt>
<wgt id='1515'> +1.3407787e-12 </wgt>
<wgt id='1516'> +1.3481331e-12 </wgt>
<wgt id='1517'> +1.3407283e-12 </wgt>
<wgt id='1518'> +1.3473416e-12 </wgt>
<wgt id='1519'> +1.3429350e-12 </wgt>
<wgt id='1520'> +1.3391891e-12 </wgt>
<wgt id='1521'> +1.3497943e-12 </wgt>
<wgt id='1522'> +1.3425675e-12 </wgt>
<wgt id='1523'> +1.3415404e-12 </wgt>
<wgt id='1524'> +1.3546496e-12 </wgt>
<wgt id='1525'> +1.3494017e-12 </wgt>
<wgt id='1526'> +1.3424586e-12 </wgt>
<wgt id='1527'> +1.3469827e-12 </wgt>
<wgt id='1528'> +1.3431189e-12 </wgt>
<wgt id='1529'> +1.3478388e-12 </wgt>
<wgt id='1530'> +1.3488954e-12 </wgt>
<wgt id='1531'> +1.3480190e-12 </wgt>
<wgt id='1532'> +1.3509805e-12 </wgt>
<wgt id='1533'> +1.3542890e-12 </wgt>
<wgt id='1534'> +1.3510945e-12 </wgt>
<wgt id='1535'> +1.3518327e-12 </wgt>
<wgt id='1536'> +1.3447959e-12 </wgt>
<wgt id='1537'> +1.3445763e-12 </wgt>
<wgt id='1538'> +1.3505425e-12 </wgt>
<wgt id='1539'> +1.3479968e-12 </wgt>
<wgt id='1540'> +1.3495574e-12 </wgt>
<wgt id='1541'> +1.3455417e-12 </wgt>
<wgt id='1542'> +1.3476362e-12 </wgt>
<wgt id='1543'> +1.3505358e-12 </wgt>
<wgt id='1544'> +1.3466793e-12 </wgt>
<wgt id='1545'> +1.3486742e-12 </wgt>
<wgt id='1546'> +1.3503374e-12 </wgt>
<wgt id='1547'> +1.3472291e-12 </wgt>
<wgt id='1548'> +1.3451865e-12 </wgt>
<wgt id='1549'> +1.3477721e-12 </wgt>
<wgt id='1550'> +1.3470052e-12 </wgt>
<wgt id='1551'> +1.3465969e-12 </wgt>
<wgt id='1552'> +1.3474079e-12 </wgt>
<wgt id='1553'> +1.3477290e-12 </wgt>
<wgt id='1554'> +1.3470752e-12 </wgt>
<wgt id='1555'> +1.3483669e-12 </wgt>
<wgt id='1556'> +1.3494448e-12 </wgt>
<wgt id='1557'> +1.3465972e-12 </wgt>
<wgt id='1558'> +1.3466314e-12 </wgt>
<wgt id='1559'> +1.3474340e-12 </wgt>
<wgt id='1560'> +1.3489419e-12 </wgt>
<wgt id='1561'> +1.3482457e-12 </wgt>
<wgt id='1562'> +1.3480184e-12 </wgt>
<wgt id='1563'> +1.3479123e-12 </wgt>
<wgt id='1564'> +1.3474353e-12 </wgt>
<wgt id='1565'> +1.3478337e-12 </wgt>
<wgt id='1566'> +1.3482495e-12 </wgt>
<wgt id='1567'> +1.3484059e-12 </wgt>
<wgt id='1568'> +1.3471362e-12 </wgt>
<wgt id='1569'> +1.3471114e-12 </wgt>
<wgt id='1570'> +1.3471606e-12 </wgt>
<wgt id='1571'> +1.3471920e-12 </wgt>
<wgt id='1572'> +1.3474259e-12 </wgt>
<wgt id='1573'> +1.3464727e-12 </wgt>
<wgt id='1574'> +1.3478523e-12 </wgt>
<wgt id='1575'> +1.3473449e-12 </wgt>
<wgt id='1576'> +1.3472302e-12 </wgt>
<wgt id='1577'> +1.3475222e-12 </wgt>
<wgt id='1578'> +1.3474719e-12 </wgt>
<wgt id='1579'> +1.3472251e-12 </wgt>
<wgt id='1580'> +1.3475953e-12 </wgt>
<wgt id='1581'> +1.3478268e-12 </wgt>
<wgt id='1582'> +1.3475767e-12 </wgt>
<wgt id='1583'> +1.3480031e-12 </wgt>
<wgt id='1584'> +1.3469185e-12 </wgt>
<wgt id='1585'> +1.3471931e-12 </wgt>
<wgt id='1586'> +1.3471165e-12 </wgt>
<wgt id='1587'> +1.3471369e-12 </wgt>
<wgt id='1588'> +1.3474621e-12 </wgt>
<wgt id='1589'> +1.3474389e-12 </wgt>
<wgt id='1590'> +1.3476366e-12 </wgt>
<wgt id='1591'> +1.3472587e-12 </wgt>
<wgt id='1592'> +1.3473882e-12 </wgt>
<wgt id='1593'> +1.3475144e-12 </wgt>
<wgt id='1594'> +1.3475803e-12 </wgt>
<wgt id='1595'> +1.3473101e-12 </wgt>
<wgt id='1596'> +1.3473474e-12 </wgt>
<wgt id='1597'> +1.3476290e-12 </wgt>
<wgt id='1598'> +1.3473632e-12 </wgt>
<wgt id='1599'> +1.3473673e-12 </wgt>
<wgt id='1600'> +1.3476875e-12 </wgt>
<wgt id='1601'> +1.3476864e-12 </wgt>
<wgt id='1602'> +1.3472090e-12 </wgt>
<wgt id='1603'> +1.3475921e-12 </wgt>
<wgt id='1604'> +1.3478531e-12 </wgt>
<wgt id='1605'> +1.3475186e-12 </wgt>
<wgt id='1606'> +1.3476909e-12 </wgt>
<wgt id='1607'> +1.3473757e-12 </wgt>
<wgt id='1608'> +1.3475939e-12 </wgt>
<wgt id='1609'> +1.3477192e-12 </wgt>
<wgt id='1610'> +1.3216452e-12 </wgt>
<wgt id='1611'> +1.3748734e-12 </wgt>
<wgt id='1612'> +1.5222280e-12 </wgt>
<wgt id='1613'> +1.5239666e-12 </wgt>
<wgt id='1614'> +1.5781372e-12 </wgt>
<wgt id='1615'> +1.5304893e-12 </wgt>
<wgt id='1616'> +1.5725488e-12 </wgt>
<wgt id='1617'> +1.5582719e-12 </wgt>
<wgt id='1618'> +1.5596829e-12 </wgt>
<wgt id='1619'> +1.5382361e-12 </wgt>
<wgt id='1620'> +1.5266156e-12 </wgt>
<wgt id='1621'> +1.5232894e-12 </wgt>
<wgt id='1622'> +1.5030401e-12 </wgt>
<wgt id='1623'> +1.5188534e-12 </wgt>
<wgt id='1624'> +1.5242853e-12 </wgt>
<wgt id='1625'> +1.5069640e-12 </wgt>
<wgt id='1626'> +1.4843939e-12 </wgt>
<wgt id='1627'> +1.5367648e-12 </wgt>
<wgt id='1628'> +1.5610932e-12 </wgt>
<wgt id='1629'> +1.4695354e-12 </wgt>
<wgt id='1630'> +1.5088481e-12 </wgt>
<wgt id='1631'> +1.5548631e-12 </wgt>
<wgt id='1632'> +1.5049110e-12 </wgt>
<wgt id='1633'> +1.5394540e-12 </wgt>
<wgt id='1634'> +1.4731931e-12 </wgt>
<wgt id='1635'> +1.5031820e-12 </wgt>
<wgt id='1636'> +1.5920959e-12 </wgt>
<wgt id='1637'> +1.5222875e-12 </wgt>
<wgt id='1638'> +1.5143934e-12 </wgt>
<wgt id='1639'> +1.5299723e-12 </wgt>
<wgt id='1640'> +1.5070477e-12 </wgt>
<wgt id='1641'> +1.5282864e-12 </wgt>
<wgt id='1642'> +1.5119983e-12 </wgt>
<wgt id='1643'> +1.5430016e-12 </wgt>
<wgt id='1644'> +1.4885181e-12 </wgt>
<wgt id='1645'> +1.5069837e-12 </wgt>
<wgt id='1646'> +1.5265371e-12 </wgt>
<wgt id='1647'> +1.5104268e-12 </wgt>
<wgt id='1648'> +1.5419484e-12 </wgt>
<wgt id='1649'> +1.5838463e-12 </wgt>
<wgt id='1650'> +1.5361686e-12 </wgt>
<wgt id='1651'> +1.5509574e-12 </wgt>
<wgt id='1652'> +1.5105611e-12 </wgt>
<wgt id='1653'> +1.5511254e-12 </wgt>
<wgt id='1654'> +1.5584040e-12 </wgt>
<wgt id='1655'> +1.5452922e-12 </wgt>
<wgt id='1656'> +1.4984294e-12 </wgt>
<wgt id='1657'> +1.5357459e-12 </wgt>
<wgt id='1658'> +1.5492019e-12 </wgt>
<wgt id='1659'> +1.5242853e-12 </wgt>
<wgt id='1660'> +1.5378064e-12 </wgt>
<wgt id='1661'> +1.5033731e-12 </wgt>
<wgt id='1662'> +1.4758349e-12 </wgt>
<wgt id='1663'> +1.4923249e-12 </wgt>
<wgt id='1664'> +1.5024871e-12 </wgt>
<wgt id='1665'> +1.4872246e-12 </wgt>
<wgt id='1666'> +1.5093822e-12 </wgt>
<wgt id='1667'> +1.5256009e-12 </wgt>
<wgt id='1668'> +1.5513026e-12 </wgt>
<wgt id='1669'> +1.5223741e-12 </wgt>
<wgt id='1670'> +1.5284120e-12 </wgt>
<wgt id='1671'> +1.4748631e-12 </wgt>
<wgt id='1672'> +1.4939294e-12 </wgt>
<wgt id='1673'> +1.5658254e-12 </wgt>
<wgt id='1674'> +1.5276498e-12 </wgt>
<wgt id='1675'> +1.5054861e-12 </wgt>
<wgt id='1676'> +1.5271358e-12 </wgt>
<wgt id='1677'> +1.5054569e-12 </wgt>
<wgt id='1678'> +1.5261629e-12 </wgt>
<wgt id='1679'> +1.5269148e-12 </wgt>
<wgt id='1680'> +1.5282278e-12 </wgt>
<wgt id='1681'> +1.4802063e-12 </wgt>
<wgt id='1682'> +1.4927695e-12 </wgt>
<wgt id='1683'> +1.5220286e-12 </wgt>
<wgt id='1684'> +1.4763008e-12 </wgt>
<wgt id='1685'> +1.5189687e-12 </wgt>
<wgt id='1686'> +1.4995764e-12 </wgt>
<wgt id='1687'> +1.5006992e-12 </wgt>
<wgt id='1688'> +1.5600061e-12 </wgt>
<wgt id='1689'> +1.5074979e-12 </wgt>
<wgt id='1690'> +1.4659130e-12 </wgt>
<wgt id='1691'> +1.5174735e-12 </wgt>
<wgt id='1692'> +1.5405672e-12 </wgt>
<wgt id='1693'> +1.4873778e-12 </wgt>
<wgt id='1694'> +1.5074777e-12 </wgt>
<wgt id='1695'> +1.4946781e-12 </wgt>
<wgt id='1696'> +1.5214646e-12 </wgt>
<wgt id='1697'> +1.5872324e-12 </wgt>
<wgt id='1698'> +1.5164701e-12 </wgt>
<wgt id='1699'> +1.5445013e-12 </wgt>
<wgt id='1700'> +1.5455423e-12 </wgt>
<wgt id='1701'> +1.5356366e-12 </wgt>
<wgt id='1702'> +1.5260092e-12 </wgt>
<wgt id='1703'> +1.4895173e-12 </wgt>
<wgt id='1704'> +1.5511356e-12 </wgt>
<wgt id='1705'> +1.5172348e-12 </wgt>
<wgt id='1706'> +1.5379193e-12 </wgt>
<wgt id='1707'> +1.5096129e-12 </wgt>
<wgt id='1708'> +1.5384548e-12 </wgt>
<wgt id='1709'> +1.5162589e-12 </wgt>
<wgt id='1710'> +1.5242065e-12 </wgt>
<wgt id='1711'> +1.5055957e-12 </wgt>
<wgt id='1712'> +1.5041738e-12 </wgt>
<wgt id='1713'> +1.3170545e-12 </wgt>
<wgt id='1714'> +1.3256649e-12 </wgt>
<wgt id='1715'> +1.3284248e-12 </wgt>
<wgt id='1716'> +1.3488352e-12 </wgt>
<wgt id='1717'> +1.3172728e-12 </wgt>
<wgt id='1718'> +1.2486166e-12 </wgt>
<wgt id='1719'> +1.2971685e-12 </wgt>
<wgt id='1720'> +1.3163151e-12 </wgt>
<wgt id='1721'> +1.3306944e-12 </wgt>
<wgt id='1722'> +1.3279163e-12 </wgt>
<wgt id='1723'> +1.3010817e-12 </wgt>
<wgt id='1724'> +1.1903186e-12 </wgt>
<wgt id='1725'> +1.2933107e-12 </wgt>
<wgt id='1726'> +1.3424759e-12 </wgt>
<wgt id='1727'> +1.2973182e-12 </wgt>
<wgt id='1728'> +1.3424641e-12 </wgt>
<wgt id='1729'> +1.3012239e-12 </wgt>
<wgt id='1730'> +1.3186542e-12 </wgt>
<wgt id='1731'> +1.2986528e-12 </wgt>
<wgt id='1732'> +1.3524809e-12 </wgt>
<wgt id='1733'> +1.3659229e-12 </wgt>
<wgt id='1734'> +1.3595358e-12 </wgt>
<wgt id='1735'> +1.3156007e-12 </wgt>
<wgt id='1736'> +1.3973535e-12 </wgt>
<wgt id='1737'> +1.3090896e-12 </wgt>
<wgt id='1738'> +1.3159607e-12 </wgt>
<wgt id='1739'> +1.3425373e-12 </wgt>
<wgt id='1740'> +1.2965007e-12 </wgt>
<wgt id='1741'> +1.3119563e-12 </wgt>
<wgt id='1742'> +1.3465767e-12 </wgt>
<wgt id='1743'> +1.3595358e-12 </wgt>
<wgt id='1744'> +1.3533465e-12 </wgt>
<wgt id='1745'> +1.2533792e-12 </wgt>
<wgt id='1746'> +1.3242211e-12 </wgt>
<wgt id='1747'> +1.2994161e-12 </wgt>
<wgt id='1748'> +1.3214389e-12 </wgt>
<wgt id='1749'> +1.3164581e-12 </wgt>
<wgt id='1750'> +1.3410851e-12 </wgt>
<wgt id='1751'> +1.2656555e-12 </wgt>
<wgt id='1752'> +1.3223457e-12 </wgt>
<wgt id='1753'> +1.3190585e-12 </wgt>
<wgt id='1754'> +1.3481610e-12 </wgt>
<wgt id='1755'> +1.3189470e-12 </wgt>
<wgt id='1756'> +1.3107873e-12 </wgt>
<wgt id='1757'> +1.3278212e-12 </wgt>
<wgt id='1758'> +1.3359760e-12 </wgt>
<wgt id='1759'> +1.3262269e-12 </wgt>
<wgt id='1760'> +1.3125665e-12 </wgt>
<wgt id='1761'> +1.3197311e-12 </wgt>
<wgt id='1762'> +1.2498616e-12 </wgt>
<wgt id='1763'> +1.3278903e-12 </wgt>
<wgt id='1764'> +1.3311025e-12 </wgt>
<wgt id='1765'> +1.3022184e-12 </wgt>
<wgt id='1766'> +1.2856776e-12 </wgt>
<wgt id='1767'> +1.3188556e-12 </wgt>
<wgt id='1768'> +1.2985545e-12 </wgt>
<wgt id='1769'> +1.3159745e-12 </wgt>
<wgt id='1770'> +1.3481044e-12 </wgt>
<wgt id='1771'> +1.3158341e-12 </wgt>
<wgt id='1772'> +1.3737910e-12 </wgt>
<wgt id='1773'> +1.3249379e-12 </wgt>
<wgt id='1774'> +1.3188147e-12 </wgt>
<wgt id='1775'> +1.3375855e-12 </wgt>
<wgt id='1776'> +1.2382259e-12 </wgt>
<wgt id='1777'> +1.3088297e-12 </wgt>
<wgt id='1778'> +1.2848033e-12 </wgt>
<wgt id='1779'> +1.3131838e-12 </wgt>
<wgt id='1780'> +1.4566963e-12 </wgt>
<wgt id='1781'> +1.3283560e-12 </wgt>
<wgt id='1782'> +1.2693985e-12 </wgt>
<wgt id='1783'> +1.2952221e-12 </wgt>
<wgt id='1784'> +1.2985723e-12 </wgt>
<wgt id='1785'> +1.2707535e-12 </wgt>
<wgt id='1786'> +1.2502273e-12 </wgt>
<wgt id='1787'> +1.3161422e-12 </wgt>
<wgt id='1788'> +1.3147140e-12 </wgt>
<wgt id='1789'> +1.2432633e-12 </wgt>
<wgt id='1790'> +1.2965258e-12 </wgt>
<wgt id='1791'> +1.3351229e-12 </wgt>
<wgt id='1792'> +1.3039726e-12 </wgt>
<wgt id='1793'> +1.3254663e-12 </wgt>
<wgt id='1794'> +1.3197625e-12 </wgt>
<wgt id='1795'> +1.2777202e-12 </wgt>
<wgt id='1796'> +1.3696465e-12 </wgt>
<wgt id='1797'> +1.3247900e-12 </wgt>
<wgt id='1798'> +1.3147401e-12 </wgt>
<wgt id='1799'> +1.3132616e-12 </wgt>
<wgt id='1800'> +1.3247539e-12 </wgt>
<wgt id='1801'> +1.3191871e-12 </wgt>
<wgt id='1802'> +1.3417162e-12 </wgt>
<wgt id='1803'> +1.3210726e-12 </wgt>
<wgt id='1804'> +1.3421620e-12 </wgt>
<wgt id='1805'> +1.2936232e-12 </wgt>
<wgt id='1806'> +1.3194671e-12 </wgt>
<wgt id='1807'> +1.3334304e-12 </wgt>
<wgt id='1808'> +1.3205642e-12 </wgt>
<wgt id='1809'> +1.3140289e-12 </wgt>
<wgt id='1810'> +1.3166698e-12 </wgt>
<wgt id='1811'> +1.3322800e-12 </wgt>
<wgt id='1812'> +1.3456882e-12 </wgt>
<wgt id='1813'> +1.3526084e-12 </wgt>
<wgt id='1814'> +1.3028745e-12 </wgt>
<wgt id='1815'> +1.4145851e-12 </wgt>
<wgt id='1816'> +1.3170545e-12 </wgt>
<wgt id='1817'> +1.3256649e-12 </wgt>
<wgt id='1818'> +1.3284248e-12 </wgt>
<wgt id='1819'> +1.3488352e-12 </wgt>
<wgt id='1820'> +1.3172728e-12 </wgt>
<wgt id='1821'> +1.2486166e-12 </wgt>
<wgt id='1822'> +1.2971685e-12 </wgt>
<wgt id='1823'> +1.3163151e-12 </wgt>
<wgt id='1824'> +1.3306944e-12 </wgt>
<wgt id='1825'> +1.3279163e-12 </wgt>
<wgt id='1826'> +1.3010817e-12 </wgt>
<wgt id='1827'> +1.1903186e-12 </wgt>
<wgt id='1828'> +1.2933107e-12 </wgt>
<wgt id='1829'> +1.3424759e-12 </wgt>
<wgt id='1830'> +1.2973182e-12 </wgt>
<wgt id='1831'> +1.3424641e-12 </wgt>
<wgt id='1832'> +1.3012239e-12 </wgt>
<wgt id='1833'> +1.3186542e-12 </wgt>
<wgt id='1834'> +1.2986528e-12 </wgt>
<wgt id='1835'> +1.3524809e-12 </wgt>
<wgt id='1836'> +1.3659229e-12 </wgt>
<wgt id='1837'> +1.3595358e-12 </wgt>
<wgt id='1838'> +1.3156007e-12 </wgt>
<wgt id='1839'> +1.3973535e-12 </wgt>
<wgt id='1840'> +1.3090896e-12 </wgt>
<wgt id='1841'> +1.3159607e-12 </wgt>
<wgt id='1842'> +1.3425373e-12 </wgt>
<wgt id='1843'> +1.2965007e-12 </wgt>
<wgt id='1844'> +1.3119563e-12 </wgt>
<wgt id='1845'> +1.3465767e-12 </wgt>
<wgt id='1846'> +1.3595358e-12 </wgt>
<wgt id='1847'> +1.3533465e-12 </wgt>
<wgt id='1848'> +1.2533792e-12 </wgt>
<wgt id='1849'> +1.3242211e-12 </wgt>
<wgt id='1850'> +1.2994161e-12 </wgt>
<wgt id='1851'> +1.3214389e-12 </wgt>
<wgt id='1852'> +1.3164581e-12 </wgt>
<wgt id='1853'> +1.3410851e-12 </wgt>
<wgt id='1854'> +1.2656555e-12 </wgt>
<wgt id='1855'> +1.3223457e-12 </wgt>
<wgt id='1856'> +1.3190585e-12 </wgt>
<wgt id='1857'> +1.3481610e-12 </wgt>
<wgt id='1858'> +1.3189470e-12 </wgt>
<wgt id='1859'> +1.3107873e-12 </wgt>
<wgt id='1860'> +1.3278212e-12 </wgt>
<wgt id='1861'> +1.3359760e-12 </wgt>
<wgt id='1862'> +1.3262269e-12 </wgt>
<wgt id='1863'> +1.3125665e-12 </wgt>
<wgt id='1864'> +1.3197311e-12 </wgt>
<wgt id='1865'> +1.2498616e-12 </wgt>
<wgt id='1866'> +1.3278903e-12 </wgt>
<wgt id='1867'> +1.3311025e-12 </wgt>
<wgt id='1868'> +1.3022184e-12 </wgt>
<wgt id='1869'> +1.2856776e-12 </wgt>
<wgt id='1870'> +1.3188556e-12 </wgt>
<wgt id='1871'> +1.2985545e-12 </wgt>
<wgt id='1872'> +1.3159745e-12 </wgt>
<wgt id='1873'> +1.3481044e-12 </wgt>
<wgt id='1874'> +1.3158341e-12 </wgt>
<wgt id='1875'> +1.3737910e-12 </wgt>
<wgt id='1876'> +1.3249379e-12 </wgt>
<wgt id='1877'> +1.3188147e-12 </wgt>
<wgt id='1878'> +1.3375855e-12 </wgt>
<wgt id='1879'> +1.2382259e-12 </wgt>
<wgt id='1880'> +1.3088297e-12 </wgt>
<wgt id='1881'> +1.2848033e-12 </wgt>
<wgt id='1882'> +1.3131838e-12 </wgt>
<wgt id='1883'> +1.4566963e-12 </wgt>
<wgt id='1884'> +1.3283560e-12 </wgt>
<wgt id='1885'> +1.2693985e-12 </wgt>
<wgt id='1886'> +1.2952221e-12 </wgt>
<wgt id='1887'> +1.2985723e-12 </wgt>
<wgt id='1888'> +1.2707535e-12 </wgt>
<wgt id='1889'> +1.2502273e-12 </wgt>
<wgt id='1890'> +1.3161422e-12 </wgt>
<wgt id='1891'> +1.3147140e-12 </wgt>
<wgt id='1892'> +1.2432633e-12 </wgt>
<wgt id='1893'> +1.2965258e-12 </wgt>
<wgt id='1894'> +1.3351229e-12 </wgt>
<wgt id='1895'> +1.3039726e-12 </wgt>
<wgt id='1896'> +1.3254663e-12 </wgt>
<wgt id='1897'> +1.3197625e-12 </wgt>
<wgt id='1898'> +1.2777202e-12 </wgt>
<wgt id='1899'> +1.3696465e-12 </wgt>
<wgt id='1900'> +1.3247900e-12 </wgt>
<wgt id='1901'> +1.3147401e-12 </wgt>
<wgt id='1902'> +1.3132616e-12 </wgt>
<wgt id='1903'> +1.3247539e-12 </wgt>
<wgt id='1904'> +1.3191871e-12 </wgt>
<wgt id='1905'> +1.3417162e-12 </wgt>
<wgt id='1906'> +1.3210726e-12 </wgt>
<wgt id='1907'> +1.3421620e-12 </wgt>
<wgt id='1908'> +1.2936232e-12 </wgt>
<wgt id='1909'> +1.3194671e-12 </wgt>
<wgt id='1910'> +1.3334304e-12 </wgt>
<wgt id='1911'> +1.3205642e-12 </wgt>
<wgt id='1912'> +1.3140289e-12 </wgt>
<wgt id='1913'> +1.3166698e-12 </wgt>
<wgt id='1914'> +1.3322800e-12 </wgt>
<wgt id='1915'> +1.3456882e-12 </wgt>
<wgt id='1916'> +1.3526084e-12 </wgt>
<wgt id='1917'> +1.3069473e-12 </wgt>
<wgt id='1918'> +1.3307864e-12 </wgt>
<wgt id='1919'> +1.3393054e-12 </wgt>
</rwgt>
</event>
<event>
 9      1 +1.5607000e-12 2.66922400e+01 7.81860800e-03 1.48562700e-01
        3 -1    0    0  502    0 -0.0000000000e+00 +0.0000000000e+00 +3.1372234716e+00 3.1372234716e+00 0.0000000000e+00 0.0000e+00 1.0000e+00
       21 -1    0    0  501  502 +0.0000000000e+00 -0.0000000000e+00 -3.0646865377e+02 3.0646865377e+02 0.0000000000e+00 0.0000e+00 1.0000e+00
     1023  2    1    2    0    0 -1.8815790330e+01 +1.1552035087e+01 -6.5187850840e+01 7.0440980324e+01 1.4999744380e+01 0.0000e+00 0.0000e+00
  1000023  2    3    3    0    0 -3.5153538625e+00 +1.5577479057e+00 -9.5926901632e+00 1.1705888402e+01 5.4976201581e+00 0.0000e+00 0.0000e+00
        3  1    1    2  501    0 +1.8815790330e+01 -1.1552035087e+01 -2.3814357946e+02 2.3916489692e+02 0.0000000000e+00 0.0000e+00 1.0000e+00
  1000022  1    4    4    0    0 -2.7293101912e+00 +1.3416448037e+00 -8.1739148895e+00 1.0052961231e+01 5.0000000000e+00 0.0000e+00 1.0000e+00
      -11  1    4    4    0    0 -6.8595958871e-01 +1.7808084801e-01 -1.0341778223e+00 1.2537054578e+00 5.1100000000e-04 0.0000e+00 -1.0000e+00
       11  1    4    4    0    0 -1.0008408258e-01 +3.8022253941e-02 -3.8459745151e-01 3.9922171310e-01 5.1100000000e-04 0.0000e+00 1.0000e+00
  1000022  1    3    3    0    0 -1.5300436468e+01 +9.9942871816e+00 -5.5595160676e+01 5.8735091921e+01 5.0000000000e+00 0.0000e+00 1.0000e+00
<mgrwt>
<rscale>  1 0.26692243E+02</rscale>
<asrwt>0</asrwt>
<pdfrwt beam="1">  1       21 0.47149019E-01 0.26692243E+02</pdfrwt>
<pdfrwt beam="2">  1        3 0.48264981E-03 0.26692243E+02</pdfrwt>
<totfact> 0.18010191E+06</totfact>
</mgrwt>
<rwgt>
<wgt id='1001'> +1.5607000e-12 </wgt>
<wgt id='1002'> +1.5536968e-12 </wgt>
<wgt id='1003'> +1.5517213e-12 </wgt>
<wgt id='1004'> +1.5597391e-12 </wgt>
<wgt id='1005'> +1.5416880e-12 </wgt>
<wgt id='1006'> +1.3611528e-12 </wgt>
<wgt id='1007'> +1.3733835e-12 </wgt>
<wgt id='1008'> +1.3736667e-12 </wgt>
<wgt id='1009'> +1.3557637e-12 </wgt>
<wgt id='1010'> +1.3725999e-12 </wgt>
<wgt id='1011'> +1.8323184e-12 </wgt>
<wgt id='1012'> +1.7909676e-12 </wgt>
<wgt id='1013'> +1.7851787e-12 </wgt>
<wgt id='1014'> +1.8397393e-12 </wgt>
<wgt id='1015'> +1.7603048e-12 </wgt>
<wgt id='1016'> +1.7747084e-12 </wgt>
<wgt id='1017'> +1.7232354e-12 </wgt>
<wgt id='1018'> +1.7165677e-12 </wgt>
<wgt id='1019'> +1.7851787e-12 </wgt>
<wgt id='1020'> +1.6888312e-12 </wgt>
<wgt id='1021'> +1.5477986e-12 </wgt>
<wgt id='1022'> +1.5232464e-12 </wgt>
<wgt id='1023'> +1.5195975e-12 </wgt>
<wgt id='1024'> +1.5517213e-12 </wgt>
<wgt id='1025'> +1.5036049e-12 </wgt>
<wgt id='1026'> +2.0835721e-12 </wgt>
<wgt id='1027'> +1.9863971e-12 </wgt>
<wgt id='1028'> +1.9748263e-12 </wgt>
<wgt id='1029'> +2.1056492e-12 </wgt>
<wgt id='1030'> +1.9283135e-12 </wgt>
<wgt id='1031'> +1.3070174e-12 </wgt>
<wgt id='1032'> +1.3522258e-12 </wgt>
<wgt id='1033'> +1.3557637e-12 </wgt>
<wgt id='1034'> +1.2925901e-12 </wgt>
<wgt id='1035'> +1.3667609e-12 </wgt>
<wgt id='1036'> +1.1399054e-12 </wgt>
<wgt id='1037'> +1.1952941e-12 </wgt>
<wgt id='1038'> +1.2001945e-12 </wgt>
<wgt id='1039'> +1.1235512e-12 </wgt>
<wgt id='1040'> +1.2168583e-12 </wgt>
<wgt id='1041'> +1.5344859e-12 </wgt>
<wgt id='1042'> +1.5587293e-12 </wgt>
<wgt id='1043'> +1.5597391e-12 </wgt>
<wgt id='1044'> +1.5246324e-12 </wgt>
<wgt id='1045'> +1.5605724e-12 </wgt>
<wgt id='1046'> +1.5607000e-12 </wgt>
<wgt id='1047'> +1.5103424e-12 </wgt>
<wgt id='1048'> +1.6057127e-12 </wgt>
<wgt id='1049'> +1.5886988e-12 </wgt>
<wgt id='1050'> +1.5921651e-12 </wgt>
<wgt id='1051'> +1.5539511e-12 </wgt>
<wgt id='1052'> +1.4976280e-12 </wgt>
<wgt id='1053'> +1.5921903e-12 </wgt>
<wgt id='1054'> +1.6104408e-12 </wgt>
<wgt id='1055'> +1.5886189e-12 </wgt>
<wgt id='1056'> +1.4238020e-12 </wgt>
<wgt id='1057'> +1.5483124e-12 </wgt>
<wgt id='1058'> +1.6013705e-12 </wgt>
<wgt id='1059'> +1.6039577e-12 </wgt>
<wgt id='1060'> +1.5003098e-12 </wgt>
<wgt id='1061'> +1.6592774e-12 </wgt>
<wgt id='1062'> +1.6034717e-12 </wgt>
<wgt id='1063'> +1.3028347e-12 </wgt>
<wgt id='1064'> +1.6240417e-12 </wgt>
<wgt id='1065'> +1.5939357e-12 </wgt>
<wgt id='1066'> +1.6157428e-12 </wgt>
<wgt id='1067'> +1.5837547e-12 </wgt>
<wgt id='1068'> +1.5855039e-12 </wgt>
<wgt id='1069'> +1.5531926e-12 </wgt>
<wgt id='1070'> +1.5893238e-12 </wgt>
<wgt id='1071'> +1.5653774e-12 </wgt>
<wgt id='1072'> +1.5176184e-12 </wgt>
<wgt id='1073'> +1.2227729e-12 </wgt>
<wgt id='1074'> +1.6285436e-12 </wgt>
<wgt id='1075'> +1.4760614e-12 </wgt>
<wgt id='1076'> +1.3777422e-12 </wgt>
<wgt id='1077'> +1.4805718e-12 </wgt>
<wgt id='1078'> +1.6262958e-12 </wgt>
<wgt id='1079'> +1.5533539e-12 </wgt>
<wgt id='1080'> +1.6076025e-12 </wgt>
<wgt id='1081'> +1.4545536e-12 </wgt>
<wgt id='1082'> +1.5770010e-12 </wgt>
<wgt id='1083'> +1.6831762e-12 </wgt>
<wgt id='1084'> +1.4672385e-12 </wgt>
<wgt id='1085'> +1.6619459e-12 </wgt>
<wgt id='1086'> +1.6043194e-12 </wgt>
<wgt id='1087'> +1.5369784e-12 </wgt>
<wgt id='1088'> +1.6086449e-12 </wgt>
<wgt id='1089'> +1.4523288e-12 </wgt>
<wgt id='1090'> +1.4979374e-12 </wgt>
<wgt id='1091'> +1.8155768e-12 </wgt>
<wgt id='1092'> +1.5424308e-12 </wgt>
<wgt id='1093'> +1.5585772e-12 </wgt>
<wgt id='1094'> +1.5794695e-12 </wgt>
<wgt id='1095'> +1.4905325e-12 </wgt>
<wgt id='1096'> +1.5197082e-12 </wgt>
<wgt id='1097'> +1.6096915e-12 </wgt>
<wgt id='1098'> +1.5772425e-12 </wgt>
<wgt id='1099'> +1.3675806e-12 </wgt>
<wgt id='1100'> +1.6062036e-12 </wgt>
<wgt id='1101'> +1.5418656e-12 </wgt>
<wgt id='1102'> +1.6096324e-12 </wgt>
<wgt id='1103'> +1.5817210e-12 </wgt>
<wgt id='1104'> +1.5885552e-12 </wgt>
<wgt id='1105'> +1.2785789e-12 </wgt>
<wgt id='1106'> +1.5617374e-12 </wgt>
<wgt id='1107'> +1.6367431e-12 </wgt>
<wgt id='1108'> +1.6064254e-12 </wgt>
<wgt id='1109'> +1.3813482e-12 </wgt>
<wgt id='1110'> +1.5679712e-12 </wgt>
<wgt id='1111'> +1.5575876e-12 </wgt>
<wgt id='1112'> +1.5770815e-12 </wgt>
<wgt id='1113'> +1.8350491e-12 </wgt>
<wgt id='1114'> +1.4961333e-12 </wgt>
<wgt id='1115'> +1.5736371e-12 </wgt>
<wgt id='1116'> +1.5842656e-12 </wgt>
<wgt id='1117'> +1.4628969e-12 </wgt>
<wgt id='1118'> +1.6473293e-12 </wgt>
<wgt id='1119'> +1.6076903e-12 </wgt>
<wgt id='1120'> +1.6430936e-12 </wgt>
<wgt id='1121'> +1.5908916e-12 </wgt>
<wgt id='1122'> +1.4667096e-12 </wgt>
<wgt id='1123'> +1.6032391e-12 </wgt>
<wgt id='1124'> +1.6522447e-12 </wgt>
<wgt id='1125'> +1.5135942e-12 </wgt>
<wgt id='1126'> +1.3674763e-12 </wgt>
<wgt id='1127'> +1.5674671e-12 </wgt>
<wgt id='1128'> +1.6034717e-12 </wgt>
<wgt id='1129'> +1.5720998e-12 </wgt>
<wgt id='1130'> +1.5958451e-12 </wgt>
<wgt id='1131'> +1.6520639e-12 </wgt>
<wgt id='1132'> +1.5743052e-12 </wgt>
<wgt id='1133'> +1.6536889e-12 </wgt>
<wgt id='1134'> +1.4213153e-12 </wgt>
<wgt id='1135'> +1.6472349e-12 </wgt>
<wgt id='1136'> +1.5968448e-12 </wgt>
<wgt id='1137'> +1.6088416e-12 </wgt>
<wgt id='1138'> +1.6346900e-12 </wgt>
<wgt id='1139'> +1.5938691e-12 </wgt>
<wgt id='1140'> +1.5374929e-12 </wgt>
<wgt id='1141'> +1.7895931e-12 </wgt>
<wgt id='1142'> +1.6118663e-12 </wgt>
<wgt id='1143'> +1.4475627e-12 </wgt>
<wgt id='1144'> +1.4049185e-12 </wgt>
<wgt id='1145'> +1.6014584e-12 </wgt>
<wgt id='1146'> +1.6088438e-12 </wgt>
<wgt id='1147'> +1.2248080e-12 </wgt>
<wgt id='1148'> +1.2516792e-12 </wgt>
<wgt id='1149'> +1.2329695e-12 </wgt>
<wgt id='1150'> +1.1865756e-12 </wgt>
<wgt id='1151'> +9.6956070e-13 </wgt>
<wgt id='1152'> +1.3674069e-12 </wgt>
<wgt id='1153'> +1.3627854e-12 </wgt>
<wgt id='1154'> +1.3700252e-12 </wgt>
<wgt id='1155'> +1.3685552e-12 </wgt>
<wgt id='1156'> +1.3667852e-12 </wgt>
<wgt id='1157'> +1.3606447e-12 </wgt>
<wgt id='1158'> +1.3764602e-12 </wgt>
<wgt id='1159'> +1.3604823e-12 </wgt>
<wgt id='1160'> +1.3718371e-12 </wgt>
<wgt id='1161'> +1.3570511e-12 </wgt>
<wgt id='1162'> +1.3744365e-12 </wgt>
<wgt id='1163'> +1.3609036e-12 </wgt>
<wgt id='1164'> +1.3738056e-12 </wgt>
<wgt id='1165'> +1.3550500e-12 </wgt>
<wgt id='1166'> +1.3793984e-12 </wgt>
<wgt id='1167'> +1.3827980e-12 </wgt>
<wgt id='1168'> +1.3474484e-12 </wgt>
<wgt id='1169'> +1.3705953e-12 </wgt>
<wgt id='1170'> +1.3649281e-12 </wgt>
<wgt id='1171'> +1.3647848e-12 </wgt>
<wgt id='1172'> +1.3705957e-12 </wgt>
<wgt id='1173'> +1.3632275e-12 </wgt>
<wgt id='1174'> +1.3709047e-12 </wgt>
<wgt id='1175'> +1.3660403e-12 </wgt>
<wgt id='1176'> +1.3678159e-12 </wgt>
<wgt id='1177'> +1.3680528e-12 </wgt>
<wgt id='1178'> +1.3658184e-12 </wgt>
<wgt id='1179'> +1.3767996e-12 </wgt>
<wgt id='1180'> +1.3542795e-12 </wgt>
<wgt id='1181'> +1.3651073e-12 </wgt>
<wgt id='1182'> +1.3697970e-12 </wgt>
<wgt id='1183'> +1.3680585e-12 </wgt>
<wgt id='1184'> +1.3673395e-12 </wgt>
<wgt id='1185'> +1.4015452e-12 </wgt>
<wgt id='1186'> +1.3506416e-12 </wgt>
<wgt id='1187'> +1.3716186e-12 </wgt>
<wgt id='1188'> +1.3660687e-12 </wgt>
<wgt id='1189'> +1.3670593e-12 </wgt>
<wgt id='1190'> +1.3435592e-12 </wgt>
<wgt id='1191'> +1.3620875e-12 </wgt>
<wgt id='1192'> +1.3767582e-12 </wgt>
<wgt id='1193'> +1.1766496e-12 </wgt>
<wgt id='1194'> +1.1662399e-12 </wgt>
<wgt id='1195'> +1.1851002e-12 </wgt>
<wgt id='1196'> +1.1736049e-12 </wgt>
<wgt id='1197'> +1.1800222e-12 </wgt>
<wgt id='1198'> +1.1828646e-12 </wgt>
<wgt id='1199'> +1.1674776e-12 </wgt>
<wgt id='1200'> +1.1748464e-12 </wgt>
<wgt id='1201'> +1.1779073e-12 </wgt>
<wgt id='1202'> +1.1744817e-12 </wgt>
<wgt id='1203'> +1.1797027e-12 </wgt>
<wgt id='1204'> +1.1622031e-12 </wgt>
<wgt id='1205'> +1.1855648e-12 </wgt>
<wgt id='1206'> +1.1813104e-12 </wgt>
<wgt id='1207'> +1.1702481e-12 </wgt>
<wgt id='1208'> +1.1714942e-12 </wgt>
<wgt id='1209'> +1.1785821e-12 </wgt>
<wgt id='1210'> +1.1706018e-12 </wgt>
<wgt id='1211'> +1.1766694e-12 </wgt>
<wgt id='1212'> +1.1751806e-12 </wgt>
<wgt id='1213'> +1.1781753e-12 </wgt>
<wgt id='1214'> +1.1691739e-12 </wgt>
<wgt id='1215'> +1.1848247e-12 </wgt>
<wgt id='1216'> +1.1795646e-12 </wgt>
<wgt id='1217'> +1.1739744e-12 </wgt>
<wgt id='1218'> +1.1822698e-12 </wgt>
<wgt id='1219'> +1.1735708e-12 </wgt>
<wgt id='1220'> +1.1830804e-12 </wgt>
<wgt id='1221'> +1.1756905e-12 </wgt>
<wgt id='1222'> +1.1846563e-12 </wgt>
<wgt id='1223'> +1.1679642e-12 </wgt>
<wgt id='1224'> +1.1718384e-12 </wgt>
<wgt id='1225'> +1.1785394e-12 </wgt>
<wgt id='1226'> +1.1865727e-12 </wgt>
<wgt id='1227'> +1.1705918e-12 </wgt>
<wgt id='1228'> +1.1739230e-12 </wgt>
<wgt id='1229'> +1.1776167e-12 </wgt>
<wgt id='1230'> +1.1910460e-12 </wgt>
<wgt id='1231'> +1.1671100e-12 </wgt>
<wgt id='1232'> +1.1745671e-12 </wgt>
<wgt id='1233'> +1.1774348e-12 </wgt>
<wgt id='1234'> +1.1766496e-12 </wgt>
<wgt id='1235'> +1.1700447e-12 </wgt>
<wgt id='1236'> +1.1725882e-12 </wgt>
<wgt id='1237'> +1.1749034e-12 </wgt>
<wgt id='1238'> +1.1787935e-12 </wgt>
<wgt id='1239'> +1.1802941e-12 </wgt>
<wgt id='1240'> +1.1818485e-12 </wgt>
<wgt id='1241'> +1.2323813e-12 </wgt>
<wgt id='1242'> +1.2210942e-12 </wgt>
<wgt id='1243'> +1.2436183e-12 </wgt>
<wgt id='1244'> +1.2301064e-12 </wgt>
<wgt id='1245'> +1.2341737e-12 </wgt>
<wgt id='1246'> +1.2340261e-12 </wgt>
<wgt id='1247'> +1.2311956e-12 </wgt>
<wgt id='1248'> +1.2328787e-12 </wgt>
<wgt id='1249'> +1.2317773e-12 </wgt>
<wgt id='1250'> +1.2225877e-12 </wgt>
<wgt id='1251'> +1.2394221e-12 </wgt>
<wgt id='1252'> +1.2281969e-12 </wgt>
<wgt id='1253'> +1.2357409e-12 </wgt>
<wgt id='1254'> +1.2219098e-12 </wgt>
<wgt id='1255'> +1.2387640e-12 </wgt>
<wgt id='1256'> +1.2360608e-12 </wgt>
<wgt id='1257'> +1.2233002e-12 </wgt>
<wgt id='1258'> +1.2391044e-12 </wgt>
<wgt id='1259'> +1.2247218e-12 </wgt>
<wgt id='1260'> +1.2361145e-12 </wgt>
<wgt id='1261'> +1.2284594e-12 </wgt>
<wgt id='1262'> +1.2337293e-12 </wgt>
<wgt id='1263'> +1.2317741e-12 </wgt>
<wgt id='1264'> +1.2418033e-12 </wgt>
<wgt id='1265'> +1.2281417e-12 </wgt>
<wgt id='1266'> +1.2282919e-12 </wgt>
<wgt id='1267'> +1.2377508e-12 </wgt>
<wgt id='1268'> +1.2335297e-12 </wgt>
<wgt id='1269'> +1.2353802e-12 </wgt>
<wgt id='1270'> +1.2363713e-12 </wgt>
<wgt id='1271'> +1.2315252e-12 </wgt>
<wgt id='1272'> +1.2351474e-12 </wgt>
<wgt id='1273'> +1.2319569e-12 </wgt>
<wgt id='1274'> +1.2259331e-12 </wgt>
<wgt id='1275'> +1.2428335e-12 </wgt>
<wgt id='1276'> +1.2333168e-12 </wgt>
<wgt id='1277'> +1.2307479e-12 </wgt>
<wgt id='1278'> +1.2324181e-12 </wgt>
<wgt id='1279'> +1.2384442e-12 </wgt>
<wgt id='1280'> +1.2340687e-12 </wgt>
<wgt id='1281'> +1.2279646e-12 </wgt>
<wgt id='1282'> +1.2323813e-12 </wgt>
<wgt id='1283'> +1.2238338e-12 </wgt>
<wgt id='1284'> +1.2273949e-12 </wgt>
<wgt id='1285'> +1.2301744e-12 </wgt>
<wgt id='1286'> +1.2350444e-12 </wgt>
<wgt id='1287'> +1.2368361e-12 </wgt>
<wgt id='1288'> +1.2384160e-12 </wgt>
<wgt id='1289'> +1.2713613e-12 </wgt>
<wgt id='1290'> +1.2759572e-12 </wgt>
<wgt id='1291'> +1.2664363e-12 </wgt>
<wgt id='1292'> +1.2741663e-12 </wgt>
<wgt id='1293'> +1.2693680e-12 </wgt>
<wgt id='1294'> +1.2639926e-12 </wgt>
<wgt id='1295'> +1.2783869e-12 </wgt>
<wgt id='1296'> +1.2678152e-12 </wgt>
<wgt id='1297'> +1.2758326e-12 </wgt>
<wgt id='1298'> +1.2782022e-12 </wgt>
<wgt id='1299'> +1.2630729e-12 </wgt>
<wgt id='1300'> +1.2725710e-12 </wgt>
<wgt id='1301'> +1.2690885e-12 </wgt>
<wgt id='1302'> +1.2673375e-12 </wgt>
<wgt id='1303'> +1.2768844e-12 </wgt>
<wgt id='1304'> +1.2631052e-12 </wgt>
<wgt id='1305'> +1.2771228e-12 </wgt>
<wgt id='1306'> +1.2515574e-12 </wgt>
<wgt id='1307'> +1.2935573e-12 </wgt>
<wgt id='1308'> +1.1988818e-12 </wgt>
<wgt id='1309'> +1.3267290e-12 </wgt>
<wgt id='1310'> +1.2707287e-12 </wgt>
<wgt id='1311'> +1.2722665e-12 </wgt>
<wgt id='1312'> +1.2650684e-12 </wgt>
<wgt id='1313'> +1.2781640e-12 </wgt>
<wgt id='1314'> +1.2591116e-12 </wgt>
<wgt id='1315'> +1.2780212e-12 </wgt>
<wgt id='1316'> +1.2723067e-12 </wgt>
<wgt id='1317'> +1.2776987e-12 </wgt>
<wgt id='1318'> +1.2813111e-12 </wgt>
<wgt id='1319'> +1.2590734e-12 </wgt>
<wgt id='1320'> +1.2821290e-12 </wgt>
<wgt id='1321'> +1.2614763e-12 </wgt>
<wgt id='1322'> +1.2778561e-12 </wgt>
<wgt id='1323'> +1.2626195e-12 </wgt>
<wgt id='1324'> +1.2749878e-12 </wgt>
<wgt id='1325'> +1.2685109e-12 </wgt>
<wgt id='1326'> +1.2827685e-12 </wgt>
<wgt id='1327'> +1.2651143e-12 </wgt>
<wgt id='1328'> +1.2644592e-12 </wgt>
<wgt id='1329'> +1.2780134e-12 </wgt>
<wgt id='1330'> +1.3757712e-12 </wgt>
<wgt id='1331'> +1.1858659e-12 </wgt>
<wgt id='1332'> +1.2267510e-12 </wgt>
<wgt id='1333'> +1.3275468e-12 </wgt>
<wgt id='1334'> +1.2895374e-12 </wgt>
<wgt id='1335'> +1.2282687e-12 </wgt>
<wgt id='1336'> +1.2728562e-12 </wgt>
<wgt id='1337'> +1.2758460e-12 </wgt>
<wgt id='1338'> +1.2683024e-12 </wgt>
<wgt id='1339'> +1.2732663e-12 </wgt>
<wgt id='1340'> +1.2486540e-12 </wgt>
<wgt id='1341'> +1.2532132e-12 </wgt>
<wgt id='1342'> +1.2437680e-12 </wgt>
<wgt id='1343'> +1.2518061e-12 </wgt>
<wgt id='1344'> +1.2465971e-12 </wgt>
<wgt id='1345'> +1.2411723e-12 </wgt>
<wgt id='1346'> +1.2555200e-12 </wgt>
<wgt id='1347'> +1.2452165e-12 </wgt>
<wgt id='1348'> +1.2524986e-12 </wgt>
<wgt id='1349'> +1.2554660e-12 </wgt>
<wgt id='1350'> +1.2420448e-12 </wgt>
<wgt id='1351'> +1.2493465e-12 </wgt>
<wgt id='1352'> +1.2473464e-12 </wgt>
<wgt id='1353'> +1.2428869e-12 </wgt>
<wgt id='1354'> +1.2589170e-12 </wgt>
<wgt id='1355'> +1.2400101e-12 </wgt>
<wgt id='1356'> +1.2536210e-12 </wgt>
<wgt id='1357'> +1.2075723e-12 </wgt>
<wgt id='1358'> +1.2966175e-12 </wgt>
<wgt id='1359'> +1.1816573e-12 </wgt>
<wgt id='1360'> +1.3067131e-12 </wgt>
<wgt id='1361'> +1.2475808e-12 </wgt>
<wgt id='1362'> +1.2502952e-12 </wgt>
<wgt id='1363'> +1.2419405e-12 </wgt>
<wgt id='1364'> +1.2538756e-12 </wgt>
<wgt id='1365'> +1.2542683e-12 </wgt>
<wgt id='1366'> +1.2335973e-12 </wgt>
<wgt id='1367'> +1.2507117e-12 </wgt>
<wgt id='1368'> +1.2523549e-12 </wgt>
<wgt id='1369'> +1.2554495e-12 </wgt>
<wgt id='1370'> +1.2402673e-12 </wgt>
<wgt id='1371'> +1.2607055e-12 </wgt>
<wgt id='1372'> +1.2341320e-12 </wgt>
<wgt id='1373'> +1.2549033e-12 </wgt>
<wgt id='1374'> +1.2421532e-12 </wgt>
<wgt id='1375'> +1.2511631e-12 </wgt>
<wgt id='1376'> +1.2473565e-12 </wgt>
<wgt id='1377'> +1.2584842e-12 </wgt>
<wgt id='1378'> +1.2442574e-12 </wgt>
<wgt id='1379'> +1.2434183e-12 </wgt>
<wgt id='1380'> +1.2545109e-12 </wgt>
<wgt id='1381'> +1.3612402e-12 </wgt>
<wgt id='1382'> +1.1622933e-12 </wgt>
<wgt id='1383'> +1.1927776e-12 </wgt>
<wgt id='1384'> +1.3187128e-12 </wgt>
<wgt id='1385'> +1.2689172e-12 </wgt>
<wgt id='1386'> +1.2025119e-12 </wgt>
<wgt id='1387'> +1.2477685e-12 </wgt>
<wgt id='1388'> +1.2572050e-12 </wgt>
<wgt id='1389'> +1.2458217e-12 </wgt>
<wgt id='1390'> +1.2506402e-12 </wgt>
<wgt id='1391'> +1.2296001e-12 </wgt>
<wgt id='1392'> +1.1915418e-12 </wgt>
<wgt id='1393'> +1.2086449e-12 </wgt>
<wgt id='1394'> +1.2231116e-12 </wgt>
<wgt id='1395'> +1.2554837e-12 </wgt>
<wgt id='1396'> +1.2371434e-12 </wgt>
<wgt id='1397'> +1.1914846e-12 </wgt>
<wgt id='1398'> +1.1990278e-12 </wgt>
<wgt id='1399'> +1.2054285e-12 </wgt>
<wgt id='1400'> +1.2152058e-12 </wgt>
<wgt id='1401'> +1.2254911e-12 </wgt>
<wgt id='1402'> +1.2536219e-12 </wgt>
<wgt id='1403'> +1.2672479e-12 </wgt>
<wgt id='1404'> +1.2820697e-12 </wgt>
<wgt id='1405'> +1.2371434e-12 </wgt>
<wgt id='1406'> +1.2272530e-12 </wgt>
<wgt id='1407'> +1.2321585e-12 </wgt>
<wgt id='1408'> +1.2413323e-12 </wgt>
<wgt id='1409'> +1.2491900e-12 </wgt>
<wgt id='1410'> +1.2846039e-12 </wgt>
<wgt id='1411'> +1.2898700e-12 </wgt>
<wgt id='1412'> +1.2778777e-12 </wgt>
<wgt id='1413'> +1.2838869e-12 </wgt>
<wgt id='1414'> +1.2853171e-12 </wgt>
<wgt id='1415'> +1.2873955e-12 </wgt>
<wgt id='1416'> +1.2835087e-12 </wgt>
<wgt id='1417'> +1.2742128e-12 </wgt>
<wgt id='1418'> +1.2950522e-12 </wgt>
<wgt id='1419'> +1.2872746e-12 </wgt>
<wgt id='1420'> +1.2820637e-12 </wgt>
<wgt id='1421'> +1.2769677e-12 </wgt>
<wgt id='1422'> +1.2882015e-12 </wgt>
<wgt id='1423'> +1.2854647e-12 </wgt>
<wgt id='1424'> +1.2835702e-12 </wgt>
<wgt id='1425'> +1.2742784e-12 </wgt>
<wgt id='1426'> +1.2956337e-12 </wgt>
<wgt id='1427'> +1.2169180e-12 </wgt>
<wgt id='1428'> +1.3217444e-12 </wgt>
<wgt id='1429'> +1.3156385e-12 </wgt>
<wgt id='1430'> +1.2437419e-12 </wgt>
<wgt id='1431'> +1.2436859e-12 </wgt>
<wgt id='1432'> +1.3134285e-12 </wgt>
<wgt id='1433'> +1.2906556e-12 </wgt>
<wgt id='1434'> +1.2762939e-12 </wgt>
<wgt id='1435'> +1.2874423e-12 </wgt>
<wgt id='1436'> +1.2780900e-12 </wgt>
<wgt id='1437'> +1.2895269e-12 </wgt>
<wgt id='1438'> +1.2875866e-12 </wgt>
<wgt id='1439'> +1.2789310e-12 </wgt>
<wgt id='1440'> +1.2952660e-12 </wgt>
<wgt id='1441'> +1.2884838e-12 </wgt>
<wgt id='1442'> +1.2773649e-12 </wgt>
<wgt id='1443'> +1.2818848e-12 </wgt>
<wgt id='1444'> +1.2921311e-12 </wgt>
<wgt id='1445'> +1.2813592e-12 </wgt>
<wgt id='1446'> +1.2881632e-12 </wgt>
<wgt id='1447'> +1.2859576e-12 </wgt>
<wgt id='1448'> +1.2864561e-12 </wgt>
<wgt id='1449'> +1.2780367e-12 </wgt>
<wgt id='1450'> +1.2892809e-12 </wgt>
<wgt id='1451'> +1.2271557e-12 </wgt>
<wgt id='1452'> +1.4003389e-12 </wgt>
<wgt id='1453'> +1.2785115e-12 </wgt>
<wgt id='1454'> +1.3218895e-12 </wgt>
<wgt id='1455'> +1.3313661e-12 </wgt>
<wgt id='1456'> +1.2572804e-12 </wgt>
<wgt id='1457'> +1.2593829e-12 </wgt>
<wgt id='1458'> +1.2961412e-12 </wgt>
<wgt id='1459'> +1.2635781e-12 </wgt>
<wgt id='1460'> +1.3095616e-12 </wgt>
<wgt id='1461'> +1.2846039e-12 </wgt>
<wgt id='1462'> +1.2628777e-12 </wgt>
<wgt id='1463'> +1.2849359e-12 </wgt>
<wgt id='1464'> +1.2733443e-12 </wgt>
<wgt id='1465'> +1.2256584e-12 </wgt>
<wgt id='1466'> +1.2326993e-12 </wgt>
<wgt id='1467'> +1.2414032e-12 </wgt>
<wgt id='1468'> +1.2535320e-12 </wgt>
<wgt id='1469'> +1.2630196e-12 </wgt>
<wgt id='1470'> +1.2836846e-12 </wgt>
<wgt id='1471'> +1.2947230e-12 </wgt>
<wgt id='1472'> +1.3065352e-12 </wgt>
<wgt id='1473'> +1.2733443e-12 </wgt>
<wgt id='1474'> +1.2637591e-12 </wgt>
<wgt id='1475'> +1.2700960e-12 </wgt>
<wgt id='1476'> +1.2773948e-12 </wgt>
<wgt id='1477'> +1.2807117e-12 </wgt>
<wgt id='1478'> +1.2082443e-12 </wgt>
<wgt id='1479'> +1.2103218e-12 </wgt>
<wgt id='1480'> +1.1598876e-12 </wgt>
<wgt id='1481'> +1.2036370e-12 </wgt>
<wgt id='1482'> +1.2188677e-12 </wgt>
<wgt id='1483'> +1.2452252e-12 </wgt>
<wgt id='1484'> +1.1998373e-12 </wgt>
<wgt id='1485'> +1.2388582e-12 </wgt>
<wgt id='1486'> +1.2029133e-12 </wgt>
<wgt id='1487'> +1.2154795e-12 </wgt>
<wgt id='1488'> +1.2074349e-12 </wgt>
<wgt id='1489'> +1.1922512e-12 </wgt>
<wgt id='1490'> +1.2084447e-12 </wgt>
<wgt id='1491'> +1.2294627e-12 </wgt>
<wgt id='1492'> +1.2012636e-12 </wgt>
<wgt id='1493'> +1.2169658e-12 </wgt>
<wgt id='1494'> +1.1122684e-12 </wgt>
<wgt id='1495'> +1.2169360e-12 </wgt>
<wgt id='1496'> +1.2114658e-12 </wgt>
<wgt id='1497'> +1.2167931e-12 </wgt>
<wgt id='1498'> +1.2088864e-12 </wgt>
<wgt id='1499'> +1.2112302e-12 </wgt>
<wgt id='1500'> +1.2034129e-12 </wgt>
<wgt id='1501'> +1.2103856e-12 </wgt>
<wgt id='1502'> +1.2147043e-12 </wgt>
<wgt id='1503'> +1.2081645e-12 </wgt>
<wgt id='1504'> +1.2107523e-12 </wgt>
<wgt id='1505'> +1.2096302e-12 </wgt>
<wgt id='1506'> +1.2131718e-12 </wgt>
<wgt id='1507'> +1.2047612e-12 </wgt>
<wgt id='1508'> +1.2180732e-12 </wgt>
<wgt id='1509'> +1.2813675e-12 </wgt>
<wgt id='1510'> +1.2918014e-12 </wgt>
<wgt id='1511'> +1.2625187e-12 </wgt>
<wgt id='1512'> +1.2752756e-12 </wgt>
<wgt id='1513'> +1.2178445e-12 </wgt>
<wgt id='1514'> +1.2937759e-12 </wgt>
<wgt id='1515'> +1.3070348e-12 </wgt>
<wgt id='1516'> +1.2805765e-12 </wgt>
<wgt id='1517'> +1.2935455e-12 </wgt>
<wgt id='1518'> +1.2517109e-12 </wgt>
<wgt id='1519'> +1.3107583e-12 </wgt>
<wgt id='1520'> +1.2857199e-12 </wgt>
<wgt id='1521'> +1.2655853e-12 </wgt>
<wgt id='1522'> +1.2807325e-12 </wgt>
<wgt id='1523'> +1.2792394e-12 </wgt>
<wgt id='1524'> +1.2826181e-12 </wgt>
<wgt id='1525'> +1.2779216e-12 </wgt>
<wgt id='1526'> +1.2826985e-12 </wgt>
<wgt id='1527'> +1.2890994e-12 </wgt>
<wgt id='1528'> +1.2814522e-12 </wgt>
<wgt id='1529'> +1.2914997e-12 </wgt>
<wgt id='1530'> +1.2810390e-12 </wgt>
<wgt id='1531'> +1.2890235e-12 </wgt>
<wgt id='1532'> +1.2772990e-12 </wgt>
<wgt id='1533'> +1.2828424e-12 </wgt>
<wgt id='1534'> +1.2889862e-12 </wgt>
<wgt id='1535'> +1.2843777e-12 </wgt>
<wgt id='1536'> +1.2809362e-12 </wgt>
<wgt id='1537'> +1.2767569e-12 </wgt>
<wgt id='1538'> +1.2841511e-12 </wgt>
<wgt id='1539'> +1.2804636e-12 </wgt>
<wgt id='1540'> +1.2830749e-12 </wgt>
<wgt id='1541'> +1.2801865e-12 </wgt>
<wgt id='1542'> +1.2806936e-12 </wgt>
<wgt id='1543'> +1.2817844e-12 </wgt>
<wgt id='1544'> +1.2807378e-12 </wgt>
<wgt id='1545'> +1.2840342e-12 </wgt>
<wgt id='1546'> +1.2838438e-12 </wgt>
<wgt id='1547'> +1.2815107e-12 </wgt>
<wgt id='1548'> +1.2817688e-12 </wgt>
<wgt id='1549'> +1.2824086e-12 </wgt>
<wgt id='1550'> +1.2831860e-12 </wgt>
<wgt id='1551'> +1.2801245e-12 </wgt>
<wgt id='1552'> +1.2820463e-12 </wgt>
<wgt id='1553'> +1.2827865e-12 </wgt>
<wgt id='1554'> +1.2804938e-12 </wgt>
<wgt id='1555'> +1.2814022e-12 </wgt>
<wgt id='1556'> +1.2816036e-12 </wgt>
<wgt id='1557'> +1.2819713e-12 </wgt>
<wgt id='1558'> +1.2817281e-12 </wgt>
<wgt id='1559'> +1.2812018e-12 </wgt>
<wgt id='1560'> +1.2821142e-12 </wgt>
<wgt id='1561'> +1.2815135e-12 </wgt>
<wgt id='1562'> +1.2813310e-12 </wgt>
<wgt id='1563'> +1.2817521e-12 </wgt>
<wgt id='1564'> +1.2821077e-12 </wgt>
<wgt id='1565'> +1.2810785e-12 </wgt>
<wgt id='1566'> +1.2813304e-12 </wgt>
<wgt id='1567'> +1.2818013e-12 </wgt>
<wgt id='1568'> +1.2809051e-12 </wgt>
<wgt id='1569'> +1.2823679e-12 </wgt>
<wgt id='1570'> +1.2815947e-12 </wgt>
<wgt id='1571'> +1.2813467e-12 </wgt>
<wgt id='1572'> +1.2817923e-12 </wgt>
<wgt id='1573'> +1.2809420e-12 </wgt>
<wgt id='1574'> +1.2812129e-12 </wgt>
<wgt id='1575'> +1.2807824e-12 </wgt>
<wgt id='1576'> +1.2815940e-12 </wgt>
<wgt id='1577'> +1.2806871e-12 </wgt>
<wgt id='1578'> +1.2815764e-12 </wgt>
<wgt id='1579'> +1.2817707e-12 </wgt>
<wgt id='1580'> +1.2810863e-12 </wgt>
<wgt id='1581'> +1.2824445e-12 </wgt>
<wgt id='1582'> +1.2818087e-12 </wgt>
<wgt id='1583'> +1.2821322e-12 </wgt>
<wgt id='1584'> +1.2814262e-12 </wgt>
<wgt id='1585'> +1.2814718e-12 </wgt>
<wgt id='1586'> +1.2808446e-12 </wgt>
<wgt id='1587'> +1.2814545e-12 </wgt>
<wgt id='1588'> +1.2817122e-12 </wgt>
<wgt id='1589'> +1.2809204e-12 </wgt>
<wgt id='1590'> +1.2820538e-12 </wgt>
<wgt id='1591'> +1.2821143e-12 </wgt>
<wgt id='1592'> +1.2814694e-12 </wgt>
<wgt id='1593'> +1.2815908e-12 </wgt>
<wgt id='1594'> +1.2812564e-12 </wgt>
<wgt id='1595'> +1.2814183e-12 </wgt>
<wgt id='1596'> +1.2811652e-12 </wgt>
<wgt id='1597'> +1.2813666e-12 </wgt>
<wgt id='1598'> +1.2817155e-12 </wgt>
<wgt id='1599'> +1.2815923e-12 </wgt>
<wgt id='1600'> +1.2814018e-12 </wgt>
<wgt id='1601'> +1.2811719e-12 </wgt>
<wgt id='1602'> +1.2814088e-12 </wgt>
<wgt id='1603'> +1.2812858e-12 </wgt>
<wgt id='1604'> +1.2815208e-12 </wgt>
<wgt id='1605'> +1.2813669e-12 </wgt>
<wgt id='1606'> +1.2816537e-12 </wgt>
<wgt id='1607'> +1.2813849e-12 </wgt>
<wgt id='1608'> +1.2815560e-12 </wgt>
<wgt id='1609'> +1.2811219e-12 </wgt>
<wgt id='1610'> +1.2364485e-12 </wgt>
<wgt id='1611'> +1.3065861e-12 </wgt>
<wgt id='1612'> +1.4826117e-12 </wgt>
<wgt id='1613'> +1.4156474e-12 </wgt>
<wgt id='1614'> +1.2625976e-12 </wgt>
<wgt id='1615'> +1.5245437e-12 </wgt>
<wgt id='1616'> +1.2535271e-12 </wgt>
<wgt id='1617'> +1.3702088e-12 </wgt>
<wgt id='1618'> +1.4832479e-12 </wgt>
<wgt id='1619'> +1.3536227e-12 </wgt>
<wgt id='1620'> +1.5068990e-12 </wgt>
<wgt id='1621'> +1.5826100e-12 </wgt>
<wgt id='1622'> +1.5314255e-12 </wgt>
<wgt id='1623'> +1.4687251e-12 </wgt>
<wgt id='1624'> +1.5415689e-12 </wgt>
<wgt id='1625'> +1.6606866e-12 </wgt>
<wgt id='1626'> +1.5375411e-12 </wgt>
<wgt id='1627'> +1.5473387e-12 </wgt>
<wgt id='1628'> +1.4238718e-12 </wgt>
<wgt id='1629'> +1.5761660e-12 </wgt>
<wgt id='1630'> +1.4262418e-12 </wgt>
<wgt id='1631'> +1.5581338e-12 </wgt>
<wgt id='1632'> +1.5552349e-12 </wgt>
<wgt id='1633'> +1.5366109e-12 </wgt>
<wgt id='1634'> +1.4575447e-12 </wgt>
<wgt id='1635'> +1.4991726e-12 </wgt>
<wgt id='1636'> +1.4370752e-12 </wgt>
<wgt id='1637'> +1.4890025e-12 </wgt>
<wgt id='1638'> +1.5096136e-12 </wgt>
<wgt id='1639'> +1.4465931e-12 </wgt>
<wgt id='1640'> +1.5528406e-12 </wgt>
<wgt id='1641'> +1.4807061e-12 </wgt>
<wgt id='1642'> +1.5141440e-12 </wgt>
<wgt id='1643'> +1.3101831e-12 </wgt>
<wgt id='1644'> +1.7326586e-12 </wgt>
<wgt id='1645'> +1.4934697e-12 </wgt>
<wgt id='1646'> +1.4682777e-12 </wgt>
<wgt id='1647'> +1.4513727e-12 </wgt>
<wgt id='1648'> +1.3244909e-12 </wgt>
<wgt id='1649'> +1.3900312e-12 </wgt>
<wgt id='1650'> +1.4935040e-12 </wgt>
<wgt id='1651'> +1.5794685e-12 </wgt>
<wgt id='1652'> +1.5024160e-12 </wgt>
<wgt id='1653'> +1.3356049e-12 </wgt>
<wgt id='1654'> +1.5527075e-12 </wgt>
<wgt id='1655'> +1.5345354e-12 </wgt>
<wgt id='1656'> +1.5212689e-12 </wgt>
<wgt id='1657'> +1.4762376e-12 </wgt>
<wgt id='1658'> +1.5935163e-12 </wgt>
<wgt id='1659'> +1.5415689e-12 </wgt>
<wgt id='1660'> +1.5028700e-12 </wgt>
<wgt id='1661'> +1.5557084e-12 </wgt>
<wgt id='1662'> +1.4568308e-12 </wgt>
<wgt id='1663'> +1.5207728e-12 </wgt>
<wgt id='1664'> +1.5181284e-12 </wgt>
<wgt id='1665'> +1.5592378e-12 </wgt>
<wgt id='1666'> +1.4570833e-12 </wgt>
<wgt id='1667'> +1.5130219e-12 </wgt>
<wgt id='1668'> +1.4382218e-12 </wgt>
<wgt id='1669'> +1.7907332e-12 </wgt>
<wgt id='1670'> +1.4208688e-12 </wgt>
<wgt id='1671'> +1.4737615e-12 </wgt>
<wgt id='1672'> +1.5814957e-12 </wgt>
<wgt id='1673'> +1.5079224e-12 </wgt>
<wgt id='1674'> +1.4394523e-12 </wgt>
<wgt id='1675'> +1.4871322e-12 </wgt>
<wgt id='1676'> +1.5100127e-12 </wgt>
<wgt id='1677'> +1.2796304e-12 </wgt>
<wgt id='1678'> +1.4781053e-12 </wgt>
<wgt id='1679'> +1.4934002e-12 </wgt>
<wgt id='1680'> +1.2772065e-12 </wgt>
<wgt id='1681'> +1.5108980e-12 </wgt>
<wgt id='1682'> +1.4978333e-12 </wgt>
<wgt id='1683'> +1.5211939e-12 </wgt>
<wgt id='1684'> +1.5698105e-12 </wgt>
<wgt id='1685'> +1.5359743e-12 </wgt>
<wgt id='1686'> +1.4999540e-12 </wgt>
<wgt id='1687'> +1.4055361e-12 </wgt>
<wgt id='1688'> +1.4219868e-12 </wgt>
<wgt id='1689'> +1.4967803e-12 </wgt>
<wgt id='1690'> +1.4641754e-12 </wgt>
<wgt id='1691'> +1.3517976e-12 </wgt>
<wgt id='1692'> +1.4566425e-12 </wgt>
<wgt id='1693'> +1.4124544e-12 </wgt>
<wgt id='1694'> +1.7190394e-12 </wgt>
<wgt id='1695'> +1.4821368e-12 </wgt>
<wgt id='1696'> +1.4129547e-12 </wgt>
<wgt id='1697'> +1.3559645e-12 </wgt>
<wgt id='1698'> +1.5216961e-12 </wgt>
<wgt id='1699'> +1.4235696e-12 </wgt>
<wgt id='1700'> +1.4807115e-12 </wgt>
<wgt id='1701'> +1.4394474e-12 </wgt>
<wgt id='1702'> +1.3856837e-12 </wgt>
<wgt id='1703'> +1.3904172e-12 </wgt>
<wgt id='1704'> +1.4865987e-12 </wgt>
<wgt id='1705'> +1.5378771e-12 </wgt>
<wgt id='1706'> +1.4527566e-12 </wgt>
<wgt id='1707'> +1.4841135e-12 </wgt>
<wgt id='1708'> +1.5721411e-12 </wgt>
<wgt id='1709'> +1.5273312e-12 </wgt>
<wgt id='1710'> +1.4879036e-12 </wgt>
<wgt id='1711'> +1.3569870e-12 </wgt>
<wgt id='1712'> +1.5074015e-12 </wgt>
<wgt id='1713'> +1.2575324e-12 </wgt>
<wgt id='1714'> +1.2597452e-12 </wgt>
<wgt id='1715'> +1.1290125e-12 </wgt>
<wgt id='1716'> +1.1811939e-12 </wgt>
<wgt id='1717'> +1.2035768e-12 </wgt>
<wgt id='1718'> +1.2769843e-12 </wgt>
<wgt id='1719'> +1.3096792e-12 </wgt>
<wgt id='1720'> +1.2660380e-12 </wgt>
<wgt id='1721'> +1.2643697e-12 </wgt>
<wgt id='1722'> +1.2811651e-12 </wgt>
<wgt id='1723'> +1.2523258e-12 </wgt>
<wgt id='1724'> +1.8833941e-12 </wgt>
<wgt id='1725'> +1.2383005e-12 </wgt>
<wgt id='1726'> +1.0724067e-12 </wgt>
<wgt id='1727'> +1.3012622e-12 </wgt>
<wgt id='1728'> +1.2860625e-12 </wgt>
<wgt id='1729'> +1.2807339e-12 </wgt>
<wgt id='1730'> +1.2639926e-12 </wgt>
<wgt id='1731'> +1.2727128e-12 </wgt>
<wgt id='1732'> +1.2513092e-12 </wgt>
<wgt id='1733'> +1.1907674e-12 </wgt>
<wgt id='1734'> +1.2365664e-12 </wgt>
<wgt id='1735'> +1.3831884e-12 </wgt>
<wgt id='1736'> +1.2687772e-12 </wgt>
<wgt id='1737'> +1.2244336e-12 </wgt>
<wgt id='1738'> +1.2350129e-12 </wgt>
<wgt id='1739'> +1.2365122e-12 </wgt>
<wgt id='1740'> +1.2175915e-12 </wgt>
<wgt id='1741'> +1.2842601e-12 </wgt>
<wgt id='1742'> +1.1385389e-12 </wgt>
<wgt id='1743'> +1.1970537e-12 </wgt>
<wgt id='1744'> +1.0833165e-12 </wgt>
<wgt id='1745'> +1.5626295e-12 </wgt>
<wgt id='1746'> +1.0630455e-12 </wgt>
<wgt id='1747'> +1.2799606e-12 </wgt>
<wgt id='1748'> +1.1950410e-12 </wgt>
<wgt id='1749'> +1.2143974e-12 </wgt>
<wgt id='1750'> +1.2484874e-12 </wgt>
<wgt id='1751'> +1.5228976e-12 </wgt>
<wgt id='1752'> +1.2410191e-12 </wgt>
<wgt id='1753'> +1.2311586e-12 </wgt>
<wgt id='1754'> +1.2390079e-12 </wgt>
<wgt id='1755'> +1.2351987e-12 </wgt>
<wgt id='1756'> +1.3202596e-12 </wgt>
<wgt id='1757'> +1.2950336e-12 </wgt>
<wgt id='1758'> +1.1876005e-12 </wgt>
<wgt id='1759'> +1.2248682e-12 </wgt>
<wgt id='1760'> +1.2790248e-12 </wgt>
<wgt id='1761'> +1.2202811e-12 </wgt>
<wgt id='1762'> +1.1270462e-12 </wgt>
<wgt id='1763'> +1.1829682e-12 </wgt>
<wgt id='1764'> +1.2413431e-12 </wgt>
<wgt id='1765'> +1.2131853e-12 </wgt>
<wgt id='1766'> +1.3461595e-12 </wgt>
<wgt id='1767'> +1.2638010e-12 </wgt>
<wgt id='1768'> +1.2344784e-12 </wgt>
<wgt id='1769'> +1.2630352e-12 </wgt>
<wgt id='1770'> +1.1262699e-12 </wgt>
<wgt id='1771'> +1.2593025e-12 </wgt>
<wgt id='1772'> +1.1037982e-12 </wgt>
<wgt id='1773'> +1.2516628e-12 </wgt>
<wgt id='1774'> +1.1919282e-12 </wgt>
<wgt id='1775'> +1.2351769e-12 </wgt>
<wgt id='1776'> +1.2536117e-12 </wgt>
<wgt id='1777'> +1.2937984e-12 </wgt>
<wgt id='1778'> +1.2377239e-12 </wgt>
<wgt id='1779'> +1.1932068e-12 </wgt>
<wgt id='1780'> +1.5007064e-12 </wgt>
<wgt id='1781'> +1.1547075e-12 </wgt>
<wgt id='1782'> +1.2605649e-12 </wgt>
<wgt id='1783'> +1.2562191e-12 </wgt>
<wgt id='1784'> +1.2869570e-12 </wgt>
<wgt id='1785'> +1.5180964e-12 </wgt>
<wgt id='1786'> +1.4000071e-12 </wgt>
<wgt id='1787'> +1.2817294e-12 </wgt>
<wgt id='1788'> +1.2314217e-12 </wgt>
<wgt id='1789'> +1.7823510e-12 </wgt>
<wgt id='1790'> +1.4011788e-12 </wgt>
<wgt id='1791'> +1.2880902e-12 </wgt>
<wgt id='1792'> +1.3209285e-12 </wgt>
<wgt id='1793'> +1.2151482e-12 </wgt>
<wgt id='1794'> +1.2728488e-12 </wgt>
<wgt id='1795'> +1.1261275e-12 </wgt>
<wgt id='1796'> +1.3193047e-12 </wgt>
<wgt id='1797'> +1.2105753e-12 </wgt>
<wgt id='1798'> +1.2287425e-12 </wgt>
<wgt id='1799'> +1.2637311e-12 </wgt>
<wgt id='1800'> +1.2534527e-12 </wgt>
<wgt id='1801'> +1.2188982e-12 </wgt>
<wgt id='1802'> +1.3921270e-12 </wgt>
<wgt id='1803'> +1.1682530e-12 </wgt>
<wgt id='1804'> +1.2359138e-12 </wgt>
<wgt id='1805'> +1.2645723e-12 </wgt>
<wgt id='1806'> +1.2423117e-12 </wgt>
<wgt id='1807'> +1.2608297e-12 </wgt>
<wgt id='1808'> +1.1597474e-12 </wgt>
<wgt id='1809'> +1.2844262e-12 </wgt>
<wgt id='1810'> +1.1050310e-12 </wgt>
<wgt id='1811'> +1.0725179e-12 </wgt>
<wgt id='1812'> +1.1260586e-12 </wgt>
<wgt id='1813'> +1.0253465e-12 </wgt>
<wgt id='1814'> +1.1241376e-12 </wgt>
<wgt id='1815'> +1.2896393e-12 </wgt>
<wgt id='1816'> +1.2575324e-12 </wgt>
<wgt id='1817'> +1.2597452e-12 </wgt>
<wgt id='1818'> +1.1290125e-12 </wgt>
<wgt id='1819'> +1.1811939e-12 </wgt>
<wgt id='1820'> +1.2035768e-12 </wgt>
<wgt id='1821'> +1.2769843e-12 </wgt>
<wgt id='1822'> +1.3096792e-12 </wgt>
<wgt id='1823'> +1.2660380e-12 </wgt>
<wgt id='1824'> +1.2643697e-12 </wgt>
<wgt id='1825'> +1.2811651e-12 </wgt>
<wgt id='1826'> +1.2523258e-12 </wgt>
<wgt id='1827'> +1.8833941e-12 </wgt>
<wgt id='1828'> +1.2383005e-12 </wgt>
<wgt id='1829'> +1.0724067e-12 </wgt>
<wgt id='1830'> +1.3012622e-12 </wgt>
<wgt id='1831'> +1.2860625e-12 </wgt>
<wgt id='1832'> +1.2807339e-12 </wgt>
<wgt id='1833'> +1.2639926e-12 </wgt>
<wgt id='1834'> +1.2727128e-12 </wgt>
<wgt id='1835'> +1.2513092e-12 </wgt>
<wgt id='1836'> +1.1907674e-12 </wgt>
<wgt id='1837'> +1.2365664e-12 </wgt>
<wgt id='1838'> +1.3831884e-12 </wgt>
<wgt id='1839'> +1.2687772e-12 </wgt>
<wgt id='1840'> +1.2244336e-12 </wgt>
<wgt id='1841'> +1.2350129e-12 </wgt>
<wgt id='1842'> +1.2365122e-12 </wgt>
<wgt id='1843'> +1.2175915e-12 </wgt>
<wgt id='1844'> +1.2842601e-12 </wgt>
<wgt id='1845'> +1.1385389e-12 </wgt>
<wgt id='1846'> +1.1970537e-12 </wgt>
<wgt id='1847'> +1.0833165e-12 </wgt>
<wgt id='1848'> +1.5626295e-12 </wgt>
<wgt id='1849'> +1.0630455e-12 </wgt>
<wgt id='1850'> +1.2799606e-12 </wgt>
<wgt id='1851'> +1.1950410e-12 </wgt>
<wgt id='1852'> +1.2143974e-12 </wgt>
<wgt id='1853'> +1.2484874e-12 </wgt>
<wgt id='1854'> +1.5228976e-12 </wgt>
<wgt id='1855'> +1.2410191e-12 </wgt>
<wgt id='1856'> +1.2311586e-12 </wgt>
<wgt id='1857'> +1.2390079e-12 </wgt>
<wgt id='1858'> +1.2351987e-12 </wgt>
<wgt id='1859'> +1.3202596e-12 </wgt>
<wgt id='1860'> +1.2950336e-12 </wgt>
<wgt id='1861'> +1.1876005e-12 </wgt>
<wgt id='1862'> +1.2248682e-12 </wgt>
<wgt id='1863'> +1.2790248e-12 </wgt>
<wgt id='1864'> +1.2202811e-12 </wgt>
<wgt id='1865'> +1.1270462e-12 </wgt>
<wgt id='1866'> +1.1829682e-12 </wgt>
<wgt id='1867'> +1.2413431e-12 </wgt>
<wgt id='1868'> +1.2131853e-12 </wgt>
<wgt id='1869'> +1.3461595e-12 </wgt>
<wgt id='1870'> +1.2638010e-12 </wgt>
<wgt id='1871'> +1.2344784e-12 </wgt>
<wgt id='1872'> +1.2630352e-12 </wgt>
<wgt id='1873'> +1.1262699e-12 </wgt>
<wgt id='1874'> +1.2593025e-12 </wgt>
<wgt id='1875'> +1.1037982e-12 </wgt>
<wgt id='1876'> +1.2516628e-12 </wgt>
<wgt id='1877'> +1.1919282e-12 </wgt>
<wgt id='1878'> +1.2351769e-12 </wgt>
<wgt id='1879'> +1.2536117e-12 </wgt>
<wgt id='1880'> +1.2937984e-12 </wgt>
<wgt id='1881'> +1.2377239e-12 </wgt>
<wgt id='1882'> +1.1932068e-12 </wgt>
<wgt id='1883'> +1.5007064e-12 </wgt>
<wgt id='1884'> +1.1547075e-12 </wgt>
<wgt id='1885'> +1.2605649e-12 </wgt>
<wgt id='1886'> +1.2562191e-12 </wgt>
<wgt id='1887'> +1.2869570e-12 </wgt>
<wgt id='1888'> +1.5180964e-12 </wgt>
<wgt id='1889'> +1.4000071e-12 </wgt>
<wgt id='1890'> +1.2817294e-12 </wgt>
<wgt id='1891'> +1.2314217e-12 </wgt>
<wgt id='1892'> +1.7823510e-12 </wgt>
<wgt id='1893'> +1.4011788e-12 </wgt>
<wgt id='1894'> +1.2880902e-12 </wgt>
<wgt id='1895'> +1.3209285e-12 </wgt>
<wgt id='1896'> +1.2151482e-12 </wgt>
<wgt id='1897'> +1.2728488e-12 </wgt>
<wgt id='1898'> +1.1261275e-12 </wgt>
<wgt id='1899'> +1.3193047e-12 </wgt>
<wgt id='1900'> +1.2105753e-12 </wgt>
<wgt id='1901'> +1.2287425e-12 </wgt>
<wgt id='1902'> +1.2637311e-12 </wgt>
<wgt id='1903'> +1.2534527e-12 </wgt>
<wgt id='1904'> +1.2188982e-12 </wgt>
<wgt id='1905'> +1.3921270e-12 </wgt>
<wgt id='1906'> +1.1682530e-12 </wgt>
<wgt id='1907'> +1.2359138e-12 </wgt>
<wgt id='1908'> +1.2645723e-12 </wgt>
<wgt id='1909'> +1.2423117e-12 </wgt>
<wgt id='1910'> +1.2608297e-12 </wgt>
<wgt id='1911'> +1.1597474e-12 </wgt>
<wgt id='1912'> +1.2844262e-12 </wgt>
<wgt id='1913'> +1.1050310e-12 </wgt>
<wgt id='1914'> +1.0725179e-12 </wgt>
<wgt id='1915'> +1.1260586e-12 </wgt>
<wgt id='1916'> +1.0253465e-12 </wgt>
<wgt id='1917'> +1.2223524e-12 </wgt>
<wgt id='1918'> +1.2677007e-12 </wgt>
<wgt id='1919'> +1.2734189e-12 </wgt>
</rwgt>
</event>
<event>
 9      1 +1.5607000e-12 3.19892700e+01 7.81860800e-03 1.43065100e-01
        2 -1    0    0  502    0 +0.0000000000e+00 +0.0000000000e+00 +1.4818409226e+03 1.4818409226e+03 0.0000000000e+00 0.0000e+00 -1.0000e+00
       -2 -1    0    0    0  501 -0.0000000000e+00 -0.0000000000e+00 -6.4976040863e-01 6.4976040863e-01 0.0000000000e+00 0.0000e+00 1.0000e+00
     1023  2    1    2    0    0 +8.6350214278e+00 -2.6901353189e+01 +9.6159712022e+02 9.6212906370e+02 1.5002239851e+01 0.0000e+00 0.0000e+00
  1000023  2    3    3    0    0 +1.0359385559e+00 -1.7221116529e+01 +6.4347799120e+02 6.4373271747e+02 5.4996692537e+00 0.0000e+00 0.0000e+00
       21  1    1    2  502  501 -8.6350214278e+00 +2.6901353189e+01 +5.1959404202e+02 5.2036161936e+02 0.0000000000e+00 0.0000e+00 -1.0000e+00
  1000022  1    4    4    0    0 +9.8514931582e-01 -1.4884347868e+01 +5.5612119433e+02 5.5634368615e+02 5.0000000000e+00 0.0000e+00 1.0000e+00
      -11  1    4    4    0    0 +1.8105357999e-02 -9.9463881571e-01 +2.9873500652e+01 2.9890059813e+01 5.1100000000e-04 0.0000e+00 -1.0000e+00
       11  1    4    4    0    0 +3.2683882042e-02 -1.3421298460e+00 +5.7483296221e+01 5.7498971516e+01 5.1100000000e-04 0.0000e+00 1.0000e+00
  1000022  1    3    3    0    0 +7.5990828720e+00 -9.6802366593e+00 +3.1811912901e+02 3.1839634622e+02 5.0000000000e+00 0.0000e+00 1.0000e+00
<mgrwt>
<rscale>  1 0.31989273E+02</rscale>
<asrwt>0</asrwt>
<pdfrwt beam="1">  1        2 0.22797282E+00 0.31989273E+02</pdfrwt>
<pdfrwt beam="2">  1       -2 0.99964326E-04 0.31989273E+02</pdfrwt>
<totfact> 0.62279618E+05</totfact>
</mgrwt>
<rwgt>
<wgt id='1001'> +1.5607000e-12 </wgt>
<wgt id='1002'> +1.5548962e-12 </wgt>
<wgt id='1003'> +1.5542714e-12 </wgt>
<wgt id='1004'> +1.5604811e-12 </wgt>
<wgt id='1005'> +1.5534107e-12 </wgt>
<wgt id='1006'> +1.3680312e-12 </wgt>
<wgt id='1007'> +1.3823239e-12 </wgt>
<wgt id='1008'> +1.3826605e-12 </wgt>
<wgt id='1009'> +1.3651988e-12 </wgt>
<wgt id='1010'> +1.3830574e-12 </wgt>
<wgt id='1011'> +1.8196234e-12 </wgt>
<wgt id='1012'> +1.7788115e-12 </wgt>
<wgt id='1013'> +1.7765992e-12 </wgt>
<wgt id='1014'> +1.8241843e-12 </wgt>
<wgt id='1015'> +1.7736551e-12 </wgt>
<wgt id='1016'> +1.7714143e-12 </wgt>
<wgt id='1017'> +1.7265806e-12 </wgt>
<wgt id='1018'> +1.7242216e-12 </wgt>
<wgt id='1019'> +1.7765992e-12 </wgt>
<wgt id='1020'> +1.7211116e-12 </wgt>
<wgt id='1021'> +1.5527328e-12 </wgt>
<wgt id='1022'> +1.5349537e-12 </wgt>
<wgt id='1023'> +1.5338460e-12 </wgt>
<wgt id='1024'> +1.5542714e-12 </wgt>
<wgt id='1025'> +1.5323676e-12 </wgt>
<wgt id='1026'> +2.0652957e-12 </wgt>
<wgt id='1027'> +1.9752196e-12 </wgt>
<wgt id='1028'> +1.9708596e-12 </wgt>
<wgt id='1029'> +2.0768239e-12 </wgt>
<wgt id='1030'> +1.9651329e-12 </wgt>
<wgt id='1031'> +1.3271535e-12 </wgt>
<wgt id='1032'> +1.3638955e-12 </wgt>
<wgt id='1033'> +1.3651988e-12 </wgt>
<wgt id='1034'> +1.3210914e-12 </wgt>
<wgt id='1035'> +1.3668461e-12 </wgt>
<wgt id='1036'> +1.1633161e-12 </wgt>
<wgt id='1037'> +1.2125217e-12 </wgt>
<wgt id='1038'> +1.2144639e-12 </wgt>
<wgt id='1039'> +1.1557669e-12 </wgt>
<wgt id='1040'> +1.2169523e-12 </wgt>
<wgt id='1041'> +1.5473311e-12 </wgt>
<wgt id='1042'> +1.5603055e-12 </wgt>
<wgt id='1043'> +1.5604811e-12 </wgt>
<wgt id='1044'> +1.5443405e-12 </wgt>
<wgt id='1045'> +1.5606392e-12 </wgt>
<wgt id='1046'> +1.5607000e-12 </wgt>
<wgt id='1047'> +1.5756075e-12 </wgt>
<wgt id='1048'> +1.6110589e-12 </wgt>
<wgt id='1049'> +1.5241799e-12 </wgt>
<wgt id='1050'> +1.5204878e-12 </wgt>
<wgt id='1051'> +1.5675637e-12 </wgt>
<wgt id='1052'> +1.5441294e-12 </wgt>
<wgt id='1053'> +1.6204534e-12 </wgt>
<wgt id='1054'> +1.6090754e-12 </wgt>
<wgt id='1055'> +1.5389722e-12 </wgt>
<wgt id='1056'> +1.4643726e-12 </wgt>
<wgt id='1057'> +1.5499057e-12 </wgt>
<wgt id='1058'> +1.5467701e-12 </wgt>
<wgt id='1059'> +1.5589053e-12 </wgt>
<wgt id='1060'> +1.5903472e-12 </wgt>
<wgt id='1061'> +1.5781665e-12 </wgt>
<wgt id='1062'> +1.5192687e-12 </wgt>
<wgt id='1063'> +1.5077306e-12 </wgt>
<wgt id='1064'> +1.5398415e-12 </wgt>
<wgt id='1065'> +1.5830130e-12 </wgt>
<wgt id='1066'> +1.5325854e-12 </wgt>
<wgt id='1067'> +1.6111773e-12 </wgt>
<wgt id='1068'> +1.6164236e-12 </wgt>
<wgt id='1069'> +1.6207089e-12 </wgt>
<wgt id='1070'> +1.5511296e-12 </wgt>
<wgt id='1071'> +1.5650597e-12 </wgt>
<wgt id='1072'> +1.5974650e-12 </wgt>
<wgt id='1073'> +1.5783127e-12 </wgt>
<wgt id='1074'> +1.5743535e-12 </wgt>
<wgt id='1075'> +1.5389797e-12 </wgt>
<wgt id='1076'> +1.5660627e-12 </wgt>
<wgt id='1077'> +1.6049705e-12 </wgt>
<wgt id='1078'> +1.5397965e-12 </wgt>
<wgt id='1079'> +1.5823817e-12 </wgt>
<wgt id='1080'> +1.5449639e-12 </wgt>
<wgt id='1081'> +1.5425730e-12 </wgt>
<wgt id='1082'> +1.5673922e-12 </wgt>
<wgt id='1083'> +1.5211159e-12 </wgt>
<wgt id='1084'> +1.5783088e-12 </wgt>
<wgt id='1085'> +1.5339239e-12 </wgt>
<wgt id='1086'> +1.6361377e-12 </wgt>
<wgt id='1087'> +1.5338287e-12 </wgt>
<wgt id='1088'> +1.5424241e-12 </wgt>
<wgt id='1089'> +1.5438379e-12 </wgt>
<wgt id='1090'> +1.5863873e-12 </wgt>
<wgt id='1091'> +1.5027376e-12 </wgt>
<wgt id='1092'> +1.5433560e-12 </wgt>
<wgt id='1093'> +1.5926789e-12 </wgt>
<wgt id='1094'> +1.5977865e-12 </wgt>
<wgt id='1095'> +1.6163357e-12 </wgt>
<wgt id='1096'> +1.5119365e-12 </wgt>
<wgt id='1097'> +1.5988379e-12 </wgt>
<wgt id='1098'> +1.5937765e-12 </wgt>
<wgt id='1099'> +1.6006006e-12 </wgt>
<wgt id='1100'> +1.6064392e-12 </wgt>
<wgt id='1101'> +1.6019089e-12 </wgt>
<wgt id='1102'> +1.4836911e-12 </wgt>
<wgt id='1103'> +1.5060149e-12 </wgt>
<wgt id='1104'> +1.5417302e-12 </wgt>
<wgt id='1105'> +1.5382752e-12 </wgt>
<wgt id='1106'> +1.5450380e-12 </wgt>
<wgt id='1107'> +1.6010733e-12 </wgt>
<wgt id='1108'> +1.5336172e-12 </wgt>
<wgt id='1109'> +1.5990710e-12 </wgt>
<wgt id='1110'> +1.5939221e-12 </wgt>
<wgt id='1111'> +1.5719082e-12 </wgt>
<wgt id='1112'> +1.5731200e-12 </wgt>
<wgt id='1113'> +1.5899530e-12 </wgt>
<wgt id='1114'> +1.5606713e-12 </wgt>
<wgt id='1115'> +1.5978763e-12 </wgt>
<wgt id='1116'> +1.6291375e-12 </wgt>
<wgt id='1117'> +1.5776136e-12 </wgt>
<wgt id='1118'> +1.5547416e-12 </wgt>
<wgt id='1119'> +1.5096423e-12 </wgt>
<wgt id='1120'> +1.5925071e-12 </wgt>
<wgt id='1121'> +1.5047848e-12 </wgt>
<wgt id='1122'> +1.5829051e-12 </wgt>
<wgt id='1123'> +1.5878501e-12 </wgt>
<wgt id='1124'> +1.5899421e-12 </wgt>
<wgt id='1125'> +1.4650390e-12 </wgt>
<wgt id='1126'> +1.5268175e-12 </wgt>
<wgt id='1127'> +1.5527738e-12 </wgt>
<wgt id='1128'> +1.5192687e-12 </wgt>
<wgt id='1129'> +1.5506717e-12 </wgt>
<wgt id='1130'> +1.5456967e-12 </wgt>
<wgt id='1131'> +1.6136835e-12 </wgt>
<wgt id='1132'> +1.5414938e-12 </wgt>
<wgt id='1133'> +1.5642124e-12 </wgt>
<wgt id='1134'> +1.5730566e-12 </wgt>
<wgt id='1135'> +1.5043718e-12 </wgt>
<wgt id='1136'> +1.5338853e-12 </wgt>
<wgt id='1137'> +1.5587956e-12 </wgt>
<wgt id='1138'> +1.5393402e-12 </wgt>
<wgt id='1139'> +1.5480869e-12 </wgt>
<wgt id='1140'> +1.5755715e-12 </wgt>
<wgt id='1141'> +1.5170838e-12 </wgt>
<wgt id='1142'> +1.6252879e-12 </wgt>
<wgt id='1143'> +1.4630212e-12 </wgt>
<wgt id='1144'> +1.5539099e-12 </wgt>
<wgt id='1145'> +1.5457188e-12 </wgt>
<wgt id='1146'> +1.5498750e-12 </wgt>
<wgt id='1147'> +1.3121748e-12 </wgt>
<wgt id='1148'> +1.3387445e-12 </wgt>
<wgt id='1149'> +1.4022065e-12 </wgt>
<wgt id='1150'> +1.3419852e-12 </wgt>
<wgt id='1151'> +1.2370792e-12 </wgt>
<wgt id='1152'> +1.8274086e-12 </wgt>
<wgt id='1153'> +1.8344343e-12 </wgt>
<wgt id='1154'> +1.8232677e-12 </wgt>
<wgt id='1155'> +1.8242306e-12 </wgt>
<wgt id='1156'> +1.8290166e-12 </wgt>
<wgt id='1157'> +1.8363108e-12 </wgt>
<wgt id='1158'> +1.8154303e-12 </wgt>
<wgt id='1159'> +1.8344804e-12 </wgt>
<wgt id='1160'> +1.8228761e-12 </wgt>
<wgt id='1161'> +1.8244367e-12 </wgt>
<wgt id='1162'> +1.8294087e-12 </wgt>
<wgt id='1163'> +1.8263540e-12 </wgt>
<wgt id='1164'> +1.8284262e-12 </wgt>
<wgt id='1165'> +1.8315020e-12 </wgt>
<wgt id='1166'> +1.8236715e-12 </wgt>
<wgt id='1167'> +1.8592497e-12 </wgt>
<wgt id='1168'> +1.7919100e-12 </wgt>
<wgt id='1169'> +1.8369113e-12 </wgt>
<wgt id='1170'> +1.8204158e-12 </wgt>
<wgt id='1171'> +1.8208068e-12 </wgt>
<wgt id='1172'> +1.8355316e-12 </wgt>
<wgt id='1173'> +1.8084200e-12 </wgt>
<wgt id='1174'> +1.8472573e-12 </wgt>
<wgt id='1175'> +1.8319322e-12 </wgt>
<wgt id='1176'> +1.8243108e-12 </wgt>
<wgt id='1177'> +1.8265436e-12 </wgt>
<wgt id='1178'> +1.8293460e-12 </wgt>
<wgt id='1179'> +1.8191365e-12 </wgt>
<wgt id='1180'> +1.8346857e-12 </wgt>
<wgt id='1181'> +1.8294243e-12 </wgt>
<wgt id='1182'> +1.8255749e-12 </wgt>
<wgt id='1183'> +1.8327861e-12 </wgt>
<wgt id='1184'> +1.8271839e-12 </wgt>
<wgt id='1185'> +1.8153705e-12 </wgt>
<wgt id='1186'> +1.8329865e-12 </wgt>
<wgt id='1187'> +1.8299595e-12 </wgt>
<wgt id='1188'> +1.8265165e-12 </wgt>
<wgt id='1189'> +1.8183647e-12 </wgt>
<wgt id='1190'> +1.8009822e-12 </wgt>
<wgt id='1191'> +1.8283548e-12 </wgt>
<wgt id='1192'> +1.8531165e-12 </wgt>
<wgt id='1193'> +1.3162952e-12 </wgt>
<wgt id='1194'> +1.2870210e-12 </wgt>
<wgt id='1195'> +1.3403300e-12 </wgt>
<wgt id='1196'> +1.3116329e-12 </wgt>
<wgt id='1197'> +1.3214423e-12 </wgt>
<wgt id='1198'> +1.3134269e-12 </wgt>
<wgt id='1199'> +1.3205626e-12 </wgt>
<wgt id='1200'> +1.3147589e-12 </wgt>
<wgt id='1201'> +1.3173691e-12 </wgt>
<wgt id='1202'> +1.3169550e-12 </wgt>
<wgt id='1203'> +1.3153103e-12 </wgt>
<wgt id='1204'> +1.3188726e-12 </wgt>
<wgt id='1205'> +1.3144777e-12 </wgt>
<wgt id='1206'> +1.3182550e-12 </wgt>
<wgt id='1207'> +1.3134933e-12 </wgt>
<wgt id='1208'> +1.3275557e-12 </wgt>
<wgt id='1209'> +1.3123646e-12 </wgt>
<wgt id='1210'> +1.3354524e-12 </wgt>
<wgt id='1211'> +1.3050390e-12 </wgt>
<wgt id='1212'> +1.3134681e-12 </wgt>
<wgt id='1213'> +1.3201815e-12 </wgt>
<wgt id='1214'> +1.3081728e-12 </wgt>
<wgt id='1215'> +1.3212607e-12 </wgt>
<wgt id='1216'> +1.3206118e-12 </wgt>
<wgt id='1217'> +1.3123813e-12 </wgt>
<wgt id='1218'> +1.3184226e-12 </wgt>
<wgt id='1219'> +1.3149394e-12 </wgt>
<wgt id='1220'> +1.3259908e-12 </wgt>
<wgt id='1221'> +1.3153715e-12 </wgt>
<wgt id='1222'> +1.3371040e-12 </wgt>
<wgt id='1223'> +1.2896258e-12 </wgt>
<wgt id='1224'> +1.3189885e-12 </wgt>
<wgt id='1225'> +1.3152892e-12 </wgt>
<wgt id='1226'> +1.3114968e-12 </wgt>
<wgt id='1227'> +1.3196072e-12 </wgt>
<wgt id='1228'> +1.3180348e-12 </wgt>
<wgt id='1229'> +1.3156713e-12 </wgt>
<wgt id='1230'> +1.3203092e-12 </wgt>
<wgt id='1231'> +1.3357941e-12 </wgt>
<wgt id='1232'> +1.3218935e-12 </wgt>
<wgt id='1233'> +1.3149215e-12 </wgt>
<wgt id='1234'> +1.3162952e-12 </wgt>
<wgt id='1235'> +1.3082397e-12 </wgt>
<wgt id='1236'> +1.3113874e-12 </wgt>
<wgt id='1237'> +1.3141181e-12 </wgt>
<wgt id='1238'> +1.3186531e-12 </wgt>
<wgt id='1239'> +1.3204437e-12 </wgt>
<wgt id='1240'> +1.3223390e-12 </wgt>
<wgt id='1241'> +1.3207761e-12 </wgt>
<wgt id='1242'> +1.2977369e-12 </wgt>
<wgt id='1243'> +1.3434842e-12 </wgt>
<wgt id='1244'> +1.3334826e-12 </wgt>
<wgt id='1245'> +1.3114156e-12 </wgt>
<wgt id='1246'> +1.3173130e-12 </wgt>
<wgt id='1247'> +1.3236606e-12 </wgt>
<wgt id='1248'> +1.3208584e-12 </wgt>
<wgt id='1249'> +1.3206660e-12 </wgt>
<wgt id='1250'> +1.3248695e-12 </wgt>
<wgt id='1251'> +1.3179121e-12 </wgt>
<wgt id='1252'> +1.3177097e-12 </wgt>
<wgt id='1253'> +1.3231158e-12 </wgt>
<wgt id='1254'> +1.3231530e-12 </wgt>
<wgt id='1255'> +1.3191981e-12 </wgt>
<wgt id='1256'> +1.3154292e-12 </wgt>
<wgt id='1257'> +1.3342864e-12 </wgt>
<wgt id='1258'> +1.3231058e-12 </wgt>
<wgt id='1259'> +1.3146902e-12 </wgt>
<wgt id='1260'> +1.3217969e-12 </wgt>
<wgt id='1261'> +1.3200515e-12 </wgt>
<wgt id='1262'> +1.3184998e-12 </wgt>
<wgt id='1263'> +1.3217322e-12 </wgt>
<wgt id='1264'> +1.3211924e-12 </wgt>
<wgt id='1265'> +1.3212679e-12 </wgt>
<wgt id='1266'> +1.3003236e-12 </wgt>
<wgt id='1267'> +1.3409214e-12 </wgt>
<wgt id='1268'> +1.3292458e-12 </wgt>
<wgt id='1269'> +1.3137662e-12 </wgt>
<wgt id='1270'> +1.3476599e-12 </wgt>
<wgt id='1271'> +1.3255161e-12 </wgt>
<wgt id='1272'> +1.3290145e-12 </wgt>
<wgt id='1273'> +1.3202251e-12 </wgt>
<wgt id='1274'> +1.3246628e-12 </wgt>
<wgt id='1275'> +1.3154913e-12 </wgt>
<wgt id='1276'> +1.3213893e-12 </wgt>
<wgt id='1277'> +1.3215397e-12 </wgt>
<wgt id='1278'> +1.3465701e-12 </wgt>
<wgt id='1279'> +1.3238454e-12 </wgt>
<wgt id='1280'> +1.3207707e-12 </wgt>
<wgt id='1281'> +1.3297613e-12 </wgt>
<wgt id='1282'> +1.3207761e-12 </wgt>
<wgt id='1283'> +1.3127997e-12 </wgt>
<wgt id='1284'> +1.3161485e-12 </wgt>
<wgt id='1285'> +1.3188029e-12 </wgt>
<wgt id='1286'> +1.3229613e-12 </wgt>
<wgt id='1287'> +1.3243245e-12 </wgt>
<wgt id='1288'> +1.3255136e-12 </wgt>
<wgt id='1289'> +1.3728776e-12 </wgt>
<wgt id='1290'> +1.3846739e-12 </wgt>
<wgt id='1291'> +1.3602499e-12 </wgt>
<wgt id='1292'> +1.3715485e-12 </wgt>
<wgt id='1293'> +1.3738868e-12 </wgt>
<wgt id='1294'> +1.3502536e-12 </wgt>
<wgt id='1295'> +1.3944977e-12 </wgt>
<wgt id='1296'> +1.3868370e-12 </wgt>
<wgt id='1297'> +1.3556708e-12 </wgt>
<wgt id='1298'> +1.3789162e-12 </wgt>
<wgt id='1299'> +1.3654199e-12 </wgt>
<wgt id='1300'> +1.3749085e-12 </wgt>
<wgt id='1301'> +1.3687117e-12 </wgt>
<wgt id='1302'> +1.3697748e-12 </wgt>
<wgt id='1303'> +1.3772306e-12 </wgt>
<wgt id='1304'> +1.3725985e-12 </wgt>
<wgt id='1305'> +1.3730017e-12 </wgt>
<wgt id='1306'> +1.3809117e-12 </wgt>
<wgt id='1307'> +1.3638355e-12 </wgt>
<wgt id='1308'> +1.3800599e-12 </wgt>
<wgt id='1309'> +1.3673375e-12 </wgt>
<wgt id='1310'> +1.3813263e-12 </wgt>
<wgt id='1311'> +1.3642948e-12 </wgt>
<wgt id='1312'> +1.3832791e-12 </wgt>
<wgt id='1313'> +1.3635247e-12 </wgt>
<wgt id='1314'> +1.3648539e-12 </wgt>
<wgt id='1315'> +1.3819046e-12 </wgt>
<wgt id='1316'> +1.3807130e-12 </wgt>
<wgt id='1317'> +1.3762519e-12 </wgt>
<wgt id='1318'> +1.3779259e-12 </wgt>
<wgt id='1319'> +1.3641105e-12 </wgt>
<wgt id='1320'> +1.3864075e-12 </wgt>
<wgt id='1321'> +1.3580630e-12 </wgt>
<wgt id='1322'> +1.3708394e-12 </wgt>
<wgt id='1323'> +1.3751813e-12 </wgt>
<wgt id='1324'> +1.3698400e-12 </wgt>
<wgt id='1325'> +1.3795098e-12 </wgt>
<wgt id='1326'> +1.3704197e-12 </wgt>
<wgt id='1327'> +1.3785466e-12 </wgt>
<wgt id='1328'> +1.3737567e-12 </wgt>
<wgt id='1329'> +1.3711998e-12 </wgt>
<wgt id='1330'> +1.3550939e-12 </wgt>
<wgt id='1331'> +1.3786432e-12 </wgt>
<wgt id='1332'> +1.3871519e-12 </wgt>
<wgt id='1333'> +1.3761355e-12 </wgt>
<wgt id='1334'> +1.3691424e-12 </wgt>
<wgt id='1335'> +1.3819955e-12 </wgt>
<wgt id='1336'> +1.3818041e-12 </wgt>
<wgt id='1337'> +1.3832941e-12 </wgt>
<wgt id='1338'> +1.3748409e-12 </wgt>
<wgt id='1339'> +1.3758908e-12 </wgt>
<wgt id='1340'> +1.3192052e-12 </wgt>
<wgt id='1341'> +1.3303599e-12 </wgt>
<wgt id='1342'> +1.3071355e-12 </wgt>
<wgt id='1343'> +1.3178505e-12 </wgt>
<wgt id='1344'> +1.3200645e-12 </wgt>
<wgt id='1345'> +1.2963203e-12 </wgt>
<wgt id='1346'> +1.3401895e-12 </wgt>
<wgt id='1347'> +1.3335554e-12 </wgt>
<wgt id='1348'> +1.3031932e-12 </wgt>
<wgt id='1349'> +1.3247331e-12 </wgt>
<wgt id='1350'> +1.3137470e-12 </wgt>
<wgt id='1351'> +1.3211445e-12 </wgt>
<wgt id='1352'> +1.3148112e-12 </wgt>
<wgt id='1353'> +1.3156293e-12 </wgt>
<wgt id='1354'> +1.3255581e-12 </wgt>
<wgt id='1355'> +1.3199203e-12 </wgt>
<wgt id='1356'> +1.3186790e-12 </wgt>
<wgt id='1357'> +1.3298873e-12 </wgt>
<wgt id='1358'> +1.3066995e-12 </wgt>
<wgt id='1359'> +1.3247017e-12 </wgt>
<wgt id='1360'> +1.3143479e-12 </wgt>
<wgt id='1361'> +1.3268897e-12 </wgt>
<wgt id='1362'> +1.3094155e-12 </wgt>
<wgt id='1363'> +1.3342825e-12 </wgt>
<wgt id='1364'> +1.3100102e-12 </wgt>
<wgt id='1365'> +1.3201172e-12 </wgt>
<wgt id='1366'> +1.3158600e-12 </wgt>
<wgt id='1367'> +1.3263902e-12 </wgt>
<wgt id='1368'> +1.3208101e-12 </wgt>
<wgt id='1369'> +1.3229886e-12 </wgt>
<wgt id='1370'> +1.3131676e-12 </wgt>
<wgt id='1371'> +1.3291579e-12 </wgt>
<wgt id='1372'> +1.3044542e-12 </wgt>
<wgt id='1373'> +1.3137529e-12 </wgt>
<wgt id='1374'> +1.3235254e-12 </wgt>
<wgt id='1375'> +1.3162982e-12 </wgt>
<wgt id='1376'> +1.3255789e-12 </wgt>
<wgt id='1377'> +1.3177282e-12 </wgt>
<wgt id='1378'> +1.3241362e-12 </wgt>
<wgt id='1379'> +1.3199250e-12 </wgt>
<wgt id='1380'> +1.3174806e-12 </wgt>
<wgt id='1381'> +1.2993454e-12 </wgt>
<wgt id='1382'> +1.3259913e-12 </wgt>
<wgt id='1383'> +1.3320252e-12 </wgt>
<wgt id='1384'> +1.3196102e-12 </wgt>
<wgt id='1385'> +1.3151073e-12 </wgt>
<wgt id='1386'> +1.3279740e-12 </wgt>
<wgt id='1387'> +1.3301618e-12 </wgt>
<wgt id='1388'> +1.3275481e-12 </wgt>
<wgt id='1389'> +1.3222691e-12 </wgt>
<wgt id='1390'> +1.3231517e-12 </wgt>
<wgt id='1391'> +1.3250530e-12 </wgt>
<wgt id='1392'> +1.2502164e-12 </wgt>
<wgt id='1393'> +1.2743353e-12 </wgt>
<wgt id='1394'> +1.2988994e-12 </wgt>
<wgt id='1395'> +1.3473771e-12 </wgt>
<wgt id='1396'> +1.3238472e-12 </wgt>
<wgt id='1397'> +1.3046679e-12 </wgt>
<wgt id='1398'> +1.3073537e-12 </wgt>
<wgt id='1399'> +1.3106662e-12 </wgt>
<wgt id='1400'> +1.3143730e-12 </wgt>
<wgt id='1401'> +1.3189769e-12 </wgt>
<wgt id='1402'> +1.3268877e-12 </wgt>
<wgt id='1403'> +1.3311080e-12 </wgt>
<wgt id='1404'> +1.3346787e-12 </wgt>
<wgt id='1405'> +1.3238472e-12 </wgt>
<wgt id='1406'> +1.3199072e-12 </wgt>
<wgt id='1407'> +1.3219623e-12 </wgt>
<wgt id='1408'> +1.3256828e-12 </wgt>
<wgt id='1409'> +1.3262470e-12 </wgt>
<wgt id='1410'> +1.3181498e-12 </wgt>
<wgt id='1411'> +1.3330793e-12 </wgt>
<wgt id='1412'> +1.2989774e-12 </wgt>
<wgt id='1413'> +1.3046983e-12 </wgt>
<wgt id='1414'> +1.3315741e-12 </wgt>
<wgt id='1415'> +1.3086508e-12 </wgt>
<wgt id='1416'> +1.3220013e-12 </wgt>
<wgt id='1417'> +1.3211639e-12 </wgt>
<wgt id='1418'> +1.3150815e-12 </wgt>
<wgt id='1419'> +1.3181429e-12 </wgt>
<wgt id='1420'> +1.3181395e-12 </wgt>
<wgt id='1421'> +1.3112216e-12 </wgt>
<wgt id='1422'> +1.3210350e-12 </wgt>
<wgt id='1423'> +1.3177610e-12 </wgt>
<wgt id='1424'> +1.3186373e-12 </wgt>
<wgt id='1425'> +1.3116950e-12 </wgt>
<wgt id='1426'> +1.3252208e-12 </wgt>
<wgt id='1427'> +1.3190235e-12 </wgt>
<wgt id='1428'> +1.3175019e-12 </wgt>
<wgt id='1429'> +1.3160209e-12 </wgt>
<wgt id='1430'> +1.3211262e-12 </wgt>
<wgt id='1431'> +1.3224535e-12 </wgt>
<wgt id='1432'> +1.3152064e-12 </wgt>
<wgt id='1433'> +1.2955084e-12 </wgt>
<wgt id='1434'> +1.3374676e-12 </wgt>
<wgt id='1435'> +1.3120319e-12 </wgt>
<wgt id='1436'> +1.3344884e-12 </wgt>
<wgt id='1437'> +1.3251657e-12 </wgt>
<wgt id='1438'> +1.3254775e-12 </wgt>
<wgt id='1439'> +1.3118874e-12 </wgt>
<wgt id='1440'> +1.3249300e-12 </wgt>
<wgt id='1441'> +1.3235761e-12 </wgt>
<wgt id='1442'> +1.3053698e-12 </wgt>
<wgt id='1443'> +1.3151632e-12 </wgt>
<wgt id='1444'> +1.3254760e-12 </wgt>
<wgt id='1445'> +1.3309490e-12 </wgt>
<wgt id='1446'> +1.3133864e-12 </wgt>
<wgt id='1447'> +1.3202987e-12 </wgt>
<wgt id='1448'> +1.3222595e-12 </wgt>
<wgt id='1449'> +1.3191999e-12 </wgt>
<wgt id='1450'> +1.3162541e-12 </wgt>
<wgt id='1451'> +1.3253301e-12 </wgt>
<wgt id='1452'> +1.3059670e-12 </wgt>
<wgt id='1453'> +1.3203161e-12 </wgt>
<wgt id='1454'> +1.3157675e-12 </wgt>
<wgt id='1455'> +1.3257872e-12 </wgt>
<wgt id='1456'> +1.3396479e-12 </wgt>
<wgt id='1457'> +1.3324879e-12 </wgt>
<wgt id='1458'> +1.3152995e-12 </wgt>
<wgt id='1459'> +1.3309597e-12 </wgt>
<wgt id='1460'> +1.3349169e-12 </wgt>
<wgt id='1461'> +1.3181498e-12 </wgt>
<wgt id='1462'> +1.2957525e-12 </wgt>
<wgt id='1463'> +1.3380501e-12 </wgt>
<wgt id='1464'> +1.3170924e-12 </wgt>
<wgt id='1465'> +1.2899046e-12 </wgt>
<wgt id='1466'> +1.2945225e-12 </wgt>
<wgt id='1467'> +1.2999276e-12 </wgt>
<wgt id='1468'> +1.3080956e-12 </wgt>
<wgt id='1469'> +1.3117037e-12 </wgt>
<wgt id='1470'> +1.3226697e-12 </wgt>
<wgt id='1471'> +1.3278572e-12 </wgt>
<wgt id='1472'> +1.3327632e-12 </wgt>
<wgt id='1473'> +1.3170924e-12 </wgt>
<wgt id='1474'> +1.3131872e-12 </wgt>
<wgt id='1475'> +1.3156031e-12 </wgt>
<wgt id='1476'> +1.3184847e-12 </wgt>
<wgt id='1477'> +1.3200575e-12 </wgt>
<wgt id='1478'> +1.3016917e-12 </wgt>
<wgt id='1479'> +1.3004167e-12 </wgt>
<wgt id='1480'> +1.2941645e-12 </wgt>
<wgt id='1481'> +1.3351941e-12 </wgt>
<wgt id='1482'> +1.3004864e-12 </wgt>
<wgt id='1483'> +1.2770417e-12 </wgt>
<wgt id='1484'> +1.2896363e-12 </wgt>
<wgt id='1485'> +1.3020034e-12 </wgt>
<wgt id='1486'> +1.3023602e-12 </wgt>
<wgt id='1487'> +1.3156151e-12 </wgt>
<wgt id='1488'> +1.2998685e-12 </wgt>
<wgt id='1489'> +1.3068278e-12 </wgt>
<wgt id='1490'> +1.2963685e-12 </wgt>
<wgt id='1491'> +1.3029255e-12 </wgt>
<wgt id='1492'> +1.3048493e-12 </wgt>
<wgt id='1493'> +1.2850970e-12 </wgt>
<wgt id='1494'> +1.3171977e-12 </wgt>
<wgt id='1495'> +1.2852495e-12 </wgt>
<wgt id='1496'> +1.3004573e-12 </wgt>
<wgt id='1497'> +1.2968810e-12 </wgt>
<wgt id='1498'> +1.3036229e-12 </wgt>
<wgt id='1499'> +1.3028816e-12 </wgt>
<wgt id='1500'> +1.3066369e-12 </wgt>
<wgt id='1501'> +1.3033593e-12 </wgt>
<wgt id='1502'> +1.2954067e-12 </wgt>
<wgt id='1503'> +1.3050203e-12 </wgt>
<wgt id='1504'> +1.2968003e-12 </wgt>
<wgt id='1505'> +1.3082603e-12 </wgt>
<wgt id='1506'> +1.3013452e-12 </wgt>
<wgt id='1507'> +1.3022210e-12 </wgt>
<wgt id='1508'> +1.3031416e-12 </wgt>
<wgt id='1509'> +1.3560066e-12 </wgt>
<wgt id='1510'> +1.3620306e-12 </wgt>
<wgt id='1511'> +1.3326202e-12 </wgt>
<wgt id='1512'> +1.3491355e-12 </wgt>
<wgt id='1513'> +1.3668174e-12 </wgt>
<wgt id='1514'> +1.3537772e-12 </wgt>
<wgt id='1515'> +1.3537456e-12 </wgt>
<wgt id='1516'> +1.3543755e-12 </wgt>
<wgt id='1517'> +1.3576592e-12 </wgt>
<wgt id='1518'> +1.3614325e-12 </wgt>
<wgt id='1519'> +1.3606760e-12 </wgt>
<wgt id='1520'> +1.3578841e-12 </wgt>
<wgt id='1521'> +1.3605716e-12 </wgt>
<wgt id='1522'> +1.3566062e-12 </wgt>
<wgt id='1523'> +1.3586017e-12 </wgt>
<wgt id='1524'> +1.3501622e-12 </wgt>
<wgt id='1525'> +1.3542488e-12 </wgt>
<wgt id='1526'> +1.3541980e-12 </wgt>
<wgt id='1527'> +1.3577606e-12 </wgt>
<wgt id='1528'> +1.3649633e-12 </wgt>
<wgt id='1529'> +1.3605457e-12 </wgt>
<wgt id='1530'> +1.3621254e-12 </wgt>
<wgt id='1531'> +1.3579958e-12 </wgt>
<wgt id='1532'> +1.3534964e-12 </wgt>
<wgt id='1533'> +1.3563341e-12 </wgt>
<wgt id='1534'> +1.3576344e-12 </wgt>
<wgt id='1535'> +1.3533462e-12 </wgt>
<wgt id='1536'> +1.3614150e-12 </wgt>
<wgt id='1537'> +1.3585426e-12 </wgt>
<wgt id='1538'> +1.3417745e-12 </wgt>
<wgt id='1539'> +1.3529121e-12 </wgt>
<wgt id='1540'> +1.3532740e-12 </wgt>
<wgt id='1541'> +1.3517815e-12 </wgt>
<wgt id='1542'> +1.3526023e-12 </wgt>
<wgt id='1543'> +1.3576581e-12 </wgt>
<wgt id='1544'> +1.3542512e-12 </wgt>
<wgt id='1545'> +1.3542900e-12 </wgt>
<wgt id='1546'> +1.3571204e-12 </wgt>
<wgt id='1547'> +1.3544341e-12 </wgt>
<wgt id='1548'> +1.3567822e-12 </wgt>
<wgt id='1549'> +1.3557954e-12 </wgt>
<wgt id='1550'> +1.3546918e-12 </wgt>
<wgt id='1551'> +1.3564181e-12 </wgt>
<wgt id='1552'> +1.3580123e-12 </wgt>
<wgt id='1553'> +1.3559271e-12 </wgt>
<wgt id='1554'> +1.3554378e-12 </wgt>
<wgt id='1555'> +1.3569609e-12 </wgt>
<wgt id='1556'> +1.3573904e-12 </wgt>
<wgt id='1557'> +1.3575729e-12 </wgt>
<wgt id='1558'> +1.3565028e-12 </wgt>
<wgt id='1559'> +1.3567580e-12 </wgt>
<wgt id='1560'> +1.3587377e-12 </wgt>
<wgt id='1561'> +1.3570823e-12 </wgt>
<wgt id='1562'> +1.3570120e-12 </wgt>
<wgt id='1563'> +1.3576269e-12 </wgt>
<wgt id='1564'> +1.3553543e-12 </wgt>
<wgt id='1565'> +1.3548046e-12 </wgt>
<wgt id='1566'> +1.3552703e-12 </wgt>
<wgt id='1567'> +1.3534063e-12 </wgt>
<wgt id='1568'> +1.3565074e-12 </wgt>
<wgt id='1569'> +1.3567818e-12 </wgt>
<wgt id='1570'> +1.3565533e-12 </wgt>
<wgt id='1571'> +1.3557873e-12 </wgt>
<wgt id='1572'> +1.3550977e-12 </wgt>
<wgt id='1573'> +1.3531794e-12 </wgt>
<wgt id='1574'> +1.3558040e-12 </wgt>
<wgt id='1575'> +1.3572440e-12 </wgt>
<wgt id='1576'> +1.3578948e-12 </wgt>
<wgt id='1577'> +1.3585186e-12 </wgt>
<wgt id='1578'> +1.3556902e-12 </wgt>
<wgt id='1579'> +1.3561539e-12 </wgt>
<wgt id='1580'> +1.3561333e-12 </wgt>
<wgt id='1581'> +1.3559544e-12 </wgt>
<wgt id='1582'> +1.3542908e-12 </wgt>
<wgt id='1583'> +1.3561763e-12 </wgt>
<wgt id='1584'> +1.3545814e-12 </wgt>
<wgt id='1585'> +1.3553616e-12 </wgt>
<wgt id='1586'> +1.3572734e-12 </wgt>
<wgt id='1587'> +1.3564274e-12 </wgt>
<wgt id='1588'> +1.3573023e-12 </wgt>
<wgt id='1589'> +1.3554582e-12 </wgt>
<wgt id='1590'> +1.3573775e-12 </wgt>
<wgt id='1591'> +1.3571565e-12 </wgt>
<wgt id='1592'> +1.3570012e-12 </wgt>
<wgt id='1593'> +1.3554390e-12 </wgt>
<wgt id='1594'> +1.3561565e-12 </wgt>
<wgt id='1595'> +1.3552296e-12 </wgt>
<wgt id='1596'> +1.3557617e-12 </wgt>
<wgt id='1597'> +1.3561604e-12 </wgt>
<wgt id='1598'> +1.3560587e-12 </wgt>
<wgt id='1599'> +1.3554476e-12 </wgt>
<wgt id='1600'> +1.3561909e-12 </wgt>
<wgt id='1601'> +1.3563233e-12 </wgt>
<wgt id='1602'> +1.3554067e-12 </wgt>
<wgt id='1603'> +1.3554043e-12 </wgt>
<wgt id='1604'> +1.3555121e-12 </wgt>
<wgt id='1605'> +1.3549559e-12 </wgt>
<wgt id='1606'> +1.3559110e-12 </wgt>
<wgt id='1607'> +1.3553210e-12 </wgt>
<wgt id='1608'> +1.3559406e-12 </wgt>
<wgt id='1609'> +1.3551143e-12 </wgt>
<wgt id='1610'> +1.3138960e-12 </wgt>
<wgt id='1611'> +1.4006216e-12 </wgt>
<wgt id='1612'> +1.4921349e-12 </wgt>
<wgt id='1613'> +1.4617559e-12 </wgt>
<wgt id='1614'> +1.4521248e-12 </wgt>
<wgt id='1615'> +1.4447790e-12 </wgt>
<wgt id='1616'> +1.4822511e-12 </wgt>
<wgt id='1617'> +1.4490736e-12 </wgt>
<wgt id='1618'> +1.4949894e-12 </wgt>
<wgt id='1619'> +1.4592606e-12 </wgt>
<wgt id='1620'> +1.4481190e-12 </wgt>
<wgt id='1621'> +1.4985790e-12 </wgt>
<wgt id='1622'> +1.4778557e-12 </wgt>
<wgt id='1623'> +1.5877479e-12 </wgt>
<wgt id='1624'> +1.5642995e-12 </wgt>
<wgt id='1625'> +1.3525182e-12 </wgt>
<wgt id='1626'> +1.4667581e-12 </wgt>
<wgt id='1627'> +1.5478023e-12 </wgt>
<wgt id='1628'> +1.4070955e-12 </wgt>
<wgt id='1629'> +1.4946259e-12 </wgt>
<wgt id='1630'> +1.4486021e-12 </wgt>
<wgt id='1631'> +1.4428275e-12 </wgt>
<wgt id='1632'> +1.4278848e-12 </wgt>
<wgt id='1633'> +1.3854679e-12 </wgt>
<wgt id='1634'> +1.5144830e-12 </wgt>
<wgt id='1635'> +1.5057017e-12 </wgt>
<wgt id='1636'> +1.4663475e-12 </wgt>
<wgt id='1637'> +1.5331791e-12 </wgt>
<wgt id='1638'> +1.5160104e-12 </wgt>
<wgt id='1639'> +1.4600936e-12 </wgt>
<wgt id='1640'> +1.3987811e-12 </wgt>
<wgt id='1641'> +1.5119015e-12 </wgt>
<wgt id='1642'> +1.4196468e-12 </wgt>
<wgt id='1643'> +1.5031730e-12 </wgt>
<wgt id='1644'> +1.5126687e-12 </wgt>
<wgt id='1645'> +1.4426442e-12 </wgt>
<wgt id='1646'> +1.5042718e-12 </wgt>
<wgt id='1647'> +1.5635809e-12 </wgt>
<wgt id='1648'> +1.5136662e-12 </wgt>
<wgt id='1649'> +1.5852719e-12 </wgt>
<wgt id='1650'> +1.4381766e-12 </wgt>
<wgt id='1651'> +1.5460593e-12 </wgt>
<wgt id='1652'> +1.4995746e-12 </wgt>
<wgt id='1653'> +1.4994791e-12 </wgt>
<wgt id='1654'> +1.5080869e-12 </wgt>
<wgt id='1655'> +1.5450724e-12 </wgt>
<wgt id='1656'> +1.3678117e-12 </wgt>
<wgt id='1657'> +1.5264261e-12 </wgt>
<wgt id='1658'> +1.4384703e-12 </wgt>
<wgt id='1659'> +1.5642995e-12 </wgt>
<wgt id='1660'> +1.4951110e-12 </wgt>
<wgt id='1661'> +1.5586756e-12 </wgt>
<wgt id='1662'> +1.5699908e-12 </wgt>
<wgt id='1663'> +1.5046414e-12 </wgt>
<wgt id='1664'> +1.4400728e-12 </wgt>
<wgt id='1665'> +1.4786061e-12 </wgt>
<wgt id='1666'> +1.5464180e-12 </wgt>
<wgt id='1667'> +1.4784076e-12 </wgt>
<wgt id='1668'> +1.5439385e-12 </wgt>
<wgt id='1669'> +1.4762707e-12 </wgt>
<wgt id='1670'> +1.4720559e-12 </wgt>
<wgt id='1671'> +1.4286598e-12 </wgt>
<wgt id='1672'> +1.4845344e-12 </wgt>
<wgt id='1673'> +1.4863586e-12 </wgt>
<wgt id='1674'> +1.4792380e-12 </wgt>
<wgt id='1675'> +1.4805877e-12 </wgt>
<wgt id='1676'> +1.4412653e-12 </wgt>
<wgt id='1677'> +1.5274626e-12 </wgt>
<wgt id='1678'> +1.4853463e-12 </wgt>
<wgt id='1679'> +1.5140334e-12 </wgt>
<wgt id='1680'> +1.5615651e-12 </wgt>
<wgt id='1681'> +1.5135364e-12 </wgt>
<wgt id='1682'> +1.5003289e-12 </wgt>
<wgt id='1683'> +1.5166981e-12 </wgt>
<wgt id='1684'> +1.5785976e-12 </wgt>
<wgt id='1685'> +1.4590341e-12 </wgt>
<wgt id='1686'> +1.5040127e-12 </wgt>
<wgt id='1687'> +1.5477372e-12 </wgt>
<wgt id='1688'> +1.4767271e-12 </wgt>
<wgt id='1689'> +1.5319620e-12 </wgt>
<wgt id='1690'> +1.4977078e-12 </wgt>
<wgt id='1691'> +1.3799517e-12 </wgt>
<wgt id='1692'> +1.4220389e-12 </wgt>
<wgt id='1693'> +1.5738286e-12 </wgt>
<wgt id='1694'> +1.4253940e-12 </wgt>
<wgt id='1695'> +1.5491021e-12 </wgt>
<wgt id='1696'> +1.4950483e-12 </wgt>
<wgt id='1697'> +1.5057369e-12 </wgt>
<wgt id='1698'> +1.4856924e-12 </wgt>
<wgt id='1699'> +1.5044778e-12 </wgt>
<wgt id='1700'> +1.4597587e-12 </wgt>
<wgt id='1701'> +1.5472471e-12 </wgt>
<wgt id='1702'> +1.4619589e-12 </wgt>
<wgt id='1703'> +1.4631482e-12 </wgt>
<wgt id='1704'> +1.4224598e-12 </wgt>
<wgt id='1705'> +1.4185005e-12 </wgt>
<wgt id='1706'> +1.5551871e-12 </wgt>
<wgt id='1707'> +1.5511776e-12 </wgt>
<wgt id='1708'> +1.5610014e-12 </wgt>
<wgt id='1709'> +1.5451137e-12 </wgt>
<wgt id='1710'> +1.4955308e-12 </wgt>
<wgt id='1711'> +1.5531108e-12 </wgt>
<wgt id='1712'> +1.5663682e-12 </wgt>
<wgt id='1713'> +1.2926600e-12 </wgt>
<wgt id='1714'> +1.2881161e-12 </wgt>
<wgt id='1715'> +1.2541454e-12 </wgt>
<wgt id='1716'> +1.3311335e-12 </wgt>
<wgt id='1717'> +1.3280232e-12 </wgt>
<wgt id='1718'> +1.3662408e-12 </wgt>
<wgt id='1719'> +1.3295040e-12 </wgt>
<wgt id='1720'> +1.2428801e-12 </wgt>
<wgt id='1721'> +1.2615736e-12 </wgt>
<wgt id='1722'> +1.2916746e-12 </wgt>
<wgt id='1723'> +1.3438009e-12 </wgt>
<wgt id='1724'> +1.1481720e-12 </wgt>
<wgt id='1725'> +1.3248369e-12 </wgt>
<wgt id='1726'> +1.3145501e-12 </wgt>
<wgt id='1727'> +1.3449558e-12 </wgt>
<wgt id='1728'> +1.2880614e-12 </wgt>
<wgt id='1729'> +1.2148601e-12 </wgt>
<wgt id='1730'> +1.2603002e-12 </wgt>
<wgt id='1731'> +1.2177621e-12 </wgt>
<wgt id='1732'> +1.3084819e-12 </wgt>
<wgt id='1733'> +1.2578168e-12 </wgt>
<wgt id='1734'> +1.3585482e-12 </wgt>
<wgt id='1735'> +1.2458431e-12 </wgt>
<wgt id='1736'> +1.3184707e-12 </wgt>
<wgt id='1737'> +1.3663326e-12 </wgt>
<wgt id='1738'> +1.2773649e-12 </wgt>
<wgt id='1739'> +1.3177465e-12 </wgt>
<wgt id='1740'> +1.2188355e-12 </wgt>
<wgt id='1741'> +1.3610117e-12 </wgt>
<wgt id='1742'> +1.3106628e-12 </wgt>
<wgt id='1743'> +1.2662658e-12 </wgt>
<wgt id='1744'> +1.3433422e-12 </wgt>
<wgt id='1745'> +1.2626033e-12 </wgt>
<wgt id='1746'> +1.3242161e-12 </wgt>
<wgt id='1747'> +1.3510575e-12 </wgt>
<wgt id='1748'> +1.3022468e-12 </wgt>
<wgt id='1749'> +1.2874237e-12 </wgt>
<wgt id='1750'> +1.2517803e-12 </wgt>
<wgt id='1751'> +1.2370432e-12 </wgt>
<wgt id='1752'> +1.2969340e-12 </wgt>
<wgt id='1753'> +1.3129168e-12 </wgt>
<wgt id='1754'> +1.3208869e-12 </wgt>
<wgt id='1755'> +1.2926686e-12 </wgt>
<wgt id='1756'> +1.2974643e-12 </wgt>
<wgt id='1757'> +1.3138287e-12 </wgt>
<wgt id='1758'> +1.3530602e-12 </wgt>
<wgt id='1759'> +1.3173008e-12 </wgt>
<wgt id='1760'> +1.2758652e-12 </wgt>
<wgt id='1761'> +1.2920745e-12 </wgt>
<wgt id='1762'> +1.3291299e-12 </wgt>
<wgt id='1763'> +1.3207103e-12 </wgt>
<wgt id='1764'> +1.3478948e-12 </wgt>
<wgt id='1765'> +1.2674920e-12 </wgt>
<wgt id='1766'> +1.3487639e-12 </wgt>
<wgt id='1767'> +1.2708449e-12 </wgt>
<wgt id='1768'> +1.2980465e-12 </wgt>
<wgt id='1769'> +1.2768112e-12 </wgt>
<wgt id='1770'> +1.2903507e-12 </wgt>
<wgt id='1771'> +1.3501572e-12 </wgt>
<wgt id='1772'> +1.3062863e-12 </wgt>
<wgt id='1773'> +1.2922081e-12 </wgt>
<wgt id='1774'> +1.2837157e-12 </wgt>
<wgt id='1775'> +1.2899898e-12 </wgt>
<wgt id='1776'> +1.3626640e-12 </wgt>
<wgt id='1777'> +1.2183101e-12 </wgt>
<wgt id='1778'> +1.3221005e-12 </wgt>
<wgt id='1779'> +1.2701220e-12 </wgt>
<wgt id='1780'> +1.2460337e-12 </wgt>
<wgt id='1781'> +1.3294460e-12 </wgt>
<wgt id='1782'> +1.2795936e-12 </wgt>
<wgt id='1783'> +1.2796234e-12 </wgt>
<wgt id='1784'> +1.2658343e-12 </wgt>
<wgt id='1785'> +1.2851744e-12 </wgt>
<wgt id='1786'> +1.2617288e-12 </wgt>
<wgt id='1787'> +1.3932971e-12 </wgt>
<wgt id='1788'> +1.2827361e-12 </wgt>
<wgt id='1789'> +1.2552188e-12 </wgt>
<wgt id='1790'> +1.2618976e-12 </wgt>
<wgt id='1791'> +1.2552053e-12 </wgt>
<wgt id='1792'> +1.2636900e-12 </wgt>
<wgt id='1793'> +1.2789412e-12 </wgt>
<wgt id='1794'> +1.3201323e-12 </wgt>
<wgt id='1795'> +1.3540742e-12 </wgt>
<wgt id='1796'> +1.2467333e-12 </wgt>
<wgt id='1797'> +1.2975509e-12 </wgt>
<wgt id='1798'> +1.2811660e-12 </wgt>
<wgt id='1799'> +1.2683058e-12 </wgt>
<wgt id='1800'> +1.3048420e-12 </wgt>
<wgt id='1801'> +1.2884403e-12 </wgt>
<wgt id='1802'> +1.2225964e-12 </wgt>
<wgt id='1803'> +1.3243979e-12 </wgt>
<wgt id='1804'> +1.3105118e-12 </wgt>
<wgt id='1805'> +1.2650612e-12 </wgt>
<wgt id='1806'> +1.2654580e-12 </wgt>
<wgt id='1807'> +1.2510279e-12 </wgt>
<wgt id='1808'> +1.2673480e-12 </wgt>
<wgt id='1809'> +1.2660001e-12 </wgt>
<wgt id='1810'> +1.3043545e-12 </wgt>
<wgt id='1811'> +1.3358869e-12 </wgt>
<wgt id='1812'> +1.2909871e-12 </wgt>
<wgt id='1813'> +1.2314759e-12 </wgt>
<wgt id='1814'> +1.1885705e-12 </wgt>
<wgt id='1815'> +1.5414299e-12 </wgt>
<wgt id='1816'> +1.2926600e-12 </wgt>
<wgt id='1817'> +1.2881161e-12 </wgt>
<wgt id='1818'> +1.2541454e-12 </wgt>
<wgt id='1819'> +1.3311335e-12 </wgt>
<wgt id='1820'> +1.3280232e-12 </wgt>
<wgt id='1821'> +1.3662408e-12 </wgt>
<wgt id='1822'> +1.3295040e-12 </wgt>
<wgt id='1823'> +1.2428801e-12 </wgt>
<wgt id='1824'> +1.2615736e-12 </wgt>
<wgt id='1825'> +1.2916746e-12 </wgt>
<wgt id='1826'> +1.3438009e-12 </wgt>
<wgt id='1827'> +1.1481720e-12 </wgt>
<wgt id='1828'> +1.3248369e-12 </wgt>
<wgt id='1829'> +1.3145501e-12 </wgt>
<wgt id='1830'> +1.3449558e-12 </wgt>
<wgt id='1831'> +1.2880614e-12 </wgt>
<wgt id='1832'> +1.2148601e-12 </wgt>
<wgt id='1833'> +1.2603002e-12 </wgt>
<wgt id='1834'> +1.2177621e-12 </wgt>
<wgt id='1835'> +1.3084819e-12 </wgt>
<wgt id='1836'> +1.2578168e-12 </wgt>
<wgt id='1837'> +1.3585482e-12 </wgt>
<wgt id='1838'> +1.2458431e-12 </wgt>
<wgt id='1839'> +1.3184707e-12 </wgt>
<wgt id='1840'> +1.3663326e-12 </wgt>
<wgt id='1841'> +1.2773649e-12 </wgt>
<wgt id='1842'> +1.3177465e-12 </wgt>
<wgt id='1843'> +1.2188355e-12 </wgt>
<wgt id='1844'> +1.3610117e-12 </wgt>
<wgt id='1845'> +1.3106628e-12 </wgt>
<wgt id='1846'> +1.2662658e-12 </wgt>
<wgt id='1847'> +1.3433422e-12 </wgt>
<wgt id='1848'> +1.2626033e-12 </wgt>
<wgt id='1849'> +1.3242161e-12 </wgt>
<wgt id='1850'> +1.3510575e-12 </wgt>
<wgt id='1851'> +1.3022468e-12 </wgt>
<wgt id='1852'> +1.2874237e-12 </wgt>
<wgt id='1853'> +1.2517803e-12 </wgt>
<wgt id='1854'> +1.2370432e-12 </wgt>
<wgt id='1855'> +1.2969340e-12 </wgt>
<wgt id='1856'> +1.3129168e-12 </wgt>
<wgt id='1857'> +1.3208869e-12 </wgt>
<wgt id='1858'> +1.2926686e-12 </wgt>
<wgt id='1859'> +1.2974643e-12 </wgt>
<wgt id='1860'> +1.3138287e-12 </wgt>
<wgt id='1861'> +1.3530602e-12 </wgt>
<wgt id='1862'> +1.3173008e-12 </wgt>
<wgt id='1863'> +1.2758652e-12 </wgt>
<wgt id='1864'> +1.2920745e-12 </wgt>
<wgt id='1865'> +1.3291299e-12 </wgt>
<wgt id='1866'> +1.3207103e-12 </wgt>
<wgt id='1867'> +1.3478948e-12 </wgt>
<wgt id='1868'> +1.2674920e-12 </wgt>
<wgt id='1869'> +1.3487639e-12 </wgt>
<wgt id='1870'> +1.2708449e-12 </wgt>
<wgt id='1871'> +1.2980465e-12 </wgt>
<wgt id='1872'> +1.2768112e-12 </wgt>
<wgt id='1873'> +1.2903507e-12 </wgt>
<wgt id='1874'> +1.3501572e-12 </wgt>
<wgt id='1875'> +1.3062863e-12 </wgt>
<wgt id='1876'> +1.2922081e-12 </wgt>
<wgt id='1877'> +1.2837157e-12 </wgt>
<wgt id='1878'> +1.2899898e-12 </wgt>
<wgt id='1879'> +1.3626640e-12 </wgt>
<wgt id='1880'> +1.2183101e-12 </wgt>
<wgt id='1881'> +1.3221005e-12 </wgt>
<wgt id='1882'> +1.2701220e-12 </wgt>
<wgt id='1883'> +1.2460337e-12 </wgt>
<wgt id='1884'> +1.3294460e-12 </wgt>
<wgt id='1885'> +1.2795936e-12 </wgt>
<wgt id='1886'> +1.2796234e-12 </wgt>
<wgt id='1887'> +1.2658343e-12 </wgt>
<wgt id='1888'> +1.2851744e-12 </wgt>
<wgt id='1889'> +1.2617288e-12 </wgt>
<wgt id='1890'> +1.3932971e-12 </wgt>
<wgt id='1891'> +1.2827361e-12 </wgt>
<wgt id='1892'> +1.2552188e-12 </wgt>
<wgt id='1893'> +1.2618976e-12 </wgt>
<wgt id='1894'> +1.2552053e-12 </wgt>
<wgt id='1895'> +1.2636900e-12 </wgt>
<wgt id='1896'> +1.2789412e-12 </wgt>
<wgt id='1897'> +1.3201323e-12 </wgt>
<wgt id='1898'> +1.3540742e-12 </wgt>
<wgt id='1899'> +1.2467333e-12 </wgt>
<wgt id='1900'> +1.2975509e-12 </wgt>
<wgt id='1901'> +1.2811660e-12 </wgt>
<wgt id='1902'> +1.2683058e-12 </wgt>
<wgt id='1903'> +1.3048420e-12 </wgt>
<wgt id='1904'> +1.2884403e-12 </wgt>
<wgt id='1905'> +1.2225964e-12 </wgt>
<wgt id='1906'> +1.3243979e-12 </wgt>
<wgt id='1907'> +1.3105118e-12 </wgt>
<wgt id='1908'> +1.2650612e-12 </wgt>
<wgt id='1909'> +1.2654580e-12 </wgt>
<wgt id='1910'> +1.2510279e-12 </wgt>
<wgt id='1911'> +1.2673480e-12 </wgt>
<wgt id='1912'> +1.2660001e-12 </wgt>
<wgt id='1913'> +1.3043545e-12 </wgt>
<wgt id='1914'> +1.3358869e-12 </wgt>
<wgt id='1915'> +1.2909871e-12 </wgt>
<wgt id='1916'> +1.2314759e-12 </wgt>
<wgt id='1917'> +1.2773594e-12 </wgt>
<wgt id='1918'> +1.3200468e-12 </wgt>
<wgt id='1919'> +1.2917525e-12 </wgt>
</rwgt>
</event>
<event>
 9      1 +1.5607000e-12 3.50065800e+01 7.81860800e-03 1.40482100e-01
        3 -1    0    0  502    0 -0.0000000000e+00 +0.0000000000e+00 +7.0684614399e+00 7.0684614399e+00 0.0000000000e+00 0.0000e+00 1.0000e+00
       21 -1    0    0  501  502 +0.0000000000e+00 -0.0000000000e+00 -2.9522174422e+02 2.9522174422e+02 0.0000000000e+00 0.0000e+00 1.0000e+00
     1023  2    1    2    0    0 -3.1328417451e+01 +4.3590908912e+00 -4.4629369329e+01 5.6720729063e+01 1.4999636174e+01 0.0000e+00 0.0000e+00
  1000023  2    3    3    0    0 -2.1798774515e+01 +4.7678495712e+00 -3.6869865354e+01 4.3447030253e+01 5.5080401909e+00 0.0000e+00 0.0000e+00
        3  1    1    2  501    0 +3.1328417451e+01 -4.3590908912e+00 -2.4352391345e+02 2.4556947660e+02 0.0000000000e+00 0.0000e+00 1.0000e+00
  1000022  1    4    4    0    0 -2.1182822366e+01 +4.7842101148e+00 -3.5397506791e+01 4.1828030277e+01 5.0000000000e+00 0.0000e+00 -1.0000e+00
      -11  1    4    4    0    0 -3.3270701788e-01 -7.2534159948e-02 -5.0207044375e-01 6.0665489012e-01 5.1100000000e-04 0.0000e+00 1.0000e+00
       11  1    4    4    0    0 -2.8324513146e-01 +5.6173616385e-02 -9.7028811852e-01 1.0123450863e+00 5.1100000000e-04 0.0000e+00 -1.0000e+00
  1000022  1    3    3    0    0 -9.5296429363e+00 -4.0875868003e-01 -7.7595039752e+00 1.3273698810e+01 5.0000000000e+00 0.0000e+00 1.0000e+00
<mgrwt>
<rscale>  1 0.35006578E+02</rscale>
<asrwt>0</asrwt>
<pdfrwt beam="1">  1       21 0.45418743E-01 0.35006578E+02</pdfrwt>
<pdfrwt beam="2">  1        3 0.10874553E-02 0.35006578E+02</pdfrwt>
<totfact> 0.67352557E+05</totfact>
</mgrwt>
<rwgt>
<wgt id='1001'> +1.5607000e-12 </wgt>
<wgt id='1002'> +1.5151849e-12 </wgt>
<wgt id='1003'> +1.5140298e-12 </wgt>
<wgt id='1004'> +1.5648821e-12 </wgt>
<wgt id='1005'> +1.4842780e-12 </wgt>
<wgt id='1006'> +1.3712812e-12 </wgt>
<wgt id='1007'> +1.3500628e-12 </wgt>
<wgt id='1008'> +1.3494077e-12 </wgt>
<wgt id='1009'> +1.3724573e-12 </wgt>
<wgt id='1010'> +1.3314251e-12 </wgt>
<wgt id='1011'> +1.8137534e-12 </wgt>
<wgt id='1012'> +1.7282513e-12 </wgt>
<wgt id='1013'> +1.7263037e-12 </wgt>
<wgt id='1014'> +1.8231266e-12 </wgt>
<wgt id='1015'> +1.6783414e-12 </wgt>
<wgt id='1016'> +1.7163788e-12 </wgt>
<wgt id='1017'> +1.6295101e-12 </wgt>
<wgt id='1018'> +1.6275959e-12 </wgt>
<wgt id='1019'> +1.7263037e-12 </wgt>
<wgt id='1020'> +1.5806677e-12 </wgt>
<wgt id='1021'> +1.5080656e-12 </wgt>
<wgt id='1022'> +1.4519291e-12 </wgt>
<wgt id='1023'> +1.4506256e-12 </wgt>
<wgt id='1024'> +1.5140298e-12 </wgt>
<wgt id='1025'> +1.4178885e-12 </wgt>
<wgt id='1026'> +1.9946740e-12 </wgt>
<wgt id='1027'> +1.8586530e-12 </wgt>
<wgt id='1028'> +1.8557922e-12 </wgt>
<wgt id='1029'> +2.0111868e-12 </wgt>
<wgt id='1030'> +1.7873337e-12 </wgt>
<wgt id='1031'> +1.3663987e-12 </wgt>
<wgt id='1032'> +1.3726483e-12 </wgt>
<wgt id='1033'> +1.3724573e-12 </wgt>
<wgt id='1034'> +1.3634203e-12 </wgt>
<wgt id='1035'> +1.3641541e-12 </wgt>
<wgt id='1036'> +1.2005618e-12 </wgt>
<wgt id='1037'> +1.2230596e-12 </wgt>
<wgt id='1038'> +1.2232286e-12 </wgt>
<wgt id='1039'> +1.1957681e-12 </wgt>
<wgt id='1040'> +1.2236718e-12 </wgt>
<wgt id='1041'> +1.5879479e-12 </wgt>
<wgt id='1042'> +1.5656711e-12 </wgt>
<wgt id='1043'> +1.5648821e-12 </wgt>
<wgt id='1044'> +1.5884186e-12 </wgt>
<wgt id='1045'> +1.5425119e-12 </wgt>
<wgt id='1046'> +1.5607000e-12 </wgt>
<wgt id='1047'> +1.4852466e-12 </wgt>
<wgt id='1048'> +1.5879204e-12 </wgt>
<wgt id='1049'> +1.5693583e-12 </wgt>
<wgt id='1050'> +1.5732375e-12 </wgt>
<wgt id='1051'> +1.5506227e-12 </wgt>
<wgt id='1052'> +1.4739910e-12 </wgt>
<wgt id='1053'> +1.5682190e-12 </wgt>
<wgt id='1054'> +1.6285193e-12 </wgt>
<wgt id='1055'> +1.5866769e-12 </wgt>
<wgt id='1056'> +1.4871985e-12 </wgt>
<wgt id='1057'> +1.5503406e-12 </wgt>
<wgt id='1058'> +1.6257124e-12 </wgt>
<wgt id='1059'> +1.6151335e-12 </wgt>
<wgt id='1060'> +1.5114118e-12 </wgt>
<wgt id='1061'> +1.6043433e-12 </wgt>
<wgt id='1062'> +1.6069456e-12 </wgt>
<wgt id='1063'> +1.3153322e-12 </wgt>
<wgt id='1064'> +1.6454765e-12 </wgt>
<wgt id='1065'> +1.5879254e-12 </wgt>
<wgt id='1066'> +1.6199382e-12 </wgt>
<wgt id='1067'> +1.5603741e-12 </wgt>
<wgt id='1068'> +1.5667297e-12 </wgt>
<wgt id='1069'> +1.5332937e-12 </wgt>
<wgt id='1070'> +1.6186594e-12 </wgt>
<wgt id='1071'> +1.5915365e-12 </wgt>
<wgt id='1072'> +1.5405455e-12 </wgt>
<wgt id='1073'> +1.2559814e-12 </wgt>
<wgt id='1074'> +1.6304874e-12 </wgt>
<wgt id='1075'> +1.4738675e-12 </wgt>
<wgt id='1076'> +1.3882686e-12 </wgt>
<wgt id='1077'> +1.4656253e-12 </wgt>
<wgt id='1078'> +1.6228513e-12 </wgt>
<wgt id='1079'> +1.5379170e-12 </wgt>
<wgt id='1080'> +1.6232860e-12 </wgt>
<wgt id='1081'> +1.4864607e-12 </wgt>
<wgt id='1082'> +1.5855011e-12 </wgt>
<wgt id='1083'> +1.6973959e-12 </wgt>
<wgt id='1084'> +1.4607203e-12 </wgt>
<wgt id='1085'> +1.6334566e-12 </wgt>
<wgt id='1086'> +1.5829363e-12 </wgt>
<wgt id='1087'> +1.5520840e-12 </wgt>
<wgt id='1088'> +1.6009065e-12 </wgt>
<wgt id='1089'> +1.4726638e-12 </wgt>
<wgt id='1090'> +1.4783977e-12 </wgt>
<wgt id='1091'> +1.7356325e-12 </wgt>
<wgt id='1092'> +1.5482967e-12 </wgt>
<wgt id='1093'> +1.5721511e-12 </wgt>
<wgt id='1094'> +1.5974173e-12 </wgt>
<wgt id='1095'> +1.4911756e-12 </wgt>
<wgt id='1096'> +1.5107848e-12 </wgt>
<wgt id='1097'> +1.6118889e-12 </wgt>
<wgt id='1098'> +1.5653797e-12 </wgt>
<wgt id='1099'> +1.4057975e-12 </wgt>
<wgt id='1100'> +1.5813146e-12 </wgt>
<wgt id='1101'> +1.5937390e-12 </wgt>
<wgt id='1102'> +1.6186438e-12 </wgt>
<wgt id='1103'> +1.5943392e-12 </wgt>
<wgt id='1104'> +1.5923071e-12 </wgt>
<wgt id='1105'> +1.3802629e-12 </wgt>
<wgt id='1106'> +1.5357530e-12 </wgt>
<wgt id='1107'> +1.5406566e-12 </wgt>
<wgt id='1108'> +1.6158536e-12 </wgt>
<wgt id='1109'> +1.4164877e-12 </wgt>
<wgt id='1110'> +1.5948693e-12 </wgt>
<wgt id='1111'> +1.5596762e-12 </wgt>
<wgt id='1112'> +1.5920089e-12 </wgt>
<wgt id='1113'> +1.7207646e-12 </wgt>
<wgt id='1114'> +1.4546933e-12 </wgt>
<wgt id='1115'> +1.5577016e-12 </wgt>
<wgt id='1116'> +1.5591105e-12 </wgt>
<wgt id='1117'> +1.4640999e-12 </wgt>
<wgt id='1118'> +1.6529482e-12 </wgt>
<wgt id='1119'> +1.6183976e-12 </wgt>
<wgt id='1120'> +1.6210004e-12 </wgt>
<wgt id='1121'> +1.5973292e-12 </wgt>
<wgt id='1122'> +1.4731098e-12 </wgt>
<wgt id='1123'> +1.5833770e-12 </wgt>
<wgt id='1124'> +1.5818040e-12 </wgt>
<wgt id='1125'> +1.5426355e-12 </wgt>
<wgt id='1126'> +1.4037481e-12 </wgt>
<wgt id='1127'> +1.5609490e-12 </wgt>
<wgt id='1128'> +1.6069456e-12 </wgt>
<wgt id='1129'> +1.5511084e-12 </wgt>
<wgt id='1130'> +1.6185294e-12 </wgt>
<wgt id='1131'> +1.6366540e-12 </wgt>
<wgt id='1132'> +1.5593816e-12 </wgt>
<wgt id='1133'> +1.6806355e-12 </wgt>
<wgt id='1134'> +1.4176745e-12 </wgt>
<wgt id='1135'> +1.6590931e-12 </wgt>
<wgt id='1136'> +1.6098909e-12 </wgt>
<wgt id='1137'> +1.6249695e-12 </wgt>
<wgt id='1138'> +1.6401823e-12 </wgt>
<wgt id='1139'> +1.5923525e-12 </wgt>
<wgt id='1140'> +1.5198730e-12 </wgt>
<wgt id='1141'> +1.7781258e-12 </wgt>
<wgt id='1142'> +1.5969017e-12 </wgt>
<wgt id='1143'> +1.4618148e-12 </wgt>
<wgt id='1144'> +1.4697549e-12 </wgt>
<wgt id='1145'> +1.6151369e-12 </wgt>
<wgt id='1146'> +1.6142159e-12 </wgt>
<wgt id='1147'> +1.2495049e-12 </wgt>
<wgt id='1148'> +1.2727920e-12 </wgt>
<wgt id='1149'> +1.2488394e-12 </wgt>
<wgt id='1150'> +1.2074087e-12 </wgt>
<wgt id='1151'> +9.7987804e-13 </wgt>
<wgt id='1152'> +1.3123099e-12 </wgt>
<wgt id='1153'> +1.3081561e-12 </wgt>
<wgt id='1154'> +1.3145847e-12 </wgt>
<wgt id='1155'> +1.3133621e-12 </wgt>
<wgt id='1156'> +1.3116459e-12 </wgt>
<wgt id='1157'> +1.3054245e-12 </wgt>
<wgt id='1158'> +1.3214285e-12 </wgt>
<wgt id='1159'> +1.3050262e-12 </wgt>
<wgt id='1160'> +1.3168377e-12 </wgt>
<wgt id='1161'> +1.3024140e-12 </wgt>
<wgt id='1162'> +1.3190497e-12 </wgt>
<wgt id='1163'> +1.3053361e-12 </wgt>
<wgt id='1164'> +1.3191373e-12 </wgt>
<wgt id='1165'> +1.3016899e-12 </wgt>
<wgt id='1166'> +1.3225108e-12 </wgt>
<wgt id='1167'> +1.3243011e-12 </wgt>
<wgt id='1168'> +1.2958533e-12 </wgt>
<wgt id='1169'> +1.3146033e-12 </wgt>
<wgt id='1170'> +1.3104410e-12 </wgt>
<wgt id='1171'> +1.3097291e-12 </wgt>
<wgt id='1172'> +1.3153554e-12 </wgt>
<wgt id='1173'> +1.3090698e-12 </wgt>
<wgt id='1174'> +1.3148182e-12 </wgt>
<wgt id='1175'> +1.3091791e-12 </wgt>
<wgt id='1176'> +1.3139952e-12 </wgt>
<wgt id='1177'> +1.3128756e-12 </wgt>
<wgt id='1178'> +1.3107565e-12 </wgt>
<wgt id='1179'> +1.3230638e-12 </wgt>
<wgt id='1180'> +1.2976687e-12 </wgt>
<wgt id='1181'> +1.3093999e-12 </wgt>
<wgt id='1182'> +1.3150871e-12 </wgt>
<wgt id='1183'> +1.3127970e-12 </wgt>
<wgt id='1184'> +1.3122076e-12 </wgt>
<wgt id='1185'> +1.3469186e-12 </wgt>
<wgt id='1186'> +1.2950639e-12 </wgt>
<wgt id='1187'> +1.3170189e-12 </wgt>
<wgt id='1188'> +1.3109417e-12 </wgt>
<wgt id='1189'> +1.3112508e-12 </wgt>
<wgt id='1190'> +1.2953342e-12 </wgt>
<wgt id='1191'> +1.3081343e-12 </wgt>
<wgt id='1192'> +1.3155529e-12 </wgt>
<wgt id='1193'> +1.2031094e-12 </wgt>
<wgt id='1194'> +1.1987834e-12 </wgt>
<wgt id='1195'> +1.2065618e-12 </wgt>
<wgt id='1196'> +1.2006665e-12 </wgt>
<wgt id='1197'> +1.2058058e-12 </wgt>
<wgt id='1198'> +1.2092342e-12 </wgt>
<wgt id='1199'> +1.1939777e-12 </wgt>
<wgt id='1200'> +1.2013849e-12 </wgt>
<wgt id='1201'> +1.2042153e-12 </wgt>
<wgt id='1202'> +1.2012621e-12 </wgt>
<wgt id='1203'> +1.2056969e-12 </wgt>
<wgt id='1204'> +1.1900929e-12 </wgt>
<wgt id='1205'> +1.2110752e-12 </wgt>
<wgt id='1206'> +1.2077539e-12 </wgt>
<wgt id='1207'> +1.1967641e-12 </wgt>
<wgt id='1208'> +1.1975046e-12 </wgt>
<wgt id='1209'> +1.2051665e-12 </wgt>
<wgt id='1210'> +1.1976492e-12 </wgt>
<wgt id='1211'> +1.2013035e-12 </wgt>
<wgt id='1212'> +1.2018902e-12 </wgt>
<wgt id='1213'> +1.2042864e-12 </wgt>
<wgt id='1214'> +1.1937931e-12 </wgt>
<wgt id='1215'> +1.2163932e-12 </wgt>
<wgt id='1216'> +1.2075961e-12 </wgt>
<wgt id='1217'> +1.1997608e-12 </wgt>
<wgt id='1218'> +1.2080311e-12 </wgt>
<wgt id='1219'> +1.2003929e-12 </wgt>
<wgt id='1220'> +1.2078143e-12 </wgt>
<wgt id='1221'> +1.2023971e-12 </wgt>
<wgt id='1222'> +1.2060735e-12 </wgt>
<wgt id='1223'> +1.2013665e-12 </wgt>
<wgt id='1224'> +1.1980441e-12 </wgt>
<wgt id='1225'> +1.2051407e-12 </wgt>
<wgt id='1226'> +1.2140538e-12 </wgt>
<wgt id='1227'> +1.1962405e-12 </wgt>
<wgt id='1228'> +1.1996224e-12 </wgt>
<wgt id='1229'> +1.2047016e-12 </wgt>
<wgt id='1230'> +1.2127464e-12 </wgt>
<wgt id='1231'> +1.1914387e-12 </wgt>
<wgt id='1232'> +1.2008226e-12 </wgt>
<wgt id='1233'> +1.2040682e-12 </wgt>
<wgt id='1234'> +1.2031094e-12 </wgt>
<wgt id='1235'> +1.1961286e-12 </wgt>
<wgt id='1236'> +1.1987716e-12 </wgt>
<wgt id='1237'> +1.2011235e-12 </wgt>
<wgt id='1238'> +1.2052243e-12 </wgt>
<wgt id='1239'> +1.2068105e-12 </wgt>
<wgt id='1240'> +1.2084539e-12 </wgt>
<wgt id='1241'> +1.2488551e-12 </wgt>
<wgt id='1242'> +1.2424766e-12 </wgt>
<wgt id='1243'> +1.2551533e-12 </wgt>
<wgt id='1244'> +1.2452406e-12 </wgt>
<wgt id='1245'> +1.2516191e-12 </wgt>
<wgt id='1246'> +1.2507553e-12 </wgt>
<wgt id='1247'> +1.2473719e-12 </wgt>
<wgt id='1248'> +1.2493551e-12 </wgt>
<wgt id='1249'> +1.2480747e-12 </wgt>
<wgt id='1250'> +1.2386187e-12 </wgt>
<wgt id='1251'> +1.2562063e-12 </wgt>
<wgt id='1252'> +1.2443461e-12 </wgt>
<wgt id='1253'> +1.2524593e-12 </wgt>
<wgt id='1254'> +1.2390606e-12 </wgt>
<wgt id='1255'> +1.2547560e-12 </wgt>
<wgt id='1256'> +1.2527383e-12 </wgt>
<wgt id='1257'> +1.2393490e-12 </wgt>
<wgt id='1258'> +1.2591215e-12 </wgt>
<wgt id='1259'> +1.2385160e-12 </wgt>
<wgt id='1260'> +1.2530441e-12 </wgt>
<wgt id='1261'> +1.2441614e-12 </wgt>
<wgt id='1262'> +1.2509092e-12 </wgt>
<wgt id='1263'> +1.2479244e-12 </wgt>
<wgt id='1264'> +1.2568150e-12 </wgt>
<wgt id='1265'> +1.2451703e-12 </wgt>
<wgt id='1266'> +1.2476845e-12 </wgt>
<wgt id='1267'> +1.2511968e-12 </wgt>
<wgt id='1268'> +1.2485822e-12 </wgt>
<wgt id='1269'> +1.2530647e-12 </wgt>
<wgt id='1270'> +1.2489000e-12 </wgt>
<wgt id='1271'> +1.2442866e-12 </wgt>
<wgt id='1272'> +1.2513566e-12 </wgt>
<wgt id='1273'> +1.2479687e-12 </wgt>
<wgt id='1274'> +1.2416052e-12 </wgt>
<wgt id='1275'> +1.2600842e-12 </wgt>
<wgt id='1276'> +1.2506524e-12 </wgt>
<wgt id='1277'> +1.2463925e-12 </wgt>
<wgt id='1278'> +1.2451425e-12 </wgt>
<wgt id='1279'> +1.2520255e-12 </wgt>
<wgt id='1280'> +1.2507051e-12 </wgt>
<wgt id='1281'> +1.2423701e-12 </wgt>
<wgt id='1282'> +1.2488551e-12 </wgt>
<wgt id='1283'> +1.2403174e-12 </wgt>
<wgt id='1284'> +1.2437839e-12 </wgt>
<wgt id='1285'> +1.2466010e-12 </wgt>
<wgt id='1286'> +1.2514263e-12 </wgt>
<wgt id='1287'> +1.2534110e-12 </wgt>
<wgt id='1288'> +1.2550025e-12 </wgt>
<wgt id='1289'> +1.3029289e-12 </wgt>
<wgt id='1290'> +1.3059068e-12 </wgt>
<wgt id='1291'> +1.2997317e-12 </wgt>
<wgt id='1292'> +1.3050139e-12 </wgt>
<wgt id='1293'> +1.3014466e-12 </wgt>
<wgt id='1294'> +1.3009793e-12 </wgt>
<wgt id='1295'> +1.3046520e-12 </wgt>
<wgt id='1296'> +1.2971072e-12 </wgt>
<wgt id='1297'> +1.3100597e-12 </wgt>
<wgt id='1298'> +1.3073683e-12 </wgt>
<wgt id='1299'> +1.2974090e-12 </wgt>
<wgt id='1300'> +1.3038336e-12 </wgt>
<wgt id='1301'> +1.3011389e-12 </wgt>
<wgt id='1302'> +1.2994116e-12 </wgt>
<wgt id='1303'> +1.3077786e-12 </wgt>
<wgt id='1304'> +1.2949322e-12 </wgt>
<wgt id='1305'> +1.3084440e-12 </wgt>
<wgt id='1306'> +1.2841065e-12 </wgt>
<wgt id='1307'> +1.3238942e-12 </wgt>
<wgt id='1308'> +1.2356999e-12 </wgt>
<wgt id='1309'> +1.3542853e-12 </wgt>
<wgt id='1310'> +1.3017969e-12 </wgt>
<wgt id='1311'> +1.3042712e-12 </wgt>
<wgt id='1312'> +1.2969200e-12 </wgt>
<wgt id='1313'> +1.3091670e-12 </wgt>
<wgt id='1314'> +1.2967998e-12 </wgt>
<wgt id='1315'> +1.3037216e-12 </wgt>
<wgt id='1316'> +1.3032835e-12 </wgt>
<wgt id='1317'> +1.3080302e-12 </wgt>
<wgt id='1318'> +1.3141563e-12 </wgt>
<wgt id='1319'> +1.2895112e-12 </wgt>
<wgt id='1320'> +1.3123508e-12 </wgt>
<wgt id='1321'> +1.2944725e-12 </wgt>
<wgt id='1322'> +1.3093212e-12 </wgt>
<wgt id='1323'> +1.2943031e-12 </wgt>
<wgt id='1324'> +1.3059050e-12 </wgt>
<wgt id='1325'> +1.3002102e-12 </wgt>
<wgt id='1326'> +1.3139386e-12 </wgt>
<wgt id='1327'> +1.2962781e-12 </wgt>
<wgt id='1328'> +1.2963140e-12 </wgt>
<wgt id='1329'> +1.3092142e-12 </wgt>
<wgt id='1330'> +1.4038235e-12 </wgt>
<wgt id='1331'> +1.2190583e-12 </wgt>
<wgt id='1332'> +1.2570035e-12 </wgt>
<wgt id='1333'> +1.3568754e-12 </wgt>
<wgt id='1334'> +1.3211605e-12 </wgt>
<wgt id='1335'> +1.2593299e-12 </wgt>
<wgt id='1336'> +1.3007730e-12 </wgt>
<wgt id='1337'> +1.3061724e-12 </wgt>
<wgt id='1338'> +1.2989271e-12 </wgt>
<wgt id='1339'> +1.3049783e-12 </wgt>
<wgt id='1340'> +1.2779019e-12 </wgt>
<wgt id='1341'> +1.2809603e-12 </wgt>
<wgt id='1342'> +1.2746492e-12 </wgt>
<wgt id='1343'> +1.2802911e-12 </wgt>
<wgt id='1344'> +1.2763978e-12 </wgt>
<wgt id='1345'> +1.2758985e-12 </wgt>
<wgt id='1346'> +1.2796897e-12 </wgt>
<wgt id='1347'> +1.2722627e-12 </wgt>
<wgt id='1348'> +1.2842689e-12 </wgt>
<wgt id='1349'> +1.2825836e-12 </wgt>
<wgt id='1350'> +1.2734066e-12 </wgt>
<wgt id='1351'> +1.2783871e-12 </wgt>
<wgt id='1352'> +1.2771350e-12 </wgt>
<wgt id='1353'> +1.2727041e-12 </wgt>
<wgt id='1354'> +1.2871274e-12 </wgt>
<wgt id='1355'> +1.2694266e-12 </wgt>
<wgt id='1356'> +1.2828030e-12 </wgt>
<wgt id='1357'> +1.2392305e-12 </wgt>
<wgt id='1358'> +1.3231968e-12 </wgt>
<wgt id='1359'> +1.2156410e-12 </wgt>
<wgt id='1360'> +1.3319279e-12 </wgt>
<wgt id='1361'> +1.2764441e-12 </wgt>
<wgt id='1362'> +1.2801539e-12 </wgt>
<wgt id='1363'> +1.2710337e-12 </wgt>
<wgt id='1364'> +1.2831200e-12 </wgt>
<wgt id='1365'> +1.2789694e-12 </wgt>
<wgt id='1366'> +1.2694198e-12 </wgt>
<wgt id='1367'> +1.2793309e-12 </wgt>
<wgt id='1368'> +1.2810124e-12 </wgt>
<wgt id='1369'> +1.2858251e-12 </wgt>
<wgt id='1370'> +1.2685287e-12 </wgt>
<wgt id='1371'> +1.2885694e-12 </wgt>
<wgt id='1372'> +1.2652841e-12 </wgt>
<wgt id='1373'> +1.2845900e-12 </wgt>
<wgt id='1374'> +1.2711418e-12 </wgt>
<wgt id='1375'> +1.2800032e-12 </wgt>
<wgt id='1376'> +1.2766468e-12 </wgt>
<wgt id='1377'> +1.2873358e-12 </wgt>
<wgt id='1378'> +1.2732486e-12 </wgt>
<wgt id='1379'> +1.2729644e-12 </wgt>
<wgt id='1380'> +1.2834714e-12 </wgt>
<wgt id='1381'> +1.3861865e-12 </wgt>
<wgt id='1382'> +1.1938789e-12 </wgt>
<wgt id='1383'> +1.2217579e-12 </wgt>
<wgt id='1384'> +1.3454418e-12 </wgt>
<wgt id='1385'> +1.2980144e-12 </wgt>
<wgt id='1386'> +1.2319959e-12 </wgt>
<wgt id='1387'> +1.2733194e-12 </wgt>
<wgt id='1388'> +1.2848867e-12 </wgt>
<wgt id='1389'> +1.2737615e-12 </wgt>
<wgt id='1390'> +1.2801468e-12 </wgt>
<wgt id='1391'> +1.2563301e-12 </wgt>
<wgt id='1392'> +1.2166137e-12 </wgt>
<wgt id='1393'> +1.2332575e-12 </wgt>
<wgt id='1394'> +1.2473446e-12 </wgt>
<wgt id='1395'> +1.2787349e-12 </wgt>
<wgt id='1396'> +1.2615773e-12 </wgt>
<wgt id='1397'> +1.2211604e-12 </wgt>
<wgt id='1398'> +1.2278130e-12 </wgt>
<wgt id='1399'> +1.2337150e-12 </wgt>
<wgt id='1400'> +1.2424151e-12 </wgt>
<wgt id='1401'> +1.2513655e-12 </wgt>
<wgt id='1402'> +1.2756012e-12 </wgt>
<wgt id='1403'> +1.2874476e-12 </wgt>
<wgt id='1404'> +1.3005323e-12 </wgt>
<wgt id='1405'> +1.2615773e-12 </wgt>
<wgt id='1406'> +1.2513865e-12 </wgt>
<wgt id='1407'> +1.2564480e-12 </wgt>
<wgt id='1408'> +1.2658283e-12 </wgt>
<wgt id='1409'> +1.2728508e-12 </wgt>
<wgt id='1410'> +1.3084827e-12 </wgt>
<wgt id='1411'> +1.3112128e-12 </wgt>
<wgt id='1412'> +1.3049964e-12 </wgt>
<wgt id='1413'> +1.3108206e-12 </wgt>
<wgt id='1414'> +1.3061699e-12 </wgt>
<wgt id='1415'> +1.3119853e-12 </wgt>
<wgt id='1416'> +1.3071107e-12 </wgt>
<wgt id='1417'> +1.2986559e-12 </wgt>
<wgt id='1418'> +1.3183340e-12 </wgt>
<wgt id='1419'> +1.3104242e-12 </wgt>
<wgt id='1420'> +1.3065342e-12 </wgt>
<wgt id='1421'> +1.3032742e-12 </wgt>
<wgt id='1422'> +1.3109792e-12 </wgt>
<wgt id='1423'> +1.3093922e-12 </wgt>
<wgt id='1424'> +1.3073781e-12 </wgt>
<wgt id='1425'> +1.2991794e-12 </wgt>
<wgt id='1426'> +1.3183848e-12 </wgt>
<wgt id='1427'> +1.2459804e-12 </wgt>
<wgt id='1428'> +1.3427907e-12 </wgt>
<wgt id='1429'> +1.3397881e-12 </wgt>
<wgt id='1430'> +1.2670142e-12 </wgt>
<wgt id='1431'> +1.2664694e-12 </wgt>
<wgt id='1432'> +1.3379672e-12 </wgt>
<wgt id='1433'> +1.3194132e-12 </wgt>
<wgt id='1434'> +1.2963208e-12 </wgt>
<wgt id='1435'> +1.3120475e-12 </wgt>
<wgt id='1436'> +1.2998368e-12 </wgt>
<wgt id='1437'> +1.3123573e-12 </wgt>
<wgt id='1438'> +1.3099597e-12 </wgt>
<wgt id='1439'> +1.3025065e-12 </wgt>
<wgt id='1440'> +1.3219261e-12 </wgt>
<wgt id='1441'> +1.3115104e-12 </wgt>
<wgt id='1442'> +1.3027099e-12 </wgt>
<wgt id='1443'> +1.3055413e-12 </wgt>
<wgt id='1444'> +1.3156004e-12 </wgt>
<wgt id='1445'> +1.3043184e-12 </wgt>
<wgt id='1446'> +1.3117440e-12 </wgt>
<wgt id='1447'> +1.3096828e-12 </wgt>
<wgt id='1448'> +1.3091878e-12 </wgt>
<wgt id='1449'> +1.3020677e-12 </wgt>
<wgt id='1450'> +1.3130871e-12 </wgt>
<wgt id='1451'> +1.2489930e-12 </wgt>
<wgt id='1452'> +1.4250263e-12 </wgt>
<wgt id='1453'> +1.3022340e-12 </wgt>
<wgt id='1454'> +1.3463795e-12 </wgt>
<wgt id='1455'> +1.3538401e-12 </wgt>
<wgt id='1456'> +1.2755982e-12 </wgt>
<wgt id='1457'> +1.2797534e-12 </wgt>
<wgt id='1458'> +1.3207598e-12 </wgt>
<wgt id='1459'> +1.2842585e-12 </wgt>
<wgt id='1460'> +1.3301725e-12 </wgt>
<wgt id='1461'> +1.3084827e-12 </wgt>
<wgt id='1462'> +1.2862278e-12 </wgt>
<wgt id='1463'> +1.3091336e-12 </wgt>
<wgt id='1464'> +1.2973240e-12 </wgt>
<wgt id='1465'> +1.2531891e-12 </wgt>
<wgt id='1466'> +1.2597142e-12 </wgt>
<wgt id='1467'> +1.2677744e-12 </wgt>
<wgt id='1468'> +1.2786984e-12 </wgt>
<wgt id='1469'> +1.2877080e-12 </wgt>
<wgt id='1470'> +1.3070893e-12 </wgt>
<wgt id='1471'> +1.3183432e-12 </wgt>
<wgt id='1472'> +1.3294606e-12 </wgt>
<wgt id='1473'> +1.2973240e-12 </wgt>
<wgt id='1474'> +1.2874592e-12 </wgt>
<wgt id='1475'> +1.2937720e-12 </wgt>
<wgt id='1476'> +1.3017109e-12 </wgt>
<wgt id='1477'> +1.3050563e-12 </wgt>
<wgt id='1478'> +1.2260492e-12 </wgt>
<wgt id='1479'> +1.2275451e-12 </wgt>
<wgt id='1480'> +1.1789590e-12 </wgt>
<wgt id='1481'> +1.2135930e-12 </wgt>
<wgt id='1482'> +1.2355787e-12 </wgt>
<wgt id='1483'> +1.2647163e-12 </wgt>
<wgt id='1484'> +1.2169238e-12 </wgt>
<wgt id='1485'> +1.2505775e-12 </wgt>
<wgt id='1486'> +1.2211068e-12 </wgt>
<wgt id='1487'> +1.2316557e-12 </wgt>
<wgt id='1488'> +1.2252040e-12 </wgt>
<wgt id='1489'> +1.2134578e-12 </wgt>
<wgt id='1490'> +1.2257019e-12 </wgt>
<wgt id='1491'> +1.2450815e-12 </wgt>
<wgt id='1492'> +1.2200907e-12 </wgt>
<wgt id='1493'> +1.2351052e-12 </wgt>
<wgt id='1494'> +1.1420803e-12 </wgt>
<wgt id='1495'> +1.2321279e-12 </wgt>
<wgt id='1496'> +1.2316864e-12 </wgt>
<wgt id='1497'> +1.2357113e-12 </wgt>
<wgt id='1498'> +1.2280725e-12 </wgt>
<wgt id='1499'> +1.2284786e-12 </wgt>
<wgt id='1500'> +1.2216603e-12 </wgt>
<wgt id='1501'> +1.2288476e-12 </wgt>
<wgt id='1502'> +1.2330198e-12 </wgt>
<wgt id='1503'> +1.2226126e-12 </wgt>
<wgt id='1504'> +1.2298293e-12 </wgt>
<wgt id='1505'> +1.2285860e-12 </wgt>
<wgt id='1506'> +1.2312727e-12 </wgt>
<wgt id='1507'> +1.2229720e-12 </wgt>
<wgt id='1508'> +1.2344773e-12 </wgt>
<wgt id='1509'> +1.3141106e-12 </wgt>
<wgt id='1510'> +1.3196390e-12 </wgt>
<wgt id='1511'> +1.3061978e-12 </wgt>
<wgt id='1512'> +1.3122764e-12 </wgt>
<wgt id='1513'> +1.2634158e-12 </wgt>
<wgt id='1514'> +1.3227401e-12 </wgt>
<wgt id='1515'> +1.3381340e-12 </wgt>
<wgt id='1516'> +1.3143983e-12 </wgt>
<wgt id='1517'> +1.3307070e-12 </wgt>
<wgt id='1518'> +1.2835845e-12 </wgt>
<wgt id='1519'> +1.3417706e-12 </wgt>
<wgt id='1520'> +1.3241235e-12 </wgt>
<wgt id='1521'> +1.2968168e-12 </wgt>
<wgt id='1522'> +1.3112270e-12 </wgt>
<wgt id='1523'> +1.3010939e-12 </wgt>
<wgt id='1524'> +1.3093509e-12 </wgt>
<wgt id='1525'> +1.3062338e-12 </wgt>
<wgt id='1526'> +1.3184737e-12 </wgt>
<wgt id='1527'> +1.3212648e-12 </wgt>
<wgt id='1528'> +1.3162084e-12 </wgt>
<wgt id='1529'> +1.3241479e-12 </wgt>
<wgt id='1530'> +1.3113223e-12 </wgt>
<wgt id='1531'> +1.3214927e-12 </wgt>
<wgt id='1532'> +1.3132379e-12 </wgt>
<wgt id='1533'> +1.3169398e-12 </wgt>
<wgt id='1534'> +1.3222680e-12 </wgt>
<wgt id='1535'> +1.3146307e-12 </wgt>
<wgt id='1536'> +1.3148534e-12 </wgt>
<wgt id='1537'> +1.3095141e-12 </wgt>
<wgt id='1538'> +1.3161553e-12 </wgt>
<wgt id='1539'> +1.3150123e-12 </wgt>
<wgt id='1540'> +1.3178833e-12 </wgt>
<wgt id='1541'> +1.3141608e-12 </wgt>
<wgt id='1542'> +1.3152849e-12 </wgt>
<wgt id='1543'> +1.3172936e-12 </wgt>
<wgt id='1544'> +1.3126666e-12 </wgt>
<wgt id='1545'> +1.3139462e-12 </wgt>
<wgt id='1546'> +1.3166812e-12 </wgt>
<wgt id='1547'> +1.3135232e-12 </wgt>
<wgt id='1548'> +1.3147494e-12 </wgt>
<wgt id='1549'> +1.3159168e-12 </wgt>
<wgt id='1550'> +1.3161721e-12 </wgt>
<wgt id='1551'> +1.3122307e-12 </wgt>
<wgt id='1552'> +1.3132620e-12 </wgt>
<wgt id='1553'> +1.3157552e-12 </wgt>
<wgt id='1554'> +1.3142826e-12 </wgt>
<wgt id='1555'> +1.3137022e-12 </wgt>
<wgt id='1556'> +1.3137679e-12 </wgt>
<wgt id='1557'> +1.3142933e-12 </wgt>
<wgt id='1558'> +1.3163519e-12 </wgt>
<wgt id='1559'> +1.3130730e-12 </wgt>
<wgt id='1560'> +1.3151573e-12 </wgt>
<wgt id='1561'> +1.3127209e-12 </wgt>
<wgt id='1562'> +1.3137327e-12 </wgt>
<wgt id='1563'> +1.3153334e-12 </wgt>
<wgt id='1564'> +1.3146285e-12 </wgt>
<wgt id='1565'> +1.3138660e-12 </wgt>
<wgt id='1566'> +1.3140557e-12 </wgt>
<wgt id='1567'> +1.3145002e-12 </wgt>
<wgt id='1568'> +1.3136834e-12 </wgt>
<wgt id='1569'> +1.3152210e-12 </wgt>
<wgt id='1570'> +1.3152769e-12 </wgt>
<wgt id='1571'> +1.3141643e-12 </wgt>
<wgt id='1572'> +1.3143946e-12 </wgt>
<wgt id='1573'> +1.3133688e-12 </wgt>
<wgt id='1574'> +1.3141142e-12 </wgt>
<wgt id='1575'> +1.3130216e-12 </wgt>
<wgt id='1576'> +1.3126173e-12 </wgt>
<wgt id='1577'> +1.3145658e-12 </wgt>
<wgt id='1578'> +1.3149156e-12 </wgt>
<wgt id='1579'> +1.3142728e-12 </wgt>
<wgt id='1580'> +1.3140415e-12 </wgt>
<wgt id='1581'> +1.3146440e-12 </wgt>
<wgt id='1582'> +1.3136679e-12 </wgt>
<wgt id='1583'> +1.3145371e-12 </wgt>
<wgt id='1584'> +1.3140876e-12 </wgt>
<wgt id='1585'> +1.3140748e-12 </wgt>
<wgt id='1586'> +1.3137208e-12 </wgt>
<wgt id='1587'> +1.3139942e-12 </wgt>
<wgt id='1588'> +1.3143492e-12 </wgt>
<wgt id='1589'> +1.3143388e-12 </wgt>
<wgt id='1590'> +1.3143069e-12 </wgt>
<wgt id='1591'> +1.3139761e-12 </wgt>
<wgt id='1592'> +1.3140986e-12 </wgt>
<wgt id='1593'> +1.3137033e-12 </wgt>
<wgt id='1594'> +1.3137248e-12 </wgt>
<wgt id='1595'> +1.3135932e-12 </wgt>
<wgt id='1596'> +1.3146417e-12 </wgt>
<wgt id='1597'> +1.3144669e-12 </wgt>
<wgt id='1598'> +1.3140886e-12 </wgt>
<wgt id='1599'> +1.3142600e-12 </wgt>
<wgt id='1600'> +1.3138174e-12 </wgt>
<wgt id='1601'> +1.3142781e-12 </wgt>
<wgt id='1602'> +1.3142527e-12 </wgt>
<wgt id='1603'> +1.3138074e-12 </wgt>
<wgt id='1604'> +1.3143402e-12 </wgt>
<wgt id='1605'> +1.3140471e-12 </wgt>
<wgt id='1606'> +1.3140451e-12 </wgt>
<wgt id='1607'> +1.3135070e-12 </wgt>
<wgt id='1608'> +1.3142907e-12 </wgt>
<wgt id='1609'> +1.3142090e-12 </wgt>
<wgt id='1610'> +1.2724755e-12 </wgt>
<wgt id='1611'> +1.3371411e-12 </wgt>
<wgt id='1612'> +1.4898796e-12 </wgt>
<wgt id='1613'> +1.3989400e-12 </wgt>
<wgt id='1614'> +1.4094727e-12 </wgt>
<wgt id='1615'> +1.5288383e-12 </wgt>
<wgt id='1616'> +1.2667972e-12 </wgt>
<wgt id='1617'> +1.3911593e-12 </wgt>
<wgt id='1618'> +1.4550662e-12 </wgt>
<wgt id='1619'> +1.3562325e-12 </wgt>
<wgt id='1620'> +1.5137373e-12 </wgt>
<wgt id='1621'> +1.5471473e-12 </wgt>
<wgt id='1622'> +1.5360617e-12 </wgt>
<wgt id='1623'> +1.4999397e-12 </wgt>
<wgt id='1624'> +1.5376425e-12 </wgt>
<wgt id='1625'> +1.6202996e-12 </wgt>
<wgt id='1626'> +1.5485857e-12 </wgt>
<wgt id='1627'> +1.5537453e-12 </wgt>
<wgt id='1628'> +1.4155232e-12 </wgt>
<wgt id='1629'> +1.5203167e-12 </wgt>
<wgt id='1630'> +1.4645641e-12 </wgt>
<wgt id='1631'> +1.5574202e-12 </wgt>
<wgt id='1632'> +1.5673384e-12 </wgt>
<wgt id='1633'> +1.5458718e-12 </wgt>
<wgt id='1634'> +1.4712843e-12 </wgt>
<wgt id='1635'> +1.4860503e-12 </wgt>
<wgt id='1636'> +1.4196971e-12 </wgt>
<wgt id='1637'> +1.5044008e-12 </wgt>
<wgt id='1638'> +1.5162859e-12 </wgt>
<wgt id='1639'> +1.4491309e-12 </wgt>
<wgt id='1640'> +1.5172398e-12 </wgt>
<wgt id='1641'> +1.5005873e-12 </wgt>
<wgt id='1642'> +1.5372044e-12 </wgt>
<wgt id='1643'> +1.3342906e-12 </wgt>
<wgt id='1644'> +1.7285867e-12 </wgt>
<wgt id='1645'> +1.5019024e-12 </wgt>
<wgt id='1646'> +1.5050152e-12 </wgt>
<wgt id='1647'> +1.4815054e-12 </wgt>
<wgt id='1648'> +1.3879767e-12 </wgt>
<wgt id='1649'> +1.3541488e-12 </wgt>
<wgt id='1650'> +1.4868411e-12 </wgt>
<wgt id='1651'> +1.5604732e-12 </wgt>
<wgt id='1652'> +1.5292242e-12 </wgt>
<wgt id='1653'> +1.3806344e-12 </wgt>
<wgt id='1654'> +1.5313665e-12 </wgt>
<wgt id='1655'> +1.5274062e-12 </wgt>
<wgt id='1656'> +1.5711960e-12 </wgt>
<wgt id='1657'> +1.4630743e-12 </wgt>
<wgt id='1658'> +1.5932118e-12 </wgt>
<wgt id='1659'> +1.5376425e-12 </wgt>
<wgt id='1660'> +1.4844575e-12 </wgt>
<wgt id='1661'> +1.6120656e-12 </wgt>
<wgt id='1662'> +1.4627191e-12 </wgt>
<wgt id='1663'> +1.5510590e-12 </wgt>
<wgt id='1664'> +1.5197636e-12 </wgt>
<wgt id='1665'> +1.5976108e-12 </wgt>
<wgt id='1666'> +1.4648959e-12 </wgt>
<wgt id='1667'> +1.5236615e-12 </wgt>
<wgt id='1668'> +1.4136564e-12 </wgt>
<wgt id='1669'> +1.7567744e-12 </wgt>
<wgt id='1670'> +1.4416639e-12 </wgt>
<wgt id='1671'> +1.5377922e-12 </wgt>
<wgt id='1672'> +1.5788577e-12 </wgt>
<wgt id='1673'> +1.5112928e-12 </wgt>
<wgt id='1674'> +1.4521279e-12 </wgt>
<wgt id='1675'> +1.4822481e-12 </wgt>
<wgt id='1676'> +1.4783654e-12 </wgt>
<wgt id='1677'> +1.3301699e-12 </wgt>
<wgt id='1678'> +1.4839546e-12 </wgt>
<wgt id='1679'> +1.4758043e-12 </wgt>
<wgt id='1680'> +1.3322079e-12 </wgt>
<wgt id='1681'> +1.5109847e-12 </wgt>
<wgt id='1682'> +1.5036794e-12 </wgt>
<wgt id='1683'> +1.5260509e-12 </wgt>
<wgt id='1684'> +1.5828319e-12 </wgt>
<wgt id='1685'> +1.5408342e-12 </wgt>
<wgt id='1686'> +1.5084797e-12 </wgt>
<wgt id='1687'> +1.3978398e-12 </wgt>
<wgt id='1688'> +1.4164711e-12 </wgt>
<wgt id='1689'> +1.5151975e-12 </wgt>
<wgt id='1690'> +1.4964968e-12 </wgt>
<wgt id='1691'> +1.3828144e-12 </wgt>
<wgt id='1692'> +1.4665410e-12 </wgt>
<wgt id='1693'> +1.4343513e-12 </wgt>
<wgt id='1694'> +1.6977383e-12 </wgt>
<wgt id='1695'> +1.5126167e-12 </wgt>
<wgt id='1696'> +1.4310268e-12 </wgt>
<wgt id='1697'> +1.3571184e-12 </wgt>
<wgt id='1698'> +1.5230953e-12 </wgt>
<wgt id='1699'> +1.4093706e-12 </wgt>
<wgt id='1700'> +1.5155773e-12 </wgt>
<wgt id='1701'> +1.4157106e-12 </wgt>
<wgt id='1702'> +1.4156096e-12 </wgt>
<wgt id='1703'> +1.4068266e-12 </wgt>
<wgt id='1704'> +1.5183371e-12 </wgt>
<wgt id='1705'> +1.5569777e-12 </wgt>
<wgt id='1706'> +1.4360597e-12 </wgt>
<wgt id='1707'> +1.4620415e-12 </wgt>
<wgt id='1708'> +1.5344040e-12 </wgt>
<wgt id='1709'> +1.5046375e-12 </wgt>
<wgt id='1710'> +1.4893179e-12 </wgt>
<wgt id='1711'> +1.3963577e-12 </wgt>
<wgt id='1712'> +1.4939478e-12 </wgt>
<wgt id='1713'> +1.2649701e-12 </wgt>
<wgt id='1714'> +1.2582733e-12 </wgt>
<wgt id='1715'> +1.1355951e-12 </wgt>
<wgt id='1716'> +1.1635767e-12 </wgt>
<wgt id='1717'> +1.2006101e-12 </wgt>
<wgt id='1718'> +1.2698189e-12 </wgt>
<wgt id='1719'> +1.3193857e-12 </wgt>
<wgt id='1720'> +1.2770194e-12 </wgt>
<wgt id='1721'> +1.2653279e-12 </wgt>
<wgt id='1722'> +1.2882957e-12 </wgt>
<wgt id='1723'> +1.3378244e-12 </wgt>
<wgt id='1724'> +1.7947614e-12 </wgt>
<wgt id='1725'> +1.2390516e-12 </wgt>
<wgt id='1726'> +1.0777856e-12 </wgt>
<wgt id='1727'> +1.3193498e-12 </wgt>
<wgt id='1728'> +1.3053273e-12 </wgt>
<wgt id='1729'> +1.3031034e-12 </wgt>
<wgt id='1730'> +1.2888506e-12 </wgt>
<wgt id='1731'> +1.2859218e-12 </wgt>
<wgt id='1732'> +1.2571230e-12 </wgt>
<wgt id='1733'> +1.1871872e-12 </wgt>
<wgt id='1734'> +1.2175473e-12 </wgt>
<wgt id='1735'> +1.4199133e-12 </wgt>
<wgt id='1736'> +1.3167657e-12 </wgt>
<wgt id='1737'> +1.2021896e-12 </wgt>
<wgt id='1738'> +1.2314601e-12 </wgt>
<wgt id='1739'> +1.2538974e-12 </wgt>
<wgt id='1740'> +1.2163794e-12 </wgt>
<wgt id='1741'> +1.2820608e-12 </wgt>
<wgt id='1742'> +1.1548015e-12 </wgt>
<wgt id='1743'> +1.1940095e-12 </wgt>
<wgt id='1744'> +1.0826496e-12 </wgt>
<wgt id='1745'> +1.5907969e-12 </wgt>
<wgt id='1746'> +1.1250469e-12 </wgt>
<wgt id='1747'> +1.2785052e-12 </wgt>
<wgt id='1748'> +1.1722752e-12 </wgt>
<wgt id='1749'> +1.1849221e-12 </wgt>
<wgt id='1750'> +1.2494583e-12 </wgt>
<wgt id='1751'> +1.5262882e-12 </wgt>
<wgt id='1752'> +1.2379890e-12 </wgt>
<wgt id='1753'> +1.2322519e-12 </wgt>
<wgt id='1754'> +1.2378351e-12 </wgt>
<wgt id='1755'> +1.2368235e-12 </wgt>
<wgt id='1756'> +1.3102997e-12 </wgt>
<wgt id='1757'> +1.2965791e-12 </wgt>
<wgt id='1758'> +1.2089280e-12 </wgt>
<wgt id='1759'> +1.2146014e-12 </wgt>
<wgt id='1760'> +1.2944332e-12 </wgt>
<wgt id='1761'> +1.2435545e-12 </wgt>
<wgt id='1762'> +1.1324356e-12 </wgt>
<wgt id='1763'> +1.1679446e-12 </wgt>
<wgt id='1764'> +1.2440077e-12 </wgt>
<wgt id='1765'> +1.2130231e-12 </wgt>
<wgt id='1766'> +1.3912964e-12 </wgt>
<wgt id='1767'> +1.2785752e-12 </wgt>
<wgt id='1768'> +1.2434512e-12 </wgt>
<wgt id='1769'> +1.2600496e-12 </wgt>
<wgt id='1770'> +1.0923382e-12 </wgt>
<wgt id='1771'> +1.2400244e-12 </wgt>
<wgt id='1772'> +1.1268800e-12 </wgt>
<wgt id='1773'> +1.2525151e-12 </wgt>
<wgt id='1774'> +1.1836356e-12 </wgt>
<wgt id='1775'> +1.2302282e-12 </wgt>
<wgt id='1776'> +1.2522771e-12 </wgt>
<wgt id='1777'> +1.3293314e-12 </wgt>
<wgt id='1778'> +1.2240110e-12 </wgt>
<wgt id='1779'> +1.1969979e-12 </wgt>
<wgt id='1780'> +1.5578428e-12 </wgt>
<wgt id='1781'> +1.1617216e-12 </wgt>
<wgt id='1782'> +1.2809765e-12 </wgt>
<wgt id='1783'> +1.2517321e-12 </wgt>
<wgt id='1784'> +1.3124534e-12 </wgt>
<wgt id='1785'> +1.5427424e-12 </wgt>
<wgt id='1786'> +1.4978512e-12 </wgt>
<wgt id='1787'> +1.2694861e-12 </wgt>
<wgt id='1788'> +1.2290202e-12 </wgt>
<wgt id='1789'> +1.7217334e-12 </wgt>
<wgt id='1790'> +1.4393655e-12 </wgt>
<wgt id='1791'> +1.2960193e-12 </wgt>
<wgt id='1792'> +1.3469605e-12 </wgt>
<wgt id='1793'> +1.2223756e-12 </wgt>
<wgt id='1794'> +1.2740927e-12 </wgt>
<wgt id='1795'> +1.1490503e-12 </wgt>
<wgt id='1796'> +1.3177830e-12 </wgt>
<wgt id='1797'> +1.2018005e-12 </wgt>
<wgt id='1798'> +1.2322162e-12 </wgt>
<wgt id='1799'> +1.3027142e-12 </wgt>
<wgt id='1800'> +1.2637896e-12 </wgt>
<wgt id='1801'> +1.2158653e-12 </wgt>
<wgt id='1802'> +1.4080946e-12 </wgt>
<wgt id='1803'> +1.1850553e-12 </wgt>
<wgt id='1804'> +1.2154955e-12 </wgt>
<wgt id='1805'> +1.2734646e-12 </wgt>
<wgt id='1806'> +1.2449503e-12 </wgt>
<wgt id='1807'> +1.2915031e-12 </wgt>
<wgt id='1808'> +1.1427507e-12 </wgt>
<wgt id='1809'> +1.3172135e-12 </wgt>
<wgt id='1810'> +1.1461613e-12 </wgt>
<wgt id='1811'> +1.0888075e-12 </wgt>
<wgt id='1812'> +1.1423880e-12 </wgt>
<wgt id='1813'> +1.0400681e-12 </wgt>
<wgt id='1814'> +1.1305460e-12 </wgt>
<wgt id='1815'> +1.2781540e-12 </wgt>
<wgt id='1816'> +1.2649701e-12 </wgt>
<wgt id='1817'> +1.2582733e-12 </wgt>
<wgt id='1818'> +1.1355951e-12 </wgt>
<wgt id='1819'> +1.1635767e-12 </wgt>
<wgt id='1820'> +1.2006101e-12 </wgt>
<wgt id='1821'> +1.2698189e-12 </wgt>
<wgt id='1822'> +1.3193857e-12 </wgt>
<wgt id='1823'> +1.2770194e-12 </wgt>
<wgt id='1824'> +1.2653279e-12 </wgt>
<wgt id='1825'> +1.2882957e-12 </wgt>
<wgt id='1826'> +1.3378244e-12 </wgt>
<wgt id='1827'> +1.7947614e-12 </wgt>
<wgt id='1828'> +1.2390516e-12 </wgt>
<wgt id='1829'> +1.0777856e-12 </wgt>
<wgt id='1830'> +1.3193498e-12 </wgt>
<wgt id='1831'> +1.3053273e-12 </wgt>
<wgt id='1832'> +1.3031034e-12 </wgt>
<wgt id='1833'> +1.2888506e-12 </wgt>
<wgt id='1834'> +1.2859218e-12 </wgt>
<wgt id='1835'> +1.2571230e-12 </wgt>
<wgt id='1836'> +1.1871872e-12 </wgt>
<wgt id='1837'> +1.2175473e-12 </wgt>
<wgt id='1838'> +1.4199133e-12 </wgt>
<wgt id='1839'> +1.3167657e-12 </wgt>
<wgt id='1840'> +1.2021896e-12 </wgt>
<wgt id='1841'> +1.2314601e-12 </wgt>
<wgt id='1842'> +1.2538974e-12 </wgt>
<wgt id='1843'> +1.2163794e-12 </wgt>
<wgt id='1844'> +1.2820608e-12 </wgt>
<wgt id='1845'> +1.1548015e-12 </wgt>
<wgt id='1846'> +1.1940095e-12 </wgt>
<wgt id='1847'> +1.0826496e-12 </wgt>
<wgt id='1848'> +1.5907969e-12 </wgt>
<wgt id='1849'> +1.1250469e-12 </wgt>
<wgt id='1850'> +1.2785052e-12 </wgt>
<wgt id='1851'> +1.1722752e-12 </wgt>
<wgt id='1852'> +1.1849221e-12 </wgt>
<wgt id='1853'> +1.2494583e-12 </wgt>
<wgt id='1854'> +1.5262882e-12 </wgt>
<wgt id='1855'> +1.2379890e-12 </wgt>
<wgt id='1856'> +1.2322519e-12 </wgt>
<wgt id='1857'> +1.2378351e-12 </wgt>
<wgt id='1858'> +1.2368235e-12 </wgt>
<wgt id='1859'> +1.3102997e-12 </wgt>
<wgt id='1860'> +1.2965791e-12 </wgt>
<wgt id='1861'> +1.2089280e-12 </wgt>
<wgt id='1862'> +1.2146014e-12 </wgt>
<wgt id='1863'> +1.2944332e-12 </wgt>
<wgt id='1864'> +1.2435545e-12 </wgt>
<wgt id='1865'> +1.1324356e-12 </wgt>
<wgt id='1866'> +1.1679446e-12 </wgt>
<wgt id='1867'> +1.2440077e-12 </wgt>
<wgt id='1868'> +1.2130231e-12 </wgt>
<wgt id='1869'> +1.3912964e-12 </wgt>
<wgt id='1870'> +1.2785752e-12 </wgt>
<wgt id='1871'> +1.2434512e-12 </wgt>
<wgt id='1872'> +1.2600496e-12 </wgt>
<wgt id='1873'> +1.0923382e-12 </wgt>
<wgt id='1874'> +1.2400244e-12 </wgt>
<wgt id='1875'> +1.1268800e-12 </wgt>
<wgt id='1876'> +1.2525151e-12 </wgt>
<wgt id='1877'> +1.1836356e-12 </wgt>
<wgt id='1878'> +1.2302282e-12 </wgt>
<wgt id='1879'> +1.2522771e-12 </wgt>
<wgt id='1880'> +1.3293314e-12 </wgt>
<wgt id='1881'> +1.2240110e-12 </wgt>
<wgt id='1882'> +1.1969979e-12 </wgt>
<wgt id='1883'> +1.5578428e-12 </wgt>
<wgt id='1884'> +1.1617216e-12 </wgt>
<wgt id='1885'> +1.2809765e-12 </wgt>
<wgt id='1886'> +1.2517321e-12 </wgt>
<wgt id='1887'> +1.3124534e-12 </wgt>
<wgt id='1888'> +1.5427424e-12 </wgt>
<wgt id='1889'> +1.4978512e-12 </wgt>
<wgt id='1890'> +1.2694861e-12 </wgt>
<wgt id='1891'> +1.2290202e-12 </wgt>
<wgt id='1892'> +1.7217334e-12 </wgt>
<wgt id='1893'> +1.4393655e-12 </wgt>
<wgt id='1894'> +1.2960193e-12 </wgt>
<wgt id='1895'> +1.3469605e-12 </wgt>
<wgt id='1896'> +1.2223756e-12 </wgt>
<wgt id='1897'> +1.2740927e-12 </wgt>
<wgt id='1898'> +1.1490503e-12 </wgt>
<wgt id='1899'> +1.3177830e-12 </wgt>
<wgt id='1900'> +1.2018005e-12 </wgt>
<wgt id='1901'> +1.2322162e-12 </wgt>
<wgt id='1902'> +1.3027142e-12 </wgt>
<wgt id='1903'> +1.2637896e-12 </wgt>
<wgt id='1904'> +1.2158653e-12 </wgt>
<wgt id='1905'> +1.4080946e-12 </wgt>
<wgt id='1906'> +1.1850553e-12 </wgt>
<wgt id='1907'> +1.2154955e-12 </wgt>
<wgt id='1908'> +1.2734646e-12 </wgt>
<wgt id='1909'> +1.2449503e-12 </wgt>
<wgt id='1910'> +1.2915031e-12 </wgt>
<wgt id='1911'> +1.1427507e-12 </wgt>
<wgt id='1912'> +1.3172135e-12 </wgt>
<wgt id='1913'> +1.1461613e-12 </wgt>
<wgt id='1914'> +1.0888075e-12 </wgt>
<wgt id='1915'> +1.1423880e-12 </wgt>
<wgt id='1916'> +1.0400681e-12 </wgt>
<wgt id='1917'> +1.2278221e-12 </wgt>
<wgt id='1918'> +1.2678516e-12 </wgt>
<wgt id='1919'> +1.2802764e-12 </wgt>
</rwgt>
</event>
<event>
 9      1 +1.5607000e-12 3.06541800e+01 7.81860800e-03 1.44322200e-01
        2 -1    0    0  502    0 -0.0000000000e+00 +0.0000000000e+00 +8.2307328707e+01 8.2307328707e+01 0.0000000000e+00 0.0000e+00 1.0000e+00
       21 -1    0    0  501  502 +0.0000000000e+00 -0.0000000000e+00 -1.0006973887e+01 1.0006973887e+01 0.0000000000e+00 0.0000e+00 1.0000e+00
     1023  2    1    2    0    0 +2.4025837654e+01 +1.1721067759e+01 +3.9556411683e+01 5.0043862373e+01 1.5001804943e+01 0.0000e+00 0.0000e+00
  1000023  2    3    3    0    0 +1.3662490608e+01 +6.4151606073e+00 +1.3171767012e+01 2.0774405816e+01 5.5011412965e+00 0.0000e+00 0.0000e+00
        2  1    1    2  501    0 -2.4025837654e+01 -1.1721067759e+01 +3.2743943137e+01 4.2270440222e+01 0.0000000000e+00 0.0000e+00 1.0000e+00
  1000022  1    4    4    0    0 +1.1400932619e+01 +5.4861259230e+00 +1.1185381252e+01 1.7612256982e+01 5.0000000000e+00 0.0000e+00 1.0000e+00
      -11  1    4    4    0    0 +6.0109362048e-01 +1.6067961283e-01 +3.9268434230e-01 7.3575317353e-01 5.1100000000e-04 0.0000e+00 -1.0000e+00
       11  1    4    4    0    0 +1.6604643680e+00 +7.6835507149e-01 +1.5937014174e+00 2.4263956607e+00 5.1100000000e-04 0.0000e+00 1.0000e+00
  1000022  1    3    3    0    0 +1.0363347046e+01 +5.3059071516e+00 +2.6384644671e+01 2.9269456557e+01 5.0000000000e+00 0.0000e+00 1.0000e+00
<mgrwt>
<rscale>  1 0.30654175E+02</rscale>
<asrwt>0</asrwt>
<pdfrwt beam="1">  1       21 0.15395345E-02 0.30654175E+02</pdfrwt>
<pdfrwt beam="2">  1        2 0.12662666E-01 0.30654175E+02</pdfrwt>
<totfact> 0.81228492E+06</totfact>
</mgrwt>
<rwgt>
<wgt id='1001'> +1.5607000e-12 </wgt>
<wgt id='1002'> +1.6259657e-12 </wgt>
<wgt id='1003'> +1.6279506e-12 </wgt>
<wgt id='1004'> +1.5451891e-12 </wgt>
<wgt id='1005'> +1.6308160e-12 </wgt>
<wgt id='1006'> +1.3664449e-12 </wgt>
<wgt id='1007'> +1.4435004e-12 </wgt>
<wgt id='1008'> +1.4459830e-12 </wgt>
<wgt id='1009'> +1.3491046e-12 </wgt>
<wgt id='1010'> +1.4495936e-12 </wgt>
<wgt id='1011'> +1.8225034e-12 </wgt>
<wgt id='1012'> +1.8635202e-12 </wgt>
<wgt id='1013'> +1.8645638e-12 </wgt>
<wgt id='1014'> +1.8113530e-12 </wgt>
<wgt id='1015'> +1.8660402e-12 </wgt>
<wgt id='1016'> +1.8685929e-12 </wgt>
<wgt id='1017'> +1.8783551e-12 </wgt>
<wgt id='1018'> +1.8783577e-12 </wgt>
<wgt id='1019'> +1.8645638e-12 </wgt>
<wgt id='1020'> +1.8783158e-12 </wgt>
<wgt id='1021'> +1.6360154e-12 </wgt>
<wgt id='1022'> +1.6675667e-12 </wgt>
<wgt id='1023'> +1.6684003e-12 </wgt>
<wgt id='1024'> +1.6279506e-12 </wgt>
<wgt id='1025'> +1.6695903e-12 </wgt>
<wgt id='1026'> +2.1820445e-12 </wgt>
<wgt id='1027'> +2.1527838e-12 </wgt>
<wgt id='1028'> +2.1513661e-12 </wgt>
<wgt id='1029'> +2.1857411e-12 </wgt>
<wgt id='1030'> +2.1492387e-12 </wgt>
<wgt id='1031'> +1.2214851e-12 </wgt>
<wgt id='1032'> +1.3449597e-12 </wgt>
<wgt id='1033'> +1.3491046e-12 </wgt>
<wgt id='1034'> +1.1946749e-12 </wgt>
<wgt id='1035'> +1.3551811e-12 </wgt>
<wgt id='1036'> +1.0694509e-12 </wgt>
<wgt id='1037'> +1.1940287e-12 </wgt>
<wgt id='1038'> +1.1983055e-12 </wgt>
<wgt id='1039'> +1.0430706e-12 </wgt>
<wgt id='1040'> +1.2045883e-12 </wgt>
<wgt id='1041'> +1.4263860e-12 </wgt>
<wgt id='1042'> +1.5414591e-12 </wgt>
<wgt id='1043'> +1.5451891e-12 </wgt>
<wgt id='1044'> +1.4004616e-12 </wgt>
<wgt id='1045'> +1.5506486e-12 </wgt>
<wgt id='1046'> +1.5607000e-12 </wgt>
<wgt id='1047'> +1.6118252e-12 </wgt>
<wgt id='1048'> +1.5462106e-12 </wgt>
<wgt id='1049'> +1.5143752e-12 </wgt>
<wgt id='1050'> +1.5293729e-12 </wgt>
<wgt id='1051'> +1.5606354e-12 </wgt>
<wgt id='1052'> +1.5331379e-12 </wgt>
<wgt id='1053'> +1.5590240e-12 </wgt>
<wgt id='1054'> +1.5499571e-12 </wgt>
<wgt id='1055'> +1.5173500e-12 </wgt>
<wgt id='1056'> +1.5548857e-12 </wgt>
<wgt id='1057'> +1.5759237e-12 </wgt>
<wgt id='1058'> +1.5194245e-12 </wgt>
<wgt id='1059'> +1.5743891e-12 </wgt>
<wgt id='1060'> +1.5704830e-12 </wgt>
<wgt id='1061'> +1.5507571e-12 </wgt>
<wgt id='1062'> +1.5776729e-12 </wgt>
<wgt id='1063'> +1.5768099e-12 </wgt>
<wgt id='1064'> +1.5556194e-12 </wgt>
<wgt id='1065'> +1.5631797e-12 </wgt>
<wgt id='1066'> +1.5365025e-12 </wgt>
<wgt id='1067'> +1.5301460e-12 </wgt>
<wgt id='1068'> +1.5846505e-12 </wgt>
<wgt id='1069'> +1.5876784e-12 </wgt>
<wgt id='1070'> +1.5518860e-12 </wgt>
<wgt id='1071'> +1.5064571e-12 </wgt>
<wgt id='1072'> +1.5984907e-12 </wgt>
<wgt id='1073'> +1.5791059e-12 </wgt>
<wgt id='1074'> +1.5469308e-12 </wgt>
<wgt id='1075'> +1.5719160e-12 </wgt>
<wgt id='1076'> +1.5470992e-12 </wgt>
<wgt id='1077'> +1.5770443e-12 </wgt>
<wgt id='1078'> +1.5203938e-12 </wgt>
<wgt id='1079'> +1.5259530e-12 </wgt>
<wgt id='1080'> +1.5447643e-12 </wgt>
<wgt id='1081'> +1.5798940e-12 </wgt>
<wgt id='1082'> +1.5425055e-12 </wgt>
<wgt id='1083'> +1.5919229e-12 </wgt>
<wgt id='1084'> +1.5205110e-12 </wgt>
<wgt id='1085'> +1.5450853e-12 </wgt>
<wgt id='1086'> +1.5654443e-12 </wgt>
<wgt id='1087'> +1.5480863e-12 </wgt>
<wgt id='1088'> +1.5686559e-12 </wgt>
<wgt id='1089'> +1.5816705e-12 </wgt>
<wgt id='1090'> +1.5498156e-12 </wgt>
<wgt id='1091'> +1.5796137e-12 </wgt>
<wgt id='1092'> +1.5900274e-12 </wgt>
<wgt id='1093'> +1.5385583e-12 </wgt>
<wgt id='1094'> +1.5928448e-12 </wgt>
<wgt id='1095'> +1.5768507e-12 </wgt>
<wgt id='1096'> +1.6119418e-12 </wgt>
<wgt id='1097'> +1.5631429e-12 </wgt>
<wgt id='1098'> +1.5449717e-12 </wgt>
<wgt id='1099'> +1.5510272e-12 </wgt>
<wgt id='1100'> +1.5828723e-12 </wgt>
<wgt id='1101'> +1.6000790e-12 </wgt>
<wgt id='1102'> +1.5631281e-12 </wgt>
<wgt id='1103'> +1.6143601e-12 </wgt>
<wgt id='1104'> +1.5343758e-12 </wgt>
<wgt id='1105'> +1.5389831e-12 </wgt>
<wgt id='1106'> +1.5956758e-12 </wgt>
<wgt id='1107'> +1.5556583e-12 </wgt>
<wgt id='1108'> +1.5625986e-12 </wgt>
<wgt id='1109'> +1.5958711e-12 </wgt>
<wgt id='1110'> +1.5528762e-12 </wgt>
<wgt id='1111'> +1.5571491e-12 </wgt>
<wgt id='1112'> +1.5878284e-12 </wgt>
<wgt id='1113'> +1.6119175e-12 </wgt>
<wgt id='1114'> +1.5665951e-12 </wgt>
<wgt id='1115'> +1.5421354e-12 </wgt>
<wgt id='1116'> +1.5749440e-12 </wgt>
<wgt id='1117'> +1.5371263e-12 </wgt>
<wgt id='1118'> +1.6513631e-12 </wgt>
<wgt id='1119'> +1.5010906e-12 </wgt>
<wgt id='1120'> +1.5236877e-12 </wgt>
<wgt id='1121'> +1.5388609e-12 </wgt>
<wgt id='1122'> +1.5684428e-12 </wgt>
<wgt id='1123'> +1.5283703e-12 </wgt>
<wgt id='1124'> +1.5260352e-12 </wgt>
<wgt id='1125'> +1.5326026e-12 </wgt>
<wgt id='1126'> +1.5808987e-12 </wgt>
<wgt id='1127'> +1.5651967e-12 </wgt>
<wgt id='1128'> +1.5776729e-12 </wgt>
<wgt id='1129'> +1.5713537e-12 </wgt>
<wgt id='1130'> +1.5689089e-12 </wgt>
<wgt id='1131'> +1.5466689e-12 </wgt>
<wgt id='1132'> +1.5880973e-12 </wgt>
<wgt id='1133'> +1.5418147e-12 </wgt>
<wgt id='1134'> +1.5788748e-12 </wgt>
<wgt id='1135'> +1.5120405e-12 </wgt>
<wgt id='1136'> +1.5526952e-12 </wgt>
<wgt id='1137'> +1.5344312e-12 </wgt>
<wgt id='1138'> +1.5492387e-12 </wgt>
<wgt id='1139'> +1.5593301e-12 </wgt>
<wgt id='1140'> +1.5885892e-12 </wgt>
<wgt id='1141'> +1.5770178e-12 </wgt>
<wgt id='1142'> +1.5284405e-12 </wgt>
<wgt id='1143'> +1.5899256e-12 </wgt>
<wgt id='1144'> +1.5593131e-12 </wgt>
<wgt id='1145'> +1.5831824e-12 </wgt>
<wgt id='1146'> +1.5764985e-12 </wgt>
<wgt id='1147'> +1.2857511e-12 </wgt>
<wgt id='1148'> +1.3151127e-12 </wgt>
<wgt id='1149'> +1.3047981e-12 </wgt>
<wgt id='1150'> +1.3117390e-12 </wgt>
<wgt id='1151'> +1.4512712e-12 </wgt>
<wgt id='1152'> +1.8163454e-12 </wgt>
<wgt id='1153'> +1.8073119e-12 </wgt>
<wgt id='1154'> +1.8216487e-12 </wgt>
<wgt id='1155'> +1.8150863e-12 </wgt>
<wgt id='1156'> +1.8170483e-12 </wgt>
<wgt id='1157'> +1.8194631e-12 </wgt>
<wgt id='1158'> +1.8121421e-12 </wgt>
<wgt id='1159'> +1.8190503e-12 </wgt>
<wgt id='1160'> +1.8147050e-12 </wgt>
<wgt id='1161'> +1.8126346e-12 </wgt>
<wgt id='1162'> +1.8189144e-12 </wgt>
<wgt id='1163'> +1.8199149e-12 </wgt>
<wgt id='1164'> +1.8128276e-12 </wgt>
<wgt id='1165'> +1.8066116e-12 </wgt>
<wgt id='1166'> +1.8257055e-12 </wgt>
<wgt id='1167'> +1.8268921e-12 </wgt>
<wgt id='1168'> +1.8021222e-12 </wgt>
<wgt id='1169'> +1.8186191e-12 </wgt>
<wgt id='1170'> +1.8146772e-12 </wgt>
<wgt id='1171'> +1.8097983e-12 </wgt>
<wgt id='1172'> +1.8241137e-12 </wgt>
<wgt id='1173'> +1.8026227e-12 </wgt>
<wgt id='1174'> +1.8292288e-12 </wgt>
<wgt id='1175'> +1.8189742e-12 </wgt>
<wgt id='1176'> +1.8132820e-12 </wgt>
<wgt id='1177'> +1.8175838e-12 </wgt>
<wgt id='1178'> +1.8130058e-12 </wgt>
<wgt id='1179'> +1.8194411e-12 </wgt>
<wgt id='1180'> +1.8062476e-12 </wgt>
<wgt id='1181'> +1.8116128e-12 </wgt>
<wgt id='1182'> +1.8209673e-12 </wgt>
<wgt id='1183'> +1.8153552e-12 </wgt>
<wgt id='1184'> +1.8164432e-12 </wgt>
<wgt id='1185'> +1.8099316e-12 </wgt>
<wgt id='1186'> +1.8202128e-12 </wgt>
<wgt id='1187'> +1.8162008e-12 </wgt>
<wgt id='1188'> +1.8164408e-12 </wgt>
<wgt id='1189'> +1.8115445e-12 </wgt>
<wgt id='1190'> +1.8035942e-12 </wgt>
<wgt id='1191'> +1.8116655e-12 </wgt>
<wgt id='1192'> +1.8190207e-12 </wgt>
<wgt id='1193'> +1.2928575e-12 </wgt>
<wgt id='1194'> +1.2891824e-12 </wgt>
<wgt id='1195'> +1.2958541e-12 </wgt>
<wgt id='1196'> +1.2987597e-12 </wgt>
<wgt id='1197'> +1.2862720e-12 </wgt>
<wgt id='1198'> +1.2931304e-12 </wgt>
<wgt id='1199'> +1.2924559e-12 </wgt>
<wgt id='1200'> +1.2939257e-12 </wgt>
<wgt id='1201'> +1.2921496e-12 </wgt>
<wgt id='1202'> +1.2911386e-12 </wgt>
<wgt id='1203'> +1.2953143e-12 </wgt>
<wgt id='1204'> +1.2827080e-12 </wgt>
<wgt id='1205'> +1.2990784e-12 </wgt>
<wgt id='1206'> +1.2968339e-12 </wgt>
<wgt id='1207'> +1.2874700e-12 </wgt>
<wgt id='1208'> +1.2865593e-12 </wgt>
<wgt id='1209'> +1.2951362e-12 </wgt>
<wgt id='1210'> +1.2928223e-12 </wgt>
<wgt id='1211'> +1.2848654e-12 </wgt>
<wgt id='1212'> +1.2939120e-12 </wgt>
<wgt id='1213'> +1.2918675e-12 </wgt>
<wgt id='1214'> +1.2778344e-12 </wgt>
<wgt id='1215'> +1.3166131e-12 </wgt>
<wgt id='1216'> +1.2969067e-12 </wgt>
<wgt id='1217'> +1.2895247e-12 </wgt>
<wgt id='1218'> +1.2980508e-12 </wgt>
<wgt id='1219'> +1.2901127e-12 </wgt>
<wgt id='1220'> +1.2983204e-12 </wgt>
<wgt id='1221'> +1.2913411e-12 </wgt>
<wgt id='1222'> +1.2994331e-12 </wgt>
<wgt id='1223'> +1.2818489e-12 </wgt>
<wgt id='1224'> +1.2948081e-12 </wgt>
<wgt id='1225'> +1.2921033e-12 </wgt>
<wgt id='1226'> +1.2897660e-12 </wgt>
<wgt id='1227'> +1.2950391e-12 </wgt>
<wgt id='1228'> +1.2844844e-12 </wgt>
<wgt id='1229'> +1.2962126e-12 </wgt>
<wgt id='1230'> +1.2871004e-12 </wgt>
<wgt id='1231'> +1.2921914e-12 </wgt>
<wgt id='1232'> +1.2908820e-12 </wgt>
<wgt id='1233'> +1.2933567e-12 </wgt>
<wgt id='1234'> +1.2928575e-12 </wgt>
<wgt id='1235'> +1.2840401e-12 </wgt>
<wgt id='1236'> +1.2872788e-12 </wgt>
<wgt id='1237'> +1.2902067e-12 </wgt>
<wgt id='1238'> +1.2950794e-12 </wgt>
<wgt id='1239'> +1.2971071e-12 </wgt>
<wgt id='1240'> +1.2990573e-12 </wgt>
<wgt id='1241'> +1.2664283e-12 </wgt>
<wgt id='1242'> +1.2589430e-12 </wgt>
<wgt id='1243'> +1.2738542e-12 </wgt>
<wgt id='1244'> +1.2600906e-12 </wgt>
<wgt id='1245'> +1.2711065e-12 </wgt>
<wgt id='1246'> +1.2663632e-12 </wgt>
<wgt id='1247'> +1.2665279e-12 </wgt>
<wgt id='1248'> +1.2663668e-12 </wgt>
<wgt id='1249'> +1.2665051e-12 </wgt>
<wgt id='1250'> +1.2678129e-12 </wgt>
<wgt id='1251'> +1.2654595e-12 </wgt>
<wgt id='1252'> +1.2638815e-12 </wgt>
<wgt id='1253'> +1.2684175e-12 </wgt>
<wgt id='1254'> +1.2575553e-12 </wgt>
<wgt id='1255'> +1.2717386e-12 </wgt>
<wgt id='1256'> +1.2698709e-12 </wgt>
<wgt id='1257'> +1.2577012e-12 </wgt>
<wgt id='1258'> +1.2845874e-12 </wgt>
<wgt id='1259'> +1.2491079e-12 </wgt>
<wgt id='1260'> +1.2695613e-12 </wgt>
<wgt id='1261'> +1.2629901e-12 </wgt>
<wgt id='1262'> +1.2652603e-12 </wgt>
<wgt id='1263'> +1.2666100e-12 </wgt>
<wgt id='1264'> +1.2727552e-12 </wgt>
<wgt id='1265'> +1.2633143e-12 </wgt>
<wgt id='1266'> +1.2564873e-12 </wgt>
<wgt id='1267'> +1.2753022e-12 </wgt>
<wgt id='1268'> +1.2691941e-12 </wgt>
<wgt id='1269'> +1.2661404e-12 </wgt>
<wgt id='1270'> +1.2594947e-12 </wgt>
<wgt id='1271'> +1.2623239e-12 </wgt>
<wgt id='1272'> +1.2646445e-12 </wgt>
<wgt id='1273'> +1.2665612e-12 </wgt>
<wgt id='1274'> +1.2682634e-12 </wgt>
<wgt id='1275'> +1.2627412e-12 </wgt>
<wgt id='1276'> +1.2713656e-12 </wgt>
<wgt id='1277'> +1.2586941e-12 </wgt>
<wgt id='1278'> +1.2677532e-12 </wgt>
<wgt id='1279'> +1.2656851e-12 </wgt>
<wgt id='1280'> +1.2670523e-12 </wgt>
<wgt id='1281'> +1.2637134e-12 </wgt>
<wgt id='1282'> +1.2664283e-12 </wgt>
<wgt id='1283'> +1.2577797e-12 </wgt>
<wgt id='1284'> +1.2611635e-12 </wgt>
<wgt id='1285'> +1.2640590e-12 </wgt>
<wgt id='1286'> +1.2688521e-12 </wgt>
<wgt id='1287'> +1.2707567e-12 </wgt>
<wgt id='1288'> +1.2723396e-12 </wgt>
<wgt id='1289'> +1.3627630e-12 </wgt>
<wgt id='1290'> +1.3620467e-12 </wgt>
<wgt id='1291'> +1.3636244e-12 </wgt>
<wgt id='1292'> +1.3584102e-12 </wgt>
<wgt id='1293'> +1.3659518e-12 </wgt>
<wgt id='1294'> +1.3557892e-12 </wgt>
<wgt id='1295'> +1.3696413e-12 </wgt>
<wgt id='1296'> +1.3599525e-12 </wgt>
<wgt id='1297'> +1.3662451e-12 </wgt>
<wgt id='1298'> +1.3684450e-12 </wgt>
<wgt id='1299'> +1.3557364e-12 </wgt>
<wgt id='1300'> +1.3654908e-12 </wgt>
<wgt id='1301'> +1.3574269e-12 </wgt>
<wgt id='1302'> +1.3611227e-12 </wgt>
<wgt id='1303'> +1.3651227e-12 </wgt>
<wgt id='1304'> +1.3604373e-12 </wgt>
<wgt id='1305'> +1.3643763e-12 </wgt>
<wgt id='1306'> +1.3570493e-12 </wgt>
<wgt id='1307'> +1.3693610e-12 </wgt>
<wgt id='1308'> +1.3614366e-12 </wgt>
<wgt id='1309'> +1.3638371e-12 </wgt>
<wgt id='1310'> +1.3626179e-12 </wgt>
<wgt id='1311'> +1.3631752e-12 </wgt>
<wgt id='1312'> +1.3597937e-12 </wgt>
<wgt id='1313'> +1.3658195e-12 </wgt>
<wgt id='1314'> +1.3576143e-12 </wgt>
<wgt id='1315'> +1.3632862e-12 </wgt>
<wgt id='1316'> +1.3697361e-12 </wgt>
<wgt id='1317'> +1.3623894e-12 </wgt>
<wgt id='1318'> +1.3717208e-12 </wgt>
<wgt id='1319'> +1.3518511e-12 </wgt>
<wgt id='1320'> +1.3733203e-12 </wgt>
<wgt id='1321'> +1.3540216e-12 </wgt>
<wgt id='1322'> +1.3622040e-12 </wgt>
<wgt id='1323'> +1.3631803e-12 </wgt>
<wgt id='1324'> +1.3584598e-12 </wgt>
<wgt id='1325'> +1.3780052e-12 </wgt>
<wgt id='1326'> +1.3629282e-12 </wgt>
<wgt id='1327'> +1.3646898e-12 </wgt>
<wgt id='1328'> +1.3633312e-12 </wgt>
<wgt id='1329'> +1.3621519e-12 </wgt>
<wgt id='1330'> +1.3571834e-12 </wgt>
<wgt id='1331'> +1.3675335e-12 </wgt>
<wgt id='1332'> +1.3833564e-12 </wgt>
<wgt id='1333'> +1.3521648e-12 </wgt>
<wgt id='1334'> +1.3597973e-12 </wgt>
<wgt id='1335'> +1.3713782e-12 </wgt>
<wgt id='1336'> +1.3584512e-12 </wgt>
<wgt id='1337'> +1.3645413e-12 </wgt>
<wgt id='1338'> +1.3605189e-12 </wgt>
<wgt id='1339'> +1.3631416e-12 </wgt>
<wgt id='1340'> +1.3412323e-12 </wgt>
<wgt id='1341'> +1.3406312e-12 </wgt>
<wgt id='1342'> +1.3419896e-12 </wgt>
<wgt id='1343'> +1.3367709e-12 </wgt>
<wgt id='1344'> +1.3442430e-12 </wgt>
<wgt id='1345'> +1.3341354e-12 </wgt>
<wgt id='1346'> +1.3479173e-12 </wgt>
<wgt id='1347'> +1.3387422e-12 </wgt>
<wgt id='1348'> +1.3440125e-12 </wgt>
<wgt id='1349'> +1.3465048e-12 </wgt>
<wgt id='1350'> +1.3361040e-12 </wgt>
<wgt id='1351'> +1.3439041e-12 </wgt>
<wgt id='1352'> +1.3355167e-12 </wgt>
<wgt id='1353'> +1.3389771e-12 </wgt>
<wgt id='1354'> +1.3452979e-12 </wgt>
<wgt id='1355'> +1.3391795e-12 </wgt>
<wgt id='1356'> +1.3424155e-12 </wgt>
<wgt id='1357'> +1.3351819e-12 </wgt>
<wgt id='1358'> +1.3484148e-12 </wgt>
<wgt id='1359'> +1.3414994e-12 </wgt>
<wgt id='1360'> +1.3410429e-12 </wgt>
<wgt id='1361'> +1.3409615e-12 </wgt>
<wgt id='1362'> +1.3418490e-12 </wgt>
<wgt id='1363'> +1.3386364e-12 </wgt>
<wgt id='1364'> +1.3432502e-12 </wgt>
<wgt id='1365'> +1.3395555e-12 </wgt>
<wgt id='1366'> +1.3361850e-12 </wgt>
<wgt id='1367'> +1.3480396e-12 </wgt>
<wgt id='1368'> +1.3403013e-12 </wgt>
<wgt id='1369'> +1.3489384e-12 </wgt>
<wgt id='1370'> +1.3318893e-12 </wgt>
<wgt id='1371'> +1.3492137e-12 </wgt>
<wgt id='1372'> +1.3318020e-12 </wgt>
<wgt id='1373'> +1.3386795e-12 </wgt>
<wgt id='1374'> +1.3431177e-12 </wgt>
<wgt id='1375'> +1.3368423e-12 </wgt>
<wgt id='1376'> +1.3574754e-12 </wgt>
<wgt id='1377'> +1.3413636e-12 </wgt>
<wgt id='1378'> +1.3434670e-12 </wgt>
<wgt id='1379'> +1.3415861e-12 </wgt>
<wgt id='1380'> +1.3407215e-12 </wgt>
<wgt id='1381'> +1.3359745e-12 </wgt>
<wgt id='1382'> +1.3447012e-12 </wgt>
<wgt id='1383'> +1.3605241e-12 </wgt>
<wgt id='1384'> +1.3316263e-12 </wgt>
<wgt id='1385'> +1.3386202e-12 </wgt>
<wgt id='1386'> +1.3483046e-12 </wgt>
<wgt id='1387'> +1.3351861e-12 </wgt>
<wgt id='1388'> +1.3433577e-12 </wgt>
<wgt id='1389'> +1.3371110e-12 </wgt>
<wgt id='1390'> +1.3420830e-12 </wgt>
<wgt id='1391'> +1.3159068e-12 </wgt>
<wgt id='1392'> +1.2863817e-12 </wgt>
<wgt id='1393'> +1.2962148e-12 </wgt>
<wgt id='1394'> +1.3069648e-12 </wgt>
<wgt id='1395'> +1.3268055e-12 </wgt>
<wgt id='1396'> +1.3172481e-12 </wgt>
<wgt id='1397'> +1.2794433e-12 </wgt>
<wgt id='1398'> +1.2870749e-12 </wgt>
<wgt id='1399'> +1.2940165e-12 </wgt>
<wgt id='1400'> +1.3012978e-12 </wgt>
<wgt id='1401'> +1.3092712e-12 </wgt>
<wgt id='1402'> +1.3249198e-12 </wgt>
<wgt id='1403'> +1.3326970e-12 </wgt>
<wgt id='1404'> +1.3402179e-12 </wgt>
<wgt id='1405'> +1.3172481e-12 </wgt>
<wgt id='1406'> +1.3124232e-12 </wgt>
<wgt id='1407'> +1.3150453e-12 </wgt>
<wgt id='1408'> +1.3192069e-12 </wgt>
<wgt id='1409'> +1.3214462e-12 </wgt>
<wgt id='1410'> +1.2765090e-12 </wgt>
<wgt id='1411'> +1.2762196e-12 </wgt>
<wgt id='1412'> +1.2768059e-12 </wgt>
<wgt id='1413'> +1.2771223e-12 </wgt>
<wgt id='1414'> +1.2758737e-12 </wgt>
<wgt id='1415'> +1.2699774e-12 </wgt>
<wgt id='1416'> +1.2791296e-12 </wgt>
<wgt id='1417'> +1.2683493e-12 </wgt>
<wgt id='1418'> +1.2846327e-12 </wgt>
<wgt id='1419'> +1.2786976e-12 </wgt>
<wgt id='1420'> +1.2744241e-12 </wgt>
<wgt id='1421'> +1.2634910e-12 </wgt>
<wgt id='1422'> +1.2821366e-12 </wgt>
<wgt id='1423'> +1.2762336e-12 </wgt>
<wgt id='1424'> +1.2768397e-12 </wgt>
<wgt id='1425'> +1.2713378e-12 </wgt>
<wgt id='1426'> +1.2820893e-12 </wgt>
<wgt id='1427'> +1.2638333e-12 </wgt>
<wgt id='1428'> +1.2833431e-12 </wgt>
<wgt id='1429'> +1.2739671e-12 </wgt>
<wgt id='1430'> +1.2800301e-12 </wgt>
<wgt id='1431'> +1.2775663e-12 </wgt>
<wgt id='1432'> +1.2757100e-12 </wgt>
<wgt id='1433'> +1.2735219e-12 </wgt>
<wgt id='1434'> +1.2778429e-12 </wgt>
<wgt id='1435'> +1.2767469e-12 </wgt>
<wgt id='1436'> +1.2758548e-12 </wgt>
<wgt id='1437'> +1.2831622e-12 </wgt>
<wgt id='1438'> +1.2757473e-12 </wgt>
<wgt id='1439'> +1.2713208e-12 </wgt>
<wgt id='1440'> +1.2875920e-12 </wgt>
<wgt id='1441'> +1.2791877e-12 </wgt>
<wgt id='1442'> +1.2719777e-12 </wgt>
<wgt id='1443'> +1.2729202e-12 </wgt>
<wgt id='1444'> +1.2849321e-12 </wgt>
<wgt id='1445'> +1.2913876e-12 </wgt>
<wgt id='1446'> +1.2715225e-12 </wgt>
<wgt id='1447'> +1.2757740e-12 </wgt>
<wgt id='1448'> +1.2801638e-12 </wgt>
<wgt id='1449'> +1.2774807e-12 </wgt>
<wgt id='1450'> +1.2755392e-12 </wgt>
<wgt id='1451'> +1.2791880e-12 </wgt>
<wgt id='1452'> +1.2684779e-12 </wgt>
<wgt id='1453'> +1.2774487e-12 </wgt>
<wgt id='1454'> +1.2690706e-12 </wgt>
<wgt id='1455'> +1.2726245e-12 </wgt>
<wgt id='1456'> +1.2793593e-12 </wgt>
<wgt id='1457'> +1.2794419e-12 </wgt>
<wgt id='1458'> +1.2752931e-12 </wgt>
<wgt id='1459'> +1.2814003e-12 </wgt>
<wgt id='1460'> +1.2731362e-12 </wgt>
<wgt id='1461'> +1.2765090e-12 </wgt>
<wgt id='1462'> +1.2685972e-12 </wgt>
<wgt id='1463'> +1.2844623e-12 </wgt>
<wgt id='1464'> +1.2772804e-12 </wgt>
<wgt id='1465'> +1.2444244e-12 </wgt>
<wgt id='1466'> +1.2509209e-12 </wgt>
<wgt id='1467'> +1.2581212e-12 </wgt>
<wgt id='1468'> +1.2644173e-12 </wgt>
<wgt id='1469'> +1.2706736e-12 </wgt>
<wgt id='1470'> +1.2842913e-12 </wgt>
<wgt id='1471'> +1.2898133e-12 </wgt>
<wgt id='1472'> +1.2964991e-12 </wgt>
<wgt id='1473'> +1.2772804e-12 </wgt>
<wgt id='1474'> +1.2725018e-12 </wgt>
<wgt id='1475'> +1.2744560e-12 </wgt>
<wgt id='1476'> +1.2792907e-12 </wgt>
<wgt id='1477'> +1.2811468e-12 </wgt>
<wgt id='1478'> +1.2787228e-12 </wgt>
<wgt id='1479'> +1.2758663e-12 </wgt>
<wgt id='1480'> +1.2708937e-12 </wgt>
<wgt id='1481'> +1.2810278e-12 </wgt>
<wgt id='1482'> +1.2754690e-12 </wgt>
<wgt id='1483'> +1.2657075e-12 </wgt>
<wgt id='1484'> +1.2802223e-12 </wgt>
<wgt id='1485'> +1.2731506e-12 </wgt>
<wgt id='1486'> +1.2791148e-12 </wgt>
<wgt id='1487'> +1.2794617e-12 </wgt>
<wgt id='1488'> +1.2771366e-12 </wgt>
<wgt id='1489'> +1.2905297e-12 </wgt>
<wgt id='1490'> +1.2732790e-12 </wgt>
<wgt id='1491'> +1.2792239e-12 </wgt>
<wgt id='1492'> +1.2828452e-12 </wgt>
<wgt id='1493'> +1.2594173e-12 </wgt>
<wgt id='1494'> +1.2845598e-12 </wgt>
<wgt id='1495'> +1.2661290e-12 </wgt>
<wgt id='1496'> +1.2774189e-12 </wgt>
<wgt id='1497'> +1.2779050e-12 </wgt>
<wgt id='1498'> +1.2795060e-12 </wgt>
<wgt id='1499'> +1.2788561e-12 </wgt>
<wgt id='1500'> +1.2776894e-12 </wgt>
<wgt id='1501'> +1.2797626e-12 </wgt>
<wgt id='1502'> +1.2826724e-12 </wgt>
<wgt id='1503'> +1.2790887e-12 </wgt>
<wgt id='1504'> +1.2760629e-12 </wgt>
<wgt id='1505'> +1.2787004e-12 </wgt>
<wgt id='1506'> +1.2769033e-12 </wgt>
<wgt id='1507'> +1.2782890e-12 </wgt>
<wgt id='1508'> +1.2826685e-12 </wgt>
<wgt id='1509'> +1.2973890e-12 </wgt>
<wgt id='1510'> +1.2965767e-12 </wgt>
<wgt id='1511'> +1.2990159e-12 </wgt>
<wgt id='1512'> +1.2963768e-12 </wgt>
<wgt id='1513'> +1.2981522e-12 </wgt>
<wgt id='1514'> +1.3003309e-12 </wgt>
<wgt id='1515'> +1.2984686e-12 </wgt>
<wgt id='1516'> +1.3014273e-12 </wgt>
<wgt id='1517'> +1.3033581e-12 </wgt>
<wgt id='1518'> +1.2984264e-12 </wgt>
<wgt id='1519'> +1.2909616e-12 </wgt>
<wgt id='1520'> +1.3001048e-12 </wgt>
<wgt id='1521'> +1.3022322e-12 </wgt>
<wgt id='1522'> +1.2964117e-12 </wgt>
<wgt id='1523'> +1.3038801e-12 </wgt>
<wgt id='1524'> +1.3001939e-12 </wgt>
<wgt id='1525'> +1.3036823e-12 </wgt>
<wgt id='1526'> +1.2948717e-12 </wgt>
<wgt id='1527'> +1.2939578e-12 </wgt>
<wgt id='1528'> +1.2992349e-12 </wgt>
<wgt id='1529'> +1.2974622e-12 </wgt>
<wgt id='1530'> +1.3030513e-12 </wgt>
<wgt id='1531'> +1.2992959e-12 </wgt>
<wgt id='1532'> +1.2917498e-12 </wgt>
<wgt id='1533'> +1.2972643e-12 </wgt>
<wgt id='1534'> +1.3003950e-12 </wgt>
<wgt id='1535'> +1.2880748e-12 </wgt>
<wgt id='1536'> +1.2946366e-12 </wgt>
<wgt id='1537'> +1.2948251e-12 </wgt>
<wgt id='1538'> +1.2983340e-12 </wgt>
<wgt id='1539'> +1.3070493e-12 </wgt>
<wgt id='1540'> +1.2996750e-12 </wgt>
<wgt id='1541'> +1.2975812e-12 </wgt>
<wgt id='1542'> +1.2950768e-12 </wgt>
<wgt id='1543'> +1.2976819e-12 </wgt>
<wgt id='1544'> +1.2973599e-12 </wgt>
<wgt id='1545'> +1.2968092e-12 </wgt>
<wgt id='1546'> +1.2942761e-12 </wgt>
<wgt id='1547'> +1.2975862e-12 </wgt>
<wgt id='1548'> +1.2965562e-12 </wgt>
<wgt id='1549'> +1.2967018e-12 </wgt>
<wgt id='1550'> +1.2985081e-12 </wgt>
<wgt id='1551'> +1.2998630e-12 </wgt>
<wgt id='1552'> +1.2978739e-12 </wgt>
<wgt id='1553'> +1.2967757e-12 </wgt>
<wgt id='1554'> +1.2998653e-12 </wgt>
<wgt id='1555'> +1.2991849e-12 </wgt>
<wgt id='1556'> +1.2969943e-12 </wgt>
<wgt id='1557'> +1.2998858e-12 </wgt>
<wgt id='1558'> +1.2961798e-12 </wgt>
<wgt id='1559'> +1.2974119e-12 </wgt>
<wgt id='1560'> +1.2998118e-12 </wgt>
<wgt id='1561'> +1.2960038e-12 </wgt>
<wgt id='1562'> +1.2971019e-12 </wgt>
<wgt id='1563'> +1.2983967e-12 </wgt>
<wgt id='1564'> +1.2969184e-12 </wgt>
<wgt id='1565'> +1.2977926e-12 </wgt>
<wgt id='1566'> +1.2975234e-12 </wgt>
<wgt id='1567'> +1.2991114e-12 </wgt>
<wgt id='1568'> +1.2955760e-12 </wgt>
<wgt id='1569'> +1.2968256e-12 </wgt>
<wgt id='1570'> +1.2967336e-12 </wgt>
<wgt id='1571'> +1.2972428e-12 </wgt>
<wgt id='1572'> +1.2963872e-12 </wgt>
<wgt id='1573'> +1.2960243e-12 </wgt>
<wgt id='1574'> +1.2974343e-12 </wgt>
<wgt id='1575'> +1.2979814e-12 </wgt>
<wgt id='1576'> +1.2978581e-12 </wgt>
<wgt id='1577'> +1.2979214e-12 </wgt>
<wgt id='1578'> +1.2973261e-12 </wgt>
<wgt id='1579'> +1.2971138e-12 </wgt>
<wgt id='1580'> +1.2974032e-12 </wgt>
<wgt id='1581'> +1.2987444e-12 </wgt>
<wgt id='1582'> +1.2969083e-12 </wgt>
<wgt id='1583'> +1.2978648e-12 </wgt>
<wgt id='1584'> +1.2977426e-12 </wgt>
<wgt id='1585'> +1.2972300e-12 </wgt>
<wgt id='1586'> +1.2977098e-12 </wgt>
<wgt id='1587'> +1.2982852e-12 </wgt>
<wgt id='1588'> +1.2967190e-12 </wgt>
<wgt id='1589'> +1.2984848e-12 </wgt>
<wgt id='1590'> +1.2975035e-12 </wgt>
<wgt id='1591'> +1.2981361e-12 </wgt>
<wgt id='1592'> +1.2965687e-12 </wgt>
<wgt id='1593'> +1.2965480e-12 </wgt>
<wgt id='1594'> +1.2977024e-12 </wgt>
<wgt id='1595'> +1.2979667e-12 </wgt>
<wgt id='1596'> +1.2982168e-12 </wgt>
<wgt id='1597'> +1.2967222e-12 </wgt>
<wgt id='1598'> +1.2974585e-12 </wgt>
<wgt id='1599'> +1.2977469e-12 </wgt>
<wgt id='1600'> +1.2976904e-12 </wgt>
<wgt id='1601'> +1.2968591e-12 </wgt>
<wgt id='1602'> +1.2967368e-12 </wgt>
<wgt id='1603'> +1.2974881e-12 </wgt>
<wgt id='1604'> +1.2980324e-12 </wgt>
<wgt id='1605'> +1.2977131e-12 </wgt>
<wgt id='1606'> +1.2971288e-12 </wgt>
<wgt id='1607'> +1.2976877e-12 </wgt>
<wgt id='1608'> +1.2976456e-12 </wgt>
<wgt id='1609'> +1.2970393e-12 </wgt>
<wgt id='1610'> +1.2870940e-12 </wgt>
<wgt id='1611'> +1.3076685e-12 </wgt>
<wgt id='1612'> +1.5296338e-12 </wgt>
<wgt id='1613'> +1.5046102e-12 </wgt>
<wgt id='1614'> +1.5300341e-12 </wgt>
<wgt id='1615'> +1.5261294e-12 </wgt>
<wgt id='1616'> +1.5136686e-12 </wgt>
<wgt id='1617'> +1.5353844e-12 </wgt>
<wgt id='1618'> +1.5680567e-12 </wgt>
<wgt id='1619'> +1.5183524e-12 </wgt>
<wgt id='1620'> +1.4664652e-12 </wgt>
<wgt id='1621'> +1.5560069e-12 </wgt>
<wgt id='1622'> +1.5363365e-12 </wgt>
<wgt id='1623'> +1.5090238e-12 </wgt>
<wgt id='1624'> +1.5117202e-12 </wgt>
<wgt id='1625'> +1.5270808e-12 </wgt>
<wgt id='1626'> +1.5055949e-12 </wgt>
<wgt id='1627'> +1.5168533e-12 </wgt>
<wgt id='1628'> +1.5369609e-12 </wgt>
<wgt id='1629'> +1.5744509e-12 </wgt>
<wgt id='1630'> +1.5049928e-12 </wgt>
<wgt id='1631'> +1.5343772e-12 </wgt>
<wgt id='1632'> +1.4786723e-12 </wgt>
<wgt id='1633'> +1.4967960e-12 </wgt>
<wgt id='1634'> +1.5736973e-12 </wgt>
<wgt id='1635'> +1.5472988e-12 </wgt>
<wgt id='1636'> +1.5731249e-12 </wgt>
<wgt id='1637'> +1.5164120e-12 </wgt>
<wgt id='1638'> +1.5655941e-12 </wgt>
<wgt id='1639'> +1.4991886e-12 </wgt>
<wgt id='1640'> +1.5530203e-12 </wgt>
<wgt id='1641'> +1.5181066e-12 </wgt>
<wgt id='1642'> +1.5423045e-12 </wgt>
<wgt id='1643'> +1.5276648e-12 </wgt>
<wgt id='1644'> +1.5283681e-12 </wgt>
<wgt id='1645'> +1.5555887e-12 </wgt>
<wgt id='1646'> +1.5048301e-12 </wgt>
<wgt id='1647'> +1.5080537e-12 </wgt>
<wgt id='1648'> +1.5760964e-12 </wgt>
<wgt id='1649'> +1.5644463e-12 </wgt>
<wgt id='1650'> +1.5149833e-12 </wgt>
<wgt id='1651'> +1.4853479e-12 </wgt>
<wgt id='1652'> +1.4877574e-12 </wgt>
<wgt id='1653'> +1.5467002e-12 </wgt>
<wgt id='1654'> +1.5424340e-12 </wgt>
<wgt id='1655'> +1.5044217e-12 </wgt>
<wgt id='1656'> +1.5033412e-12 </wgt>
<wgt id='1657'> +1.4890222e-12 </wgt>
<wgt id='1658'> +1.5109347e-12 </wgt>
<wgt id='1659'> +1.5117202e-12 </wgt>
<wgt id='1660'> +1.5800134e-12 </wgt>
<wgt id='1661'> +1.5412857e-12 </wgt>
<wgt id='1662'> +1.5320697e-12 </wgt>
<wgt id='1663'> +1.5198976e-12 </wgt>
<wgt id='1664'> +1.5342724e-12 </wgt>
<wgt id='1665'> +1.5162843e-12 </wgt>
<wgt id='1666'> +1.5170301e-12 </wgt>
<wgt id='1667'> +1.4879056e-12 </wgt>
<wgt id='1668'> +1.5419563e-12 </wgt>
<wgt id='1669'> +1.5427566e-12 </wgt>
<wgt id='1670'> +1.5581640e-12 </wgt>
<wgt id='1671'> +1.5572607e-12 </wgt>
<wgt id='1672'> +1.5778866e-12 </wgt>
<wgt id='1673'> +1.5030540e-12 </wgt>
<wgt id='1674'> +1.4754809e-12 </wgt>
<wgt id='1675'> +1.5757451e-12 </wgt>
<wgt id='1676'> +1.5625968e-12 </wgt>
<wgt id='1677'> +1.5978590e-12 </wgt>
<wgt id='1678'> +1.5103365e-12 </wgt>
<wgt id='1679'> +1.5115019e-12 </wgt>
<wgt id='1680'> +1.5491770e-12 </wgt>
<wgt id='1681'> +1.5388886e-12 </wgt>
<wgt id='1682'> +1.5472864e-12 </wgt>
<wgt id='1683'> +1.4831686e-12 </wgt>
<wgt id='1684'> +1.5146246e-12 </wgt>
<wgt id='1685'> +1.5146792e-12 </wgt>
<wgt id='1686'> +1.5392708e-12 </wgt>
<wgt id='1687'> +1.5523751e-12 </wgt>
<wgt id='1688'> +1.5297662e-12 </wgt>
<wgt id='1689'> +1.5321999e-12 </wgt>
<wgt id='1690'> +1.5598439e-12 </wgt>
<wgt id='1691'> +1.5656859e-12 </wgt>
<wgt id='1692'> +1.5727973e-12 </wgt>
<wgt id='1693'> +1.5572548e-12 </wgt>
<wgt id='1694'> +1.5325154e-12 </wgt>
<wgt id='1695'> +1.5968264e-12 </wgt>
<wgt id='1696'> +1.5615017e-12 </wgt>
<wgt id='1697'> +1.5183400e-12 </wgt>
<wgt id='1698'> +1.5138189e-12 </wgt>
<wgt id='1699'> +1.5291272e-12 </wgt>
<wgt id='1700'> +1.5240512e-12 </wgt>
<wgt id='1701'> +1.5181148e-12 </wgt>
<wgt id='1702'> +1.5109985e-12 </wgt>
<wgt id='1703'> +1.5637145e-12 </wgt>
<wgt id='1704'> +1.5173569e-12 </wgt>
<wgt id='1705'> +1.4681577e-12 </wgt>
<wgt id='1706'> +1.5462770e-12 </wgt>
<wgt id='1707'> +1.4982089e-12 </wgt>
<wgt id='1708'> +1.5005665e-12 </wgt>
<wgt id='1709'> +1.5238366e-12 </wgt>
<wgt id='1710'> +1.4874527e-12 </wgt>
<wgt id='1711'> +1.5217064e-12 </wgt>
<wgt id='1712'> +1.5298585e-12 </wgt>
<wgt id='1713'> +1.2345752e-12 </wgt>
<wgt id='1714'> +1.1973747e-12 </wgt>
<wgt id='1715'> +1.2389878e-12 </wgt>
<wgt id='1716'> +1.2329647e-12 </wgt>
<wgt id='1717'> +1.2239792e-12 </wgt>
<wgt id='1718'> +1.2448940e-12 </wgt>
<wgt id='1719'> +1.2346563e-12 </wgt>
<wgt id='1720'> +1.2424757e-12 </wgt>
<wgt id='1721'> +1.1921237e-12 </wgt>
<wgt id='1722'> +1.2161887e-12 </wgt>
<wgt id='1723'> +1.2191436e-12 </wgt>
<wgt id='1724'> +1.3030870e-12 </wgt>
<wgt id='1725'> +1.2285250e-12 </wgt>
<wgt id='1726'> +1.2579355e-12 </wgt>
<wgt id='1727'> +1.2507077e-12 </wgt>
<wgt id='1728'> +1.2334117e-12 </wgt>
<wgt id='1729'> +1.2082770e-12 </wgt>
<wgt id='1730'> +1.2293021e-12 </wgt>
<wgt id='1731'> +1.1842417e-12 </wgt>
<wgt id='1732'> +1.2491546e-12 </wgt>
<wgt id='1733'> +1.2307948e-12 </wgt>
<wgt id='1734'> +1.2573990e-12 </wgt>
<wgt id='1735'> +1.2361243e-12 </wgt>
<wgt id='1736'> +1.2804602e-12 </wgt>
<wgt id='1737'> +1.2696288e-12 </wgt>
<wgt id='1738'> +1.2553758e-12 </wgt>
<wgt id='1739'> +1.1931470e-12 </wgt>
<wgt id='1740'> +1.2079877e-12 </wgt>
<wgt id='1741'> +1.2693432e-12 </wgt>
<wgt id='1742'> +1.2315845e-12 </wgt>
<wgt id='1743'> +1.2387646e-12 </wgt>
<wgt id='1744'> +1.2615175e-12 </wgt>
<wgt id='1745'> +1.2032272e-12 </wgt>
<wgt id='1746'> +1.2372842e-12 </wgt>
<wgt id='1747'> +1.2392846e-12 </wgt>
<wgt id='1748'> +1.2226367e-12 </wgt>
<wgt id='1749'> +1.2321826e-12 </wgt>
<wgt id='1750'> +1.2397607e-12 </wgt>
<wgt id='1751'> +1.2004676e-12 </wgt>
<wgt id='1752'> +1.2218937e-12 </wgt>
<wgt id='1753'> +1.2488670e-12 </wgt>
<wgt id='1754'> +1.2487355e-12 </wgt>
<wgt id='1755'> +1.2625571e-12 </wgt>
<wgt id='1756'> +1.2544917e-12 </wgt>
<wgt id='1757'> +1.2202787e-12 </wgt>
<wgt id='1758'> +1.2524638e-12 </wgt>
<wgt id='1759'> +1.2418763e-12 </wgt>
<wgt id='1760'> +1.2069993e-12 </wgt>
<wgt id='1761'> +1.2190386e-12 </wgt>
<wgt id='1762'> +1.2136538e-12 </wgt>
<wgt id='1763'> +1.2483125e-12 </wgt>
<wgt id='1764'> +1.2410410e-12 </wgt>
<wgt id='1765'> +1.2260577e-12 </wgt>
<wgt id='1766'> +1.2312649e-12 </wgt>
<wgt id='1767'> +1.2408058e-12 </wgt>
<wgt id='1768'> +1.2402472e-12 </wgt>
<wgt id='1769'> +1.2155712e-12 </wgt>
<wgt id='1770'> +1.2174618e-12 </wgt>
<wgt id='1771'> +1.2517239e-12 </wgt>
<wgt id='1772'> +1.2497253e-12 </wgt>
<wgt id='1773'> +1.2244168e-12 </wgt>
<wgt id='1774'> +1.2193575e-12 </wgt>
<wgt id='1775'> +1.2475395e-12 </wgt>
<wgt id='1776'> +1.2666524e-12 </wgt>
<wgt id='1777'> +1.1871477e-12 </wgt>
<wgt id='1778'> +1.2194238e-12 </wgt>
<wgt id='1779'> +1.2641190e-12 </wgt>
<wgt id='1780'> +1.2263910e-12 </wgt>
<wgt id='1781'> +1.2332881e-12 </wgt>
<wgt id='1782'> +1.2259695e-12 </wgt>
<wgt id='1783'> +1.2336638e-12 </wgt>
<wgt id='1784'> +1.2421456e-12 </wgt>
<wgt id='1785'> +1.2352969e-12 </wgt>
<wgt id='1786'> +1.1975865e-12 </wgt>
<wgt id='1787'> +1.2712474e-12 </wgt>
<wgt id='1788'> +1.2506974e-12 </wgt>
<wgt id='1789'> +1.2593835e-12 </wgt>
<wgt id='1790'> +1.2630619e-12 </wgt>
<wgt id='1791'> +1.2417111e-12 </wgt>
<wgt id='1792'> +1.2216987e-12 </wgt>
<wgt id='1793'> +1.2329304e-12 </wgt>
<wgt id='1794'> +1.2485326e-12 </wgt>
<wgt id='1795'> +1.2376897e-12 </wgt>
<wgt id='1796'> +1.2196973e-12 </wgt>
<wgt id='1797'> +1.2351046e-12 </wgt>
<wgt id='1798'> +1.2439757e-12 </wgt>
<wgt id='1799'> +1.2500868e-12 </wgt>
<wgt id='1800'> +1.2490225e-12 </wgt>
<wgt id='1801'> +1.2280610e-12 </wgt>
<wgt id='1802'> +1.2278188e-12 </wgt>
<wgt id='1803'> +1.2591980e-12 </wgt>
<wgt id='1804'> +1.2202988e-12 </wgt>
<wgt id='1805'> +1.2104118e-12 </wgt>
<wgt id='1806'> +1.2135569e-12 </wgt>
<wgt id='1807'> +1.2617450e-12 </wgt>
<wgt id='1808'> +1.2241475e-12 </wgt>
<wgt id='1809'> +1.2221562e-12 </wgt>
<wgt id='1810'> +1.2167156e-12 </wgt>
<wgt id='1811'> +1.2501591e-12 </wgt>
<wgt id='1812'> +1.2239239e-12 </wgt>
<wgt id='1813'> +1.2080671e-12 </wgt>
<wgt id='1814'> +1.4656611e-12 </wgt>
<wgt id='1815'> +1.6906527e-12 </wgt>
<wgt id='1816'> +1.2345752e-12 </wgt>
<wgt id='1817'> +1.1973747e-12 </wgt>
<wgt id='1818'> +1.2389878e-12 </wgt>
<wgt id='1819'> +1.2329647e-12 </wgt>
<wgt id='1820'> +1.2239792e-12 </wgt>
<wgt id='1821'> +1.2448940e-12 </wgt>
<wgt id='1822'> +1.2346563e-12 </wgt>
<wgt id='1823'> +1.2424757e-12 </wgt>
<wgt id='1824'> +1.1921237e-12 </wgt>
<wgt id='1825'> +1.2161887e-12 </wgt>
<wgt id='1826'> +1.2191436e-12 </wgt>
<wgt id='1827'> +1.3030870e-12 </wgt>
<wgt id='1828'> +1.2285250e-12 </wgt>
<wgt id='1829'> +1.2579355e-12 </wgt>
<wgt id='1830'> +1.2507077e-12 </wgt>
<wgt id='1831'> +1.2334117e-12 </wgt>
<wgt id='1832'> +1.2082770e-12 </wgt>
<wgt id='1833'> +1.2293021e-12 </wgt>
<wgt id='1834'> +1.1842417e-12 </wgt>
<wgt id='1835'> +1.2491546e-12 </wgt>
<wgt id='1836'> +1.2307948e-12 </wgt>
<wgt id='1837'> +1.2573990e-12 </wgt>
<wgt id='1838'> +1.2361243e-12 </wgt>
<wgt id='1839'> +1.2804602e-12 </wgt>
<wgt id='1840'> +1.2696288e-12 </wgt>
<wgt id='1841'> +1.2553758e-12 </wgt>
<wgt id='1842'> +1.1931470e-12 </wgt>
<wgt id='1843'> +1.2079877e-12 </wgt>
<wgt id='1844'> +1.2693432e-12 </wgt>
<wgt id='1845'> +1.2315845e-12 </wgt>
<wgt id='1846'> +1.2387646e-12 </wgt>
<wgt id='1847'> +1.2615175e-12 </wgt>
<wgt id='1848'> +1.2032272e-12 </wgt>
<wgt id='1849'> +1.2372842e-12 </wgt>
<wgt id='1850'> +1.2392846e-12 </wgt>
<wgt id='1851'> +1.2226367e-12 </wgt>
<wgt id='1852'> +1.2321826e-12 </wgt>
<wgt id='1853'> +1.2397607e-12 </wgt>
<wgt id='1854'> +1.2004676e-12 </wgt>
<wgt id='1855'> +1.2218937e-12 </wgt>
<wgt id='1856'> +1.2488670e-12 </wgt>
<wgt id='1857'> +1.2487355e-12 </wgt>
<wgt id='1858'> +1.2625571e-12 </wgt>
<wgt id='1859'> +1.2544917e-12 </wgt>
<wgt id='1860'> +1.2202787e-12 </wgt>
<wgt id='1861'> +1.2524638e-12 </wgt>
<wgt id='1862'> +1.2418763e-12 </wgt>
<wgt id='1863'> +1.2069993e-12 </wgt>
<wgt id='1864'> +1.2190386e-12 </wgt>
<wgt id='1865'> +1.2136538e-12 </wgt>
<wgt id='1866'> +1.2483125e-12 </wgt>
<wgt id='1867'> +1.2410410e-12 </wgt>
<wgt id='1868'> +1.2260577e-12 </wgt>
<wgt id='1869'> +1.2312649e-12 </wgt>
<wgt id='1870'> +1.2408058e-12 </wgt>
<wgt id='1871'> +1.2402472e-12 </wgt>
<wgt id='1872'> +1.2155712e-12 </wgt>
<wgt id='1873'> +1.2174618e-12 </wgt>
<wgt id='1874'> +1.2517239e-12 </wgt>
<wgt id='1875'> +1.2497253e-12 </wgt>
<wgt id='1876'> +1.2244168e-12 </wgt>
<wgt id='1877'> +1.2193575e-12 </wgt>
<wgt id='1878'> +1.2475395e-12 </wgt>
<wgt id='1879'> +1.2666524e-12 </wgt>
<wgt id='1880'> +1.1871477e-12 </wgt>
<wgt id='1881'> +1.2194238e-12 </wgt>
<wgt id='1882'> +1.2641190e-12 </wgt>
<wgt id='1883'> +1.2263910e-12 </wgt>
<wgt id='1884'> +1.2332881e-12 </wgt>
<wgt id='1885'> +1.2259695e-12 </wgt>
<wgt id='1886'> +1.2336638e-12 </wgt>
<wgt id='1887'> +1.2421456e-12 </wgt>
<wgt id='1888'> +1.2352969e-12 </wgt>
<wgt id='1889'> +1.1975865e-12 </wgt>
<wgt id='1890'> +1.2712474e-12 </wgt>
<wgt id='1891'> +1.2506974e-12 </wgt>
<wgt id='1892'> +1.2593835e-12 </wgt>
<wgt id='1893'> +1.2630619e-12 </wgt>
<wgt id='1894'> +1.2417111e-12 </wgt>
<wgt id='1895'> +1.2216987e-12 </wgt>
<wgt id='1896'> +1.2329304e-12 </wgt>
<wgt id='1897'> +1.2485326e-12 </wgt>
<wgt id='1898'> +1.2376897e-12 </wgt>
<wgt id='1899'> +1.2196973e-12 </wgt>
<wgt id='1900'> +1.2351046e-12 </wgt>
<wgt id='1901'> +1.2439757e-12 </wgt>
<wgt id='1902'> +1.2500868e-12 </wgt>
<wgt id='1903'> +1.2490225e-12 </wgt>
<wgt id='1904'> +1.2280610e-12 </wgt>
<wgt id='1905'> +1.2278188e-12 </wgt>
<wgt id='1906'> +1.2591980e-12 </wgt>
<wgt id='1907'> +1.2202988e-12 </wgt>
<wgt id='1908'> +1.2104118e-12 </wgt>
<wgt id='1909'> +1.2135569e-12 </wgt>
<wgt id='1910'> +1.2617450e-12 </wgt>
<wgt id='1911'> +1.2241475e-12 </wgt>
<wgt id='1912'> +1.2221562e-12 </wgt>
<wgt id='1913'> +1.2167156e-12 </wgt>
<wgt id='1914'> +1.2501591e-12 </wgt>
<wgt id='1915'> +1.2239239e-12 </wgt>
<wgt id='1916'> +1.2080671e-12 </wgt>
<wgt id='1917'> +1.2241931e-12 </wgt>
<wgt id='1918'> +1.2401903e-12 </wgt>
<wgt id='1919'> +1.2481782e-12 </wgt>
</rwgt>
</event>
<event>
 9      1 +1.5607000e-12 5.76410800e+01 7.81860800e-03 1.27768700e-01
       21 -1    0    0  501  502 +0.0000000000e+00 +0.0000000000e+00 +2.6845001783e+02 2.6845001783e+02 0.0000000000e+00 0.0000e+00 1.0000e+00
       -4 -1    0    0    0  501 -0.0000000000e+00 -0.0000000000e+00 -2.9292489242e+00 3.2552878920e+00 1.4200000000e+00 0.0000e+00 1.0000e+00
     1023  2    1    2    0    0 +8.3598364327e+00 -1.9249400160e+01 +6.2731302680e+01 6.7827866353e+01 1.4999228191e+01 0.0000e+00 0.0000e+00
  1000023  2    3    3    0    0 +1.9589712423e+00 -1.0600776394e+01 +1.9092482600e+01 2.2604903311e+01 5.4995211984e+00 0.0000e+00 0.0000e+00
       -4  1    1    2    0  502 -8.3598364327e+00 +1.9249400160e+01 +2.0278946623e+02 2.0387743937e+02 1.4200000000e+00 0.0000e+00 1.0000e+00
  1000022  1    4    4    0    0 +2.0304603953e+00 -1.0216153070e+01 +1.7695569012e+01 2.1133521136e+01 5.0000000000e+00 0.0000e+00 1.0000e+00
      -11  1    4    4    0    0 +8.9721050334e-02 -1.5285018777e-01 +4.6460799646e-01 4.9726642584e-01 5.1100000000e-04 0.0000e+00 1.0000e+00
       11  1    4    4    0    0 -1.6121020334e-01 -2.3177313693e-01 +9.3230559094e-01 9.7411574912e-01 5.1100000000e-04 0.0000e+00 -1.0000e+00
  1000022  1    3    3    0    0 +6.4008651903e+00 -8.6486237653e+00 +4.3638820081e+01 4.5222963042e+01 5.0000000000e+00 0.0000e+00 1.0000e+00
<mgrwt>
<rscale>  1 0.57641083E+02</rscale>
<asrwt>0</asrwt>
<pdfrwt beam="1">  1       21 0.41299984E-01 0.57641083E+02</pdfrwt>
<pdfrwt beam="2">  1       -4 0.47602271E-03 0.57641083E+02</pdfrwt>
<totfact> 0.23557443E+06</totfact>
</mgrwt>
<rwgt>
<wgt id='1001'> +1.5607000e-12 </wgt>
<wgt id='1002'> +1.5456270e-12 </wgt>
<wgt id='1003'> +1.5483642e-12 </wgt>
<wgt id='1004'> +1.4787534e-12 </wgt>
<wgt id='1005'> +1.5607000e-12 </wgt>
<wgt id='1006'> +1.3873939e-12 </wgt>
<wgt id='1007'> +1.3649707e-12 </wgt>
<wgt id='1008'> +1.3687906e-12 </wgt>
<wgt id='1009'> +1.2829980e-12 </wgt>
<wgt id='1010'> +1.3873939e-12 </wgt>
<wgt id='1011'> +1.7856015e-12 </wgt>
<wgt id='1012'> +1.7839263e-12 </wgt>
<wgt id='1013'> +1.7846082e-12 </wgt>
<wgt id='1014'> +1.7487739e-12 </wgt>
<wgt id='1015'> +1.7856015e-12 </wgt>
<wgt id='1016'> +1.7668531e-12 </wgt>
<wgt id='1017'> +1.7779791e-12 </wgt>
<wgt id='1018'> +1.7765894e-12 </wgt>
<wgt id='1019'> +1.7846082e-12 </wgt>
<wgt id='1020'> +1.7668531e-12 </wgt>
<wgt id='1021'> +1.5706549e-12 </wgt>
<wgt id='1022'> +1.5701650e-12 </wgt>
<wgt id='1023'> +1.5705471e-12 </wgt>
<wgt id='1024'> +1.5483642e-12 </wgt>
<wgt id='1025'> +1.5706549e-12 </wgt>
<wgt id='1026'> +2.0214618e-12 </wgt>
<wgt id='1027'> +2.0521017e-12 </wgt>
<wgt id='1028'> +2.0476552e-12 </wgt>
<wgt id='1029'> +2.1104778e-12 </wgt>
<wgt id='1030'> +2.0214618e-12 </wgt>
<wgt id='1031'> +1.3205193e-12 </wgt>
<wgt id='1032'> +1.2755453e-12 </wgt>
<wgt id='1033'> +1.2829980e-12 </wgt>
<wgt id='1034'> +1.1260006e-12 </wgt>
<wgt id='1035'> +1.3205193e-12 </wgt>
<wgt id='1036'> +1.1738838e-12 </wgt>
<wgt id='1037'> +1.1264568e-12 </wgt>
<wgt id='1038'> +1.1342006e-12 </wgt>
<wgt id='1039'> +9.7694219e-13 </wgt>
<wgt id='1040'> +1.1738838e-12 </wgt>
<wgt id='1041'> +1.5108101e-12 </wgt>
<wgt id='1042'> +1.4722044e-12 </wgt>
<wgt id='1043'> +1.4787534e-12 </wgt>
<wgt id='1044'> +1.3316084e-12 </wgt>
<wgt id='1045'> +1.5108101e-12 </wgt>
<wgt id='1046'> +1.5607000e-12 </wgt>
<wgt id='1047'> +1.5515030e-12 </wgt>
<wgt id='1048'> +1.5867976e-12 </wgt>
<wgt id='1049'> +1.5631474e-12 </wgt>
<wgt id='1050'> +1.5596220e-12 </wgt>
<wgt id='1051'> +1.5205871e-12 </wgt>
<wgt id='1052'> +1.5483146e-12 </wgt>
<wgt id='1053'> +1.5899212e-12 </wgt>
<wgt id='1054'> +1.5777320e-12 </wgt>
<wgt id='1055'> +1.5727850e-12 </wgt>
<wgt id='1056'> +1.5722499e-12 </wgt>
<wgt id='1057'> +1.5744270e-12 </wgt>
<wgt id='1058'> +1.5365514e-12 </wgt>
<wgt id='1059'> +1.5559494e-12 </wgt>
<wgt id='1060'> +1.5551128e-12 </wgt>
<wgt id='1061'> +1.5588464e-12 </wgt>
<wgt id='1062'> +1.5627300e-12 </wgt>
<wgt id='1063'> +1.5733502e-12 </wgt>
<wgt id='1064'> +1.5738781e-12 </wgt>
<wgt id='1065'> +1.5430347e-12 </wgt>
<wgt id='1066'> +1.5615782e-12 </wgt>
<wgt id='1067'> +1.5662230e-12 </wgt>
<wgt id='1068'> +1.5703441e-12 </wgt>
<wgt id='1069'> +1.5835778e-12 </wgt>
<wgt id='1070'> +1.5531617e-12 </wgt>
<wgt id='1071'> +1.5380914e-12 </wgt>
<wgt id='1072'> +1.5540640e-12 </wgt>
<wgt id='1073'> +1.5533012e-12 </wgt>
<wgt id='1074'> +1.5624307e-12 </wgt>
<wgt id='1075'> +1.5460979e-12 </wgt>
<wgt id='1076'> +1.5852394e-12 </wgt>
<wgt id='1077'> +1.6045832e-12 </wgt>
<wgt id='1078'> +1.5786018e-12 </wgt>
<wgt id='1079'> +1.5267697e-12 </wgt>
<wgt id='1080'> +1.5512002e-12 </wgt>
<wgt id='1081'> +1.5709869e-12 </wgt>
<wgt id='1082'> +1.5472310e-12 </wgt>
<wgt id='1083'> +1.5625857e-12 </wgt>
<wgt id='1084'> +1.5361198e-12 </wgt>
<wgt id='1085'> +1.5660277e-12 </wgt>
<wgt id='1086'> +1.5755634e-12 </wgt>
<wgt id='1087'> +1.5279139e-12 </wgt>
<wgt id='1088'> +1.5389662e-12 </wgt>
<wgt id='1089'> +1.5430277e-12 </wgt>
<wgt id='1090'> +1.5332570e-12 </wgt>
<wgt id='1091'> +1.5488737e-12 </wgt>
<wgt id='1092'> +1.5631724e-12 </wgt>
<wgt id='1093'> +1.5688930e-12 </wgt>
<wgt id='1094'> +1.5758052e-12 </wgt>
<wgt id='1095'> +1.5780551e-12 </wgt>
<wgt id='1096'> +1.5752111e-12 </wgt>
<wgt id='1097'> +1.5607106e-12 </wgt>
<wgt id='1098'> +1.5823345e-12 </wgt>
<wgt id='1099'> +1.5351565e-12 </wgt>
<wgt id='1100'> +1.5825199e-12 </wgt>
<wgt id='1101'> +1.5236022e-12 </wgt>
<wgt id='1102'> +1.5488543e-12 </wgt>
<wgt id='1103'> +1.5708821e-12 </wgt>
<wgt id='1104'> +1.5413703e-12 </wgt>
<wgt id='1105'> +1.5265591e-12 </wgt>
<wgt id='1106'> +1.5740873e-12 </wgt>
<wgt id='1107'> +1.5993375e-12 </wgt>
<wgt id='1108'> +1.5626859e-12 </wgt>
<wgt id='1109'> +1.5058428e-12 </wgt>
<wgt id='1110'> +1.5512794e-12 </wgt>
<wgt id='1111'> +1.5377853e-12 </wgt>
<wgt id='1112'> +1.5336283e-12 </wgt>
<wgt id='1113'> +1.5569055e-12 </wgt>
<wgt id='1114'> +1.5951004e-12 </wgt>
<wgt id='1115'> +1.5604980e-12 </wgt>
<wgt id='1116'> +1.6258366e-12 </wgt>
<wgt id='1117'> +1.5781680e-12 </wgt>
<wgt id='1118'> +1.5688016e-12 </wgt>
<wgt id='1119'> +1.5818302e-12 </wgt>
<wgt id='1120'> +1.5534329e-12 </wgt>
<wgt id='1121'> +1.5527420e-12 </wgt>
<wgt id='1122'> +1.5195520e-12 </wgt>
<wgt id='1123'> +1.5949807e-12 </wgt>
<wgt id='1124'> +1.5690904e-12 </wgt>
<wgt id='1125'> +1.5374759e-12 </wgt>
<wgt id='1126'> +1.5711848e-12 </wgt>
<wgt id='1127'> +1.5652552e-12 </wgt>
<wgt id='1128'> +1.5627300e-12 </wgt>
<wgt id='1129'> +1.5551297e-12 </wgt>
<wgt id='1130'> +1.5606052e-12 </wgt>
<wgt id='1131'> +1.6146967e-12 </wgt>
<wgt id='1132'> +1.5509426e-12 </wgt>
<wgt id='1133'> +1.5404154e-12 </wgt>
<wgt id='1134'> +1.5711115e-12 </wgt>
<wgt id='1135'> +1.5824118e-12 </wgt>
<wgt id='1136'> +1.5352789e-12 </wgt>
<wgt id='1137'> +1.5244320e-12 </wgt>
<wgt id='1138'> +1.5443994e-12 </wgt>
<wgt id='1139'> +1.5651715e-12 </wgt>
<wgt id='1140'> +1.5703889e-12 </wgt>
<wgt id='1141'> +1.5693454e-12 </wgt>
<wgt id='1142'> +1.5519685e-12 </wgt>
<wgt id='1143'> +1.5482334e-12 </wgt>
<wgt id='1144'> +1.5733338e-12 </wgt>
<wgt id='1145'> +1.5859691e-12 </wgt>
<wgt id='1146'> +1.5656630e-12 </wgt>
<wgt id='1147'> +1.2314547e-12 </wgt>
<wgt id='1148'> +1.2636069e-12 </wgt>
<wgt id='1149'> +1.2540918e-12 </wgt>
<wgt id='1150'> +1.2540946e-12 </wgt>
<wgt id='1151'> +1.0009200e-12 </wgt>
<wgt id='1152'> +1.4942732e-12 </wgt>
<wgt id='1153'> +1.4885236e-12 </wgt>
<wgt id='1154'> +1.4977091e-12 </wgt>
<wgt id='1155'> +1.4949684e-12 </wgt>
<wgt id='1156'> +1.4940692e-12 </wgt>
<wgt id='1157'> +1.4913916e-12 </wgt>
<wgt id='1158'> +1.4982058e-12 </wgt>
<wgt id='1159'> +1.4918708e-12 </wgt>
<wgt id='1160'> +1.4959071e-12 </wgt>
<wgt id='1161'> +1.4872752e-12 </wgt>
<wgt id='1162'> +1.4992217e-12 </wgt>
<wgt id='1163'> +1.4981199e-12 </wgt>
<wgt id='1164'> +1.4905498e-12 </wgt>
<wgt id='1165'> +1.4814519e-12 </wgt>
<wgt id='1166'> +1.5068285e-12 </wgt>
<wgt id='1167'> +1.5053960e-12 </wgt>
<wgt id='1168'> +1.4792981e-12 </wgt>
<wgt id='1169'> +1.4981529e-12 </wgt>
<wgt id='1170'> +1.4914271e-12 </wgt>
<wgt id='1171'> +1.4930707e-12 </wgt>
<wgt id='1172'> +1.4958525e-12 </wgt>
<wgt id='1173'> +1.4885111e-12 </wgt>
<wgt id='1174'> +1.4996463e-12 </wgt>
<wgt id='1175'> +1.4960638e-12 </wgt>
<wgt id='1176'> +1.4921351e-12 </wgt>
<wgt id='1177'> +1.4947949e-12 </wgt>
<wgt id='1178'> +1.4932993e-12 </wgt>
<wgt id='1179'> +1.5020177e-12 </wgt>
<wgt id='1180'> +1.4819223e-12 </wgt>
<wgt id='1181'> +1.4905929e-12 </wgt>
<wgt id='1182'> +1.4980354e-12 </wgt>
<wgt id='1183'> +1.4941592e-12 </wgt>
<wgt id='1184'> +1.4944287e-12 </wgt>
<wgt id='1185'> +1.4954976e-12 </wgt>
<wgt id='1186'> +1.4938040e-12 </wgt>
<wgt id='1187'> +1.4937977e-12 </wgt>
<wgt id='1188'> +1.4945505e-12 </wgt>
<wgt id='1189'> +1.4957468e-12 </wgt>
<wgt id='1190'> +1.4698468e-12 </wgt>
<wgt id='1191'> +1.4835012e-12 </wgt>
<wgt id='1192'> +1.5058410e-12 </wgt>
<wgt id='1193'> +1.2838182e-12 </wgt>
<wgt id='1194'> +1.2755650e-12 </wgt>
<wgt id='1195'> +1.2905587e-12 </wgt>
<wgt id='1196'> +1.2847116e-12 </wgt>
<wgt id='1197'> +1.2828206e-12 </wgt>
<wgt id='1198'> +1.2862876e-12 </wgt>
<wgt id='1199'> +1.2800760e-12 </wgt>
<wgt id='1200'> +1.2849915e-12 </wgt>
<wgt id='1201'> +1.2830393e-12 </wgt>
<wgt id='1202'> +1.2802445e-12 </wgt>
<wgt id='1203'> +1.2889351e-12 </wgt>
<wgt id='1204'> +1.2629145e-12 </wgt>
<wgt id='1205'> +1.2967494e-12 </wgt>
<wgt id='1206'> +1.2890564e-12 </wgt>
<wgt id='1207'> +1.2766888e-12 </wgt>
<wgt id='1208'> +1.2779315e-12 </wgt>
<wgt id='1209'> +1.2860626e-12 </wgt>
<wgt id='1210'> +1.2772415e-12 </wgt>
<wgt id='1211'> +1.2840375e-12 </wgt>
<wgt id='1212'> +1.2826328e-12 </wgt>
<wgt id='1213'> +1.2850394e-12 </wgt>
<wgt id='1214'> +1.2789329e-12 </wgt>
<wgt id='1215'> +1.2878291e-12 </wgt>
<wgt id='1216'> +1.2855174e-12 </wgt>
<wgt id='1217'> +1.2820262e-12 </wgt>
<wgt id='1218'> +1.2890255e-12 </wgt>
<wgt id='1219'> +1.2809955e-12 </wgt>
<wgt id='1220'> +1.2894230e-12 </wgt>
<wgt id='1221'> +1.2833198e-12 </wgt>
<wgt id='1222'> +1.2908824e-12 </wgt>
<wgt id='1223'> +1.2766684e-12 </wgt>
<wgt id='1224'> +1.2844443e-12 </wgt>
<wgt id='1225'> +1.2835570e-12 </wgt>
<wgt id='1226'> +1.2832319e-12 </wgt>
<wgt id='1227'> +1.2843939e-12 </wgt>
<wgt id='1228'> +1.2819998e-12 </wgt>
<wgt id='1229'> +1.2842739e-12 </wgt>
<wgt id='1230'> +1.2990400e-12 </wgt>
<wgt id='1231'> +1.2702149e-12 </wgt>
<wgt id='1232'> +1.2832043e-12 </wgt>
<wgt id='1233'> +1.2840234e-12 </wgt>
<wgt id='1234'> +1.2838182e-12 </wgt>
<wgt id='1235'> +1.2756842e-12 </wgt>
<wgt id='1236'> +1.2788262e-12 </wgt>
<wgt id='1237'> +1.2815777e-12 </wgt>
<wgt id='1238'> +1.2864650e-12 </wgt>
<wgt id='1239'> +1.2881964e-12 </wgt>
<wgt id='1240'> +1.2900457e-12 </wgt>
<wgt id='1241'> +1.2356040e-12 </wgt>
<wgt id='1242'> +1.2248262e-12 </wgt>
<wgt id='1243'> +1.2461997e-12 </wgt>
<wgt id='1244'> +1.2323147e-12 </wgt>
<wgt id='1245'> +1.2379925e-12 </wgt>
<wgt id='1246'> +1.2365705e-12 </wgt>
<wgt id='1247'> +1.2348290e-12 </wgt>
<wgt id='1248'> +1.2354281e-12 </wgt>
<wgt id='1249'> +1.2356496e-12 </wgt>
<wgt id='1250'> +1.2319631e-12 </wgt>
<wgt id='1251'> +1.2381500e-12 </wgt>
<wgt id='1252'> +1.2333395e-12 </wgt>
<wgt id='1253'> +1.2373021e-12 </wgt>
<wgt id='1254'> +1.2184274e-12 </wgt>
<wgt id='1255'> +1.2459336e-12 </wgt>
<wgt id='1256'> +1.2396342e-12 </wgt>
<wgt id='1257'> +1.2254317e-12 </wgt>
<wgt id='1258'> +1.2372430e-12 </wgt>
<wgt id='1259'> +1.2319458e-12 </wgt>
<wgt id='1260'> +1.2380591e-12 </wgt>
<wgt id='1261'> +1.2329917e-12 </wgt>
<wgt id='1262'> +1.2362116e-12 </wgt>
<wgt id='1263'> +1.2351820e-12 </wgt>
<wgt id='1264'> +1.2448307e-12 </wgt>
<wgt id='1265'> +1.2313143e-12 </wgt>
<wgt id='1266'> +1.2297904e-12 </wgt>
<wgt id='1267'> +1.2423435e-12 </wgt>
<wgt id='1268'> +1.2376430e-12 </wgt>
<wgt id='1269'> +1.2369877e-12 </wgt>
<wgt id='1270'> +1.2360768e-12 </wgt>
<wgt id='1271'> +1.2361423e-12 </wgt>
<wgt id='1272'> +1.2362872e-12 </wgt>
<wgt id='1273'> +1.2356713e-12 </wgt>
<wgt id='1274'> +1.2360749e-12 </wgt>
<wgt id='1275'> +1.2346283e-12 </wgt>
<wgt id='1276'> +1.2346745e-12 </wgt>
<wgt id='1277'> +1.2356158e-12 </wgt>
<wgt id='1278'> +1.2331865e-12 </wgt>
<wgt id='1279'> +1.2427793e-12 </wgt>
<wgt id='1280'> +1.2355080e-12 </wgt>
<wgt id='1281'> +1.2384297e-12 </wgt>
<wgt id='1282'> +1.2356040e-12 </wgt>
<wgt id='1283'> +1.2272372e-12 </wgt>
<wgt id='1284'> +1.2306781e-12 </wgt>
<wgt id='1285'> +1.2333707e-12 </wgt>
<wgt id='1286'> +1.2380610e-12 </wgt>
<wgt id='1287'> +1.2397095e-12 </wgt>
<wgt id='1288'> +1.2412257e-12 </wgt>
<wgt id='1289'> +1.3303389e-12 </wgt>
<wgt id='1290'> +1.3338362e-12 </wgt>
<wgt id='1291'> +1.3266229e-12 </wgt>
<wgt id='1292'> +1.3315152e-12 </wgt>
<wgt id='1293'> +1.3295008e-12 </wgt>
<wgt id='1294'> +1.3243553e-12 </wgt>
<wgt id='1295'> +1.3359971e-12 </wgt>
<wgt id='1296'> +1.3289081e-12 </wgt>
<wgt id='1297'> +1.3321106e-12 </wgt>
<wgt id='1298'> +1.3415205e-12 </wgt>
<wgt id='1299'> +1.3165207e-12 </wgt>
<wgt id='1300'> +1.3349426e-12 </wgt>
<wgt id='1301'> +1.3212107e-12 </wgt>
<wgt id='1302'> +1.3286907e-12 </wgt>
<wgt id='1303'> +1.3326468e-12 </wgt>
<wgt id='1304'> +1.3263157e-12 </wgt>
<wgt id='1305'> +1.3330511e-12 </wgt>
<wgt id='1306'> +1.3214130e-12 </wgt>
<wgt id='1307'> +1.3404335e-12 </wgt>
<wgt id='1308'> +1.3284217e-12 </wgt>
<wgt id='1309'> +1.3317795e-12 </wgt>
<wgt id='1310'> +1.3277415e-12 </wgt>
<wgt id='1311'> +1.3333361e-12 </wgt>
<wgt id='1312'> +1.3221392e-12 </wgt>
<wgt id='1313'> +1.3390829e-12 </wgt>
<wgt id='1314'> +1.3234659e-12 </wgt>
<wgt id='1315'> +1.3311922e-12 </wgt>
<wgt id='1316'> +1.3364695e-12 </wgt>
<wgt id='1317'> +1.3319334e-12 </wgt>
<wgt id='1318'> +1.3360205e-12 </wgt>
<wgt id='1319'> +1.3228190e-12 </wgt>
<wgt id='1320'> +1.3328695e-12 </wgt>
<wgt id='1321'> +1.3265279e-12 </wgt>
<wgt id='1322'> +1.3316325e-12 </wgt>
<wgt id='1323'> +1.3284418e-12 </wgt>
<wgt id='1324'> +1.3308288e-12 </wgt>
<wgt id='1325'> +1.3341740e-12 </wgt>
<wgt id='1326'> +1.3330122e-12 </wgt>
<wgt id='1327'> +1.3308118e-12 </wgt>
<wgt id='1328'> +1.3284535e-12 </wgt>
<wgt id='1329'> +1.3320429e-12 </wgt>
<wgt id='1330'> +1.3295410e-12 </wgt>
<wgt id='1331'> +1.3319669e-12 </wgt>
<wgt id='1332'> +1.3563968e-12 </wgt>
<wgt id='1333'> +1.3243154e-12 </wgt>
<wgt id='1334'> +1.3292204e-12 </wgt>
<wgt id='1335'> +1.3340616e-12 </wgt>
<wgt id='1336'> +1.3380131e-12 </wgt>
<wgt id='1337'> +1.3219152e-12 </wgt>
<wgt id='1338'> +1.3328589e-12 </wgt>
<wgt id='1339'> +1.3291588e-12 </wgt>
<wgt id='1340'> +1.3002742e-12 </wgt>
<wgt id='1341'> +1.3036673e-12 </wgt>
<wgt id='1342'> +1.2965440e-12 </wgt>
<wgt id='1343'> +1.3015619e-12 </wgt>
<wgt id='1344'> +1.2993898e-12 </wgt>
<wgt id='1345'> +1.2940577e-12 </wgt>
<wgt id='1346'> +1.3058680e-12 </wgt>
<wgt id='1347'> +1.2988538e-12 </wgt>
<wgt id='1348'> +1.3017117e-12 </wgt>
<wgt id='1349'> +1.3106627e-12 </wgt>
<wgt id='1350'> +1.2900743e-12 </wgt>
<wgt id='1351'> +1.3048417e-12 </wgt>
<wgt id='1352'> +1.2900990e-12 </wgt>
<wgt id='1353'> +1.2977620e-12 </wgt>
<wgt id='1354'> +1.3046237e-12 </wgt>
<wgt id='1355'> +1.2963176e-12 </wgt>
<wgt id='1356'> +1.3024828e-12 </wgt>
<wgt id='1357'> +1.2905119e-12 </wgt>
<wgt id='1358'> +1.3116796e-12 </wgt>
<wgt id='1359'> +1.3005929e-12 </wgt>
<wgt id='1360'> +1.2999817e-12 </wgt>
<wgt id='1361'> +1.2977323e-12 </wgt>
<wgt id='1362'> +1.3036361e-12 </wgt>
<wgt id='1363'> +1.2906504e-12 </wgt>
<wgt id='1364'> +1.3073613e-12 </wgt>
<wgt id='1365'> +1.3026716e-12 </wgt>
<wgt id='1366'> +1.2889884e-12 </wgt>
<wgt id='1367'> +1.3061998e-12 </wgt>
<wgt id='1368'> +1.3008124e-12 </wgt>
<wgt id='1369'> +1.3053439e-12 </wgt>
<wgt id='1370'> +1.2938767e-12 </wgt>
<wgt id='1371'> +1.3036193e-12 </wgt>
<wgt id='1372'> +1.2950956e-12 </wgt>
<wgt id='1373'> +1.3012899e-12 </wgt>
<wgt id='1374'> +1.2986869e-12 </wgt>
<wgt id='1375'> +1.3004042e-12 </wgt>
<wgt id='1376'> +1.3043682e-12 </wgt>
<wgt id='1377'> +1.3030010e-12 </wgt>
<wgt id='1378'> +1.3010151e-12 </wgt>
<wgt id='1379'> +1.2984394e-12 </wgt>
<wgt id='1380'> +1.3020554e-12 </wgt>
<wgt id='1381'> +1.3004046e-12 </wgt>
<wgt id='1382'> +1.3005946e-12 </wgt>
<wgt id='1383'> +1.3243402e-12 </wgt>
<wgt id='1384'> +1.2945145e-12 </wgt>
<wgt id='1385'> +1.2992520e-12 </wgt>
<wgt id='1386'> +1.3030901e-12 </wgt>
<wgt id='1387'> +1.3085384e-12 </wgt>
<wgt id='1388'> +1.2911442e-12 </wgt>
<wgt id='1389'> +1.3039715e-12 </wgt>
<wgt id='1390'> +1.2984780e-12 </wgt>
<wgt id='1391'> +1.2766759e-12 </wgt>
<wgt id='1392'> +1.2346144e-12 </wgt>
<wgt id='1393'> +1.2489280e-12 </wgt>
<wgt id='1394'> +1.2634185e-12 </wgt>
<wgt id='1395'> +1.2909541e-12 </wgt>
<wgt id='1396'> +1.2769670e-12 </wgt>
<wgt id='1397'> +1.2851753e-12 </wgt>
<wgt id='1398'> +1.2831052e-12 </wgt>
<wgt id='1399'> +1.2814015e-12 </wgt>
<wgt id='1400'> +1.2800798e-12 </wgt>
<wgt id='1401'> +1.2785741e-12 </wgt>
<wgt id='1402'> +1.2758084e-12 </wgt>
<wgt id='1403'> +1.2747093e-12 </wgt>
<wgt id='1404'> +1.2735423e-12 </wgt>
<wgt id='1405'> +1.2769670e-12 </wgt>
<wgt id='1406'> +1.2709274e-12 </wgt>
<wgt id='1407'> +1.2740158e-12 </wgt>
<wgt id='1408'> +1.2797515e-12 </wgt>
<wgt id='1409'> +1.2820525e-12 </wgt>
<wgt id='1410'> +1.2061774e-12 </wgt>
<wgt id='1411'> +1.2105621e-12 </wgt>
<wgt id='1412'> +1.2006093e-12 </wgt>
<wgt id='1413'> +1.2052974e-12 </wgt>
<wgt id='1414'> +1.2070649e-12 </wgt>
<wgt id='1415'> +1.2068811e-12 </wgt>
<wgt id='1416'> +1.2058901e-12 </wgt>
<wgt id='1417'> +1.2002065e-12 </wgt>
<wgt id='1418'> +1.2121582e-12 </wgt>
<wgt id='1419'> +1.2105781e-12 </wgt>
<wgt id='1420'> +1.2019169e-12 </wgt>
<wgt id='1421'> +1.1851677e-12 </wgt>
<wgt id='1422'> +1.2152395e-12 </wgt>
<wgt id='1423'> +1.2060017e-12 </wgt>
<wgt id='1424'> +1.2064022e-12 </wgt>
<wgt id='1425'> +1.1997951e-12 </wgt>
<wgt id='1426'> +1.2130635e-12 </wgt>
<wgt id='1427'> +1.1889130e-12 </wgt>
<wgt id='1428'> +1.2154669e-12 </wgt>
<wgt id='1429'> +1.2031851e-12 </wgt>
<wgt id='1430'> +1.2104158e-12 </wgt>
<wgt id='1431'> +1.2089063e-12 </wgt>
<wgt id='1432'> +1.2042195e-12 </wgt>
<wgt id='1433'> +1.2048531e-12 </wgt>
<wgt id='1434'> +1.2049165e-12 </wgt>
<wgt id='1435'> +1.2083296e-12 </wgt>
<wgt id='1436'> +1.2014086e-12 </wgt>
<wgt id='1437'> +1.2129261e-12 </wgt>
<wgt id='1438'> +1.2071776e-12 </wgt>
<wgt id='1439'> +1.2028486e-12 </wgt>
<wgt id='1440'> +1.2105453e-12 </wgt>
<wgt id='1441'> +1.2073670e-12 </wgt>
<wgt id='1442'> +1.2043924e-12 </wgt>
<wgt id='1443'> +1.2054405e-12 </wgt>
<wgt id='1444'> +1.2098768e-12 </wgt>
<wgt id='1445'> +1.2100856e-12 </wgt>
<wgt id='1446'> +1.2062623e-12 </wgt>
<wgt id='1447'> +1.2069606e-12 </wgt>
<wgt id='1448'> +1.2086259e-12 </wgt>
<wgt id='1449'> +1.2044676e-12 </wgt>
<wgt id='1450'> +1.2072328e-12 </wgt>
<wgt id='1451'> +1.2044249e-12 </wgt>
<wgt id='1452'> +1.2109459e-12 </wgt>
<wgt id='1453'> +1.2068981e-12 </wgt>
<wgt id='1454'> +1.2019554e-12 </wgt>
<wgt id='1455'> +1.2014036e-12 </wgt>
<wgt id='1456'> +1.2169020e-12 </wgt>
<wgt id='1457'> +1.2114108e-12 </wgt>
<wgt id='1458'> +1.2049226e-12 </wgt>
<wgt id='1459'> +1.2079403e-12 </wgt>
<wgt id='1460'> +1.2129961e-12 </wgt>
<wgt id='1461'> +1.2061774e-12 </wgt>
<wgt id='1462'> +1.1967048e-12 </wgt>
<wgt id='1463'> +1.2134258e-12 </wgt>
<wgt id='1464'> +1.2050349e-12 </wgt>
<wgt id='1465'> +1.2220385e-12 </wgt>
<wgt id='1466'> +1.2175083e-12 </wgt>
<wgt id='1467'> +1.2136573e-12 </wgt>
<wgt id='1468'> +1.2122524e-12 </wgt>
<wgt id='1469'> +1.2079839e-12 </wgt>
<wgt id='1470'> +1.2026092e-12 </wgt>
<wgt id='1471'> +1.1991504e-12 </wgt>
<wgt id='1472'> +1.1966017e-12 </wgt>
<wgt id='1473'> +1.2050349e-12 </wgt>
<wgt id='1474'> +1.1992535e-12 </wgt>
<wgt id='1475'> +1.2028205e-12 </wgt>
<wgt id='1476'> +1.2073385e-12 </wgt>
<wgt id='1477'> +1.2093499e-12 </wgt>
<wgt id='1478'> +1.2649721e-12 </wgt>
<wgt id='1479'> +1.2662997e-12 </wgt>
<wgt id='1480'> +1.2668916e-12 </wgt>
<wgt id='1481'> +1.2688756e-12 </wgt>
<wgt id='1482'> +1.2720910e-12 </wgt>
<wgt id='1483'> +1.2546741e-12 </wgt>
<wgt id='1484'> +1.2657962e-12 </wgt>
<wgt id='1485'> +1.2852961e-12 </wgt>
<wgt id='1486'> +1.2645092e-12 </wgt>
<wgt id='1487'> +1.2697604e-12 </wgt>
<wgt id='1488'> +1.2601648e-12 </wgt>
<wgt id='1489'> +1.2713588e-12 </wgt>
<wgt id='1490'> +1.2669778e-12 </wgt>
<wgt id='1491'> +1.2690158e-12 </wgt>
<wgt id='1492'> +1.2613984e-12 </wgt>
<wgt id='1493'> +1.2549417e-12 </wgt>
<wgt id='1494'> +1.2665297e-12 </wgt>
<wgt id='1495'> +1.2774166e-12 </wgt>
<wgt id='1496'> +1.2641493e-12 </wgt>
<wgt id='1497'> +1.2714071e-12 </wgt>
<wgt id='1498'> +1.2626524e-12 </wgt>
<wgt id='1499'> +1.2690573e-12 </wgt>
<wgt id='1500'> +1.2632084e-12 </wgt>
<wgt id='1501'> +1.2643675e-12 </wgt>
<wgt id='1502'> +1.2668426e-12 </wgt>
<wgt id='1503'> +1.2700186e-12 </wgt>
<wgt id='1504'> +1.2666168e-12 </wgt>
<wgt id='1505'> +1.2644025e-12 </wgt>
<wgt id='1506'> +1.2672551e-12 </wgt>
<wgt id='1507'> +1.2637108e-12 </wgt>
<wgt id='1508'> +1.2754930e-12 </wgt>
<wgt id='1509'> +1.2690839e-12 </wgt>
<wgt id='1510'> +1.2684775e-12 </wgt>
<wgt id='1511'> +1.2621562e-12 </wgt>
<wgt id='1512'> +1.2601929e-12 </wgt>
<wgt id='1513'> +1.2722740e-12 </wgt>
<wgt id='1514'> +1.2735212e-12 </wgt>
<wgt id='1515'> +1.2707383e-12 </wgt>
<wgt id='1516'> +1.2752843e-12 </wgt>
<wgt id='1517'> +1.2719018e-12 </wgt>
<wgt id='1518'> +1.2693082e-12 </wgt>
<wgt id='1519'> +1.2647736e-12 </wgt>
<wgt id='1520'> +1.2695383e-12 </wgt>
<wgt id='1521'> +1.2693821e-12 </wgt>
<wgt id='1522'> +1.2710161e-12 </wgt>
<wgt id='1523'> +1.2746940e-12 </wgt>
<wgt id='1524'> +1.2709787e-12 </wgt>
<wgt id='1525'> +1.2700790e-12 </wgt>
<wgt id='1526'> +1.2724366e-12 </wgt>
<wgt id='1527'> +1.2709015e-12 </wgt>
<wgt id='1528'> +1.2660204e-12 </wgt>
<wgt id='1529'> +1.2712424e-12 </wgt>
<wgt id='1530'> +1.2618176e-12 </wgt>
<wgt id='1531'> +1.2721042e-12 </wgt>
<wgt id='1532'> +1.2697183e-12 </wgt>
<wgt id='1533'> +1.2670956e-12 </wgt>
<wgt id='1534'> +1.2723705e-12 </wgt>
<wgt id='1535'> +1.2757053e-12 </wgt>
<wgt id='1536'> +1.2696422e-12 </wgt>
<wgt id='1537'> +1.2661983e-12 </wgt>
<wgt id='1538'> +1.2688550e-12 </wgt>
<wgt id='1539'> +1.2696322e-12 </wgt>
<wgt id='1540'> +1.2703515e-12 </wgt>
<wgt id='1541'> +1.2682321e-12 </wgt>
<wgt id='1542'> +1.2682570e-12 </wgt>
<wgt id='1543'> +1.2701622e-12 </wgt>
<wgt id='1544'> +1.2696935e-12 </wgt>
<wgt id='1545'> +1.2696274e-12 </wgt>
<wgt id='1546'> +1.2685804e-12 </wgt>
<wgt id='1547'> +1.2696813e-12 </wgt>
<wgt id='1548'> +1.2692103e-12 </wgt>
<wgt id='1549'> +1.2698401e-12 </wgt>
<wgt id='1550'> +1.2694094e-12 </wgt>
<wgt id='1551'> +1.2679343e-12 </wgt>
<wgt id='1552'> +1.2698964e-12 </wgt>
<wgt id='1553'> +1.2700874e-12 </wgt>
<wgt id='1554'> +1.2693877e-12 </wgt>
<wgt id='1555'> +1.2700357e-12 </wgt>
<wgt id='1556'> +1.2696922e-12 </wgt>
<wgt id='1557'> +1.2694520e-12 </wgt>
<wgt id='1558'> +1.2692148e-12 </wgt>
<wgt id='1559'> +1.2684146e-12 </wgt>
<wgt id='1560'> +1.2698196e-12 </wgt>
<wgt id='1561'> +1.2686051e-12 </wgt>
<wgt id='1562'> +1.2686890e-12 </wgt>
<wgt id='1563'> +1.2692245e-12 </wgt>
<wgt id='1564'> +1.2688563e-12 </wgt>
<wgt id='1565'> +1.2692027e-12 </wgt>
<wgt id='1566'> +1.2688504e-12 </wgt>
<wgt id='1567'> +1.2689432e-12 </wgt>
<wgt id='1568'> +1.2687560e-12 </wgt>
<wgt id='1569'> +1.2693542e-12 </wgt>
<wgt id='1570'> +1.2692216e-12 </wgt>
<wgt id='1571'> +1.2688937e-12 </wgt>
<wgt id='1572'> +1.2690023e-12 </wgt>
<wgt id='1573'> +1.2689279e-12 </wgt>
<wgt id='1574'> +1.2687918e-12 </wgt>
<wgt id='1575'> +1.2686860e-12 </wgt>
<wgt id='1576'> +1.2692558e-12 </wgt>
<wgt id='1577'> +1.2692947e-12 </wgt>
<wgt id='1578'> +1.2692060e-12 </wgt>
<wgt id='1579'> +1.2693913e-12 </wgt>
<wgt id='1580'> +1.2693527e-12 </wgt>
<wgt id='1581'> +1.2693003e-12 </wgt>
<wgt id='1582'> +1.2690779e-12 </wgt>
<wgt id='1583'> +1.2691342e-12 </wgt>
<wgt id='1584'> +1.2693015e-12 </wgt>
<wgt id='1585'> +1.2690461e-12 </wgt>
<wgt id='1586'> +1.2695845e-12 </wgt>
<wgt id='1587'> +1.2692975e-12 </wgt>
<wgt id='1588'> +1.2690776e-12 </wgt>
<wgt id='1589'> +1.2689126e-12 </wgt>
<wgt id='1590'> +1.2692275e-12 </wgt>
<wgt id='1591'> +1.2688379e-12 </wgt>
<wgt id='1592'> +1.2691739e-12 </wgt>
<wgt id='1593'> +1.2691936e-12 </wgt>
<wgt id='1594'> +1.2684212e-12 </wgt>
<wgt id='1595'> +1.2691832e-12 </wgt>
<wgt id='1596'> +1.2687607e-12 </wgt>
<wgt id='1597'> +1.2689801e-12 </wgt>
<wgt id='1598'> +1.2693001e-12 </wgt>
<wgt id='1599'> +1.2689137e-12 </wgt>
<wgt id='1600'> +1.2685885e-12 </wgt>
<wgt id='1601'> +1.2690900e-12 </wgt>
<wgt id='1602'> +1.2692902e-12 </wgt>
<wgt id='1603'> +1.2691764e-12 </wgt>
<wgt id='1604'> +1.2689925e-12 </wgt>
<wgt id='1605'> +1.2693532e-12 </wgt>
<wgt id='1606'> +1.2686831e-12 </wgt>
<wgt id='1607'> +1.2694075e-12 </wgt>
<wgt id='1608'> +1.2693429e-12 </wgt>
<wgt id='1609'> +1.2690120e-12 </wgt>
<wgt id='1610'> +1.2393605e-12 </wgt>
<wgt id='1611'> +1.3021627e-12 </wgt>
<wgt id='1612'> +1.4999126e-12 </wgt>
<wgt id='1613'> +1.4840176e-12 </wgt>
<wgt id='1614'> +1.4934330e-12 </wgt>
<wgt id='1615'> +1.5113982e-12 </wgt>
<wgt id='1616'> +1.4724692e-12 </wgt>
<wgt id='1617'> +1.4797112e-12 </wgt>
<wgt id='1618'> +1.4870872e-12 </wgt>
<wgt id='1619'> +1.4920065e-12 </wgt>
<wgt id='1620'> +1.4952047e-12 </wgt>
<wgt id='1621'> +1.5302207e-12 </wgt>
<wgt id='1622'> +1.5242985e-12 </wgt>
<wgt id='1623'> +1.5153563e-12 </wgt>
<wgt id='1624'> +1.5253219e-12 </wgt>
<wgt id='1625'> +1.4953939e-12 </wgt>
<wgt id='1626'> +1.4996531e-12 </wgt>
<wgt id='1627'> +1.5228391e-12 </wgt>
<wgt id='1628'> +1.5422956e-12 </wgt>
<wgt id='1629'> +1.5370213e-12 </wgt>
<wgt id='1630'> +1.4806430e-12 </wgt>
<wgt id='1631'> +1.5099371e-12 </wgt>
<wgt id='1632'> +1.4948660e-12 </wgt>
<wgt id='1633'> +1.4881219e-12 </wgt>
<wgt id='1634'> +1.4832312e-12 </wgt>
<wgt id='1635'> +1.4712685e-12 </wgt>
<wgt id='1636'> +1.5060777e-12 </wgt>
<wgt id='1637'> +1.4633922e-12 </wgt>
<wgt id='1638'> +1.4861243e-12 </wgt>
<wgt id='1639'> +1.5082146e-12 </wgt>
<wgt id='1640'> +1.4894588e-12 </wgt>
<wgt id='1641'> +1.4796467e-12 </wgt>
<wgt id='1642'> +1.4875997e-12 </wgt>
<wgt id='1643'> +1.5017203e-12 </wgt>
<wgt id='1644'> +1.4754863e-12 </wgt>
<wgt id='1645'> +1.5113641e-12 </wgt>
<wgt id='1646'> +1.5179783e-12 </wgt>
<wgt id='1647'> +1.4905228e-12 </wgt>
<wgt id='1648'> +1.5335316e-12 </wgt>
<wgt id='1649'> +1.5164958e-12 </wgt>
<wgt id='1650'> +1.5002187e-12 </wgt>
<wgt id='1651'> +1.5079321e-12 </wgt>
<wgt id='1652'> +1.4984340e-12 </wgt>
<wgt id='1653'> +1.5014399e-12 </wgt>
<wgt id='1654'> +1.4891142e-12 </wgt>
<wgt id='1655'> +1.5260364e-12 </wgt>
<wgt id='1656'> +1.5265569e-12 </wgt>
<wgt id='1657'> +1.4916378e-12 </wgt>
<wgt id='1658'> +1.5325280e-12 </wgt>
<wgt id='1659'> +1.5253219e-12 </wgt>
<wgt id='1660'> +1.5128775e-12 </wgt>
<wgt id='1661'> +1.4908905e-12 </wgt>
<wgt id='1662'> +1.5051127e-12 </wgt>
<wgt id='1663'> +1.4759274e-12 </wgt>
<wgt id='1664'> +1.5204522e-12 </wgt>
<wgt id='1665'> +1.4823562e-12 </wgt>
<wgt id='1666'> +1.4747807e-12 </wgt>
<wgt id='1667'> +1.5154044e-12 </wgt>
<wgt id='1668'> +1.4893221e-12 </wgt>
<wgt id='1669'> +1.5027224e-12 </wgt>
<wgt id='1670'> +1.4812777e-12 </wgt>
<wgt id='1671'> +1.4789475e-12 </wgt>
<wgt id='1672'> +1.5202191e-12 </wgt>
<wgt id='1673'> +1.4885680e-12 </wgt>
<wgt id='1674'> +1.4858487e-12 </wgt>
<wgt id='1675'> +1.4839670e-12 </wgt>
<wgt id='1676'> +1.5040271e-12 </wgt>
<wgt id='1677'> +1.4783697e-12 </wgt>
<wgt id='1678'> +1.4810890e-12 </wgt>
<wgt id='1679'> +1.4948181e-12 </wgt>
<wgt id='1680'> +1.5151180e-12 </wgt>
<wgt id='1681'> +1.4993768e-12 </wgt>
<wgt id='1682'> +1.4759229e-12 </wgt>
<wgt id='1683'> +1.5092496e-12 </wgt>
<wgt id='1684'> +1.4899493e-12 </wgt>
<wgt id='1685'> +1.5015310e-12 </wgt>
<wgt id='1686'> +1.4897938e-12 </wgt>
<wgt id='1687'> +1.4924046e-12 </wgt>
<wgt id='1688'> +1.4905971e-12 </wgt>
<wgt id='1689'> +1.5222626e-12 </wgt>
<wgt id='1690'> +1.4786022e-12 </wgt>
<wgt id='1691'> +1.5053107e-12 </wgt>
<wgt id='1692'> +1.5207421e-12 </wgt>
<wgt id='1693'> +1.4784546e-12 </wgt>
<wgt id='1694'> +1.5014127e-12 </wgt>
<wgt id='1695'> +1.5404852e-12 </wgt>
<wgt id='1696'> +1.4855196e-12 </wgt>
<wgt id='1697'> +1.5027718e-12 </wgt>
<wgt id='1698'> +1.4908198e-12 </wgt>
<wgt id='1699'> +1.5061768e-12 </wgt>
<wgt id='1700'> +1.4993521e-12 </wgt>
<wgt id='1701'> +1.5342870e-12 </wgt>
<wgt id='1702'> +1.4563820e-12 </wgt>
<wgt id='1703'> +1.5031179e-12 </wgt>
<wgt id='1704'> +1.5067440e-12 </wgt>
<wgt id='1705'> +1.5042409e-12 </wgt>
<wgt id='1706'> +1.5064481e-12 </wgt>
<wgt id='1707'> +1.4893203e-12 </wgt>
<wgt id='1708'> +1.5143736e-12 </wgt>
<wgt id='1709'> +1.5221368e-12 </wgt>
<wgt id='1710'> +1.4671340e-12 </wgt>
<wgt id='1711'> +1.4856211e-12 </wgt>
<wgt id='1712'> +1.5310184e-12 </wgt>
<wgt id='1713'> +1.3037143e-12 </wgt>
<wgt id='1714'> +1.2898524e-12 </wgt>
<wgt id='1715'> +1.2732070e-12 </wgt>
<wgt id='1716'> +1.3182145e-12 </wgt>
<wgt id='1717'> +1.2868672e-12 </wgt>
<wgt id='1718'> +1.3151374e-12 </wgt>
<wgt id='1719'> +1.3457508e-12 </wgt>
<wgt id='1720'> +1.2863354e-12 </wgt>
<wgt id='1721'> +1.3142781e-12 </wgt>
<wgt id='1722'> +1.3099890e-12 </wgt>
<wgt id='1723'> +1.2850424e-12 </wgt>
<wgt id='1724'> +1.2480828e-12 </wgt>
<wgt id='1725'> +1.3250495e-12 </wgt>
<wgt id='1726'> +1.3239888e-12 </wgt>
<wgt id='1727'> +1.2985696e-12 </wgt>
<wgt id='1728'> +1.3139842e-12 </wgt>
<wgt id='1729'> +1.2863393e-12 </wgt>
<wgt id='1730'> +1.2931595e-12 </wgt>
<wgt id='1731'> +1.2812634e-12 </wgt>
<wgt id='1732'> +1.3301525e-12 </wgt>
<wgt id='1733'> +1.3187802e-12 </wgt>
<wgt id='1734'> +1.3452981e-12 </wgt>
<wgt id='1735'> +1.2858748e-12 </wgt>
<wgt id='1736'> +1.3765137e-12 </wgt>
<wgt id='1737'> +1.3343950e-12 </wgt>
<wgt id='1738'> +1.3030714e-12 </wgt>
<wgt id='1739'> +1.3041843e-12 </wgt>
<wgt id='1740'> +1.2491541e-12 </wgt>
<wgt id='1741'> +1.3194888e-12 </wgt>
<wgt id='1742'> +1.3127059e-12 </wgt>
<wgt id='1743'> +1.3253902e-12 </wgt>
<wgt id='1744'> +1.3235112e-12 </wgt>
<wgt id='1745'> +1.2635020e-12 </wgt>
<wgt id='1746'> +1.2815331e-12 </wgt>
<wgt id='1747'> +1.3318275e-12 </wgt>
<wgt id='1748'> +1.2926168e-12 </wgt>
<wgt id='1749'> +1.3048871e-12 </wgt>
<wgt id='1750'> +1.3257397e-12 </wgt>
<wgt id='1751'> +1.2980747e-12 </wgt>
<wgt id='1752'> +1.2803709e-12 </wgt>
<wgt id='1753'> +1.3140540e-12 </wgt>
<wgt id='1754'> +1.3113813e-12 </wgt>
<wgt id='1755'> +1.2928075e-12 </wgt>
<wgt id='1756'> +1.3165338e-12 </wgt>
<wgt id='1757'> +1.3164859e-12 </wgt>
<wgt id='1758'> +1.3205770e-12 </wgt>
<wgt id='1759'> +1.3322715e-12 </wgt>
<wgt id='1760'> +1.2923421e-12 </wgt>
<wgt id='1761'> +1.3017715e-12 </wgt>
<wgt id='1762'> +1.2830433e-12 </wgt>
<wgt id='1763'> +1.3042560e-12 </wgt>
<wgt id='1764'> +1.3200987e-12 </wgt>
<wgt id='1765'> +1.2817568e-12 </wgt>
<wgt id='1766'> +1.3279666e-12 </wgt>
<wgt id='1767'> +1.3079636e-12 </wgt>
<wgt id='1768'> +1.2947198e-12 </wgt>
<wgt id='1769'> +1.3011608e-12 </wgt>
<wgt id='1770'> +1.3098328e-12 </wgt>
<wgt id='1771'> +1.3131687e-12 </wgt>
<wgt id='1772'> +1.3223067e-12 </wgt>
<wgt id='1773'> +1.3015444e-12 </wgt>
<wgt id='1774'> +1.2972842e-12 </wgt>
<wgt id='1775'> +1.3130323e-12 </wgt>
<wgt id='1776'> +1.3191915e-12 </wgt>
<wgt id='1777'> +1.2703698e-12 </wgt>
<wgt id='1778'> +1.2771154e-12 </wgt>
<wgt id='1779'> +1.3136918e-12 </wgt>
<wgt id='1780'> +1.3538788e-12 </wgt>
<wgt id='1781'> +1.2980359e-12 </wgt>
<wgt id='1782'> +1.2529273e-12 </wgt>
<wgt id='1783'> +1.3068876e-12 </wgt>
<wgt id='1784'> +1.2875723e-12 </wgt>
<wgt id='1785'> +1.3133929e-12 </wgt>
<wgt id='1786'> +1.2267594e-12 </wgt>
<wgt id='1787'> +1.3506502e-12 </wgt>
<wgt id='1788'> +1.2869249e-12 </wgt>
<wgt id='1789'> +1.3157610e-12 </wgt>
<wgt id='1790'> +1.3098248e-12 </wgt>
<wgt id='1791'> +1.3142501e-12 </wgt>
<wgt id='1792'> +1.2773653e-12 </wgt>
<wgt id='1793'> +1.2979819e-12 </wgt>
<wgt id='1794'> +1.3066764e-12 </wgt>
<wgt id='1795'> +1.2822637e-12 </wgt>
<wgt id='1796'> +1.3297754e-12 </wgt>
<wgt id='1797'> +1.3024150e-12 </wgt>
<wgt id='1798'> +1.2883272e-12 </wgt>
<wgt id='1799'> +1.2948943e-12 </wgt>
<wgt id='1800'> +1.3007257e-12 </wgt>
<wgt id='1801'> +1.2849156e-12 </wgt>
<wgt id='1802'> +1.3316818e-12 </wgt>
<wgt id='1803'> +1.3027685e-12 </wgt>
<wgt id='1804'> +1.3128464e-12 </wgt>
<wgt id='1805'> +1.2847411e-12 </wgt>
<wgt id='1806'> +1.2941451e-12 </wgt>
<wgt id='1807'> +1.3091978e-12 </wgt>
<wgt id='1808'> +1.2971331e-12 </wgt>
<wgt id='1809'> +1.2907498e-12 </wgt>
<wgt id='1810'> +1.2849978e-12 </wgt>
<wgt id='1811'> +1.3144624e-12 </wgt>
<wgt id='1812'> +1.3079748e-12 </wgt>
<wgt id='1813'> +1.2945253e-12 </wgt>
<wgt id='1814'> +1.1502161e-12 </wgt>
<wgt id='1815'> +1.3002256e-12 </wgt>
<wgt id='1816'> +1.3037143e-12 </wgt>
<wgt id='1817'> +1.2898524e-12 </wgt>
<wgt id='1818'> +1.2732070e-12 </wgt>
<wgt id='1819'> +1.3182145e-12 </wgt>
<wgt id='1820'> +1.2868672e-12 </wgt>
<wgt id='1821'> +1.3151374e-12 </wgt>
<wgt id='1822'> +1.3457508e-12 </wgt>
<wgt id='1823'> +1.2863354e-12 </wgt>
<wgt id='1824'> +1.3142781e-12 </wgt>
<wgt id='1825'> +1.3099890e-12 </wgt>
<wgt id='1826'> +1.2850424e-12 </wgt>
<wgt id='1827'> +1.2480828e-12 </wgt>
<wgt id='1828'> +1.3250495e-12 </wgt>
<wgt id='1829'> +1.3239888e-12 </wgt>
<wgt id='1830'> +1.2985696e-12 </wgt>
<wgt id='1831'> +1.3139842e-12 </wgt>
<wgt id='1832'> +1.2863393e-12 </wgt>
<wgt id='1833'> +1.2931595e-12 </wgt>
<wgt id='1834'> +1.2812634e-12 </wgt>
<wgt id='1835'> +1.3301525e-12 </wgt>
<wgt id='1836'> +1.3187802e-12 </wgt>
<wgt id='1837'> +1.3452981e-12 </wgt>
<wgt id='1838'> +1.2858748e-12 </wgt>
<wgt id='1839'> +1.3765137e-12 </wgt>
<wgt id='1840'> +1.3343950e-12 </wgt>
<wgt id='1841'> +1.3030714e-12 </wgt>
<wgt id='1842'> +1.3041843e-12 </wgt>
<wgt id='1843'> +1.2491541e-12 </wgt>
<wgt id='1844'> +1.3194888e-12 </wgt>
<wgt id='1845'> +1.3127059e-12 </wgt>
<wgt id='1846'> +1.3253902e-12 </wgt>
<wgt id='1847'> +1.3235112e-12 </wgt>
<wgt id='1848'> +1.2635020e-12 </wgt>
<wgt id='1849'> +1.2815331e-12 </wgt>
<wgt id='1850'> +1.3318275e-12 </wgt>
<wgt id='1851'> +1.2926168e-12 </wgt>
<wgt id='1852'> +1.3048871e-12 </wgt>
<wgt id='1853'> +1.3257397e-12 </wgt>
<wgt id='1854'> +1.2980747e-12 </wgt>
<wgt id='1855'> +1.2803709e-12 </wgt>
<wgt id='1856'> +1.3140540e-12 </wgt>
<wgt id='1857'> +1.3113813e-12 </wgt>
<wgt id='1858'> +1.2928075e-12 </wgt>
<wgt id='1859'> +1.3165338e-12 </wgt>
<wgt id='1860'> +1.3164859e-12 </wgt>
<wgt id='1861'> +1.3205770e-12 </wgt>
<wgt id='1862'> +1.3322715e-12 </wgt>
<wgt id='1863'> +1.2923421e-12 </wgt>
<wgt id='1864'> +1.3017715e-12 </wgt>
<wgt id='1865'> +1.2830433e-12 </wgt>
<wgt id='1866'> +1.3042560e-12 </wgt>
<wgt id='1867'> +1.3200987e-12 </wgt>
<wgt id='1868'> +1.2817568e-12 </wgt>
<wgt id='1869'> +1.3279666e-12 </wgt>
<wgt id='1870'> +1.3079636e-12 </wgt>
<wgt id='1871'> +1.2947198e-12 </wgt>
<wgt id='1872'> +1.3011608e-12 </wgt>
<wgt id='1873'> +1.3098328e-12 </wgt>
<wgt id='1874'> +1.3131687e-12 </wgt>
<wgt id='1875'> +1.3223067e-12 </wgt>
<wgt id='1876'> +1.3015444e-12 </wgt>
<wgt id='1877'> +1.2972842e-12 </wgt>
<wgt id='1878'> +1.3130323e-12 </wgt>
<wgt id='1879'> +1.3191915e-12 </wgt>
<wgt id='1880'> +1.2703698e-12 </wgt>
<wgt id='1881'> +1.2771154e-12 </wgt>
<wgt id='1882'> +1.3136918e-12 </wgt>
<wgt id='1883'> +1.3538788e-12 </wgt>
<wgt id='1884'> +1.2980359e-12 </wgt>
<wgt id='1885'> +1.2529273e-12 </wgt>
<wgt id='1886'> +1.3068876e-12 </wgt>
<wgt id='1887'> +1.2875723e-12 </wgt>
<wgt id='1888'> +1.3133929e-12 </wgt>
<wgt id='1889'> +1.2267594e-12 </wgt>
<wgt id='1890'> +1.3506502e-12 </wgt>
<wgt id='1891'> +1.2869249e-12 </wgt>
<wgt id='1892'> +1.3157610e-12 </wgt>
<wgt id='1893'> +1.3098248e-12 </wgt>
<wgt id='1894'> +1.3142501e-12 </wgt>
<wgt id='1895'> +1.2773653e-12 </wgt>
<wgt id='1896'> +1.2979819e-12 </wgt>
<wgt id='1897'> +1.3066764e-12 </wgt>
<wgt id='1898'> +1.2822637e-12 </wgt>
<wgt id='1899'> +1.3297754e-12 </wgt>
<wgt id='1900'> +1.3024150e-12 </wgt>
<wgt id='1901'> +1.2883272e-12 </wgt>
<wgt id='1902'> +1.2948943e-12 </wgt>
<wgt id='1903'> +1.3007257e-12 </wgt>
<wgt id='1904'> +1.2849156e-12 </wgt>
<wgt id='1905'> +1.3316818e-12 </wgt>
<wgt id='1906'> +1.3027685e-12 </wgt>
<wgt id='1907'> +1.3128464e-12 </wgt>
<wgt id='1908'> +1.2847411e-12 </wgt>
<wgt id='1909'> +1.2941451e-12 </wgt>
<wgt id='1910'> +1.3091978e-12 </wgt>
<wgt id='1911'> +1.2971331e-12 </wgt>
<wgt id='1912'> +1.2907498e-12 </wgt>
<wgt id='1913'> +1.2849978e-12 </wgt>
<wgt id='1914'> +1.3144624e-12 </wgt>
<wgt id='1915'> +1.3079748e-12 </wgt>
<wgt id='1916'> +1.2945253e-12 </wgt>
<wgt id='1917'> +1.2904473e-12 </wgt>
<wgt id='1918'> +1.3210157e-12 </wgt>
<wgt id='1919'> +1.2551579e-12 </wgt>
</rwgt>
</event>
<event>
 9      1 +1.5607000e-12 3.51151300e+01 7.81860800e-03 1.40395200e-01
        2 -1    0    0  502    0 -0.0000000000e+00 +0.0000000000e+00 +2.7632419359e+02 2.7632419359e+02 0.0000000000e+00 0.0000e+00 1.0000e+00
       21 -1    0    0  501  502 +0.0000000000e+00 -0.0000000000e+00 -4.4543095084e+00 4.4543095084e+00 0.0000000000e+00 0.0000e+00 -1.0000e+00
     1023  2    1    2    0    0 -3.1746713064e+01 +4.1859336719e-01 +9.9638256504e+01 1.0564494678e+02 1.5001453603e+01 0.0000e+00 0.0000e+00
  1000023  2    3    3    0    0 -1.4747475946e+01 +4.8628154938e+00 +3.9626144064e+01 4.2913943182e+01 5.4991094493e+00 0.0000e+00 0.0000e+00
        2  1    1    2  501    0 +3.1746713064e+01 -4.1859336719e-01 +1.7223162758e+02 1.7513355632e+02 0.0000000000e+00 0.0000e+00 1.0000e+00
  1000022  1    4    4    0    0 -1.4094261573e+01 +4.7743438041e+00 +3.7722366561e+01 4.0858530407e+01 5.0000000000e+00 0.0000e+00 -1.0000e+00
      -11  1    4    4    0    0 -1.5395629524e-01 -1.2202695309e-01 +2.6838334640e-01 3.3260036060e-01 5.1100000000e-04 0.0000e+00 1.0000e+00
       11  1    4    4    0    0 -4.9925807780e-01 +2.1049864275e-01 +1.6353941562e+00 1.7228124141e+00 5.1100000000e-04 0.0000e+00 -1.0000e+00
  1000022  1    3    3    0    0 -1.6999237118e+01 -4.4442221266e+00 +6.0012112440e+01 6.2731003598e+01 5.0000000000e+00 0.0000e+00 -1.0000e+00
<mgrwt>
<rscale>  1 0.35115134E+02</rscale>
<asrwt>0</asrwt>
<pdfrwt beam="1">  1       21 0.68527860E-03 0.35115134E+02</pdfrwt>
<pdfrwt beam="2">  1        2 0.42511401E-01 0.35115134E+02</pdfrwt>
<totfact> 0.70982331E+06</totfact>
</mgrwt>
<rwgt>
<wgt id='1001'> +1.5607000e-12 </wgt>
<wgt id='1002'> +1.6142516e-12 </wgt>
<wgt id='1003'> +1.6154456e-12 </wgt>
<wgt id='1004'> +1.5539970e-12 </wgt>
<wgt id='1005'> +1.6184577e-12 </wgt>
<wgt id='1006'> +1.3713902e-12 </wgt>
<wgt id='1007'> +1.4386402e-12 </wgt>
<wgt id='1008'> +1.4403012e-12 </wgt>
<wgt id='1009'> +1.3635375e-12 </wgt>
<wgt id='1010'> +1.4445561e-12 </wgt>
<wgt id='1011'> +1.8135562e-12 </wgt>
<wgt id='1012'> +1.8407319e-12 </wgt>
<wgt id='1013'> +1.8410919e-12 </wgt>
<wgt id='1014'> +1.8093137e-12 </wgt>
<wgt id='1015'> +1.8419162e-12 </wgt>
<wgt id='1016'> +1.8419284e-12 </wgt>
<wgt id='1017'> +1.8391072e-12 </wgt>
<wgt id='1018'> +1.8387104e-12 </wgt>
<wgt id='1019'> +1.8410919e-12 </wgt>
<wgt id='1020'> +1.8375514e-12 </wgt>
<wgt id='1021'> +1.6185061e-12 </wgt>
<wgt id='1022'> +1.6390343e-12 </wgt>
<wgt id='1023'> +1.6393600e-12 </wgt>
<wgt id='1024'> +1.6154456e-12 </wgt>
<wgt id='1025'> +1.6401085e-12 </wgt>
<wgt id='1026'> +2.1403477e-12 </wgt>
<wgt id='1027'> +2.0971349e-12 </wgt>
<wgt id='1028'> +2.0955424e-12 </wgt>
<wgt id='1029'> +2.1435773e-12 </wgt>
<wgt id='1030'> +2.0912600e-12 </wgt>
<wgt id='1031'> +1.2450335e-12 </wgt>
<wgt id='1032'> +1.3605325e-12 </wgt>
<wgt id='1033'> +1.3635375e-12 </wgt>
<wgt id='1034'> +1.2320155e-12 </wgt>
<wgt id='1035'> +1.3712640e-12 </wgt>
<wgt id='1036'> +1.0940134e-12 </wgt>
<wgt id='1037'> +1.2125227e-12 </wgt>
<wgt id='1038'> +1.2157046e-12 </wgt>
<wgt id='1039'> +1.0810183e-12 </wgt>
<wgt id='1040'> +1.2239232e-12 </wgt>
<wgt id='1041'> +1.4467472e-12 </wgt>
<wgt id='1042'> +1.5514159e-12 </wgt>
<wgt id='1043'> +1.5539970e-12 </wgt>
<wgt id='1044'> +1.4344316e-12 </wgt>
<wgt id='1045'> +1.5605928e-12 </wgt>
<wgt id='1046'> +1.5607000e-12 </wgt>
<wgt id='1047'> +1.5885011e-12 </wgt>
<wgt id='1048'> +1.5781080e-12 </wgt>
<wgt id='1049'> +1.5209835e-12 </wgt>
<wgt id='1050'> +1.5301321e-12 </wgt>
<wgt id='1051'> +1.5315558e-12 </wgt>
<wgt id='1052'> +1.5407508e-12 </wgt>
<wgt id='1053'> +1.6025695e-12 </wgt>
<wgt id='1054'> +1.5751228e-12 </wgt>
<wgt id='1055'> +1.5352617e-12 </wgt>
<wgt id='1056'> +1.5215566e-12 </wgt>
<wgt id='1057'> +1.5555429e-12 </wgt>
<wgt id='1058'> +1.5205007e-12 </wgt>
<wgt id='1059'> +1.5664207e-12 </wgt>
<wgt id='1060'> +1.5831675e-12 </wgt>
<wgt id='1061'> +1.5755730e-12 </wgt>
<wgt id='1062'> +1.5752311e-12 </wgt>
<wgt id='1063'> +1.5492574e-12 </wgt>
<wgt id='1064'> +1.5550362e-12 </wgt>
<wgt id='1065'> +1.5925449e-12 </wgt>
<wgt id='1066'> +1.5495140e-12 </wgt>
<wgt id='1067'> +1.5523708e-12 </wgt>
<wgt id='1068'> +1.5978213e-12 </wgt>
<wgt id='1069'> +1.5939140e-12 </wgt>
<wgt id='1070'> +1.5624675e-12 </wgt>
<wgt id='1071'> +1.5515928e-12 </wgt>
<wgt id='1072'> +1.6011370e-12 </wgt>
<wgt id='1073'> +1.5568473e-12 </wgt>
<wgt id='1074'> +1.5557706e-12 </wgt>
<wgt id='1075'> +1.5675274e-12 </wgt>
<wgt id='1076'> +1.5439503e-12 </wgt>
<wgt id='1077'> +1.5692052e-12 </wgt>
<wgt id='1078'> +1.5190975e-12 </wgt>
<wgt id='1079'> +1.5521242e-12 </wgt>
<wgt id='1080'> +1.5455001e-12 </wgt>
<wgt id='1081'> +1.5455352e-12 </wgt>
<wgt id='1082'> +1.5492992e-12 </wgt>
<wgt id='1083'> +1.5630423e-12 </wgt>
<wgt id='1084'> +1.5306745e-12 </wgt>
<wgt id='1085'> +1.5726131e-12 </wgt>
<wgt id='1086'> +1.5977379e-12 </wgt>
<wgt id='1087'> +1.5405872e-12 </wgt>
<wgt id='1088'> +1.5774688e-12 </wgt>
<wgt id='1089'> +1.5465904e-12 </wgt>
<wgt id='1090'> +1.5464400e-12 </wgt>
<wgt id='1091'> +1.5718990e-12 </wgt>
<wgt id='1092'> +1.5873838e-12 </wgt>
<wgt id='1093'> +1.5645939e-12 </wgt>
<wgt id='1094'> +1.6107488e-12 </wgt>
<wgt id='1095'> +1.5856512e-12 </wgt>
<wgt id='1096'> +1.5677190e-12 </wgt>
<wgt id='1097'> +1.5561979e-12 </wgt>
<wgt id='1098'> +1.5719950e-12 </wgt>
<wgt id='1099'> +1.5431673e-12 </wgt>
<wgt id='1100'> +1.5878285e-12 </wgt>
<wgt id='1101'> +1.5916315e-12 </wgt>
<wgt id='1102'> +1.5517763e-12 </wgt>
<wgt id='1103'> +1.6005397e-12 </wgt>
<wgt id='1104'> +1.5534028e-12 </wgt>
<wgt id='1105'> +1.5137670e-12 </wgt>
<wgt id='1106'> +1.5859119e-12 </wgt>
<wgt id='1107'> +1.5888110e-12 </wgt>
<wgt id='1108'> +1.5717844e-12 </wgt>
<wgt id='1109'> +1.5597380e-12 </wgt>
<wgt id='1110'> +1.5592088e-12 </wgt>
<wgt id='1111'> +1.5620906e-12 </wgt>
<wgt id='1112'> +1.5384340e-12 </wgt>
<wgt id='1113'> +1.6142473e-12 </wgt>
<wgt id='1114'> +1.5838080e-12 </wgt>
<wgt id='1115'> +1.5814078e-12 </wgt>
<wgt id='1116'> +1.5999484e-12 </wgt>
<wgt id='1117'> +1.5371959e-12 </wgt>
<wgt id='1118'> +1.6276317e-12 </wgt>
<wgt id='1119'> +1.4947526e-12 </wgt>
<wgt id='1120'> +1.5282374e-12 </wgt>
<wgt id='1121'> +1.5395950e-12 </wgt>
<wgt id='1122'> +1.5546079e-12 </wgt>
<wgt id='1123'> +1.5711471e-12 </wgt>
<wgt id='1124'> +1.5561656e-12 </wgt>
<wgt id='1125'> +1.5307464e-12 </wgt>
<wgt id='1126'> +1.5562889e-12 </wgt>
<wgt id='1127'> +1.5700840e-12 </wgt>
<wgt id='1128'> +1.5752311e-12 </wgt>
<wgt id='1129'> +1.5464467e-12 </wgt>
<wgt id='1130'> +1.5482466e-12 </wgt>
<wgt id='1131'> +1.5613584e-12 </wgt>
<wgt id='1132'> +1.5859005e-12 </wgt>
<wgt id='1133'> +1.5248382e-12 </wgt>
<wgt id='1134'> +1.5471573e-12 </wgt>
<wgt id='1135'> +1.5013401e-12 </wgt>
<wgt id='1136'> +1.5287634e-12 </wgt>
<wgt id='1137'> +1.5623332e-12 </wgt>
<wgt id='1138'> +1.5318282e-12 </wgt>
<wgt id='1139'> +1.5521133e-12 </wgt>
<wgt id='1140'> +1.5727721e-12 </wgt>
<wgt id='1141'> +1.5691975e-12 </wgt>
<wgt id='1142'> +1.5582344e-12 </wgt>
<wgt id='1143'> +1.5564056e-12 </wgt>
<wgt id='1144'> +1.5377846e-12 </wgt>
<wgt id='1145'> +1.5843023e-12 </wgt>
<wgt id='1146'> +1.5700859e-12 </wgt>
<wgt id='1147'> +1.3549706e-12 </wgt>
<wgt id='1148'> +1.3816265e-12 </wgt>
<wgt id='1149'> +1.3251177e-12 </wgt>
<wgt id='1150'> +1.3609565e-12 </wgt>
<wgt id='1151'> +1.5571453e-12 </wgt>
<wgt id='1152'> +1.9686546e-12 </wgt>
<wgt id='1153'> +1.9642961e-12 </wgt>
<wgt id='1154'> +1.9711569e-12 </wgt>
<wgt id='1155'> +1.9646187e-12 </wgt>
<wgt id='1156'> +1.9707221e-12 </wgt>
<wgt id='1157'> +1.9717715e-12 </wgt>
<wgt id='1158'> +1.9644147e-12 </wgt>
<wgt id='1159'> +1.9714092e-12 </wgt>
<wgt id='1160'> +1.9669424e-12 </wgt>
<wgt id='1161'> +1.9655054e-12 </wgt>
<wgt id='1162'> +1.9708491e-12 </wgt>
<wgt id='1163'> +1.9702538e-12 </wgt>
<wgt id='1164'> +1.9670997e-12 </wgt>
<wgt id='1165'> +1.9663886e-12 </wgt>
<wgt id='1166'> +1.9706500e-12 </wgt>
<wgt id='1167'> +1.9838460e-12 </wgt>
<wgt id='1168'> +1.9491430e-12 </wgt>
<wgt id='1169'> +1.9728395e-12 </wgt>
<wgt id='1170'> +1.9655310e-12 </wgt>
<wgt id='1171'> +1.9598499e-12 </wgt>
<wgt id='1172'> +1.9797159e-12 </wgt>
<wgt id='1173'> +1.9507998e-12 </wgt>
<wgt id='1174'> +1.9864417e-12 </wgt>
<wgt id='1175'> +1.9724408e-12 </wgt>
<wgt id='1176'> +1.9648406e-12 </wgt>
<wgt id='1177'> +1.9645452e-12 </wgt>
<wgt id='1178'> +1.9799426e-12 </wgt>
<wgt id='1179'> +1.9693436e-12 </wgt>
<wgt id='1180'> +1.9615436e-12 </wgt>
<wgt id='1181'> +1.9725402e-12 </wgt>
<wgt id='1182'> +1.9635505e-12 </wgt>
<wgt id='1183'> +1.9590778e-12 </wgt>
<wgt id='1184'> +1.9694056e-12 </wgt>
<wgt id='1185'> +1.9652079e-12 </wgt>
<wgt id='1186'> +1.9711279e-12 </wgt>
<wgt id='1187'> +1.9704434e-12 </wgt>
<wgt id='1188'> +1.9680518e-12 </wgt>
<wgt id='1189'> +1.9644086e-12 </wgt>
<wgt id='1190'> +1.9528232e-12 </wgt>
<wgt id='1191'> +1.9689915e-12 </wgt>
<wgt id='1192'> +1.9701171e-12 </wgt>
<wgt id='1193'> +1.3480107e-12 </wgt>
<wgt id='1194'> +1.3404253e-12 </wgt>
<wgt id='1195'> +1.3542236e-12 </wgt>
<wgt id='1196'> +1.3515153e-12 </wgt>
<wgt id='1197'> +1.3441068e-12 </wgt>
<wgt id='1198'> +1.3474937e-12 </wgt>
<wgt id='1199'> +1.3487911e-12 </wgt>
<wgt id='1200'> +1.3463710e-12 </wgt>
<wgt id='1201'> +1.3491300e-12 </wgt>
<wgt id='1202'> +1.3467973e-12 </wgt>
<wgt id='1203'> +1.3497391e-12 </wgt>
<wgt id='1204'> +1.3408332e-12 </wgt>
<wgt id='1205'> +1.3522996e-12 </wgt>
<wgt id='1206'> +1.3512055e-12 </wgt>
<wgt id='1207'> +1.3436513e-12 </wgt>
<wgt id='1208'> +1.3485609e-12 </wgt>
<wgt id='1209'> +1.3478212e-12 </wgt>
<wgt id='1210'> +1.3440212e-12 </wgt>
<wgt id='1211'> +1.3456534e-12 </wgt>
<wgt id='1212'> +1.3495883e-12 </wgt>
<wgt id='1213'> +1.3465637e-12 </wgt>
<wgt id='1214'> +1.3329487e-12 </wgt>
<wgt id='1215'> +1.3710894e-12 </wgt>
<wgt id='1216'> +1.3499160e-12 </wgt>
<wgt id='1217'> +1.3464481e-12 </wgt>
<wgt id='1218'> +1.3528616e-12 </wgt>
<wgt id='1219'> +1.3453941e-12 </wgt>
<wgt id='1220'> +1.3544463e-12 </wgt>
<wgt id='1221'> +1.3461952e-12 </wgt>
<wgt id='1222'> +1.3616745e-12 </wgt>
<wgt id='1223'> +1.3267493e-12 </wgt>
<wgt id='1224'> +1.3515849e-12 </wgt>
<wgt id='1225'> +1.3465817e-12 </wgt>
<wgt id='1226'> +1.3462982e-12 </wgt>
<wgt id='1227'> +1.3494272e-12 </wgt>
<wgt id='1228'> +1.3350064e-12 </wgt>
<wgt id='1229'> +1.3535951e-12 </wgt>
<wgt id='1230'> +1.3469077e-12 </wgt>
<wgt id='1231'> +1.3510909e-12 </wgt>
<wgt id='1232'> +1.3456298e-12 </wgt>
<wgt id='1233'> +1.3485924e-12 </wgt>
<wgt id='1234'> +1.3480107e-12 </wgt>
<wgt id='1235'> +1.3402885e-12 </wgt>
<wgt id='1236'> +1.3432214e-12 </wgt>
<wgt id='1237'> +1.3458706e-12 </wgt>
<wgt id='1238'> +1.3501715e-12 </wgt>
<wgt id='1239'> +1.3519047e-12 </wgt>
<wgt id='1240'> +1.3536678e-12 </wgt>
<wgt id='1241'> +1.3005632e-12 </wgt>
<wgt id='1242'> +1.2904703e-12 </wgt>
<wgt id='1243'> +1.3104974e-12 </wgt>
<wgt id='1244'> +1.2986613e-12 </wgt>
<wgt id='1245'> +1.3018395e-12 </wgt>
<wgt id='1246'> +1.2979843e-12 </wgt>
<wgt id='1247'> +1.3027149e-12 </wgt>
<wgt id='1248'> +1.3004906e-12 </wgt>
<wgt id='1249'> +1.3006028e-12 </wgt>
<wgt id='1250'> +1.3019063e-12 </wgt>
<wgt id='1251'> +1.2995541e-12 </wgt>
<wgt id='1252'> +1.2982914e-12 </wgt>
<wgt id='1253'> +1.3022820e-12 </wgt>
<wgt id='1254'> +1.2945013e-12 </wgt>
<wgt id='1255'> +1.3041112e-12 </wgt>
<wgt id='1256'> +1.3009015e-12 </wgt>
<wgt id='1257'> +1.2995056e-12 </wgt>
<wgt id='1258'> +1.3155655e-12 </wgt>
<wgt id='1259'> +1.2859325e-12 </wgt>
<wgt id='1260'> +1.3030771e-12 </wgt>
<wgt id='1261'> +1.2978360e-12 </wgt>
<wgt id='1262'> +1.2977762e-12 </wgt>
<wgt id='1263'> +1.3017271e-12 </wgt>
<wgt id='1264'> +1.3073965e-12 </wgt>
<wgt id='1265'> +1.2972624e-12 </wgt>
<wgt id='1266'> +1.2850991e-12 </wgt>
<wgt id='1267'> +1.3143851e-12 </wgt>
<wgt id='1268'> +1.3056470e-12 </wgt>
<wgt id='1269'> +1.2969084e-12 </wgt>
<wgt id='1270'> +1.2974615e-12 </wgt>
<wgt id='1271'> +1.3000475e-12 </wgt>
<wgt id='1272'> +1.3007625e-12 </wgt>
<wgt id='1273'> +1.3004688e-12 </wgt>
<wgt id='1274'> +1.3017687e-12 </wgt>
<wgt id='1275'> +1.2983886e-12 </wgt>
<wgt id='1276'> +1.3094217e-12 </wgt>
<wgt id='1277'> +1.2883783e-12 </wgt>
<wgt id='1278'> +1.3046089e-12 </wgt>
<wgt id='1279'> +1.3042419e-12 </wgt>
<wgt id='1280'> +1.3013426e-12 </wgt>
<wgt id='1281'> +1.2984241e-12 </wgt>
<wgt id='1282'> +1.3005632e-12 </wgt>
<wgt id='1283'> +1.2931437e-12 </wgt>
<wgt id='1284'> +1.2961498e-12 </wgt>
<wgt id='1285'> +1.2985680e-12 </wgt>
<wgt id='1286'> +1.3026405e-12 </wgt>
<wgt id='1287'> +1.3041312e-12 </wgt>
<wgt id='1288'> +1.3053633e-12 </wgt>
<wgt id='1289'> +1.4064157e-12 </wgt>
<wgt id='1290'> +1.4061413e-12 </wgt>
<wgt id='1291'> +1.4067560e-12 </wgt>
<wgt id='1292'> +1.4058480e-12 </wgt>
<wgt id='1293'> +1.4068667e-12 </wgt>
<wgt id='1294'> +1.3959114e-12 </wgt>
<wgt id='1295'> +1.4166594e-12 </wgt>
<wgt id='1296'> +1.4058905e-12 </wgt>
<wgt id='1297'> +1.4069861e-12 </wgt>
<wgt id='1298'> +1.4107566e-12 </wgt>
<wgt id='1299'> +1.4010455e-12 </wgt>
<wgt id='1300'> +1.4089497e-12 </wgt>
<wgt id='1301'> +1.4013918e-12 </wgt>
<wgt id='1302'> +1.4033222e-12 </wgt>
<wgt id='1303'> +1.4107641e-12 </wgt>
<wgt id='1304'> +1.4043476e-12 </wgt>
<wgt id='1305'> +1.4078322e-12 </wgt>
<wgt id='1306'> +1.4040955e-12 </wgt>
<wgt id='1307'> +1.4089197e-12 </wgt>
<wgt id='1308'> +1.3991802e-12 </wgt>
<wgt id='1309'> +1.4120093e-12 </wgt>
<wgt id='1310'> +1.4036679e-12 </wgt>
<wgt id='1311'> +1.4095007e-12 </wgt>
<wgt id='1312'> +1.4106330e-12 </wgt>
<wgt id='1313'> +1.4022652e-12 </wgt>
<wgt id='1314'> +1.3909567e-12 </wgt>
<wgt id='1315'> +1.4185796e-12 </wgt>
<wgt id='1316'> +1.4150956e-12 </wgt>
<wgt id='1317'> +1.4050187e-12 </wgt>
<wgt id='1318'> +1.4181393e-12 </wgt>
<wgt id='1319'> +1.3921354e-12 </wgt>
<wgt id='1320'> +1.4172613e-12 </wgt>
<wgt id='1321'> +1.3972685e-12 </wgt>
<wgt id='1322'> +1.4057571e-12 </wgt>
<wgt id='1323'> +1.4075816e-12 </wgt>
<wgt id='1324'> +1.4011152e-12 </wgt>
<wgt id='1325'> +1.4230877e-12 </wgt>
<wgt id='1326'> +1.4059246e-12 </wgt>
<wgt id='1327'> +1.4090490e-12 </wgt>
<wgt id='1328'> +1.4064574e-12 </wgt>
<wgt id='1329'> +1.4061288e-12 </wgt>
<wgt id='1330'> +1.4124538e-12 </wgt>
<wgt id='1331'> +1.4037192e-12 </wgt>
<wgt id='1332'> +1.4199298e-12 </wgt>
<wgt id='1333'> +1.4044221e-12 </wgt>
<wgt id='1334'> +1.4043929e-12 </wgt>
<wgt id='1335'> +1.4130213e-12 </wgt>
<wgt id='1336'> +1.4055942e-12 </wgt>
<wgt id='1337'> +1.4108663e-12 </wgt>
<wgt id='1338'> +1.4035263e-12 </wgt>
<wgt id='1339'> +1.4072719e-12 </wgt>
<wgt id='1340'> +1.3774079e-12 </wgt>
<wgt id='1341'> +1.3770382e-12 </wgt>
<wgt id='1342'> +1.3778029e-12 </wgt>
<wgt id='1343'> +1.3768172e-12 </wgt>
<wgt id='1344'> +1.3777961e-12 </wgt>
<wgt id='1345'> +1.3665808e-12 </wgt>
<wgt id='1346'> +1.3874697e-12 </wgt>
<wgt id='1347'> +1.3774914e-12 </wgt>
<wgt id='1348'> +1.3772282e-12 </wgt>
<wgt id='1349'> +1.3813055e-12 </wgt>
<wgt id='1350'> +1.3735643e-12 </wgt>
<wgt id='1351'> +1.3796688e-12 </wgt>
<wgt id='1352'> +1.3724329e-12 </wgt>
<wgt id='1353'> +1.3734555e-12 </wgt>
<wgt id='1354'> +1.3844593e-12 </wgt>
<wgt id='1355'> +1.3759173e-12 </wgt>
<wgt id='1356'> +1.3782256e-12 </wgt>
<wgt id='1357'> +1.3735903e-12 </wgt>
<wgt id='1358'> +1.3817123e-12 </wgt>
<wgt id='1359'> +1.3709037e-12 </wgt>
<wgt id='1360'> +1.3830317e-12 </wgt>
<wgt id='1361'> +1.3754656e-12 </wgt>
<wgt id='1362'> +1.3800927e-12 </wgt>
<wgt id='1363'> +1.3861429e-12 </wgt>
<wgt id='1364'> +1.3718243e-12 </wgt>
<wgt id='1365'> +1.3835862e-12 </wgt>
<wgt id='1366'> +1.3632366e-12 </wgt>
<wgt id='1367'> +1.3859201e-12 </wgt>
<wgt id='1368'> +1.3754507e-12 </wgt>
<wgt id='1369'> +1.3874411e-12 </wgt>
<wgt id='1370'> +1.3652277e-12 </wgt>
<wgt id='1371'> +1.3863334e-12 </wgt>
<wgt id='1372'> +1.3668489e-12 </wgt>
<wgt id='1373'> +1.3743007e-12 </wgt>
<wgt id='1374'> +1.3805847e-12 </wgt>
<wgt id='1375'> +1.3723103e-12 </wgt>
<wgt id='1376'> +1.3944852e-12 </wgt>
<wgt id='1377'> +1.3764612e-12 </wgt>
<wgt id='1378'> +1.3805653e-12 </wgt>
<wgt id='1379'> +1.3774390e-12 </wgt>
<wgt id='1380'> +1.3770558e-12 </wgt>
<wgt id='1381'> +1.3838164e-12 </wgt>
<wgt id='1382'> +1.3741819e-12 </wgt>
<wgt id='1383'> +1.3894359e-12 </wgt>
<wgt id='1384'> +1.3771608e-12 </wgt>
<wgt id='1385'> +1.3757126e-12 </wgt>
<wgt id='1386'> +1.3826037e-12 </wgt>
<wgt id='1387'> +1.3756089e-12 </wgt>
<wgt id='1388'> +1.3819314e-12 </wgt>
<wgt id='1389'> +1.3735707e-12 </wgt>
<wgt id='1390'> +1.3786082e-12 </wgt>
<wgt id='1391'> +1.3560717e-12 </wgt>
<wgt id='1392'> +1.3155126e-12 </wgt>
<wgt id='1393'> +1.3292444e-12 </wgt>
<wgt id='1394'> +1.3433814e-12 </wgt>
<wgt id='1395'> +1.3704572e-12 </wgt>
<wgt id='1396'> +1.3570283e-12 </wgt>
<wgt id='1397'> +1.3328873e-12 </wgt>
<wgt id='1398'> +1.3372028e-12 </wgt>
<wgt id='1399'> +1.3413059e-12 </wgt>
<wgt id='1400'> +1.3461382e-12 </wgt>
<wgt id='1401'> +1.3515944e-12 </wgt>
<wgt id='1402'> +1.3625276e-12 </wgt>
<wgt id='1403'> +1.3683180e-12 </wgt>
<wgt id='1404'> +1.3742223e-12 </wgt>
<wgt id='1405'> +1.3570283e-12 </wgt>
<wgt id='1406'> +1.3524781e-12 </wgt>
<wgt id='1407'> +1.3548900e-12 </wgt>
<wgt id='1408'> +1.3590413e-12 </wgt>
<wgt id='1409'> +1.3608822e-12 </wgt>
<wgt id='1410'> +1.2996215e-12 </wgt>
<wgt id='1411'> +1.3007255e-12 </wgt>
<wgt id='1412'> +1.2982067e-12 </wgt>
<wgt id='1413'> +1.2961029e-12 </wgt>
<wgt id='1414'> +1.3031545e-12 </wgt>
<wgt id='1415'> +1.2971974e-12 </wgt>
<wgt id='1416'> +1.3006202e-12 </wgt>
<wgt id='1417'> +1.2923171e-12 </wgt>
<wgt id='1418'> +1.3069285e-12 </wgt>
<wgt id='1419'> +1.3008738e-12 </wgt>
<wgt id='1420'> +1.2984167e-12 </wgt>
<wgt id='1421'> +1.2885778e-12 </wgt>
<wgt id='1422'> +1.3043525e-12 </wgt>
<wgt id='1423'> +1.2988021e-12 </wgt>
<wgt id='1424'> +1.3006174e-12 </wgt>
<wgt id='1425'> +1.2929776e-12 </wgt>
<wgt id='1426'> +1.3067994e-12 </wgt>
<wgt id='1427'> +1.2815138e-12 </wgt>
<wgt id='1428'> +1.3093897e-12 </wgt>
<wgt id='1429'> +1.3027816e-12 </wgt>
<wgt id='1430'> +1.2953948e-12 </wgt>
<wgt id='1431'> +1.2997350e-12 </wgt>
<wgt id='1432'> +1.2994694e-12 </wgt>
<wgt id='1433'> +1.2920442e-12 </wgt>
<wgt id='1434'> +1.3047867e-12 </wgt>
<wgt id='1435'> +1.2943057e-12 </wgt>
<wgt id='1436'> +1.3126317e-12 </wgt>
<wgt id='1437'> +1.3074862e-12 </wgt>
<wgt id='1438'> +1.2988476e-12 </wgt>
<wgt id='1439'> +1.2938250e-12 </wgt>
<wgt id='1440'> +1.3112613e-12 </wgt>
<wgt id='1441'> +1.3015511e-12 </wgt>
<wgt id='1442'> +1.2966839e-12 </wgt>
<wgt id='1443'> +1.2959976e-12 </wgt>
<wgt id='1444'> +1.3090524e-12 </wgt>
<wgt id='1445'> +1.3183423e-12 </wgt>
<wgt id='1446'> +1.2931221e-12 </wgt>
<wgt id='1447'> +1.2993508e-12 </wgt>
<wgt id='1448'> +1.3032614e-12 </wgt>
<wgt id='1449'> +1.3002732e-12 </wgt>
<wgt id='1450'> +1.2987208e-12 </wgt>
<wgt id='1451'> +1.2979496e-12 </wgt>
<wgt id='1452'> +1.3047027e-12 </wgt>
<wgt id='1453'> +1.3003602e-12 </wgt>
<wgt id='1454'> +1.2930622e-12 </wgt>
<wgt id='1455'> +1.3047199e-12 </wgt>
<wgt id='1456'> +1.3018332e-12 </wgt>
<wgt id='1457'> +1.3032565e-12 </wgt>
<wgt id='1458'> +1.2986736e-12 </wgt>
<wgt id='1459'> +1.3037018e-12 </wgt>
<wgt id='1460'> +1.3021090e-12 </wgt>
<wgt id='1461'> +1.2996215e-12 </wgt>
<wgt id='1462'> +1.2887822e-12 </wgt>
<wgt id='1463'> +1.3069895e-12 </wgt>
<wgt id='1464'> +1.2980743e-12 </wgt>
<wgt id='1465'> +1.2727607e-12 </wgt>
<wgt id='1466'> +1.2773401e-12 </wgt>
<wgt id='1467'> +1.2825008e-12 </wgt>
<wgt id='1468'> +1.2882286e-12 </wgt>
<wgt id='1469'> +1.2928075e-12 </wgt>
<wgt id='1470'> +1.3036992e-12 </wgt>
<wgt id='1471'> +1.3084592e-12 </wgt>
<wgt id='1472'> +1.3138344e-12 </wgt>
<wgt id='1473'> +1.2980743e-12 </wgt>
<wgt id='1474'> +1.2938869e-12 </wgt>
<wgt id='1475'> +1.2961046e-12 </wgt>
<wgt id='1476'> +1.2998025e-12 </wgt>
<wgt id='1477'> +1.3012450e-12 </wgt>
<wgt id='1478'> +1.3221335e-12 </wgt>
<wgt id='1479'> +1.3214307e-12 </wgt>
<wgt id='1480'> +1.3085865e-12 </wgt>
<wgt id='1481'> +1.3304398e-12 </wgt>
<wgt id='1482'> +1.3219376e-12 </wgt>
<wgt id='1483'> +1.3086019e-12 </wgt>
<wgt id='1484'> +1.3174905e-12 </wgt>
<wgt id='1485'> +1.3230705e-12 </wgt>
<wgt id='1486'> +1.3222665e-12 </wgt>
<wgt id='1487'> +1.3272357e-12 </wgt>
<wgt id='1488'> +1.3194779e-12 </wgt>
<wgt id='1489'> +1.3278243e-12 </wgt>
<wgt id='1490'> +1.3177858e-12 </wgt>
<wgt id='1491'> +1.3257385e-12 </wgt>
<wgt id='1492'> +1.3249196e-12 </wgt>
<wgt id='1493'> +1.3034620e-12 </wgt>
<wgt id='1494'> +1.3216473e-12 </wgt>
<wgt id='1495'> +1.3048492e-12 </wgt>
<wgt id='1496'> +1.3221470e-12 </wgt>
<wgt id='1497'> +1.3236454e-12 </wgt>
<wgt id='1498'> +1.3221762e-12 </wgt>
<wgt id='1499'> +1.3238203e-12 </wgt>
<wgt id='1500'> +1.3215137e-12 </wgt>
<wgt id='1501'> +1.3226706e-12 </wgt>
<wgt id='1502'> +1.3244062e-12 </wgt>
<wgt id='1503'> +1.3260203e-12 </wgt>
<wgt id='1504'> +1.3206570e-12 </wgt>
<wgt id='1505'> +1.3231566e-12 </wgt>
<wgt id='1506'> +1.3224328e-12 </wgt>
<wgt id='1507'> +1.3221257e-12 </wgt>
<wgt id='1508'> +1.3270127e-12 </wgt>
<wgt id='1509'> +1.3243704e-12 </wgt>
<wgt id='1510'> +1.3250879e-12 </wgt>
<wgt id='1511'> +1.3195313e-12 </wgt>
<wgt id='1512'> +1.3179997e-12 </wgt>
<wgt id='1513'> +1.3240320e-12 </wgt>
<wgt id='1514'> +1.3299350e-12 </wgt>
<wgt id='1515'> +1.3282692e-12 </wgt>
<wgt id='1516'> +1.3308492e-12 </wgt>
<wgt id='1517'> +1.3291490e-12 </wgt>
<wgt id='1518'> +1.3244076e-12 </wgt>
<wgt id='1519'> +1.3209030e-12 </wgt>
<wgt id='1520'> +1.3248474e-12 </wgt>
<wgt id='1521'> +1.3263605e-12 </wgt>
<wgt id='1522'> +1.3245055e-12 </wgt>
<wgt id='1523'> +1.3293796e-12 </wgt>
<wgt id='1524'> +1.3252274e-12 </wgt>
<wgt id='1525'> +1.3270668e-12 </wgt>
<wgt id='1526'> +1.3235611e-12 </wgt>
<wgt id='1527'> +1.3238063e-12 </wgt>
<wgt id='1528'> +1.3253905e-12 </wgt>
<wgt id='1529'> +1.3240851e-12 </wgt>
<wgt id='1530'> +1.3279874e-12 </wgt>
<wgt id='1531'> +1.3253966e-12 </wgt>
<wgt id='1532'> +1.3191076e-12 </wgt>
<wgt id='1533'> +1.3244116e-12 </wgt>
<wgt id='1534'> +1.3261913e-12 </wgt>
<wgt id='1535'> +1.3175194e-12 </wgt>
<wgt id='1536'> +1.3247394e-12 </wgt>
<wgt id='1537'> +1.3237496e-12 </wgt>
<wgt id='1538'> +1.3183274e-12 </wgt>
<wgt id='1539'> +1.3301549e-12 </wgt>
<wgt id='1540'> +1.3252213e-12 </wgt>
<wgt id='1541'> +1.3227063e-12 </wgt>
<wgt id='1542'> +1.3226011e-12 </wgt>
<wgt id='1543'> +1.3251464e-12 </wgt>
<wgt id='1544'> +1.3248704e-12 </wgt>
<wgt id='1545'> +1.3224093e-12 </wgt>
<wgt id='1546'> +1.3215491e-12 </wgt>
<wgt id='1547'> +1.3244398e-12 </wgt>
<wgt id='1548'> +1.3241310e-12 </wgt>
<wgt id='1549'> +1.3234549e-12 </wgt>
<wgt id='1550'> +1.3247940e-12 </wgt>
<wgt id='1551'> +1.3252896e-12 </wgt>
<wgt id='1552'> +1.3260175e-12 </wgt>
<wgt id='1553'> +1.3236442e-12 </wgt>
<wgt id='1554'> +1.3238778e-12 </wgt>
<wgt id='1555'> +1.3250756e-12 </wgt>
<wgt id='1556'> +1.3256918e-12 </wgt>
<wgt id='1557'> +1.3246482e-12 </wgt>
<wgt id='1558'> +1.3216960e-12 </wgt>
<wgt id='1559'> +1.3221565e-12 </wgt>
<wgt id='1560'> +1.3248464e-12 </wgt>
<wgt id='1561'> +1.3231296e-12 </wgt>
<wgt id='1562'> +1.3250524e-12 </wgt>
<wgt id='1563'> +1.3245953e-12 </wgt>
<wgt id='1564'> +1.3251582e-12 </wgt>
<wgt id='1565'> +1.3238900e-12 </wgt>
<wgt id='1566'> +1.3252202e-12 </wgt>
<wgt id='1567'> +1.3259443e-12 </wgt>
<wgt id='1568'> +1.3229959e-12 </wgt>
<wgt id='1569'> +1.3253013e-12 </wgt>
<wgt id='1570'> +1.3246916e-12 </wgt>
<wgt id='1571'> +1.3236793e-12 </wgt>
<wgt id='1572'> +1.3242296e-12 </wgt>
<wgt id='1573'> +1.3254430e-12 </wgt>
<wgt id='1574'> +1.3243368e-12 </wgt>
<wgt id='1575'> +1.3234873e-12 </wgt>
<wgt id='1576'> +1.3241592e-12 </wgt>
<wgt id='1577'> +1.3251012e-12 </wgt>
<wgt id='1578'> +1.3258426e-12 </wgt>
<wgt id='1579'> +1.3236457e-12 </wgt>
<wgt id='1580'> +1.3237163e-12 </wgt>
<wgt id='1581'> +1.3245241e-12 </wgt>
<wgt id='1582'> +1.3271858e-12 </wgt>
<wgt id='1583'> +1.3238063e-12 </wgt>
<wgt id='1584'> +1.3254651e-12 </wgt>
<wgt id='1585'> +1.3249590e-12 </wgt>
<wgt id='1586'> +1.3238531e-12 </wgt>
<wgt id='1587'> +1.3247710e-12 </wgt>
<wgt id='1588'> +1.3247140e-12 </wgt>
<wgt id='1589'> +1.3239978e-12 </wgt>
<wgt id='1590'> +1.3250333e-12 </wgt>
<wgt id='1591'> +1.3248726e-12 </wgt>
<wgt id='1592'> +1.3249671e-12 </wgt>
<wgt id='1593'> +1.3246565e-12 </wgt>
<wgt id='1594'> +1.3243737e-12 </wgt>
<wgt id='1595'> +1.3245214e-12 </wgt>
<wgt id='1596'> +1.3239169e-12 </wgt>
<wgt id='1597'> +1.3250142e-12 </wgt>
<wgt id='1598'> +1.3238481e-12 </wgt>
<wgt id='1599'> +1.3225486e-12 </wgt>
<wgt id='1600'> +1.3240396e-12 </wgt>
<wgt id='1601'> +1.3249787e-12 </wgt>
<wgt id='1602'> +1.3249448e-12 </wgt>
<wgt id='1603'> +1.3239644e-12 </wgt>
<wgt id='1604'> +1.3236584e-12 </wgt>
<wgt id='1605'> +1.3241093e-12 </wgt>
<wgt id='1606'> +1.3246242e-12 </wgt>
<wgt id='1607'> +1.3241293e-12 </wgt>
<wgt id='1608'> +1.3246090e-12 </wgt>
<wgt id='1609'> +1.3250790e-12 </wgt>
<wgt id='1610'> +1.3125400e-12 </wgt>
<wgt id='1611'> +1.3374407e-12 </wgt>
<wgt id='1612'> +1.5371389e-12 </wgt>
<wgt id='1613'> +1.5011980e-12 </wgt>
<wgt id='1614'> +1.5127341e-12 </wgt>
<wgt id='1615'> +1.5429161e-12 </wgt>
<wgt id='1616'> +1.4935096e-12 </wgt>
<wgt id='1617'> +1.5533801e-12 </wgt>
<wgt id='1618'> +1.5452418e-12 </wgt>
<wgt id='1619'> +1.5331401e-12 </wgt>
<wgt id='1620'> +1.5038613e-12 </wgt>
<wgt id='1621'> +1.5656754e-12 </wgt>
<wgt id='1622'> +1.5366924e-12 </wgt>
<wgt id='1623'> +1.5171629e-12 </wgt>
<wgt id='1624'> +1.5389637e-12 </wgt>
<wgt id='1625'> +1.5345328e-12 </wgt>
<wgt id='1626'> +1.5236425e-12 </wgt>
<wgt id='1627'> +1.5346447e-12 </wgt>
<wgt id='1628'> +1.4889946e-12 </wgt>
<wgt id='1629'> +1.5839946e-12 </wgt>
<wgt id='1630'> +1.5213870e-12 </wgt>
<wgt id='1631'> +1.5440547e-12 </wgt>
<wgt id='1632'> +1.4899608e-12 </wgt>
<wgt id='1633'> +1.5029735e-12 </wgt>
<wgt id='1634'> +1.5499139e-12 </wgt>
<wgt id='1635'> +1.5599961e-12 </wgt>
<wgt id='1636'> +1.5721890e-12 </wgt>
<wgt id='1637'> +1.5521531e-12 </wgt>
<wgt id='1638'> +1.5533489e-12 </wgt>
<wgt id='1639'> +1.5058591e-12 </wgt>
<wgt id='1640'> +1.5553101e-12 </wgt>
<wgt id='1641'> +1.5262074e-12 </wgt>
<wgt id='1642'> +1.5247761e-12 </wgt>
<wgt id='1643'> +1.5083456e-12 </wgt>
<wgt id='1644'> +1.5672133e-12 </wgt>
<wgt id='1645'> +1.5419961e-12 </wgt>
<wgt id='1646'> +1.5369022e-12 </wgt>
<wgt id='1647'> +1.5291016e-12 </wgt>
<wgt id='1648'> +1.5764094e-12 </wgt>
<wgt id='1649'> +1.5581735e-12 </wgt>
<wgt id='1650'> +1.5202954e-12 </wgt>
<wgt id='1651'> +1.5161825e-12 </wgt>
<wgt id='1652'> +1.5135726e-12 </wgt>
<wgt id='1653'> +1.5526406e-12 </wgt>
<wgt id='1654'> +1.5328575e-12 </wgt>
<wgt id='1655'> +1.5386311e-12 </wgt>
<wgt id='1656'> +1.5358270e-12 </wgt>
<wgt id='1657'> +1.5186665e-12 </wgt>
<wgt id='1658'> +1.5160411e-12 </wgt>
<wgt id='1659'> +1.5389637e-12 </wgt>
<wgt id='1660'> +1.5662559e-12 </wgt>
<wgt id='1661'> +1.5518901e-12 </wgt>
<wgt id='1662'> +1.5746716e-12 </wgt>
<wgt id='1663'> +1.5282693e-12 </wgt>
<wgt id='1664'> +1.5386867e-12 </wgt>
<wgt id='1665'> +1.4806452e-12 </wgt>
<wgt id='1666'> +1.5404187e-12 </wgt>
<wgt id='1667'> +1.5257813e-12 </wgt>
<wgt id='1668'> +1.5668281e-12 </wgt>
<wgt id='1669'> +1.5612238e-12 </wgt>
<wgt id='1670'> +1.5574593e-12 </wgt>
<wgt id='1671'> +1.5522678e-12 </wgt>
<wgt id='1672'> +1.5810688e-12 </wgt>
<wgt id='1673'> +1.5138026e-12 </wgt>
<wgt id='1674'> +1.4793673e-12 </wgt>
<wgt id='1675'> +1.5462133e-12 </wgt>
<wgt id='1676'> +1.5475415e-12 </wgt>
<wgt id='1677'> +1.5821950e-12 </wgt>
<wgt id='1678'> +1.5207512e-12 </wgt>
<wgt id='1679'> +1.5245343e-12 </wgt>
<wgt id='1680'> +1.5585215e-12 </wgt>
<wgt id='1681'> +1.5594006e-12 </wgt>
<wgt id='1682'> +1.5358579e-12 </wgt>
<wgt id='1683'> +1.4966632e-12 </wgt>
<wgt id='1684'> +1.5503962e-12 </wgt>
<wgt id='1685'> +1.5196593e-12 </wgt>
<wgt id='1686'> +1.5417478e-12 </wgt>
<wgt id='1687'> +1.5519299e-12 </wgt>
<wgt id='1688'> +1.5287943e-12 </wgt>
<wgt id='1689'> +1.5717391e-12 </wgt>
<wgt id='1690'> +1.5364533e-12 </wgt>
<wgt id='1691'> +1.5428283e-12 </wgt>
<wgt id='1692'> +1.5875951e-12 </wgt>
<wgt id='1693'> +1.5507616e-12 </wgt>
<wgt id='1694'> +1.5620451e-12 </wgt>
<wgt id='1695'> +1.5776881e-12 </wgt>
<wgt id='1696'> +1.5391862e-12 </wgt>
<wgt id='1697'> +1.5085278e-12 </wgt>
<wgt id='1698'> +1.5361150e-12 </wgt>
<wgt id='1699'> +1.5287073e-12 </wgt>
<wgt id='1700'> +1.5220049e-12 </wgt>
<wgt id='1701'> +1.5674265e-12 </wgt>
<wgt id='1702'> +1.5117008e-12 </wgt>
<wgt id='1703'> +1.5414607e-12 </wgt>
<wgt id='1704'> +1.5391534e-12 </wgt>
<wgt id='1705'> +1.4760100e-12 </wgt>
<wgt id='1706'> +1.5574744e-12 </wgt>
<wgt id='1707'> +1.5174010e-12 </wgt>
<wgt id='1708'> +1.5521997e-12 </wgt>
<wgt id='1709'> +1.5570066e-12 </wgt>
<wgt id='1710'> +1.5170671e-12 </wgt>
<wgt id='1711'> +1.5090890e-12 </wgt>
<wgt id='1712'> +1.5500046e-12 </wgt>
<wgt id='1713'> +1.2821568e-12 </wgt>
<wgt id='1714'> +1.2602815e-12 </wgt>
<wgt id='1715'> +1.2604108e-12 </wgt>
<wgt id='1716'> +1.3132213e-12 </wgt>
<wgt id='1717'> +1.2841059e-12 </wgt>
<wgt id='1718'> +1.2952140e-12 </wgt>
<wgt id='1719'> +1.2835955e-12 </wgt>
<wgt id='1720'> +1.2748040e-12 </wgt>
<wgt id='1721'> +1.2625356e-12 </wgt>
<wgt id='1722'> +1.2708782e-12 </wgt>
<wgt id='1723'> +1.3022156e-12 </wgt>
<wgt id='1724'> +1.3338849e-12 </wgt>
<wgt id='1725'> +1.2834227e-12 </wgt>
<wgt id='1726'> +1.2787391e-12 </wgt>
<wgt id='1727'> +1.3194566e-12 </wgt>
<wgt id='1728'> +1.2761307e-12 </wgt>
<wgt id='1729'> +1.2401541e-12 </wgt>
<wgt id='1730'> +1.2809486e-12 </wgt>
<wgt id='1731'> +1.2228874e-12 </wgt>
<wgt id='1732'> +1.2947220e-12 </wgt>
<wgt id='1733'> +1.2230664e-12 </wgt>
<wgt id='1734'> +1.3286942e-12 </wgt>
<wgt id='1735'> +1.2744816e-12 </wgt>
<wgt id='1736'> +1.3194567e-12 </wgt>
<wgt id='1737'> +1.3124017e-12 </wgt>
<wgt id='1738'> +1.2842254e-12 </wgt>
<wgt id='1739'> +1.2730206e-12 </wgt>
<wgt id='1740'> +1.2192710e-12 </wgt>
<wgt id='1741'> +1.3214113e-12 </wgt>
<wgt id='1742'> +1.2608915e-12 </wgt>
<wgt id='1743'> +1.2572931e-12 </wgt>
<wgt id='1744'> +1.2963828e-12 </wgt>
<wgt id='1745'> +1.2939827e-12 </wgt>
<wgt id='1746'> +1.2765386e-12 </wgt>
<wgt id='1747'> +1.3117042e-12 </wgt>
<wgt id='1748'> +1.2551615e-12 </wgt>
<wgt id='1749'> +1.2651486e-12 </wgt>
<wgt id='1750'> +1.2634830e-12 </wgt>
<wgt id='1751'> +1.2510147e-12 </wgt>
<wgt id='1752'> +1.2624696e-12 </wgt>
<wgt id='1753'> +1.2943681e-12 </wgt>
<wgt id='1754'> +1.3080290e-12 </wgt>
<wgt id='1755'> +1.2932628e-12 </wgt>
<wgt id='1756'> +1.2989673e-12 </wgt>
<wgt id='1757'> +1.2819276e-12 </wgt>
<wgt id='1758'> +1.3244591e-12 </wgt>
<wgt id='1759'> +1.2878640e-12 </wgt>
<wgt id='1760'> +1.2682488e-12 </wgt>
<wgt id='1761'> +1.2790535e-12 </wgt>
<wgt id='1762'> +1.2480929e-12 </wgt>
<wgt id='1763'> +1.2990174e-12 </wgt>
<wgt id='1764'> +1.3030224e-12 </wgt>
<wgt id='1765'> +1.2608588e-12 </wgt>
<wgt id='1766'> +1.3143109e-12 </wgt>
<wgt id='1767'> +1.2989864e-12 </wgt>
<wgt id='1768'> +1.2961485e-12 </wgt>
<wgt id='1769'> +1.2887196e-12 </wgt>
<wgt id='1770'> +1.2580670e-12 </wgt>
<wgt id='1771'> +1.3165528e-12 </wgt>
<wgt id='1772'> +1.2801364e-12 </wgt>
<wgt id='1773'> +1.2745642e-12 </wgt>
<wgt id='1774'> +1.2574794e-12 </wgt>
<wgt id='1775'> +1.2815039e-12 </wgt>
<wgt id='1776'> +1.3307765e-12 </wgt>
<wgt id='1777'> +1.2361329e-12 </wgt>
<wgt id='1778'> +1.2798378e-12 </wgt>
<wgt id='1779'> +1.2832022e-12 </wgt>
<wgt id='1780'> +1.2941524e-12 </wgt>
<wgt id='1781'> +1.2909370e-12 </wgt>
<wgt id='1782'> +1.2686689e-12 </wgt>
<wgt id='1783'> +1.2827058e-12 </wgt>
<wgt id='1784'> +1.2900338e-12 </wgt>
<wgt id='1785'> +1.2919376e-12 </wgt>
<wgt id='1786'> +1.2884753e-12 </wgt>
<wgt id='1787'> +1.3329562e-12 </wgt>
<wgt id='1788'> +1.2885920e-12 </wgt>
<wgt id='1789'> +1.3343148e-12 </wgt>
<wgt id='1790'> +1.2989678e-12 </wgt>
<wgt id='1791'> +1.2813002e-12 </wgt>
<wgt id='1792'> +1.2579334e-12 </wgt>
<wgt id='1793'> +1.2762722e-12 </wgt>
<wgt id='1794'> +1.3135575e-12 </wgt>
<wgt id='1795'> +1.2910862e-12 </wgt>
<wgt id='1796'> +1.2551698e-12 </wgt>
<wgt id='1797'> +1.2903684e-12 </wgt>
<wgt id='1798'> +1.2767981e-12 </wgt>
<wgt id='1799'> +1.2942233e-12 </wgt>
<wgt id='1800'> +1.3017669e-12 </wgt>
<wgt id='1801'> +1.2836395e-12 </wgt>
<wgt id='1802'> +1.2668862e-12 </wgt>
<wgt id='1803'> +1.3092482e-12 </wgt>
<wgt id='1804'> +1.2655012e-12 </wgt>
<wgt id='1805'> +1.2471197e-12 </wgt>
<wgt id='1806'> +1.2511737e-12 </wgt>
<wgt id='1807'> +1.2994097e-12 </wgt>
<wgt id='1808'> +1.2613136e-12 </wgt>
<wgt id='1809'> +1.2781664e-12 </wgt>
<wgt id='1810'> +1.2677907e-12 </wgt>
<wgt id='1811'> +1.2842972e-12 </wgt>
<wgt id='1812'> +1.2638168e-12 </wgt>
<wgt id='1813'> +1.2128624e-12 </wgt>
<wgt id='1814'> +1.5595228e-12 </wgt>
<wgt id='1815'> +1.8373083e-12 </wgt>
<wgt id='1816'> +1.2821568e-12 </wgt>
<wgt id='1817'> +1.2602815e-12 </wgt>
<wgt id='1818'> +1.2604108e-12 </wgt>
<wgt id='1819'> +1.3132213e-12 </wgt>
<wgt id='1820'> +1.2841059e-12 </wgt>
<wgt id='1821'> +1.2952140e-12 </wgt>
<wgt id='1822'> +1.2835955e-12 </wgt>
<wgt id='1823'> +1.2748040e-12 </wgt>
<wgt id='1824'> +1.2625356e-12 </wgt>
<wgt id='1825'> +1.2708782e-12 </wgt>
<wgt id='1826'> +1.3022156e-12 </wgt>
<wgt id='1827'> +1.3338849e-12 </wgt>
<wgt id='1828'> +1.2834227e-12 </wgt>
<wgt id='1829'> +1.2787391e-12 </wgt>
<wgt id='1830'> +1.3194566e-12 </wgt>
<wgt id='1831'> +1.2761307e-12 </wgt>
<wgt id='1832'> +1.2401541e-12 </wgt>
<wgt id='1833'> +1.2809486e-12 </wgt>
<wgt id='1834'> +1.2228874e-12 </wgt>
<wgt id='1835'> +1.2947220e-12 </wgt>
<wgt id='1836'> +1.2230664e-12 </wgt>
<wgt id='1837'> +1.3286942e-12 </wgt>
<wgt id='1838'> +1.2744816e-12 </wgt>
<wgt id='1839'> +1.3194567e-12 </wgt>
<wgt id='1840'> +1.3124017e-12 </wgt>
<wgt id='1841'> +1.2842254e-12 </wgt>
<wgt id='1842'> +1.2730206e-12 </wgt>
<wgt id='1843'> +1.2192710e-12 </wgt>
<wgt id='1844'> +1.3214113e-12 </wgt>
<wgt id='1845'> +1.2608915e-12 </wgt>
<wgt id='1846'> +1.2572931e-12 </wgt>
<wgt id='1847'> +1.2963828e-12 </wgt>
<wgt id='1848'> +1.2939827e-12 </wgt>
<wgt id='1849'> +1.2765386e-12 </wgt>
<wgt id='1850'> +1.3117042e-12 </wgt>
<wgt id='1851'> +1.2551615e-12 </wgt>
<wgt id='1852'> +1.2651486e-12 </wgt>
<wgt id='1853'> +1.2634830e-12 </wgt>
<wgt id='1854'> +1.2510147e-12 </wgt>
<wgt id='1855'> +1.2624696e-12 </wgt>
<wgt id='1856'> +1.2943681e-12 </wgt>
<wgt id='1857'> +1.3080290e-12 </wgt>
<wgt id='1858'> +1.2932628e-12 </wgt>
<wgt id='1859'> +1.2989673e-12 </wgt>
<wgt id='1860'> +1.2819276e-12 </wgt>
<wgt id='1861'> +1.3244591e-12 </wgt>
<wgt id='1862'> +1.2878640e-12 </wgt>
<wgt id='1863'> +1.2682488e-12 </wgt>
<wgt id='1864'> +1.2790535e-12 </wgt>
<wgt id='1865'> +1.2480929e-12 </wgt>
<wgt id='1866'> +1.2990174e-12 </wgt>
<wgt id='1867'> +1.3030224e-12 </wgt>
<wgt id='1868'> +1.2608588e-12 </wgt>
<wgt id='1869'> +1.3143109e-12 </wgt>
<wgt id='1870'> +1.2989864e-12 </wgt>
<wgt id='1871'> +1.2961485e-12 </wgt>
<wgt id='1872'> +1.2887196e-12 </wgt>
<wgt id='1873'> +1.2580670e-12 </wgt>
<wgt id='1874'> +1.3165528e-12 </wgt>
<wgt id='1875'> +1.2801364e-12 </wgt>
<wgt id='1876'> +1.2745642e-12 </wgt>
<wgt id='1877'> +1.2574794e-12 </wgt>
<wgt id='1878'> +1.2815039e-12 </wgt>
<wgt id='1879'> +1.3307765e-12 </wgt>
<wgt id='1880'> +1.2361329e-12 </wgt>
<wgt id='1881'> +1.2798378e-12 </wgt>
<wgt id='1882'> +1.2832022e-12 </wgt>
<wgt id='1883'> +1.2941524e-12 </wgt>
<wgt id='1884'> +1.2909370e-12 </wgt>
<wgt id='1885'> +1.2686689e-12 </wgt>
<wgt id='1886'> +1.2827058e-12 </wgt>
<wgt id='1887'> +1.2900338e-12 </wgt>
<wgt id='1888'> +1.2919376e-12 </wgt>
<wgt id='1889'> +1.2884753e-12 </wgt>
<wgt id='1890'> +1.3329562e-12 </wgt>
<wgt id='1891'> +1.2885920e-12 </wgt>
<wgt id='1892'> +1.3343148e-12 </wgt>
<wgt id='1893'> +1.2989678e-12 </wgt>
<wgt id='1894'> +1.2813002e-12 </wgt>
<wgt id='1895'> +1.2579334e-12 </wgt>
<wgt id='1896'> +1.2762722e-12 </wgt>
<wgt id='1897'> +1.3135575e-12 </wgt>
<wgt id='1898'> +1.2910862e-12 </wgt>
<wgt id='1899'> +1.2551698e-12 </wgt>
<wgt id='1900'> +1.2903684e-12 </wgt>
<wgt id='1901'> +1.2767981e-12 </wgt>
<wgt id='1902'> +1.2942233e-12 </wgt>
<wgt id='1903'> +1.3017669e-12 </wgt>
<wgt id='1904'> +1.2836395e-12 </wgt>
<wgt id='1905'> +1.2668862e-12 </wgt>
<wgt id='1906'> +1.3092482e-12 </wgt>
<wgt id='1907'> +1.2655012e-12 </wgt>
<wgt id='1908'> +1.2471197e-12 </wgt>
<wgt id='1909'> +1.2511737e-12 </wgt>
<wgt id='1910'> +1.2994097e-12 </wgt>
<wgt id='1911'> +1.2613136e-12 </wgt>
<wgt id='1912'> +1.2781664e-12 </wgt>
<wgt id='1913'> +1.2677907e-12 </wgt>
<wgt id='1914'> +1.2842972e-12 </wgt>
<wgt id='1915'> +1.2638168e-12 </wgt>
<wgt id='1916'> +1.2128624e-12 </wgt>
<wgt id='1917'> +1.2709087e-12 </wgt>
<wgt id='1918'> +1.2910801e-12 </wgt>
<wgt id='1919'> +1.2717957e-12 </wgt>
</rwgt>
</event>
<event>
 9      1 +1.5607000e-12 3.26990000e+01 7.81860800e-03 1.42427000e-01
       21 -1    0    0  501  502 +0.0000000000e+00 +0.0000000000e+00 +2.4785788066e+01 2.4785788066e+01 0.0000000000e+00 0.0000e+00 -1.0000e+00
       -4 -1    0    0    0  501 -0.0000000000e+00 -0.0000000000e+00 -7.7830144530e+01 7.7843097302e+01 1.4200000000e+00 0.0000e+00 -1.0000e+00
     1023  2    1    2    0    0 +2.8994603833e+01 -1.8746382090e+00 +9.1607593010e+00 3.3957973424e+01 1.5000770922e+01 0.0000e+00 0.0000e+00
  1000023  2    3    3    0    0 +1.6085431243e+01 +3.5686689204e+00 +2.1155701767e+00 1.7498598610e+01 5.4998927271e+00 0.0000e+00 0.0000e+00
       -4  1    1    2    0  502 -2.8994603833e+01 +1.8746382090e+00 -6.2205115766e+01 6.8670911944e+01 1.4200000000e+00 0.0000e+00 -1.0000e+00
  1000022  1    4    4    0    0 +1.4467921994e+01 +3.2495018453e+00 +2.2427887327e+00 1.5808546119e+01 5.0000000000e+00 0.0000e+00 -1.0000e+00
      -11  1    4    4    0    0 +1.3569535865e+00 +2.8384485335e-01 +2.4387003433e-02 1.3865373863e+00 5.1100000000e-04 0.0000e+00 1.0000e+00
       11  1    4    4    0    0 +2.6055566164e-01 +3.5322221813e-02 -1.5160555944e-01 3.0351510497e-01 5.1100000000e-04 0.0000e+00 -1.0000e+00
  1000022  1    3    3    0    0 +1.2909172590e+01 -5.4433071295e+00 +7.0451891243e+00 1.6459374814e+01 5.0000000000e+00 0.0000e+00 -1.0000e+00
<mgrwt>
<rscale>  1 0.32698998E+02</rscale>
<asrwt>0</asrwt>
<pdfrwt beam="1">  1       21 0.38131982E-02 0.32698998E+02</pdfrwt>
<pdfrwt beam="2">  1       -4 0.11977994E-01 0.32698998E+02</pdfrwt>
<totfact> 0.87656509E+05</totfact>
</mgrwt>
<rwgt>
<wgt id='1001'> +1.5607000e-12 </wgt>
<wgt id='1002'> +1.6593933e-12 </wgt>
<wgt id='1003'> +1.6598128e-12 </wgt>
<wgt id='1004'> +1.5470575e-12 </wgt>
<wgt id='1005'> +1.6955595e-12 </wgt>
<wgt id='1006'> +1.3688366e-12 </wgt>
<wgt id='1007'> +1.4769129e-12 </wgt>
<wgt id='1008'> +1.4773953e-12 </wgt>
<wgt id='1009'> +1.3544731e-12 </wgt>
<wgt id='1010'> +1.5198624e-12 </wgt>
<wgt id='1011'> +1.8181692e-12 </wgt>
<wgt id='1012'> +1.8955165e-12 </wgt>
<wgt id='1013'> +1.8958117e-12 </wgt>
<wgt id='1014'> +1.8066224e-12 </wgt>
<wgt id='1015'> +1.9189945e-12 </wgt>
<wgt id='1016'> +1.9009813e-12 </wgt>
<wgt id='1017'> +1.9299234e-12 </wgt>
<wgt id='1018'> +1.9299987e-12 </wgt>
<wgt id='1019'> +1.8958117e-12 </wgt>
<wgt id='1020'> +1.9329805e-12 </wgt>
<wgt id='1021'> +1.6672857e-12 </wgt>
<wgt id='1022'> +1.7176933e-12 </wgt>
<wgt id='1023'> +1.7178871e-12 </wgt>
<wgt id='1024'> +1.6598128e-12 </wgt>
<wgt id='1025'> +1.7326814e-12 </wgt>
<wgt id='1026'> +2.2145868e-12 </wgt>
<wgt id='1027'> +2.2045416e-12 </wgt>
<wgt id='1028'> +2.2044137e-12 </wgt>
<wgt id='1029'> +2.2138905e-12 </wgt>
<wgt id='1030'> +2.1877021e-12 </wgt>
<wgt id='1031'> +1.1820706e-12 </wgt>
<wgt id='1032'> +1.3536719e-12 </wgt>
<wgt id='1033'> +1.3544731e-12 </wgt>
<wgt id='1034'> +1.1600695e-12 </wgt>
<wgt id='1035'> +1.4259366e-12 </wgt>
<wgt id='1036'> +1.0367537e-12 </wgt>
<wgt id='1037'> +1.2048111e-12 </wgt>
<wgt id='1038'> +1.2056132e-12 </wgt>
<wgt id='1039'> +1.0156590e-12 </wgt>
<wgt id='1040'> +1.2781783e-12 </wgt>
<wgt id='1041'> +1.3770771e-12 </wgt>
<wgt id='1042'> +1.5462925e-12 </wgt>
<wgt id='1043'> +1.5470575e-12 </wgt>
<wgt id='1044'> +1.3547056e-12 </wgt>
<wgt id='1045'> +1.6138416e-12 </wgt>
<wgt id='1046'> +1.5607000e-12 </wgt>
<wgt id='1047'> +1.4281197e-12 </wgt>
<wgt id='1048'> +1.5716873e-12 </wgt>
<wgt id='1049'> +1.6248827e-12 </wgt>
<wgt id='1050'> +1.5677507e-12 </wgt>
<wgt id='1051'> +1.5824357e-12 </wgt>
<wgt id='1052'> +1.4523681e-12 </wgt>
<wgt id='1053'> +1.5708251e-12 </wgt>
<wgt id='1054'> +1.6129197e-12 </wgt>
<wgt id='1055'> +1.6609035e-12 </wgt>
<wgt id='1056'> +1.6050818e-12 </wgt>
<wgt id='1057'> +1.5596491e-12 </wgt>
<wgt id='1058'> +1.5459989e-12 </wgt>
<wgt id='1059'> +1.5783023e-12 </wgt>
<wgt id='1060'> +1.5187034e-12 </wgt>
<wgt id='1061'> +1.6147375e-12 </wgt>
<wgt id='1062'> +1.5811164e-12 </wgt>
<wgt id='1063'> +1.6034207e-12 </wgt>
<wgt id='1064'> +1.5571816e-12 </wgt>
<wgt id='1065'> +1.5525510e-12 </wgt>
<wgt id='1066'> +1.6498677e-12 </wgt>
<wgt id='1067'> +1.5735320e-12 </wgt>
<wgt id='1068'> +1.5327275e-12 </wgt>
<wgt id='1069'> +1.5349028e-12 </wgt>
<wgt id='1070'> +1.5531802e-12 </wgt>
<wgt id='1071'> +1.6186202e-12 </wgt>
<wgt id='1072'> +1.5831603e-12 </wgt>
<wgt id='1073'> +1.5631580e-12 </wgt>
<wgt id='1074'> +1.5277293e-12 </wgt>
<wgt id='1075'> +1.5623168e-12 </wgt>
<wgt id='1076'> +1.5959798e-12 </wgt>
<wgt id='1077'> +1.4840969e-12 </wgt>
<wgt id='1078'> +1.5942510e-12 </wgt>
<wgt id='1079'> +1.5117650e-12 </wgt>
<wgt id='1080'> +1.5356574e-12 </wgt>
<wgt id='1081'> +1.5611587e-12 </wgt>
<wgt id='1082'> +1.5403133e-12 </wgt>
<wgt id='1083'> +1.5897175e-12 </wgt>
<wgt id='1084'> +1.5793186e-12 </wgt>
<wgt id='1085'> +1.5371749e-12 </wgt>
<wgt id='1086'> +1.5573035e-12 </wgt>
<wgt id='1087'> +1.5737360e-12 </wgt>
<wgt id='1088'> +1.4836970e-12 </wgt>
<wgt id='1089'> +1.5038806e-12 </wgt>
<wgt id='1090'> +1.4708705e-12 </wgt>
<wgt id='1091'> +1.5233550e-12 </wgt>
<wgt id='1092'> +1.4997134e-12 </wgt>
<wgt id='1093'> +1.5071958e-12 </wgt>
<wgt id='1094'> +1.5629064e-12 </wgt>
<wgt id='1095'> +1.5409692e-12 </wgt>
<wgt id='1096'> +1.5474606e-12 </wgt>
<wgt id='1097'> +1.5130533e-12 </wgt>
<wgt id='1098'> +1.6201030e-12 </wgt>
<wgt id='1099'> +1.5687564e-12 </wgt>
<wgt id='1100'> +1.5036541e-12 </wgt>
<wgt id='1101'> +1.5081768e-12 </wgt>
<wgt id='1102'> +1.5364799e-12 </wgt>
<wgt id='1103'> +1.5093729e-12 </wgt>
<wgt id='1104'> +1.5873654e-12 </wgt>
<wgt id='1105'> +1.6438908e-12 </wgt>
<wgt id='1106'> +1.5282266e-12 </wgt>
<wgt id='1107'> +1.5401110e-12 </wgt>
<wgt id='1108'> +1.5924525e-12 </wgt>
<wgt id='1109'> +1.5294050e-12 </wgt>
<wgt id='1110'> +1.5783327e-12 </wgt>
<wgt id='1111'> +1.5548394e-12 </wgt>
<wgt id='1112'> +1.4777141e-12 </wgt>
<wgt id='1113'> +1.4411117e-12 </wgt>
<wgt id='1114'> +1.5993579e-12 </wgt>
<wgt id='1115'> +1.5484497e-12 </wgt>
<wgt id='1116'> +1.5381660e-12 </wgt>
<wgt id='1117'> +1.6463071e-12 </wgt>
<wgt id='1118'> +1.5288167e-12 </wgt>
<wgt id='1119'> +1.6814387e-12 </wgt>
<wgt id='1120'> +1.6811092e-12 </wgt>
<wgt id='1121'> +1.5944053e-12 </wgt>
<wgt id='1122'> +1.4790473e-12 </wgt>
<wgt id='1123'> +1.6755360e-12 </wgt>
<wgt id='1124'> +1.5643153e-12 </wgt>
<wgt id='1125'> +1.5846473e-12 </wgt>
<wgt id='1126'> +1.5145120e-12 </wgt>
<wgt id='1127'> +1.5182021e-12 </wgt>
<wgt id='1128'> +1.5811164e-12 </wgt>
<wgt id='1129'> +1.5046321e-12 </wgt>
<wgt id='1130'> +1.6082074e-12 </wgt>
<wgt id='1131'> +1.5967779e-12 </wgt>
<wgt id='1132'> +1.4335266e-12 </wgt>
<wgt id='1133'> +1.5865430e-12 </wgt>
<wgt id='1134'> +1.5418296e-12 </wgt>
<wgt id='1135'> +1.7282374e-12 </wgt>
<wgt id='1136'> +1.5197944e-12 </wgt>
<wgt id='1137'> +1.5207717e-12 </wgt>
<wgt id='1138'> +1.6399947e-12 </wgt>
<wgt id='1139'> +1.6031443e-12 </wgt>
<wgt id='1140'> +1.6109585e-12 </wgt>
<wgt id='1141'> +1.5435685e-12 </wgt>
<wgt id='1142'> +1.5413069e-12 </wgt>
<wgt id='1143'> +1.4707406e-12 </wgt>
<wgt id='1144'> +1.6270490e-12 </wgt>
<wgt id='1145'> +1.6492639e-12 </wgt>
<wgt id='1146'> +1.6013932e-12 </wgt>
<wgt id='1147'> +1.3116927e-12 </wgt>
<wgt id='1148'> +1.3491819e-12 </wgt>
<wgt id='1149'> +1.3319969e-12 </wgt>
<wgt id='1150'> +1.3295943e-12 </wgt>
<wgt id='1151'> +1.0642293e-12 </wgt>
<wgt id='1152'> +1.5466553e-12 </wgt>
<wgt id='1153'> +1.5393684e-12 </wgt>
<wgt id='1154'> +1.5508669e-12 </wgt>
<wgt id='1155'> +1.5475064e-12 </wgt>
<wgt id='1156'> +1.5462748e-12 </wgt>
<wgt id='1157'> +1.5428655e-12 </wgt>
<wgt id='1158'> +1.5517773e-12 </wgt>
<wgt id='1159'> +1.5435403e-12 </wgt>
<wgt id='1160'> +1.5486977e-12 </wgt>
<wgt id='1161'> +1.5377208e-12 </wgt>
<wgt id='1162'> +1.5528393e-12 </wgt>
<wgt id='1163'> +1.5516640e-12 </wgt>
<wgt id='1164'> +1.5417809e-12 </wgt>
<wgt id='1165'> +1.5304913e-12 </wgt>
<wgt id='1166'> +1.5623222e-12 </wgt>
<wgt id='1167'> +1.5602998e-12 </wgt>
<wgt id='1168'> +1.5275130e-12 </wgt>
<wgt id='1169'> +1.5519351e-12 </wgt>
<wgt id='1170'> +1.5427191e-12 </wgt>
<wgt id='1171'> +1.5436461e-12 </wgt>
<wgt id='1172'> +1.5504164e-12 </wgt>
<wgt id='1173'> +1.5351219e-12 </wgt>
<wgt id='1174'> +1.5577886e-12 </wgt>
<wgt id='1175'> +1.5478993e-12 </wgt>
<wgt id='1176'> +1.5444533e-12 </wgt>
<wgt id='1177'> +1.5472844e-12 </wgt>
<wgt id='1178'> +1.5456587e-12 </wgt>
<wgt id='1179'> +1.5636759e-12 </wgt>
<wgt id='1180'> +1.5240069e-12 </wgt>
<wgt id='1181'> +1.5393606e-12 </wgt>
<wgt id='1182'> +1.5536877e-12 </wgt>
<wgt id='1183'> +1.5458344e-12 </wgt>
<wgt id='1184'> +1.5468619e-12 </wgt>
<wgt id='1185'> +1.5471900e-12 </wgt>
<wgt id='1186'> +1.5464831e-12 </wgt>
<wgt id='1187'> +1.5458826e-12 </wgt>
<wgt id='1188'> +1.5469182e-12 </wgt>
<wgt id='1189'> +1.5410233e-12 </wgt>
<wgt id='1190'> +1.5358759e-12 </wgt>
<wgt id='1191'> +1.5321488e-12 </wgt>
<wgt id='1192'> +1.5523218e-12 </wgt>
<wgt id='1193'> +1.3593255e-12 </wgt>
<wgt id='1194'> +1.3601307e-12 </wgt>
<wgt id='1195'> +1.3586004e-12 </wgt>
<wgt id='1196'> +1.3620043e-12 </wgt>
<wgt id='1197'> +1.3562945e-12 </wgt>
<wgt id='1198'> +1.3620902e-12 </wgt>
<wgt id='1199'> +1.3552059e-12 </wgt>
<wgt id='1200'> +1.3611829e-12 </wgt>
<wgt id='1201'> +1.3581005e-12 </wgt>
<wgt id='1202'> +1.3553896e-12 </wgt>
<wgt id='1203'> +1.3648791e-12 </wgt>
<wgt id='1204'> +1.3366217e-12 </wgt>
<wgt id='1205'> +1.3733793e-12 </wgt>
<wgt id='1206'> +1.3659802e-12 </wgt>
<wgt id='1207'> +1.3503511e-12 </wgt>
<wgt id='1208'> +1.3500919e-12 </wgt>
<wgt id='1209'> +1.3626416e-12 </wgt>
<wgt id='1210'> +1.3672171e-12 </wgt>
<wgt id='1211'> +1.3418582e-12 </wgt>
<wgt id='1212'> +1.3560132e-12 </wgt>
<wgt id='1213'> +1.3624038e-12 </wgt>
<wgt id='1214'> +1.3473951e-12 </wgt>
<wgt id='1215'> +1.3781250e-12 </wgt>
<wgt id='1216'> +1.3694374e-12 </wgt>
<wgt id='1217'> +1.3526629e-12 </wgt>
<wgt id='1218'> +1.3675407e-12 </wgt>
<wgt id='1219'> +1.3551470e-12 </wgt>
<wgt id='1220'> +1.3633060e-12 </wgt>
<wgt id='1221'> +1.3590750e-12 </wgt>
<wgt id='1222'> +1.3545804e-12 </wgt>
<wgt id='1223'> +1.3699406e-12 </wgt>
<wgt id='1224'> +1.3609418e-12 </wgt>
<wgt id='1225'> +1.3586964e-12 </wgt>
<wgt id='1226'> +1.3607414e-12 </wgt>
<wgt id='1227'> +1.3584968e-12 </wgt>
<wgt id='1228'> +1.3533908e-12 </wgt>
<wgt id='1229'> +1.3622900e-12 </wgt>
<wgt id='1230'> +1.3566382e-12 </wgt>
<wgt id='1231'> +1.3447106e-12 </wgt>
<wgt id='1232'> +1.3546787e-12 </wgt>
<wgt id='1233'> +1.3606188e-12 </wgt>
<wgt id='1234'> +1.3593255e-12 </wgt>
<wgt id='1235'> +1.3464459e-12 </wgt>
<wgt id='1236'> +1.3511739e-12 </wgt>
<wgt id='1237'> +1.3555101e-12 </wgt>
<wgt id='1238'> +1.3631911e-12 </wgt>
<wgt id='1239'> +1.3662597e-12 </wgt>
<wgt id='1240'> +1.3691777e-12 </wgt>
<wgt id='1241'> +1.2890094e-12 </wgt>
<wgt id='1242'> +1.2851468e-12 </wgt>
<wgt id='1243'> +1.2929760e-12 </wgt>
<wgt id='1244'> +1.2816306e-12 </wgt>
<wgt id='1245'> +1.2945144e-12 </wgt>
<wgt id='1246'> +1.2908625e-12 </wgt>
<wgt id='1247'> +1.2875081e-12 </wgt>
<wgt id='1248'> +1.2889054e-12 </wgt>
<wgt id='1249'> +1.2891991e-12 </wgt>
<wgt id='1250'> +1.2848134e-12 </wgt>
<wgt id='1251'> +1.2920401e-12 </wgt>
<wgt id='1252'> +1.2853529e-12 </wgt>
<wgt id='1253'> +1.2918367e-12 </wgt>
<wgt id='1254'> +1.2663947e-12 </wgt>
<wgt id='1255'> +1.3027371e-12 </wgt>
<wgt id='1256'> +1.2952147e-12 </wgt>
<wgt id='1257'> +1.2734795e-12 </wgt>
<wgt id='1258'> +1.3073060e-12 </wgt>
<wgt id='1259'> +1.2715348e-12 </wgt>
<wgt id='1260'> +1.2946315e-12 </wgt>
<wgt id='1261'> +1.2827049e-12 </wgt>
<wgt id='1262'> +1.2932440e-12 </wgt>
<wgt id='1263'> +1.2871248e-12 </wgt>
<wgt id='1264'> +1.3001153e-12 </wgt>
<wgt id='1265'> +1.2836782e-12 </wgt>
<wgt id='1266'> +1.2856492e-12 </wgt>
<wgt id='1267'> +1.2934725e-12 </wgt>
<wgt id='1268'> +1.2888963e-12 </wgt>
<wgt id='1269'> +1.2938303e-12 </wgt>
<wgt id='1270'> +1.2796618e-12 </wgt>
<wgt id='1271'> +1.2814592e-12 </wgt>
<wgt id='1272'> +1.2901676e-12 </wgt>
<wgt id='1273'> +1.2879893e-12 </wgt>
<wgt id='1274'> +1.2895261e-12 </wgt>
<wgt id='1275'> +1.2870333e-12 </wgt>
<wgt id='1276'> +1.2912051e-12 </wgt>
<wgt id='1277'> +1.2860583e-12 </wgt>
<wgt id='1278'> +1.2874637e-12 </wgt>
<wgt id='1279'> +1.2813900e-12 </wgt>
<wgt id='1280'> +1.2906863e-12 </wgt>
<wgt id='1281'> +1.2802034e-12 </wgt>
<wgt id='1282'> +1.2890094e-12 </wgt>
<wgt id='1283'> +1.2761390e-12 </wgt>
<wgt id='1284'> +1.2810413e-12 </wgt>
<wgt id='1285'> +1.2854301e-12 </wgt>
<wgt id='1286'> +1.2927434e-12 </wgt>
<wgt id='1287'> +1.2958206e-12 </wgt>
<wgt id='1288'> +1.2983035e-12 </wgt>
<wgt id='1289'> +1.4039213e-12 </wgt>
<wgt id='1290'> +1.4053441e-12 </wgt>
<wgt id='1291'> +1.4023129e-12 </wgt>
<wgt id='1292'> +1.4046397e-12 </wgt>
<wgt id='1293'> +1.4032801e-12 </wgt>
<wgt id='1294'> +1.4067212e-12 </wgt>
<wgt id='1295'> +1.4011972e-12 </wgt>
<wgt id='1296'> +1.3972413e-12 </wgt>
<wgt id='1297'> +1.4120803e-12 </wgt>
<wgt id='1298'> +1.4120891e-12 </wgt>
<wgt id='1299'> +1.3937365e-12 </wgt>
<wgt id='1300'> +1.4082153e-12 </wgt>
<wgt id='1301'> +1.3951250e-12 </wgt>
<wgt id='1302'> +1.4025692e-12 </wgt>
<wgt id='1303'> +1.4057095e-12 </wgt>
<wgt id='1304'> +1.3984579e-12 </wgt>
<wgt id='1305'> +1.4076204e-12 </wgt>
<wgt id='1306'> +1.3935149e-12 </wgt>
<wgt id='1307'> +1.4156909e-12 </wgt>
<wgt id='1308'> +1.4031924e-12 </wgt>
<wgt id='1309'> +1.4043964e-12 </wgt>
<wgt id='1310'> +1.3998068e-12 </wgt>
<wgt id='1311'> +1.4083137e-12 </wgt>
<wgt id='1312'> +1.3957363e-12 </wgt>
<wgt id='1313'> +1.4123757e-12 </wgt>
<wgt id='1314'> +1.4217034e-12 </wgt>
<wgt id='1315'> +1.3787569e-12 </wgt>
<wgt id='1316'> +1.4101279e-12 </wgt>
<wgt id='1317'> +1.4041058e-12 </wgt>
<wgt id='1318'> +1.4195076e-12 </wgt>
<wgt id='1319'> +1.3858790e-12 </wgt>
<wgt id='1320'> +1.4107709e-12 </wgt>
<wgt id='1321'> +1.3974792e-12 </wgt>
<wgt id='1322'> +1.4057247e-12 </wgt>
<wgt id='1323'> +1.4012104e-12 </wgt>
<wgt id='1324'> +1.4022607e-12 </wgt>
<wgt id='1325'> +1.4117050e-12 </wgt>
<wgt id='1326'> +1.4074876e-12 </wgt>
<wgt id='1327'> +1.4030286e-12 </wgt>
<wgt id='1328'> +1.4027465e-12 </wgt>
<wgt id='1329'> +1.4048864e-12 </wgt>
<wgt id='1330'> +1.4009594e-12 </wgt>
<wgt id='1331'> +1.4077883e-12 </wgt>
<wgt id='1332'> +1.4311948e-12 </wgt>
<wgt id='1333'> +1.3924867e-12 </wgt>
<wgt id='1334'> +1.4017791e-12 </wgt>
<wgt id='1335'> +1.4095915e-12 </wgt>
<wgt id='1336'> +1.3966678e-12 </wgt>
<wgt id='1337'> +1.4007667e-12 </wgt>
<wgt id='1338'> +1.4017409e-12 </wgt>
<wgt id='1339'> +1.4046338e-12 </wgt>
<wgt id='1340'> +1.3693559e-12 </wgt>
<wgt id='1341'> +1.3709125e-12 </wgt>
<wgt id='1342'> +1.3676335e-12 </wgt>
<wgt id='1343'> +1.3701262e-12 </wgt>
<wgt id='1344'> +1.3687531e-12 </wgt>
<wgt id='1345'> +1.3720565e-12 </wgt>
<wgt id='1346'> +1.3667850e-12 </wgt>
<wgt id='1347'> +1.3625895e-12 </wgt>
<wgt id='1348'> +1.3768177e-12 </wgt>
<wgt id='1349'> +1.3768167e-12 </wgt>
<wgt id='1350'> +1.3619943e-12 </wgt>
<wgt id='1351'> +1.3736841e-12 </wgt>
<wgt id='1352'> +1.3598535e-12 </wgt>
<wgt id='1353'> +1.3670801e-12 </wgt>
<wgt id='1354'> +1.3733115e-12 </wgt>
<wgt id='1355'> +1.3638166e-12 </wgt>
<wgt id='1356'> +1.3724347e-12 </wgt>
<wgt id='1357'> +1.3581405e-12 </wgt>
<wgt id='1358'> +1.3826557e-12 </wgt>
<wgt id='1359'> +1.3712054e-12 </wgt>
<wgt id='1360'> +1.3677697e-12 </wgt>
<wgt id='1361'> +1.3650957e-12 </wgt>
<wgt id='1362'> +1.3750034e-12 </wgt>
<wgt id='1363'> +1.3565279e-12 </wgt>
<wgt id='1364'> +1.3783449e-12 </wgt>
<wgt id='1365'> +1.3483474e-12 </wgt>
<wgt id='1366'> +1.3862608e-12 </wgt>
<wgt id='1367'> +1.3746892e-12 </wgt>
<wgt id='1368'> +1.3695469e-12 </wgt>
<wgt id='1369'> +1.3822563e-12 </wgt>
<wgt id='1370'> +1.3542538e-12 </wgt>
<wgt id='1371'> +1.3749601e-12 </wgt>
<wgt id='1372'> +1.3621639e-12 </wgt>
<wgt id='1373'> +1.3713700e-12 </wgt>
<wgt id='1374'> +1.3669383e-12 </wgt>
<wgt id='1375'> +1.3677021e-12 </wgt>
<wgt id='1376'> +1.3773625e-12 </wgt>
<wgt id='1377'> +1.3726398e-12 </wgt>
<wgt id='1378'> +1.3691676e-12 </wgt>
<wgt id='1379'> +1.3679906e-12 </wgt>
<wgt id='1380'> +1.3707165e-12 </wgt>
<wgt id='1381'> +1.3678103e-12 </wgt>
<wgt id='1382'> +1.3713997e-12 </wgt>
<wgt id='1383'> +1.3948935e-12 </wgt>
<wgt id='1384'> +1.3585265e-12 </wgt>
<wgt id='1385'> +1.3676556e-12 </wgt>
<wgt id='1386'> +1.3737566e-12 </wgt>
<wgt id='1387'> +1.3608186e-12 </wgt>
<wgt id='1388'> +1.3658208e-12 </wgt>
<wgt id='1389'> +1.3653843e-12 </wgt>
<wgt id='1390'> +1.3703569e-12 </wgt>
<wgt id='1391'> +1.3546932e-12 </wgt>
<wgt id='1392'> +1.3060160e-12 </wgt>
<wgt id='1393'> +1.3224684e-12 </wgt>
<wgt id='1394'> +1.3387250e-12 </wgt>
<wgt id='1395'> +1.3696571e-12 </wgt>
<wgt id='1396'> +1.3543080e-12 </wgt>
<wgt id='1397'> +1.4345574e-12 </wgt>
<wgt id='1398'> +1.4162231e-12 </wgt>
<wgt id='1399'> +1.3994910e-12 </wgt>
<wgt id='1400'> +1.3837980e-12 </wgt>
<wgt id='1401'> +1.3686470e-12 </wgt>
<wgt id='1402'> +1.3409103e-12 </wgt>
<wgt id='1403'> +1.3283274e-12 </wgt>
<wgt id='1404'> +1.3165253e-12 </wgt>
<wgt id='1405'> +1.3543080e-12 </wgt>
<wgt id='1406'> +1.3450424e-12 </wgt>
<wgt id='1407'> +1.3498621e-12 </wgt>
<wgt id='1408'> +1.3583260e-12 </wgt>
<wgt id='1409'> +1.3618939e-12 </wgt>
<wgt id='1410'> +1.2858692e-12 </wgt>
<wgt id='1411'> +1.2865977e-12 </wgt>
<wgt id='1412'> +1.2849957e-12 </wgt>
<wgt id='1413'> +1.2907034e-12 </wgt>
<wgt id='1414'> +1.2810838e-12 </wgt>
<wgt id='1415'> +1.2888126e-12 </wgt>
<wgt id='1416'> +1.2847423e-12 </wgt>
<wgt id='1417'> +1.2785117e-12 </wgt>
<wgt id='1418'> +1.2932816e-12 </wgt>
<wgt id='1419'> +1.2896707e-12 </wgt>
<wgt id='1420'> +1.2822562e-12 </wgt>
<wgt id='1421'> +1.2662391e-12 </wgt>
<wgt id='1422'> +1.2943556e-12 </wgt>
<wgt id='1423'> +1.2858006e-12 </wgt>
<wgt id='1424'> +1.2859670e-12 </wgt>
<wgt id='1425'> +1.2800473e-12 </wgt>
<wgt id='1426'> +1.2922033e-12 </wgt>
<wgt id='1427'> +1.2767929e-12 </wgt>
<wgt id='1428'> +1.2907756e-12 </wgt>
<wgt id='1429'> +1.2834955e-12 </wgt>
<wgt id='1430'> +1.2891871e-12 </wgt>
<wgt id='1431'> +1.2855792e-12 </wgt>
<wgt id='1432'> +1.2860027e-12 </wgt>
<wgt id='1433'> +1.3027951e-12 </wgt>
<wgt id='1434'> +1.2689205e-12 </wgt>
<wgt id='1435'> +1.2931015e-12 </wgt>
<wgt id='1436'> +1.2684917e-12 </wgt>
<wgt id='1437'> +1.2942316e-12 </wgt>
<wgt id='1438'> +1.2829598e-12 </wgt>
<wgt id='1439'> +1.2766251e-12 </wgt>
<wgt id='1440'> +1.3093074e-12 </wgt>
<wgt id='1441'> +1.2872785e-12 </wgt>
<wgt id='1442'> +1.2835235e-12 </wgt>
<wgt id='1443'> +1.2831220e-12 </wgt>
<wgt id='1444'> +1.2925986e-12 </wgt>
<wgt id='1445'> +1.2929788e-12 </wgt>
<wgt id='1446'> +1.2838954e-12 </wgt>
<wgt id='1447'> +1.2866983e-12 </wgt>
<wgt id='1448'> +1.2867605e-12 </wgt>
<wgt id='1449'> +1.2849622e-12 </wgt>
<wgt id='1450'> +1.2864077e-12 </wgt>
<wgt id='1451'> +1.2830460e-12 </wgt>
<wgt id='1452'> +1.2875985e-12 </wgt>
<wgt id='1453'> +1.2871588e-12 </wgt>
<wgt id='1454'> +1.2781713e-12 </wgt>
<wgt id='1455'> +1.2774060e-12 </wgt>
<wgt id='1456'> +1.2861513e-12 </wgt>
<wgt id='1457'> +1.2852987e-12 </wgt>
<wgt id='1458'> +1.2856181e-12 </wgt>
<wgt id='1459'> +1.2890035e-12 </wgt>
<wgt id='1460'> +1.2799043e-12 </wgt>
<wgt id='1461'> +1.2858692e-12 </wgt>
<wgt id='1462'> +1.2775651e-12 </wgt>
<wgt id='1463'> +1.2946505e-12 </wgt>
<wgt id='1464'> +1.2871785e-12 </wgt>
<wgt id='1465'> +1.3607083e-12 </wgt>
<wgt id='1466'> +1.3436885e-12 </wgt>
<wgt id='1467'> +1.3280998e-12 </wgt>
<wgt id='1468'> +1.3146417e-12 </wgt>
<wgt id='1469'> +1.2999314e-12 </wgt>
<wgt id='1470'> +1.2760125e-12 </wgt>
<wgt id='1471'> +1.2632617e-12 </wgt>
<wgt id='1472'> +1.2522367e-12 </wgt>
<wgt id='1473'> +1.2871785e-12 </wgt>
<wgt id='1474'> +1.2784512e-12 </wgt>
<wgt id='1475'> +1.2832461e-12 </wgt>
<wgt id='1476'> +1.2908866e-12 </wgt>
<wgt id='1477'> +1.2941226e-12 </wgt>
<wgt id='1478'> +1.3259237e-12 </wgt>
<wgt id='1479'> +1.3261457e-12 </wgt>
<wgt id='1480'> +1.3239024e-12 </wgt>
<wgt id='1481'> +1.3090223e-12 </wgt>
<wgt id='1482'> +1.3317829e-12 </wgt>
<wgt id='1483'> +1.3170311e-12 </wgt>
<wgt id='1484'> +1.3250686e-12 </wgt>
<wgt id='1485'> +1.3429316e-12 </wgt>
<wgt id='1486'> +1.3255751e-12 </wgt>
<wgt id='1487'> +1.3284571e-12 </wgt>
<wgt id='1488'> +1.3199290e-12 </wgt>
<wgt id='1489'> +1.3612563e-12 </wgt>
<wgt id='1490'> +1.3284953e-12 </wgt>
<wgt id='1491'> +1.3295646e-12 </wgt>
<wgt id='1492'> +1.3226479e-12 </wgt>
<wgt id='1493'> +1.3148580e-12 </wgt>
<wgt id='1494'> +1.3283650e-12 </wgt>
<wgt id='1495'> +1.3360334e-12 </wgt>
<wgt id='1496'> +1.3248306e-12 </wgt>
<wgt id='1497'> +1.3306130e-12 </wgt>
<wgt id='1498'> +1.3240068e-12 </wgt>
<wgt id='1499'> +1.3302596e-12 </wgt>
<wgt id='1500'> +1.3257297e-12 </wgt>
<wgt id='1501'> +1.3242778e-12 </wgt>
<wgt id='1502'> +1.3257642e-12 </wgt>
<wgt id='1503'> +1.3271211e-12 </wgt>
<wgt id='1504'> +1.3275800e-12 </wgt>
<wgt id='1505'> +1.3265301e-12 </wgt>
<wgt id='1506'> +1.3284454e-12 </wgt>
<wgt id='1507'> +1.3253137e-12 </wgt>
<wgt id='1508'> +1.3340864e-12 </wgt>
<wgt id='1509'> +1.2378295e-12 </wgt>
<wgt id='1510'> +1.2345616e-12 </wgt>
<wgt id='1511'> +1.2425123e-12 </wgt>
<wgt id='1512'> +1.2429324e-12 </wgt>
<wgt id='1513'> +1.2360097e-12 </wgt>
<wgt id='1514'> +1.2347611e-12 </wgt>
<wgt id='1515'> +1.2363999e-12 </wgt>
<wgt id='1516'> +1.2364713e-12 </wgt>
<wgt id='1517'> +1.2420976e-12 </wgt>
<wgt id='1518'> +1.2317503e-12 </wgt>
<wgt id='1519'> +1.2393107e-12 </wgt>
<wgt id='1520'> +1.2525491e-12 </wgt>
<wgt id='1521'> +1.2453788e-12 </wgt>
<wgt id='1522'> +1.2559347e-12 </wgt>
<wgt id='1523'> +1.2362144e-12 </wgt>
<wgt id='1524'> +1.2349586e-12 </wgt>
<wgt id='1525'> +1.2270247e-12 </wgt>
<wgt id='1526'> +1.2418794e-12 </wgt>
<wgt id='1527'> +1.2472564e-12 </wgt>
<wgt id='1528'> +1.2357103e-12 </wgt>
<wgt id='1529'> +1.2427198e-12 </wgt>
<wgt id='1530'> +1.2264146e-12 </wgt>
<wgt id='1531'> +1.2377119e-12 </wgt>
<wgt id='1532'> +1.2450450e-12 </wgt>
<wgt id='1533'> +1.2345663e-12 </wgt>
<wgt id='1534'> +1.2317116e-12 </wgt>
<wgt id='1535'> +1.2507031e-12 </wgt>
<wgt id='1536'> +1.2401038e-12 </wgt>
<wgt id='1537'> +1.2388362e-12 </wgt>
<wgt id='1538'> +1.2396013e-12 </wgt>
<wgt id='1539'> +1.2329026e-12 </wgt>
<wgt id='1540'> +1.2324052e-12 </wgt>
<wgt id='1541'> +1.2359158e-12 </wgt>
<wgt id='1542'> +1.2351149e-12 </wgt>
<wgt id='1543'> +1.2384985e-12 </wgt>
<wgt id='1544'> +1.2390785e-12 </wgt>
<wgt id='1545'> +1.2358027e-12 </wgt>
<wgt id='1546'> +1.2410662e-12 </wgt>
<wgt id='1547'> +1.2351666e-12 </wgt>
<wgt id='1548'> +1.2420882e-12 </wgt>
<wgt id='1549'> +1.2391039e-12 </wgt>
<wgt id='1550'> +1.2351854e-12 </wgt>
<wgt id='1551'> +1.2398122e-12 </wgt>
<wgt id='1552'> +1.2386099e-12 </wgt>
<wgt id='1553'> +1.2341212e-12 </wgt>
<wgt id='1554'> +1.2305763e-12 </wgt>
<wgt id='1555'> +1.2329505e-12 </wgt>
<wgt id='1556'> +1.2416502e-12 </wgt>
<wgt id='1557'> +1.2335416e-12 </wgt>
<wgt id='1558'> +1.2415597e-12 </wgt>
<wgt id='1559'> +1.2358318e-12 </wgt>
<wgt id='1560'> +1.2347338e-12 </wgt>
<wgt id='1561'> +1.2420589e-12 </wgt>
<wgt id='1562'> +1.2378405e-12 </wgt>
<wgt id='1563'> +1.2376828e-12 </wgt>
<wgt id='1564'> +1.2402821e-12 </wgt>
<wgt id='1565'> +1.2378695e-12 </wgt>
<wgt id='1566'> +1.2339898e-12 </wgt>
<wgt id='1567'> +1.2332269e-12 </wgt>
<wgt id='1568'> +1.2394264e-12 </wgt>
<wgt id='1569'> +1.2357901e-12 </wgt>
<wgt id='1570'> +1.2433001e-12 </wgt>
<wgt id='1571'> +1.2369009e-12 </wgt>
<wgt id='1572'> +1.2401340e-12 </wgt>
<wgt id='1573'> +1.2394690e-12 </wgt>
<wgt id='1574'> +1.2368860e-12 </wgt>
<wgt id='1575'> +1.2370611e-12 </wgt>
<wgt id='1576'> +1.2406153e-12 </wgt>
<wgt id='1577'> +1.2361994e-12 </wgt>
<wgt id='1578'> +1.2365661e-12 </wgt>
<wgt id='1579'> +1.2388188e-12 </wgt>
<wgt id='1580'> +1.2415654e-12 </wgt>
<wgt id='1581'> +1.2363040e-12 </wgt>
<wgt id='1582'> +1.2366635e-12 </wgt>
<wgt id='1583'> +1.2379818e-12 </wgt>
<wgt id='1584'> +1.2394269e-12 </wgt>
<wgt id='1585'> +1.2377156e-12 </wgt>
<wgt id='1586'> +1.2409362e-12 </wgt>
<wgt id='1587'> +1.2368106e-12 </wgt>
<wgt id='1588'> +1.2354895e-12 </wgt>
<wgt id='1589'> +1.2369280e-12 </wgt>
<wgt id='1590'> +1.2376061e-12 </wgt>
<wgt id='1591'> +1.2369952e-12 </wgt>
<wgt id='1592'> +1.2396967e-12 </wgt>
<wgt id='1593'> +1.2383871e-12 </wgt>
<wgt id='1594'> +1.2372459e-12 </wgt>
<wgt id='1595'> +1.2359424e-12 </wgt>
<wgt id='1596'> +1.2358595e-12 </wgt>
<wgt id='1597'> +1.2378386e-12 </wgt>
<wgt id='1598'> +1.2376888e-12 </wgt>
<wgt id='1599'> +1.2375913e-12 </wgt>
<wgt id='1600'> +1.2344952e-12 </wgt>
<wgt id='1601'> +1.2385822e-12 </wgt>
<wgt id='1602'> +1.2376693e-12 </wgt>
<wgt id='1603'> +1.2396326e-12 </wgt>
<wgt id='1604'> +1.2369796e-12 </wgt>
<wgt id='1605'> +1.2398528e-12 </wgt>
<wgt id='1606'> +1.2363910e-12 </wgt>
<wgt id='1607'> +1.2370142e-12 </wgt>
<wgt id='1608'> +1.2375458e-12 </wgt>
<wgt id='1609'> +1.2395255e-12 </wgt>
<wgt id='1610'> +1.2014985e-12 </wgt>
<wgt id='1611'> +1.2703486e-12 </wgt>
<wgt id='1612'> +1.4404471e-12 </wgt>
<wgt id='1613'> +1.5346282e-12 </wgt>
<wgt id='1614'> +1.4584239e-12 </wgt>
<wgt id='1615'> +1.4343785e-12 </wgt>
<wgt id='1616'> +1.5585034e-12 </wgt>
<wgt id='1617'> +1.3259210e-12 </wgt>
<wgt id='1618'> +1.2317623e-12 </wgt>
<wgt id='1619'> +1.4586686e-12 </wgt>
<wgt id='1620'> +1.4912291e-12 </wgt>
<wgt id='1621'> +1.4121613e-12 </wgt>
<wgt id='1622'> +1.4141738e-12 </wgt>
<wgt id='1623'> +1.4765182e-12 </wgt>
<wgt id='1624'> +1.4091919e-12 </wgt>
<wgt id='1625'> +1.4855273e-12 </wgt>
<wgt id='1626'> +1.5308719e-12 </wgt>
<wgt id='1627'> +1.4342738e-12 </wgt>
<wgt id='1628'> +1.4763914e-12 </wgt>
<wgt id='1629'> +1.4957102e-12 </wgt>
<wgt id='1630'> +1.4589440e-12 </wgt>
<wgt id='1631'> +1.4181235e-12 </wgt>
<wgt id='1632'> +1.5815548e-12 </wgt>
<wgt id='1633'> +1.4492340e-12 </wgt>
<wgt id='1634'> +1.4790311e-12 </wgt>
<wgt id='1635'> +1.4237016e-12 </wgt>
<wgt id='1636'> +1.3828619e-12 </wgt>
<wgt id='1637'> +1.3855880e-12 </wgt>
<wgt id='1638'> +1.4479822e-12 </wgt>
<wgt id='1639'> +1.4913306e-12 </wgt>
<wgt id='1640'> +1.5403805e-12 </wgt>
<wgt id='1641'> +1.4415085e-12 </wgt>
<wgt id='1642'> +1.4845732e-12 </wgt>
<wgt id='1643'> +1.5275306e-12 </wgt>
<wgt id='1644'> +1.3841804e-12 </wgt>
<wgt id='1645'> +1.4787071e-12 </wgt>
<wgt id='1646'> +1.5255194e-12 </wgt>
<wgt id='1647'> +1.5226230e-12 </wgt>
<wgt id='1648'> +1.4008614e-12 </wgt>
<wgt id='1649'> +1.2432956e-12 </wgt>
<wgt id='1650'> +1.5129645e-12 </wgt>
<wgt id='1651'> +1.4264203e-12 </wgt>
<wgt id='1652'> +1.5440498e-12 </wgt>
<wgt id='1653'> +1.3445229e-12 </wgt>
<wgt id='1654'> +1.3426589e-12 </wgt>
<wgt id='1655'> +1.3620859e-12 </wgt>
<wgt id='1656'> +1.4844563e-12 </wgt>
<wgt id='1657'> +1.4154088e-12 </wgt>
<wgt id='1658'> +1.4500990e-12 </wgt>
<wgt id='1659'> +1.4091919e-12 </wgt>
<wgt id='1660'> +1.3501460e-12 </wgt>
<wgt id='1661'> +1.4097924e-12 </wgt>
<wgt id='1662'> +1.4392865e-12 </wgt>
<wgt id='1663'> +1.4455844e-12 </wgt>
<wgt id='1664'> +1.5302243e-12 </wgt>
<wgt id='1665'> +1.5333451e-12 </wgt>
<wgt id='1666'> +1.4259112e-12 </wgt>
<wgt id='1667'> +1.4078267e-12 </wgt>
<wgt id='1668'> +1.4092956e-12 </wgt>
<wgt id='1669'> +1.4266537e-12 </wgt>
<wgt id='1670'> +1.4677212e-12 </wgt>
<wgt id='1671'> +1.5076275e-12 </wgt>
<wgt id='1672'> +1.4177404e-12 </wgt>
<wgt id='1673'> +1.3636158e-12 </wgt>
<wgt id='1674'> +1.4728221e-12 </wgt>
<wgt id='1675'> +1.5339275e-12 </wgt>
<wgt id='1676'> +1.4129094e-12 </wgt>
<wgt id='1677'> +1.4416573e-12 </wgt>
<wgt id='1678'> +1.4654460e-12 </wgt>
<wgt id='1679'> +1.4515342e-12 </wgt>
<wgt id='1680'> +1.4187920e-12 </wgt>
<wgt id='1681'> +1.4799464e-12 </wgt>
<wgt id='1682'> +1.4204191e-12 </wgt>
<wgt id='1683'> +1.4110006e-12 </wgt>
<wgt id='1684'> +1.4346298e-12 </wgt>
<wgt id='1685'> +1.4396151e-12 </wgt>
<wgt id='1686'> +1.4787421e-12 </wgt>
<wgt id='1687'> +1.4921301e-12 </wgt>
<wgt id='1688'> +1.4800354e-12 </wgt>
<wgt id='1689'> +1.3856695e-12 </wgt>
<wgt id='1690'> +1.4111388e-12 </wgt>
<wgt id='1691'> +1.4376235e-12 </wgt>
<wgt id='1692'> +1.4269813e-12 </wgt>
<wgt id='1693'> +1.5189518e-12 </wgt>
<wgt id='1694'> +1.3517698e-12 </wgt>
<wgt id='1695'> +1.4413257e-12 </wgt>
<wgt id='1696'> +1.4947675e-12 </wgt>
<wgt id='1697'> +1.3035420e-12 </wgt>
<wgt id='1698'> +1.4265646e-12 </wgt>
<wgt id='1699'> +1.3751104e-12 </wgt>
<wgt id='1700'> +1.4470306e-12 </wgt>
<wgt id='1701'> +1.4285786e-12 </wgt>
<wgt id='1702'> +1.3639148e-12 </wgt>
<wgt id='1703'> +1.4593779e-12 </wgt>
<wgt id='1704'> +1.4184883e-12 </wgt>
<wgt id='1705'> +1.5225822e-12 </wgt>
<wgt id='1706'> +1.3516648e-12 </wgt>
<wgt id='1707'> +1.4156996e-12 </wgt>
<wgt id='1708'> +1.3778972e-12 </wgt>
<wgt id='1709'> +1.4527168e-12 </wgt>
<wgt id='1710'> +1.4437332e-12 </wgt>
<wgt id='1711'> +1.4386519e-12 </wgt>
<wgt id='1712'> +1.4228796e-12 </wgt>
<wgt id='1713'> +1.3376654e-12 </wgt>
<wgt id='1714'> +1.2912110e-12 </wgt>
<wgt id='1715'> +1.3449546e-12 </wgt>
<wgt id='1716'> +1.3173087e-12 </wgt>
<wgt id='1717'> +1.3161648e-12 </wgt>
<wgt id='1718'> +1.2952760e-12 </wgt>
<wgt id='1719'> +1.3417317e-12 </wgt>
<wgt id='1720'> +1.3660482e-12 </wgt>
<wgt id='1721'> +1.3241939e-12 </wgt>
<wgt id='1722'> +1.3235808e-12 </wgt>
<wgt id='1723'> +1.2876016e-12 </wgt>
<wgt id='1724'> +1.3343302e-12 </wgt>
<wgt id='1725'> +1.3660811e-12 </wgt>
<wgt id='1726'> +1.3632893e-12 </wgt>
<wgt id='1727'> +1.2854607e-12 </wgt>
<wgt id='1728'> +1.3412831e-12 </wgt>
<wgt id='1729'> +1.3622241e-12 </wgt>
<wgt id='1730'> +1.3023968e-12 </wgt>
<wgt id='1731'> +1.3109627e-12 </wgt>
<wgt id='1732'> +1.3518270e-12 </wgt>
<wgt id='1733'> +1.3482974e-12 </wgt>
<wgt id='1734'> +1.3411675e-12 </wgt>
<wgt id='1735'> +1.3384806e-12 </wgt>
<wgt id='1736'> +1.4592649e-12 </wgt>
<wgt id='1737'> +1.3259398e-12 </wgt>
<wgt id='1738'> +1.3653433e-12 </wgt>
<wgt id='1739'> +1.2986248e-12 </wgt>
<wgt id='1740'> +1.3031323e-12 </wgt>
<wgt id='1741'> +1.3269783e-12 </wgt>
<wgt id='1742'> +1.3131079e-12 </wgt>
<wgt id='1743'> +1.3677236e-12 </wgt>
<wgt id='1744'> +1.3358814e-12 </wgt>
<wgt id='1745'> +1.2811442e-12 </wgt>
<wgt id='1746'> +1.3766031e-12 </wgt>
<wgt id='1747'> +1.3556050e-12 </wgt>
<wgt id='1748'> +1.3386045e-12 </wgt>
<wgt id='1749'> +1.3802623e-12 </wgt>
<wgt id='1750'> +1.3585102e-12 </wgt>
<wgt id='1751'> +1.3267847e-12 </wgt>
<wgt id='1752'> +1.2863115e-12 </wgt>
<wgt id='1753'> +1.3705885e-12 </wgt>
<wgt id='1754'> +1.3225376e-12 </wgt>
<wgt id='1755'> +1.3645593e-12 </wgt>
<wgt id='1756'> +1.3649964e-12 </wgt>
<wgt id='1757'> +1.3273340e-12 </wgt>
<wgt id='1758'> +1.3677002e-12 </wgt>
<wgt id='1759'> +1.3412970e-12 </wgt>
<wgt id='1760'> +1.3072747e-12 </wgt>
<wgt id='1761'> +1.3010139e-12 </wgt>
<wgt id='1762'> +1.3493375e-12 </wgt>
<wgt id='1763'> +1.3449474e-12 </wgt>
<wgt id='1764'> +1.3427754e-12 </wgt>
<wgt id='1765'> +1.3370910e-12 </wgt>
<wgt id='1766'> +1.3685528e-12 </wgt>
<wgt id='1767'> +1.3351302e-12 </wgt>
<wgt id='1768'> +1.3369163e-12 </wgt>
<wgt id='1769'> +1.2921125e-12 </wgt>
<wgt id='1770'> +1.3965109e-12 </wgt>
<wgt id='1771'> +1.3303923e-12 </wgt>
<wgt id='1772'> +1.3559010e-12 </wgt>
<wgt id='1773'> +1.3295295e-12 </wgt>
<wgt id='1774'> +1.3512707e-12 </wgt>
<wgt id='1775'> +1.3401219e-12 </wgt>
<wgt id='1776'> +1.3635285e-12 </wgt>
<wgt id='1777'> +1.3154630e-12 </wgt>
<wgt id='1778'> +1.3182187e-12 </wgt>
<wgt id='1779'> +1.3544167e-12 </wgt>
<wgt id='1780'> +1.3901579e-12 </wgt>
<wgt id='1781'> +1.3092373e-12 </wgt>
<wgt id='1782'> +1.2926028e-12 </wgt>
<wgt id='1783'> +1.3506568e-12 </wgt>
<wgt id='1784'> +1.3801593e-12 </wgt>
<wgt id='1785'> +1.3196727e-12 </wgt>
<wgt id='1786'> +1.2578526e-12 </wgt>
<wgt id='1787'> +1.3465272e-12 </wgt>
<wgt id='1788'> +1.3186897e-12 </wgt>
<wgt id='1789'> +1.3096983e-12 </wgt>
<wgt id='1790'> +1.3656245e-12 </wgt>
<wgt id='1791'> +1.3975404e-12 </wgt>
<wgt id='1792'> +1.3254428e-12 </wgt>
<wgt id='1793'> +1.3557034e-12 </wgt>
<wgt id='1794'> +1.3359194e-12 </wgt>
<wgt id='1795'> +1.3241946e-12 </wgt>
<wgt id='1796'> +1.3317034e-12 </wgt>
<wgt id='1797'> +1.3430295e-12 </wgt>
<wgt id='1798'> +1.2909430e-12 </wgt>
<wgt id='1799'> +1.3357999e-12 </wgt>
<wgt id='1800'> +1.3247438e-12 </wgt>
<wgt id='1801'> +1.3325748e-12 </wgt>
<wgt id='1802'> +1.3597939e-12 </wgt>
<wgt id='1803'> +1.3352600e-12 </wgt>
<wgt id='1804'> +1.2856031e-12 </wgt>
<wgt id='1805'> +1.3763500e-12 </wgt>
<wgt id='1806'> +1.3174195e-12 </wgt>
<wgt id='1807'> +1.3775781e-12 </wgt>
<wgt id='1808'> +1.3212527e-12 </wgt>
<wgt id='1809'> +1.3422575e-12 </wgt>
<wgt id='1810'> +1.3410483e-12 </wgt>
<wgt id='1811'> +1.3943202e-12 </wgt>
<wgt id='1812'> +1.3729935e-12 </wgt>
<wgt id='1813'> +1.3336346e-12 </wgt>
<wgt id='1814'> +1.2264089e-12 </wgt>
<wgt id='1815'> +1.4352299e-12 </wgt>
<wgt id='1816'> +1.3376654e-12 </wgt>
<wgt id='1817'> +1.2912110e-12 </wgt>
<wgt id='1818'> +1.3449546e-12 </wgt>
<wgt id='1819'> +1.3173087e-12 </wgt>
<wgt id='1820'> +1.3161648e-12 </wgt>
<wgt id='1821'> +1.2952760e-12 </wgt>
<wgt id='1822'> +1.3417317e-12 </wgt>
<wgt id='1823'> +1.3660482e-12 </wgt>
<wgt id='1824'> +1.3241939e-12 </wgt>
<wgt id='1825'> +1.3235808e-12 </wgt>
<wgt id='1826'> +1.2876016e-12 </wgt>
<wgt id='1827'> +1.3343302e-12 </wgt>
<wgt id='1828'> +1.3660811e-12 </wgt>
<wgt id='1829'> +1.3632893e-12 </wgt>
<wgt id='1830'> +1.2854607e-12 </wgt>
<wgt id='1831'> +1.3412831e-12 </wgt>
<wgt id='1832'> +1.3622241e-12 </wgt>
<wgt id='1833'> +1.3023968e-12 </wgt>
<wgt id='1834'> +1.3109627e-12 </wgt>
<wgt id='1835'> +1.3518270e-12 </wgt>
<wgt id='1836'> +1.3482974e-12 </wgt>
<wgt id='1837'> +1.3411675e-12 </wgt>
<wgt id='1838'> +1.3384806e-12 </wgt>
<wgt id='1839'> +1.4592649e-12 </wgt>
<wgt id='1840'> +1.3259398e-12 </wgt>
<wgt id='1841'> +1.3653433e-12 </wgt>
<wgt id='1842'> +1.2986248e-12 </wgt>
<wgt id='1843'> +1.3031323e-12 </wgt>
<wgt id='1844'> +1.3269783e-12 </wgt>
<wgt id='1845'> +1.3131079e-12 </wgt>
<wgt id='1846'> +1.3677236e-12 </wgt>
<wgt id='1847'> +1.3358814e-12 </wgt>
<wgt id='1848'> +1.2811442e-12 </wgt>
<wgt id='1849'> +1.3766031e-12 </wgt>
<wgt id='1850'> +1.3556050e-12 </wgt>
<wgt id='1851'> +1.3386045e-12 </wgt>
<wgt id='1852'> +1.3802623e-12 </wgt>
<wgt id='1853'> +1.3585102e-12 </wgt>
<wgt id='1854'> +1.3267847e-12 </wgt>
<wgt id='1855'> +1.2863115e-12 </wgt>
<wgt id='1856'> +1.3705885e-12 </wgt>
<wgt id='1857'> +1.3225376e-12 </wgt>
<wgt id='1858'> +1.3645593e-12 </wgt>
<wgt id='1859'> +1.3649964e-12 </wgt>
<wgt id='1860'> +1.3273340e-12 </wgt>
<wgt id='1861'> +1.3677002e-12 </wgt>
<wgt id='1862'> +1.3412970e-12 </wgt>
<wgt id='1863'> +1.3072747e-12 </wgt>
<wgt id='1864'> +1.3010139e-12 </wgt>
<wgt id='1865'> +1.3493375e-12 </wgt>
<wgt id='1866'> +1.3449474e-12 </wgt>
<wgt id='1867'> +1.3427754e-12 </wgt>
<wgt id='1868'> +1.3370910e-12 </wgt>
<wgt id='1869'> +1.3685528e-12 </wgt>
<wgt id='1870'> +1.3351302e-12 </wgt>
<wgt id='1871'> +1.3369163e-12 </wgt>
<wgt id='1872'> +1.2921125e-12 </wgt>
<wgt id='1873'> +1.3965109e-12 </wgt>
<wgt id='1874'> +1.3303923e-12 </wgt>
<wgt id='1875'> +1.3559010e-12 </wgt>
<wgt id='1876'> +1.3295295e-12 </wgt>
<wgt id='1877'> +1.3512707e-12 </wgt>
<wgt id='1878'> +1.3401219e-12 </wgt>
<wgt id='1879'> +1.3635285e-12 </wgt>
<wgt id='1880'> +1.3154630e-12 </wgt>
<wgt id='1881'> +1.3182187e-12 </wgt>
<wgt id='1882'> +1.3544167e-12 </wgt>
<wgt id='1883'> +1.3901579e-12 </wgt>
<wgt id='1884'> +1.3092373e-12 </wgt>
<wgt id='1885'> +1.2926028e-12 </wgt>
<wgt id='1886'> +1.3506568e-12 </wgt>
<wgt id='1887'> +1.3801593e-12 </wgt>
<wgt id='1888'> +1.3196727e-12 </wgt>
<wgt id='1889'> +1.2578526e-12 </wgt>
<wgt id='1890'> +1.3465272e-12 </wgt>
<wgt id='1891'> +1.3186897e-12 </wgt>
<wgt id='1892'> +1.3096983e-12 </wgt>
<wgt id='1893'> +1.3656245e-12 </wgt>
<wgt id='1894'> +1.3975404e-12 </wgt>
<wgt id='1895'> +1.3254428e-12 </wgt>
<wgt id='1896'> +1.3557034e-12 </wgt>
<wgt id='1897'> +1.3359194e-12 </wgt>
<wgt id='1898'> +1.3241946e-12 </wgt>
<wgt id='1899'> +1.3317034e-12 </wgt>
<wgt id='1900'> +1.3430295e-12 </wgt>
<wgt id='1901'> +1.2909430e-12 </wgt>
<wgt id='1902'> +1.3357999e-12 </wgt>
<wgt id='1903'> +1.3247438e-12 </wgt>
<wgt id='1904'> +1.3325748e-12 </wgt>
<wgt id='1905'> +1.3597939e-12 </wgt>
<wgt id='1906'> +1.3352600e-12 </wgt>
<wgt id='1907'> +1.2856031e-12 </wgt>
<wgt id='1908'> +1.3763500e-12 </wgt>
<wgt id='1909'> +1.3174195e-12 </wgt>
<wgt id='1910'> +1.3775781e-12 </wgt>
<wgt id='1911'> +1.3212527e-12 </wgt>
<wgt id='1912'> +1.3422575e-12 </wgt>
<wgt id='1913'> +1.3410483e-12 </wgt>
<wgt id='1914'> +1.3943202e-12 </wgt>
<wgt id='1915'> +1.3729935e-12 </wgt>
<wgt id='1916'> +1.3336346e-12 </wgt>
<wgt id='1917'> +1.3162557e-12 </wgt>
<wgt id='1918'> +1.3492310e-12 </wgt>
<wgt id='1919'> +1.3402941e-12 </wgt>
</rwgt>
</event>
<event>
 9      1 +1.5607000e-12 2.73681500e+01 7.81860800e-03 1.47777100e-01
       21 -1    0    0  501  502 +0.0000000000e+00 +0.0000000000e+00 +2.0839797612e+00 2.0839797612e+00 0.0000000000e+00 0.0000e+00 1.0000e+00
        2 -1    0    0  502    0 -0.0000000000e+00 -0.0000000000e+00 -6.1990180828e+02 6.1990180828e+02 0.0000000000e+00 0.0000e+00 1.0000e+00
     1023  2    1    2    0    0 -7.0324752642e-01 +2.2882086340e+01 -5.4426488640e+02 5.4495255024e+02 1.4997700103e+01 0.0000e+00 0.0000e+00
  1000023  2    3    3    0    0 +8.9619064671e-01 +1.1058887884e+01 -1.6364303625e+02 1.6411093087e+02 5.5001964850e+00 0.0000e+00 0.0000e+00
        2  1    1    2  501    0 +7.0324752642e-01 -2.2882086340e+01 -7.3552942114e+01 7.7033237800e+01 0.0000000000e+00 0.0000e+00 1.0000e+00
  1000022  1    4    4    0    0 +1.0416936239e+00 +9.6331313263e+00 -1.4681039777e+02 1.4721472494e+02 5.0000000000e+00 0.0000e+00 1.0000e+00
      -13  1    4    4    0    0 -6.8789965301e-02 +8.1940982448e-01 -1.0796029537e+01 1.0827815604e+01 1.0570000000e-01 0.0000e+00 1.0000e+00
       13  1    4    4    0    0 -7.6713011912e-02 +6.0634673277e-01 -6.0366089350e+00 6.0683903278e+00 1.0570000000e-01 0.0000e+00 -1.0000e+00
  1000022  1    3    3    0    0 -1.5994381731e+00 +1.1823198457e+01 -3.8062185016e+02 3.8084161937e+02 5.0000000000e+00 0.0000e+00 1.0000e+00
<mgrwt>
<rscale>  1 0.27368146E+02</rscale>
<asrwt>0</asrwt>
<pdfrwt beam="1">  1       21 0.32061154E-03 0.27368146E+02</pdfrwt>
<pdfrwt beam="2">  1        2 0.95369726E-01 0.27368146E+02</pdfrwt>
<totfact> 0.81592637E+06</totfact>
</mgrwt>
<rwgt>
<wgt id='1001'> +1.5607000e-12 </wgt>
<wgt id='1002'> +1.6281888e-12 </wgt>
<wgt id='1003'> +1.6327458e-12 </wgt>
<wgt id='1004'> +1.5386856e-12 </wgt>
<wgt id='1005'> +1.6627940e-12 </wgt>
<wgt id='1006'> +1.3621365e-12 </wgt>
<wgt id='1007'> +1.4401227e-12 </wgt>
<wgt id='1008'> +1.4457305e-12 </wgt>
<wgt id='1009'> +1.3378744e-12 </wgt>
<wgt id='1010'> +1.4848382e-12 </wgt>
<wgt id='1011'> +1.8304862e-12 </wgt>
<wgt id='1012'> +1.8752761e-12 </wgt>
<wgt id='1013'> +1.8778164e-12 </wgt>
<wgt id='1014'> +1.8141212e-12 </wgt>
<wgt id='1015'> +1.8912069e-12 </wgt>
<wgt id='1016'> +1.8836506e-12 </wgt>
<wgt id='1017'> +1.8932944e-12 </wgt>
<wgt id='1018'> +1.8932164e-12 </wgt>
<wgt id='1019'> +1.8778164e-12 </wgt>
<wgt id='1020'> +1.8881547e-12 </wgt>
<wgt id='1021'> +1.6439990e-12 </wgt>
<wgt id='1022'> +1.6746069e-12 </wgt>
<wgt id='1023'> +1.6763666e-12 </wgt>
<wgt id='1024'> +1.6327458e-12 </wgt>
<wgt id='1025'> +1.6860803e-12 </wgt>
<wgt id='1026'> +2.2092628e-12 </wgt>
<wgt id='1027'> +2.1806130e-12 </wgt>
<wgt id='1028'> +2.1773828e-12 </wgt>
<wgt id='1029'> +2.2139589e-12 </wgt>
<wgt id='1030'> +2.1475247e-12 </wgt>
<wgt id='1031'> +1.1995389e-12 </wgt>
<wgt id='1032'> +1.3283938e-12 </wgt>
<wgt id='1033'> +1.3378744e-12 </wgt>
<wgt id='1034'> +1.1601819e-12 </wgt>
<wgt id='1035'> +1.4073338e-12 </wgt>
<wgt id='1036'> +1.0469249e-12 </wgt>
<wgt id='1037'> +1.1749559e-12 </wgt>
<wgt id='1038'> +1.1846337e-12 </wgt>
<wgt id='1039'> +1.0087686e-12 </wgt>
<wgt id='1040'> +1.2567179e-12 </wgt>
<wgt id='1041'> +1.4068940e-12 </wgt>
<wgt id='1042'> +1.5299854e-12 </wgt>
<wgt id='1043'> +1.5386856e-12 </wgt>
<wgt id='1044'> +1.3678627e-12 </wgt>
<wgt id='1045'> +1.6006550e-12 </wgt>
<wgt id='1046'> +1.5607000e-12 </wgt>
<wgt id='1047'> +1.5562427e-12 </wgt>
<wgt id='1048'> +1.6221042e-12 </wgt>
<wgt id='1049'> +1.5051757e-12 </wgt>
<wgt id='1050'> +1.5295179e-12 </wgt>
<wgt id='1051'> +1.5148475e-12 </wgt>
<wgt id='1052'> +1.5218517e-12 </wgt>
<wgt id='1053'> +1.6238012e-12 </wgt>
<wgt id='1054'> +1.5967346e-12 </wgt>
<wgt id='1055'> +1.5444141e-12 </wgt>
<wgt id='1056'> +1.4965857e-12 </wgt>
<wgt id='1057'> +1.5427504e-12 </wgt>
<wgt id='1058'> +1.5203484e-12 </wgt>
<wgt id='1059'> +1.5732915e-12 </wgt>
<wgt id='1060'> +1.5751518e-12 </wgt>
<wgt id='1061'> +1.5883060e-12 </wgt>
<wgt id='1062'> +1.5474727e-12 </wgt>
<wgt id='1063'> +1.5133759e-12 </wgt>
<wgt id='1064'> +1.5540856e-12 </wgt>
<wgt id='1065'> +1.6044960e-12 </wgt>
<wgt id='1066'> +1.5659762e-12 </wgt>
<wgt id='1067'> +1.5746519e-12 </wgt>
<wgt id='1068'> +1.6033540e-12 </wgt>
<wgt id='1069'> +1.6213202e-12 </wgt>
<wgt id='1070'> +1.5512505e-12 </wgt>
<wgt id='1071'> +1.5737535e-12 </wgt>
<wgt id='1072'> +1.5745199e-12 </wgt>
<wgt id='1073'> +1.5483939e-12 </wgt>
<wgt id='1074'> +1.5640827e-12 </wgt>
<wgt id='1075'> +1.5493191e-12 </wgt>
<wgt id='1076'> +1.5772723e-12 </wgt>
<wgt id='1077'> +1.5816610e-12 </wgt>
<wgt id='1078'> +1.5299774e-12 </wgt>
<wgt id='1079'> +1.5641012e-12 </wgt>
<wgt id='1080'> +1.5502103e-12 </wgt>
<wgt id='1081'> +1.5040969e-12 </wgt>
<wgt id='1082'> +1.5521777e-12 </wgt>
<wgt id='1083'> +1.5325642e-12 </wgt>
<wgt id='1084'> +1.5406482e-12 </wgt>
<wgt id='1085'> +1.5896967e-12 </wgt>
<wgt id='1086'> +1.6077256e-12 </wgt>
<wgt id='1087'> +1.5462137e-12 </wgt>
<wgt id='1088'> +1.5600351e-12 </wgt>
<wgt id='1089'> +1.5352024e-12 </wgt>
<wgt id='1090'> +1.5641709e-12 </wgt>
<wgt id='1091'> +1.5662549e-12 </wgt>
<wgt id='1092'> +1.5491071e-12 </wgt>
<wgt id='1093'> +1.5934516e-12 </wgt>
<wgt id='1094'> +1.6128961e-12 </wgt>
<wgt id='1095'> +1.6064276e-12 </wgt>
<wgt id='1096'> +1.5291524e-12 </wgt>
<wgt id='1097'> +1.5587792e-12 </wgt>
<wgt id='1098'> +1.5891585e-12 </wgt>
<wgt id='1099'> +1.5513857e-12 </wgt>
<wgt id='1100'> +1.5823634e-12 </wgt>
<wgt id='1101'> +1.5694831e-12 </wgt>
<wgt id='1102'> +1.5470052e-12 </wgt>
<wgt id='1103'> +1.5598423e-12 </wgt>
<wgt id='1104'> +1.5692636e-12 </wgt>
<wgt id='1105'> +1.5118688e-12 </wgt>
<wgt id='1106'> +1.5622124e-12 </wgt>
<wgt id='1107'> +1.6027108e-12 </wgt>
<wgt id='1108'> +1.5520103e-12 </wgt>
<wgt id='1109'> +1.5434188e-12 </wgt>
<wgt id='1110'> +1.5603563e-12 </wgt>
<wgt id='1111'> +1.5582566e-12 </wgt>
<wgt id='1112'> +1.5794918e-12 </wgt>
<wgt id='1113'> +1.6202289e-12 </wgt>
<wgt id='1114'> +1.5913037e-12 </wgt>
<wgt id='1115'> +1.6001667e-12 </wgt>
<wgt id='1116'> +1.6260623e-12 </wgt>
<wgt id='1117'> +1.5514870e-12 </wgt>
<wgt id='1118'> +1.6080340e-12 </wgt>
<wgt id='1119'> +1.5184381e-12 </wgt>
<wgt id='1120'> +1.5533988e-12 </wgt>
<wgt id='1121'> +1.5348460e-12 </wgt>
<wgt id='1122'> +1.5458052e-12 </wgt>
<wgt id='1123'> +1.5899736e-12 </wgt>
<wgt id='1124'> +1.5911909e-12 </wgt>
<wgt id='1125'> +1.5137363e-12 </wgt>
<wgt id='1126'> +1.5321488e-12 </wgt>
<wgt id='1127'> +1.5715350e-12 </wgt>
<wgt id='1128'> +1.5474727e-12 </wgt>
<wgt id='1129'> +1.5206104e-12 </wgt>
<wgt id='1130'> +1.5444011e-12 </wgt>
<wgt id='1131'> +1.5751537e-12 </wgt>
<wgt id='1132'> +1.5777437e-12 </wgt>
<wgt id='1133'> +1.5344087e-12 </wgt>
<wgt id='1134'> +1.5268806e-12 </wgt>
<wgt id='1135'> +1.4946124e-12 </wgt>
<wgt id='1136'> +1.5268177e-12 </wgt>
<wgt id='1137'> +1.5621753e-12 </wgt>
<wgt id='1138'> +1.5468428e-12 </wgt>
<wgt id='1139'> +1.5500507e-12 </wgt>
<wgt id='1140'> +1.5825258e-12 </wgt>
<wgt id='1141'> +1.5568095e-12 </wgt>
<wgt id='1142'> +1.5996971e-12 </wgt>
<wgt id='1143'> +1.5093319e-12 </wgt>
<wgt id='1144'> +1.5556598e-12 </wgt>
<wgt id='1145'> +1.5978940e-12 </wgt>
<wgt id='1146'> +1.5639786e-12 </wgt>
<wgt id='1147'> +1.4055140e-12 </wgt>
<wgt id='1148'> +1.4324085e-12 </wgt>
<wgt id='1149'> +1.3519635e-12 </wgt>
<wgt id='1150'> +1.4103780e-12 </wgt>
<wgt id='1151'> +1.6490308e-12 </wgt>
<wgt id='1152'> +2.2398818e-12 </wgt>
<wgt id='1153'> +2.2410689e-12 </wgt>
<wgt id='1154'> +2.2391287e-12 </wgt>
<wgt id='1155'> +2.2337940e-12 </wgt>
<wgt id='1156'> +2.2429728e-12 </wgt>
<wgt id='1157'> +2.2435350e-12 </wgt>
<wgt id='1158'> +2.2349497e-12 </wgt>
<wgt id='1159'> +2.2429927e-12 </wgt>
<wgt id='1160'> +2.2378891e-12 </wgt>
<wgt id='1161'> +2.2357755e-12 </wgt>
<wgt id='1162'> +2.2427123e-12 </wgt>
<wgt id='1163'> +2.2396312e-12 </wgt>
<wgt id='1164'> +2.2401605e-12 </wgt>
<wgt id='1165'> +2.2419545e-12 </wgt>
<wgt id='1166'> +2.2376754e-12 </wgt>
<wgt id='1167'> +2.2670459e-12 </wgt>
<wgt id='1168'> +2.2068947e-12 </wgt>
<wgt id='1169'> +2.2482422e-12 </wgt>
<wgt id='1170'> +2.2336600e-12 </wgt>
<wgt id='1171'> +2.2322957e-12 </wgt>
<wgt id='1172'> +2.2498491e-12 </wgt>
<wgt id='1173'> +2.2138687e-12 </wgt>
<wgt id='1174'> +2.2671501e-12 </wgt>
<wgt id='1175'> +2.2435736e-12 </wgt>
<wgt id='1176'> +2.2364516e-12 </wgt>
<wgt id='1177'> +2.2340479e-12 </wgt>
<wgt id='1178'> +2.2548533e-12 </wgt>
<wgt id='1179'> +2.2372805e-12 </wgt>
<wgt id='1180'> +2.2365007e-12 </wgt>
<wgt id='1181'> +2.2460695e-12 </wgt>
<wgt id='1182'> +2.2319137e-12 </wgt>
<wgt id='1183'> +2.2332416e-12 </wgt>
<wgt id='1184'> +2.2402490e-12 </wgt>
<wgt id='1185'> +2.2351349e-12 </wgt>
<wgt id='1186'> +2.2422240e-12 </wgt>
<wgt id='1187'> +2.2433387e-12 </wgt>
<wgt id='1188'> +2.2386702e-12 </wgt>
<wgt id='1189'> +2.2332760e-12 </wgt>
<wgt id='1190'> +2.2180160e-12 </wgt>
<wgt id='1191'> +2.2442671e-12 </wgt>
<wgt id='1192'> +2.2449010e-12 </wgt>
<wgt id='1193'> +1.4062942e-12 </wgt>
<wgt id='1194'> +1.3912909e-12 </wgt>
<wgt id='1195'> +1.4186076e-12 </wgt>
<wgt id='1196'> +1.4059030e-12 </wgt>
<wgt id='1197'> +1.4067631e-12 </wgt>
<wgt id='1198'> +1.4054432e-12 </wgt>
<wgt id='1199'> +1.4076147e-12 </wgt>
<wgt id='1200'> +1.4026833e-12 </wgt>
<wgt id='1201'> +1.4087772e-12 </wgt>
<wgt id='1202'> +1.4051863e-12 </wgt>
<wgt id='1203'> +1.4078924e-12 </wgt>
<wgt id='1204'> +1.3995348e-12 </wgt>
<wgt id='1205'> +1.4102778e-12 </wgt>
<wgt id='1206'> +1.4095483e-12 </wgt>
<wgt id='1207'> +1.4018656e-12 </wgt>
<wgt id='1208'> +1.4129627e-12 </wgt>
<wgt id='1209'> +1.4039731e-12 </wgt>
<wgt id='1210'> +1.4044006e-12 </wgt>
<wgt id='1211'> +1.4041640e-12 </wgt>
<wgt id='1212'> +1.4068496e-12 </wgt>
<wgt id='1213'> +1.4061615e-12 </wgt>
<wgt id='1214'> +1.3913805e-12 </wgt>
<wgt id='1215'> +1.4271809e-12 </wgt>
<wgt id='1216'> +1.4138923e-12 </wgt>
<wgt id='1217'> +1.4014020e-12 </wgt>
<wgt id='1218'> +1.4106382e-12 </wgt>
<wgt id='1219'> +1.4038544e-12 </wgt>
<wgt id='1220'> +1.4147137e-12 </wgt>
<wgt id='1221'> +1.4043433e-12 </wgt>
<wgt id='1222'> +1.4274409e-12 </wgt>
<wgt id='1223'> +1.3760693e-12 </wgt>
<wgt id='1224'> +1.4105002e-12 </wgt>
<wgt id='1225'> +1.4046113e-12 </wgt>
<wgt id='1226'> +1.4046759e-12 </wgt>
<wgt id='1227'> +1.4077064e-12 </wgt>
<wgt id='1228'> +1.3978779e-12 </wgt>
<wgt id='1229'> +1.4097464e-12 </wgt>
<wgt id='1230'> +1.4079306e-12 </wgt>
<wgt id='1231'> +1.4153494e-12 </wgt>
<wgt id='1232'> +1.4071981e-12 </wgt>
<wgt id='1233'> +1.4060492e-12 </wgt>
<wgt id='1234'> +1.4062942e-12 </wgt>
<wgt id='1235'> +1.3992495e-12 </wgt>
<wgt id='1236'> +1.4019819e-12 </wgt>
<wgt id='1237'> +1.4044588e-12 </wgt>
<wgt id='1238'> +1.4083805e-12 </wgt>
<wgt id='1239'> +1.4099926e-12 </wgt>
<wgt id='1240'> +1.4115984e-12 </wgt>
<wgt id='1241'> +1.3465945e-12 </wgt>
<wgt id='1242'> +1.3308765e-12 </wgt>
<wgt id='1243'> +1.3620881e-12 </wgt>
<wgt id='1244'> +1.3506891e-12 </wgt>
<wgt id='1245'> +1.3435162e-12 </wgt>
<wgt id='1246'> +1.3421454e-12 </wgt>
<wgt id='1247'> +1.3503565e-12 </wgt>
<wgt id='1248'> +1.3465710e-12 </wgt>
<wgt id='1249'> +1.3466041e-12 </wgt>
<wgt id='1250'> +1.3474413e-12 </wgt>
<wgt id='1251'> +1.3459833e-12 </wgt>
<wgt id='1252'> +1.3440650e-12 </wgt>
<wgt id='1253'> +1.3485190e-12 </wgt>
<wgt id='1254'> +1.3414216e-12 </wgt>
<wgt id='1255'> +1.3495792e-12 </wgt>
<wgt id='1256'> +1.3443015e-12 </wgt>
<wgt id='1257'> +1.3522793e-12 </wgt>
<wgt id='1258'> +1.3594674e-12 </wgt>
<wgt id='1259'> +1.3331189e-12 </wgt>
<wgt id='1260'> +1.3492605e-12 </wgt>
<wgt id='1261'> +1.3438625e-12 </wgt>
<wgt id='1262'> +1.3486270e-12 </wgt>
<wgt id='1263'> +1.3461117e-12 </wgt>
<wgt id='1264'> +1.3528627e-12 </wgt>
<wgt id='1265'> +1.3437910e-12 </wgt>
<wgt id='1266'> +1.3254884e-12 </wgt>
<wgt id='1267'> +1.3663477e-12 </wgt>
<wgt id='1268'> +1.3540410e-12 </wgt>
<wgt id='1269'> +1.3405466e-12 </wgt>
<wgt id='1270'> +1.3508241e-12 </wgt>
<wgt id='1271'> +1.3491526e-12 </wgt>
<wgt id='1272'> +1.3496607e-12 </wgt>
<wgt id='1273'> +1.3463322e-12 </wgt>
<wgt id='1274'> +1.3478946e-12 </wgt>
<wgt id='1275'> +1.3447355e-12 </wgt>
<wgt id='1276'> +1.3528823e-12 </wgt>
<wgt id='1277'> +1.3383723e-12 </wgt>
<wgt id='1278'> +1.3577494e-12 </wgt>
<wgt id='1279'> +1.3529438e-12 </wgt>
<wgt id='1280'> +1.3469703e-12 </wgt>
<wgt id='1281'> +1.3495394e-12 </wgt>
<wgt id='1282'> +1.3465945e-12 </wgt>
<wgt id='1283'> +1.3397720e-12 </wgt>
<wgt id='1284'> +1.3426086e-12 </wgt>
<wgt id='1285'> +1.3447817e-12 </wgt>
<wgt id='1286'> +1.3484583e-12 </wgt>
<wgt id='1287'> +1.3497416e-12 </wgt>
<wgt id='1288'> +1.3507339e-12 </wgt>
<wgt id='1289'> +1.4354300e-12 </wgt>
<wgt id='1290'> +1.4385610e-12 </wgt>
<wgt id='1291'> +1.4320646e-12 </wgt>
<wgt id='1292'> +1.4365309e-12 </wgt>
<wgt id='1293'> +1.4346603e-12 </wgt>
<wgt id='1294'> +1.4206993e-12 </wgt>
<wgt id='1295'> +1.4496409e-12 </wgt>
<wgt id='1296'> +1.4399254e-12 </wgt>
<wgt id='1297'> +1.4297546e-12 </wgt>
<wgt id='1298'> +1.4421863e-12 </wgt>
<wgt id='1299'> +1.4269094e-12 </wgt>
<wgt id='1300'> +1.4387174e-12 </wgt>
<wgt id='1301'> +1.4288471e-12 </wgt>
<wgt id='1302'> +1.4310624e-12 </wgt>
<wgt id='1303'> +1.4415153e-12 </wgt>
<wgt id='1304'> +1.4339310e-12 </wgt>
<wgt id='1305'> +1.4364397e-12 </wgt>
<wgt id='1306'> +1.4372023e-12 </wgt>
<wgt id='1307'> +1.4332314e-12 </wgt>
<wgt id='1308'> +1.4284884e-12 </wgt>
<wgt id='1309'> +1.4407367e-12 </wgt>
<wgt id='1310'> +1.4345141e-12 </wgt>
<wgt id='1311'> +1.4366366e-12 </wgt>
<wgt id='1312'> +1.4438708e-12 </wgt>
<wgt id='1313'> +1.4274730e-12 </wgt>
<wgt id='1314'> +1.4143081e-12 </wgt>
<wgt id='1315'> +1.4540442e-12 </wgt>
<wgt id='1316'> +1.4436393e-12 </wgt>
<wgt id='1317'> +1.4360469e-12 </wgt>
<wgt id='1318'> +1.4462500e-12 </wgt>
<wgt id='1319'> +1.4216568e-12 </wgt>
<wgt id='1320'> +1.4522612e-12 </wgt>
<wgt id='1321'> +1.4205585e-12 </wgt>
<wgt id='1322'> +1.4353643e-12 </wgt>
<wgt id='1323'> +1.4360769e-12 </wgt>
<wgt id='1324'> +1.4324706e-12 </wgt>
<wgt id='1325'> +1.4431374e-12 </wgt>
<wgt id='1326'> +1.4343444e-12 </wgt>
<wgt id='1327'> +1.4391551e-12 </wgt>
<wgt id='1328'> +1.4348033e-12 </wgt>
<wgt id='1329'> +1.4355261e-12 </wgt>
<wgt id='1330'> +1.4428132e-12 </wgt>
<wgt id='1331'> +1.4295469e-12 </wgt>
<wgt id='1332'> +1.4485416e-12 </wgt>
<wgt id='1333'> +1.4382391e-12 </wgt>
<wgt id='1334'> +1.4332131e-12 </wgt>
<wgt id='1335'> +1.4420109e-12 </wgt>
<wgt id='1336'> +1.4375998e-12 </wgt>
<wgt id='1337'> +1.4434825e-12 </wgt>
<wgt id='1338'> +1.4355713e-12 </wgt>
<wgt id='1339'> +1.4365064e-12 </wgt>
<wgt id='1340'> +1.4036390e-12 </wgt>
<wgt id='1341'> +1.4065739e-12 </wgt>
<wgt id='1342'> +1.4004627e-12 </wgt>
<wgt id='1343'> +1.4048372e-12 </wgt>
<wgt id='1344'> +1.4028158e-12 </wgt>
<wgt id='1345'> +1.3883503e-12 </wgt>
<wgt id='1346'> +1.4178067e-12 </wgt>
<wgt id='1347'> +1.4088867e-12 </wgt>
<wgt id='1348'> +1.3977022e-12 </wgt>
<wgt id='1349'> +1.4098529e-12 </wgt>
<wgt id='1350'> +1.3974776e-12 </wgt>
<wgt id='1351'> +1.4066758e-12 </wgt>
<wgt id='1352'> +1.3970220e-12 </wgt>
<wgt id='1353'> +1.3982595e-12 </wgt>
<wgt id='1354'> +1.4132574e-12 </wgt>
<wgt id='1355'> +1.4031204e-12 </wgt>
<wgt id='1356'> +1.4038973e-12 </wgt>
<wgt id='1357'> +1.4042802e-12 </wgt>
<wgt id='1358'> +1.4026430e-12 </wgt>
<wgt id='1359'> +1.3965529e-12 </wgt>
<wgt id='1360'> +1.4097562e-12 </wgt>
<wgt id='1361'> +1.4036391e-12 </wgt>
<wgt id='1362'> +1.4038748e-12 </wgt>
<wgt id='1363'> +1.4187402e-12 </wgt>
<wgt id='1364'> +1.3943161e-12 </wgt>
<wgt id='1365'> +1.4135261e-12 </wgt>
<wgt id='1366'> +1.3849861e-12 </wgt>
<wgt id='1367'> +1.4118872e-12 </wgt>
<wgt id='1368'> +1.4030591e-12 </wgt>
<wgt id='1369'> +1.4125136e-12 </wgt>
<wgt id='1370'> +1.3926151e-12 </wgt>
<wgt id='1371'> +1.4176517e-12 </wgt>
<wgt id='1372'> +1.3864693e-12 </wgt>
<wgt id='1373'> +1.4003799e-12 </wgt>
<wgt id='1374'> +1.4071475e-12 </wgt>
<wgt id='1375'> +1.4007264e-12 </wgt>
<wgt id='1376'> +1.4115882e-12 </wgt>
<wgt id='1377'> +1.4024781e-12 </wgt>
<wgt id='1378'> +1.4075793e-12 </wgt>
<wgt id='1379'> +1.4032162e-12 </wgt>
<wgt id='1380'> +1.4035213e-12 </wgt>
<wgt id='1381'> +1.4113188e-12 </wgt>
<wgt id='1382'> +1.3977956e-12 </wgt>
<wgt id='1383'> +1.4148063e-12 </wgt>
<wgt id='1384'> +1.4074285e-12 </wgt>
<wgt id='1385'> +1.4017118e-12 </wgt>
<wgt id='1386'> +1.4089019e-12 </wgt>
<wgt id='1387'> +1.4054835e-12 </wgt>
<wgt id='1388'> +1.4119428e-12 </wgt>
<wgt id='1389'> +1.4036259e-12 </wgt>
<wgt id='1390'> +1.4054346e-12 </wgt>
<wgt id='1391'> +1.3878692e-12 </wgt>
<wgt id='1392'> +1.3426523e-12 </wgt>
<wgt id='1393'> +1.3582664e-12 </wgt>
<wgt id='1394'> +1.3734557e-12 </wgt>
<wgt id='1395'> +1.4037109e-12 </wgt>
<wgt id='1396'> +1.3885950e-12 </wgt>
<wgt id='1397'> +1.3679488e-12 </wgt>
<wgt id='1398'> +1.3709503e-12 </wgt>
<wgt id='1399'> +1.3742608e-12 </wgt>
<wgt id='1400'> +1.3784492e-12 </wgt>
<wgt id='1401'> +1.3834588e-12 </wgt>
<wgt id='1402'> +1.3937637e-12 </wgt>
<wgt id='1403'> +1.3995064e-12 </wgt>
<wgt id='1404'> +1.4054170e-12 </wgt>
<wgt id='1405'> +1.3885950e-12 </wgt>
<wgt id='1406'> +1.3843840e-12 </wgt>
<wgt id='1407'> +1.3865433e-12 </wgt>
<wgt id='1408'> +1.3904221e-12 </wgt>
<wgt id='1409'> +1.3918657e-12 </wgt>
<wgt id='1410'> +1.3111582e-12 </wgt>
<wgt id='1411'> +1.3168480e-12 </wgt>
<wgt id='1412'> +1.3038416e-12 </wgt>
<wgt id='1413'> +1.3042088e-12 </wgt>
<wgt id='1414'> +1.3180733e-12 </wgt>
<wgt id='1415'> +1.3092180e-12 </wgt>
<wgt id='1416'> +1.3119438e-12 </wgt>
<wgt id='1417'> +1.3070392e-12 </wgt>
<wgt id='1418'> +1.3152124e-12 </wgt>
<wgt id='1419'> +1.3128350e-12 </wgt>
<wgt id='1420'> +1.3095163e-12 </wgt>
<wgt id='1421'> +1.2975109e-12 </wgt>
<wgt id='1422'> +1.3169498e-12 </wgt>
<wgt id='1423'> +1.3096306e-12 </wgt>
<wgt id='1424'> +1.3130143e-12 </wgt>
<wgt id='1425'> +1.3028936e-12 </wgt>
<wgt id='1426'> +1.3200535e-12 </wgt>
<wgt id='1427'> +1.2948197e-12 </wgt>
<wgt id='1428'> +1.3197981e-12 </wgt>
<wgt id='1429'> +1.3148462e-12 </wgt>
<wgt id='1430'> +1.3062042e-12 </wgt>
<wgt id='1431'> +1.3127357e-12 </wgt>
<wgt id='1432'> +1.3099575e-12 </wgt>
<wgt id='1433'> +1.2961016e-12 </wgt>
<wgt id='1434'> +1.3228553e-12 </wgt>
<wgt id='1435'> +1.3031864e-12 </wgt>
<wgt id='1436'> +1.3314886e-12 </wgt>
<wgt id='1437'> +1.3182925e-12 </wgt>
<wgt id='1438'> +1.3137675e-12 </wgt>
<wgt id='1439'> +1.3048282e-12 </wgt>
<wgt id='1440'> +1.3218729e-12 </wgt>
<wgt id='1441'> +1.3157387e-12 </wgt>
<wgt id='1442'> +1.3015636e-12 </wgt>
<wgt id='1443'> +1.3076861e-12 </wgt>
<wgt id='1444'> +1.3203443e-12 </wgt>
<wgt id='1445'> +1.3243222e-12 </wgt>
<wgt id='1446'> +1.3065434e-12 </wgt>
<wgt id='1447'> +1.3124610e-12 </wgt>
<wgt id='1448'> +1.3139759e-12 </wgt>
<wgt id='1449'> +1.3112758e-12 </wgt>
<wgt id='1450'> +1.3103107e-12 </wgt>
<wgt id='1451'> +1.3099531e-12 </wgt>
<wgt id='1452'> +1.3169019e-12 </wgt>
<wgt id='1453'> +1.3113416e-12 </wgt>
<wgt id='1454'> +1.3104490e-12 </wgt>
<wgt id='1455'> +1.3211754e-12 </wgt>
<wgt id='1456'> +1.3175312e-12 </wgt>
<wgt id='1457'> +1.3177720e-12 </wgt>
<wgt id='1458'> +1.3098734e-12 </wgt>
<wgt id='1459'> +1.3170227e-12 </wgt>
<wgt id='1460'> +1.3202301e-12 </wgt>
<wgt id='1461'> +1.3111582e-12 </wgt>
<wgt id='1462'> +1.3003605e-12 </wgt>
<wgt id='1463'> +1.3183173e-12 </wgt>
<wgt id='1464'> +1.3089544e-12 </wgt>
<wgt id='1465'> +1.2847086e-12 </wgt>
<wgt id='1466'> +1.2885939e-12 </wgt>
<wgt id='1467'> +1.2930497e-12 </wgt>
<wgt id='1468'> +1.2997053e-12 </wgt>
<wgt id='1469'> +1.3037447e-12 </wgt>
<wgt id='1470'> +1.3144960e-12 </wgt>
<wgt id='1471'> +1.3196271e-12 </wgt>
<wgt id='1472'> +1.3249811e-12 </wgt>
<wgt id='1473'> +1.3089544e-12 </wgt>
<wgt id='1474'> +1.3053621e-12 </wgt>
<wgt id='1475'> +1.3077414e-12 </wgt>
<wgt id='1476'> +1.3101868e-12 </wgt>
<wgt id='1477'> +1.3112915e-12 </wgt>
<wgt id='1478'> +1.3615043e-12 </wgt>
<wgt id='1479'> +1.3615473e-12 </wgt>
<wgt id='1480'> +1.3461650e-12 </wgt>
<wgt id='1481'> +1.3812706e-12 </wgt>
<wgt id='1482'> +1.3627493e-12 </wgt>
<wgt id='1483'> +1.3445059e-12 </wgt>
<wgt id='1484'> +1.3523101e-12 </wgt>
<wgt id='1485'> +1.3698049e-12 </wgt>
<wgt id='1486'> +1.3613303e-12 </wgt>
<wgt id='1487'> +1.3732164e-12 </wgt>
<wgt id='1488'> +1.3587969e-12 </wgt>
<wgt id='1489'> +1.3629890e-12 </wgt>
<wgt id='1490'> +1.3576694e-12 </wgt>
<wgt id='1491'> +1.3677005e-12 </wgt>
<wgt id='1492'> +1.3628513e-12 </wgt>
<wgt id='1493'> +1.3413924e-12 </wgt>
<wgt id='1494'> +1.3589710e-12 </wgt>
<wgt id='1495'> +1.3487820e-12 </wgt>
<wgt id='1496'> +1.3621363e-12 </wgt>
<wgt id='1497'> +1.3621417e-12 </wgt>
<wgt id='1498'> +1.3615978e-12 </wgt>
<wgt id='1499'> +1.3644384e-12 </wgt>
<wgt id='1500'> +1.3619554e-12 </wgt>
<wgt id='1501'> +1.3622106e-12 </wgt>
<wgt id='1502'> +1.3610335e-12 </wgt>
<wgt id='1503'> +1.3666609e-12 </wgt>
<wgt id='1504'> +1.3565592e-12 </wgt>
<wgt id='1505'> +1.3650281e-12 </wgt>
<wgt id='1506'> +1.3627179e-12 </wgt>
<wgt id='1507'> +1.3616592e-12 </wgt>
<wgt id='1508'> +1.3649215e-12 </wgt>
<wgt id='1509'> +1.3248627e-12 </wgt>
<wgt id='1510'> +1.3287611e-12 </wgt>
<wgt id='1511'> +1.3094171e-12 </wgt>
<wgt id='1512'> +1.3122962e-12 </wgt>
<wgt id='1513'> +1.3240491e-12 </wgt>
<wgt id='1514'> +1.3313574e-12 </wgt>
<wgt id='1515'> +1.3291948e-12 </wgt>
<wgt id='1516'> +1.3306545e-12 </wgt>
<wgt id='1517'> +1.3264512e-12 </wgt>
<wgt id='1518'> +1.3244123e-12 </wgt>
<wgt id='1519'> +1.3251467e-12 </wgt>
<wgt id='1520'> +1.3244637e-12 </wgt>
<wgt id='1521'> +1.3248944e-12 </wgt>
<wgt id='1522'> +1.3271329e-12 </wgt>
<wgt id='1523'> +1.3275157e-12 </wgt>
<wgt id='1524'> +1.3234523e-12 </wgt>
<wgt id='1525'> +1.3247683e-12 </wgt>
<wgt id='1526'> +1.3256135e-12 </wgt>
<wgt id='1527'> +1.3245109e-12 </wgt>
<wgt id='1528'> +1.3253259e-12 </wgt>
<wgt id='1529'> +1.3250260e-12 </wgt>
<wgt id='1530'> +1.3262634e-12 </wgt>
<wgt id='1531'> +1.3266828e-12 </wgt>
<wgt id='1532'> +1.3205684e-12 </wgt>
<wgt id='1533'> +1.3257379e-12 </wgt>
<wgt id='1534'> +1.3248248e-12 </wgt>
<wgt id='1535'> +1.3198290e-12 </wgt>
<wgt id='1536'> +1.3277066e-12 </wgt>
<wgt id='1537'> +1.3275784e-12 </wgt>
<wgt id='1538'> +1.3138342e-12 </wgt>
<wgt id='1539'> +1.3255555e-12 </wgt>
<wgt id='1540'> +1.3245631e-12 </wgt>
<wgt id='1541'> +1.3227394e-12 </wgt>
<wgt id='1542'> +1.3230324e-12 </wgt>
<wgt id='1543'> +1.3257870e-12 </wgt>
<wgt id='1544'> +1.3238553e-12 </wgt>
<wgt id='1545'> +1.3230759e-12 </wgt>
<wgt id='1546'> +1.3243977e-12 </wgt>
<wgt id='1547'> +1.3234995e-12 </wgt>
<wgt id='1548'> +1.3258635e-12 </wgt>
<wgt id='1549'> +1.3233489e-12 </wgt>
<wgt id='1550'> +1.3246122e-12 </wgt>
<wgt id='1551'> +1.3254424e-12 </wgt>
<wgt id='1552'> +1.3263372e-12 </wgt>
<wgt id='1553'> +1.3247961e-12 </wgt>
<wgt id='1554'> +1.3235726e-12 </wgt>
<wgt id='1555'> +1.3272376e-12 </wgt>
<wgt id='1556'> +1.3288077e-12 </wgt>
<wgt id='1557'> +1.3247396e-12 </wgt>
<wgt id='1558'> +1.3244482e-12 </wgt>
<wgt id='1559'> +1.3225119e-12 </wgt>
<wgt id='1560'> +1.3242710e-12 </wgt>
<wgt id='1561'> +1.3244900e-12 </wgt>
<wgt id='1562'> +1.3243692e-12 </wgt>
<wgt id='1563'> +1.3246290e-12 </wgt>
<wgt id='1564'> +1.3237196e-12 </wgt>
<wgt id='1565'> +1.3252738e-12 </wgt>
<wgt id='1566'> +1.3250426e-12 </wgt>
<wgt id='1567'> +1.3251580e-12 </wgt>
<wgt id='1568'> +1.3238722e-12 </wgt>
<wgt id='1569'> +1.3278248e-12 </wgt>
<wgt id='1570'> +1.3255177e-12 </wgt>
<wgt id='1571'> +1.3259261e-12 </wgt>
<wgt id='1572'> +1.3257221e-12 </wgt>
<wgt id='1573'> +1.3249785e-12 </wgt>
<wgt id='1574'> +1.3258677e-12 </wgt>
<wgt id='1575'> +1.3238260e-12 </wgt>
<wgt id='1576'> +1.3250230e-12 </wgt>
<wgt id='1577'> +1.3257184e-12 </wgt>
<wgt id='1578'> +1.3264661e-12 </wgt>
<wgt id='1579'> +1.3239008e-12 </wgt>
<wgt id='1580'> +1.3239923e-12 </wgt>
<wgt id='1581'> +1.3253124e-12 </wgt>
<wgt id='1582'> +1.3263553e-12 </wgt>
<wgt id='1583'> +1.3240376e-12 </wgt>
<wgt id='1584'> +1.3253075e-12 </wgt>
<wgt id='1585'> +1.3253552e-12 </wgt>
<wgt id='1586'> +1.3248854e-12 </wgt>
<wgt id='1587'> +1.3245350e-12 </wgt>
<wgt id='1588'> +1.3236133e-12 </wgt>
<wgt id='1589'> +1.3261634e-12 </wgt>
<wgt id='1590'> +1.3245235e-12 </wgt>
<wgt id='1591'> +1.3249380e-12 </wgt>
<wgt id='1592'> +1.3240845e-12 </wgt>
<wgt id='1593'> +1.3261746e-12 </wgt>
<wgt id='1594'> +1.3243822e-12 </wgt>
<wgt id='1595'> +1.3249443e-12 </wgt>
<wgt id='1596'> +1.3235743e-12 </wgt>
<wgt id='1597'> +1.3255148e-12 </wgt>
<wgt id='1598'> +1.3246490e-12 </wgt>
<wgt id='1599'> +1.3253070e-12 </wgt>
<wgt id='1600'> +1.3236111e-12 </wgt>
<wgt id='1601'> +1.3252053e-12 </wgt>
<wgt id='1602'> +1.3249401e-12 </wgt>
<wgt id='1603'> +1.3260220e-12 </wgt>
<wgt id='1604'> +1.3254799e-12 </wgt>
<wgt id='1605'> +1.3254294e-12 </wgt>
<wgt id='1606'> +1.3245509e-12 </wgt>
<wgt id='1607'> +1.3247347e-12 </wgt>
<wgt id='1608'> +1.3255350e-12 </wgt>
<wgt id='1609'> +1.3254071e-12 </wgt>
<wgt id='1610'> +1.3119909e-12 </wgt>
<wgt id='1611'> +1.3381691e-12 </wgt>
<wgt id='1612'> +1.5463105e-12 </wgt>
<wgt id='1613'> +1.5178427e-12 </wgt>
<wgt id='1614'> +1.4916965e-12 </wgt>
<wgt id='1615'> +1.5358734e-12 </wgt>
<wgt id='1616'> +1.4802144e-12 </wgt>
<wgt id='1617'> +1.5419326e-12 </wgt>
<wgt id='1618'> +1.5507314e-12 </wgt>
<wgt id='1619'> +1.5122956e-12 </wgt>
<wgt id='1620'> +1.5227745e-12 </wgt>
<wgt id='1621'> +1.5579187e-12 </wgt>
<wgt id='1622'> +1.5627564e-12 </wgt>
<wgt id='1623'> +1.5378127e-12 </wgt>
<wgt id='1624'> +1.5787591e-12 </wgt>
<wgt id='1625'> +1.5167533e-12 </wgt>
<wgt id='1626'> +1.5259218e-12 </wgt>
<wgt id='1627'> +1.5698895e-12 </wgt>
<wgt id='1628'> +1.4793788e-12 </wgt>
<wgt id='1629'> +1.5744448e-12 </wgt>
<wgt id='1630'> +1.5071620e-12 </wgt>
<wgt id='1631'> +1.5239783e-12 </wgt>
<wgt id='1632'> +1.4731721e-12 </wgt>
<wgt id='1633'> +1.4959073e-12 </wgt>
<wgt id='1634'> +1.5387870e-12 </wgt>
<wgt id='1635'> +1.5763061e-12 </wgt>
<wgt id='1636'> +1.5643118e-12 </wgt>
<wgt id='1637'> +1.5806283e-12 </wgt>
<wgt id='1638'> +1.5534909e-12 </wgt>
<wgt id='1639'> +1.5347358e-12 </wgt>
<wgt id='1640'> +1.5416912e-12 </wgt>
<wgt id='1641'> +1.5457530e-12 </wgt>
<wgt id='1642'> +1.4857170e-12 </wgt>
<wgt id='1643'> +1.5213357e-12 </wgt>
<wgt id='1644'> +1.5807106e-12 </wgt>
<wgt id='1645'> +1.5190798e-12 </wgt>
<wgt id='1646'> +1.5548057e-12 </wgt>
<wgt id='1647'> +1.5760779e-12 </wgt>
<wgt id='1648'> +1.5511632e-12 </wgt>
<wgt id='1649'> +1.6176800e-12 </wgt>
<wgt id='1650'> +1.5214164e-12 </wgt>
<wgt id='1651'> +1.5489336e-12 </wgt>
<wgt id='1652'> +1.5195076e-12 </wgt>
<wgt id='1653'> +1.5510728e-12 </wgt>
<wgt id='1654'> +1.5434766e-12 </wgt>
<wgt id='1655'> +1.5800345e-12 </wgt>
<wgt id='1656'> +1.5418592e-12 </wgt>
<wgt id='1657'> +1.5486389e-12 </wgt>
<wgt id='1658'> +1.5292506e-12 </wgt>
<wgt id='1659'> +1.5787591e-12 </wgt>
<wgt id='1660'> +1.5624634e-12 </wgt>
<wgt id='1661'> +1.5749490e-12 </wgt>
<wgt id='1662'> +1.6158431e-12 </wgt>
<wgt id='1663'> +1.5443150e-12 </wgt>
<wgt id='1664'> +1.5314148e-12 </wgt>
<wgt id='1665'> +1.5207798e-12 </wgt>
<wgt id='1666'> +1.5698304e-12 </wgt>
<wgt id='1667'> +1.5432742e-12 </wgt>
<wgt id='1668'> +1.5587843e-12 </wgt>
<wgt id='1669'> +1.5617779e-12 </wgt>
<wgt id='1670'> +1.5292249e-12 </wgt>
<wgt id='1671'> +1.5215417e-12 </wgt>
<wgt id='1672'> +1.5737604e-12 </wgt>
<wgt id='1673'> +1.5414567e-12 </wgt>
<wgt id='1674'> +1.5186493e-12 </wgt>
<wgt id='1675'> +1.5385845e-12 </wgt>
<wgt id='1676'> +1.5292335e-12 </wgt>
<wgt id='1677'> +1.5606757e-12 </wgt>
<wgt id='1678'> +1.5250926e-12 </wgt>
<wgt id='1679'> +1.5468574e-12 </wgt>
<wgt id='1680'> +1.5917327e-12 </wgt>
<wgt id='1681'> +1.5750024e-12 </wgt>
<wgt id='1682'> +1.5386575e-12 </wgt>
<wgt id='1683'> +1.5514041e-12 </wgt>
<wgt id='1684'> +1.6013484e-12 </wgt>
<wgt id='1685'> +1.5415818e-12 </wgt>
<wgt id='1686'> +1.5426451e-12 </wgt>
<wgt id='1687'> +1.5652851e-12 </wgt>
<wgt id='1688'> +1.5165710e-12 </wgt>
<wgt id='1689'> +1.6086957e-12 </wgt>
<wgt id='1690'> +1.5365841e-12 </wgt>
<wgt id='1691'> +1.5020625e-12 </wgt>
<wgt id='1692'> +1.5673155e-12 </wgt>
<wgt id='1693'> +1.5426007e-12 </wgt>
<wgt id='1694'> +1.5412054e-12 </wgt>
<wgt id='1695'> +1.5596269e-12 </wgt>
<wgt id='1696'> +1.5333294e-12 </wgt>
<wgt id='1697'> +1.5372976e-12 </wgt>
<wgt id='1698'> +1.5537155e-12 </wgt>
<wgt id='1699'> +1.5594490e-12 </wgt>
<wgt id='1700'> +1.5305592e-12 </wgt>
<wgt id='1701'> +1.6086872e-12 </wgt>
<wgt id='1702'> +1.5006998e-12 </wgt>
<wgt id='1703'> +1.5230579e-12 </wgt>
<wgt id='1704'> +1.5413632e-12 </wgt>
<wgt id='1705'> +1.4774378e-12 </wgt>
<wgt id='1706'> +1.5845826e-12 </wgt>
<wgt id='1707'> +1.5585656e-12 </wgt>
<wgt id='1708'> +1.6163862e-12 </wgt>
<wgt id='1709'> +1.5986082e-12 </wgt>
<wgt id='1710'> +1.5409073e-12 </wgt>
<wgt id='1711'> +1.5449992e-12 </wgt>
<wgt id='1712'> +1.6049530e-12 </wgt>
<wgt id='1713'> +1.3246790e-12 </wgt>
<wgt id='1714'> +1.3170732e-12 </wgt>
<wgt id='1715'> +1.2928483e-12 </wgt>
<wgt id='1716'> +1.3539518e-12 </wgt>
<wgt id='1717'> +1.3343762e-12 </wgt>
<wgt id='1718'> +1.3619745e-12 </wgt>
<wgt id='1719'> +1.3481747e-12 </wgt>
<wgt id='1720'> +1.2833503e-12 </wgt>
<wgt id='1721'> +1.2953019e-12 </wgt>
<wgt id='1722'> +1.3167558e-12 </wgt>
<wgt id='1723'> +1.3730262e-12 </wgt>
<wgt id='1724'> +1.3278432e-12 </wgt>
<wgt id='1725'> +1.3297824e-12 </wgt>
<wgt id='1726'> +1.3321419e-12 </wgt>
<wgt id='1727'> +1.3665034e-12 </wgt>
<wgt id='1728'> +1.3092739e-12 </wgt>
<wgt id='1729'> +1.2706846e-12 </wgt>
<wgt id='1730'> +1.3016225e-12 </wgt>
<wgt id='1731'> +1.2582921e-12 </wgt>
<wgt id='1732'> +1.3254778e-12 </wgt>
<wgt id='1733'> +1.2644006e-12 </wgt>
<wgt id='1734'> +1.3896391e-12 </wgt>
<wgt id='1735'> +1.3075017e-12 </wgt>
<wgt id='1736'> +1.3505634e-12 </wgt>
<wgt id='1737'> +1.3677344e-12 </wgt>
<wgt id='1738'> +1.3180136e-12 </wgt>
<wgt id='1739'> +1.3262115e-12 </wgt>
<wgt id='1740'> +1.2455870e-12 </wgt>
<wgt id='1741'> +1.3645007e-12 </wgt>
<wgt id='1742'> +1.3057922e-12 </wgt>
<wgt id='1743'> +1.3019376e-12 </wgt>
<wgt id='1744'> +1.3486311e-12 </wgt>
<wgt id='1745'> +1.3437457e-12 </wgt>
<wgt id='1746'> +1.3039024e-12 </wgt>
<wgt id='1747'> +1.3840221e-12 </wgt>
<wgt id='1748'> +1.3185378e-12 </wgt>
<wgt id='1749'> +1.3159260e-12 </wgt>
<wgt id='1750'> +1.2985127e-12 </wgt>
<wgt id='1751'> +1.3027279e-12 </wgt>
<wgt id='1752'> +1.3145128e-12 </wgt>
<wgt id='1753'> +1.3365790e-12 </wgt>
<wgt id='1754'> +1.3420821e-12 </wgt>
<wgt id='1755'> +1.3356737e-12 </wgt>
<wgt id='1756'> +1.3497679e-12 </wgt>
<wgt id='1757'> +1.3480938e-12 </wgt>
<wgt id='1758'> +1.3769733e-12 </wgt>
<wgt id='1759'> +1.3522027e-12 </wgt>
<wgt id='1760'> +1.3181865e-12 </wgt>
<wgt id='1761'> +1.3265082e-12 </wgt>
<wgt id='1762'> +1.3012243e-12 </wgt>
<wgt id='1763'> +1.3451091e-12 </wgt>
<wgt id='1764'> +1.3627958e-12 </wgt>
<wgt id='1765'> +1.3173734e-12 </wgt>
<wgt id='1766'> +1.3598522e-12 </wgt>
<wgt id='1767'> +1.3277089e-12 </wgt>
<wgt id='1768'> +1.3440123e-12 </wgt>
<wgt id='1769'> +1.3349668e-12 </wgt>
<wgt id='1770'> +1.3150170e-12 </wgt>
<wgt id='1771'> +1.3749380e-12 </wgt>
<wgt id='1772'> +1.3114420e-12 </wgt>
<wgt id='1773'> +1.3289433e-12 </wgt>
<wgt id='1774'> +1.3084795e-12 </wgt>
<wgt id='1775'> +1.3223827e-12 </wgt>
<wgt id='1776'> +1.3767924e-12 </wgt>
<wgt id='1777'> +1.2634506e-12 </wgt>
<wgt id='1778'> +1.3282123e-12 </wgt>
<wgt id='1779'> +1.3165887e-12 </wgt>
<wgt id='1780'> +1.3140766e-12 </wgt>
<wgt id='1781'> +1.3529459e-12 </wgt>
<wgt id='1782'> +1.3131643e-12 </wgt>
<wgt id='1783'> +1.3347991e-12 </wgt>
<wgt id='1784'> +1.3210431e-12 </wgt>
<wgt id='1785'> +1.3309560e-12 </wgt>
<wgt id='1786'> +1.3127473e-12 </wgt>
<wgt id='1787'> +1.4073507e-12 </wgt>
<wgt id='1788'> +1.3115230e-12 </wgt>
<wgt id='1789'> +1.4035640e-12 </wgt>
<wgt id='1790'> +1.3340377e-12 </wgt>
<wgt id='1791'> +1.3133461e-12 </wgt>
<wgt id='1792'> +1.3003270e-12 </wgt>
<wgt id='1793'> +1.3072089e-12 </wgt>
<wgt id='1794'> +1.3602287e-12 </wgt>
<wgt id='1795'> +1.3354263e-12 </wgt>
<wgt id='1796'> +1.2893626e-12 </wgt>
<wgt id='1797'> +1.3284368e-12 </wgt>
<wgt id='1798'> +1.3130324e-12 </wgt>
<wgt id='1799'> +1.3072742e-12 </wgt>
<wgt id='1800'> +1.3427412e-12 </wgt>
<wgt id='1801'> +1.3225235e-12 </wgt>
<wgt id='1802'> +1.2915186e-12 </wgt>
<wgt id='1803'> +1.3333412e-12 </wgt>
<wgt id='1804'> +1.3356606e-12 </wgt>
<wgt id='1805'> +1.2891710e-12 </wgt>
<wgt id='1806'> +1.2958374e-12 </wgt>
<wgt id='1807'> +1.3090208e-12 </wgt>
<wgt id='1808'> +1.2922715e-12 </wgt>
<wgt id='1809'> +1.3064738e-12 </wgt>
<wgt id='1810'> +1.2934450e-12 </wgt>
<wgt id='1811'> +1.3339610e-12 </wgt>
<wgt id='1812'> +1.2982947e-12 </wgt>
<wgt id='1813'> +1.2465365e-12 </wgt>
<wgt id='1814'> +1.6589861e-12 </wgt>
<wgt id='1815'> +2.0118661e-12 </wgt>
<wgt id='1816'> +1.3246790e-12 </wgt>
<wgt id='1817'> +1.3170732e-12 </wgt>
<wgt id='1818'> +1.2928483e-12 </wgt>
<wgt id='1819'> +1.3539518e-12 </wgt>
<wgt id='1820'> +1.3343762e-12 </wgt>
<wgt id='1821'> +1.3619745e-12 </wgt>
<wgt id='1822'> +1.3481747e-12 </wgt>
<wgt id='1823'> +1.2833503e-12 </wgt>
<wgt id='1824'> +1.2953019e-12 </wgt>
<wgt id='1825'> +1.3167558e-12 </wgt>
<wgt id='1826'> +1.3730262e-12 </wgt>
<wgt id='1827'> +1.3278432e-12 </wgt>
<wgt id='1828'> +1.3297824e-12 </wgt>
<wgt id='1829'> +1.3321419e-12 </wgt>
<wgt id='1830'> +1.3665034e-12 </wgt>
<wgt id='1831'> +1.3092739e-12 </wgt>
<wgt id='1832'> +1.2706846e-12 </wgt>
<wgt id='1833'> +1.3016225e-12 </wgt>
<wgt id='1834'> +1.2582921e-12 </wgt>
<wgt id='1835'> +1.3254778e-12 </wgt>
<wgt id='1836'> +1.2644006e-12 </wgt>
<wgt id='1837'> +1.3896391e-12 </wgt>
<wgt id='1838'> +1.3075017e-12 </wgt>
<wgt id='1839'> +1.3505634e-12 </wgt>
<wgt id='1840'> +1.3677344e-12 </wgt>
<wgt id='1841'> +1.3180136e-12 </wgt>
<wgt id='1842'> +1.3262115e-12 </wgt>
<wgt id='1843'> +1.2455870e-12 </wgt>
<wgt id='1844'> +1.3645007e-12 </wgt>
<wgt id='1845'> +1.3057922e-12 </wgt>
<wgt id='1846'> +1.3019376e-12 </wgt>
<wgt id='1847'> +1.3486311e-12 </wgt>
<wgt id='1848'> +1.3437457e-12 </wgt>
<wgt id='1849'> +1.3039024e-12 </wgt>
<wgt id='1850'> +1.3840221e-12 </wgt>
<wgt id='1851'> +1.3185378e-12 </wgt>
<wgt id='1852'> +1.3159260e-12 </wgt>
<wgt id='1853'> +1.2985127e-12 </wgt>
<wgt id='1854'> +1.3027279e-12 </wgt>
<wgt id='1855'> +1.3145128e-12 </wgt>
<wgt id='1856'> +1.3365790e-12 </wgt>
<wgt id='1857'> +1.3420821e-12 </wgt>
<wgt id='1858'> +1.3356737e-12 </wgt>
<wgt id='1859'> +1.3497679e-12 </wgt>
<wgt id='1860'> +1.3480938e-12 </wgt>
<wgt id='1861'> +1.3769733e-12 </wgt>
<wgt id='1862'> +1.3522027e-12 </wgt>
<wgt id='1863'> +1.3181865e-12 </wgt>
<wgt id='1864'> +1.3265082e-12 </wgt>
<wgt id='1865'> +1.3012243e-12 </wgt>
<wgt id='1866'> +1.3451091e-12 </wgt>
<wgt id='1867'> +1.3627958e-12 </wgt>
<wgt id='1868'> +1.3173734e-12 </wgt>
<wgt id='1869'> +1.3598522e-12 </wgt>
<wgt id='1870'> +1.3277089e-12 </wgt>
<wgt id='1871'> +1.3440123e-12 </wgt>
<wgt id='1872'> +1.3349668e-12 </wgt>
<wgt id='1873'> +1.3150170e-12 </wgt>
<wgt id='1874'> +1.3749380e-12 </wgt>
<wgt id='1875'> +1.3114420e-12 </wgt>
<wgt id='1876'> +1.3289433e-12 </wgt>
<wgt id='1877'> +1.3084795e-12 </wgt>
<wgt id='1878'> +1.3223827e-12 </wgt>
<wgt id='1879'> +1.3767924e-12 </wgt>
<wgt id='1880'> +1.2634506e-12 </wgt>
<wgt id='1881'> +1.3282123e-12 </wgt>
<wgt id='1882'> +1.3165887e-12 </wgt>
<wgt id='1883'> +1.3140766e-12 </wgt>
<wgt id='1884'> +1.3529459e-12 </wgt>
<wgt id='1885'> +1.3131643e-12 </wgt>
<wgt id='1886'> +1.3347991e-12 </wgt>
<wgt id='1887'> +1.3210431e-12 </wgt>
<wgt id='1888'> +1.3309560e-12 </wgt>
<wgt id='1889'> +1.3127473e-12 </wgt>
<wgt id='1890'> +1.4073507e-12 </wgt>
<wgt id='1891'> +1.3115230e-12 </wgt>
<wgt id='1892'> +1.4035640e-12 </wgt>
<wgt id='1893'> +1.3340377e-12 </wgt>
<wgt id='1894'> +1.3133461e-12 </wgt>
<wgt id='1895'> +1.3003270e-12 </wgt>
<wgt id='1896'> +1.3072089e-12 </wgt>
<wgt id='1897'> +1.3602287e-12 </wgt>
<wgt id='1898'> +1.3354263e-12 </wgt>
<wgt id='1899'> +1.2893626e-12 </wgt>
<wgt id='1900'> +1.3284368e-12 </wgt>
<wgt id='1901'> +1.3130324e-12 </wgt>
<wgt id='1902'> +1.3072742e-12 </wgt>
<wgt id='1903'> +1.3427412e-12 </wgt>
<wgt id='1904'> +1.3225235e-12 </wgt>
<wgt id='1905'> +1.2915186e-12 </wgt>
<wgt id='1906'> +1.3333412e-12 </wgt>
<wgt id='1907'> +1.3356606e-12 </wgt>
<wgt id='1908'> +1.2891710e-12 </wgt>
<wgt id='1909'> +1.2958374e-12 </wgt>
<wgt id='1910'> +1.3090208e-12 </wgt>
<wgt id='1911'> +1.2922715e-12 </wgt>
<wgt id='1912'> +1.3064738e-12 </wgt>
<wgt id='1913'> +1.2934450e-12 </wgt>
<wgt id='1914'> +1.3339610e-12 </wgt>
<wgt id='1915'> +1.2982947e-12 </wgt>
<wgt id='1916'> +1.2465365e-12 </wgt>
<wgt id='1917'> +1.3169964e-12 </wgt>
<wgt id='1918'> +1.3406454e-12 </wgt>
<wgt id='1919'> +1.2910645e-12 </wgt>
</rwgt>
</event>
<event>
 9      1 +1.5607000e-12 2.76338400e+01 7.81860800e-03 1.47476000e-01
        2 -1    0    0  502    0 +0.0000000000e+00 +0.0000000000e+00 +2.5312563465e+01 2.5312563465e+01 0.0000000000e+00 0.0000e+00 -1.0000e+00
       -2 -1    0    0    0  501 -0.0000000000e+00 -0.0000000000e+00 -6.4954475734e+01 6.4954475734e+01 0.0000000000e+00 0.0000e+00 1.0000e+00
     1023  2    1    2    0    0 +1.2696579921e+01 -1.9427141431e+01 +1.4610884855e+01 3.1258709602e+01 1.5000400124e+01 0.0000e+00 0.0000e+00
  1000023  2    3    3    0    0 +1.1214867898e+01 -1.8191140272e+01 +1.0165283317e+01 2.4295481729e+01 5.4996910059e+00 0.0000e+00 0.0000e+00
       21  1    1    2  502  501 -1.2696579921e+01 +1.9427141431e+01 -5.4252797124e+01 5.9008329596e+01 0.0000000000e+00 0.0000e+00 1.0000e+00
  1000022  1    4    4    0    0 +1.0929449098e+01 -1.7760911320e+01 +1.0185801030e+01 2.3741385198e+01 5.0000000000e+00 0.0000e+00 -1.0000e+00
      -11  1    4    4    0    0 +1.6985098473e-01 -3.9798037674e-01 -2.9930113139e-02 4.3374394529e-01 5.1100000000e-04 0.0000e+00 -1.0000e+00
       11  1    4    4    0    0 +1.1556781534e-01 -3.2248575788e-02 +9.4124006085e-03 1.2035258613e-01 5.1100000000e-04 0.0000e+00 1.0000e+00
  1000022  1    3    3    0    0 +1.4817120232e+00 -1.2360011594e+00 +4.4456015377e+00 6.9632278735e+00 5.0000000000e+00 0.0000e+00 -1.0000e+00
<mgrwt>
<rscale>  1 0.27633837E+02</rscale>
<asrwt>0</asrwt>
<pdfrwt beam="1">  1        2 0.38942405E-02 0.27633837E+02</pdfrwt>
<pdfrwt beam="2">  1       -2 0.99929963E-02 0.27633837E+02</pdfrwt>
<totfact> 0.13033378E+05</totfact>
</mgrwt>
<rwgt>
<wgt id='1001'> +1.5607000e-12 </wgt>
<wgt id='1002'> +1.5780368e-12 </wgt>
<wgt id='1003'> +1.5789169e-12 </wgt>
<wgt id='1004'> +1.5562155e-12 </wgt>
<wgt id='1005'> +1.5812884e-12 </wgt>
<wgt id='1006'> +1.3625127e-12 </wgt>
<wgt id='1007'> +1.3970778e-12 </wgt>
<wgt id='1008'> +1.3995927e-12 </wgt>
<wgt id='1009'> +1.3550729e-12 </wgt>
<wgt id='1010'> +1.4153256e-12 </wgt>
<wgt id='1011'> +1.8297859e-12 </wgt>
<wgt id='1012'> +1.8152559e-12 </wgt>
<wgt id='1013'> +1.8132862e-12 </wgt>
<wgt id='1014'> +1.8310897e-12 </wgt>
<wgt id='1015'> +1.7930957e-12 </wgt>
<wgt id='1016'> +1.8099136e-12 </wgt>
<wgt id='1017'> +1.7848991e-12 </wgt>
<wgt id='1018'> +1.7820677e-12 </wgt>
<wgt id='1019'> +1.8132862e-12 </wgt>
<wgt id='1020'> +1.7562634e-12 </wgt>
<wgt id='1021'> +1.5800796e-12 </wgt>
<wgt id='1022'> +1.5802184e-12 </wgt>
<wgt id='1023'> +1.5796708e-12 </wgt>
<wgt id='1024'> +1.5789169e-12 </wgt>
<wgt id='1025'> +1.5719362e-12 </wgt>
<wgt id='1026'> +2.1219674e-12 </wgt>
<wgt id='1027'> +2.0532147e-12 </wgt>
<wgt id='1028'> +2.0465920e-12 </wgt>
<wgt id='1029'> +2.1335668e-12 </wgt>
<wgt id='1030'> +1.9915079e-12 </wgt>
<wgt id='1031'> +1.2881412e-12 </wgt>
<wgt id='1032'> +1.3503180e-12 </wgt>
<wgt id='1033'> +1.3550729e-12 </wgt>
<wgt id='1034'> +1.2753066e-12 </wgt>
<wgt id='1035'> +1.3886138e-12 </wgt>
<wgt id='1036'> +1.1245651e-12 </wgt>
<wgt id='1037'> +1.1954723e-12 </wgt>
<wgt id='1038'> +1.2011715e-12 </wgt>
<wgt id='1039'> +1.1104718e-12 </wgt>
<wgt id='1040'> +1.2428729e-12 </wgt>
<wgt id='1041'> +1.5102343e-12 </wgt>
<wgt id='1042'> +1.5533052e-12 </wgt>
<wgt id='1043'> +1.5562155e-12 </wgt>
<wgt id='1044'> +1.5005639e-12 </wgt>
<wgt id='1045'> +1.5746131e-12 </wgt>
<wgt id='1046'> +1.5607000e-12 </wgt>
<wgt id='1047'> +1.7185515e-12 </wgt>
<wgt id='1048'> +1.5487972e-12 </wgt>
<wgt id='1049'> +1.5376453e-12 </wgt>
<wgt id='1050'> +1.5375803e-12 </wgt>
<wgt id='1051'> +1.5133631e-12 </wgt>
<wgt id='1052'> +1.6569485e-12 </wgt>
<wgt id='1053'> +1.5564725e-12 </wgt>
<wgt id='1054'> +1.4943548e-12 </wgt>
<wgt id='1055'> +1.4810938e-12 </wgt>
<wgt id='1056'> +1.5298738e-12 </wgt>
<wgt id='1057'> +1.5913232e-12 </wgt>
<wgt id='1058'> +1.4888778e-12 </wgt>
<wgt id='1059'> +1.5382266e-12 </wgt>
<wgt id='1060'> +1.6007690e-12 </wgt>
<wgt id='1061'> +1.5577062e-12 </wgt>
<wgt id='1062'> +1.5540333e-12 </wgt>
<wgt id='1063'> +1.5883449e-12 </wgt>
<wgt id='1064'> +1.5092894e-12 </wgt>
<wgt id='1065'> +1.5609412e-12 </wgt>
<wgt id='1066'> +1.4728412e-12 </wgt>
<wgt id='1067'> +1.5112668e-12 </wgt>
<wgt id='1068'> +1.5923947e-12 </wgt>
<wgt id='1069'> +1.5755094e-12 </wgt>
<wgt id='1070'> +1.4924069e-12 </wgt>
<wgt id='1071'> +1.5037879e-12 </wgt>
<wgt id='1072'> +1.6208281e-12 </wgt>
<wgt id='1073'> +1.6093250e-12 </wgt>
<wgt id='1074'> +1.5436412e-12 </wgt>
<wgt id='1075'> +1.5657112e-12 </wgt>
<wgt id='1076'> +1.6057773e-12 </wgt>
<wgt id='1077'> +1.6421453e-12 </wgt>
<wgt id='1078'> +1.5427751e-12 </wgt>
<wgt id='1079'> +1.5996990e-12 </wgt>
<wgt id='1080'> +1.4783731e-12 </wgt>
<wgt id='1081'> +1.5958062e-12 </wgt>
<wgt id='1082'> +1.5628856e-12 </wgt>
<wgt id='1083'> +1.5325884e-12 </wgt>
<wgt id='1084'> +1.5430780e-12 </wgt>
<wgt id='1085'> +1.5730722e-12 </wgt>
<wgt id='1086'> +1.6100985e-12 </wgt>
<wgt id='1087'> +1.5885389e-12 </wgt>
<wgt id='1088'> +1.5904047e-12 </wgt>
<wgt id='1089'> +1.6041554e-12 </wgt>
<wgt id='1090'> +1.6218195e-12 </wgt>
<wgt id='1091'> +1.5919333e-12 </wgt>
<wgt id='1092'> +1.6122573e-12 </wgt>
<wgt id='1093'> +1.6010427e-12 </wgt>
<wgt id='1094'> +1.5665267e-12 </wgt>
<wgt id='1095'> +1.6087824e-12 </wgt>
<wgt id='1096'> +1.5518418e-12 </wgt>
<wgt id='1097'> +1.5286234e-12 </wgt>
<wgt id='1098'> +1.5138554e-12 </wgt>
<wgt id='1099'> +1.5749213e-12 </wgt>
<wgt id='1100'> +1.5682589e-12 </wgt>
<wgt id='1101'> +1.5914962e-12 </wgt>
<wgt id='1102'> +1.5485194e-12 </wgt>
<wgt id='1103'> +1.5758220e-12 </wgt>
<wgt id='1104'> +1.5235763e-12 </wgt>
<wgt id='1105'> +1.5778849e-12 </wgt>
<wgt id='1106'> +1.6080498e-12 </wgt>
<wgt id='1107'> +1.5889277e-12 </wgt>
<wgt id='1108'> +1.5279922e-12 </wgt>
<wgt id='1109'> +1.5743083e-12 </wgt>
<wgt id='1110'> +1.5171685e-12 </wgt>
<wgt id='1111'> +1.5927171e-12 </wgt>
<wgt id='1112'> +1.6587188e-12 </wgt>
<wgt id='1113'> +1.6021547e-12 </wgt>
<wgt id='1114'> +1.6012870e-12 </wgt>
<wgt id='1115'> +1.5661226e-12 </wgt>
<wgt id='1116'> +1.5244100e-12 </wgt>
<wgt id='1117'> +1.5215308e-12 </wgt>
<wgt id='1118'> +1.5788622e-12 </wgt>
<wgt id='1119'> +1.4581954e-12 </wgt>
<wgt id='1120'> +1.4995991e-12 </wgt>
<wgt id='1121'> +1.5418583e-12 </wgt>
<wgt id='1122'> +1.6807886e-12 </wgt>
<wgt id='1123'> +1.4816102e-12 </wgt>
<wgt id='1124'> +1.5537785e-12 </wgt>
<wgt id='1125'> +1.5525856e-12 </wgt>
<wgt id='1126'> +1.6378353e-12 </wgt>
<wgt id='1127'> +1.5439119e-12 </wgt>
<wgt id='1128'> +1.5540333e-12 </wgt>
<wgt id='1129'> +1.6077110e-12 </wgt>
<wgt id='1130'> +1.5208664e-12 </wgt>
<wgt id='1131'> +1.5502221e-12 </wgt>
<wgt id='1132'> +1.6144194e-12 </wgt>
<wgt id='1133'> +1.4597078e-12 </wgt>
<wgt id='1134'> +1.6284266e-12 </wgt>
<wgt id='1135'> +1.4657817e-12 </wgt>
<wgt id='1136'> +1.5393655e-12 </wgt>
<wgt id='1137'> +1.5220711e-12 </wgt>
<wgt id='1138'> +1.5076518e-12 </wgt>
<wgt id='1139'> +1.5264050e-12 </wgt>
<wgt id='1140'> +1.5631142e-12 </wgt>
<wgt id='1141'> +1.5065120e-12 </wgt>
<wgt id='1142'> +1.5885149e-12 </wgt>
<wgt id='1143'> +1.6349074e-12 </wgt>
<wgt id='1144'> +1.5683603e-12 </wgt>
<wgt id='1145'> +1.5358135e-12 </wgt>
<wgt id='1146'> +1.5115801e-12 </wgt>
<wgt id='1147'> +1.1351647e-12 </wgt>
<wgt id='1148'> +1.1626378e-12 </wgt>
<wgt id='1149'> +1.2850890e-12 </wgt>
<wgt id='1150'> +1.1855069e-12 </wgt>
<wgt id='1151'> +1.0627068e-12 </wgt>
<wgt id='1152'> +1.3288384e-12 </wgt>
<wgt id='1153'> +1.3196508e-12 </wgt>
<wgt id='1154'> +1.3341589e-12 </wgt>
<wgt id='1155'> +1.3266579e-12 </wgt>
<wgt id='1156'> +1.3299559e-12 </wgt>
<wgt id='1157'> +1.3378994e-12 </wgt>
<wgt id='1158'> +1.3166792e-12 </wgt>
<wgt id='1159'> +1.3365182e-12 </wgt>
<wgt id='1160'> +1.3239542e-12 </wgt>
<wgt id='1161'> +1.3303490e-12 </wgt>
<wgt id='1162'> +1.3278094e-12 </wgt>
<wgt id='1163'> +1.3328214e-12 </wgt>
<wgt id='1164'> +1.3248663e-12 </wgt>
<wgt id='1165'> +1.3241553e-12 </wgt>
<wgt id='1166'> +1.3334099e-12 </wgt>
<wgt id='1167'> +1.3294629e-12 </wgt>
<wgt id='1168'> +1.3271428e-12 </wgt>
<wgt id='1169'> +1.3278658e-12 </wgt>
<wgt id='1170'> +1.3295918e-12 </wgt>
<wgt id='1171'> +1.3236289e-12 </wgt>
<wgt id='1172'> +1.3347719e-12 </wgt>
<wgt id='1173'> +1.3200122e-12 </wgt>
<wgt id='1174'> +1.3364350e-12 </wgt>
<wgt id='1175'> +1.3279039e-12 </wgt>
<wgt id='1176'> +1.3288923e-12 </wgt>
<wgt id='1177'> +1.3312016e-12 </wgt>
<wgt id='1178'> +1.3221861e-12 </wgt>
<wgt id='1179'> +1.3319174e-12 </wgt>
<wgt id='1180'> +1.3200518e-12 </wgt>
<wgt id='1181'> +1.3221151e-12 </wgt>
<wgt id='1182'> +1.3355850e-12 </wgt>
<wgt id='1183'> +1.3292306e-12 </wgt>
<wgt id='1184'> +1.3287964e-12 </wgt>
<wgt id='1185'> +1.3148206e-12 </wgt>
<wgt id='1186'> +1.3367090e-12 </wgt>
<wgt id='1187'> +1.3277669e-12 </wgt>
<wgt id='1188'> +1.3292064e-12 </wgt>
<wgt id='1189'> +1.3245034e-12 </wgt>
<wgt id='1190'> +1.3221360e-12 </wgt>
<wgt id='1191'> +1.3280363e-12 </wgt>
<wgt id='1192'> +1.3277667e-12 </wgt>
<wgt id='1193'> +1.2057098e-12 </wgt>
<wgt id='1194'> +1.2055844e-12 </wgt>
<wgt id='1195'> +1.2057731e-12 </wgt>
<wgt id='1196'> +1.2165742e-12 </wgt>
<wgt id='1197'> +1.1936001e-12 </wgt>
<wgt id='1198'> +1.2031164e-12 </wgt>
<wgt id='1199'> +1.2095588e-12 </wgt>
<wgt id='1200'> +1.2075979e-12 </wgt>
<wgt id='1201'> +1.2044425e-12 </wgt>
<wgt id='1202'> +1.2058472e-12 </wgt>
<wgt id='1203'> +1.2055027e-12 </wgt>
<wgt id='1204'> +1.2060414e-12 </wgt>
<wgt id='1205'> +1.2055095e-12 </wgt>
<wgt id='1206'> +1.2081566e-12 </wgt>
<wgt id='1207'> +1.2023748e-12 </wgt>
<wgt id='1208'> +1.1975687e-12 </wgt>
<wgt id='1209'> +1.2086327e-12 </wgt>
<wgt id='1210'> +1.2118924e-12 </wgt>
<wgt id='1211'> +1.1923609e-12 </wgt>
<wgt id='1212'> +1.2081456e-12 </wgt>
<wgt id='1213'> +1.2033326e-12 </wgt>
<wgt id='1214'> +1.1874463e-12 </wgt>
<wgt id='1215'> +1.2370041e-12 </wgt>
<wgt id='1216'> +1.2100190e-12 </wgt>
<wgt id='1217'> +1.2021171e-12 </wgt>
<wgt id='1218'> +1.2068857e-12 </wgt>
<wgt id='1219'> +1.2049137e-12 </wgt>
<wgt id='1220'> +1.2095239e-12 </wgt>
<wgt id='1221'> +1.2045453e-12 </wgt>
<wgt id='1222'> +1.2053547e-12 </wgt>
<wgt id='1223'> +1.2016091e-12 </wgt>
<wgt id='1224'> +1.2071417e-12 </wgt>
<wgt id='1225'> +1.2051265e-12 </wgt>
<wgt id='1226'> +1.1988909e-12 </wgt>
<wgt id='1227'> +1.2102217e-12 </wgt>
<wgt id='1228'> +1.2070503e-12 </wgt>
<wgt id='1229'> +1.2040220e-12 </wgt>
<wgt id='1230'> +1.1961883e-12 </wgt>
<wgt id='1231'> +1.2038512e-12 </wgt>
<wgt id='1232'> +1.2088311e-12 </wgt>
<wgt id='1233'> +1.2047856e-12 </wgt>
<wgt id='1234'> +1.2057098e-12 </wgt>
<wgt id='1235'> +1.1963302e-12 </wgt>
<wgt id='1236'> +1.1998183e-12 </wgt>
<wgt id='1237'> +1.2029225e-12 </wgt>
<wgt id='1238'> +1.2081787e-12 </wgt>
<wgt id='1239'> +1.2103942e-12 </wgt>
<wgt id='1240'> +1.2123716e-12 </wgt>
<wgt id='1241'> +1.2430459e-12 </wgt>
<wgt id='1242'> +1.2397353e-12 </wgt>
<wgt id='1243'> +1.2463294e-12 </wgt>
<wgt id='1244'> +1.2338266e-12 </wgt>
<wgt id='1245'> +1.2498282e-12 </wgt>
<wgt id='1246'> +1.2421662e-12 </wgt>
<wgt id='1247'> +1.2437788e-12 </wgt>
<wgt id='1248'> +1.2429725e-12 </wgt>
<wgt id='1249'> +1.2430986e-12 </wgt>
<wgt id='1250'> +1.2512008e-12 </wgt>
<wgt id='1251'> +1.2373048e-12 </wgt>
<wgt id='1252'> +1.2407577e-12 </wgt>
<wgt id='1253'> +1.2448618e-12 </wgt>
<wgt id='1254'> +1.2434248e-12 </wgt>
<wgt id='1255'> +1.2428224e-12 </wgt>
<wgt id='1256'> +1.2462029e-12 </wgt>
<wgt id='1257'> +1.2350930e-12 </wgt>
<wgt id='1258'> +1.2680387e-12 </wgt>
<wgt id='1259'> +1.2211700e-12 </wgt>
<wgt id='1260'> +1.2453531e-12 </wgt>
<wgt id='1261'> +1.2404691e-12 </wgt>
<wgt id='1262'> +1.2399183e-12 </wgt>
<wgt id='1263'> +1.2438910e-12 </wgt>
<wgt id='1264'> +1.2401254e-12 </wgt>
<wgt id='1265'> +1.2442310e-12 </wgt>
<wgt id='1266'> +1.2387123e-12 </wgt>
<wgt id='1267'> +1.2455679e-12 </wgt>
<wgt id='1268'> +1.2436775e-12 </wgt>
<wgt id='1269'> +1.2447390e-12 </wgt>
<wgt id='1270'> +1.2385282e-12 </wgt>
<wgt id='1271'> +1.2359112e-12 </wgt>
<wgt id='1272'> +1.2412690e-12 </wgt>
<wgt id='1273'> +1.2429289e-12 </wgt>
<wgt id='1274'> +1.2473589e-12 </wgt>
<wgt id='1275'> +1.2353576e-12 </wgt>
<wgt id='1276'> +1.2407655e-12 </wgt>
<wgt id='1277'> +1.2435541e-12 </wgt>
<wgt id='1278'> +1.2421292e-12 </wgt>
<wgt id='1279'> +1.2379697e-12 </wgt>
<wgt id='1280'> +1.2420910e-12 </wgt>
<wgt id='1281'> +1.2468025e-12 </wgt>
<wgt id='1282'> +1.2430459e-12 </wgt>
<wgt id='1283'> +1.2325376e-12 </wgt>
<wgt id='1284'> +1.2365191e-12 </wgt>
<wgt id='1285'> +1.2400178e-12 </wgt>
<wgt id='1286'> +1.2456833e-12 </wgt>
<wgt id='1287'> +1.2479770e-12 </wgt>
<wgt id='1288'> +1.2497298e-12 </wgt>
<wgt id='1289'> +1.2049359e-12 </wgt>
<wgt id='1290'> +1.2041471e-12 </wgt>
<wgt id='1291'> +1.2057890e-12 </wgt>
<wgt id='1292'> +1.1931474e-12 </wgt>
<wgt id='1293'> +1.2134465e-12 </wgt>
<wgt id='1294'> +1.2006976e-12 </wgt>
<wgt id='1295'> +1.2090643e-12 </wgt>
<wgt id='1296'> +1.2018444e-12 </wgt>
<wgt id='1297'> +1.2086512e-12 </wgt>
<wgt id='1298'> +1.2054312e-12 </wgt>
<wgt id='1299'> +1.2041676e-12 </wgt>
<wgt id='1300'> +1.2058485e-12 </wgt>
<wgt id='1301'> +1.2030832e-12 </wgt>
<wgt id='1302'> +1.2033788e-12 </wgt>
<wgt id='1303'> +1.2070495e-12 </wgt>
<wgt id='1304'> +1.2056325e-12 </wgt>
<wgt id='1305'> +1.2044145e-12 </wgt>
<wgt id='1306'> +1.2064132e-12 </wgt>
<wgt id='1307'> +1.2034919e-12 </wgt>
<wgt id='1308'> +1.2137154e-12 </wgt>
<wgt id='1309'> +1.1982483e-12 </wgt>
<wgt id='1310'> +1.2099503e-12 </wgt>
<wgt id='1311'> +1.1997642e-12 </wgt>
<wgt id='1312'> +1.2089142e-12 </wgt>
<wgt id='1313'> +1.2011674e-12 </wgt>
<wgt id='1314'> +1.2029231e-12 </wgt>
<wgt id='1315'> +1.2041153e-12 </wgt>
<wgt id='1316'> +1.2099116e-12 </wgt>
<wgt id='1317'> +1.2045995e-12 </wgt>
<wgt id='1318'> +1.2094539e-12 </wgt>
<wgt id='1319'> +1.1990934e-12 </wgt>
<wgt id='1320'> +1.2202757e-12 </wgt>
<wgt id='1321'> +1.1928884e-12 </wgt>
<wgt id='1322'> +1.2011978e-12 </wgt>
<wgt id='1323'> +1.2092418e-12 </wgt>
<wgt id='1324'> +1.2040519e-12 </wgt>
<wgt id='1325'> +1.2103529e-12 </wgt>
<wgt id='1326'> +1.2001093e-12 </wgt>
<wgt id='1327'> +1.2101733e-12 </wgt>
<wgt id='1328'> +1.2062451e-12 </wgt>
<wgt id='1329'> +1.2034987e-12 </wgt>
<wgt id='1330'> +1.1685363e-12 </wgt>
<wgt id='1331'> +1.2327142e-12 </wgt>
<wgt id='1332'> +1.2244530e-12 </wgt>
<wgt id='1333'> +1.1843144e-12 </wgt>
<wgt id='1334'> +1.1960865e-12 </wgt>
<wgt id='1335'> +1.2273151e-12 </wgt>
<wgt id='1336'> +1.2037222e-12 </wgt>
<wgt id='1337'> +1.1960117e-12 </wgt>
<wgt id='1338'> +1.2022628e-12 </wgt>
<wgt id='1339'> +1.2048050e-12 </wgt>
<wgt id='1340'> +1.1704713e-12 </wgt>
<wgt id='1341'> +1.1699407e-12 </wgt>
<wgt id='1342'> +1.1710075e-12 </wgt>
<wgt id='1343'> +1.1585145e-12 </wgt>
<wgt id='1344'> +1.1785311e-12 </wgt>
<wgt id='1345'> +1.1665412e-12 </wgt>
<wgt id='1346'> +1.1741550e-12 </wgt>
<wgt id='1347'> +1.1675626e-12 </wgt>
<wgt id='1348'> +1.1735892e-12 </wgt>
<wgt id='1349'> +1.1705760e-12 </wgt>
<wgt id='1350'> +1.1702703e-12 </wgt>
<wgt id='1351'> +1.1712403e-12 </wgt>
<wgt id='1352'> +1.1687443e-12 </wgt>
<wgt id='1353'> +1.1688305e-12 </wgt>
<wgt id='1354'> +1.1733299e-12 </wgt>
<wgt id='1355'> +1.1717156e-12 </wgt>
<wgt id='1356'> +1.1697221e-12 </wgt>
<wgt id='1357'> +1.1747102e-12 </wgt>
<wgt id='1358'> +1.1657502e-12 </wgt>
<wgt id='1359'> +1.1793378e-12 </wgt>
<wgt id='1360'> +1.1628029e-12 </wgt>
<wgt id='1361'> +1.1747145e-12 </wgt>
<wgt id='1362'> +1.1650352e-12 </wgt>
<wgt id='1363'> +1.1757397e-12 </wgt>
<wgt id='1364'> +1.1672275e-12 </wgt>
<wgt id='1365'> +1.1657873e-12 </wgt>
<wgt id='1366'> +1.1715159e-12 </wgt>
<wgt id='1367'> +1.1752246e-12 </wgt>
<wgt id='1368'> +1.1697776e-12 </wgt>
<wgt id='1369'> +1.1739774e-12 </wgt>
<wgt id='1370'> +1.1659564e-12 </wgt>
<wgt id='1371'> +1.1803356e-12 </wgt>
<wgt id='1372'> +1.1588671e-12 </wgt>
<wgt id='1373'> +1.1631281e-12 </wgt>
<wgt id='1374'> +1.1767864e-12 </wgt>
<wgt id='1375'> +1.1696396e-12 </wgt>
<wgt id='1376'> +1.1756862e-12 </wgt>
<wgt id='1377'> +1.1665371e-12 </wgt>
<wgt id='1378'> +1.1750222e-12 </wgt>
<wgt id='1379'> +1.1711999e-12 </wgt>
<wgt id='1380'> +1.1694293e-12 </wgt>
<wgt id='1381'> +1.1331257e-12 </wgt>
<wgt id='1382'> +1.1959321e-12 </wgt>
<wgt id='1383'> +1.1921349e-12 </wgt>
<wgt id='1384'> +1.1469651e-12 </wgt>
<wgt id='1385'> +1.1616468e-12 </wgt>
<wgt id='1386'> +1.1914581e-12 </wgt>
<wgt id='1387'> +1.1688675e-12 </wgt>
<wgt id='1388'> +1.1596559e-12 </wgt>
<wgt id='1389'> +1.1659329e-12 </wgt>
<wgt id='1390'> +1.1704980e-12 </wgt>
<wgt id='1391'> +1.1648803e-12 </wgt>
<wgt id='1392'> +1.1164501e-12 </wgt>
<wgt id='1393'> +1.1325089e-12 </wgt>
<wgt id='1394'> +1.1491467e-12 </wgt>
<wgt id='1395'> +1.1819158e-12 </wgt>
<wgt id='1396'> +1.1663723e-12 </wgt>
<wgt id='1397'> +1.1183518e-12 </wgt>
<wgt id='1398'> +1.1295496e-12 </wgt>
<wgt id='1399'> +1.1384713e-12 </wgt>
<wgt id='1400'> +1.1471073e-12 </wgt>
<wgt id='1401'> +1.1569082e-12 </wgt>
<wgt id='1402'> +1.1743655e-12 </wgt>
<wgt id='1403'> +1.1818477e-12 </wgt>
<wgt id='1404'> +1.1882167e-12 </wgt>
<wgt id='1405'> +1.1663723e-12 </wgt>
<wgt id='1406'> +1.1635364e-12 </wgt>
<wgt id='1407'> +1.1653881e-12 </wgt>
<wgt id='1408'> +1.1674897e-12 </wgt>
<wgt id='1409'> +1.1694156e-12 </wgt>
<wgt id='1410'> +1.2331231e-12 </wgt>
<wgt id='1411'> +1.2315510e-12 </wgt>
<wgt id='1412'> +1.2351613e-12 </wgt>
<wgt id='1413'> +1.2380268e-12 </wgt>
<wgt id='1414'> +1.2282536e-12 </wgt>
<wgt id='1415'> +1.2162200e-12 </wgt>
<wgt id='1416'> +1.2399784e-12 </wgt>
<wgt id='1417'> +1.2259708e-12 </wgt>
<wgt id='1418'> +1.2402433e-12 </wgt>
<wgt id='1419'> +1.2323778e-12 </wgt>
<wgt id='1420'> +1.2338456e-12 </wgt>
<wgt id='1421'> +1.2312669e-12 </wgt>
<wgt id='1422'> +1.2339247e-12 </wgt>
<wgt id='1423'> +1.2324550e-12 </wgt>
<wgt id='1424'> +1.2339692e-12 </wgt>
<wgt id='1425'> +1.2310427e-12 </wgt>
<wgt id='1426'> +1.2353719e-12 </wgt>
<wgt id='1427'> +1.2429041e-12 </wgt>
<wgt id='1428'> +1.2276273e-12 </wgt>
<wgt id='1429'> +1.2266261e-12 </wgt>
<wgt id='1430'> +1.2419355e-12 </wgt>
<wgt id='1431'> +1.2359130e-12 </wgt>
<wgt id='1432'> +1.2311645e-12 </wgt>
<wgt id='1433'> +1.2277588e-12 </wgt>
<wgt id='1434'> +1.2378141e-12 </wgt>
<wgt id='1435'> +1.2318732e-12 </wgt>
<wgt id='1436'> +1.2363550e-12 </wgt>
<wgt id='1437'> +1.2363242e-12 </wgt>
<wgt id='1438'> +1.2334548e-12 </wgt>
<wgt id='1439'> +1.2285333e-12 </wgt>
<wgt id='1440'> +1.2439271e-12 </wgt>
<wgt id='1441'> +1.2388358e-12 </wgt>
<wgt id='1442'> +1.2221059e-12 </wgt>
<wgt id='1443'> +1.2323251e-12 </wgt>
<wgt id='1444'> +1.2350571e-12 </wgt>
<wgt id='1445'> +1.2432138e-12 </wgt>
<wgt id='1446'> +1.2294337e-12 </wgt>
<wgt id='1447'> +1.2336335e-12 </wgt>
<wgt id='1448'> +1.2338823e-12 </wgt>
<wgt id='1449'> +1.2350030e-12 </wgt>
<wgt id='1450'> +1.2315676e-12 </wgt>
<wgt id='1451'> +1.2547836e-12 </wgt>
<wgt id='1452'> +1.1830549e-12 </wgt>
<wgt id='1453'> +1.2363731e-12 </wgt>
<wgt id='1454'> +1.2099274e-12 </wgt>
<wgt id='1455'> +1.2120738e-12 </wgt>
<wgt id='1456'> +1.2442020e-12 </wgt>
<wgt id='1457'> +1.2493662e-12 </wgt>
<wgt id='1458'> +1.2256982e-12 </wgt>
<wgt id='1459'> +1.2363780e-12 </wgt>
<wgt id='1460'> +1.2254708e-12 </wgt>
<wgt id='1461'> +1.2331231e-12 </wgt>
<wgt id='1462'> +1.2144883e-12 </wgt>
<wgt id='1463'> +1.2578129e-12 </wgt>
<wgt id='1464'> +1.2352998e-12 </wgt>
<wgt id='1465'> +1.1954269e-12 </wgt>
<wgt id='1466'> +1.2055716e-12 </wgt>
<wgt id='1467'> +1.2153156e-12 </wgt>
<wgt id='1468'> +1.2197863e-12 </wgt>
<wgt id='1469'> +1.2288753e-12 </wgt>
<wgt id='1470'> +1.2414619e-12 </wgt>
<wgt id='1471'> +1.2454335e-12 </wgt>
<wgt id='1472'> +1.2514836e-12 </wgt>
<wgt id='1473'> +1.2352998e-12 </wgt>
<wgt id='1474'> +1.2313441e-12 </wgt>
<wgt id='1475'> +1.2312963e-12 </wgt>
<wgt id='1476'> +1.2372446e-12 </wgt>
<wgt id='1477'> +1.2395059e-12 </wgt>
<wgt id='1478'> +1.1505449e-12 </wgt>
<wgt id='1479'> +1.1483892e-12 </wgt>
<wgt id='1480'> +1.1592175e-12 </wgt>
<wgt id='1481'> +1.1549046e-12 </wgt>
<wgt id='1482'> +1.1457376e-12 </wgt>
<wgt id='1483'> +1.1175416e-12 </wgt>
<wgt id='1484'> +1.1486717e-12 </wgt>
<wgt id='1485'> +1.1461690e-12 </wgt>
<wgt id='1486'> +1.1519792e-12 </wgt>
<wgt id='1487'> +1.1571979e-12 </wgt>
<wgt id='1488'> +1.1493915e-12 </wgt>
<wgt id='1489'> +1.1583099e-12 </wgt>
<wgt id='1490'> +1.1443070e-12 </wgt>
<wgt id='1491'> +1.1498278e-12 </wgt>
<wgt id='1492'> +1.1535386e-12 </wgt>
<wgt id='1493'> +1.1394575e-12 </wgt>
<wgt id='1494'> +1.1729913e-12 </wgt>
<wgt id='1495'> +1.1348359e-12 </wgt>
<wgt id='1496'> +1.1478402e-12 </wgt>
<wgt id='1497'> +1.1428301e-12 </wgt>
<wgt id='1498'> +1.1499608e-12 </wgt>
<wgt id='1499'> +1.1499471e-12 </wgt>
<wgt id='1500'> +1.1532852e-12 </wgt>
<wgt id='1501'> +1.1489052e-12 </wgt>
<wgt id='1502'> +1.1498650e-12 </wgt>
<wgt id='1503'> +1.1487389e-12 </wgt>
<wgt id='1504'> +1.1394452e-12 </wgt>
<wgt id='1505'> +1.1501910e-12 </wgt>
<wgt id='1506'> +1.1479705e-12 </wgt>
<wgt id='1507'> +1.1491352e-12 </wgt>
<wgt id='1508'> +1.1536200e-12 </wgt>
<wgt id='1509'> +1.3353999e-12 </wgt>
<wgt id='1510'> +1.3353812e-12 </wgt>
<wgt id='1511'> +1.3366133e-12 </wgt>
<wgt id='1512'> +1.3341146e-12 </wgt>
<wgt id='1513'> +1.3463759e-12 </wgt>
<wgt id='1514'> +1.3359641e-12 </wgt>
<wgt id='1515'> +1.3297819e-12 </wgt>
<wgt id='1516'> +1.3349098e-12 </wgt>
<wgt id='1517'> +1.3315529e-12 </wgt>
<wgt id='1518'> +1.3471573e-12 </wgt>
<wgt id='1519'> +1.3253206e-12 </wgt>
<wgt id='1520'> +1.3284419e-12 </wgt>
<wgt id='1521'> +1.3442907e-12 </wgt>
<wgt id='1522'> +1.3312494e-12 </wgt>
<wgt id='1523'> +1.3534100e-12 </wgt>
<wgt id='1524'> +1.3401353e-12 </wgt>
<wgt id='1525'> +1.3488562e-12 </wgt>
<wgt id='1526'> +1.3275283e-12 </wgt>
<wgt id='1527'> +1.3289425e-12 </wgt>
<wgt id='1528'> +1.3394965e-12 </wgt>
<wgt id='1529'> +1.3370972e-12 </wgt>
<wgt id='1530'> +1.3486637e-12 </wgt>
<wgt id='1531'> +1.3394741e-12 </wgt>
<wgt id='1532'> +1.3259717e-12 </wgt>
<wgt id='1533'> +1.3316583e-12 </wgt>
<wgt id='1534'> +1.3425044e-12 </wgt>
<wgt id='1535'> +1.3198523e-12 </wgt>
<wgt id='1536'> +1.3323890e-12 </wgt>
<wgt id='1537'> +1.3363147e-12 </wgt>
<wgt id='1538'> +1.3320650e-12 </wgt>
<wgt id='1539'> +1.3280632e-12 </wgt>
<wgt id='1540'> +1.3391878e-12 </wgt>
<wgt id='1541'> +1.3388034e-12 </wgt>
<wgt id='1542'> +1.3390827e-12 </wgt>
<wgt id='1543'> +1.3337952e-12 </wgt>
<wgt id='1544'> +1.3296256e-12 </wgt>
<wgt id='1545'> +1.3375918e-12 </wgt>
<wgt id='1546'> +1.3366476e-12 </wgt>
<wgt id='1547'> +1.3363879e-12 </wgt>
<wgt id='1548'> +1.3333683e-12 </wgt>
<wgt id='1549'> +1.3324051e-12 </wgt>
<wgt id='1550'> +1.3406722e-12 </wgt>
<wgt id='1551'> +1.3332144e-12 </wgt>
<wgt id='1552'> +1.3344579e-12 </wgt>
<wgt id='1553'> +1.3370889e-12 </wgt>
<wgt id='1554'> +1.3436650e-12 </wgt>
<wgt id='1555'> +1.3409229e-12 </wgt>
<wgt id='1556'> +1.3339787e-12 </wgt>
<wgt id='1557'> +1.3377453e-12 </wgt>
<wgt id='1558'> +1.3333258e-12 </wgt>
<wgt id='1559'> +1.3339883e-12 </wgt>
<wgt id='1560'> +1.3383855e-12 </wgt>
<wgt id='1561'> +1.3334596e-12 </wgt>
<wgt id='1562'> +1.3353113e-12 </wgt>
<wgt id='1563'> +1.3353828e-12 </wgt>
<wgt id='1564'> +1.3313130e-12 </wgt>
<wgt id='1565'> +1.3357054e-12 </wgt>
<wgt id='1566'> +1.3359554e-12 </wgt>
<wgt id='1567'> +1.3349385e-12 </wgt>
<wgt id='1568'> +1.3352779e-12 </wgt>
<wgt id='1569'> +1.3378716e-12 </wgt>
<wgt id='1570'> +1.3324291e-12 </wgt>
<wgt id='1571'> +1.3361059e-12 </wgt>
<wgt id='1572'> +1.3334691e-12 </wgt>
<wgt id='1573'> +1.3349050e-12 </wgt>
<wgt id='1574'> +1.3348235e-12 </wgt>
<wgt id='1575'> +1.3354736e-12 </wgt>
<wgt id='1576'> +1.3343271e-12 </wgt>
<wgt id='1577'> +1.3347752e-12 </wgt>
<wgt id='1578'> +1.3365424e-12 </wgt>
<wgt id='1579'> +1.3347240e-12 </wgt>
<wgt id='1580'> +1.3366759e-12 </wgt>
<wgt id='1581'> +1.3355232e-12 </wgt>
<wgt id='1582'> +1.3360395e-12 </wgt>
<wgt id='1583'> +1.3344503e-12 </wgt>
<wgt id='1584'> +1.3342348e-12 </wgt>
<wgt id='1585'> +1.3362770e-12 </wgt>
<wgt id='1586'> +1.3343885e-12 </wgt>
<wgt id='1587'> +1.3356313e-12 </wgt>
<wgt id='1588'> +1.3358449e-12 </wgt>
<wgt id='1589'> +1.3341431e-12 </wgt>
<wgt id='1590'> +1.3345358e-12 </wgt>
<wgt id='1591'> +1.3348131e-12 </wgt>
<wgt id='1592'> +1.3345902e-12 </wgt>
<wgt id='1593'> +1.3353651e-12 </wgt>
<wgt id='1594'> +1.3364434e-12 </wgt>
<wgt id='1595'> +1.3369569e-12 </wgt>
<wgt id='1596'> +1.3366800e-12 </wgt>
<wgt id='1597'> +1.3360913e-12 </wgt>
<wgt id='1598'> +1.3360920e-12 </wgt>
<wgt id='1599'> +1.3360071e-12 </wgt>
<wgt id='1600'> +1.3374301e-12 </wgt>
<wgt id='1601'> +1.3360087e-12 </wgt>
<wgt id='1602'> +1.3356247e-12 </wgt>
<wgt id='1603'> +1.3350727e-12 </wgt>
<wgt id='1604'> +1.3356190e-12 </wgt>
<wgt id='1605'> +1.3347714e-12 </wgt>
<wgt id='1606'> +1.3352192e-12 </wgt>
<wgt id='1607'> +1.3357509e-12 </wgt>
<wgt id='1608'> +1.3346248e-12 </wgt>
<wgt id='1609'> +1.3352036e-12 </wgt>
<wgt id='1610'> +1.3066410e-12 </wgt>
<wgt id='1611'> +1.3683543e-12 </wgt>
<wgt id='1612'> +1.4887778e-12 </wgt>
<wgt id='1613'> +1.4440479e-12 </wgt>
<wgt id='1614'> +1.4953463e-12 </wgt>
<wgt id='1615'> +1.4646030e-12 </wgt>
<wgt id='1616'> +1.5225697e-12 </wgt>
<wgt id='1617'> +1.5847362e-12 </wgt>
<wgt id='1618'> +1.5867766e-12 </wgt>
<wgt id='1619'> +1.5148188e-12 </wgt>
<wgt id='1620'> +1.4274751e-12 </wgt>
<wgt id='1621'> +1.4997511e-12 </wgt>
<wgt id='1622'> +1.5213033e-12 </wgt>
<wgt id='1623'> +1.4851140e-12 </wgt>
<wgt id='1624'> +1.4746097e-12 </wgt>
<wgt id='1625'> +1.4497896e-12 </wgt>
<wgt id='1626'> +1.4516655e-12 </wgt>
<wgt id='1627'> +1.4504580e-12 </wgt>
<wgt id='1628'> +1.4991553e-12 </wgt>
<wgt id='1629'> +1.5980391e-12 </wgt>
<wgt id='1630'> +1.4993668e-12 </wgt>
<wgt id='1631'> +1.4617846e-12 </wgt>
<wgt id='1632'> +1.3233263e-12 </wgt>
<wgt id='1633'> +1.4220830e-12 </wgt>
<wgt id='1634'> +1.5367468e-12 </wgt>
<wgt id='1635'> +1.5078269e-12 </wgt>
<wgt id='1636'> +1.5780501e-12 </wgt>
<wgt id='1637'> +1.4587089e-12 </wgt>
<wgt id='1638'> +1.4785222e-12 </wgt>
<wgt id='1639'> +1.4809681e-12 </wgt>
<wgt id='1640'> +1.4307698e-12 </wgt>
<wgt id='1641'> +1.4718313e-12 </wgt>
<wgt id='1642'> +1.4497516e-12 </wgt>
<wgt id='1643'> +1.5452531e-12 </wgt>
<wgt id='1644'> +1.4034330e-12 </wgt>
<wgt id='1645'> +1.4651730e-12 </wgt>
<wgt id='1646'> +1.4375055e-12 </wgt>
<wgt id='1647'> +1.4349866e-12 </wgt>
<wgt id='1648'> +1.4990669e-12 </wgt>
<wgt id='1649'> +1.6315727e-12 </wgt>
<wgt id='1650'> +1.4706866e-12 </wgt>
<wgt id='1651'> +1.4693471e-12 </wgt>
<wgt id='1652'> +1.4364834e-12 </wgt>
<wgt id='1653'> +1.5885538e-12 </wgt>
<wgt id='1654'> +1.5180270e-12 </wgt>
<wgt id='1655'> +1.4775816e-12 </wgt>
<wgt id='1656'> +1.3851195e-12 </wgt>
<wgt id='1657'> +1.4653886e-12 </wgt>
<wgt id='1658'> +1.4154175e-12 </wgt>
<wgt id='1659'> +1.4746097e-12 </wgt>
<wgt id='1660'> +1.5612383e-12 </wgt>
<wgt id='1661'> +1.5003919e-12 </wgt>
<wgt id='1662'> +1.4910424e-12 </wgt>
<wgt id='1663'> +1.5107955e-12 </wgt>
<wgt id='1664'> +1.4246924e-12 </wgt>
<wgt id='1665'> +1.3702564e-12 </wgt>
<wgt id='1666'> +1.5228092e-12 </wgt>
<wgt id='1667'> +1.5000620e-12 </wgt>
<wgt id='1668'> +1.5641969e-12 </wgt>
<wgt id='1669'> +1.4135191e-12 </wgt>
<wgt id='1670'> +1.4959977e-12 </wgt>
<wgt id='1671'> +1.4049012e-12 </wgt>
<wgt id='1672'> +1.4789956e-12 </wgt>
<wgt id='1673'> +1.5407976e-12 </wgt>
<wgt id='1674'> +1.4612055e-12 </wgt>
<wgt id='1675'> +1.4735977e-12 </wgt>
<wgt id='1676'> +1.5627070e-12 </wgt>
<wgt id='1677'> +1.5857032e-12 </wgt>
<wgt id='1678'> +1.4502036e-12 </wgt>
<wgt id='1679'> +1.5559719e-12 </wgt>
<wgt id='1680'> +1.4841338e-12 </wgt>
<wgt id='1681'> +1.5126911e-12 </wgt>
<wgt id='1682'> +1.4928948e-12 </wgt>
<wgt id='1683'> +1.4637258e-12 </wgt>
<wgt id='1684'> +1.4344070e-12 </wgt>
<wgt id='1685'> +1.4537129e-12 </wgt>
<wgt id='1686'> +1.4660937e-12 </wgt>
<wgt id='1687'> +1.5583833e-12 </wgt>
<wgt id='1688'> +1.4671448e-12 </wgt>
<wgt id='1689'> +1.4626473e-12 </wgt>
<wgt id='1690'> +1.5006983e-12 </wgt>
<wgt id='1691'> +1.5093994e-12 </wgt>
<wgt id='1692'> +1.5314755e-12 </wgt>
<wgt id='1693'> +1.5369005e-12 </wgt>
<wgt id='1694'> +1.4764269e-12 </wgt>
<wgt id='1695'> +1.4851025e-12 </wgt>
<wgt id='1696'> +1.5080593e-12 </wgt>
<wgt id='1697'> +1.5595334e-12 </wgt>
<wgt id='1698'> +1.4742143e-12 </wgt>
<wgt id='1699'> +1.5494757e-12 </wgt>
<wgt id='1700'> +1.4585905e-12 </wgt>
<wgt id='1701'> +1.5037020e-12 </wgt>
<wgt id='1702'> +1.5452685e-12 </wgt>
<wgt id='1703'> +1.5463770e-12 </wgt>
<wgt id='1704'> +1.4342676e-12 </wgt>
<wgt id='1705'> +1.3982186e-12 </wgt>
<wgt id='1706'> +1.5237546e-12 </wgt>
<wgt id='1707'> +1.5144456e-12 </wgt>
<wgt id='1708'> +1.4929360e-12 </wgt>
<wgt id='1709'> +1.4646658e-12 </wgt>
<wgt id='1710'> +1.4853152e-12 </wgt>
<wgt id='1711'> +1.5563195e-12 </wgt>
<wgt id='1712'> +1.5036512e-12 </wgt>
<wgt id='1713'> +1.1336529e-12 </wgt>
<wgt id='1714'> +1.1112740e-12 </wgt>
<wgt id='1715'> +1.1463265e-12 </wgt>
<wgt id='1716'> +1.2267336e-12 </wgt>
<wgt id='1717'> +1.1780429e-12 </wgt>
<wgt id='1718'> +1.1651945e-12 </wgt>
<wgt id='1719'> +1.1411945e-12 </wgt>
<wgt id='1720'> +1.1484973e-12 </wgt>
<wgt id='1721'> +1.1029664e-12 </wgt>
<wgt id='1722'> +1.1331149e-12 </wgt>
<wgt id='1723'> +1.0596782e-12 </wgt>
<wgt id='1724'> +1.0310286e-12 </wgt>
<wgt id='1725'> +1.1470976e-12 </wgt>
<wgt id='1726'> +1.2040586e-12 </wgt>
<wgt id='1727'> +1.1251073e-12 </wgt>
<wgt id='1728'> +1.1240390e-12 </wgt>
<wgt id='1729'> +1.1165815e-12 </wgt>
<wgt id='1730'> +1.1114686e-12 </wgt>
<wgt id='1731'> +1.0862151e-12 </wgt>
<wgt id='1732'> +1.1278342e-12 </wgt>
<wgt id='1733'> +1.1620999e-12 </wgt>
<wgt id='1734'> +1.1774865e-12 </wgt>
<wgt id='1735'> +1.0921311e-12 </wgt>
<wgt id='1736'> +1.1673871e-12 </wgt>
<wgt id='1737'> +1.2128595e-12 </wgt>
<wgt id='1738'> +1.1562032e-12 </wgt>
<wgt id='1739'> +1.1254519e-12 </wgt>
<wgt id='1740'> +1.1418563e-12 </wgt>
<wgt id='1741'> +1.1352762e-12 </wgt>
<wgt id='1742'> +1.1582699e-12 </wgt>
<wgt id='1743'> +1.1590019e-12 </wgt>
<wgt id='1744'> +1.2021761e-12 </wgt>
<wgt id='1745'> +1.0547046e-12 </wgt>
<wgt id='1746'> +1.1315400e-12 </wgt>
<wgt id='1747'> +1.1448752e-12 </wgt>
<wgt id='1748'> +1.1617753e-12 </wgt>
<wgt id='1749'> +1.1468468e-12 </wgt>
<wgt id='1750'> +1.1318796e-12 </wgt>
<wgt id='1751'> +1.0314620e-12 </wgt>
<wgt id='1752'> +1.1481241e-12 </wgt>
<wgt id='1753'> +1.1536721e-12 </wgt>
<wgt id='1754'> +1.1375583e-12 </wgt>
<wgt id='1755'> +1.1405329e-12 </wgt>
<wgt id='1756'> +1.1485388e-12 </wgt>
<wgt id='1757'> +1.1093630e-12 </wgt>
<wgt id='1758'> +1.1469948e-12 </wgt>
<wgt id='1759'> +1.1401710e-12 </wgt>
<wgt id='1760'> +1.0700540e-12 </wgt>
<wgt id='1761'> +1.1278940e-12 </wgt>
<wgt id='1762'> +1.1556066e-12 </wgt>
<wgt id='1763'> +1.1874673e-12 </wgt>
<wgt id='1764'> +1.1225835e-12 </wgt>
<wgt id='1765'> +1.1459544e-12 </wgt>
<wgt id='1766'> +1.1050212e-12 </wgt>
<wgt id='1767'> +1.1529366e-12 </wgt>
<wgt id='1768'> +1.1485259e-12 </wgt>
<wgt id='1769'> +1.1162316e-12 </wgt>
<wgt id='1770'> +1.1822327e-12 </wgt>
<wgt id='1771'> +1.1615295e-12 </wgt>
<wgt id='1772'> +1.1691238e-12 </wgt>
<wgt id='1773'> +1.1331827e-12 </wgt>
<wgt id='1774'> +1.1366734e-12 </wgt>
<wgt id='1775'> +1.1442588e-12 </wgt>
<wgt id='1776'> +1.1256303e-12 </wgt>
<wgt id='1777'> +1.0250241e-12 </wgt>
<wgt id='1778'> +1.1320062e-12 </wgt>
<wgt id='1779'> +1.1644488e-12 </wgt>
<wgt id='1780'> +1.0958569e-12 </wgt>
<wgt id='1781'> +1.1427145e-12 </wgt>
<wgt id='1782'> +1.0900760e-12 </wgt>
<wgt id='1783'> +1.1292988e-12 </wgt>
<wgt id='1784'> +1.1239767e-12 </wgt>
<wgt id='1785'> +1.0843287e-12 </wgt>
<wgt id='1786'> +1.0200224e-12 </wgt>
<wgt id='1787'> +1.2089987e-12 </wgt>
<wgt id='1788'> +1.1398676e-12 </wgt>
<wgt id='1789'> +1.0620418e-12 </wgt>
<wgt id='1790'> +1.1339010e-12 </wgt>
<wgt id='1791'> +1.1097663e-12 </wgt>
<wgt id='1792'> +1.0830427e-12 </wgt>
<wgt id='1793'> +1.1591221e-12 </wgt>
<wgt id='1794'> +1.1450166e-12 </wgt>
<wgt id='1795'> +1.1750981e-12 </wgt>
<wgt id='1796'> +1.1227551e-12 </wgt>
<wgt id='1797'> +1.1597603e-12 </wgt>
<wgt id='1798'> +1.1480358e-12 </wgt>
<wgt id='1799'> +1.1215110e-12 </wgt>
<wgt id='1800'> +1.1285796e-12 </wgt>
<wgt id='1801'> +1.1516013e-12 </wgt>
<wgt id='1802'> +1.1099188e-12 </wgt>
<wgt id='1803'> +1.1654066e-12 </wgt>
<wgt id='1804'> +1.1368002e-12 </wgt>
<wgt id='1805'> +1.1289081e-12 </wgt>
<wgt id='1806'> +1.1394737e-12 </wgt>
<wgt id='1807'> +1.1025794e-12 </wgt>
<wgt id='1808'> +1.1455683e-12 </wgt>
<wgt id='1809'> +1.0988179e-12 </wgt>
<wgt id='1810'> +1.1361865e-12 </wgt>
<wgt id='1811'> +1.1688812e-12 </wgt>
<wgt id='1812'> +1.1639223e-12 </wgt>
<wgt id='1813'> +1.1486839e-12 </wgt>
<wgt id='1814'> +1.1198148e-12 </wgt>
<wgt id='1815'> +1.3237333e-12 </wgt>
<wgt id='1816'> +1.1336529e-12 </wgt>
<wgt id='1817'> +1.1112740e-12 </wgt>
<wgt id='1818'> +1.1463265e-12 </wgt>
<wgt id='1819'> +1.2267336e-12 </wgt>
<wgt id='1820'> +1.1780429e-12 </wgt>
<wgt id='1821'> +1.1651945e-12 </wgt>
<wgt id='1822'> +1.1411945e-12 </wgt>
<wgt id='1823'> +1.1484973e-12 </wgt>
<wgt id='1824'> +1.1029664e-12 </wgt>
<wgt id='1825'> +1.1331149e-12 </wgt>
<wgt id='1826'> +1.0596782e-12 </wgt>
<wgt id='1827'> +1.0310286e-12 </wgt>
<wgt id='1828'> +1.1470976e-12 </wgt>
<wgt id='1829'> +1.2040586e-12 </wgt>
<wgt id='1830'> +1.1251073e-12 </wgt>
<wgt id='1831'> +1.1240390e-12 </wgt>
<wgt id='1832'> +1.1165815e-12 </wgt>
<wgt id='1833'> +1.1114686e-12 </wgt>
<wgt id='1834'> +1.0862151e-12 </wgt>
<wgt id='1835'> +1.1278342e-12 </wgt>
<wgt id='1836'> +1.1620999e-12 </wgt>
<wgt id='1837'> +1.1774865e-12 </wgt>
<wgt id='1838'> +1.0921311e-12 </wgt>
<wgt id='1839'> +1.1673871e-12 </wgt>
<wgt id='1840'> +1.2128595e-12 </wgt>
<wgt id='1841'> +1.1562032e-12 </wgt>
<wgt id='1842'> +1.1254519e-12 </wgt>
<wgt id='1843'> +1.1418563e-12 </wgt>
<wgt id='1844'> +1.1352762e-12 </wgt>
<wgt id='1845'> +1.1582699e-12 </wgt>
<wgt id='1846'> +1.1590019e-12 </wgt>
<wgt id='1847'> +1.2021761e-12 </wgt>
<wgt id='1848'> +1.0547046e-12 </wgt>
<wgt id='1849'> +1.1315400e-12 </wgt>
<wgt id='1850'> +1.1448752e-12 </wgt>
<wgt id='1851'> +1.1617753e-12 </wgt>
<wgt id='1852'> +1.1468468e-12 </wgt>
<wgt id='1853'> +1.1318796e-12 </wgt>
<wgt id='1854'> +1.0314620e-12 </wgt>
<wgt id='1855'> +1.1481241e-12 </wgt>
<wgt id='1856'> +1.1536721e-12 </wgt>
<wgt id='1857'> +1.1375583e-12 </wgt>
<wgt id='1858'> +1.1405329e-12 </wgt>
<wgt id='1859'> +1.1485388e-12 </wgt>
<wgt id='1860'> +1.1093630e-12 </wgt>
<wgt id='1861'> +1.1469948e-12 </wgt>
<wgt id='1862'> +1.1401710e-12 </wgt>
<wgt id='1863'> +1.0700540e-12 </wgt>
<wgt id='1864'> +1.1278940e-12 </wgt>
<wgt id='1865'> +1.1556066e-12 </wgt>
<wgt id='1866'> +1.1874673e-12 </wgt>
<wgt id='1867'> +1.1225835e-12 </wgt>
<wgt id='1868'> +1.1459544e-12 </wgt>
<wgt id='1869'> +1.1050212e-12 </wgt>
<wgt id='1870'> +1.1529366e-12 </wgt>
<wgt id='1871'> +1.1485259e-12 </wgt>
<wgt id='1872'> +1.1162316e-12 </wgt>
<wgt id='1873'> +1.1822327e-12 </wgt>
<wgt id='1874'> +1.1615295e-12 </wgt>
<wgt id='1875'> +1.1691238e-12 </wgt>
<wgt id='1876'> +1.1331827e-12 </wgt>
<wgt id='1877'> +1.1366734e-12 </wgt>
<wgt id='1878'> +1.1442588e-12 </wgt>
<wgt id='1879'> +1.1256303e-12 </wgt>
<wgt id='1880'> +1.0250241e-12 </wgt>
<wgt id='1881'> +1.1320062e-12 </wgt>
<wgt id='1882'> +1.1644488e-12 </wgt>
<wgt id='1883'> +1.0958569e-12 </wgt>
<wgt id='1884'> +1.1427145e-12 </wgt>
<wgt id='1885'> +1.0900760e-12 </wgt>
<wgt id='1886'> +1.1292988e-12 </wgt>
<wgt id='1887'> +1.1239767e-12 </wgt>
<wgt id='1888'> +1.0843287e-12 </wgt>
<wgt id='1889'> +1.0200224e-12 </wgt>
<wgt id='1890'> +1.2089987e-12 </wgt>
<wgt id='1891'> +1.1398676e-12 </wgt>
<wgt id='1892'> +1.0620418e-12 </wgt>
<wgt id='1893'> +1.1339010e-12 </wgt>
<wgt id='1894'> +1.1097663e-12 </wgt>
<wgt id='1895'> +1.0830427e-12 </wgt>
<wgt id='1896'> +1.1591221e-12 </wgt>
<wgt id='1897'> +1.1450166e-12 </wgt>
<wgt id='1898'> +1.1750981e-12 </wgt>
<wgt id='1899'> +1.1227551e-12 </wgt>
<wgt id='1900'> +1.1597603e-12 </wgt>
<wgt id='1901'> +1.1480358e-12 </wgt>
<wgt id='1902'> +1.1215110e-12 </wgt>
<wgt id='1903'> +1.1285796e-12 </wgt>
<wgt id='1904'> +1.1516013e-12 </wgt>
<wgt id='1905'> +1.1099188e-12 </wgt>
<wgt id='1906'> +1.1654066e-12 </wgt>
<wgt id='1907'> +1.1368002e-12 </wgt>
<wgt id='1908'> +1.1289081e-12 </wgt>
<wgt id='1909'> +1.1394737e-12 </wgt>
<wgt id='1910'> +1.1025794e-12 </wgt>
<wgt id='1911'> +1.1455683e-12 </wgt>
<wgt id='1912'> +1.0988179e-12 </wgt>
<wgt id='1913'> +1.1361865e-12 </wgt>
<wgt id='1914'> +1.1688812e-12 </wgt>
<wgt id='1915'> +1.1639223e-12 </wgt>
<wgt id='1916'> +1.1486839e-12 </wgt>
<wgt id='1917'> +1.1235145e-12 </wgt>
<wgt id='1918'> +1.1492139e-12 </wgt>
<wgt id='1919'> +1.2112108e-12 </wgt>
</rwgt>
</event>
<event>
 9      1 +1.5607000e-12 4.06212600e+01 7.81860800e-03 1.36423200e-01
       -2 -1    0    0    0  501 -0.0000000000e+00 +0.0000000000e+00 +6.2374658661e+01 6.2374658661e+01 0.0000000000e+00 0.0000e+00 1.0000e+00
       21 -1    0    0  501  502 +0.0000000000e+00 -0.0000000000e+00 -3.1517660440e+01 3.1517660440e+01 0.0000000000e+00 0.0000e+00 1.0000e+00
     1023  2    1    2    0    0 +3.6272105767e+01 -1.0459981575e+01 +3.7824208758e+01 5.5504575041e+01 1.5000340362e+01 0.0000e+00 0.0000e+00
  1000023  2    3    3    0    0 +2.7997795562e+01 -5.0120135789e+00 +2.3015917512e+01 3.6999709349e+01 5.4999269573e+00 0.0000e+00 0.0000e+00
       -2  1    1    2    0  502 -3.6272105767e+01 +1.0459981575e+01 -6.9672105368e+00 3.8387744060e+01 0.0000000000e+00 0.0000e+00 1.0000e+00
  1000022  1    4    4    0    0 +2.4406950707e+01 -4.2678843129e+00 +2.0451677276e+01 3.2514384243e+01 5.0000000000e+00 0.0000e+00 1.0000e+00
      -13  1    4    4    0    0 +1.8961313898e+00 -2.8805681357e-01 +1.3927704862e+00 2.3726089211e+00 1.0570000000e-01 0.0000e+00 1.0000e+00
       13  1    4    4    0    0 +1.6947134656e+00 -4.5607245240e-01 +1.1714697491e+00 2.1127161843e+00 1.0570000000e-01 0.0000e+00 -1.0000e+00
  1000022  1    3    3    0    0 +8.2743102053e+00 -5.4479679960e+00 +1.4808291247e+01 1.8504865693e+01 5.0000000000e+00 0.0000e+00 1.0000e+00
<mgrwt>
<rscale>  1 0.40621264E+02</rscale>
<asrwt>0</asrwt>
<pdfrwt beam="1">  1       21 0.48488709E-02 0.40621264E+02</pdfrwt>
<pdfrwt beam="2">  1       -2 0.95961013E-02 0.40621264E+02</pdfrwt>
<totfact> 0.15606927E+06</totfact>
</mgrwt>
<rwgt>
<wgt id='1001'> +1.5607000e-12 </wgt>
<wgt id='1002'> +1.5627976e-12 </wgt>
<wgt id='1003'> +1.5625864e-12 </wgt>
<wgt id='1004'> +1.5595223e-12 </wgt>
<wgt id='1005'> +1.5600089e-12 </wgt>
<wgt id='1006'> +1.3764044e-12 </wgt>
<wgt id='1007'> +1.3973299e-12 </wgt>
<wgt id='1008'> +1.3974898e-12 </wgt>
<wgt id='1009'> +1.3739017e-12 </wgt>
<wgt id='1010'> +1.3985960e-12 </wgt>
<wgt id='1011'> +1.8046320e-12 </wgt>
<wgt id='1012'> +1.7745184e-12 </wgt>
<wgt id='1013'> +1.7736992e-12 </wgt>
<wgt id='1014'> +1.8058426e-12 </wgt>
<wgt id='1015'> +1.7651978e-12 </wgt>
<wgt id='1016'> +1.7709509e-12 </wgt>
<wgt id='1017'> +1.7240216e-12 </wgt>
<wgt id='1018'> +1.7229506e-12 </wgt>
<wgt id='1019'> +1.7736992e-12 </wgt>
<wgt id='1020'> +1.7120382e-12 </wgt>
<wgt id='1021'> +1.5618278e-12 </wgt>
<wgt id='1022'> +1.5414835e-12 </wgt>
<wgt id='1023'> +1.5409106e-12 </wgt>
<wgt id='1024'> +1.5625864e-12 </wgt>
<wgt id='1025'> +1.5348950e-12 </wgt>
<wgt id='1026'> +2.0477444e-12 </wgt>
<wgt id='1027'> +1.9575842e-12 </wgt>
<wgt id='1028'> +1.9557293e-12 </wgt>
<wgt id='1029'> +2.0538480e-12 </wgt>
<wgt id='1030'> +1.9372235e-12 </wgt>
<wgt id='1031'> +1.3140670e-12 </wgt>
<wgt id='1032'> +1.3731126e-12 </wgt>
<wgt id='1033'> +1.3739017e-12 </wgt>
<wgt id='1034'> +1.3083693e-12 </wgt>
<wgt id='1035'> +1.3809839e-12 </wgt>
<wgt id='1036'> +1.1588952e-12 </wgt>
<wgt id='1037'> +1.2277285e-12 </wgt>
<wgt id='1038'> +1.2287408e-12 </wgt>
<wgt id='1039'> +1.1526419e-12 </wgt>
<wgt id='1040'> +1.2380946e-12 </wgt>
<wgt id='1041'> +1.5194512e-12 </wgt>
<wgt id='1042'> +1.5591357e-12 </wgt>
<wgt id='1043'> +1.5595223e-12 </wgt>
<wgt id='1044'> +1.5150210e-12 </wgt>
<wgt id='1045'> +1.5626255e-12 </wgt>
<wgt id='1046'> +1.5607000e-12 </wgt>
<wgt id='1047'> +1.6437261e-12 </wgt>
<wgt id='1048'> +1.5632438e-12 </wgt>
<wgt id='1049'> +1.5254686e-12 </wgt>
<wgt id='1050'> +1.5464291e-12 </wgt>
<wgt id='1051'> +1.5214201e-12 </wgt>
<wgt id='1052'> +1.6149893e-12 </wgt>
<wgt id='1053'> +1.5640339e-12 </wgt>
<wgt id='1054'> +1.5252594e-12 </wgt>
<wgt id='1055'> +1.5190849e-12 </wgt>
<wgt id='1056'> +1.5332318e-12 </wgt>
<wgt id='1057'> +1.5833874e-12 </wgt>
<wgt id='1058'> +1.4983375e-12 </wgt>
<wgt id='1059'> +1.5497029e-12 </wgt>
<wgt id='1060'> +1.5660323e-12 </wgt>
<wgt id='1061'> +1.5779364e-12 </wgt>
<wgt id='1062'> +1.5738215e-12 </wgt>
<wgt id='1063'> +1.5786688e-12 </wgt>
<wgt id='1064'> +1.5236085e-12 </wgt>
<wgt id='1065'> +1.5765330e-12 </wgt>
<wgt id='1066'> +1.5193651e-12 </wgt>
<wgt id='1067'> +1.5252255e-12 </wgt>
<wgt id='1068'> +1.6003758e-12 </wgt>
<wgt id='1069'> +1.5759874e-12 </wgt>
<wgt id='1070'> +1.5183103e-12 </wgt>
<wgt id='1071'> +1.5410621e-12 </wgt>
<wgt id='1072'> +1.6253793e-12 </wgt>
<wgt id='1073'> +1.5833092e-12 </wgt>
<wgt id='1074'> +1.5325499e-12 </wgt>
<wgt id='1075'> +1.5684791e-12 </wgt>
<wgt id='1076'> +1.5821326e-12 </wgt>
<wgt id='1077'> +1.6050679e-12 </wgt>
<wgt id='1078'> +1.5394967e-12 </wgt>
<wgt id='1079'> +1.5838980e-12 </wgt>
<wgt id='1080'> +1.4959053e-12 </wgt>
<wgt id='1081'> +1.5867684e-12 </wgt>
<wgt id='1082'> +1.5700812e-12 </wgt>
<wgt id='1083'> +1.5726840e-12 </wgt>
<wgt id='1084'> +1.5617121e-12 </wgt>
<wgt id='1085'> +1.5497808e-12 </wgt>
<wgt id='1086'> +1.6011575e-12 </wgt>
<wgt id='1087'> +1.5838309e-12 </wgt>
<wgt id='1088'> +1.5603307e-12 </wgt>
<wgt id='1089'> +1.5760969e-12 </wgt>
<wgt id='1090'> +1.5715804e-12 </wgt>
<wgt id='1091'> +1.5902877e-12 </wgt>
<wgt id='1092'> +1.6068758e-12 </wgt>
<wgt id='1093'> +1.5664364e-12 </wgt>
<wgt id='1094'> +1.5577325e-12 </wgt>
<wgt id='1095'> +1.5841808e-12 </wgt>
<wgt id='1096'> +1.5504883e-12 </wgt>
<wgt id='1097'> +1.5077582e-12 </wgt>
<wgt id='1098'> +1.5447787e-12 </wgt>
<wgt id='1099'> +1.5551652e-12 </wgt>
<wgt id='1100'> +1.5546411e-12 </wgt>
<wgt id='1101'> +1.5858586e-12 </wgt>
<wgt id='1102'> +1.5427359e-12 </wgt>
<wgt id='1103'> +1.5745623e-12 </wgt>
<wgt id='1104'> +1.5528746e-12 </wgt>
<wgt id='1105'> +1.5959192e-12 </wgt>
<wgt id='1106'> +1.6036367e-12 </wgt>
<wgt id='1107'> +1.5684171e-12 </wgt>
<wgt id='1108'> +1.5421922e-12 </wgt>
<wgt id='1109'> +1.5736071e-12 </wgt>
<wgt id='1110'> +1.5165754e-12 </wgt>
<wgt id='1111'> +1.6003572e-12 </wgt>
<wgt id='1112'> +1.6208556e-12 </wgt>
<wgt id='1113'> +1.5469230e-12 </wgt>
<wgt id='1114'> +1.6046440e-12 </wgt>
<wgt id='1115'> +1.5721373e-12 </wgt>
<wgt id='1116'> +1.5248180e-12 </wgt>
<wgt id='1117'> +1.5422220e-12 </wgt>
<wgt id='1118'> +1.5616288e-12 </wgt>
<wgt id='1119'> +1.5147424e-12 </wgt>
<wgt id='1120'> +1.5310697e-12 </wgt>
<wgt id='1121'> +1.5498372e-12 </wgt>
<wgt id='1122'> +1.6289631e-12 </wgt>
<wgt id='1123'> +1.5210955e-12 </wgt>
<wgt id='1124'> +1.5521174e-12 </wgt>
<wgt id='1125'> +1.5696250e-12 </wgt>
<wgt id='1126'> +1.5733350e-12 </wgt>
<wgt id='1127'> +1.5386576e-12 </wgt>
<wgt id='1128'> +1.5738215e-12 </wgt>
<wgt id='1129'> +1.5790819e-12 </wgt>
<wgt id='1130'> +1.5404403e-12 </wgt>
<wgt id='1131'> +1.5698865e-12 </wgt>
<wgt id='1132'> +1.5569085e-12 </wgt>
<wgt id='1133'> +1.4821822e-12 </wgt>
<wgt id='1134'> +1.5787995e-12 </wgt>
<wgt id='1135'> +1.5423821e-12 </wgt>
<wgt id='1136'> +1.5272708e-12 </wgt>
<wgt id='1137'> +1.5324777e-12 </wgt>
<wgt id='1138'> +1.5295286e-12 </wgt>
<wgt id='1139'> +1.5465776e-12 </wgt>
<wgt id='1140'> +1.5391108e-12 </wgt>
<wgt id='1141'> +1.5327098e-12 </wgt>
<wgt id='1142'> +1.5826766e-12 </wgt>
<wgt id='1143'> +1.5919171e-12 </wgt>
<wgt id='1144'> +1.5800920e-12 </wgt>
<wgt id='1145'> +1.5649334e-12 </wgt>
<wgt id='1146'> +1.5673334e-12 </wgt>
<wgt id='1147'> +1.2281033e-12 </wgt>
<wgt id='1148'> +1.2527679e-12 </wgt>
<wgt id='1149'> +1.2821367e-12 </wgt>
<wgt id='1150'> +1.2605933e-12 </wgt>
<wgt id='1151'> +1.2134196e-12 </wgt>
<wgt id='1152'> +1.5156592e-12 </wgt>
<wgt id='1153'> +1.5076558e-12 </wgt>
<wgt id='1154'> +1.5202163e-12 </wgt>
<wgt id='1155'> +1.5141603e-12 </wgt>
<wgt id='1156'> +1.5163280e-12 </wgt>
<wgt id='1157'> +1.5201396e-12 </wgt>
<wgt id='1158'> +1.5095145e-12 </wgt>
<wgt id='1159'> +1.5194681e-12 </wgt>
<wgt id='1160'> +1.5131519e-12 </wgt>
<wgt id='1161'> +1.5131598e-12 </wgt>
<wgt id='1162'> +1.5172269e-12 </wgt>
<wgt id='1163'> +1.5196631e-12 </wgt>
<wgt id='1164'> +1.5115022e-12 </wgt>
<wgt id='1165'> +1.5082775e-12 </wgt>
<wgt id='1166'> +1.5226551e-12 </wgt>
<wgt id='1167'> +1.5194909e-12 </wgt>
<wgt id='1168'> +1.5088130e-12 </wgt>
<wgt id='1169'> +1.5168805e-12 </wgt>
<wgt id='1170'> +1.5146284e-12 </wgt>
<wgt id='1171'> +1.5099218e-12 </wgt>
<wgt id='1172'> +1.5222216e-12 </wgt>
<wgt id='1173'> +1.5042137e-12 </wgt>
<wgt id='1174'> +1.5259933e-12 </wgt>
<wgt id='1175'> +1.5148735e-12 </wgt>
<wgt id='1176'> +1.5151594e-12 </wgt>
<wgt id='1177'> +1.5167218e-12 </wgt>
<wgt id='1178'> +1.5125461e-12 </wgt>
<wgt id='1179'> +1.5233512e-12 </wgt>
<wgt id='1180'> +1.5011214e-12 </wgt>
<wgt id='1181'> +1.5098220e-12 </wgt>
<wgt id='1182'> +1.5210097e-12 </wgt>
<wgt id='1183'> +1.5138389e-12 </wgt>
<wgt id='1184'> +1.5157547e-12 </wgt>
<wgt id='1185'> +1.5074238e-12 </wgt>
<wgt id='1186'> +1.5203115e-12 </wgt>
<wgt id='1187'> +1.5150513e-12 </wgt>
<wgt id='1188'> +1.5157568e-12 </wgt>
<wgt id='1189'> +1.5117279e-12 </wgt>
<wgt id='1190'> +1.5063343e-12 </wgt>
<wgt id='1191'> +1.5082659e-12 </wgt>
<wgt id='1192'> +1.5165826e-12 </wgt>
<wgt id='1193'> +1.2883846e-12 </wgt>
<wgt id='1194'> +1.2891741e-12 </wgt>
<wgt id='1195'> +1.2876616e-12 </wgt>
<wgt id='1196'> +1.2958754e-12 </wgt>
<wgt id='1197'> +1.2799723e-12 </wgt>
<wgt id='1198'> +1.2876449e-12 </wgt>
<wgt id='1199'> +1.2893788e-12 </wgt>
<wgt id='1200'> +1.2898243e-12 </wgt>
<wgt id='1201'> +1.2874160e-12 </wgt>
<wgt id='1202'> +1.2871705e-12 </wgt>
<wgt id='1203'> +1.2900692e-12 </wgt>
<wgt id='1204'> +1.2810035e-12 </wgt>
<wgt id='1205'> +1.2929289e-12 </wgt>
<wgt id='1206'> +1.2923574e-12 </wgt>
<wgt id='1207'> +1.2829254e-12 </wgt>
<wgt id='1208'> +1.2805388e-12 </wgt>
<wgt id='1209'> +1.2912189e-12 </wgt>
<wgt id='1210'> +1.2959607e-12 </wgt>
<wgt id='1211'> +1.2727265e-12 </wgt>
<wgt id='1212'> +1.2883837e-12 </wgt>
<wgt id='1213'> +1.2882735e-12 </wgt>
<wgt id='1214'> +1.2718696e-12 </wgt>
<wgt id='1215'> +1.3162815e-12 </wgt>
<wgt id='1216'> +1.2947470e-12 </wgt>
<wgt id='1217'> +1.2836266e-12 </wgt>
<wgt id='1218'> +1.2924901e-12 </wgt>
<wgt id='1219'> +1.2861053e-12 </wgt>
<wgt id='1220'> +1.2927969e-12 </wgt>
<wgt id='1221'> +1.2868134e-12 </wgt>
<wgt id='1222'> +1.2880677e-12 </wgt>
<wgt id='1223'> +1.2866769e-12 </wgt>
<wgt id='1224'> +1.2899461e-12 </wgt>
<wgt id='1225'> +1.2877256e-12 </wgt>
<wgt id='1226'> +1.2847229e-12 </wgt>
<wgt id='1227'> +1.2907922e-12 </wgt>
<wgt id='1228'> +1.2881646e-12 </wgt>
<wgt id='1229'> +1.2877862e-12 </wgt>
<wgt id='1230'> +1.2809835e-12 </wgt>
<wgt id='1231'> +1.2815534e-12 </wgt>
<wgt id='1232'> +1.2893118e-12 </wgt>
<wgt id='1233'> +1.2880486e-12 </wgt>
<wgt id='1234'> +1.2883846e-12 </wgt>
<wgt id='1235'> +1.2800978e-12 </wgt>
<wgt id='1236'> +1.2831707e-12 </wgt>
<wgt id='1237'> +1.2860029e-12 </wgt>
<wgt id='1238'> +1.2907256e-12 </wgt>
<wgt id='1239'> +1.2927362e-12 </wgt>
<wgt id='1240'> +1.2944778e-12 </wgt>
<wgt id='1241'> +1.2836505e-12 </wgt>
<wgt id='1242'> +1.2806916e-12 </wgt>
<wgt id='1243'> +1.2865891e-12 </wgt>
<wgt id='1244'> +1.2755350e-12 </wgt>
<wgt id='1245'> +1.2896186e-12 </wgt>
<wgt id='1246'> +1.2836032e-12 </wgt>
<wgt id='1247'> +1.2837164e-12 </wgt>
<wgt id='1248'> +1.2835753e-12 </wgt>
<wgt id='1249'> +1.2837339e-12 </wgt>
<wgt id='1250'> +1.2868914e-12 </wgt>
<wgt id='1251'> +1.2814330e-12 </wgt>
<wgt id='1252'> +1.2806161e-12 </wgt>
<wgt id='1253'> +1.2860197e-12 </wgt>
<wgt id='1254'> +1.2754547e-12 </wgt>
<wgt id='1255'> +1.2885858e-12 </wgt>
<wgt id='1256'> +1.2876736e-12 </wgt>
<wgt id='1257'> +1.2735143e-12 </wgt>
<wgt id='1258'> +1.3064592e-12 </wgt>
<wgt id='1259'> +1.2632784e-12 </wgt>
<wgt id='1260'> +1.2874645e-12 </wgt>
<wgt id='1261'> +1.2793456e-12 </wgt>
<wgt id='1262'> +1.2828533e-12 </wgt>
<wgt id='1263'> +1.2836336e-12 </wgt>
<wgt id='1264'> +1.2867250e-12 </wgt>
<wgt id='1265'> +1.2819633e-12 </wgt>
<wgt id='1266'> +1.2770477e-12 </wgt>
<wgt id='1267'> +1.2891428e-12 </wgt>
<wgt id='1268'> +1.2846256e-12 </wgt>
<wgt id='1269'> +1.2855552e-12 </wgt>
<wgt id='1270'> +1.2768106e-12 </wgt>
<wgt id='1271'> +1.2764854e-12 </wgt>
<wgt id='1272'> +1.2826986e-12 </wgt>
<wgt id='1273'> +1.2832154e-12 </wgt>
<wgt id='1274'> +1.2862370e-12 </wgt>
<wgt id='1275'> +1.2785211e-12 </wgt>
<wgt id='1276'> +1.2818045e-12 </wgt>
<wgt id='1277'> +1.2843309e-12 </wgt>
<wgt id='1278'> +1.2815989e-12 </wgt>
<wgt id='1279'> +1.2777806e-12 </wgt>
<wgt id='1280'> +1.2833563e-12 </wgt>
<wgt id='1281'> +1.2840959e-12 </wgt>
<wgt id='1282'> +1.2836505e-12 </wgt>
<wgt id='1283'> +1.2748507e-12 </wgt>
<wgt id='1284'> +1.2781512e-12 </wgt>
<wgt id='1285'> +1.2811623e-12 </wgt>
<wgt id='1286'> +1.2861000e-12 </wgt>
<wgt id='1287'> +1.2880898e-12 </wgt>
<wgt id='1288'> +1.2897416e-12 </wgt>
<wgt id='1289'> +1.2946533e-12 </wgt>
<wgt id='1290'> +1.2927883e-12 </wgt>
<wgt id='1291'> +1.2965455e-12 </wgt>
<wgt id='1292'> +1.2881298e-12 </wgt>
<wgt id='1293'> +1.2992873e-12 </wgt>
<wgt id='1294'> +1.2917463e-12 </wgt>
<wgt id='1295'> +1.2974344e-12 </wgt>
<wgt id='1296'> +1.2913312e-12 </wgt>
<wgt id='1297'> +1.2985829e-12 </wgt>
<wgt id='1298'> +1.2968223e-12 </wgt>
<wgt id='1299'> +1.2917390e-12 </wgt>
<wgt id='1300'> +1.2964768e-12 </wgt>
<wgt id='1301'> +1.2909131e-12 </wgt>
<wgt id='1302'> +1.2927864e-12 </wgt>
<wgt id='1303'> +1.2971166e-12 </wgt>
<wgt id='1304'> +1.2924862e-12 </wgt>
<wgt id='1305'> +1.2960425e-12 </wgt>
<wgt id='1306'> +1.2928736e-12 </wgt>
<wgt id='1307'> +1.2966911e-12 </wgt>
<wgt id='1308'> +1.2963620e-12 </wgt>
<wgt id='1309'> +1.2931950e-12 </wgt>
<wgt id='1310'> +1.2966356e-12 </wgt>
<wgt id='1311'> +1.2926161e-12 </wgt>
<wgt id='1312'> +1.2957565e-12 </wgt>
<wgt id='1313'> +1.2936322e-12 </wgt>
<wgt id='1314'> +1.2979439e-12 </wgt>
<wgt id='1315'> +1.2873452e-12 </wgt>
<wgt id='1316'> +1.3001254e-12 </wgt>
<wgt id='1317'> +1.2943434e-12 </wgt>
<wgt id='1318'> +1.3056416e-12 </wgt>
<wgt id='1319'> +1.2816613e-12 </wgt>
<wgt id='1320'> +1.3102739e-12 </wgt>
<wgt id='1321'> +1.2822613e-12 </wgt>
<wgt id='1322'> +1.2929644e-12 </wgt>
<wgt id='1323'> +1.2963067e-12 </wgt>
<wgt id='1324'> +1.2938493e-12 </wgt>
<wgt id='1325'> +1.2995501e-12 </wgt>
<wgt id='1326'> +1.2930073e-12 </wgt>
<wgt id='1327'> +1.2974519e-12 </wgt>
<wgt id='1328'> +1.2947394e-12 </wgt>
<wgt id='1329'> +1.2943070e-12 </wgt>
<wgt id='1330'> +1.2758555e-12 </wgt>
<wgt id='1331'> +1.3109911e-12 </wgt>
<wgt id='1332'> +1.3169124e-12 </wgt>
<wgt id='1333'> +1.2777196e-12 </wgt>
<wgt id='1334'> +1.2883175e-12 </wgt>
<wgt id='1335'> +1.3110213e-12 </wgt>
<wgt id='1336'> +1.2898620e-12 </wgt>
<wgt id='1337'> +1.2894345e-12 </wgt>
<wgt id='1338'> +1.2909015e-12 </wgt>
<wgt id='1339'> +1.2953346e-12 </wgt>
<wgt id='1340'> +1.2769273e-12 </wgt>
<wgt id='1341'> +1.2753259e-12 </wgt>
<wgt id='1342'> +1.2786460e-12 </wgt>
<wgt id='1343'> +1.2702096e-12 </wgt>
<wgt id='1344'> +1.2814406e-12 </wgt>
<wgt id='1345'> +1.2742842e-12 </wgt>
<wgt id='1346'> +1.2794576e-12 </wgt>
<wgt id='1347'> +1.2737124e-12 </wgt>
<wgt id='1348'> +1.2804144e-12 </wgt>
<wgt id='1349'> +1.2788093e-12 </wgt>
<wgt id='1350'> +1.2750147e-12 </wgt>
<wgt id='1351'> +1.2786194e-12 </wgt>
<wgt id='1352'> +1.2731159e-12 </wgt>
<wgt id='1353'> +1.2746233e-12 </wgt>
<wgt id='1354'> +1.2810870e-12 </wgt>
<wgt id='1355'> +1.2751342e-12 </wgt>
<wgt id='1356'> +1.2778930e-12 </wgt>
<wgt id='1357'> +1.2755458e-12 </wgt>
<wgt id='1358'> +1.2786029e-12 </wgt>
<wgt id='1359'> +1.2795615e-12 </wgt>
<wgt id='1360'> +1.2746767e-12 </wgt>
<wgt id='1361'> +1.2785097e-12 </wgt>
<wgt id='1362'> +1.2749996e-12 </wgt>
<wgt id='1363'> +1.2779319e-12 </wgt>
<wgt id='1364'> +1.2766225e-12 </wgt>
<wgt id='1365'> +1.2671461e-12 </wgt>
<wgt id='1366'> +1.2830488e-12 </wgt>
<wgt id='1367'> +1.2821828e-12 </wgt>
<wgt id='1368'> +1.2764283e-12 </wgt>
<wgt id='1369'> +1.2859387e-12 </wgt>
<wgt id='1370'> +1.2661646e-12 </wgt>
<wgt id='1371'> +1.2882152e-12 </wgt>
<wgt id='1372'> +1.2638160e-12 </wgt>
<wgt id='1373'> +1.2724569e-12 </wgt>
<wgt id='1374'> +1.2805861e-12 </wgt>
<wgt id='1375'> +1.2762066e-12 </wgt>
<wgt id='1376'> +1.2817441e-12 </wgt>
<wgt id='1377'> +1.2757774e-12 </wgt>
<wgt id='1378'> +1.2797395e-12 </wgt>
<wgt id='1379'> +1.2767527e-12 </wgt>
<wgt id='1380'> +1.2769725e-12 </wgt>
<wgt id='1381'> +1.2581856e-12 </wgt>
<wgt id='1382'> +1.2913745e-12 </wgt>
<wgt id='1383'> +1.3003957e-12 </wgt>
<wgt id='1384'> +1.2588899e-12 </wgt>
<wgt id='1385'> +1.2708440e-12 </wgt>
<wgt id='1386'> +1.2919577e-12 </wgt>
<wgt id='1387'> +1.2710648e-12 </wgt>
<wgt id='1388'> +1.2706206e-12 </wgt>
<wgt id='1389'> +1.2706045e-12 </wgt>
<wgt id='1390'> +1.2781720e-12 </wgt>
<wgt id='1391'> +1.2464543e-12 </wgt>
<wgt id='1392'> +1.2216309e-12 </wgt>
<wgt id='1393'> +1.2304577e-12 </wgt>
<wgt id='1394'> +1.2388628e-12 </wgt>
<wgt id='1395'> +1.2552628e-12 </wgt>
<wgt id='1396'> +1.2475056e-12 </wgt>
<wgt id='1397'> +1.2103883e-12 </wgt>
<wgt id='1398'> +1.2185364e-12 </wgt>
<wgt id='1399'> +1.2254254e-12 </wgt>
<wgt id='1400'> +1.2323787e-12 </wgt>
<wgt id='1401'> +1.2400124e-12 </wgt>
<wgt id='1402'> +1.2546663e-12 </wgt>
<wgt id='1403'> +1.2614633e-12 </wgt>
<wgt id='1404'> +1.2678091e-12 </wgt>
<wgt id='1405'> +1.2475056e-12 </wgt>
<wgt id='1406'> +1.2438700e-12 </wgt>
<wgt id='1407'> +1.2460096e-12 </wgt>
<wgt id='1408'> +1.2489941e-12 </wgt>
<wgt id='1409'> +1.2509707e-12 </wgt>
<wgt id='1410'> +1.2532716e-12 </wgt>
<wgt id='1411'> +1.2511657e-12 </wgt>
<wgt id='1412'> +1.2559816e-12 </wgt>
<wgt id='1413'> +1.2566231e-12 </wgt>
<wgt id='1414'> +1.2499649e-12 </wgt>
<wgt id='1415'> +1.2447736e-12 </wgt>
<wgt id='1416'> +1.2567026e-12 </wgt>
<wgt id='1417'> +1.2469811e-12 </wgt>
<wgt id='1418'> +1.2595902e-12 </wgt>
<wgt id='1419'> +1.2538587e-12 </wgt>
<wgt id='1420'> +1.2526179e-12 </wgt>
<wgt id='1421'> +1.2455237e-12 </wgt>
<wgt id='1422'> +1.2565734e-12 </wgt>
<wgt id='1423'> +1.2529397e-12 </wgt>
<wgt id='1424'> +1.2535893e-12 </wgt>
<wgt id='1425'> +1.2489578e-12 </wgt>
<wgt id='1426'> +1.2579388e-12 </wgt>
<wgt id='1427'> +1.2529070e-12 </wgt>
<wgt id='1428'> +1.2533192e-12 </wgt>
<wgt id='1429'> +1.2510393e-12 </wgt>
<wgt id='1430'> +1.2562827e-12 </wgt>
<wgt id='1431'> +1.2530816e-12 </wgt>
<wgt id='1432'> +1.2533831e-12 </wgt>
<wgt id='1433'> +1.2541620e-12 </wgt>
<wgt id='1434'> +1.2518615e-12 </wgt>
<wgt id='1435'> +1.2539528e-12 </wgt>
<wgt id='1436'> +1.2517324e-12 </wgt>
<wgt id='1437'> +1.2582745e-12 </wgt>
<wgt id='1438'> +1.2522758e-12 </wgt>
<wgt id='1439'> +1.2459913e-12 </wgt>
<wgt id='1440'> +1.2715854e-12 </wgt>
<wgt id='1441'> +1.2581288e-12 </wgt>
<wgt id='1442'> +1.2437388e-12 </wgt>
<wgt id='1443'> +1.2516011e-12 </wgt>
<wgt id='1444'> +1.2568527e-12 </wgt>
<wgt id='1445'> +1.2611489e-12 </wgt>
<wgt id='1446'> +1.2506356e-12 </wgt>
<wgt id='1447'> +1.2540828e-12 </wgt>
<wgt id='1448'> +1.2536701e-12 </wgt>
<wgt id='1449'> +1.2538739e-12 </wgt>
<wgt id='1450'> +1.2525899e-12 </wgt>
<wgt id='1451'> +1.2629890e-12 </wgt>
<wgt id='1452'> +1.2291521e-12 </wgt>
<wgt id='1453'> +1.2556093e-12 </wgt>
<wgt id='1454'> +1.2365346e-12 </wgt>
<wgt id='1455'> +1.2402532e-12 </wgt>
<wgt id='1456'> +1.2577778e-12 </wgt>
<wgt id='1457'> +1.2618777e-12 </wgt>
<wgt id='1458'> +1.2489274e-12 </wgt>
<wgt id='1459'> +1.2563600e-12 </wgt>
<wgt id='1460'> +1.2459439e-12 </wgt>
<wgt id='1461'> +1.2532716e-12 </wgt>
<wgt id='1462'> +1.2470736e-12 </wgt>
<wgt id='1463'> +1.2631144e-12 </wgt>
<wgt id='1464'> +1.2548919e-12 </wgt>
<wgt id='1465'> +1.2235588e-12 </wgt>
<wgt id='1466'> +1.2306323e-12 </wgt>
<wgt id='1467'> +1.2378118e-12 </wgt>
<wgt id='1468'> +1.2424067e-12 </wgt>
<wgt id='1469'> +1.2491799e-12 </wgt>
<wgt id='1470'> +1.2610081e-12 </wgt>
<wgt id='1471'> +1.2650003e-12 </wgt>
<wgt id='1472'> +1.2706605e-12 </wgt>
<wgt id='1473'> +1.2548919e-12 </wgt>
<wgt id='1474'> +1.2507903e-12 </wgt>
<wgt id='1475'> +1.2519179e-12 </wgt>
<wgt id='1476'> +1.2567363e-12 </wgt>
<wgt id='1477'> +1.2585117e-12 </wgt>
<wgt id='1478'> +1.2363666e-12 </wgt>
<wgt id='1479'> +1.2347394e-12 </wgt>
<wgt id='1480'> +1.2384943e-12 </wgt>
<wgt id='1481'> +1.2321921e-12 </wgt>
<wgt id='1482'> +1.2352253e-12 </wgt>
<wgt id='1483'> +1.2153279e-12 </wgt>
<wgt id='1484'> +1.2336815e-12 </wgt>
<wgt id='1485'> +1.2384481e-12 </wgt>
<wgt id='1486'> +1.2372140e-12 </wgt>
<wgt id='1487'> +1.2382568e-12 </wgt>
<wgt id='1488'> +1.2338731e-12 </wgt>
<wgt id='1489'> +1.2532357e-12 </wgt>
<wgt id='1490'> +1.2328433e-12 </wgt>
<wgt id='1491'> +1.2378778e-12 </wgt>
<wgt id='1492'> +1.2377017e-12 </wgt>
<wgt id='1493'> +1.2212205e-12 </wgt>
<wgt id='1494'> +1.2478244e-12 </wgt>
<wgt id='1495'> +1.2292645e-12 </wgt>
<wgt id='1496'> +1.2359320e-12 </wgt>
<wgt id='1497'> +1.2337420e-12 </wgt>
<wgt id='1498'> +1.2353683e-12 </wgt>
<wgt id='1499'> +1.2374988e-12 </wgt>
<wgt id='1500'> +1.2374795e-12 </wgt>
<wgt id='1501'> +1.2355931e-12 </wgt>
<wgt id='1502'> +1.2374437e-12 </wgt>
<wgt id='1503'> +1.2349390e-12 </wgt>
<wgt id='1504'> +1.2297495e-12 </wgt>
<wgt id='1505'> +1.2360066e-12 </wgt>
<wgt id='1506'> +1.2361808e-12 </wgt>
<wgt id='1507'> +1.2344410e-12 </wgt>
<wgt id='1508'> +1.2417568e-12 </wgt>
<wgt id='1509'> +1.3226412e-12 </wgt>
<wgt id='1510'> +1.3218887e-12 </wgt>
<wgt id='1511'> +1.3268662e-12 </wgt>
<wgt id='1512'> +1.3248595e-12 </wgt>
<wgt id='1513'> +1.3276266e-12 </wgt>
<wgt id='1514'> +1.3218979e-12 </wgt>
<wgt id='1515'> +1.3193090e-12 </wgt>
<wgt id='1516'> +1.3220025e-12 </wgt>
<wgt id='1517'> +1.3235516e-12 </wgt>
<wgt id='1518'> +1.3280396e-12 </wgt>
<wgt id='1519'> +1.3155878e-12 </wgt>
<wgt id='1520'> +1.3242886e-12 </wgt>
<wgt id='1521'> +1.3320451e-12 </wgt>
<wgt id='1522'> +1.3262878e-12 </wgt>
<wgt id='1523'> +1.3344871e-12 </wgt>
<wgt id='1524'> +1.3269053e-12 </wgt>
<wgt id='1525'> +1.3298904e-12 </wgt>
<wgt id='1526'> +1.3182879e-12 </wgt>
<wgt id='1527'> +1.3198783e-12 </wgt>
<wgt id='1528'> +1.3237047e-12 </wgt>
<wgt id='1529'> +1.3238344e-12 </wgt>
<wgt id='1530'> +1.3300111e-12 </wgt>
<wgt id='1531'> +1.3253616e-12 </wgt>
<wgt id='1532'> +1.3155359e-12 </wgt>
<wgt id='1533'> +1.3205138e-12 </wgt>
<wgt id='1534'> +1.3265492e-12 </wgt>
<wgt id='1535'> +1.3153745e-12 </wgt>
<wgt id='1536'> +1.3228036e-12 </wgt>
<wgt id='1537'> +1.3244646e-12 </wgt>
<wgt id='1538'> +1.3183716e-12 </wgt>
<wgt id='1539'> +1.3115541e-12 </wgt>
<wgt id='1540'> +1.3256156e-12 </wgt>
<wgt id='1541'> +1.3248492e-12 </wgt>
<wgt id='1542'> +1.3268325e-12 </wgt>
<wgt id='1543'> +1.3230250e-12 </wgt>
<wgt id='1544'> +1.3182065e-12 </wgt>
<wgt id='1545'> +1.3232513e-12 </wgt>
<wgt id='1546'> +1.3243695e-12 </wgt>
<wgt id='1547'> +1.3227357e-12 </wgt>
<wgt id='1548'> +1.3213960e-12 </wgt>
<wgt id='1549'> +1.3212374e-12 </wgt>
<wgt id='1550'> +1.3248401e-12 </wgt>
<wgt id='1551'> +1.3197063e-12 </wgt>
<wgt id='1552'> +1.3216018e-12 </wgt>
<wgt id='1553'> +1.3220780e-12 </wgt>
<wgt id='1554'> +1.3282569e-12 </wgt>
<wgt id='1555'> +1.3268186e-12 </wgt>
<wgt id='1556'> +1.3221753e-12 </wgt>
<wgt id='1557'> +1.3246222e-12 </wgt>
<wgt id='1558'> +1.3197418e-12 </wgt>
<wgt id='1559'> +1.3209570e-12 </wgt>
<wgt id='1560'> +1.3239510e-12 </wgt>
<wgt id='1561'> +1.3209608e-12 </wgt>
<wgt id='1562'> +1.3226891e-12 </wgt>
<wgt id='1563'> +1.3222975e-12 </wgt>
<wgt id='1564'> +1.3211888e-12 </wgt>
<wgt id='1565'> +1.3229788e-12 </wgt>
<wgt id='1566'> +1.3236874e-12 </wgt>
<wgt id='1567'> +1.3236415e-12 </wgt>
<wgt id='1568'> +1.3205162e-12 </wgt>
<wgt id='1569'> +1.3242629e-12 </wgt>
<wgt id='1570'> +1.3208826e-12 </wgt>
<wgt id='1571'> +1.3231398e-12 </wgt>
<wgt id='1572'> +1.3221348e-12 </wgt>
<wgt id='1573'> +1.3232389e-12 </wgt>
<wgt id='1574'> +1.3220092e-12 </wgt>
<wgt id='1575'> +1.3221560e-12 </wgt>
<wgt id='1576'> +1.3225026e-12 </wgt>
<wgt id='1577'> +1.3233017e-12 </wgt>
<wgt id='1578'> +1.3232391e-12 </wgt>
<wgt id='1579'> +1.3220558e-12 </wgt>
<wgt id='1580'> +1.3225700e-12 </wgt>
<wgt id='1581'> +1.3232210e-12 </wgt>
<wgt id='1582'> +1.3236570e-12 </wgt>
<wgt id='1583'> +1.3221388e-12 </wgt>
<wgt id='1584'> +1.3215828e-12 </wgt>
<wgt id='1585'> +1.3234302e-12 </wgt>
<wgt id='1586'> +1.3220112e-12 </wgt>
<wgt id='1587'> +1.3229740e-12 </wgt>
<wgt id='1588'> +1.3223991e-12 </wgt>
<wgt id='1589'> +1.3219744e-12 </wgt>
<wgt id='1590'> +1.3223324e-12 </wgt>
<wgt id='1591'> +1.3222982e-12 </wgt>
<wgt id='1592'> +1.3219152e-12 </wgt>
<wgt id='1593'> +1.3223342e-12 </wgt>
<wgt id='1594'> +1.3234534e-12 </wgt>
<wgt id='1595'> +1.3239629e-12 </wgt>
<wgt id='1596'> +1.3236958e-12 </wgt>
<wgt id='1597'> +1.3230726e-12 </wgt>
<wgt id='1598'> +1.3231154e-12 </wgt>
<wgt id='1599'> +1.3226853e-12 </wgt>
<wgt id='1600'> +1.3248739e-12 </wgt>
<wgt id='1601'> +1.3230839e-12 </wgt>
<wgt id='1602'> +1.3226891e-12 </wgt>
<wgt id='1603'> +1.3222284e-12 </wgt>
<wgt id='1604'> +1.3228329e-12 </wgt>
<wgt id='1605'> +1.3219806e-12 </wgt>
<wgt id='1606'> +1.3227967e-12 </wgt>
<wgt id='1607'> +1.3233420e-12 </wgt>
<wgt id='1608'> +1.3223807e-12 </wgt>
<wgt id='1609'> +1.3221644e-12 </wgt>
<wgt id='1610'> +1.3149824e-12 </wgt>
<wgt id='1611'> +1.3309552e-12 </wgt>
<wgt id='1612'> +1.5200147e-12 </wgt>
<wgt id='1613'> +1.5048148e-12 </wgt>
<wgt id='1614'> +1.5309382e-12 </wgt>
<wgt id='1615'> +1.4858554e-12 </wgt>
<wgt id='1616'> +1.5574842e-12 </wgt>
<wgt id='1617'> +1.5599797e-12 </wgt>
<wgt id='1618'> +1.5286249e-12 </wgt>
<wgt id='1619'> +1.5410570e-12 </wgt>
<wgt id='1620'> +1.4919575e-12 </wgt>
<wgt id='1621'> +1.5185902e-12 </wgt>
<wgt id='1622'> +1.5449088e-12 </wgt>
<wgt id='1623'> +1.5156076e-12 </wgt>
<wgt id='1624'> +1.4913515e-12 </wgt>
<wgt id='1625'> +1.5001333e-12 </wgt>
<wgt id='1626'> +1.4985342e-12 </wgt>
<wgt id='1627'> +1.4786182e-12 </wgt>
<wgt id='1628'> +1.4973863e-12 </wgt>
<wgt id='1629'> +1.6212508e-12 </wgt>
<wgt id='1630'> +1.5367571e-12 </wgt>
<wgt id='1631'> +1.4989699e-12 </wgt>
<wgt id='1632'> +1.4264116e-12 </wgt>
<wgt id='1633'> +1.4629968e-12 </wgt>
<wgt id='1634'> +1.5492852e-12 </wgt>
<wgt id='1635'> +1.5287531e-12 </wgt>
<wgt id='1636'> +1.5485415e-12 </wgt>
<wgt id='1637'> +1.4818450e-12 </wgt>
<wgt id='1638'> +1.5103580e-12 </wgt>
<wgt id='1639'> +1.5289937e-12 </wgt>
<wgt id='1640'> +1.4863811e-12 </wgt>
<wgt id='1641'> +1.5033564e-12 </wgt>
<wgt id='1642'> +1.4986504e-12 </wgt>
<wgt id='1643'> +1.5697944e-12 </wgt>
<wgt id='1644'> +1.4532546e-12 </wgt>
<wgt id='1645'> +1.5046231e-12 </wgt>
<wgt id='1646'> +1.5139157e-12 </wgt>
<wgt id='1647'> +1.5069262e-12 </wgt>
<wgt id='1648'> +1.5024766e-12 </wgt>
<wgt id='1649'> +1.5667927e-12 </wgt>
<wgt id='1650'> +1.5108437e-12 </wgt>
<wgt id='1651'> +1.4902060e-12 </wgt>
<wgt id='1652'> +1.5048208e-12 </wgt>
<wgt id='1653'> +1.5820820e-12 </wgt>
<wgt id='1654'> +1.5270599e-12 </wgt>
<wgt id='1655'> +1.4970793e-12 </wgt>
<wgt id='1656'> +1.4534836e-12 </wgt>
<wgt id='1657'> +1.4928883e-12 </wgt>
<wgt id='1658'> +1.4699484e-12 </wgt>
<wgt id='1659'> +1.4913515e-12 </wgt>
<wgt id='1660'> +1.5586315e-12 </wgt>
<wgt id='1661'> +1.5220707e-12 </wgt>
<wgt id='1662'> +1.5117985e-12 </wgt>
<wgt id='1663'> +1.5550241e-12 </wgt>
<wgt id='1664'> +1.4954833e-12 </wgt>
<wgt id='1665'> +1.4382026e-12 </wgt>
<wgt id='1666'> +1.5346886e-12 </wgt>
<wgt id='1667'> +1.5436527e-12 </wgt>
<wgt id='1668'> +1.5588070e-12 </wgt>
<wgt id='1669'> +1.4749928e-12 </wgt>
<wgt id='1670'> +1.5275956e-12 </wgt>
<wgt id='1671'> +1.4909713e-12 </wgt>
<wgt id='1672'> +1.5259070e-12 </wgt>
<wgt id='1673'> +1.5891628e-12 </wgt>
<wgt id='1674'> +1.5190603e-12 </wgt>
<wgt id='1675'> +1.5429729e-12 </wgt>
<wgt id='1676'> +1.5658843e-12 </wgt>
<wgt id='1677'> +1.5846040e-12 </wgt>
<wgt id='1678'> +1.4810090e-12 </wgt>
<wgt id='1679'> +1.5905731e-12 </wgt>
<wgt id='1680'> +1.5117054e-12 </wgt>
<wgt id='1681'> +1.5525252e-12 </wgt>
<wgt id='1682'> +1.5243723e-12 </wgt>
<wgt id='1683'> +1.5165253e-12 </wgt>
<wgt id='1684'> +1.4890909e-12 </wgt>
<wgt id='1685'> +1.4964222e-12 </wgt>
<wgt id='1686'> +1.5061515e-12 </wgt>
<wgt id='1687'> +1.5804868e-12 </wgt>
<wgt id='1688'> +1.5077032e-12 </wgt>
<wgt id='1689'> +1.5081951e-12 </wgt>
<wgt id='1690'> +1.5162729e-12 </wgt>
<wgt id='1691'> +1.5263807e-12 </wgt>
<wgt id='1692'> +1.5812455e-12 </wgt>
<wgt id='1693'> +1.5651785e-12 </wgt>
<wgt id='1694'> +1.4816211e-12 </wgt>
<wgt id='1695'> +1.5011066e-12 </wgt>
<wgt id='1696'> +1.5515856e-12 </wgt>
<wgt id='1697'> +1.5708325e-12 </wgt>
<wgt id='1698'> +1.4988573e-12 </wgt>
<wgt id='1699'> +1.5406977e-12 </wgt>
<wgt id='1700'> +1.4898393e-12 </wgt>
<wgt id='1701'> +1.5457107e-12 </wgt>
<wgt id='1702'> +1.5541878e-12 </wgt>
<wgt id='1703'> +1.5475223e-12 </wgt>
<wgt id='1704'> +1.4821902e-12 </wgt>
<wgt id='1705'> +1.4736871e-12 </wgt>
<wgt id='1706'> +1.5307961e-12 </wgt>
<wgt id='1707'> +1.5224294e-12 </wgt>
<wgt id='1708'> +1.5320528e-12 </wgt>
<wgt id='1709'> +1.4979514e-12 </wgt>
<wgt id='1710'> +1.5175347e-12 </wgt>
<wgt id='1711'> +1.5627657e-12 </wgt>
<wgt id='1712'> +1.5359893e-12 </wgt>
<wgt id='1713'> +1.2219223e-12 </wgt>
<wgt id='1714'> +1.1866662e-12 </wgt>
<wgt id='1715'> +1.2315943e-12 </wgt>
<wgt id='1716'> +1.2691370e-12 </wgt>
<wgt id='1717'> +1.2467725e-12 </wgt>
<wgt id='1718'> +1.2330040e-12 </wgt>
<wgt id='1719'> +1.2216960e-12 </wgt>
<wgt id='1720'> +1.2421709e-12 </wgt>
<wgt id='1721'> +1.2030836e-12 </wgt>
<wgt id='1722'> +1.2222104e-12 </wgt>
<wgt id='1723'> +1.1706127e-12 </wgt>
<wgt id='1724'> +1.1818680e-12 </wgt>
<wgt id='1725'> +1.2410545e-12 </wgt>
<wgt id='1726'> +1.2523477e-12 </wgt>
<wgt id='1727'> +1.2099325e-12 </wgt>
<wgt id='1728'> +1.2208396e-12 </wgt>
<wgt id='1729'> +1.2189062e-12 </wgt>
<wgt id='1730'> +1.1958283e-12 </wgt>
<wgt id='1731'> +1.1816277e-12 </wgt>
<wgt id='1732'> +1.2028052e-12 </wgt>
<wgt id='1733'> +1.2297031e-12 </wgt>
<wgt id='1734'> +1.2566408e-12 </wgt>
<wgt id='1735'> +1.2143723e-12 </wgt>
<wgt id='1736'> +1.2952843e-12 </wgt>
<wgt id='1737'> +1.2671275e-12 </wgt>
<wgt id='1738'> +1.2405260e-12 </wgt>
<wgt id='1739'> +1.2185566e-12 </wgt>
<wgt id='1740'> +1.2008119e-12 </wgt>
<wgt id='1741'> +1.2023891e-12 </wgt>
<wgt id='1742'> +1.2248474e-12 </wgt>
<wgt id='1743'> +1.2434135e-12 </wgt>
<wgt id='1744'> +1.2562045e-12 </wgt>
<wgt id='1745'> +1.1799847e-12 </wgt>
<wgt id='1746'> +1.2261278e-12 </wgt>
<wgt id='1747'> +1.2423511e-12 </wgt>
<wgt id='1748'> +1.2455826e-12 </wgt>
<wgt id='1749'> +1.2298870e-12 </wgt>
<wgt id='1750'> +1.2170046e-12 </wgt>
<wgt id='1751'> +1.1489626e-12 </wgt>
<wgt id='1752'> +1.2092424e-12 </wgt>
<wgt id='1753'> +1.2490710e-12 </wgt>
<wgt id='1754'> +1.2024431e-12 </wgt>
<wgt id='1755'> +1.2224358e-12 </wgt>
<wgt id='1756'> +1.2442828e-12 </wgt>
<wgt id='1757'> +1.2078022e-12 </wgt>
<wgt id='1758'> +1.2479782e-12 </wgt>
<wgt id='1759'> +1.2116909e-12 </wgt>
<wgt id='1760'> +1.1650695e-12 </wgt>
<wgt id='1761'> +1.2047801e-12 </wgt>
<wgt id='1762'> +1.2427025e-12 </wgt>
<wgt id='1763'> +1.2584227e-12 </wgt>
<wgt id='1764'> +1.2175240e-12 </wgt>
<wgt id='1765'> +1.2353024e-12 </wgt>
<wgt id='1766'> +1.2226267e-12 </wgt>
<wgt id='1767'> +1.2370905e-12 </wgt>
<wgt id='1768'> +1.2300594e-12 </wgt>
<wgt id='1769'> +1.1964005e-12 </wgt>
<wgt id='1770'> +1.2625682e-12 </wgt>
<wgt id='1771'> +1.2428127e-12 </wgt>
<wgt id='1772'> +1.2376541e-12 </wgt>
<wgt id='1773'> +1.2152888e-12 </wgt>
<wgt id='1774'> +1.2228951e-12 </wgt>
<wgt id='1775'> +1.2265576e-12 </wgt>
<wgt id='1776'> +1.2017454e-12 </wgt>
<wgt id='1777'> +1.1550776e-12 </wgt>
<wgt id='1778'> +1.2036141e-12 </wgt>
<wgt id='1779'> +1.2534169e-12 </wgt>
<wgt id='1780'> +1.2412756e-12 </wgt>
<wgt id='1781'> +1.2076606e-12 </wgt>
<wgt id='1782'> +1.1686675e-12 </wgt>
<wgt id='1783'> +1.2261000e-12 </wgt>
<wgt id='1784'> +1.2320145e-12 </wgt>
<wgt id='1785'> +1.1849727e-12 </wgt>
<wgt id='1786'> +1.1590326e-12 </wgt>
<wgt id='1787'> +1.2798993e-12 </wgt>
<wgt id='1788'> +1.2004063e-12 </wgt>
<wgt id='1789'> +1.2037074e-12 </wgt>
<wgt id='1790'> +1.2461211e-12 </wgt>
<wgt id='1791'> +1.2257805e-12 </wgt>
<wgt id='1792'> +1.1856160e-12 </wgt>
<wgt id='1793'> +1.2604232e-12 </wgt>
<wgt id='1794'> +1.2314224e-12 </wgt>
<wgt id='1795'> +1.2446636e-12 </wgt>
<wgt id='1796'> +1.2038713e-12 </wgt>
<wgt id='1797'> +1.2404787e-12 </wgt>
<wgt id='1798'> +1.2077954e-12 </wgt>
<wgt id='1799'> +1.2112921e-12 </wgt>
<wgt id='1800'> +1.2230828e-12 </wgt>
<wgt id='1801'> +1.2345812e-12 </wgt>
<wgt id='1802'> +1.2147247e-12 </wgt>
<wgt id='1803'> +1.2448746e-12 </wgt>
<wgt id='1804'> +1.1918180e-12 </wgt>
<wgt id='1805'> +1.2325524e-12 </wgt>
<wgt id='1806'> +1.2131970e-12 </wgt>
<wgt id='1807'> +1.2178877e-12 </wgt>
<wgt id='1808'> +1.2223966e-12 </wgt>
<wgt id='1809'> +1.1984541e-12 </wgt>
<wgt id='1810'> +1.2209995e-12 </wgt>
<wgt id='1811'> +1.2558897e-12 </wgt>
<wgt id='1812'> +1.2455929e-12 </wgt>
<wgt id='1813'> +1.2208017e-12 </wgt>
<wgt id='1814'> +1.3729480e-12 </wgt>
<wgt id='1815'> +1.5321728e-12 </wgt>
<wgt id='1816'> +1.2219223e-12 </wgt>
<wgt id='1817'> +1.1866662e-12 </wgt>
<wgt id='1818'> +1.2315943e-12 </wgt>
<wgt id='1819'> +1.2691370e-12 </wgt>
<wgt id='1820'> +1.2467725e-12 </wgt>
<wgt id='1821'> +1.2330040e-12 </wgt>
<wgt id='1822'> +1.2216960e-12 </wgt>
<wgt id='1823'> +1.2421709e-12 </wgt>
<wgt id='1824'> +1.2030836e-12 </wgt>
<wgt id='1825'> +1.2222104e-12 </wgt>
<wgt id='1826'> +1.1706127e-12 </wgt>
<wgt id='1827'> +1.1818680e-12 </wgt>
<wgt id='1828'> +1.2410545e-12 </wgt>
<wgt id='1829'> +1.2523477e-12 </wgt>
<wgt id='1830'> +1.2099325e-12 </wgt>
<wgt id='1831'> +1.2208396e-12 </wgt>
<wgt id='1832'> +1.2189062e-12 </wgt>
<wgt id='1833'> +1.1958283e-12 </wgt>
<wgt id='1834'> +1.1816277e-12 </wgt>
<wgt id='1835'> +1.2028052e-12 </wgt>
<wgt id='1836'> +1.2297031e-12 </wgt>
<wgt id='1837'> +1.2566408e-12 </wgt>
<wgt id='1838'> +1.2143723e-12 </wgt>
<wgt id='1839'> +1.2952843e-12 </wgt>
<wgt id='1840'> +1.2671275e-12 </wgt>
<wgt id='1841'> +1.2405260e-12 </wgt>
<wgt id='1842'> +1.2185566e-12 </wgt>
<wgt id='1843'> +1.2008119e-12 </wgt>
<wgt id='1844'> +1.2023891e-12 </wgt>
<wgt id='1845'> +1.2248474e-12 </wgt>
<wgt id='1846'> +1.2434135e-12 </wgt>
<wgt id='1847'> +1.2562045e-12 </wgt>
<wgt id='1848'> +1.1799847e-12 </wgt>
<wgt id='1849'> +1.2261278e-12 </wgt>
<wgt id='1850'> +1.2423511e-12 </wgt>
<wgt id='1851'> +1.2455826e-12 </wgt>
<wgt id='1852'> +1.2298870e-12 </wgt>
<wgt id='1853'> +1.2170046e-12 </wgt>
<wgt id='1854'> +1.1489626e-12 </wgt>
<wgt id='1855'> +1.2092424e-12 </wgt>
<wgt id='1856'> +1.2490710e-12 </wgt>
<wgt id='1857'> +1.2024431e-12 </wgt>
<wgt id='1858'> +1.2224358e-12 </wgt>
<wgt id='1859'> +1.2442828e-12 </wgt>
<wgt id='1860'> +1.2078022e-12 </wgt>
<wgt id='1861'> +1.2479782e-12 </wgt>
<wgt id='1862'> +1.2116909e-12 </wgt>
<wgt id='1863'> +1.1650695e-12 </wgt>
<wgt id='1864'> +1.2047801e-12 </wgt>
<wgt id='1865'> +1.2427025e-12 </wgt>
<wgt id='1866'> +1.2584227e-12 </wgt>
<wgt id='1867'> +1.2175240e-12 </wgt>
<wgt id='1868'> +1.2353024e-12 </wgt>
<wgt id='1869'> +1.2226267e-12 </wgt>
<wgt id='1870'> +1.2370905e-12 </wgt>
<wgt id='1871'> +1.2300594e-12 </wgt>
<wgt id='1872'> +1.1964005e-12 </wgt>
<wgt id='1873'> +1.2625682e-12 </wgt>
<wgt id='1874'> +1.2428127e-12 </wgt>
<wgt id='1875'> +1.2376541e-12 </wgt>
<wgt id='1876'> +1.2152888e-12 </wgt>
<wgt id='1877'> +1.2228951e-12 </wgt>
<wgt id='1878'> +1.2265576e-12 </wgt>
<wgt id='1879'> +1.2017454e-12 </wgt>
<wgt id='1880'> +1.1550776e-12 </wgt>
<wgt id='1881'> +1.2036141e-12 </wgt>
<wgt id='1882'> +1.2534169e-12 </wgt>
<wgt id='1883'> +1.2412756e-12 </wgt>
<wgt id='1884'> +1.2076606e-12 </wgt>
<wgt id='1885'> +1.1686675e-12 </wgt>
<wgt id='1886'> +1.2261000e-12 </wgt>
<wgt id='1887'> +1.2320145e-12 </wgt>
<wgt id='1888'> +1.1849727e-12 </wgt>
<wgt id='1889'> +1.1590326e-12 </wgt>
<wgt id='1890'> +1.2798993e-12 </wgt>
<wgt id='1891'> +1.2004063e-12 </wgt>
<wgt id='1892'> +1.2037074e-12 </wgt>
<wgt id='1893'> +1.2461211e-12 </wgt>
<wgt id='1894'> +1.2257805e-12 </wgt>
<wgt id='1895'> +1.1856160e-12 </wgt>
<wgt id='1896'> +1.2604232e-12 </wgt>
<wgt id='1897'> +1.2314224e-12 </wgt>
<wgt id='1898'> +1.2446636e-12 </wgt>
<wgt id='1899'> +1.2038713e-12 </wgt>
<wgt id='1900'> +1.2404787e-12 </wgt>
<wgt id='1901'> +1.2077954e-12 </wgt>
<wgt id='1902'> +1.2112921e-12 </wgt>
<wgt id='1903'> +1.2230828e-12 </wgt>
<wgt id='1904'> +1.2345812e-12 </wgt>
<wgt id='1905'> +1.2147247e-12 </wgt>
<wgt id='1906'> +1.2448746e-12 </wgt>
<wgt id='1907'> +1.1918180e-12 </wgt>
<wgt id='1908'> +1.2325524e-12 </wgt>
<wgt id='1909'> +1.2131970e-12 </wgt>
<wgt id='1910'> +1.2178877e-12 </wgt>
<wgt id='1911'> +1.2223966e-12 </wgt>
<wgt id='1912'> +1.1984541e-12 </wgt>
<wgt id='1913'> +1.2209995e-12 </wgt>
<wgt id='1914'> +1.2558897e-12 </wgt>
<wgt id='1915'> +1.2455929e-12 </wgt>
<wgt id='1916'> +1.2208017e-12 </wgt>
<wgt id='1917'> +1.2146127e-12 </wgt>
<wgt id='1918'> +1.2266076e-12 </wgt>
<wgt id='1919'> +1.2543914e-12 </wgt>
</rwgt>
</event>
<event>
 9      1 +1.5607000e-12 6.26763100e+01 7.81860800e-03 1.25862500e-01
       21 -1    0    0  501  502 +0.0000000000e+00 +0.0000000000e+00 +6.1588503120e+00 6.1588503120e+00 0.0000000000e+00 0.0000e+00 1.0000e+00
       -2 -1    0    0    0  501 -0.0000000000e+00 -0.0000000000e+00 -1.5945833356e+02 1.5945833356e+02 0.0000000000e+00 0.0000e+00 1.0000e+00
     1023  2    1    2    0    0 +2.7932361840e+01 +8.1675487808e+00 -9.4480479287e+01 9.9992486402e+01 1.5000355981e+01 0.0000e+00 0.0000e+00
  1000023  2    3    3    0    0 +1.1048282014e+01 -6.4692589165e-01 -2.6934333541e+01 2.9634481026e+01 5.5010084387e+00 0.0000e+00 0.0000e+00
       -2  1    1    2    0  502 -2.7932361840e+01 -8.1675487808e+00 -5.8819003965e+01 6.5624697474e+01 0.0000000000e+00 0.0000e+00 1.0000e+00
  1000022  1    4    4    0    0 +9.7923697322e+00 -3.1484163507e-01 -2.4351083111e+01 2.6720121237e+01 5.0000000000e+00 0.0000e+00 1.0000e+00
      -11  1    4    4    0    0 +2.8131458099e-02 -6.3264656965e-02 -3.0148130627e-01 3.0932997738e-01 5.1100000000e-04 0.0000e+00 -1.0000e+00
       11  1    4    4    0    0 +1.2277808237e+00 -2.6881959961e-01 -2.2817691230e+00 2.6050298118e+00 5.1100000000e-04 0.0000e+00 1.0000e+00
  1000022  1    3    3    0    0 +1.6884079826e+01 +8.8144746724e+00 -6.7546145746e+01 7.0358005376e+01 5.0000000000e+00 0.0000e+00 -1.0000e+00
<mgrwt>
<rscale>  1 0.62676312E+02</rscale>
<asrwt>0</asrwt>
<pdfrwt beam="1">  1       21 0.94751564E-03 0.62676312E+02</pdfrwt>
<pdfrwt beam="2">  1       -2 0.24532046E-01 0.62676312E+02</pdfrwt>
<totfact> 0.46293232E+06</totfact>
</mgrwt>
<rwgt>
<wgt id='1001'> +1.5607000e-12 </wgt>
<wgt id='1002'> +1.5571824e-12 </wgt>
<wgt id='1003'> +1.5590286e-12 </wgt>
<wgt id='1004'> +1.4893019e-12 </wgt>
<wgt id='1005'> +1.5607000e-12 </wgt>
<wgt id='1006'> +1.3898313e-12 </wgt>
<wgt id='1007'> +1.3851961e-12 </wgt>
<wgt id='1008'> +1.3876197e-12 </wgt>
<wgt id='1009'> +1.3038234e-12 </wgt>
<wgt id='1010'> +1.3898313e-12 </wgt>
<wgt id='1011'> +1.7814975e-12 </wgt>
<wgt id='1012'> +1.7800174e-12 </wgt>
<wgt id='1013'> +1.7808119e-12 </wgt>
<wgt id='1014'> +1.7393298e-12 </wgt>
<wgt id='1015'> +1.7814975e-12 </wgt>
<wgt id='1016'> +1.7844249e-12 </wgt>
<wgt id='1017'> +1.7850795e-12 </wgt>
<wgt id='1018'> +1.7847542e-12 </wgt>
<wgt id='1019'> +1.7808119e-12 </wgt>
<wgt id='1020'> +1.7844249e-12 </wgt>
<wgt id='1021'> +1.5890623e-12 </wgt>
<wgt id='1022'> +1.5879226e-12 </wgt>
<wgt id='1023'> +1.5885277e-12 </wgt>
<wgt id='1024'> +1.5590286e-12 </wgt>
<wgt id='1025'> +1.5890623e-12 </wgt>
<wgt id='1026'> +2.0368736e-12 </wgt>
<wgt id='1027'> +2.0405269e-12 </wgt>
<wgt id='1028'> +2.0386487e-12 </wgt>
<wgt id='1029'> +2.0797793e-12 </wgt>
<wgt id='1030'> +2.0368736e-12 </wgt>
<wgt id='1031'> +1.3077753e-12 </wgt>
<wgt id='1032'> +1.2994958e-12 </wgt>
<wgt id='1033'> +1.3038234e-12 </wgt>
<wgt id='1034'> +1.1636520e-12 </wgt>
<wgt id='1035'> +1.3077753e-12 </wgt>
<wgt id='1036'> +1.1645973e-12 </wgt>
<wgt id='1037'> +1.1559702e-12 </wgt>
<wgt id='1038'> +1.1604733e-12 </wgt>
<wgt id='1039'> +1.0187301e-12 </wgt>
<wgt id='1040'> +1.1645973e-12 </wgt>
<wgt id='1041'> +1.4927907e-12 </wgt>
<wgt id='1042'> +1.4854554e-12 </wgt>
<wgt id='1043'> +1.4893019e-12 </wgt>
<wgt id='1044'> +1.3590090e-12 </wgt>
<wgt id='1045'> +1.4927907e-12 </wgt>
<wgt id='1046'> +1.5607000e-12 </wgt>
<wgt id='1047'> +1.7344442e-12 </wgt>
<wgt id='1048'> +1.5835226e-12 </wgt>
<wgt id='1049'> +1.5879065e-12 </wgt>
<wgt id='1050'> +1.5790414e-12 </wgt>
<wgt id='1051'> +1.4878954e-12 </wgt>
<wgt id='1052'> +1.5676588e-12 </wgt>
<wgt id='1053'> +1.5605059e-12 </wgt>
<wgt id='1054'> +1.5235559e-12 </wgt>
<wgt id='1055'> +1.5122469e-12 </wgt>
<wgt id='1056'> +1.5267771e-12 </wgt>
<wgt id='1057'> +1.5631773e-12 </wgt>
<wgt id='1058'> +1.5084742e-12 </wgt>
<wgt id='1059'> +1.5372128e-12 </wgt>
<wgt id='1060'> +1.5712845e-12 </wgt>
<wgt id='1061'> +1.5778286e-12 </wgt>
<wgt id='1062'> +1.5503455e-12 </wgt>
<wgt id='1063'> +1.5877211e-12 </wgt>
<wgt id='1064'> +1.5336829e-12 </wgt>
<wgt id='1065'> +1.5448004e-12 </wgt>
<wgt id='1066'> +1.4745643e-12 </wgt>
<wgt id='1067'> +1.5635125e-12 </wgt>
<wgt id='1068'> +1.6304824e-12 </wgt>
<wgt id='1069'> +1.5887278e-12 </wgt>
<wgt id='1070'> +1.5497771e-12 </wgt>
<wgt id='1071'> +1.5308498e-12 </wgt>
<wgt id='1072'> +1.5873686e-12 </wgt>
<wgt id='1073'> +1.6439263e-12 </wgt>
<wgt id='1074'> +1.5366284e-12 </wgt>
<wgt id='1075'> +1.5447071e-12 </wgt>
<wgt id='1076'> +1.5772020e-12 </wgt>
<wgt id='1077'> +1.6224685e-12 </wgt>
<wgt id='1078'> +1.5529416e-12 </wgt>
<wgt id='1079'> +1.5950030e-12 </wgt>
<wgt id='1080'> +1.5252256e-12 </wgt>
<wgt id='1081'> +1.5818230e-12 </wgt>
<wgt id='1082'> +1.5857521e-12 </wgt>
<wgt id='1083'> +1.5668922e-12 </wgt>
<wgt id='1084'> +1.5083416e-12 </wgt>
<wgt id='1085'> +1.5496476e-12 </wgt>
<wgt id='1086'> +1.5865033e-12 </wgt>
<wgt id='1087'> +1.5621459e-12 </wgt>
<wgt id='1088'> +1.5720886e-12 </wgt>
<wgt id='1089'> +1.5949686e-12 </wgt>
<wgt id='1090'> +1.5762004e-12 </wgt>
<wgt id='1091'> +1.5588766e-12 </wgt>
<wgt id='1092'> +1.5929839e-12 </wgt>
<wgt id='1093'> +1.5775459e-12 </wgt>
<wgt id='1094'> +1.5285991e-12 </wgt>
<wgt id='1095'> +1.5716571e-12 </wgt>
<wgt id='1096'> +1.5561408e-12 </wgt>
<wgt id='1097'> +1.5191233e-12 </wgt>
<wgt id='1098'> +1.5449126e-12 </wgt>
<wgt id='1099'> +1.5297820e-12 </wgt>
<wgt id='1100'> +1.6063306e-12 </wgt>
<wgt id='1101'> +1.6124393e-12 </wgt>
<wgt id='1102'> +1.5849322e-12 </wgt>
<wgt id='1103'> +1.6253447e-12 </wgt>
<wgt id='1104'> +1.5532859e-12 </wgt>
<wgt id='1105'> +1.5207294e-12 </wgt>
<wgt id='1106'> +1.6092693e-12 </wgt>
<wgt id='1107'> +1.6226578e-12 </wgt>
<wgt id='1108'> +1.5346061e-12 </wgt>
<wgt id='1109'> +1.5362667e-12 </wgt>
<wgt id='1110'> +1.5145124e-12 </wgt>
<wgt id='1111'> +1.5618652e-12 </wgt>
<wgt id='1112'> +1.5388280e-12 </wgt>
<wgt id='1113'> +1.5880133e-12 </wgt>
<wgt id='1114'> +1.5848452e-12 </wgt>
<wgt id='1115'> +1.5644230e-12 </wgt>
<wgt id='1116'> +1.5631975e-12 </wgt>
<wgt id='1117'> +1.5313971e-12 </wgt>
<wgt id='1118'> +1.5125750e-12 </wgt>
<wgt id='1119'> +1.4743820e-12 </wgt>
<wgt id='1120'> +1.5064196e-12 </wgt>
<wgt id='1121'> +1.4836596e-12 </wgt>
<wgt id='1122'> +1.6092529e-12 </wgt>
<wgt id='1123'> +1.5720140e-12 </wgt>
<wgt id='1124'> +1.5555476e-12 </wgt>
<wgt id='1125'> +1.5205165e-12 </wgt>
<wgt id='1126'> +1.5473145e-12 </wgt>
<wgt id='1127'> +1.6057131e-12 </wgt>
<wgt id='1128'> +1.5503455e-12 </wgt>
<wgt id='1129'> +1.5431699e-12 </wgt>
<wgt id='1130'> +1.5398265e-12 </wgt>
<wgt id='1131'> +1.5820456e-12 </wgt>
<wgt id='1132'> +1.6235747e-12 </wgt>
<wgt id='1133'> +1.5270159e-12 </wgt>
<wgt id='1134'> +1.6048474e-12 </wgt>
<wgt id='1135'> +1.4504515e-12 </wgt>
<wgt id='1136'> +1.5278324e-12 </wgt>
<wgt id='1137'> +1.5563964e-12 </wgt>
<wgt id='1138'> +1.4676088e-12 </wgt>
<wgt id='1139'> +1.5251658e-12 </wgt>
<wgt id='1140'> +1.5452353e-12 </wgt>
<wgt id='1141'> +1.6080843e-12 </wgt>
<wgt id='1142'> +1.5650874e-12 </wgt>
<wgt id='1143'> +1.6093691e-12 </wgt>
<wgt id='1144'> +1.5699795e-12 </wgt>
<wgt id='1145'> +1.6192468e-12 </wgt>
<wgt id='1146'> +1.5857262e-12 </wgt>
<wgt id='1147'> +1.2525044e-12 </wgt>
<wgt id='1148'> +1.2784784e-12 </wgt>
<wgt id='1149'> +1.2836067e-12 </wgt>
<wgt id='1150'> +1.3059353e-12 </wgt>
<wgt id='1151'> +1.4204196e-12 </wgt>
<wgt id='1152'> +1.8163625e-12 </wgt>
<wgt id='1153'> +1.8060786e-12 </wgt>
<wgt id='1154'> +1.8222874e-12 </wgt>
<wgt id='1155'> +1.8114443e-12 </wgt>
<wgt id='1156'> +1.8188290e-12 </wgt>
<wgt id='1157'> +1.8225376e-12 </wgt>
<wgt id='1158'> +1.8079839e-12 </wgt>
<wgt id='1159'> +1.8218029e-12 </wgt>
<wgt id='1160'> +1.8128655e-12 </wgt>
<wgt id='1161'> +1.8154114e-12 </wgt>
<wgt id='1162'> +1.8169958e-12 </wgt>
<wgt id='1163'> +1.8198948e-12 </wgt>
<wgt id='1164'> +1.8127827e-12 </wgt>
<wgt id='1165'> +1.8080334e-12 </wgt>
<wgt id='1166'> +1.8243563e-12 </wgt>
<wgt id='1167'> +1.8178645e-12 </wgt>
<wgt id='1168'> +1.8121791e-12 </wgt>
<wgt id='1169'> +1.8184433e-12 </wgt>
<wgt id='1170'> +1.8147563e-12 </wgt>
<wgt id='1171'> +1.8058551e-12 </wgt>
<wgt id='1172'> +1.8290101e-12 </wgt>
<wgt id='1173'> +1.8009793e-12 </wgt>
<wgt id='1174'> +1.8304201e-12 </wgt>
<wgt id='1175'> +1.8223083e-12 </wgt>
<wgt id='1176'> +1.8103741e-12 </wgt>
<wgt id='1177'> +1.8197333e-12 </wgt>
<wgt id='1178'> +1.8060546e-12 </wgt>
<wgt id='1179'> +1.8186455e-12 </wgt>
<wgt id='1180'> +1.8049655e-12 </wgt>
<wgt id='1181'> +1.8104499e-12 </wgt>
<wgt id='1182'> +1.8220296e-12 </wgt>
<wgt id='1183'> +1.8161854e-12 </wgt>
<wgt id='1184'> +1.8162356e-12 </wgt>
<wgt id='1185'> +1.8118262e-12 </wgt>
<wgt id='1186'> +1.8201351e-12 </wgt>
<wgt id='1187'> +1.8166455e-12 </wgt>
<wgt id='1188'> +1.8162738e-12 </wgt>
<wgt id='1189'> +1.8161619e-12 </wgt>
<wgt id='1190'> +1.7985291e-12 </wgt>
<wgt id='1191'> +1.8053103e-12 </wgt>
<wgt id='1192'> +1.8223240e-12 </wgt>
<wgt id='1193'> +1.3344562e-12 </wgt>
<wgt id='1194'> +1.3311812e-12 </wgt>
<wgt id='1195'> +1.3371125e-12 </wgt>
<wgt id='1196'> +1.3437324e-12 </wgt>
<wgt id='1197'> +1.3241486e-12 </wgt>
<wgt id='1198'> +1.3326074e-12 </wgt>
<wgt id='1199'> +1.3371876e-12 </wgt>
<wgt id='1200'> +1.3335518e-12 </wgt>
<wgt id='1201'> +1.3350724e-12 </wgt>
<wgt id='1202'> +1.3337909e-12 </wgt>
<wgt id='1203'> +1.3354616e-12 </wgt>
<wgt id='1204'> +1.3303492e-12 </wgt>
<wgt id='1205'> +1.3369460e-12 </wgt>
<wgt id='1206'> +1.3374524e-12 </wgt>
<wgt id='1207'> +1.3303623e-12 </wgt>
<wgt id='1208'> +1.3263990e-12 </wgt>
<wgt id='1209'> +1.3374436e-12 </wgt>
<wgt id='1210'> +1.3348436e-12 </wgt>
<wgt id='1211'> +1.3265918e-12 </wgt>
<wgt id='1212'> +1.3355724e-12 </wgt>
<wgt id='1213'> +1.3334256e-12 </wgt>
<wgt id='1214'> +1.3182288e-12 </wgt>
<wgt id='1215'> +1.3608168e-12 </wgt>
<wgt id='1216'> +1.3343502e-12 </wgt>
<wgt id='1217'> +1.3337393e-12 </wgt>
<wgt id='1218'> +1.3412608e-12 </wgt>
<wgt id='1219'> +1.3309567e-12 </wgt>
<wgt id='1220'> +1.3423290e-12 </wgt>
<wgt id='1221'> +1.3304727e-12 </wgt>
<wgt id='1222'> +1.3427351e-12 </wgt>
<wgt id='1223'> +1.3179036e-12 </wgt>
<wgt id='1224'> +1.3358086e-12 </wgt>
<wgt id='1225'> +1.3339234e-12 </wgt>
<wgt id='1226'> +1.3294186e-12 </wgt>
<wgt id='1227'> +1.3380431e-12 </wgt>
<wgt id='1228'> +1.3400892e-12 </wgt>
<wgt id='1229'> +1.3302429e-12 </wgt>
<wgt id='1230'> +1.3381831e-12 </wgt>
<wgt id='1231'> +1.3243979e-12 </wgt>
<wgt id='1232'> +1.3390124e-12 </wgt>
<wgt id='1233'> +1.3331287e-12 </wgt>
<wgt id='1234'> +1.3344562e-12 </wgt>
<wgt id='1235'> +1.3272109e-12 </wgt>
<wgt id='1236'> +1.3299659e-12 </wgt>
<wgt id='1237'> +1.3324563e-12 </wgt>
<wgt id='1238'> +1.3367153e-12 </wgt>
<wgt id='1239'> +1.3384319e-12 </wgt>
<wgt id='1240'> +1.3399650e-12 </wgt>
<wgt id='1241'> +1.2983906e-12 </wgt>
<wgt id='1242'> +1.2917950e-12 </wgt>
<wgt id='1243'> +1.3049294e-12 </wgt>
<wgt id='1244'> +1.2908727e-12 </wgt>
<wgt id='1245'> +1.3039539e-12 </wgt>
<wgt id='1246'> +1.2956131e-12 </wgt>
<wgt id='1247'> +1.3007913e-12 </wgt>
<wgt id='1248'> +1.2983050e-12 </wgt>
<wgt id='1249'> +1.2984925e-12 </wgt>
<wgt id='1250'> +1.3034270e-12 </wgt>
<wgt id='1251'> +1.2948472e-12 </wgt>
<wgt id='1252'> +1.2960729e-12 </wgt>
<wgt id='1253'> +1.3001970e-12 </wgt>
<wgt id='1254'> +1.2948156e-12 </wgt>
<wgt id='1255'> +1.3005045e-12 </wgt>
<wgt id='1256'> +1.3018993e-12 </wgt>
<wgt id='1257'> +1.2896564e-12 </wgt>
<wgt id='1258'> +1.3170216e-12 </wgt>
<wgt id='1259'> +1.2815100e-12 </wgt>
<wgt id='1260'> +1.3016949e-12 </wgt>
<wgt id='1261'> +1.2948181e-12 </wgt>
<wgt id='1262'> +1.2928224e-12 </wgt>
<wgt id='1263'> +1.3004030e-12 </wgt>
<wgt id='1264'> +1.3054147e-12 </wgt>
<wgt id='1265'> +1.2948935e-12 </wgt>
<wgt id='1266'> +1.2843786e-12 </wgt>
<wgt id='1267'> +1.3098348e-12 </wgt>
<wgt id='1268'> +1.3017666e-12 </wgt>
<wgt id='1269'> +1.2970389e-12 </wgt>
<wgt id='1270'> +1.2933460e-12 </wgt>
<wgt id='1271'> +1.2959724e-12 </wgt>
<wgt id='1272'> +1.2961154e-12 </wgt>
<wgt id='1273'> +1.2987938e-12 </wgt>
<wgt id='1274'> +1.3010113e-12 </wgt>
<wgt id='1275'> +1.2940235e-12 </wgt>
<wgt id='1276'> +1.2909247e-12 </wgt>
<wgt id='1277'> +1.3041819e-12 </wgt>
<wgt id='1278'> +1.2942729e-12 </wgt>
<wgt id='1279'> +1.3003314e-12 </wgt>
<wgt id='1280'> +1.2965532e-12 </wgt>
<wgt id='1281'> +1.3081318e-12 </wgt>
<wgt id='1282'> +1.2983906e-12 </wgt>
<wgt id='1283'> +1.2910164e-12 </wgt>
<wgt id='1284'> +1.2938972e-12 </wgt>
<wgt id='1285'> +1.2963500e-12 </wgt>
<wgt id='1286'> +1.3004824e-12 </wgt>
<wgt id='1287'> +1.3021084e-12 </wgt>
<wgt id='1288'> +1.3034233e-12 </wgt>
<wgt id='1289'> +1.3626782e-12 </wgt>
<wgt id='1290'> +1.3579253e-12 </wgt>
<wgt id='1291'> +1.3677423e-12 </wgt>
<wgt id='1292'> +1.3582482e-12 </wgt>
<wgt id='1293'> +1.3658313e-12 </wgt>
<wgt id='1294'> +1.3517304e-12 </wgt>
<wgt id='1295'> +1.3733639e-12 </wgt>
<wgt id='1296'> +1.3616770e-12 </wgt>
<wgt id='1297'> +1.3638211e-12 </wgt>
<wgt id='1298'> +1.3623674e-12 </wgt>
<wgt id='1299'> +1.3630344e-12 </wgt>
<wgt id='1300'> +1.3635310e-12 </wgt>
<wgt id='1301'> +1.3609443e-12 </wgt>
<wgt id='1302'> +1.3594420e-12 </wgt>
<wgt id='1303'> +1.3671186e-12 </wgt>
<wgt id='1304'> +1.3607887e-12 </wgt>
<wgt id='1305'> +1.3639248e-12 </wgt>
<wgt id='1306'> +1.3580136e-12 </wgt>
<wgt id='1307'> +1.3680178e-12 </wgt>
<wgt id='1308'> +1.3533734e-12 </wgt>
<wgt id='1309'> +1.3697924e-12 </wgt>
<wgt id='1310'> +1.3674770e-12 </wgt>
<wgt id='1311'> +1.3577703e-12 </wgt>
<wgt id='1312'> +1.3584059e-12 </wgt>
<wgt id='1313'> +1.3672571e-12 </wgt>
<wgt id='1314'> +1.3538758e-12 </wgt>
<wgt id='1315'> +1.3679001e-12 </wgt>
<wgt id='1316'> +1.3678729e-12 </wgt>
<wgt id='1317'> +1.3636660e-12 </wgt>
<wgt id='1318'> +1.3736122e-12 </wgt>
<wgt id='1319'> +1.3495879e-12 </wgt>
<wgt id='1320'> +1.3861644e-12 </wgt>
<wgt id='1321'> +1.3446451e-12 </wgt>
<wgt id='1322'> +1.3587189e-12 </wgt>
<wgt id='1323'> +1.3677806e-12 </wgt>
<wgt id='1324'> +1.3645486e-12 </wgt>
<wgt id='1325'> +1.3624097e-12 </wgt>
<wgt id='1326'> +1.3613123e-12 </wgt>
<wgt id='1327'> +1.3658251e-12 </wgt>
<wgt id='1328'> +1.3612227e-12 </wgt>
<wgt id='1329'> +1.3638037e-12 </wgt>
<wgt id='1330'> +1.3498446e-12 </wgt>
<wgt id='1331'> +1.3823591e-12 </wgt>
<wgt id='1332'> +1.3826344e-12 </wgt>
<wgt id='1333'> +1.3505508e-12 </wgt>
<wgt id='1334'> +1.3560529e-12 </wgt>
<wgt id='1335'> +1.3814226e-12 </wgt>
<wgt id='1336'> +1.3637943e-12 </wgt>
<wgt id='1337'> +1.3558960e-12 </wgt>
<wgt id='1338'> +1.3585344e-12 </wgt>
<wgt id='1339'> +1.3629769e-12 </wgt>
<wgt id='1340'> +1.3428366e-12 </wgt>
<wgt id='1341'> +1.3381391e-12 </wgt>
<wgt id='1342'> +1.3478956e-12 </wgt>
<wgt id='1343'> +1.3382754e-12 </wgt>
<wgt id='1344'> +1.3459323e-12 </wgt>
<wgt id='1345'> +1.3319206e-12 </wgt>
<wgt id='1346'> +1.3531172e-12 </wgt>
<wgt id='1347'> +1.3423613e-12 </wgt>
<wgt id='1348'> +1.3432867e-12 </wgt>
<wgt id='1349'> +1.3425122e-12 </wgt>
<wgt id='1350'> +1.3431370e-12 </wgt>
<wgt id='1351'> +1.3433565e-12 </wgt>
<wgt id='1352'> +1.3417048e-12 </wgt>
<wgt id='1353'> +1.3389792e-12 </wgt>
<wgt id='1354'> +1.3497516e-12 </wgt>
<wgt id='1355'> +1.3416177e-12 </wgt>
<wgt id='1356'> +1.3435331e-12 </wgt>
<wgt id='1357'> +1.3355349e-12 </wgt>
<wgt id='1358'> +1.3515222e-12 </wgt>
<wgt id='1359'> +1.3354254e-12 </wgt>
<wgt id='1360'> +1.3493172e-12 </wgt>
<wgt id='1361'> +1.3468569e-12 </wgt>
<wgt id='1362'> +1.3377421e-12 </wgt>
<wgt id='1363'> +1.3383221e-12 </wgt>
<wgt id='1364'> +1.3464220e-12 </wgt>
<wgt id='1365'> +1.3439978e-12 </wgt>
<wgt id='1366'> +1.3352837e-12 </wgt>
<wgt id='1367'> +1.3484396e-12 </wgt>
<wgt id='1368'> +1.3428105e-12 </wgt>
<wgt id='1369'> +1.3514748e-12 </wgt>
<wgt id='1370'> +1.3324945e-12 </wgt>
<wgt id='1371'> +1.3598576e-12 </wgt>
<wgt id='1372'> +1.3236330e-12 </wgt>
<wgt id='1373'> +1.3336971e-12 </wgt>
<wgt id='1374'> +1.3515766e-12 </wgt>
<wgt id='1375'> +1.3443123e-12 </wgt>
<wgt id='1376'> +1.3429783e-12 </wgt>
<wgt id='1377'> +1.3421708e-12 </wgt>
<wgt id='1378'> +1.3456912e-12 </wgt>
<wgt id='1379'> +1.3413002e-12 </wgt>
<wgt id='1380'> +1.3442706e-12 </wgt>
<wgt id='1381'> +1.3308307e-12 </wgt>
<wgt id='1382'> +1.3598762e-12 </wgt>
<wgt id='1383'> +1.3647838e-12 </wgt>
<wgt id='1384'> +1.3307773e-12 </wgt>
<wgt id='1385'> +1.3364904e-12 </wgt>
<wgt id='1386'> +1.3598930e-12 </wgt>
<wgt id='1387'> +1.3434516e-12 </wgt>
<wgt id='1388'> +1.3349926e-12 </wgt>
<wgt id='1389'> +1.3369958e-12 </wgt>
<wgt id='1390'> +1.3434093e-12 </wgt>
<wgt id='1391'> +1.3067845e-12 </wgt>
<wgt id='1392'> +1.2781135e-12 </wgt>
<wgt id='1393'> +1.2888987e-12 </wgt>
<wgt id='1394'> +1.2988069e-12 </wgt>
<wgt id='1395'> +1.3184817e-12 </wgt>
<wgt id='1396'> +1.3086206e-12 </wgt>
<wgt id='1397'> +1.2672204e-12 </wgt>
<wgt id='1398'> +1.2760102e-12 </wgt>
<wgt id='1399'> +1.2838055e-12 </wgt>
<wgt id='1400'> +1.2916625e-12 </wgt>
<wgt id='1401'> +1.3002363e-12 </wgt>
<wgt id='1402'> +1.3172776e-12 </wgt>
<wgt id='1403'> +1.3254054e-12 </wgt>
<wgt id='1404'> +1.3333702e-12 </wgt>
<wgt id='1405'> +1.3086206e-12 </wgt>
<wgt id='1406'> +1.3053250e-12 </wgt>
<wgt id='1407'> +1.3072036e-12 </wgt>
<wgt id='1408'> +1.3100029e-12 </wgt>
<wgt id='1409'> +1.3122015e-12 </wgt>
<wgt id='1410'> +1.2720029e-12 </wgt>
<wgt id='1411'> +1.2685160e-12 </wgt>
<wgt id='1412'> +1.2765027e-12 </wgt>
<wgt id='1413'> +1.2688813e-12 </wgt>
<wgt id='1414'> +1.2751596e-12 </wgt>
<wgt id='1415'> +1.2647335e-12 </wgt>
<wgt id='1416'> +1.2749927e-12 </wgt>
<wgt id='1417'> +1.2643684e-12 </wgt>
<wgt id='1418'> +1.2796600e-12 </wgt>
<wgt id='1419'> +1.2712931e-12 </wgt>
<wgt id='1420'> +1.2726947e-12 </wgt>
<wgt id='1421'> +1.2679657e-12 </wgt>
<wgt id='1422'> +1.2737560e-12 </wgt>
<wgt id='1423'> +1.2715813e-12 </wgt>
<wgt id='1424'> +1.2725956e-12 </wgt>
<wgt id='1425'> +1.2652925e-12 </wgt>
<wgt id='1426'> +1.2792517e-12 </wgt>
<wgt id='1427'> +1.2529069e-12 </wgt>
<wgt id='1428'> +1.2825038e-12 </wgt>
<wgt id='1429'> +1.2741212e-12 </wgt>
<wgt id='1430'> +1.2693210e-12 </wgt>
<wgt id='1431'> +1.2661932e-12 </wgt>
<wgt id='1432'> +1.2759907e-12 </wgt>
<wgt id='1433'> +1.2600131e-12 </wgt>
<wgt id='1434'> +1.2821696e-12 </wgt>
<wgt id='1435'> +1.2724249e-12 </wgt>
<wgt id='1436'> +1.2713230e-12 </wgt>
<wgt id='1437'> +1.2767260e-12 </wgt>
<wgt id='1438'> +1.2728217e-12 </wgt>
<wgt id='1439'> +1.2648960e-12 </wgt>
<wgt id='1440'> +1.2885414e-12 </wgt>
<wgt id='1441'> +1.2810907e-12 </wgt>
<wgt id='1442'> +1.2544722e-12 </wgt>
<wgt id='1443'> +1.2733883e-12 </wgt>
<wgt id='1444'> +1.2705951e-12 </wgt>
<wgt id='1445'> +1.2767201e-12 </wgt>
<wgt id='1446'> +1.2712251e-12 </wgt>
<wgt id='1447'> +1.2724051e-12 </wgt>
<wgt id='1448'> +1.2738888e-12 </wgt>
<wgt id='1449'> +1.2711656e-12 </wgt>
<wgt id='1450'> +1.2722916e-12 </wgt>
<wgt id='1451'> +1.2833868e-12 </wgt>
<wgt id='1452'> +1.2526717e-12 </wgt>
<wgt id='1453'> +1.2741467e-12 </wgt>
<wgt id='1454'> +1.2551041e-12 </wgt>
<wgt id='1455'> +1.2674677e-12 </wgt>
<wgt id='1456'> +1.2770913e-12 </wgt>
<wgt id='1457'> +1.2841371e-12 </wgt>
<wgt id='1458'> +1.2667201e-12 </wgt>
<wgt id='1459'> +1.2752230e-12 </wgt>
<wgt id='1460'> +1.2693076e-12 </wgt>
<wgt id='1461'> +1.2720029e-12 </wgt>
<wgt id='1462'> +1.2659797e-12 </wgt>
<wgt id='1463'> +1.2814454e-12 </wgt>
<wgt id='1464'> +1.2736075e-12 </wgt>
<wgt id='1465'> +1.2343414e-12 </wgt>
<wgt id='1466'> +1.2431090e-12 </wgt>
<wgt id='1467'> +1.2517253e-12 </wgt>
<wgt id='1468'> +1.2582402e-12 </wgt>
<wgt id='1469'> +1.2663592e-12 </wgt>
<wgt id='1470'> +1.2809541e-12 </wgt>
<wgt id='1471'> +1.2860082e-12 </wgt>
<wgt id='1472'> +1.2930703e-12 </wgt>
<wgt id='1473'> +1.2736075e-12 </wgt>
<wgt id='1474'> +1.2701434e-12 </wgt>
<wgt id='1475'> +1.2711384e-12 </wgt>
<wgt id='1476'> +1.2750719e-12 </wgt>
<wgt id='1477'> +1.2765094e-12 </wgt>
<wgt id='1478'> +1.2876039e-12 </wgt>
<wgt id='1479'> +1.2867088e-12 </wgt>
<wgt id='1480'> +1.2908898e-12 </wgt>
<wgt id='1481'> +1.2908593e-12 </wgt>
<wgt id='1482'> +1.2876351e-12 </wgt>
<wgt id='1483'> +1.2670111e-12 </wgt>
<wgt id='1484'> +1.2872607e-12 </wgt>
<wgt id='1485'> +1.2946460e-12 </wgt>
<wgt id='1486'> +1.2880036e-12 </wgt>
<wgt id='1487'> +1.2809153e-12 </wgt>
<wgt id='1488'> +1.2857526e-12 </wgt>
<wgt id='1489'> +1.2938444e-12 </wgt>
<wgt id='1490'> +1.2820288e-12 </wgt>
<wgt id='1491'> +1.2924204e-12 </wgt>
<wgt id='1492'> +1.2869523e-12 </wgt>
<wgt id='1493'> +1.2673155e-12 </wgt>
<wgt id='1494'> +1.2906213e-12 </wgt>
<wgt id='1495'> +1.2843638e-12 </wgt>
<wgt id='1496'> +1.2889348e-12 </wgt>
<wgt id='1497'> +1.2735897e-12 </wgt>
<wgt id='1498'> +1.2868153e-12 </wgt>
<wgt id='1499'> +1.2889846e-12 </wgt>
<wgt id='1500'> +1.2897511e-12 </wgt>
<wgt id='1501'> +1.2886964e-12 </wgt>
<wgt id='1502'> +1.2919609e-12 </wgt>
<wgt id='1503'> +1.2901784e-12 </wgt>
<wgt id='1504'> +1.2807307e-12 </wgt>
<wgt id='1505'> +1.2887756e-12 </wgt>
<wgt id='1506'> +1.2888649e-12 </wgt>
<wgt id='1507'> +1.2855680e-12 </wgt>
<wgt id='1508'> +1.2954048e-12 </wgt>
<wgt id='1509'> +1.3279293e-12 </wgt>
<wgt id='1510'> +1.3268315e-12 </wgt>
<wgt id='1511'> +1.3273848e-12 </wgt>
<wgt id='1512'> +1.3235961e-12 </wgt>
<wgt id='1513'> +1.3309575e-12 </wgt>
<wgt id='1514'> +1.3323418e-12 </wgt>
<wgt id='1515'> +1.3280062e-12 </wgt>
<wgt id='1516'> +1.3339906e-12 </wgt>
<wgt id='1517'> +1.3343993e-12 </wgt>
<wgt id='1518'> +1.3317973e-12 </wgt>
<wgt id='1519'> +1.3195166e-12 </wgt>
<wgt id='1520'> +1.3264537e-12 </wgt>
<wgt id='1521'> +1.3358016e-12 </wgt>
<wgt id='1522'> +1.3257393e-12 </wgt>
<wgt id='1523'> +1.3369081e-12 </wgt>
<wgt id='1524'> +1.3327176e-12 </wgt>
<wgt id='1525'> +1.3365645e-12 </wgt>
<wgt id='1526'> +1.3225137e-12 </wgt>
<wgt id='1527'> +1.3238482e-12 </wgt>
<wgt id='1528'> +1.3287830e-12 </wgt>
<wgt id='1529'> +1.3285985e-12 </wgt>
<wgt id='1530'> +1.3341386e-12 </wgt>
<wgt id='1531'> +1.3308200e-12 </wgt>
<wgt id='1532'> +1.3217420e-12 </wgt>
<wgt id='1533'> +1.3275188e-12 </wgt>
<wgt id='1534'> +1.3304981e-12 </wgt>
<wgt id='1535'> +1.3209593e-12 </wgt>
<wgt id='1536'> +1.3284783e-12 </wgt>
<wgt id='1537'> +1.3307615e-12 </wgt>
<wgt id='1538'> +1.3251133e-12 </wgt>
<wgt id='1539'> +1.3143580e-12 </wgt>
<wgt id='1540'> +1.3345684e-12 </wgt>
<wgt id='1541'> +1.3345096e-12 </wgt>
<wgt id='1542'> +1.3320345e-12 </wgt>
<wgt id='1543'> +1.3254367e-12 </wgt>
<wgt id='1544'> +1.3362097e-12 </wgt>
<wgt id='1545'> +1.3316499e-12 </wgt>
<wgt id='1546'> +1.3251999e-12 </wgt>
<wgt id='1547'> +1.3322980e-12 </wgt>
<wgt id='1548'> +1.3252414e-12 </wgt>
<wgt id='1549'> +1.3278100e-12 </wgt>
<wgt id='1550'> +1.3272455e-12 </wgt>
<wgt id='1551'> +1.3280664e-12 </wgt>
<wgt id='1552'> +1.3284603e-12 </wgt>
<wgt id='1553'> +1.3292059e-12 </wgt>
<wgt id='1554'> +1.3294930e-12 </wgt>
<wgt id='1555'> +1.3289350e-12 </wgt>
<wgt id='1556'> +1.3252514e-12 </wgt>
<wgt id='1557'> +1.3321764e-12 </wgt>
<wgt id='1558'> +1.3269278e-12 </wgt>
<wgt id='1559'> +1.3298969e-12 </wgt>
<wgt id='1560'> +1.3300975e-12 </wgt>
<wgt id='1561'> +1.3275173e-12 </wgt>
<wgt id='1562'> +1.3288436e-12 </wgt>
<wgt id='1563'> +1.3295408e-12 </wgt>
<wgt id='1564'> +1.3275743e-12 </wgt>
<wgt id='1565'> +1.3257613e-12 </wgt>
<wgt id='1566'> +1.3294987e-12 </wgt>
<wgt id='1567'> +1.3301984e-12 </wgt>
<wgt id='1568'> +1.3280066e-12 </wgt>
<wgt id='1569'> +1.3288368e-12 </wgt>
<wgt id='1570'> +1.3282852e-12 </wgt>
<wgt id='1571'> +1.3284850e-12 </wgt>
<wgt id='1572'> +1.3248402e-12 </wgt>
<wgt id='1573'> +1.3230949e-12 </wgt>
<wgt id='1574'> +1.3295399e-12 </wgt>
<wgt id='1575'> +1.3295097e-12 </wgt>
<wgt id='1576'> +1.3265189e-12 </wgt>
<wgt id='1577'> +1.3286495e-12 </wgt>
<wgt id='1578'> +1.3302019e-12 </wgt>
<wgt id='1579'> +1.3267768e-12 </wgt>
<wgt id='1580'> +1.3255910e-12 </wgt>
<wgt id='1581'> +1.3294422e-12 </wgt>
<wgt id='1582'> +1.3292155e-12 </wgt>
<wgt id='1583'> +1.3277658e-12 </wgt>
<wgt id='1584'> +1.3288323e-12 </wgt>
<wgt id='1585'> +1.3257154e-12 </wgt>
<wgt id='1586'> +1.3265959e-12 </wgt>
<wgt id='1587'> +1.3293657e-12 </wgt>
<wgt id='1588'> +1.3267024e-12 </wgt>
<wgt id='1589'> +1.3295927e-12 </wgt>
<wgt id='1590'> +1.3280899e-12 </wgt>
<wgt id='1591'> +1.3270516e-12 </wgt>
<wgt id='1592'> +1.3281374e-12 </wgt>
<wgt id='1593'> +1.3275595e-12 </wgt>
<wgt id='1594'> +1.3267477e-12 </wgt>
<wgt id='1595'> +1.3295689e-12 </wgt>
<wgt id='1596'> +1.3262413e-12 </wgt>
<wgt id='1597'> +1.3269487e-12 </wgt>
<wgt id='1598'> +1.3266181e-12 </wgt>
<wgt id='1599'> +1.3257205e-12 </wgt>
<wgt id='1600'> +1.3271530e-12 </wgt>
<wgt id='1601'> +1.3276460e-12 </wgt>
<wgt id='1602'> +1.3287263e-12 </wgt>
<wgt id='1603'> +1.3277888e-12 </wgt>
<wgt id='1604'> +1.3270997e-12 </wgt>
<wgt id='1605'> +1.3287354e-12 </wgt>
<wgt id='1606'> +1.3282012e-12 </wgt>
<wgt id='1607'> +1.3282287e-12 </wgt>
<wgt id='1608'> +1.3286583e-12 </wgt>
<wgt id='1609'> +1.3275526e-12 </wgt>
<wgt id='1610'> +1.3252603e-12 </wgt>
<wgt id='1611'> +1.3347906e-12 </wgt>
<wgt id='1612'> +1.5578325e-12 </wgt>
<wgt id='1613'> +1.5608136e-12 </wgt>
<wgt id='1614'> +1.5697034e-12 </wgt>
<wgt id='1615'> +1.5565211e-12 </wgt>
<wgt id='1616'> +1.5521408e-12 </wgt>
<wgt id='1617'> +1.6009468e-12 </wgt>
<wgt id='1618'> +1.6374775e-12 </wgt>
<wgt id='1619'> +1.5448893e-12 </wgt>
<wgt id='1620'> +1.5067759e-12 </wgt>
<wgt id='1621'> +1.5948882e-12 </wgt>
<wgt id='1622'> +1.5507781e-12 </wgt>
<wgt id='1623'> +1.5612502e-12 </wgt>
<wgt id='1624'> +1.5511324e-12 </wgt>
<wgt id='1625'> +1.5831637e-12 </wgt>
<wgt id='1626'> +1.5190537e-12 </wgt>
<wgt id='1627'> +1.5446644e-12 </wgt>
<wgt id='1628'> +1.5990098e-12 </wgt>
<wgt id='1629'> +1.6356388e-12 </wgt>
<wgt id='1630'> +1.5302434e-12 </wgt>
<wgt id='1631'> +1.5587297e-12 </wgt>
<wgt id='1632'> +1.5083056e-12 </wgt>
<wgt id='1633'> +1.4983131e-12 </wgt>
<wgt id='1634'> +1.5673406e-12 </wgt>
<wgt id='1635'> +1.5306863e-12 </wgt>
<wgt id='1636'> +1.6087215e-12 </wgt>
<wgt id='1637'> +1.5243005e-12 </wgt>
<wgt id='1638'> +1.5567639e-12 </wgt>
<wgt id='1639'> +1.5190898e-12 </wgt>
<wgt id='1640'> +1.4878785e-12 </wgt>
<wgt id='1641'> +1.5437281e-12 </wgt>
<wgt id='1642'> +1.5072191e-12 </wgt>
<wgt id='1643'> +1.6249983e-12 </wgt>
<wgt id='1644'> +1.5080400e-12 </wgt>
<wgt id='1645'> +1.5553479e-12 </wgt>
<wgt id='1646'> +1.5301970e-12 </wgt>
<wgt id='1647'> +1.5463332e-12 </wgt>
<wgt id='1648'> +1.5464038e-12 </wgt>
<wgt id='1649'> +1.6535588e-12 </wgt>
<wgt id='1650'> +1.5349065e-12 </wgt>
<wgt id='1651'> +1.5262626e-12 </wgt>
<wgt id='1652'> +1.5293999e-12 </wgt>
<wgt id='1653'> +1.6030079e-12 </wgt>
<wgt id='1654'> +1.6020768e-12 </wgt>
<wgt id='1655'> +1.5787434e-12 </wgt>
<wgt id='1656'> +1.5394821e-12 </wgt>
<wgt id='1657'> +1.5479844e-12 </wgt>
<wgt id='1658'> +1.4990818e-12 </wgt>
<wgt id='1659'> +1.5511324e-12 </wgt>
<wgt id='1660'> +1.5952915e-12 </wgt>
<wgt id='1661'> +1.5763051e-12 </wgt>
<wgt id='1662'> +1.5218263e-12 </wgt>
<wgt id='1663'> +1.5599386e-12 </wgt>
<wgt id='1664'> +1.5582316e-12 </wgt>
<wgt id='1665'> +1.4937502e-12 </wgt>
<wgt id='1666'> +1.5513629e-12 </wgt>
<wgt id='1667'> +1.5908800e-12 </wgt>
<wgt id='1668'> +1.5639757e-12 </wgt>
<wgt id='1669'> +1.5605096e-12 </wgt>
<wgt id='1670'> +1.5404844e-12 </wgt>
<wgt id='1671'> +1.5515355e-12 </wgt>
<wgt id='1672'> +1.5692126e-12 </wgt>
<wgt id='1673'> +1.5633321e-12 </wgt>
<wgt id='1674'> +1.5449367e-12 </wgt>
<wgt id='1675'> +1.5998103e-12 </wgt>
<wgt id='1676'> +1.6077916e-12 </wgt>
<wgt id='1677'> +1.5707081e-12 </wgt>
<wgt id='1678'> +1.5151907e-12 </wgt>
<wgt id='1679'> +1.5468084e-12 </wgt>
<wgt id='1680'> +1.5809728e-12 </wgt>
<wgt id='1681'> +1.5829000e-12 </wgt>
<wgt id='1682'> +1.5599476e-12 </wgt>
<wgt id='1683'> +1.5519146e-12 </wgt>
<wgt id='1684'> +1.5519691e-12 </wgt>
<wgt id='1685'> +1.5523925e-12 </wgt>
<wgt id='1686'> +1.5588682e-12 </wgt>
<wgt id='1687'> +1.5841888e-12 </wgt>
<wgt id='1688'> +1.5071585e-12 </wgt>
<wgt id='1689'> +1.5293811e-12 </wgt>
<wgt id='1690'> +1.5449799e-12 </wgt>
<wgt id='1691'> +1.5693829e-12 </wgt>
<wgt id='1692'> +1.5882268e-12 </wgt>
<wgt id='1693'> +1.5537616e-12 </wgt>
<wgt id='1694'> +1.5833279e-12 </wgt>
<wgt id='1695'> +1.5324702e-12 </wgt>
<wgt id='1696'> +1.5504130e-12 </wgt>
<wgt id='1697'> +1.5811306e-12 </wgt>
<wgt id='1698'> +1.5358937e-12 </wgt>
<wgt id='1699'> +1.5754090e-12 </wgt>
<wgt id='1700'> +1.5752875e-12 </wgt>
<wgt id='1701'> +1.5501089e-12 </wgt>
<wgt id='1702'> +1.5936697e-12 </wgt>
<wgt id='1703'> +1.5747364e-12 </wgt>
<wgt id='1704'> +1.5779349e-12 </wgt>
<wgt id='1705'> +1.4918332e-12 </wgt>
<wgt id='1706'> +1.5779904e-12 </wgt>
<wgt id='1707'> +1.5516867e-12 </wgt>
<wgt id='1708'> +1.5956386e-12 </wgt>
<wgt id='1709'> +1.5661212e-12 </wgt>
<wgt id='1710'> +1.5366662e-12 </wgt>
<wgt id='1711'> +1.5476735e-12 </wgt>
<wgt id='1712'> +1.5947729e-12 </wgt>
<wgt id='1713'> +1.2732333e-12 </wgt>
<wgt id='1714'> +1.1978969e-12 </wgt>
<wgt id='1715'> +1.2443702e-12 </wgt>
<wgt id='1716'> +1.3043464e-12 </wgt>
<wgt id='1717'> +1.2802466e-12 </wgt>
<wgt id='1718'> +1.2883687e-12 </wgt>
<wgt id='1719'> +1.2532734e-12 </wgt>
<wgt id='1720'> +1.3103431e-12 </wgt>
<wgt id='1721'> +1.2702552e-12 </wgt>
<wgt id='1722'> +1.2759010e-12 </wgt>
<wgt id='1723'> +1.2942858e-12 </wgt>
<wgt id='1724'> +1.2525284e-12 </wgt>
<wgt id='1725'> +1.2780303e-12 </wgt>
<wgt id='1726'> +1.3195145e-12 </wgt>
<wgt id='1727'> +1.2858938e-12 </wgt>
<wgt id='1728'> +1.2631006e-12 </wgt>
<wgt id='1729'> +1.2547669e-12 </wgt>
<wgt id='1730'> +1.2587333e-12 </wgt>
<wgt id='1731'> +1.2196074e-12 </wgt>
<wgt id='1732'> +1.2634926e-12 </wgt>
<wgt id='1733'> +1.2937511e-12 </wgt>
<wgt id='1734'> +1.3031743e-12 </wgt>
<wgt id='1735'> +1.2963340e-12 </wgt>
<wgt id='1736'> +1.3214490e-12 </wgt>
<wgt id='1737'> +1.3367094e-12 </wgt>
<wgt id='1738'> +1.2854379e-12 </wgt>
<wgt id='1739'> +1.2824262e-12 </wgt>
<wgt id='1740'> +1.2359182e-12 </wgt>
<wgt id='1741'> +1.2877744e-12 </wgt>
<wgt id='1742'> +1.2707141e-12 </wgt>
<wgt id='1743'> +1.2996676e-12 </wgt>
<wgt id='1744'> +1.3251631e-12 </wgt>
<wgt id='1745'> +1.2740410e-12 </wgt>
<wgt id='1746'> +1.2873042e-12 </wgt>
<wgt id='1747'> +1.2882346e-12 </wgt>
<wgt id='1748'> +1.2937021e-12 </wgt>
<wgt id='1749'> +1.2647520e-12 </wgt>
<wgt id='1750'> +1.2890864e-12 </wgt>
<wgt id='1751'> +1.2439494e-12 </wgt>
<wgt id='1752'> +1.2443133e-12 </wgt>
<wgt id='1753'> +1.2977420e-12 </wgt>
<wgt id='1754'> +1.2239407e-12 </wgt>
<wgt id='1755'> +1.2498673e-12 </wgt>
<wgt id='1756'> +1.3051577e-12 </wgt>
<wgt id='1757'> +1.2697625e-12 </wgt>
<wgt id='1758'> +1.3039304e-12 </wgt>
<wgt id='1759'> +1.2274315e-12 </wgt>
<wgt id='1760'> +1.2284808e-12 </wgt>
<wgt id='1761'> +1.2601041e-12 </wgt>
<wgt id='1762'> +1.2990349e-12 </wgt>
<wgt id='1763'> +1.2881253e-12 </wgt>
<wgt id='1764'> +1.2875735e-12 </wgt>
<wgt id='1765'> +1.2802401e-12 </wgt>
<wgt id='1766'> +1.3031898e-12 </wgt>
<wgt id='1767'> +1.2808357e-12 </wgt>
<wgt id='1768'> +1.2830662e-12 </wgt>
<wgt id='1769'> +1.2472755e-12 </wgt>
<wgt id='1770'> +1.2635352e-12 </wgt>
<wgt id='1771'> +1.2809849e-12 </wgt>
<wgt id='1772'> +1.2793213e-12 </wgt>
<wgt id='1773'> +1.2875554e-12 </wgt>
<wgt id='1774'> +1.2588738e-12 </wgt>
<wgt id='1775'> +1.2659008e-12 </wgt>
<wgt id='1776'> +1.2487145e-12 </wgt>
<wgt id='1777'> +1.2016057e-12 </wgt>
<wgt id='1778'> +1.2461151e-12 </wgt>
<wgt id='1779'> +1.3165544e-12 </wgt>
<wgt id='1780'> +1.3115672e-12 </wgt>
<wgt id='1781'> +1.2718083e-12 </wgt>
<wgt id='1782'> +1.2785149e-12 </wgt>
<wgt id='1783'> +1.3000441e-12 </wgt>
<wgt id='1784'> +1.2713189e-12 </wgt>
<wgt id='1785'> +1.2632065e-12 </wgt>
<wgt id='1786'> +1.2288605e-12 </wgt>
<wgt id='1787'> +1.3097574e-12 </wgt>
<wgt id='1788'> +1.2322660e-12 </wgt>
<wgt id='1789'> +1.3120634e-12 </wgt>
<wgt id='1790'> +1.3016640e-12 </wgt>
<wgt id='1791'> +1.2631333e-12 </wgt>
<wgt id='1792'> +1.2454807e-12 </wgt>
<wgt id='1793'> +1.3158677e-12 </wgt>
<wgt id='1794'> +1.2770414e-12 </wgt>
<wgt id='1795'> +1.2956139e-12 </wgt>
<wgt id='1796'> +1.2414222e-12 </wgt>
<wgt id='1797'> +1.2792941e-12 </wgt>
<wgt id='1798'> +1.2672406e-12 </wgt>
<wgt id='1799'> +1.2464677e-12 </wgt>
<wgt id='1800'> +1.2667306e-12 </wgt>
<wgt id='1801'> +1.2533913e-12 </wgt>
<wgt id='1802'> +1.2453950e-12 </wgt>
<wgt id='1803'> +1.2992338e-12 </wgt>
<wgt id='1804'> +1.2728751e-12 </wgt>
<wgt id='1805'> +1.3082618e-12 </wgt>
<wgt id='1806'> +1.2567242e-12 </wgt>
<wgt id='1807'> +1.2310659e-12 </wgt>
<wgt id='1808'> +1.2448589e-12 </wgt>
<wgt id='1809'> +1.2592583e-12 </wgt>
<wgt id='1810'> +1.2617635e-12 </wgt>
<wgt id='1811'> +1.2927446e-12 </wgt>
<wgt id='1812'> +1.2650052e-12 </wgt>
<wgt id='1813'> +1.2353833e-12 </wgt>
<wgt id='1814'> +1.5665501e-12 </wgt>
<wgt id='1815'> +1.7871149e-12 </wgt>
<wgt id='1816'> +1.2732333e-12 </wgt>
<wgt id='1817'> +1.1978969e-12 </wgt>
<wgt id='1818'> +1.2443702e-12 </wgt>
<wgt id='1819'> +1.3043464e-12 </wgt>
<wgt id='1820'> +1.2802466e-12 </wgt>
<wgt id='1821'> +1.2883687e-12 </wgt>
<wgt id='1822'> +1.2532734e-12 </wgt>
<wgt id='1823'> +1.3103431e-12 </wgt>
<wgt id='1824'> +1.2702552e-12 </wgt>
<wgt id='1825'> +1.2759010e-12 </wgt>
<wgt id='1826'> +1.2942858e-12 </wgt>
<wgt id='1827'> +1.2525284e-12 </wgt>
<wgt id='1828'> +1.2780303e-12 </wgt>
<wgt id='1829'> +1.3195145e-12 </wgt>
<wgt id='1830'> +1.2858938e-12 </wgt>
<wgt id='1831'> +1.2631006e-12 </wgt>
<wgt id='1832'> +1.2547669e-12 </wgt>
<wgt id='1833'> +1.2587333e-12 </wgt>
<wgt id='1834'> +1.2196074e-12 </wgt>
<wgt id='1835'> +1.2634926e-12 </wgt>
<wgt id='1836'> +1.2937511e-12 </wgt>
<wgt id='1837'> +1.3031743e-12 </wgt>
<wgt id='1838'> +1.2963340e-12 </wgt>
<wgt id='1839'> +1.3214490e-12 </wgt>
<wgt id='1840'> +1.3367094e-12 </wgt>
<wgt id='1841'> +1.2854379e-12 </wgt>
<wgt id='1842'> +1.2824262e-12 </wgt>
<wgt id='1843'> +1.2359182e-12 </wgt>
<wgt id='1844'> +1.2877744e-12 </wgt>
<wgt id='1845'> +1.2707141e-12 </wgt>
<wgt id='1846'> +1.2996676e-12 </wgt>
<wgt id='1847'> +1.3251631e-12 </wgt>
<wgt id='1848'> +1.2740410e-12 </wgt>
<wgt id='1849'> +1.2873042e-12 </wgt>
<wgt id='1850'> +1.2882346e-12 </wgt>
<wgt id='1851'> +1.2937021e-12 </wgt>
<wgt id='1852'> +1.2647520e-12 </wgt>
<wgt id='1853'> +1.2890864e-12 </wgt>
<wgt id='1854'> +1.2439494e-12 </wgt>
<wgt id='1855'> +1.2443133e-12 </wgt>
<wgt id='1856'> +1.2977420e-12 </wgt>
<wgt id='1857'> +1.2239407e-12 </wgt>
<wgt id='1858'> +1.2498673e-12 </wgt>
<wgt id='1859'> +1.3051577e-12 </wgt>
<wgt id='1860'> +1.2697625e-12 </wgt>
<wgt id='1861'> +1.3039304e-12 </wgt>
<wgt id='1862'> +1.2274315e-12 </wgt>
<wgt id='1863'> +1.2284808e-12 </wgt>
<wgt id='1864'> +1.2601041e-12 </wgt>
<wgt id='1865'> +1.2990349e-12 </wgt>
<wgt id='1866'> +1.2881253e-12 </wgt>
<wgt id='1867'> +1.2875735e-12 </wgt>
<wgt id='1868'> +1.2802401e-12 </wgt>
<wgt id='1869'> +1.3031898e-12 </wgt>
<wgt id='1870'> +1.2808357e-12 </wgt>
<wgt id='1871'> +1.2830662e-12 </wgt>
<wgt id='1872'> +1.2472755e-12 </wgt>
<wgt id='1873'> +1.2635352e-12 </wgt>
<wgt id='1874'> +1.2809849e-12 </wgt>
<wgt id='1875'> +1.2793213e-12 </wgt>
<wgt id='1876'> +1.2875554e-12 </wgt>
<wgt id='1877'> +1.2588738e-12 </wgt>
<wgt id='1878'> +1.2659008e-12 </wgt>
<wgt id='1879'> +1.2487145e-12 </wgt>
<wgt id='1880'> +1.2016057e-12 </wgt>
<wgt id='1881'> +1.2461151e-12 </wgt>
<wgt id='1882'> +1.3165544e-12 </wgt>
<wgt id='1883'> +1.3115672e-12 </wgt>
<wgt id='1884'> +1.2718083e-12 </wgt>
<wgt id='1885'> +1.2785149e-12 </wgt>
<wgt id='1886'> +1.3000441e-12 </wgt>
<wgt id='1887'> +1.2713189e-12 </wgt>
<wgt id='1888'> +1.2632065e-12 </wgt>
<wgt id='1889'> +1.2288605e-12 </wgt>
<wgt id='1890'> +1.3097574e-12 </wgt>
<wgt id='1891'> +1.2322660e-12 </wgt>
<wgt id='1892'> +1.3120634e-12 </wgt>
<wgt id='1893'> +1.3016640e-12 </wgt>
<wgt id='1894'> +1.2631333e-12 </wgt>
<wgt id='1895'> +1.2454807e-12 </wgt>
<wgt id='1896'> +1.3158677e-12 </wgt>
<wgt id='1897'> +1.2770414e-12 </wgt>
<wgt id='1898'> +1.2956139e-12 </wgt>
<wgt id='1899'> +1.2414222e-12 </wgt>
<wgt id='1900'> +1.2792941e-12 </wgt>
<wgt id='1901'> +1.2672406e-12 </wgt>
<wgt id='1902'> +1.2464677e-12 </wgt>
<wgt id='1903'> +1.2667306e-12 </wgt>
<wgt id='1904'> +1.2533913e-12 </wgt>
<wgt id='1905'> +1.2453950e-12 </wgt>
<wgt id='1906'> +1.2992338e-12 </wgt>
<wgt id='1907'> +1.2728751e-12 </wgt>
<wgt id='1908'> +1.3082618e-12 </wgt>
<wgt id='1909'> +1.2567242e-12 </wgt>
<wgt id='1910'> +1.2310659e-12 </wgt>
<wgt id='1911'> +1.2448589e-12 </wgt>
<wgt id='1912'> +1.2592583e-12 </wgt>
<wgt id='1913'> +1.2617635e-12 </wgt>
<wgt id='1914'> +1.2927446e-12 </wgt>
<wgt id='1915'> +1.2650052e-12 </wgt>
<wgt id='1916'> +1.2353833e-12 </wgt>
<wgt id='1917'> +1.2644032e-12 </wgt>
<wgt id='1918'> +1.2787088e-12 </wgt>
<wgt id='1919'> +1.2637472e-12 </wgt>
</rwgt>
</event>
<event>
 9      1 +1.5607000e-12 3.47083300e+01 7.81860800e-03 1.40723100e-01
        1 -1    0    0  502    0 +0.0000000000e+00 +0.0000000000e+00 +3.2479152932e+01 3.2479152932e+01 0.0000000000e+00 0.0000e+00 -1.0000e+00
       -1 -1    0    0    0  501 -0.0000000000e+00 -0.0000000000e+00 -3.4696729109e+01 3.4696729109e+01 0.0000000000e+00 0.0000e+00 1.0000e+00
     1023  2    1    2    0    0 +1.2067076180e+01 -2.8880130641e+01 -7.2957455171e+00 3.5466828489e+01 1.4999724899e+01 0.0000e+00 0.0000e+00
  1000023  2    3    3    0    0 +7.0441623032e+00 -7.9238814092e+00 -5.8437013985e+00 1.3296973329e+01 5.5002304086e+00 0.0000e+00 0.0000e+00
       21  1    1    2  502  501 -1.2067076180e+01 +2.8880130641e+01 +5.0781693398e+00 3.1709053552e+01 0.0000000000e+00 0.0000e+00 1.0000e+00
  1000022  1    4    4    0    0 +6.5732151226e+00 -7.6355593135e+00 -5.8508403124e+00 1.2678377477e+01 5.0000000000e+00 0.0000e+00 1.0000e+00
      -11  1    4    4    0    0 -3.4909834055e-02 -6.4411661341e-03 -1.6219286602e-02 3.9032185614e-02 5.1100000000e-04 0.0000e+00 1.0000e+00
       11  1    4    4    0    0 +5.0585701459e-01 -2.8188092959e-01 +2.3358200513e-02 5.7956366719e-01 5.1100000000e-04 0.0000e+00 -1.0000e+00
  1000022  1    3    3    0    0 +5.0229138764e+00 -2.0956249231e+01 -1.4520441186e+00 2.2169855159e+01 5.0000000000e+00 0.0000e+00 -1.0000e+00
<mgrwt>
<rscale>  1 0.34708328E+02</rscale>
<asrwt>0</asrwt>
<pdfrwt beam="1">  1        1 0.49967927E-02 0.34708328E+02</pdfrwt>
<pdfrwt beam="2">  1       -1 0.53379584E-02 0.34708328E+02</pdfrwt>
<totfact> 0.23806584E+05</totfact>
</mgrwt>
<rwgt>
<wgt id='1001'> +1.5607000e-12 </wgt>
<wgt id='1002'> +1.5920512e-12 </wgt>
<wgt id='1003'> +1.5922006e-12 </wgt>
<wgt id='1004'> +1.5564119e-12 </wgt>
<wgt id='1005'> +1.5931315e-12 </wgt>
<wgt id='1006'> +1.3709791e-12 </wgt>
<wgt id='1007'> +1.4188061e-12 </wgt>
<wgt id='1008'> +1.4190660e-12 </wgt>
<wgt id='1009'> +1.3650124e-12 </wgt>
<wgt id='1010'> +1.4206997e-12 </wgt>
<wgt id='1011'> +1.8142995e-12 </wgt>
<wgt id='1012'> +1.8154991e-12 </wgt>
<wgt id='1013'> +1.8154561e-12 </wgt>
<wgt id='1014'> +1.8132881e-12 </wgt>
<wgt id='1015'> +1.8151704e-12 </wgt>
<wgt id='1016'> +1.8148034e-12 </wgt>
<wgt id='1017'> +1.8023843e-12 </wgt>
<wgt id='1018'> +1.8022699e-12 </wgt>
<wgt id='1019'> +1.8154561e-12 </wgt>
<wgt id='1020'> +1.8015292e-12 </wgt>
<wgt id='1021'> +1.5941934e-12 </wgt>
<wgt id='1022'> +1.6062510e-12 </wgt>
<wgt id='1023'> +1.6062926e-12 </wgt>
<wgt id='1024'> +1.5922006e-12 </wgt>
<wgt id='1025'> +1.6065416e-12 </wgt>
<wgt id='1026'> +2.1096924e-12 </wgt>
<wgt id='1027'> +2.0553528e-12 </wgt>
<wgt id='1028'> +2.0549810e-12 </wgt>
<wgt id='1029'> +2.1150859e-12 </wgt>
<wgt id='1030'> +2.0526131e-12 </wgt>
<wgt id='1031'> +1.2871008e-12 </wgt>
<wgt id='1032'> +1.3645732e-12 </wgt>
<wgt id='1033'> +1.3650124e-12 </wgt>
<wgt id='1034'> +1.2777141e-12 </wgt>
<wgt id='1035'> +1.3677736e-12 </wgt>
<wgt id='1036'> +1.1306390e-12 </wgt>
<wgt id='1037'> +1.2160820e-12 </wgt>
<wgt id='1038'> +1.2165820e-12 </wgt>
<wgt id='1039'> +1.1205873e-12 </wgt>
<wgt id='1040'> +1.2197333e-12 </wgt>
<wgt id='1041'> +1.4962429e-12 </wgt>
<wgt id='1042'> +1.5560939e-12 </wgt>
<wgt id='1043'> +1.5564119e-12 </wgt>
<wgt id='1044'> +1.4885929e-12 </wgt>
<wgt id='1045'> +1.5584038e-12 </wgt>
<wgt id='1046'> +1.5607000e-12 </wgt>
<wgt id='1047'> +1.6608307e-12 </wgt>
<wgt id='1048'> +1.5798655e-12 </wgt>
<wgt id='1049'> +1.4432739e-12 </wgt>
<wgt id='1050'> +1.5402713e-12 </wgt>
<wgt id='1051'> +1.5782581e-12 </wgt>
<wgt id='1052'> +1.6877924e-12 </wgt>
<wgt id='1053'> +1.5963227e-12 </wgt>
<wgt id='1054'> +1.4510772e-12 </wgt>
<wgt id='1055'> +1.5309315e-12 </wgt>
<wgt id='1056'> +1.5805932e-12 </wgt>
<wgt id='1057'> +1.5458235e-12 </wgt>
<wgt id='1058'> +1.5254325e-12 </wgt>
<wgt id='1059'> +1.5479751e-12 </wgt>
<wgt id='1060'> +1.5091411e-12 </wgt>
<wgt id='1061'> +1.5672913e-12 </wgt>
<wgt id='1062'> +1.5929041e-12 </wgt>
<wgt id='1063'> +1.6259906e-12 </wgt>
<wgt id='1064'> +1.5601957e-12 </wgt>
<wgt id='1065'> +1.5733801e-12 </wgt>
<wgt id='1066'> +1.4888049e-12 </wgt>
<wgt id='1067'> +1.5166817e-12 </wgt>
<wgt id='1068'> +1.5892380e-12 </wgt>
<wgt id='1069'> +1.6230051e-12 </wgt>
<wgt id='1070'> +1.5214071e-12 </wgt>
<wgt id='1071'> +1.5297838e-12 </wgt>
<wgt id='1072'> +1.5109745e-12 </wgt>
<wgt id='1073'> +1.6624697e-12 </wgt>
<wgt id='1074'> +1.5641066e-12 </wgt>
<wgt id='1075'> +1.5601340e-12 </wgt>
<wgt id='1076'> +1.6482190e-12 </wgt>
<wgt id='1077'> +1.5750030e-12 </wgt>
<wgt id='1078'> +1.5751386e-12 </wgt>
<wgt id='1079'> +1.6386792e-12 </wgt>
<wgt id='1080'> +1.4777204e-12 </wgt>
<wgt id='1081'> +1.5569362e-12 </wgt>
<wgt id='1082'> +1.5421068e-12 </wgt>
<wgt id='1083'> +1.5487861e-12 </wgt>
<wgt id='1084'> +1.5550304e-12 </wgt>
<wgt id='1085'> +1.5593956e-12 </wgt>
<wgt id='1086'> +1.5176410e-12 </wgt>
<wgt id='1087'> +1.5786475e-12 </wgt>
<wgt id='1088'> +1.6010774e-12 </wgt>
<wgt id='1089'> +1.6197769e-12 </wgt>
<wgt id='1090'> +1.6249428e-12 </wgt>
<wgt id='1091'> +1.5387651e-12 </wgt>
<wgt id='1092'> +1.5850609e-12 </wgt>
<wgt id='1093'> +1.6040449e-12 </wgt>
<wgt id='1094'> +1.4745706e-12 </wgt>
<wgt id='1095'> +1.6397175e-12 </wgt>
<wgt id='1096'> +1.6069832e-12 </wgt>
<wgt id='1097'> +1.5091490e-12 </wgt>
<wgt id='1098'> +1.5551369e-12 </wgt>
<wgt id='1099'> +1.5681614e-12 </wgt>
<wgt id='1100'> +1.6029355e-12 </wgt>
<wgt id='1101'> +1.4703683e-12 </wgt>
<wgt id='1102'> +1.5935297e-12 </wgt>
<wgt id='1103'> +1.6097739e-12 </wgt>
<wgt id='1104'> +1.5627053e-12 </wgt>
<wgt id='1105'> +1.5477477e-12 </wgt>
<wgt id='1106'> +1.5472940e-12 </wgt>
<wgt id='1107'> +1.6337320e-12 </wgt>
<wgt id='1108'> +1.5708551e-12 </wgt>
<wgt id='1109'> +1.5481793e-12 </wgt>
<wgt id='1110'> +1.4646633e-12 </wgt>
<wgt id='1111'> +1.6155593e-12 </wgt>
<wgt id='1112'> +1.5497264e-12 </wgt>
<wgt id='1113'> +1.5554605e-12 </wgt>
<wgt id='1114'> +1.6340954e-12 </wgt>
<wgt id='1115'> +1.5823023e-12 </wgt>
<wgt id='1116'> +1.5347102e-12 </wgt>
<wgt id='1117'> +1.5577083e-12 </wgt>
<wgt id='1118'> +1.5822167e-12 </wgt>
<wgt id='1119'> +1.5161178e-12 </wgt>
<wgt id='1120'> +1.5010119e-12 </wgt>
<wgt id='1121'> +1.5546147e-12 </wgt>
<wgt id='1122'> +1.5458460e-12 </wgt>
<wgt id='1123'> +1.5343240e-12 </wgt>
<wgt id='1124'> +1.5762102e-12 </wgt>
<wgt id='1125'> +1.5456558e-12 </wgt>
<wgt id='1126'> +1.5871870e-12 </wgt>
<wgt id='1127'> +1.5555169e-12 </wgt>
<wgt id='1128'> +1.5929041e-12 </wgt>
<wgt id='1129'> +1.5528571e-12 </wgt>
<wgt id='1130'> +1.5173813e-12 </wgt>
<wgt id='1131'> +1.5202471e-12 </wgt>
<wgt id='1132'> +1.6720577e-12 </wgt>
<wgt id='1133'> +1.5382000e-12 </wgt>
<wgt id='1134'> +1.6383353e-12 </wgt>
<wgt id='1135'> +1.4370755e-12 </wgt>
<wgt id='1136'> +1.5506501e-12 </wgt>
<wgt id='1137'> +1.5358261e-12 </wgt>
<wgt id='1138'> +1.4773936e-12 </wgt>
<wgt id='1139'> +1.5454905e-12 </wgt>
<wgt id='1140'> +1.6231438e-12 </wgt>
<wgt id='1141'> +1.5287955e-12 </wgt>
<wgt id='1142'> +1.5403382e-12 </wgt>
<wgt id='1143'> +1.5784265e-12 </wgt>
<wgt id='1144'> +1.5400504e-12 </wgt>
<wgt id='1145'> +1.5108411e-12 </wgt>
<wgt id='1146'> +1.5576254e-12 </wgt>
<wgt id='1147'> +1.1413258e-12 </wgt>
<wgt id='1148'> +1.1709472e-12 </wgt>
<wgt id='1149'> +1.2020559e-12 </wgt>
<wgt id='1150'> +1.1289752e-12 </wgt>
<wgt id='1151'> +1.0421287e-12 </wgt>
<wgt id='1152'> +1.3220483e-12 </wgt>
<wgt id='1153'> +1.3144496e-12 </wgt>
<wgt id='1154'> +1.3264791e-12 </wgt>
<wgt id='1155'> +1.3212169e-12 </wgt>
<wgt id='1156'> +1.3224811e-12 </wgt>
<wgt id='1157'> +1.3315151e-12 </wgt>
<wgt id='1158'> +1.3093498e-12 </wgt>
<wgt id='1159'> +1.3296888e-12 </wgt>
<wgt id='1160'> +1.3171850e-12 </wgt>
<wgt id='1161'> +1.3195386e-12 </wgt>
<wgt id='1162'> +1.3237615e-12 </wgt>
<wgt id='1163'> +1.3260923e-12 </wgt>
<wgt id='1164'> +1.3179980e-12 </wgt>
<wgt id='1165'> +1.3188707e-12 </wgt>
<wgt id='1166'> +1.3252490e-12 </wgt>
<wgt id='1167'> +1.3245764e-12 </wgt>
<wgt id='1168'> +1.3181059e-12 </wgt>
<wgt id='1169'> +1.3184453e-12 </wgt>
<wgt id='1170'> +1.3249970e-12 </wgt>
<wgt id='1171'> +1.3205905e-12 </wgt>
<wgt id='1172'> +1.3239533e-12 </wgt>
<wgt id='1173'> +1.3109913e-12 </wgt>
<wgt id='1174'> +1.3327458e-12 </wgt>
<wgt id='1175'> +1.3234636e-12 </wgt>
<wgt id='1176'> +1.3203188e-12 </wgt>
<wgt id='1177'> +1.3230321e-12 </wgt>
<wgt id='1178'> +1.3194522e-12 </wgt>
<wgt id='1179'> +1.3286670e-12 </wgt>
<wgt id='1180'> +1.3106932e-12 </wgt>
<wgt id='1181'> +1.3207977e-12 </wgt>
<wgt id='1182'> +1.3240179e-12 </wgt>
<wgt id='1183'> +1.3210091e-12 </wgt>
<wgt id='1184'> +1.3222656e-12 </wgt>
<wgt id='1185'> +1.3085160e-12 </wgt>
<wgt id='1186'> +1.3295035e-12 </wgt>
<wgt id='1187'> +1.3201342e-12 </wgt>
<wgt id='1188'> +1.3227154e-12 </wgt>
<wgt id='1189'> +1.3164554e-12 </wgt>
<wgt id='1190'> +1.3156650e-12 </wgt>
<wgt id='1191'> +1.3233996e-12 </wgt>
<wgt id='1192'> +1.3195577e-12 </wgt>
<wgt id='1193'> +1.2049854e-12 </wgt>
<wgt id='1194'> +1.2044881e-12 </wgt>
<wgt id='1195'> +1.2053618e-12 </wgt>
<wgt id='1196'> +1.2144496e-12 </wgt>
<wgt id='1197'> +1.1944570e-12 </wgt>
<wgt id='1198'> +1.2027651e-12 </wgt>
<wgt id='1199'> +1.2082797e-12 </wgt>
<wgt id='1200'> +1.2084194e-12 </wgt>
<wgt id='1201'> +1.2026757e-12 </wgt>
<wgt id='1202'> +1.2050992e-12 </wgt>
<wgt id='1203'> +1.2048142e-12 </wgt>
<wgt id='1204'> +1.2046287e-12 </wgt>
<wgt id='1205'> +1.2052358e-12 </wgt>
<wgt id='1206'> +1.2100410e-12 </wgt>
<wgt id='1207'> +1.1981259e-12 </wgt>
<wgt id='1208'> +1.1983966e-12 </wgt>
<wgt id='1209'> +1.2073895e-12 </wgt>
<wgt id='1210'> +1.2096335e-12 </wgt>
<wgt id='1211'> +1.1927341e-12 </wgt>
<wgt id='1212'> +1.2096331e-12 </wgt>
<wgt id='1213'> +1.2007161e-12 </wgt>
<wgt id='1214'> +1.1890786e-12 </wgt>
<wgt id='1215'> +1.2320351e-12 </wgt>
<wgt id='1216'> +1.2155003e-12 </wgt>
<wgt id='1217'> +1.1986069e-12 </wgt>
<wgt id='1218'> +1.2087454e-12 </wgt>
<wgt id='1219'> +1.2030729e-12 </wgt>
<wgt id='1220'> +1.2080561e-12 </wgt>
<wgt id='1221'> +1.2071832e-12 </wgt>
<wgt id='1222'> +1.2039484e-12 </wgt>
<wgt id='1223'> +1.2034722e-12 </wgt>
<wgt id='1224'> +1.2082284e-12 </wgt>
<wgt id='1225'> +1.2037364e-12 </wgt>
<wgt id='1226'> +1.1997736e-12 </wgt>
<wgt id='1227'> +1.2085222e-12 </wgt>
<wgt id='1228'> +1.2050295e-12 </wgt>
<wgt id='1229'> +1.2046152e-12 </wgt>
<wgt id='1230'> +1.1948527e-12 </wgt>
<wgt id='1231'> +1.2042260e-12 </wgt>
<wgt id='1232'> +1.2058585e-12 </wgt>
<wgt id='1233'> +1.2048196e-12 </wgt>
<wgt id='1234'> +1.2049854e-12 </wgt>
<wgt id='1235'> +1.1954198e-12 </wgt>
<wgt id='1236'> +1.1990148e-12 </wgt>
<wgt id='1237'> +1.2022560e-12 </wgt>
<wgt id='1238'> +1.2076134e-12 </wgt>
<wgt id='1239'> +1.2099114e-12 </wgt>
<wgt id='1240'> +1.2119610e-12 </wgt>
<wgt id='1241'> +1.2395034e-12 </wgt>
<wgt id='1242'> +1.2355856e-12 </wgt>
<wgt id='1243'> +1.2433942e-12 </wgt>
<wgt id='1244'> +1.2317447e-12 </wgt>
<wgt id='1245'> +1.2452451e-12 </wgt>
<wgt id='1246'> +1.2400442e-12 </wgt>
<wgt id='1247'> +1.2390837e-12 </wgt>
<wgt id='1248'> +1.2394986e-12 </wgt>
<wgt id='1249'> +1.2394773e-12 </wgt>
<wgt id='1250'> +1.2471945e-12 </wgt>
<wgt id='1251'> +1.2341194e-12 </wgt>
<wgt id='1252'> +1.2340951e-12 </wgt>
<wgt id='1253'> +1.2437431e-12 </wgt>
<wgt id='1254'> +1.2373662e-12 </wgt>
<wgt id='1255'> +1.2408009e-12 </wgt>
<wgt id='1256'> +1.2424201e-12 </wgt>
<wgt id='1257'> +1.2322669e-12 </wgt>
<wgt id='1258'> +1.2637090e-12 </wgt>
<wgt id='1259'> +1.2178419e-12 </wgt>
<wgt id='1260'> +1.2405391e-12 </wgt>
<wgt id='1261'> +1.2388628e-12 </wgt>
<wgt id='1262'> +1.2431545e-12 </wgt>
<wgt id='1263'> +1.2381158e-12 </wgt>
<wgt id='1264'> +1.2389992e-12 </wgt>
<wgt id='1265'> +1.2397446e-12 </wgt>
<wgt id='1266'> +1.2387512e-12 </wgt>
<wgt id='1267'> +1.2394750e-12 </wgt>
<wgt id='1268'> +1.2429070e-12 </wgt>
<wgt id='1269'> +1.2396778e-12 </wgt>
<wgt id='1270'> +1.2337521e-12 </wgt>
<wgt id='1271'> +1.2316833e-12 </wgt>
<wgt id='1272'> +1.2397684e-12 </wgt>
<wgt id='1273'> +1.2388312e-12 </wgt>
<wgt id='1274'> +1.2436107e-12 </wgt>
<wgt id='1275'> +1.2319164e-12 </wgt>
<wgt id='1276'> +1.2388465e-12 </wgt>
<wgt id='1277'> +1.2395808e-12 </wgt>
<wgt id='1278'> +1.2385961e-12 </wgt>
<wgt id='1279'> +1.2354515e-12 </wgt>
<wgt id='1280'> +1.2389659e-12 </wgt>
<wgt id='1281'> +1.2425624e-12 </wgt>
<wgt id='1282'> +1.2395034e-12 </wgt>
<wgt id='1283'> +1.2288245e-12 </wgt>
<wgt id='1284'> +1.2329087e-12 </wgt>
<wgt id='1285'> +1.2364628e-12 </wgt>
<wgt id='1286'> +1.2422957e-12 </wgt>
<wgt id='1287'> +1.2446083e-12 </wgt>
<wgt id='1288'> +1.2464424e-12 </wgt>
<wgt id='1289'> +1.1847658e-12 </wgt>
<wgt id='1290'> +1.1858481e-12 </wgt>
<wgt id='1291'> +1.1836038e-12 </wgt>
<wgt id='1292'> +1.1733815e-12 </wgt>
<wgt id='1293'> +1.1929934e-12 </wgt>
<wgt id='1294'> +1.1824622e-12 </wgt>
<wgt id='1295'> +1.1870153e-12 </wgt>
<wgt id='1296'> +1.1821365e-12 </wgt>
<wgt id='1297'> +1.1879113e-12 </wgt>
<wgt id='1298'> +1.1860993e-12 </wgt>
<wgt id='1299'> +1.1829555e-12 </wgt>
<wgt id='1300'> +1.1865311e-12 </wgt>
<wgt id='1301'> +1.1811895e-12 </wgt>
<wgt id='1302'> +1.1835297e-12 </wgt>
<wgt id='1303'> +1.1864858e-12 </wgt>
<wgt id='1304'> +1.1824437e-12 </wgt>
<wgt id='1305'> +1.1863375e-12 </wgt>
<wgt id='1306'> +1.1887436e-12 </wgt>
<wgt id='1307'> +1.1804898e-12 </wgt>
<wgt id='1308'> +1.1959065e-12 </wgt>
<wgt id='1309'> +1.1762790e-12 </wgt>
<wgt id='1310'> +1.1851401e-12 </wgt>
<wgt id='1311'> +1.1845362e-12 </wgt>
<wgt id='1312'> +1.1903317e-12 </wgt>
<wgt id='1313'> +1.1794135e-12 </wgt>
<wgt id='1314'> +1.1833211e-12 </wgt>
<wgt id='1315'> +1.1828429e-12 </wgt>
<wgt id='1316'> +1.1914729e-12 </wgt>
<wgt id='1317'> +1.1843923e-12 </wgt>
<wgt id='1318'> +1.1875025e-12 </wgt>
<wgt id='1319'> +1.1810696e-12 </wgt>
<wgt id='1320'> +1.2001212e-12 </wgt>
<wgt id='1321'> +1.1728669e-12 </wgt>
<wgt id='1322'> +1.1843025e-12 </wgt>
<wgt id='1323'> +1.1856727e-12 </wgt>
<wgt id='1324'> +1.1819873e-12 </wgt>
<wgt id='1325'> +1.1942554e-12 </wgt>
<wgt id='1326'> +1.1814925e-12 </wgt>
<wgt id='1327'> +1.1892411e-12 </wgt>
<wgt id='1328'> +1.1869015e-12 </wgt>
<wgt id='1329'> +1.1825243e-12 </wgt>
<wgt id='1330'> +1.1491974e-12 </wgt>
<wgt id='1331'> +1.2091003e-12 </wgt>
<wgt id='1332'> +1.2036776e-12 </wgt>
<wgt id='1333'> +1.1657984e-12 </wgt>
<wgt id='1334'> +1.1763228e-12 </wgt>
<wgt id='1335'> +1.2056886e-12 </wgt>
<wgt id='1336'> +1.1819214e-12 </wgt>
<wgt id='1337'> +1.1794461e-12 </wgt>
<wgt id='1338'> +1.1880429e-12 </wgt>
<wgt id='1339'> +1.1835993e-12 </wgt>
<wgt id='1340'> +1.1475721e-12 </wgt>
<wgt id='1341'> +1.1489037e-12 </wgt>
<wgt id='1342'> +1.1461303e-12 </wgt>
<wgt id='1343'> +1.1360808e-12 </wgt>
<wgt id='1344'> +1.1553201e-12 </wgt>
<wgt id='1345'> +1.1455072e-12 </wgt>
<wgt id='1346'> +1.1495027e-12 </wgt>
<wgt id='1347'> +1.1450852e-12 </wgt>
<wgt id='1348'> +1.1502744e-12 </wgt>
<wgt id='1349'> +1.1483337e-12 </wgt>
<wgt id='1350'> +1.1467261e-12 </wgt>
<wgt id='1351'> +1.1491613e-12 </wgt>
<wgt id='1352'> +1.1440612e-12 </wgt>
<wgt id='1353'> +1.1460109e-12 </wgt>
<wgt id='1354'> +1.1503084e-12 </wgt>
<wgt id='1355'> +1.1455599e-12 </wgt>
<wgt id='1356'> +1.1486524e-12 </wgt>
<wgt id='1357'> +1.1551193e-12 </wgt>
<wgt id='1358'> +1.1390021e-12 </wgt>
<wgt id='1359'> +1.1581320e-12 </wgt>
<wgt id='1360'> +1.1384589e-12 </wgt>
<wgt id='1361'> +1.1481368e-12 </wgt>
<wgt id='1362'> +1.1470062e-12 </wgt>
<wgt id='1363'> +1.1550307e-12 </wgt>
<wgt id='1364'> +1.1429199e-12 </wgt>
<wgt id='1365'> +1.1419418e-12 </wgt>
<wgt id='1366'> +1.1491184e-12 </wgt>
<wgt id='1367'> +1.1535465e-12 </wgt>
<wgt id='1368'> +1.1470492e-12 </wgt>
<wgt id='1369'> +1.1494982e-12 </wgt>
<wgt id='1370'> +1.1451420e-12 </wgt>
<wgt id='1371'> +1.1582865e-12 </wgt>
<wgt id='1372'> +1.1354933e-12 </wgt>
<wgt id='1373'> +1.1451829e-12 </wgt>
<wgt id='1374'> +1.1501345e-12 </wgt>
<wgt id='1375'> +1.1451655e-12 </wgt>
<wgt id='1376'> +1.1565632e-12 </wgt>
<wgt id='1377'> +1.1449208e-12 </wgt>
<wgt id='1378'> +1.1515479e-12 </wgt>
<wgt id='1379'> +1.1490829e-12 </wgt>
<wgt id='1380'> +1.1457146e-12 </wgt>
<wgt id='1381'> +1.1106325e-12 </wgt>
<wgt id='1382'> +1.1702910e-12 </wgt>
<wgt id='1383'> +1.1682384e-12 </wgt>
<wgt id='1384'> +1.1252707e-12 </wgt>
<wgt id='1385'> +1.1390304e-12 </wgt>
<wgt id='1386'> +1.1675510e-12 </wgt>
<wgt id='1387'> +1.1435658e-12 </wgt>
<wgt id='1388'> +1.1424913e-12 </wgt>
<wgt id='1389'> +1.1501443e-12 </wgt>
<wgt id='1390'> +1.1465229e-12 </wgt>
<wgt id='1391'> +1.1424959e-12 </wgt>
<wgt id='1392'> +1.0905866e-12 </wgt>
<wgt id='1393'> +1.1075798e-12 </wgt>
<wgt id='1394'> +1.1251776e-12 </wgt>
<wgt id='1395'> +1.1601707e-12 </wgt>
<wgt id='1396'> +1.1436367e-12 </wgt>
<wgt id='1397'> +1.0996175e-12 </wgt>
<wgt id='1398'> +1.1098044e-12 </wgt>
<wgt id='1399'> +1.1179704e-12 </wgt>
<wgt id='1400'> +1.1259127e-12 </wgt>
<wgt id='1401'> +1.1348894e-12 </wgt>
<wgt id='1402'> +1.1506658e-12 </wgt>
<wgt id='1403'> +1.1575311e-12 </wgt>
<wgt id='1404'> +1.1632784e-12 </wgt>
<wgt id='1405'> +1.1436367e-12 </wgt>
<wgt id='1406'> +1.1402924e-12 </wgt>
<wgt id='1407'> +1.1423828e-12 </wgt>
<wgt id='1408'> +1.1449710e-12 </wgt>
<wgt id='1409'> +1.1468021e-12 </wgt>
<wgt id='1410'> +1.2071362e-12 </wgt>
<wgt id='1411'> +1.2070996e-12 </wgt>
<wgt id='1412'> +1.2071730e-12 </wgt>
<wgt id='1413'> +1.2136334e-12 </wgt>
<wgt id='1414'> +1.2006462e-12 </wgt>
<wgt id='1415'> +1.1913348e-12 </wgt>
<wgt id='1416'> +1.2135207e-12 </wgt>
<wgt id='1417'> +1.2009767e-12 </wgt>
<wgt id='1418'> +1.2132110e-12 </wgt>
<wgt id='1419'> +1.2063870e-12 </wgt>
<wgt id='1420'> +1.2078321e-12 </wgt>
<wgt id='1421'> +1.2026886e-12 </wgt>
<wgt id='1422'> +1.2090416e-12 </wgt>
<wgt id='1423'> +1.2071853e-12 </wgt>
<wgt id='1424'> +1.2070407e-12 </wgt>
<wgt id='1425'> +1.2041248e-12 </wgt>
<wgt id='1426'> +1.2103833e-12 </wgt>
<wgt id='1427'> +1.2209273e-12 </wgt>
<wgt id='1428'> +1.1993702e-12 </wgt>
<wgt id='1429'> +1.2019837e-12 </wgt>
<wgt id='1430'> +1.2140548e-12 </wgt>
<wgt id='1431'> +1.2153098e-12 </wgt>
<wgt id='1432'> +1.2013901e-12 </wgt>
<wgt id='1433'> +1.2065261e-12 </wgt>
<wgt id='1434'> +1.2071200e-12 </wgt>
<wgt id='1435'> +1.2049658e-12 </wgt>
<wgt id='1436'> +1.2125908e-12 </wgt>
<wgt id='1437'> +1.2134911e-12 </wgt>
<wgt id='1438'> +1.2060049e-12 </wgt>
<wgt id='1439'> +1.2031192e-12 </wgt>
<wgt id='1440'> +1.2160963e-12 </wgt>
<wgt id='1441'> +1.2123498e-12 </wgt>
<wgt id='1442'> +1.1972132e-12 </wgt>
<wgt id='1443'> +1.2043018e-12 </wgt>
<wgt id='1444'> +1.2141901e-12 </wgt>
<wgt id='1445'> +1.2185246e-12 </wgt>
<wgt id='1446'> +1.2030362e-12 </wgt>
<wgt id='1447'> +1.2064743e-12 </wgt>
<wgt id='1448'> +1.2106170e-12 </wgt>
<wgt id='1449'> +1.2100136e-12 </wgt>
<wgt id='1450'> +1.2047905e-12 </wgt>
<wgt id='1451'> +1.2258673e-12 </wgt>
<wgt id='1452'> +1.1606862e-12 </wgt>
<wgt id='1453'> +1.2097989e-12 </wgt>
<wgt id='1454'> +1.1930965e-12 </wgt>
<wgt id='1455'> +1.1863146e-12 </wgt>
<wgt id='1456'> +1.2176199e-12 </wgt>
<wgt id='1457'> +1.2220409e-12 </wgt>
<wgt id='1458'> +1.2003352e-12 </wgt>
<wgt id='1459'> +1.2108527e-12 </wgt>
<wgt id='1460'> +1.1995090e-12 </wgt>
<wgt id='1461'> +1.2071362e-12 </wgt>
<wgt id='1462'> +1.1880510e-12 </wgt>
<wgt id='1463'> +1.2316031e-12 </wgt>
<wgt id='1464'> +1.2085718e-12 </wgt>
<wgt id='1465'> +1.1723778e-12 </wgt>
<wgt id='1466'> +1.1816368e-12 </wgt>
<wgt id='1467'> +1.1903929e-12 </wgt>
<wgt id='1468'> +1.1944117e-12 </wgt>
<wgt id='1469'> +1.2028179e-12 </wgt>
<wgt id='1470'> +1.2141250e-12 </wgt>
<wgt id='1471'> +1.2177975e-12 </wgt>
<wgt id='1472'> +1.2232572e-12 </wgt>
<wgt id='1473'> +1.2085718e-12 </wgt>
<wgt id='1474'> +1.2040483e-12 </wgt>
<wgt id='1475'> +1.2044463e-12 </wgt>
<wgt id='1476'> +1.2106882e-12 </wgt>
<wgt id='1477'> +1.2131277e-12 </wgt>
<wgt id='1478'> +1.1264011e-12 </wgt>
<wgt id='1479'> +1.1271184e-12 </wgt>
<wgt id='1480'> +1.1660235e-12 </wgt>
<wgt id='1481'> +1.1270475e-12 </wgt>
<wgt id='1482'> +1.1269541e-12 </wgt>
<wgt id='1483'> +1.1060756e-12 </wgt>
<wgt id='1484'> +1.1281802e-12 </wgt>
<wgt id='1485'> +1.1334486e-12 </wgt>
<wgt id='1486'> +1.1252780e-12 </wgt>
<wgt id='1487'> +1.1304498e-12 </wgt>
<wgt id='1488'> +1.1246656e-12 </wgt>
<wgt id='1489'> +1.1328596e-12 </wgt>
<wgt id='1490'> +1.1202834e-12 </wgt>
<wgt id='1491'> +1.1307282e-12 </wgt>
<wgt id='1492'> +1.1271436e-12 </wgt>
<wgt id='1493'> +1.1072215e-12 </wgt>
<wgt id='1494'> +1.1309102e-12 </wgt>
<wgt id='1495'> +1.1188438e-12 </wgt>
<wgt id='1496'> +1.1234380e-12 </wgt>
<wgt id='1497'> +1.1212104e-12 </wgt>
<wgt id='1498'> +1.1275664e-12 </wgt>
<wgt id='1499'> +1.1267756e-12 </wgt>
<wgt id='1500'> +1.1300860e-12 </wgt>
<wgt id='1501'> +1.1245102e-12 </wgt>
<wgt id='1502'> +1.1257380e-12 </wgt>
<wgt id='1503'> +1.1350921e-12 </wgt>
<wgt id='1504'> +1.1213076e-12 </wgt>
<wgt id='1505'> +1.1325538e-12 </wgt>
<wgt id='1506'> +1.1251624e-12 </wgt>
<wgt id='1507'> +1.1250624e-12 </wgt>
<wgt id='1508'> +1.1297204e-12 </wgt>
<wgt id='1509'> +1.3212159e-12 </wgt>
<wgt id='1510'> +1.3203939e-12 </wgt>
<wgt id='1511'> +1.3192000e-12 </wgt>
<wgt id='1512'> +1.3188444e-12 </wgt>
<wgt id='1513'> +1.3319795e-12 </wgt>
<wgt id='1514'> +1.3203734e-12 </wgt>
<wgt id='1515'> +1.3127214e-12 </wgt>
<wgt id='1516'> +1.3203558e-12 </wgt>
<wgt id='1517'> +1.3121973e-12 </wgt>
<wgt id='1518'> +1.3268011e-12 </wgt>
<wgt id='1519'> +1.3095005e-12 </wgt>
<wgt id='1520'> +1.3071854e-12 </wgt>
<wgt id='1521'> +1.3277753e-12 </wgt>
<wgt id='1522'> +1.3130197e-12 </wgt>
<wgt id='1523'> +1.3211953e-12 </wgt>
<wgt id='1524'> +1.3361692e-12 </wgt>
<wgt id='1525'> +1.3338501e-12 </wgt>
<wgt id='1526'> +1.3101147e-12 </wgt>
<wgt id='1527'> +1.3155418e-12 </wgt>
<wgt id='1528'> +1.3092529e-12 </wgt>
<wgt id='1529'> +1.3159046e-12 </wgt>
<wgt id='1530'> +1.3305256e-12 </wgt>
<wgt id='1531'> +1.3235678e-12 </wgt>
<wgt id='1532'> +1.3115334e-12 </wgt>
<wgt id='1533'> +1.3411080e-12 </wgt>
<wgt id='1534'> +1.3215581e-12 </wgt>
<wgt id='1535'> +1.3195897e-12 </wgt>
<wgt id='1536'> +1.3245975e-12 </wgt>
<wgt id='1537'> +1.3221360e-12 </wgt>
<wgt id='1538'> +1.3174856e-12 </wgt>
<wgt id='1539'> +1.3231385e-12 </wgt>
<wgt id='1540'> +1.3214963e-12 </wgt>
<wgt id='1541'> +1.3208162e-12 </wgt>
<wgt id='1542'> +1.3229955e-12 </wgt>
<wgt id='1543'> +1.3188845e-12 </wgt>
<wgt id='1544'> +1.3189599e-12 </wgt>
<wgt id='1545'> +1.3244602e-12 </wgt>
<wgt id='1546'> +1.3221828e-12 </wgt>
<wgt id='1547'> +1.3214262e-12 </wgt>
<wgt id='1548'> +1.3201905e-12 </wgt>
<wgt id='1549'> +1.3230831e-12 </wgt>
<wgt id='1550'> +1.3203846e-12 </wgt>
<wgt id='1551'> +1.3210899e-12 </wgt>
<wgt id='1552'> +1.3181487e-12 </wgt>
<wgt id='1553'> +1.3279168e-12 </wgt>
<wgt id='1554'> +1.3234029e-12 </wgt>
<wgt id='1555'> +1.3219553e-12 </wgt>
<wgt id='1556'> +1.3199868e-12 </wgt>
<wgt id='1557'> +1.3191076e-12 </wgt>
<wgt id='1558'> +1.3241402e-12 </wgt>
<wgt id='1559'> +1.3232029e-12 </wgt>
<wgt id='1560'> +1.3193034e-12 </wgt>
<wgt id='1561'> +1.3190285e-12 </wgt>
<wgt id='1562'> +1.3206265e-12 </wgt>
<wgt id='1563'> +1.3181579e-12 </wgt>
<wgt id='1564'> +1.3206669e-12 </wgt>
<wgt id='1565'> +1.3223388e-12 </wgt>
<wgt id='1566'> +1.3243938e-12 </wgt>
<wgt id='1567'> +1.3215971e-12 </wgt>
<wgt id='1568'> +1.3196817e-12 </wgt>
<wgt id='1569'> +1.3212594e-12 </wgt>
<wgt id='1570'> +1.3204431e-12 </wgt>
<wgt id='1571'> +1.3215040e-12 </wgt>
<wgt id='1572'> +1.3216585e-12 </wgt>
<wgt id='1573'> +1.3217645e-12 </wgt>
<wgt id='1574'> +1.3221322e-12 </wgt>
<wgt id='1575'> +1.3205600e-12 </wgt>
<wgt id='1576'> +1.3198773e-12 </wgt>
<wgt id='1577'> +1.3225143e-12 </wgt>
<wgt id='1578'> +1.3214591e-12 </wgt>
<wgt id='1579'> +1.3226988e-12 </wgt>
<wgt id='1580'> +1.3202542e-12 </wgt>
<wgt id='1581'> +1.3179986e-12 </wgt>
<wgt id='1582'> +1.3211066e-12 </wgt>
<wgt id='1583'> +1.3210981e-12 </wgt>
<wgt id='1584'> +1.3213484e-12 </wgt>
<wgt id='1585'> +1.3211890e-12 </wgt>
<wgt id='1586'> +1.3210359e-12 </wgt>
<wgt id='1587'> +1.3215977e-12 </wgt>
<wgt id='1588'> +1.3225552e-12 </wgt>
<wgt id='1589'> +1.3224671e-12 </wgt>
<wgt id='1590'> +1.3213389e-12 </wgt>
<wgt id='1591'> +1.3221577e-12 </wgt>
<wgt id='1592'> +1.3216675e-12 </wgt>
<wgt id='1593'> +1.3234958e-12 </wgt>
<wgt id='1594'> +1.3209401e-12 </wgt>
<wgt id='1595'> +1.3217669e-12 </wgt>
<wgt id='1596'> +1.3204773e-12 </wgt>
<wgt id='1597'> +1.3214705e-12 </wgt>
<wgt id='1598'> +1.3216732e-12 </wgt>
<wgt id='1599'> +1.3209484e-12 </wgt>
<wgt id='1600'> +1.3213332e-12 </wgt>
<wgt id='1601'> +1.3210887e-12 </wgt>
<wgt id='1602'> +1.3211871e-12 </wgt>
<wgt id='1603'> +1.3209846e-12 </wgt>
<wgt id='1604'> +1.3204335e-12 </wgt>
<wgt id='1605'> +1.3208365e-12 </wgt>
<wgt id='1606'> +1.3207557e-12 </wgt>
<wgt id='1607'> +1.3218608e-12 </wgt>
<wgt id='1608'> +1.3212884e-12 </wgt>
<wgt id='1609'> +1.3201403e-12 </wgt>
<wgt id='1610'> +1.2949728e-12 </wgt>
<wgt id='1611'> +1.3555813e-12 </wgt>
<wgt id='1612'> +1.4740075e-12 </wgt>
<wgt id='1613'> +1.4733106e-12 </wgt>
<wgt id='1614'> +1.5066279e-12 </wgt>
<wgt id='1615'> +1.4788829e-12 </wgt>
<wgt id='1616'> +1.5337364e-12 </wgt>
<wgt id='1617'> +1.5646281e-12 </wgt>
<wgt id='1618'> +1.5686905e-12 </wgt>
<wgt id='1619'> +1.4900067e-12 </wgt>
<wgt id='1620'> +1.4566142e-12 </wgt>
<wgt id='1621'> +1.4598776e-12 </wgt>
<wgt id='1622'> +1.4324542e-12 </wgt>
<wgt id='1623'> +1.4467893e-12 </wgt>
<wgt id='1624'> +1.4493937e-12 </wgt>
<wgt id='1625'> +1.4739750e-12 </wgt>
<wgt id='1626'> +1.3815620e-12 </wgt>
<wgt id='1627'> +1.4547947e-12 </wgt>
<wgt id='1628'> +1.5014797e-12 </wgt>
<wgt id='1629'> +1.4892540e-12 </wgt>
<wgt id='1630'> +1.4680448e-12 </wgt>
<wgt id='1631'> +1.4819836e-12 </wgt>
<wgt id='1632'> +1.3607130e-12 </wgt>
<wgt id='1633'> +1.4436316e-12 </wgt>
<wgt id='1634'> +1.4186952e-12 </wgt>
<wgt id='1635'> +1.5052673e-12 </wgt>
<wgt id='1636'> +1.5985844e-12 </wgt>
<wgt id='1637'> +1.5004843e-12 </wgt>
<wgt id='1638'> +1.4583012e-12 </wgt>
<wgt id='1639'> +1.5037715e-12 </wgt>
<wgt id='1640'> +1.4310518e-12 </wgt>
<wgt id='1641'> +1.4668488e-12 </wgt>
<wgt id='1642'> +1.4264806e-12 </wgt>
<wgt id='1643'> +1.4897988e-12 </wgt>
<wgt id='1644'> +1.4224770e-12 </wgt>
<wgt id='1645'> +1.4256637e-12 </wgt>
<wgt id='1646'> +1.4312276e-12 </wgt>
<wgt id='1647'> +1.4651865e-12 </wgt>
<wgt id='1648'> +1.5277975e-12 </wgt>
<wgt id='1649'> +1.5795240e-12 </wgt>
<wgt id='1650'> +1.4536013e-12 </wgt>
<wgt id='1651'> +1.4553189e-12 </wgt>
<wgt id='1652'> +1.4242459e-12 </wgt>
<wgt id='1653'> +1.5725247e-12 </wgt>
<wgt id='1654'> +1.5291426e-12 </wgt>
<wgt id='1655'> +1.4806427e-12 </wgt>
<wgt id='1656'> +1.3997296e-12 </wgt>
<wgt id='1657'> +1.5091748e-12 </wgt>
<wgt id='1658'> +1.4385008e-12 </wgt>
<wgt id='1659'> +1.4493937e-12 </wgt>
<wgt id='1660'> +1.5117619e-12 </wgt>
<wgt id='1661'> +1.4326315e-12 </wgt>
<wgt id='1662'> +1.4252177e-12 </wgt>
<wgt id='1663'> +1.4409838e-12 </wgt>
<wgt id='1664'> +1.4558462e-12 </wgt>
<wgt id='1665'> +1.4040417e-12 </wgt>
<wgt id='1666'> +1.4556991e-12 </wgt>
<wgt id='1667'> +1.4682824e-12 </wgt>
<wgt id='1668'> +1.5512242e-12 </wgt>
<wgt id='1669'> +1.4604481e-12 </wgt>
<wgt id='1670'> +1.4866994e-12 </wgt>
<wgt id='1671'> +1.3767909e-12 </wgt>
<wgt id='1672'> +1.4282702e-12 </wgt>
<wgt id='1673'> +1.5306746e-12 </wgt>
<wgt id='1674'> +1.5211920e-12 </wgt>
<wgt id='1675'> +1.4351907e-12 </wgt>
<wgt id='1676'> +1.5309561e-12 </wgt>
<wgt id='1677'> +1.4768273e-12 </wgt>
<wgt id='1678'> +1.4816921e-12 </wgt>
<wgt id='1679'> +1.5396159e-12 </wgt>
<wgt id='1680'> +1.5608646e-12 </wgt>
<wgt id='1681'> +1.4543431e-12 </wgt>
<wgt id='1682'> +1.4165977e-12 </wgt>
<wgt id='1683'> +1.4549022e-12 </wgt>
<wgt id='1684'> +1.3768360e-12 </wgt>
<wgt id='1685'> +1.4674022e-12 </wgt>
<wgt id='1686'> +1.4591487e-12 </wgt>
<wgt id='1687'> +1.4810183e-12 </wgt>
<wgt id='1688'> +1.4673795e-12 </wgt>
<wgt id='1689'> +1.4455651e-12 </wgt>
<wgt id='1690'> +1.4892905e-12 </wgt>
<wgt id='1691'> +1.5252787e-12 </wgt>
<wgt id='1692'> +1.4978455e-12 </wgt>
<wgt id='1693'> +1.4280912e-12 </wgt>
<wgt id='1694'> +1.3857468e-12 </wgt>
<wgt id='1695'> +1.4267982e-12 </wgt>
<wgt id='1696'> +1.4996422e-12 </wgt>
<wgt id='1697'> +1.5769136e-12 </wgt>
<wgt id='1698'> +1.4658815e-12 </wgt>
<wgt id='1699'> +1.5899353e-12 </wgt>
<wgt id='1700'> +1.4648049e-12 </wgt>
<wgt id='1701'> +1.4929281e-12 </wgt>
<wgt id='1702'> +1.5494155e-12 </wgt>
<wgt id='1703'> +1.4811600e-12 </wgt>
<wgt id='1704'> +1.4768647e-12 </wgt>
<wgt id='1705'> +1.4142880e-12 </wgt>
<wgt id='1706'> +1.5406872e-12 </wgt>
<wgt id='1707'> +1.4306057e-12 </wgt>
<wgt id='1708'> +1.5059494e-12 </wgt>
<wgt id='1709'> +1.4848096e-12 </wgt>
<wgt id='1710'> +1.4981648e-12 </wgt>
<wgt id='1711'> +1.4726016e-12 </wgt>
<wgt id='1712'> +1.4567220e-12 </wgt>
<wgt id='1713'> +1.1431522e-12 </wgt>
<wgt id='1714'> +1.1187443e-12 </wgt>
<wgt id='1715'> +1.1720141e-12 </wgt>
<wgt id='1716'> +1.2520093e-12 </wgt>
<wgt id='1717'> +1.1920809e-12 </wgt>
<wgt id='1718'> +1.1081206e-12 </wgt>
<wgt id='1719'> +1.0570506e-12 </wgt>
<wgt id='1720'> +1.1629038e-12 </wgt>
<wgt id='1721'> +1.1666243e-12 </wgt>
<wgt id='1722'> +1.1510806e-12 </wgt>
<wgt id='1723'> +1.0761738e-12 </wgt>
<wgt id='1724'> +1.0718282e-12 </wgt>
<wgt id='1725'> +1.1574833e-12 </wgt>
<wgt id='1726'> +1.1761680e-12 </wgt>
<wgt id='1727'> +1.1228428e-12 </wgt>
<wgt id='1728'> +1.1353161e-12 </wgt>
<wgt id='1729'> +1.1199919e-12 </wgt>
<wgt id='1730'> +1.0933065e-12 </wgt>
<wgt id='1731'> +1.0746814e-12 </wgt>
<wgt id='1732'> +1.1458982e-12 </wgt>
<wgt id='1733'> +1.1858162e-12 </wgt>
<wgt id='1734'> +1.2259157e-12 </wgt>
<wgt id='1735'> +1.1736702e-12 </wgt>
<wgt id='1736'> +1.1769323e-12 </wgt>
<wgt id='1737'> +1.1654715e-12 </wgt>
<wgt id='1738'> +1.1691771e-12 </wgt>
<wgt id='1739'> +1.1292429e-12 </wgt>
<wgt id='1740'> +1.1424480e-12 </wgt>
<wgt id='1741'> +1.1092395e-12 </wgt>
<wgt id='1742'> +1.1473116e-12 </wgt>
<wgt id='1743'> +1.2051316e-12 </wgt>
<wgt id='1744'> +1.2183769e-12 </wgt>
<wgt id='1745'> +1.0492735e-12 </wgt>
<wgt id='1746'> +1.1696673e-12 </wgt>
<wgt id='1747'> +1.1310036e-12 </wgt>
<wgt id='1748'> +1.2185241e-12 </wgt>
<wgt id='1749'> +1.1376385e-12 </wgt>
<wgt id='1750'> +1.1533288e-12 </wgt>
<wgt id='1751'> +1.0522321e-12 </wgt>
<wgt id='1752'> +1.1643484e-12 </wgt>
<wgt id='1753'> +1.1684886e-12 </wgt>
<wgt id='1754'> +1.1747456e-12 </wgt>
<wgt id='1755'> +1.1580135e-12 </wgt>
<wgt id='1756'> +1.1505109e-12 </wgt>
<wgt id='1757'> +1.1495487e-12 </wgt>
<wgt id='1758'> +1.1644969e-12 </wgt>
<wgt id='1759'> +1.1271439e-12 </wgt>
<wgt id='1760'> +1.1194984e-12 </wgt>
<wgt id='1761'> +1.1126057e-12 </wgt>
<wgt id='1762'> +1.1963119e-12 </wgt>
<wgt id='1763'> +1.1878238e-12 </wgt>
<wgt id='1764'> +1.1690448e-12 </wgt>
<wgt id='1765'> +1.1244673e-12 </wgt>
<wgt id='1766'> +1.0585235e-12 </wgt>
<wgt id='1767'> +1.1469602e-12 </wgt>
<wgt id='1768'> +1.1354953e-12 </wgt>
<wgt id='1769'> +1.1147800e-12 </wgt>
<wgt id='1770'> +1.2003661e-12 </wgt>
<wgt id='1771'> +1.1604977e-12 </wgt>
<wgt id='1772'> +1.1915849e-12 </wgt>
<wgt id='1773'> +1.1932410e-12 </wgt>
<wgt id='1774'> +1.1499135e-12 </wgt>
<wgt id='1775'> +1.1676932e-12 </wgt>
<wgt id='1776'> +1.0918990e-12 </wgt>
<wgt id='1777'> +1.1369477e-12 </wgt>
<wgt id='1778'> +1.1444616e-12 </wgt>
<wgt id='1779'> +1.1530725e-12 </wgt>
<wgt id='1780'> +1.1110838e-12 </wgt>
<wgt id='1781'> +1.1635860e-12 </wgt>
<wgt id='1782'> +1.0929682e-12 </wgt>
<wgt id='1783'> +1.1252420e-12 </wgt>
<wgt id='1784'> +1.1335649e-12 </wgt>
<wgt id='1785'> +1.0394137e-12 </wgt>
<wgt id='1786'> +1.0187165e-12 </wgt>
<wgt id='1787'> +1.1282640e-12 </wgt>
<wgt id='1788'> +1.1610298e-12 </wgt>
<wgt id='1789'> +1.0613880e-12 </wgt>
<wgt id='1790'> +1.1102051e-12 </wgt>
<wgt id='1791'> +1.1765223e-12 </wgt>
<wgt id='1792'> +1.0918465e-12 </wgt>
<wgt id='1793'> +1.1945380e-12 </wgt>
<wgt id='1794'> +1.1670451e-12 </wgt>
<wgt id='1795'> +1.1860246e-12 </wgt>
<wgt id='1796'> +1.1268326e-12 </wgt>
<wgt id='1797'> +1.1656769e-12 </wgt>
<wgt id='1798'> +1.1429269e-12 </wgt>
<wgt id='1799'> +1.1440926e-12 </wgt>
<wgt id='1800'> +1.1282323e-12 </wgt>
<wgt id='1801'> +1.1823710e-12 </wgt>
<wgt id='1802'> +1.1108452e-12 </wgt>
<wgt id='1803'> +1.1616151e-12 </wgt>
<wgt id='1804'> +1.2041470e-12 </wgt>
<wgt id='1805'> +1.1223516e-12 </wgt>
<wgt id='1806'> +1.1441791e-12 </wgt>
<wgt id='1807'> +1.1251648e-12 </wgt>
<wgt id='1808'> +1.1403541e-12 </wgt>
<wgt id='1809'> +1.0984301e-12 </wgt>
<wgt id='1810'> +1.1744802e-12 </wgt>
<wgt id='1811'> +1.1498120e-12 </wgt>
<wgt id='1812'> +1.1901342e-12 </wgt>
<wgt id='1813'> +1.1517130e-12 </wgt>
<wgt id='1814'> +1.1082811e-12 </wgt>
<wgt id='1815'> +1.3482337e-12 </wgt>
<wgt id='1816'> +1.1431522e-12 </wgt>
<wgt id='1817'> +1.1187443e-12 </wgt>
<wgt id='1818'> +1.1720141e-12 </wgt>
<wgt id='1819'> +1.2520093e-12 </wgt>
<wgt id='1820'> +1.1920809e-12 </wgt>
<wgt id='1821'> +1.1081206e-12 </wgt>
<wgt id='1822'> +1.0570506e-12 </wgt>
<wgt id='1823'> +1.1629038e-12 </wgt>
<wgt id='1824'> +1.1666243e-12 </wgt>
<wgt id='1825'> +1.1510806e-12 </wgt>
<wgt id='1826'> +1.0761738e-12 </wgt>
<wgt id='1827'> +1.0718282e-12 </wgt>
<wgt id='1828'> +1.1574833e-12 </wgt>
<wgt id='1829'> +1.1761680e-12 </wgt>
<wgt id='1830'> +1.1228428e-12 </wgt>
<wgt id='1831'> +1.1353161e-12 </wgt>
<wgt id='1832'> +1.1199919e-12 </wgt>
<wgt id='1833'> +1.0933065e-12 </wgt>
<wgt id='1834'> +1.0746814e-12 </wgt>
<wgt id='1835'> +1.1458982e-12 </wgt>
<wgt id='1836'> +1.1858162e-12 </wgt>
<wgt id='1837'> +1.2259157e-12 </wgt>
<wgt id='1838'> +1.1736702e-12 </wgt>
<wgt id='1839'> +1.1769323e-12 </wgt>
<wgt id='1840'> +1.1654715e-12 </wgt>
<wgt id='1841'> +1.1691771e-12 </wgt>
<wgt id='1842'> +1.1292429e-12 </wgt>
<wgt id='1843'> +1.1424480e-12 </wgt>
<wgt id='1844'> +1.1092395e-12 </wgt>
<wgt id='1845'> +1.1473116e-12 </wgt>
<wgt id='1846'> +1.2051316e-12 </wgt>
<wgt id='1847'> +1.2183769e-12 </wgt>
<wgt id='1848'> +1.0492735e-12 </wgt>
<wgt id='1849'> +1.1696673e-12 </wgt>
<wgt id='1850'> +1.1310036e-12 </wgt>
<wgt id='1851'> +1.2185241e-12 </wgt>
<wgt id='1852'> +1.1376385e-12 </wgt>
<wgt id='1853'> +1.1533288e-12 </wgt>
<wgt id='1854'> +1.0522321e-12 </wgt>
<wgt id='1855'> +1.1643484e-12 </wgt>
<wgt id='1856'> +1.1684886e-12 </wgt>
<wgt id='1857'> +1.1747456e-12 </wgt>
<wgt id='1858'> +1.1580135e-12 </wgt>
<wgt id='1859'> +1.1505109e-12 </wgt>
<wgt id='1860'> +1.1495487e-12 </wgt>
<wgt id='1861'> +1.1644969e-12 </wgt>
<wgt id='1862'> +1.1271439e-12 </wgt>
<wgt id='1863'> +1.1194984e-12 </wgt>
<wgt id='1864'> +1.1126057e-12 </wgt>
<wgt id='1865'> +1.1963119e-12 </wgt>
<wgt id='1866'> +1.1878238e-12 </wgt>
<wgt id='1867'> +1.1690448e-12 </wgt>
<wgt id='1868'> +1.1244673e-12 </wgt>
<wgt id='1869'> +1.0585235e-12 </wgt>
<wgt id='1870'> +1.1469602e-12 </wgt>
<wgt id='1871'> +1.1354953e-12 </wgt>
<wgt id='1872'> +1.1147800e-12 </wgt>
<wgt id='1873'> +1.2003661e-12 </wgt>
<wgt id='1874'> +1.1604977e-12 </wgt>
<wgt id='1875'> +1.1915849e-12 </wgt>
<wgt id='1876'> +1.1932410e-12 </wgt>
<wgt id='1877'> +1.1499135e-12 </wgt>
<wgt id='1878'> +1.1676932e-12 </wgt>
<wgt id='1879'> +1.0918990e-12 </wgt>
<wgt id='1880'> +1.1369477e-12 </wgt>
<wgt id='1881'> +1.1444616e-12 </wgt>
<wgt id='1882'> +1.1530725e-12 </wgt>
<wgt id='1883'> +1.1110838e-12 </wgt>
<wgt id='1884'> +1.1635860e-12 </wgt>
<wgt id='1885'> +1.0929682e-12 </wgt>
<wgt id='1886'> +1.1252420e-12 </wgt>
<wgt id='1887'> +1.1335649e-12 </wgt>
<wgt id='1888'> +1.0394137e-12 </wgt>
<wgt id='1889'> +1.0187165e-12 </wgt>
<wgt id='1890'> +1.1282640e-12 </wgt>
<wgt id='1891'> +1.1610298e-12 </wgt>
<wgt id='1892'> +1.0613880e-12 </wgt>
<wgt id='1893'> +1.1102051e-12 </wgt>
<wgt id='1894'> +1.1765223e-12 </wgt>
<wgt id='1895'> +1.0918465e-12 </wgt>
<wgt id='1896'> +1.1945380e-12 </wgt>
<wgt id='1897'> +1.1670451e-12 </wgt>
<wgt id='1898'> +1.1860246e-12 </wgt>
<wgt id='1899'> +1.1268326e-12 </wgt>
<wgt id='1900'> +1.1656769e-12 </wgt>
<wgt id='1901'> +1.1429269e-12 </wgt>
<wgt id='1902'> +1.1440926e-12 </wgt>
<wgt id='1903'> +1.1282323e-12 </wgt>
<wgt id='1904'> +1.1823710e-12 </wgt>
<wgt id='1905'> +1.1108452e-12 </wgt>
<wgt id='1906'> +1.1616151e-12 </wgt>
<wgt id='1907'> +1.2041470e-12 </wgt>
<wgt id='1908'> +1.1223516e-12 </wgt>
<wgt id='1909'> +1.1441791e-12 </wgt>
<wgt id='1910'> +1.1251648e-12 </wgt>
<wgt id='1911'> +1.1403541e-12 </wgt>
<wgt id='1912'> +1.0984301e-12 </wgt>
<wgt id='1913'> +1.1744802e-12 </wgt>
<wgt id='1914'> +1.1498120e-12 </wgt>
<wgt id='1915'> +1.1901342e-12 </wgt>
<wgt id='1916'> +1.1517130e-12 </wgt>
<wgt id='1917'> +1.1346577e-12 </wgt>
<wgt id='1918'> +1.1614151e-12 </wgt>
<wgt id='1919'> +1.2154487e-12 </wgt>
</rwgt>
</event>
<event>
 9      1 +1.5607000e-12 2.50559300e+01 7.81860800e-03 1.50589600e-01
       -1 -1    0    0    0  501 -0.0000000000e+00 +0.0000000000e+00 +1.6655552034e+00 1.6655552034e+00 0.0000000000e+00 0.0000e+00 1.0000e+00
        1 -1    0    0  502    0 +0.0000000000e+00 -0.0000000000e+00 -9.6290916173e+02 9.6290916173e+02 0.0000000000e+00 0.0000e+00 -1.0000e+00
     1023  2    1    2    0    0 +7.4312058678e+00 -1.8643023497e+01 -9.9795669266e+01 1.0289302759e+02 1.5000479187e+01 0.0000e+00 0.0000e+00
  1000023  2    3    3    0    0 +2.4849357099e+00 -1.1661791849e+01 -7.5843054221e+01 7.6971396632e+01 5.5004301102e+00 0.0000e+00 0.0000e+00
       21  1    1    2  502  501 -7.4312058678e+00 +1.8643023497e+01 -8.6144793726e+02 8.6168168934e+02 0.0000000000e+00 0.0000e+00 -1.0000e+00
  1000022  1    4    4    0    0 +2.1697338032e+00 -1.1348835495e+01 -7.1358453706e+01 7.2460559805e+01 5.0000000000e+00 0.0000e+00 -1.0000e+00
      -11  1    4    4    0    0 +1.1152258567e-01 -2.0510953643e-01 -2.9245623794e+00 2.9338664900e+00 5.1100000000e-04 0.0000e+00 1.0000e+00
       11  1    4    4    0    0 +2.0367932103e-01 -1.0784681811e-01 -1.5600381351e+00 1.5769703377e+00 5.1100000000e-04 0.0000e+00 -1.0000e+00
  1000022  1    3    3    0    0 +4.9462701579e+00 -6.9812316480e+00 -2.3952615045e+01 2.5921630954e+01 5.0000000000e+00 0.0000e+00 1.0000e+00
<mgrwt>
<rscale>  1 0.25055928E+02</rscale>
<asrwt>0</asrwt>
<pdfrwt beam="1">  1        1 0.14813965E+00 0.25055928E+02</pdfrwt>
<pdfrwt beam="2">  1       -1 0.25623965E-03 0.25055928E+02</pdfrwt>
<totfact> 0.17251854E+05</totfact>
</mgrwt>
<rwgt>
<wgt id='1001'> +1.5607000e-12 </wgt>
<wgt id='1002'> +1.5495673e-12 </wgt>
<wgt id='1003'> +1.5478542e-12 </wgt>
<wgt id='1004'> +1.5622915e-12 </wgt>
<wgt id='1005'> +1.5221956e-12 </wgt>
<wgt id='1006'> +1.3586135e-12 </wgt>
<wgt id='1007'> +1.3667609e-12 </wgt>
<wgt id='1008'> +1.3669680e-12 </wgt>
<wgt id='1009'> +1.3536391e-12 </wgt>
<wgt id='1010'> +1.3621159e-12 </wgt>
<wgt id='1011'> +1.8370504e-12 </wgt>
<wgt id='1012'> +1.7914524e-12 </wgt>
<wgt id='1013'> +1.7864433e-12 </wgt>
<wgt id='1014'> +1.8510699e-12 </wgt>
<wgt id='1015'> +1.7266126e-12 </wgt>
<wgt id='1016'> +1.7718635e-12 </wgt>
<wgt id='1017'> +1.7247286e-12 </wgt>
<wgt id='1018'> +1.7196610e-12 </wgt>
<wgt id='1019'> +1.7864433e-12 </wgt>
<wgt id='1020'> +1.6598363e-12 </wgt>
<wgt id='1021'> +1.5424345e-12 </wgt>
<wgt id='1022'> +1.5212580e-12 </wgt>
<wgt id='1023'> +1.5186970e-12 </wgt>
<wgt id='1024'> +1.5478542e-12 </wgt>
<wgt id='1025'> +1.4852817e-12 </wgt>
<wgt id='1026'> +2.0856042e-12 </wgt>
<wgt id='1027'> +1.9939561e-12 </wgt>
<wgt id='1028'> +1.9847328e-12 </wgt>
<wgt id='1029'> +2.1166546e-12 </wgt>
<wgt id='1030'> +1.8827372e-12 </wgt>
<wgt id='1031'> +1.3225981e-12 </wgt>
<wgt id='1032'> +1.3515608e-12 </wgt>
<wgt id='1033'> +1.3536391e-12 </wgt>
<wgt id='1034'> +1.3094293e-12 </wgt>
<wgt id='1035'> +1.3666546e-12 </wgt>
<wgt id='1036'> +1.1513421e-12 </wgt>
<wgt id='1037'> +1.1921137e-12 </wgt>
<wgt id='1038'> +1.1954493e-12 </wgt>
<wgt id='1039'> +1.1345479e-12 </wgt>
<wgt id='1040'> +1.2229321e-12 </wgt>
<wgt id='1041'> +1.5567882e-12 </wgt>
<wgt id='1042'> +1.5625374e-12 </wgt>
<wgt id='1043'> +1.5622915e-12 </wgt>
<wgt id='1044'> +1.5514679e-12 </wgt>
<wgt id='1045'> +1.5501839e-12 </wgt>
<wgt id='1046'> +1.5607000e-12 </wgt>
<wgt id='1047'> +1.5432395e-12 </wgt>
<wgt id='1048'> +1.6135254e-12 </wgt>
<wgt id='1049'> +1.4993280e-12 </wgt>
<wgt id='1050'> +1.5435678e-12 </wgt>
<wgt id='1051'> +1.5453325e-12 </wgt>
<wgt id='1052'> +1.5963332e-12 </wgt>
<wgt id='1053'> +1.5949150e-12 </wgt>
<wgt id='1054'> +1.5370949e-12 </wgt>
<wgt id='1055'> +1.6002750e-12 </wgt>
<wgt id='1056'> +1.4766673e-12 </wgt>
<wgt id='1057'> +1.5122940e-12 </wgt>
<wgt id='1058'> +1.5410649e-12 </wgt>
<wgt id='1059'> +1.5400614e-12 </wgt>
<wgt id='1060'> +1.5308623e-12 </wgt>
<wgt id='1061'> +1.6108855e-12 </wgt>
<wgt id='1062'> +1.5395944e-12 </wgt>
<wgt id='1063'> +1.5419329e-12 </wgt>
<wgt id='1064'> +1.5722365e-12 </wgt>
<wgt id='1065'> +1.5858458e-12 </wgt>
<wgt id='1066'> +1.5742758e-12 </wgt>
<wgt id='1067'> +1.6175826e-12 </wgt>
<wgt id='1068'> +1.6489999e-12 </wgt>
<wgt id='1069'> +1.6156767e-12 </wgt>
<wgt id='1070'> +1.5236055e-12 </wgt>
<wgt id='1071'> +1.5834506e-12 </wgt>
<wgt id='1072'> +1.5149864e-12 </wgt>
<wgt id='1073'> +1.5685040e-12 </wgt>
<wgt id='1074'> +1.5882156e-12 </wgt>
<wgt id='1075'> +1.5222094e-12 </wgt>
<wgt id='1076'> +1.6086600e-12 </wgt>
<wgt id='1077'> +1.5316089e-12 </wgt>
<wgt id='1078'> +1.5829758e-12 </wgt>
<wgt id='1079'> +1.6362626e-12 </wgt>
<wgt id='1080'> +1.5540221e-12 </wgt>
<wgt id='1081'> +1.5455319e-12 </wgt>
<wgt id='1082'> +1.5910540e-12 </wgt>
<wgt id='1083'> +1.5213174e-12 </wgt>
<wgt id='1084'> +1.5508859e-12 </wgt>
<wgt id='1085'> +1.6133033e-12 </wgt>
<wgt id='1086'> +1.5716013e-12 </wgt>
<wgt id='1087'> +1.5489314e-12 </wgt>
<wgt id='1088'> +1.5892935e-12 </wgt>
<wgt id='1089'> +1.5717830e-12 </wgt>
<wgt id='1090'> +1.5570998e-12 </wgt>
<wgt id='1091'> +1.4479524e-12 </wgt>
<wgt id='1092'> +1.5681363e-12 </wgt>
<wgt id='1093'> +1.6374992e-12 </wgt>
<wgt id='1094'> +1.4568965e-12 </wgt>
<wgt id='1095'> +1.6519288e-12 </wgt>
<wgt id='1096'> +1.5533947e-12 </wgt>
<wgt id='1097'> +1.5315836e-12 </wgt>
<wgt id='1098'> +1.6026153e-12 </wgt>
<wgt id='1099'> +1.6078073e-12 </wgt>
<wgt id='1100'> +1.6137231e-12 </wgt>
<wgt id='1101'> +1.5041353e-12 </wgt>
<wgt id='1102'> +1.5421306e-12 </wgt>
<wgt id='1103'> +1.5695947e-12 </wgt>
<wgt id='1104'> +1.6166387e-12 </wgt>
<wgt id='1105'> +1.5547116e-12 </wgt>
<wgt id='1106'> +1.5170339e-12 </wgt>
<wgt id='1107'> +1.6306841e-12 </wgt>
<wgt id='1108'> +1.5781198e-12 </wgt>
<wgt id='1109'> +1.5621850e-12 </wgt>
<wgt id='1110'> +1.4810410e-12 </wgt>
<wgt id='1111'> +1.5689251e-12 </wgt>
<wgt id='1112'> +1.4582255e-12 </wgt>
<wgt id='1113'> +1.5262043e-12 </wgt>
<wgt id='1114'> +1.6075269e-12 </wgt>
<wgt id='1115'> +1.5933247e-12 </wgt>
<wgt id='1116'> +1.6143485e-12 </wgt>
<wgt id='1117'> +1.6073041e-12 </wgt>
<wgt id='1118'> +1.4866414e-12 </wgt>
<wgt id='1119'> +1.5254992e-12 </wgt>
<wgt id='1120'> +1.5642132e-12 </wgt>
<wgt id='1121'> +1.5251645e-12 </wgt>
<wgt id='1122'> +1.5365761e-12 </wgt>
<wgt id='1123'> +1.6068075e-12 </wgt>
<wgt id='1124'> +1.6164550e-12 </wgt>
<wgt id='1125'> +1.5658689e-12 </wgt>
<wgt id='1126'> +1.5092109e-12 </wgt>
<wgt id='1127'> +1.5901788e-12 </wgt>
<wgt id='1128'> +1.5395944e-12 </wgt>
<wgt id='1129'> +1.4608480e-12 </wgt>
<wgt id='1130'> +1.5454275e-12 </wgt>
<wgt id='1131'> +1.6190333e-12 </wgt>
<wgt id='1132'> +1.6150674e-12 </wgt>
<wgt id='1133'> +1.5904399e-12 </wgt>
<wgt id='1134'> +1.5895326e-12 </wgt>
<wgt id='1135'> +1.4074431e-12 </wgt>
<wgt id='1136'> +1.5699719e-12 </wgt>
<wgt id='1137'> +1.5950245e-12 </wgt>
<wgt id='1138'> +1.5711423e-12 </wgt>
<wgt id='1139'> +1.5306968e-12 </wgt>
<wgt id='1140'> +1.5876255e-12 </wgt>
<wgt id='1141'> +1.5353125e-12 </wgt>
<wgt id='1142'> +1.6245570e-12 </wgt>
<wgt id='1143'> +1.4468641e-12 </wgt>
<wgt id='1144'> +1.5442952e-12 </wgt>
<wgt id='1145'> +1.5453261e-12 </wgt>
<wgt id='1146'> +1.5586180e-12 </wgt>
<wgt id='1147'> +1.2806987e-12 </wgt>
<wgt id='1148'> +1.3053523e-12 </wgt>
<wgt id='1149'> +1.3122576e-12 </wgt>
<wgt id='1150'> +1.2414902e-12 </wgt>
<wgt id='1151'> +1.0815086e-12 </wgt>
<wgt id='1152'> +1.6158544e-12 </wgt>
<wgt id='1153'> +1.6102180e-12 </wgt>
<wgt id='1154'> +1.6191532e-12 </wgt>
<wgt id='1155'> +1.6215615e-12 </wgt>
<wgt id='1156'> +1.6129912e-12 </wgt>
<wgt id='1157'> +1.6206805e-12 </wgt>
<wgt id='1158'> +1.6093625e-12 </wgt>
<wgt id='1159'> +1.6205409e-12 </wgt>
<wgt id='1160'> +1.6128662e-12 </wgt>
<wgt id='1161'> +1.6335962e-12 </wgt>
<wgt id='1162'> +1.6036641e-12 </wgt>
<wgt id='1163'> +1.6143845e-12 </wgt>
<wgt id='1164'> +1.6173670e-12 </wgt>
<wgt id='1165'> +1.6136161e-12 </wgt>
<wgt id='1166'> +1.6184210e-12 </wgt>
<wgt id='1167'> +1.6361689e-12 </wgt>
<wgt id='1168'> +1.5924596e-12 </wgt>
<wgt id='1169'> +1.6334262e-12 </wgt>
<wgt id='1170'> +1.6010969e-12 </wgt>
<wgt id='1171'> +1.6071574e-12 </wgt>
<wgt id='1172'> +1.6260528e-12 </wgt>
<wgt id='1173'> +1.6022845e-12 </wgt>
<wgt id='1174'> +1.6289231e-12 </wgt>
<wgt id='1175'> +1.6092095e-12 </wgt>
<wgt id='1176'> +1.6210431e-12 </wgt>
<wgt id='1177'> +1.6170571e-12 </wgt>
<wgt id='1178'> +1.6077268e-12 </wgt>
<wgt id='1179'> +1.6142021e-12 </wgt>
<wgt id='1180'> +1.6126503e-12 </wgt>
<wgt id='1181'> +1.6129218e-12 </wgt>
<wgt id='1182'> +1.6106878e-12 </wgt>
<wgt id='1183'> +1.6085769e-12 </wgt>
<wgt id='1184'> +1.6161522e-12 </wgt>
<wgt id='1185'> +1.6042409e-12 </wgt>
<wgt id='1186'> +1.6206655e-12 </wgt>
<wgt id='1187'> +1.6195991e-12 </wgt>
<wgt id='1188'> +1.6145425e-12 </wgt>
<wgt id='1189'> +1.6105501e-12 </wgt>
<wgt id='1190'> +1.5941358e-12 </wgt>
<wgt id='1191'> +1.6222092e-12 </wgt>
<wgt id='1192'> +1.6252297e-12 </wgt>
<wgt id='1193'> +1.2963013e-12 </wgt>
<wgt id='1194'> +1.2779175e-12 </wgt>
<wgt id='1195'> +1.3113987e-12 </wgt>
<wgt id='1196'> +1.3004202e-12 </wgt>
<wgt id='1197'> +1.2917234e-12 </wgt>
<wgt id='1198'> +1.2953535e-12 </wgt>
<wgt id='1199'> +1.2977921e-12 </wgt>
<wgt id='1200'> +1.3027835e-12 </wgt>
<wgt id='1201'> +1.2919843e-12 </wgt>
<wgt id='1202'> +1.2959728e-12 </wgt>
<wgt id='1203'> +1.2968300e-12 </wgt>
<wgt id='1204'> +1.2941404e-12 </wgt>
<wgt id='1205'> +1.2975081e-12 </wgt>
<wgt id='1206'> +1.2884744e-12 </wgt>
<wgt id='1207'> +1.3067660e-12 </wgt>
<wgt id='1208'> +1.2974123e-12 </wgt>
<wgt id='1209'> +1.2960758e-12 </wgt>
<wgt id='1210'> +1.2945812e-12 </wgt>
<wgt id='1211'> +1.2961137e-12 </wgt>
<wgt id='1212'> +1.2869962e-12 </wgt>
<wgt id='1213'> +1.3039449e-12 </wgt>
<wgt id='1214'> +1.2740127e-12 </wgt>
<wgt id='1215'> +1.3297961e-12 </wgt>
<wgt id='1216'> +1.2993529e-12 </wgt>
<wgt id='1217'> +1.2928243e-12 </wgt>
<wgt id='1218'> +1.2908702e-12 </wgt>
<wgt id='1219'> +1.2982595e-12 </wgt>
<wgt id='1220'> +1.2912126e-12 </wgt>
<wgt id='1221'> +1.2852049e-12 </wgt>
<wgt id='1222'> +1.3121771e-12 </wgt>
<wgt id='1223'> +1.2707112e-12 </wgt>
<wgt id='1224'> +1.2947100e-12 </wgt>
<wgt id='1225'> +1.2967802e-12 </wgt>
<wgt id='1226'> +1.2896994e-12 </wgt>
<wgt id='1227'> +1.3004090e-12 </wgt>
<wgt id='1228'> +1.2956119e-12 </wgt>
<wgt id='1229'> +1.2938741e-12 </wgt>
<wgt id='1230'> +1.3019640e-12 </wgt>
<wgt id='1231'> +1.3060743e-12 </wgt>
<wgt id='1232'> +1.3044589e-12 </wgt>
<wgt id='1233'> +1.2933613e-12 </wgt>
<wgt id='1234'> +1.2963013e-12 </wgt>
<wgt id='1235'> +1.2890813e-12 </wgt>
<wgt id='1236'> +1.2918168e-12 </wgt>
<wgt id='1237'> +1.2943804e-12 </wgt>
<wgt id='1238'> +1.2983867e-12 </wgt>
<wgt id='1239'> +1.3001510e-12 </wgt>
<wgt id='1240'> +1.3016476e-12 </wgt>
<wgt id='1241'> +1.3472430e-12 </wgt>
<wgt id='1242'> +1.3293502e-12 </wgt>
<wgt id='1243'> +1.3649849e-12 </wgt>
<wgt id='1244'> +1.3472934e-12 </wgt>
<wgt id='1245'> +1.3472284e-12 </wgt>
<wgt id='1246'> +1.3509119e-12 </wgt>
<wgt id='1247'> +1.3441686e-12 </wgt>
<wgt id='1248'> +1.3471687e-12 </wgt>
<wgt id='1249'> +1.3474897e-12 </wgt>
<wgt id='1250'> +1.3515849e-12 </wgt>
<wgt id='1251'> +1.3442028e-12 </wgt>
<wgt id='1252'> +1.3585008e-12 </wgt>
<wgt id='1253'> +1.3384086e-12 </wgt>
<wgt id='1254'> +1.3538764e-12 </wgt>
<wgt id='1255'> +1.3431741e-12 </wgt>
<wgt id='1256'> +1.3459565e-12 </wgt>
<wgt id='1257'> +1.3510530e-12 </wgt>
<wgt id='1258'> +1.3614128e-12 </wgt>
<wgt id='1259'> +1.3330623e-12 </wgt>
<wgt id='1260'> +1.3593384e-12 </wgt>
<wgt id='1261'> +1.3300281e-12 </wgt>
<wgt id='1262'> +1.3414463e-12 </wgt>
<wgt id='1263'> +1.3493169e-12 </wgt>
<wgt id='1264'> +1.3403573e-12 </wgt>
<wgt id='1265'> +1.3502933e-12 </wgt>
<wgt id='1266'> +1.3287986e-12 </wgt>
<wgt id='1267'> +1.3631089e-12 </wgt>
<wgt id='1268'> +1.3484901e-12 </wgt>
<wgt id='1269'> +1.3289208e-12 </wgt>
<wgt id='1270'> +1.3591862e-12 </wgt>
<wgt id='1271'> +1.3484917e-12 </wgt>
<wgt id='1272'> +1.3424202e-12 </wgt>
<wgt id='1273'> +1.3486852e-12 </wgt>
<wgt id='1274'> +1.3497890e-12 </wgt>
<wgt id='1275'> +1.3434971e-12 </wgt>
<wgt id='1276'> +1.3431859e-12 </wgt>
<wgt id='1277'> +1.3464576e-12 </wgt>
<wgt id='1278'> +1.3571763e-12 </wgt>
<wgt id='1279'> +1.3564371e-12 </wgt>
<wgt id='1280'> +1.3446095e-12 </wgt>
<wgt id='1281'> +1.3584835e-12 </wgt>
<wgt id='1282'> +1.3472430e-12 </wgt>
<wgt id='1283'> +1.3386855e-12 </wgt>
<wgt id='1284'> +1.3421419e-12 </wgt>
<wgt id='1285'> +1.3450879e-12 </wgt>
<wgt id='1286'> +1.3494748e-12 </wgt>
<wgt id='1287'> +1.3510597e-12 </wgt>
<wgt id='1288'> +1.3522532e-12 </wgt>
<wgt id='1289'> +1.3379170e-12 </wgt>
<wgt id='1290'> +1.3472624e-12 </wgt>
<wgt id='1291'> +1.3278269e-12 </wgt>
<wgt id='1292'> +1.3355649e-12 </wgt>
<wgt id='1293'> +1.3395927e-12 </wgt>
<wgt id='1294'> +1.3250762e-12 </wgt>
<wgt id='1295'> +1.3501697e-12 </wgt>
<wgt id='1296'> +1.3382540e-12 </wgt>
<wgt id='1297'> +1.3374083e-12 </wgt>
<wgt id='1298'> +1.3448888e-12 </wgt>
<wgt id='1299'> +1.3292501e-12 </wgt>
<wgt id='1300'> +1.3375896e-12 </wgt>
<wgt id='1301'> +1.3384267e-12 </wgt>
<wgt id='1302'> +1.3418758e-12 </wgt>
<wgt id='1303'> +1.3323162e-12 </wgt>
<wgt id='1304'> +1.3417259e-12 </wgt>
<wgt id='1305'> +1.3351787e-12 </wgt>
<wgt id='1306'> +1.3409481e-12 </wgt>
<wgt id='1307'> +1.3346431e-12 </wgt>
<wgt id='1308'> +1.3436693e-12 </wgt>
<wgt id='1309'> +1.3334481e-12 </wgt>
<wgt id='1310'> +1.3499090e-12 </wgt>
<wgt id='1311'> +1.3252676e-12 </wgt>
<wgt id='1312'> +1.3488472e-12 </wgt>
<wgt id='1313'> +1.3278181e-12 </wgt>
<wgt id='1314'> +1.3196930e-12 </wgt>
<wgt id='1315'> +1.3533377e-12 </wgt>
<wgt id='1316'> +1.3376525e-12 </wgt>
<wgt id='1317'> +1.3362829e-12 </wgt>
<wgt id='1318'> +1.3459136e-12 </wgt>
<wgt id='1319'> +1.3262699e-12 </wgt>
<wgt id='1320'> +1.3623032e-12 </wgt>
<wgt id='1321'> +1.3166074e-12 </wgt>
<wgt id='1322'> +1.3346117e-12 </wgt>
<wgt id='1323'> +1.3414245e-12 </wgt>
<wgt id='1324'> +1.3374395e-12 </wgt>
<wgt id='1325'> +1.3432901e-12 </wgt>
<wgt id='1326'> +1.3368437e-12 </wgt>
<wgt id='1327'> +1.3392804e-12 </wgt>
<wgt id='1328'> +1.3349348e-12 </wgt>
<wgt id='1329'> +1.3399128e-12 </wgt>
<wgt id='1330'> +1.3026045e-12 </wgt>
<wgt id='1331'> +1.3629854e-12 </wgt>
<wgt id='1332'> +1.3487332e-12 </wgt>
<wgt id='1333'> +1.3312268e-12 </wgt>
<wgt id='1334'> +1.3298321e-12 </wgt>
<wgt id='1335'> +1.3585123e-12 </wgt>
<wgt id='1336'> +1.3435443e-12 </wgt>
<wgt id='1337'> +1.3414431e-12 </wgt>
<wgt id='1338'> +1.3392648e-12 </wgt>
<wgt id='1339'> +1.3332623e-12 </wgt>
<wgt id='1340'> +1.2944946e-12 </wgt>
<wgt id='1341'> +1.3035588e-12 </wgt>
<wgt id='1342'> +1.2847273e-12 </wgt>
<wgt id='1343'> +1.2921621e-12 </wgt>
<wgt id='1344'> +1.2960236e-12 </wgt>
<wgt id='1345'> +1.2812608e-12 </wgt>
<wgt id='1346'> +1.3067081e-12 </wgt>
<wgt id='1347'> +1.2953448e-12 </wgt>
<wgt id='1348'> +1.2934860e-12 </wgt>
<wgt id='1349'> +1.3012738e-12 </wgt>
<wgt id='1350'> +1.2879462e-12 </wgt>
<wgt id='1351'> +1.2947606e-12 </wgt>
<wgt id='1352'> +1.2938057e-12 </wgt>
<wgt id='1353'> +1.2994680e-12 </wgt>
<wgt id='1354'> +1.2855080e-12 </wgt>
<wgt id='1355'> +1.2979646e-12 </wgt>
<wgt id='1356'> +1.2924947e-12 </wgt>
<wgt id='1357'> +1.3001118e-12 </wgt>
<wgt id='1358'> +1.2880534e-12 </wgt>
<wgt id='1359'> +1.3000701e-12 </wgt>
<wgt id='1360'> +1.2895645e-12 </wgt>
<wgt id='1361'> +1.3050132e-12 </wgt>
<wgt id='1362'> +1.2808027e-12 </wgt>
<wgt id='1363'> +1.3113965e-12 </wgt>
<wgt id='1364'> +1.2842677e-12 </wgt>
<wgt id='1365'> +1.2998967e-12 </wgt>
<wgt id='1366'> +1.2807586e-12 </wgt>
<wgt id='1367'> +1.2943293e-12 </wgt>
<wgt id='1368'> +1.2926719e-12 </wgt>
<wgt id='1369'> +1.3004631e-12 </wgt>
<wgt id='1370'> +1.2860001e-12 </wgt>
<wgt id='1371'> +1.3124308e-12 </wgt>
<wgt id='1372'> +1.2719510e-12 </wgt>
<wgt id='1373'> +1.2857779e-12 </wgt>
<wgt id='1374'> +1.3018824e-12 </wgt>
<wgt id='1375'> +1.2941819e-12 </wgt>
<wgt id='1376'> +1.2994596e-12 </wgt>
<wgt id='1377'> +1.2951342e-12 </wgt>
<wgt id='1378'> +1.2963700e-12 </wgt>
<wgt id='1379'> +1.2914940e-12 </wgt>
<wgt id='1380'> +1.2968835e-12 </wgt>
<wgt id='1381'> +1.2573157e-12 </wgt>
<wgt id='1382'> +1.3188719e-12 </wgt>
<wgt id='1383'> +1.3088669e-12 </wgt>
<wgt id='1384'> +1.2839759e-12 </wgt>
<wgt id='1385'> +1.2856112e-12 </wgt>
<wgt id='1386'> +1.3155467e-12 </wgt>
<wgt id='1387'> +1.2985619e-12 </wgt>
<wgt id='1388'> +1.2963659e-12 </wgt>
<wgt id='1389'> +1.2955816e-12 </wgt>
<wgt id='1390'> +1.2892731e-12 </wgt>
<wgt id='1391'> +1.2949615e-12 </wgt>
<wgt id='1392'> +1.2336518e-12 </wgt>
<wgt id='1393'> +1.2539668e-12 </wgt>
<wgt id='1394'> +1.2738050e-12 </wgt>
<wgt id='1395'> +1.3134841e-12 </wgt>
<wgt id='1396'> +1.2943623e-12 </wgt>
<wgt id='1397'> +1.2654919e-12 </wgt>
<wgt id='1398'> +1.2709827e-12 </wgt>
<wgt id='1399'> +1.2764911e-12 </wgt>
<wgt id='1400'> +1.2817536e-12 </wgt>
<wgt id='1401'> +1.2879938e-12 </wgt>
<wgt id='1402'> +1.2992634e-12 </wgt>
<wgt id='1403'> +1.3051231e-12 </wgt>
<wgt id='1404'> +1.3103381e-12 </wgt>
<wgt id='1405'> +1.2943623e-12 </wgt>
<wgt id='1406'> +1.2912520e-12 </wgt>
<wgt id='1407'> +1.2929710e-12 </wgt>
<wgt id='1408'> +1.2956207e-12 </wgt>
<wgt id='1409'> +1.2961896e-12 </wgt>
<wgt id='1410'> +1.3414767e-12 </wgt>
<wgt id='1411'> +1.3513474e-12 </wgt>
<wgt id='1412'> +1.3287392e-12 </wgt>
<wgt id='1413'> +1.3375442e-12 </wgt>
<wgt id='1414'> +1.3453562e-12 </wgt>
<wgt id='1415'> +1.3352021e-12 </wgt>
<wgt id='1416'> +1.3439682e-12 </wgt>
<wgt id='1417'> +1.3335307e-12 </wgt>
<wgt id='1418'> +1.3494066e-12 </wgt>
<wgt id='1419'> +1.3447502e-12 </wgt>
<wgt id='1420'> +1.3383605e-12 </wgt>
<wgt id='1421'> +1.3356625e-12 </wgt>
<wgt id='1422'> +1.3438925e-12 </wgt>
<wgt id='1423'> +1.3432449e-12 </wgt>
<wgt id='1424'> +1.3393253e-12 </wgt>
<wgt id='1425'> +1.3454734e-12 </wgt>
<wgt id='1426'> +1.3370682e-12 </wgt>
<wgt id='1427'> +1.3399639e-12 </wgt>
<wgt id='1428'> +1.3420621e-12 </wgt>
<wgt id='1429'> +1.3341156e-12 </wgt>
<wgt id='1430'> +1.3514885e-12 </wgt>
<wgt id='1431'> +1.3372661e-12 </wgt>
<wgt id='1432'> +1.3440437e-12 </wgt>
<wgt id='1433'> +1.3169991e-12 </wgt>
<wgt id='1434'> +1.3618489e-12 </wgt>
<wgt id='1435'> +1.3344318e-12 </wgt>
<wgt id='1436'> +1.3600422e-12 </wgt>
<wgt id='1437'> +1.3444045e-12 </wgt>
<wgt id='1438'> +1.3396677e-12 </wgt>
<wgt id='1439'> +1.3340056e-12 </wgt>
<wgt id='1440'> +1.3541385e-12 </wgt>
<wgt id='1441'> +1.3507138e-12 </wgt>
<wgt id='1442'> +1.3215870e-12 </wgt>
<wgt id='1443'> +1.3405390e-12 </wgt>
<wgt id='1444'> +1.3447266e-12 </wgt>
<wgt id='1445'> +1.3514585e-12 </wgt>
<wgt id='1446'> +1.3379011e-12 </wgt>
<wgt id='1447'> +1.3411090e-12 </wgt>
<wgt id='1448'> +1.3357173e-12 </wgt>
<wgt id='1449'> +1.3383583e-12 </wgt>
<wgt id='1450'> +1.3424472e-12 </wgt>
<wgt id='1451'> +1.3615098e-12 </wgt>
<wgt id='1452'> +1.3026367e-12 </wgt>
<wgt id='1453'> +1.3410066e-12 </wgt>
<wgt id='1454'> +1.3309929e-12 </wgt>
<wgt id='1455'> +1.3381893e-12 </wgt>
<wgt id='1456'> +1.3601006e-12 </wgt>
<wgt id='1457'> +1.3595842e-12 </wgt>
<wgt id='1458'> +1.3356904e-12 </wgt>
<wgt id='1459'> +1.3512101e-12 </wgt>
<wgt id='1460'> +1.3490057e-12 </wgt>
<wgt id='1461'> +1.3414767e-12 </wgt>
<wgt id='1462'> +1.3230167e-12 </wgt>
<wgt id='1463'> +1.3618535e-12 </wgt>
<wgt id='1464'> +1.3417788e-12 </wgt>
<wgt id='1465'> +1.3083676e-12 </wgt>
<wgt id='1466'> +1.3154272e-12 </wgt>
<wgt id='1467'> +1.3222837e-12 </wgt>
<wgt id='1468'> +1.3294420e-12 </wgt>
<wgt id='1469'> +1.3356344e-12 </wgt>
<wgt id='1470'> +1.3480263e-12 </wgt>
<wgt id='1471'> +1.3533802e-12 </wgt>
<wgt id='1472'> +1.3591353e-12 </wgt>
<wgt id='1473'> +1.3417788e-12 </wgt>
<wgt id='1474'> +1.3380158e-12 </wgt>
<wgt id='1475'> +1.3398417e-12 </wgt>
<wgt id='1476'> +1.3432532e-12 </wgt>
<wgt id='1477'> +1.3449362e-12 </wgt>
<wgt id='1478'> +1.2469296e-12 </wgt>
<wgt id='1479'> +1.2457872e-12 </wgt>
<wgt id='1480'> +1.2802397e-12 </wgt>
<wgt id='1481'> +1.2598999e-12 </wgt>
<wgt id='1482'> +1.2464217e-12 </wgt>
<wgt id='1483'> +1.2334589e-12 </wgt>
<wgt id='1484'> +1.2399693e-12 </wgt>
<wgt id='1485'> +1.2390894e-12 </wgt>
<wgt id='1486'> +1.2466174e-12 </wgt>
<wgt id='1487'> +1.2451924e-12 </wgt>
<wgt id='1488'> +1.2438963e-12 </wgt>
<wgt id='1489'> +1.2571843e-12 </wgt>
<wgt id='1490'> +1.2399562e-12 </wgt>
<wgt id='1491'> +1.2520846e-12 </wgt>
<wgt id='1492'> +1.2498784e-12 </wgt>
<wgt id='1493'> +1.2250993e-12 </wgt>
<wgt id='1494'> +1.2502035e-12 </wgt>
<wgt id='1495'> +1.2428586e-12 </wgt>
<wgt id='1496'> +1.2664792e-12 </wgt>
<wgt id='1497'> +1.2464514e-12 </wgt>
<wgt id='1498'> +1.2479801e-12 </wgt>
<wgt id='1499'> +1.2489393e-12 </wgt>
<wgt id='1500'> +1.2432903e-12 </wgt>
<wgt id='1501'> +1.2521318e-12 </wgt>
<wgt id='1502'> +1.2481662e-12 </wgt>
<wgt id='1503'> +1.2325651e-12 </wgt>
<wgt id='1504'> +1.2419471e-12 </wgt>
<wgt id='1505'> +1.2582703e-12 </wgt>
<wgt id='1506'> +1.2469388e-12 </wgt>
<wgt id='1507'> +1.2462999e-12 </wgt>
<wgt id='1508'> +1.2489803e-12 </wgt>
<wgt id='1509'> +1.3546049e-12 </wgt>
<wgt id='1510'> +1.3555823e-12 </wgt>
<wgt id='1511'> +1.3424352e-12 </wgt>
<wgt id='1512'> +1.3497400e-12 </wgt>
<wgt id='1513'> +1.3635382e-12 </wgt>
<wgt id='1514'> +1.3517876e-12 </wgt>
<wgt id='1515'> +1.3466915e-12 </wgt>
<wgt id='1516'> +1.3536851e-12 </wgt>
<wgt id='1517'> +1.3419894e-12 </wgt>
<wgt id='1518'> +1.3476423e-12 </wgt>
<wgt id='1519'> +1.3525617e-12 </wgt>
<wgt id='1520'> +1.3444569e-12 </wgt>
<wgt id='1521'> +1.3574879e-12 </wgt>
<wgt id='1522'> +1.3530168e-12 </wgt>
<wgt id='1523'> +1.3418803e-12 </wgt>
<wgt id='1524'> +1.3660744e-12 </wgt>
<wgt id='1525'> +1.3525359e-12 </wgt>
<wgt id='1526'> +1.3474658e-12 </wgt>
<wgt id='1527'> +1.3552458e-12 </wgt>
<wgt id='1528'> +1.3460814e-12 </wgt>
<wgt id='1529'> +1.3531553e-12 </wgt>
<wgt id='1530'> +1.3561082e-12 </wgt>
<wgt id='1531'> +1.3561769e-12 </wgt>
<wgt id='1532'> +1.3525368e-12 </wgt>
<wgt id='1533'> +1.3675883e-12 </wgt>
<wgt id='1534'> +1.3556877e-12 </wgt>
<wgt id='1535'> +1.3536647e-12 </wgt>
<wgt id='1536'> +1.3619332e-12 </wgt>
<wgt id='1537'> +1.3593952e-12 </wgt>
<wgt id='1538'> +1.3341477e-12 </wgt>
<wgt id='1539'> +1.3468171e-12 </wgt>
<wgt id='1540'> +1.3515640e-12 </wgt>
<wgt id='1541'> +1.3494565e-12 </wgt>
<wgt id='1542'> +1.3526236e-12 </wgt>
<wgt id='1543'> +1.3556324e-12 </wgt>
<wgt id='1544'> +1.3555573e-12 </wgt>
<wgt id='1545'> +1.3539588e-12 </wgt>
<wgt id='1546'> +1.3588429e-12 </wgt>
<wgt id='1547'> +1.3539833e-12 </wgt>
<wgt id='1548'> +1.3569202e-12 </wgt>
<wgt id='1549'> +1.3539968e-12 </wgt>
<wgt id='1550'> +1.3551755e-12 </wgt>
<wgt id='1551'> +1.3541850e-12 </wgt>
<wgt id='1552'> +1.3553090e-12 </wgt>
<wgt id='1553'> +1.3574032e-12 </wgt>
<wgt id='1554'> +1.3506914e-12 </wgt>
<wgt id='1555'> +1.3541162e-12 </wgt>
<wgt id='1556'> +1.3577553e-12 </wgt>
<wgt id='1557'> +1.3507515e-12 </wgt>
<wgt id='1558'> +1.3587590e-12 </wgt>
<wgt id='1559'> +1.3589999e-12 </wgt>
<wgt id='1560'> +1.3609760e-12 </wgt>
<wgt id='1561'> +1.3523004e-12 </wgt>
<wgt id='1562'> +1.3545743e-12 </wgt>
<wgt id='1563'> +1.3575689e-12 </wgt>
<wgt id='1564'> +1.3531799e-12 </wgt>
<wgt id='1565'> +1.3530947e-12 </wgt>
<wgt id='1566'> +1.3518527e-12 </wgt>
<wgt id='1567'> +1.3548751e-12 </wgt>
<wgt id='1568'> +1.3532073e-12 </wgt>
<wgt id='1569'> +1.3522391e-12 </wgt>
<wgt id='1570'> +1.3542917e-12 </wgt>
<wgt id='1571'> +1.3507546e-12 </wgt>
<wgt id='1572'> +1.3555876e-12 </wgt>
<wgt id='1573'> +1.3566169e-12 </wgt>
<wgt id='1574'> +1.3530480e-12 </wgt>
<wgt id='1575'> +1.3571504e-12 </wgt>
<wgt id='1576'> +1.3537469e-12 </wgt>
<wgt id='1577'> +1.3541997e-12 </wgt>
<wgt id='1578'> +1.3544464e-12 </wgt>
<wgt id='1579'> +1.3539890e-12 </wgt>
<wgt id='1580'> +1.3519074e-12 </wgt>
<wgt id='1581'> +1.3550494e-12 </wgt>
<wgt id='1582'> +1.3553814e-12 </wgt>
<wgt id='1583'> +1.3559103e-12 </wgt>
<wgt id='1584'> +1.3548884e-12 </wgt>
<wgt id='1585'> +1.3553809e-12 </wgt>
<wgt id='1586'> +1.3544945e-12 </wgt>
<wgt id='1587'> +1.3545181e-12 </wgt>
<wgt id='1588'> +1.3588506e-12 </wgt>
<wgt id='1589'> +1.3529415e-12 </wgt>
<wgt id='1590'> +1.3534334e-12 </wgt>
<wgt id='1591'> +1.3526381e-12 </wgt>
<wgt id='1592'> +1.3550558e-12 </wgt>
<wgt id='1593'> +1.3531391e-12 </wgt>
<wgt id='1594'> +1.3555212e-12 </wgt>
<wgt id='1595'> +1.3554920e-12 </wgt>
<wgt id='1596'> +1.3539760e-12 </wgt>
<wgt id='1597'> +1.3556279e-12 </wgt>
<wgt id='1598'> +1.3544673e-12 </wgt>
<wgt id='1599'> +1.3531218e-12 </wgt>
<wgt id='1600'> +1.3564903e-12 </wgt>
<wgt id='1601'> +1.3567627e-12 </wgt>
<wgt id='1602'> +1.3541453e-12 </wgt>
<wgt id='1603'> +1.3549099e-12 </wgt>
<wgt id='1604'> +1.3538520e-12 </wgt>
<wgt id='1605'> +1.3545540e-12 </wgt>
<wgt id='1606'> +1.3555878e-12 </wgt>
<wgt id='1607'> +1.3537475e-12 </wgt>
<wgt id='1608'> +1.3543922e-12 </wgt>
<wgt id='1609'> +1.3561249e-12 </wgt>
<wgt id='1610'> +1.3152992e-12 </wgt>
<wgt id='1611'> +1.3907225e-12 </wgt>
<wgt id='1612'> +1.4887266e-12 </wgt>
<wgt id='1613'> +1.5057963e-12 </wgt>
<wgt id='1614'> +1.5363851e-12 </wgt>
<wgt id='1615'> +1.4555339e-12 </wgt>
<wgt id='1616'> +1.4989510e-12 </wgt>
<wgt id='1617'> +1.5393202e-12 </wgt>
<wgt id='1618'> +1.4666409e-12 </wgt>
<wgt id='1619'> +1.5044658e-12 </wgt>
<wgt id='1620'> +1.4869664e-12 </wgt>
<wgt id='1621'> +1.5239083e-12 </wgt>
<wgt id='1622'> +1.4760258e-12 </wgt>
<wgt id='1623'> +1.4134846e-12 </wgt>
<wgt id='1624'> +1.5120423e-12 </wgt>
<wgt id='1625'> +1.4491694e-12 </wgt>
<wgt id='1626'> +1.4262291e-12 </wgt>
<wgt id='1627'> +1.4507684e-12 </wgt>
<wgt id='1628'> +1.3870608e-12 </wgt>
<wgt id='1629'> +1.4584604e-12 </wgt>
<wgt id='1630'> +1.4938058e-12 </wgt>
<wgt id='1631'> +1.5257470e-12 </wgt>
<wgt id='1632'> +1.4151468e-12 </wgt>
<wgt id='1633'> +1.5010617e-12 </wgt>
<wgt id='1634'> +1.4249858e-12 </wgt>
<wgt id='1635'> +1.5436548e-12 </wgt>
<wgt id='1636'> +1.5453341e-12 </wgt>
<wgt id='1637'> +1.5310714e-12 </wgt>
<wgt id='1638'> +1.5010588e-12 </wgt>
<wgt id='1639'> +1.5343619e-12 </wgt>
<wgt id='1640'> +1.4222905e-12 </wgt>
<wgt id='1641'> +1.5333660e-12 </wgt>
<wgt id='1642'> +1.3900883e-12 </wgt>
<wgt id='1643'> +1.4607900e-12 </wgt>
<wgt id='1644'> +1.5151562e-12 </wgt>
<wgt id='1645'> +1.4665085e-12 </wgt>
<wgt id='1646'> +1.5332166e-12 </wgt>
<wgt id='1647'> +1.5352864e-12 </wgt>
<wgt id='1648'> +1.5265714e-12 </wgt>
<wgt id='1649'> +1.5866461e-12 </wgt>
<wgt id='1650'> +1.5388436e-12 </wgt>
<wgt id='1651'> +1.5641029e-12 </wgt>
<wgt id='1652'> +1.4695571e-12 </wgt>
<wgt id='1653'> +1.5360241e-12 </wgt>
<wgt id='1654'> +1.5817258e-12 </wgt>
<wgt id='1655'> +1.4971373e-12 </wgt>
<wgt id='1656'> +1.4281212e-12 </wgt>
<wgt id='1657'> +1.5354867e-12 </wgt>
<wgt id='1658'> +1.4818583e-12 </wgt>
<wgt id='1659'> +1.5120423e-12 </wgt>
<wgt id='1660'> +1.4802967e-12 </wgt>
<wgt id='1661'> +1.4790796e-12 </wgt>
<wgt id='1662'> +1.4742025e-12 </wgt>
<wgt id='1663'> +1.4743842e-12 </wgt>
<wgt id='1664'> +1.5181431e-12 </wgt>
<wgt id='1665'> +1.3384715e-12 </wgt>
<wgt id='1666'> +1.4864022e-12 </wgt>
<wgt id='1667'> +1.5282934e-12 </wgt>
<wgt id='1668'> +1.5739198e-12 </wgt>
<wgt id='1669'> +1.5529194e-12 </wgt>
<wgt id='1670'> +1.5091925e-12 </wgt>
<wgt id='1671'> +1.3867881e-12 </wgt>
<wgt id='1672'> +1.4205684e-12 </wgt>
<wgt id='1673'> +1.5927927e-12 </wgt>
<wgt id='1674'> +1.5145428e-12 </wgt>
<wgt id='1675'> +1.4577841e-12 </wgt>
<wgt id='1676'> +1.4508700e-12 </wgt>
<wgt id='1677'> +1.4282203e-12 </wgt>
<wgt id='1678'> +1.5071299e-12 </wgt>
<wgt id='1679'> +1.5748006e-12 </wgt>
<wgt id='1680'> +1.5621092e-12 </wgt>
<wgt id='1681'> +1.4829894e-12 </wgt>
<wgt id='1682'> +1.4747617e-12 </wgt>
<wgt id='1683'> +1.5259065e-12 </wgt>
<wgt id='1684'> +1.4382018e-12 </wgt>
<wgt id='1685'> +1.5032341e-12 </wgt>
<wgt id='1686'> +1.4181959e-12 </wgt>
<wgt id='1687'> +1.4735185e-12 </wgt>
<wgt id='1688'> +1.4100317e-12 </wgt>
<wgt id='1689'> +1.4806524e-12 </wgt>
<wgt id='1690'> +1.4986029e-12 </wgt>
<wgt id='1691'> +1.4514398e-12 </wgt>
<wgt id='1692'> +1.4277859e-12 </wgt>
<wgt id='1693'> +1.4382684e-12 </wgt>
<wgt id='1694'> +1.4143452e-12 </wgt>
<wgt id='1695'> +1.3528723e-12 </wgt>
<wgt id='1696'> +1.5041206e-12 </wgt>
<wgt id='1697'> +1.5698590e-12 </wgt>
<wgt id='1698'> +1.4650927e-12 </wgt>
<wgt id='1699'> +1.5311263e-12 </wgt>
<wgt id='1700'> +1.4988881e-12 </wgt>
<wgt id='1701'> +1.5401169e-12 </wgt>
<wgt id='1702'> +1.5244443e-12 </wgt>
<wgt id='1703'> +1.3965938e-12 </wgt>
<wgt id='1704'> +1.4953520e-12 </wgt>
<wgt id='1705'> +1.4153570e-12 </wgt>
<wgt id='1706'> +1.5546877e-12 </wgt>
<wgt id='1707'> +1.4768896e-12 </wgt>
<wgt id='1708'> +1.5614379e-12 </wgt>
<wgt id='1709'> +1.5264261e-12 </wgt>
<wgt id='1710'> +1.5329804e-12 </wgt>
<wgt id='1711'> +1.4453423e-12 </wgt>
<wgt id='1712'> +1.5146822e-12 </wgt>
<wgt id='1713'> +1.2512845e-12 </wgt>
<wgt id='1714'> +1.2474323e-12 </wgt>
<wgt id='1715'> +1.2674322e-12 </wgt>
<wgt id='1716'> +1.2832517e-12 </wgt>
<wgt id='1717'> +1.3066339e-12 </wgt>
<wgt id='1718'> +1.1049868e-12 </wgt>
<wgt id='1719'> +1.1690271e-12 </wgt>
<wgt id='1720'> +1.2454790e-12 </wgt>
<wgt id='1721'> +1.3052917e-12 </wgt>
<wgt id='1722'> +1.2031334e-12 </wgt>
<wgt id='1723'> +1.3495396e-12 </wgt>
<wgt id='1724'> +1.1072589e-12 </wgt>
<wgt id='1725'> +1.1855365e-12 </wgt>
<wgt id='1726'> +1.1996651e-12 </wgt>
<wgt id='1727'> +1.2518373e-12 </wgt>
<wgt id='1728'> +1.2473769e-12 </wgt>
<wgt id='1729'> +1.2232341e-12 </wgt>
<wgt id='1730'> +1.2058284e-12 </wgt>
<wgt id='1731'> +1.1247524e-12 </wgt>
<wgt id='1732'> +1.2827537e-12 </wgt>
<wgt id='1733'> +1.2989098e-12 </wgt>
<wgt id='1734'> +1.3160367e-12 </wgt>
<wgt id='1735'> +1.2851304e-12 </wgt>
<wgt id='1736'> +1.2970668e-12 </wgt>
<wgt id='1737'> +1.2343888e-12 </wgt>
<wgt id='1738'> +1.2354483e-12 </wgt>
<wgt id='1739'> +1.2445484e-12 </wgt>
<wgt id='1740'> +1.1925406e-12 </wgt>
<wgt id='1741'> +1.2529159e-12 </wgt>
<wgt id='1742'> +1.2714994e-12 </wgt>
<wgt id='1743'> +1.2601502e-12 </wgt>
<wgt id='1744'> +1.3233611e-12 </wgt>
<wgt id='1745'> +1.2721193e-12 </wgt>
<wgt id='1746'> +1.3404334e-12 </wgt>
<wgt id='1747'> +1.2594653e-12 </wgt>
<wgt id='1748'> +1.2896352e-12 </wgt>
<wgt id='1749'> +1.2600084e-12 </wgt>
<wgt id='1750'> +1.2245034e-12 </wgt>
<wgt id='1751'> +1.1916365e-12 </wgt>
<wgt id='1752'> +1.2720395e-12 </wgt>
<wgt id='1753'> +1.2888865e-12 </wgt>
<wgt id='1754'> +1.2954110e-12 </wgt>
<wgt id='1755'> +1.2796035e-12 </wgt>
<wgt id='1756'> +1.2658161e-12 </wgt>
<wgt id='1757'> +1.2780009e-12 </wgt>
<wgt id='1758'> +1.3262174e-12 </wgt>
<wgt id='1759'> +1.2212335e-12 </wgt>
<wgt id='1760'> +1.2826786e-12 </wgt>
<wgt id='1761'> +1.2520833e-12 </wgt>
<wgt id='1762'> +1.1730643e-12 </wgt>
<wgt id='1763'> +1.2867740e-12 </wgt>
<wgt id='1764'> +1.3000855e-12 </wgt>
<wgt id='1765'> +1.2481083e-12 </wgt>
<wgt id='1766'> +1.1981815e-12 </wgt>
<wgt id='1767'> +1.2071735e-12 </wgt>
<wgt id='1768'> +1.2477600e-12 </wgt>
<wgt id='1769'> +1.1991041e-12 </wgt>
<wgt id='1770'> +1.2253343e-12 </wgt>
<wgt id='1771'> +1.2721779e-12 </wgt>
<wgt id='1772'> +1.2839331e-12 </wgt>
<wgt id='1773'> +1.2941024e-12 </wgt>
<wgt id='1774'> +1.1845275e-12 </wgt>
<wgt id='1775'> +1.2565171e-12 </wgt>
<wgt id='1776'> +1.1543524e-12 </wgt>
<wgt id='1777'> +1.1507024e-12 </wgt>
<wgt id='1778'> +1.2868878e-12 </wgt>
<wgt id='1779'> +1.2062407e-12 </wgt>
<wgt id='1780'> +1.4931781e-12 </wgt>
<wgt id='1781'> +1.2679410e-12 </wgt>
<wgt id='1782'> +1.2723684e-12 </wgt>
<wgt id='1783'> +1.2620371e-12 </wgt>
<wgt id='1784'> +1.2514380e-12 </wgt>
<wgt id='1785'> +1.1655353e-12 </wgt>
<wgt id='1786'> +1.2612119e-12 </wgt>
<wgt id='1787'> +1.2637374e-12 </wgt>
<wgt id='1788'> +1.2496060e-12 </wgt>
<wgt id='1789'> +1.2536769e-12 </wgt>
<wgt id='1790'> +1.2196288e-12 </wgt>
<wgt id='1791'> +1.2752400e-12 </wgt>
<wgt id='1792'> +1.2572758e-12 </wgt>
<wgt id='1793'> +1.2420414e-12 </wgt>
<wgt id='1794'> +1.3024043e-12 </wgt>
<wgt id='1795'> +1.2479590e-12 </wgt>
<wgt id='1796'> +1.2888430e-12 </wgt>
<wgt id='1797'> +1.2713068e-12 </wgt>
<wgt id='1798'> +1.2372004e-12 </wgt>
<wgt id='1799'> +1.2660875e-12 </wgt>
<wgt id='1800'> +1.2790077e-12 </wgt>
<wgt id='1801'> +1.2413250e-12 </wgt>
<wgt id='1802'> +1.1801370e-12 </wgt>
<wgt id='1803'> +1.2801210e-12 </wgt>
<wgt id='1804'> +1.3234012e-12 </wgt>
<wgt id='1805'> +1.2708975e-12 </wgt>
<wgt id='1806'> +1.2255876e-12 </wgt>
<wgt id='1807'> +1.2720079e-12 </wgt>
<wgt id='1808'> +1.2268993e-12 </wgt>
<wgt id='1809'> +1.2757416e-12 </wgt>
<wgt id='1810'> +1.1888895e-12 </wgt>
<wgt id='1811'> +1.2755028e-12 </wgt>
<wgt id='1812'> +1.2512118e-12 </wgt>
<wgt id='1813'> +1.2027536e-12 </wgt>
<wgt id='1814'> +1.1301243e-12 </wgt>
<wgt id='1815'> +1.4531366e-12 </wgt>
<wgt id='1816'> +1.2512845e-12 </wgt>
<wgt id='1817'> +1.2474323e-12 </wgt>
<wgt id='1818'> +1.2674322e-12 </wgt>
<wgt id='1819'> +1.2832517e-12 </wgt>
<wgt id='1820'> +1.3066339e-12 </wgt>
<wgt id='1821'> +1.1049868e-12 </wgt>
<wgt id='1822'> +1.1690271e-12 </wgt>
<wgt id='1823'> +1.2454790e-12 </wgt>
<wgt id='1824'> +1.3052917e-12 </wgt>
<wgt id='1825'> +1.2031334e-12 </wgt>
<wgt id='1826'> +1.3495396e-12 </wgt>
<wgt id='1827'> +1.1072589e-12 </wgt>
<wgt id='1828'> +1.1855365e-12 </wgt>
<wgt id='1829'> +1.1996651e-12 </wgt>
<wgt id='1830'> +1.2518373e-12 </wgt>
<wgt id='1831'> +1.2473769e-12 </wgt>
<wgt id='1832'> +1.2232341e-12 </wgt>
<wgt id='1833'> +1.2058284e-12 </wgt>
<wgt id='1834'> +1.1247524e-12 </wgt>
<wgt id='1835'> +1.2827537e-12 </wgt>
<wgt id='1836'> +1.2989098e-12 </wgt>
<wgt id='1837'> +1.3160367e-12 </wgt>
<wgt id='1838'> +1.2851304e-12 </wgt>
<wgt id='1839'> +1.2970668e-12 </wgt>
<wgt id='1840'> +1.2343888e-12 </wgt>
<wgt id='1841'> +1.2354483e-12 </wgt>
<wgt id='1842'> +1.2445484e-12 </wgt>
<wgt id='1843'> +1.1925406e-12 </wgt>
<wgt id='1844'> +1.2529159e-12 </wgt>
<wgt id='1845'> +1.2714994e-12 </wgt>
<wgt id='1846'> +1.2601502e-12 </wgt>
<wgt id='1847'> +1.3233611e-12 </wgt>
<wgt id='1848'> +1.2721193e-12 </wgt>
<wgt id='1849'> +1.3404334e-12 </wgt>
<wgt id='1850'> +1.2594653e-12 </wgt>
<wgt id='1851'> +1.2896352e-12 </wgt>
<wgt id='1852'> +1.2600084e-12 </wgt>
<wgt id='1853'> +1.2245034e-12 </wgt>
<wgt id='1854'> +1.1916365e-12 </wgt>
<wgt id='1855'> +1.2720395e-12 </wgt>
<wgt id='1856'> +1.2888865e-12 </wgt>
<wgt id='1857'> +1.2954110e-12 </wgt>
<wgt id='1858'> +1.2796035e-12 </wgt>
<wgt id='1859'> +1.2658161e-12 </wgt>
<wgt id='1860'> +1.2780009e-12 </wgt>
<wgt id='1861'> +1.3262174e-12 </wgt>
<wgt id='1862'> +1.2212335e-12 </wgt>
<wgt id='1863'> +1.2826786e-12 </wgt>
<wgt id='1864'> +1.2520833e-12 </wgt>
<wgt id='1865'> +1.1730643e-12 </wgt>
<wgt id='1866'> +1.2867740e-12 </wgt>
<wgt id='1867'> +1.3000855e-12 </wgt>
<wgt id='1868'> +1.2481083e-12 </wgt>
<wgt id='1869'> +1.1981815e-12 </wgt>
<wgt id='1870'> +1.2071735e-12 </wgt>
<wgt id='1871'> +1.2477600e-12 </wgt>
<wgt id='1872'> +1.1991041e-12 </wgt>
<wgt id='1873'> +1.2253343e-12 </wgt>
<wgt id='1874'> +1.2721779e-12 </wgt>
<wgt id='1875'> +1.2839331e-12 </wgt>
<wgt id='1876'> +1.2941024e-12 </wgt>
<wgt id='1877'> +1.1845275e-12 </wgt>
<wgt id='1878'> +1.2565171e-12 </wgt>
<wgt id='1879'> +1.1543524e-12 </wgt>
<wgt id='1880'> +1.1507024e-12 </wgt>
<wgt id='1881'> +1.2868878e-12 </wgt>
<wgt id='1882'> +1.2062407e-12 </wgt>
<wgt id='1883'> +1.4931781e-12 </wgt>
<wgt id='1884'> +1.2679410e-12 </wgt>
<wgt id='1885'> +1.2723684e-12 </wgt>
<wgt id='1886'> +1.2620371e-12 </wgt>
<wgt id='1887'> +1.2514380e-12 </wgt>
<wgt id='1888'> +1.1655353e-12 </wgt>
<wgt id='1889'> +1.2612119e-12 </wgt>
<wgt id='1890'> +1.2637374e-12 </wgt>
<wgt id='1891'> +1.2496060e-12 </wgt>
<wgt id='1892'> +1.2536769e-12 </wgt>
<wgt id='1893'> +1.2196288e-12 </wgt>
<wgt id='1894'> +1.2752400e-12 </wgt>
<wgt id='1895'> +1.2572758e-12 </wgt>
<wgt id='1896'> +1.2420414e-12 </wgt>
<wgt id='1897'> +1.3024043e-12 </wgt>
<wgt id='1898'> +1.2479590e-12 </wgt>
<wgt id='1899'> +1.2888430e-12 </wgt>
<wgt id='1900'> +1.2713068e-12 </wgt>
<wgt id='1901'> +1.2372004e-12 </wgt>
<wgt id='1902'> +1.2660875e-12 </wgt>
<wgt id='1903'> +1.2790077e-12 </wgt>
<wgt id='1904'> +1.2413250e-12 </wgt>
<wgt id='1905'> +1.1801370e-12 </wgt>
<wgt id='1906'> +1.2801210e-12 </wgt>
<wgt id='1907'> +1.3234012e-12 </wgt>
<wgt id='1908'> +1.2708975e-12 </wgt>
<wgt id='1909'> +1.2255876e-12 </wgt>
<wgt id='1910'> +1.2720079e-12 </wgt>
<wgt id='1911'> +1.2268993e-12 </wgt>
<wgt id='1912'> +1.2757416e-12 </wgt>
<wgt id='1913'> +1.1888895e-12 </wgt>
<wgt id='1914'> +1.2755028e-12 </wgt>
<wgt id='1915'> +1.2512118e-12 </wgt>
<wgt id='1916'> +1.2027536e-12 </wgt>
<wgt id='1917'> +1.2382039e-12 </wgt>
<wgt id='1918'> +1.2748288e-12 </wgt>
<wgt id='1919'> +1.2958635e-12 </wgt>
</rwgt>
</event>
<event>
 9      1 +1.5607000e-12 7.73696700e+01 7.81860800e-03 1.21319100e-01
       21 -1    0    0  501  502 +0.0000000000e+00 +0.0000000000e+00 +1.5323452735e+02 1.5323452735e+02 0.0000000000e+00 0.0000e+00 -1.0000e+00
        4 -1    0    0  502    0 -0.0000000000e+00 -0.0000000000e+00 -9.7112582574e+00 9.8145268323e+00 1.4200000000e+00 0.0000e+00 -1.0000e+00
     1023  2    1    2    0    0 +9.5267886219e-01 +3.6996002800e+01 +6.6144335978e+01 7.7263696981e+01 1.4999795631e+01 0.0000e+00 0.0000e+00
  1000023  2    3    3    0    0 -2.6688105761e+00 +8.3231952342e+00 +1.3466138248e+01 1.6970765425e+01 5.5019879143e+00 0.0000e+00 0.0000e+00
        4  1    1    2  501    0 -9.5267886219e-01 -3.6996002800e+01 +7.7378933111e+01 8.5785357198e+01 1.4200000000e+00 0.0000e+00 -1.0000e+00
  1000022  1    4    4    0    0 -2.6088038224e+00 +7.1298358714e+00 +1.2057864944e+01 1.5100745808e+01 5.0000000000e+00 0.0000e+00 -1.0000e+00
      -11  1    4    4    0    0 +8.4927140084e-02 +3.1706652929e-01 +5.1208272599e-01 6.0825387997e-01 5.1100000000e-04 0.0000e+00 1.0000e+00
       11  1    4    4    0    0 -1.4493389374e-01 +8.7629283358e-01 +8.9619057747e-01 1.2617657374e+00 5.1100000000e-04 0.0000e+00 -1.0000e+00
  1000022  1    3    3    0    0 +3.6214894383e+00 +2.8672807566e+01 +5.2678197730e+01 6.0292931556e+01 5.0000000000e+00 0.0000e+00 -1.0000e+00
<mgrwt>
<rscale>  1 0.77369667E+02</rscale>
<asrwt>0</asrwt>
<pdfrwt beam="1">  1       21 0.23574541E-01 0.77369667E+02</pdfrwt>
<pdfrwt beam="2">  1        4 0.15024897E-02 0.77369667E+02</pdfrwt>
<totfact> 0.13817811E+06</totfact>
</mgrwt>
<rwgt>
<wgt id='1001'> +1.5607000e-12 </wgt>
<wgt id='1002'> +1.5600094e-12 </wgt>
<wgt id='1003'> +1.5604780e-12 </wgt>
<wgt id='1004'> +1.5228379e-12 </wgt>
<wgt id='1005'> +1.5607000e-12 </wgt>
<wgt id='1006'> +1.3956541e-12 </wgt>
<wgt id='1007'> +1.3943029e-12 </wgt>
<wgt id='1008'> +1.3952141e-12 </wgt>
<wgt id='1009'> +1.3410931e-12 </wgt>
<wgt id='1010'> +1.3956541e-12 </wgt>
<wgt id='1011'> +1.7718046e-12 </wgt>
<wgt id='1012'> +1.7722397e-12 </wgt>
<wgt id='1013'> +1.7719537e-12 </wgt>
<wgt id='1014'> +1.7642252e-12 </wgt>
<wgt id='1015'> +1.7718046e-12 </wgt>
<wgt id='1016'> +1.7475392e-12 </wgt>
<wgt id='1017'> +1.7489184e-12 </wgt>
<wgt id='1018'> +1.7479976e-12 </wgt>
<wgt id='1019'> +1.7719537e-12 </wgt>
<wgt id='1020'> +1.7475392e-12 </wgt>
<wgt id='1021'> +1.5627348e-12 </wgt>
<wgt id='1022'> +1.5631458e-12 </wgt>
<wgt id='1023'> +1.5628744e-12 </wgt>
<wgt id='1024'> +1.5604780e-12 </wgt>
<wgt id='1025'> +1.5627348e-12 </wgt>
<wgt id='1026'> +1.9839161e-12 </wgt>
<wgt id='1027'> +1.9868487e-12 </wgt>
<wgt id='1028'> +1.9848860e-12 </wgt>
<wgt id='1029'> +2.0528288e-12 </wgt>
<wgt id='1030'> +1.9839161e-12 </wgt>
<wgt id='1031'> +1.3420990e-12 </wgt>
<wgt id='1032'> +1.3390235e-12 </wgt>
<wgt id='1033'> +1.3410931e-12 </wgt>
<wgt id='1034'> +1.2329097e-12 </wgt>
<wgt id='1035'> +1.3420990e-12 </wgt>
<wgt id='1036'> +1.2001704e-12 </wgt>
<wgt id='1037'> +1.1967905e-12 </wgt>
<wgt id='1038'> +1.1990635e-12 </wgt>
<wgt id='1039'> +1.0857667e-12 </wgt>
<wgt id='1040'> +1.2001704e-12 </wgt>
<wgt id='1041'> +1.5236350e-12 </wgt>
<wgt id='1042'> +1.5211899e-12 </wgt>
<wgt id='1043'> +1.5228379e-12 </wgt>
<wgt id='1044'> +1.4283401e-12 </wgt>
<wgt id='1045'> +1.5236350e-12 </wgt>
<wgt id='1046'> +1.5607000e-12 </wgt>
<wgt id='1047'> +1.5297790e-12 </wgt>
<wgt id='1048'> +1.5784639e-12 </wgt>
<wgt id='1049'> +1.5670337e-12 </wgt>
<wgt id='1050'> +1.5574205e-12 </wgt>
<wgt id='1051'> +1.5573724e-12 </wgt>
<wgt id='1052'> +1.5162808e-12 </wgt>
<wgt id='1053'> +1.5720330e-12 </wgt>
<wgt id='1054'> +1.5768608e-12 </wgt>
<wgt id='1055'> +1.5969417e-12 </wgt>
<wgt id='1056'> +1.5868630e-12 </wgt>
<wgt id='1057'> +1.5607840e-12 </wgt>
<wgt id='1058'> +1.5426724e-12 </wgt>
<wgt id='1059'> +1.5545843e-12 </wgt>
<wgt id='1060'> +1.5434177e-12 </wgt>
<wgt id='1061'> +1.5894190e-12 </wgt>
<wgt id='1062'> +1.5848629e-12 </wgt>
<wgt id='1063'> +1.6011115e-12 </wgt>
<wgt id='1064'> +1.5538288e-12 </wgt>
<wgt id='1065'> +1.5511817e-12 </wgt>
<wgt id='1066'> +1.5854596e-12 </wgt>
<wgt id='1067'> +1.5632206e-12 </wgt>
<wgt id='1068'> +1.5764780e-12 </wgt>
<wgt id='1069'> +1.5705087e-12 </wgt>
<wgt id='1070'> +1.5626147e-12 </wgt>
<wgt id='1071'> +1.5520500e-12 </wgt>
<wgt id='1072'> +1.5832358e-12 </wgt>
<wgt id='1073'> +1.5606295e-12 </wgt>
<wgt id='1074'> +1.5242842e-12 </wgt>
<wgt id='1075'> +1.5599118e-12 </wgt>
<wgt id='1076'> +1.5790995e-12 </wgt>
<wgt id='1077'> +1.5852885e-12 </wgt>
<wgt id='1078'> +1.5647725e-12 </wgt>
<wgt id='1079'> +1.5258381e-12 </wgt>
<wgt id='1080'> +1.5337407e-12 </wgt>
<wgt id='1081'> +1.5821575e-12 </wgt>
<wgt id='1082'> +1.5445999e-12 </wgt>
<wgt id='1083'> +1.5819485e-12 </wgt>
<wgt id='1084'> +1.5473170e-12 </wgt>
<wgt id='1085'> +1.5507739e-12 </wgt>
<wgt id='1086'> +1.5507277e-12 </wgt>
<wgt id='1087'> +1.5449707e-12 </wgt>
<wgt id='1088'> +1.5055662e-12 </wgt>
<wgt id='1089'> +1.5406229e-12 </wgt>
<wgt id='1090'> +1.5125049e-12 </wgt>
<wgt id='1091'> +1.5502505e-12 </wgt>
<wgt id='1092'> +1.5633624e-12 </wgt>
<wgt id='1093'> +1.4998758e-12 </wgt>
<wgt id='1094'> +1.5616084e-12 </wgt>
<wgt id='1095'> +1.5633777e-12 </wgt>
<wgt id='1096'> +1.5727567e-12 </wgt>
<wgt id='1097'> +1.5410002e-12 </wgt>
<wgt id='1098'> +1.5839297e-12 </wgt>
<wgt id='1099'> +1.5492275e-12 </wgt>
<wgt id='1100'> +1.5563806e-12 </wgt>
<wgt id='1101'> +1.5382920e-12 </wgt>
<wgt id='1102'> +1.5512444e-12 </wgt>
<wgt id='1103'> +1.5746372e-12 </wgt>
<wgt id='1104'> +1.5595578e-12 </wgt>
<wgt id='1105'> +1.5817550e-12 </wgt>
<wgt id='1106'> +1.5784937e-12 </wgt>
<wgt id='1107'> +1.5632529e-12 </wgt>
<wgt id='1108'> +1.5717933e-12 </wgt>
<wgt id='1109'> +1.5266461e-12 </wgt>
<wgt id='1110'> +1.5532829e-12 </wgt>
<wgt id='1111'> +1.5520651e-12 </wgt>
<wgt id='1112'> +1.5366907e-12 </wgt>
<wgt id='1113'> +1.5096339e-12 </wgt>
<wgt id='1114'> +1.6047575e-12 </wgt>
<wgt id='1115'> +1.5434155e-12 </wgt>
<wgt id='1116'> +1.5722911e-12 </wgt>
<wgt id='1117'> +1.6016032e-12 </wgt>
<wgt id='1118'> +1.5840958e-12 </wgt>
<wgt id='1119'> +1.6032966e-12 </wgt>
<wgt id='1120'> +1.6010067e-12 </wgt>
<wgt id='1121'> +1.5625417e-12 </wgt>
<wgt id='1122'> +1.5361003e-12 </wgt>
<wgt id='1123'> +1.5846966e-12 </wgt>
<wgt id='1124'> +1.5558708e-12 </wgt>
<wgt id='1125'> +1.5580858e-12 </wgt>
<wgt id='1126'> +1.5294381e-12 </wgt>
<wgt id='1127'> +1.5354153e-12 </wgt>
<wgt id='1128'> +1.5848629e-12 </wgt>
<wgt id='1129'> +1.5335999e-12 </wgt>
<wgt id='1130'> +1.5856396e-12 </wgt>
<wgt id='1131'> +1.6025459e-12 </wgt>
<wgt id='1132'> +1.5057455e-12 </wgt>
<wgt id='1133'> +1.5369373e-12 </wgt>
<wgt id='1134'> +1.5548476e-12 </wgt>
<wgt id='1135'> +1.6082913e-12 </wgt>
<wgt id='1136'> +1.5352370e-12 </wgt>
<wgt id='1137'> +1.5300994e-12 </wgt>
<wgt id='1138'> +1.5693034e-12 </wgt>
<wgt id='1139'> +1.5796027e-12 </wgt>
<wgt id='1140'> +1.5638825e-12 </wgt>
<wgt id='1141'> +1.5610349e-12 </wgt>
<wgt id='1142'> +1.5437486e-12 </wgt>
<wgt id='1143'> +1.5391523e-12 </wgt>
<wgt id='1144'> +1.6031999e-12 </wgt>
<wgt id='1145'> +1.6007576e-12 </wgt>
<wgt id='1146'> +1.6111018e-12 </wgt>
<wgt id='1147'> +1.2657905e-12 </wgt>
<wgt id='1148'> +1.2966831e-12 </wgt>
<wgt id='1149'> +1.2708759e-12 </wgt>
<wgt id='1150'> +1.2834252e-12 </wgt>
<wgt id='1151'> +1.0024644e-12 </wgt>
<wgt id='1152'> +1.4208069e-12 </wgt>
<wgt id='1153'> +1.4152172e-12 </wgt>
<wgt id='1154'> +1.4240535e-12 </wgt>
<wgt id='1155'> +1.4213769e-12 </wgt>
<wgt id='1156'> +1.4205129e-12 </wgt>
<wgt id='1157'> +1.4178859e-12 </wgt>
<wgt id='1158'> +1.4246032e-12 </wgt>
<wgt id='1159'> +1.4183766e-12 </wgt>
<wgt id='1160'> +1.4223352e-12 </wgt>
<wgt id='1161'> +1.4140407e-12 </wgt>
<wgt id='1162'> +1.4254278e-12 </wgt>
<wgt id='1163'> +1.4244426e-12 </wgt>
<wgt id='1164'> +1.4171115e-12 </wgt>
<wgt id='1165'> +1.4089023e-12 </wgt>
<wgt id='1166'> +1.4322393e-12 </wgt>
<wgt id='1167'> +1.4305011e-12 </wgt>
<wgt id='1168'> +1.4069304e-12 </wgt>
<wgt id='1169'> +1.4245628e-12 </wgt>
<wgt id='1170'> +1.4179212e-12 </wgt>
<wgt id='1171'> +1.4189986e-12 </wgt>
<wgt id='1172'> +1.4229665e-12 </wgt>
<wgt id='1173'> +1.4136496e-12 </wgt>
<wgt id='1174'> +1.4275111e-12 </wgt>
<wgt id='1175'> +1.4218285e-12 </wgt>
<wgt id='1176'> +1.4190816e-12 </wgt>
<wgt id='1177'> +1.4212320e-12 </wgt>
<wgt id='1178'> +1.4198304e-12 </wgt>
<wgt id='1179'> +1.4309439e-12 </wgt>
<wgt id='1180'> +1.4056808e-12 </wgt>
<wgt id='1181'> +1.4160824e-12 </wgt>
<wgt id='1182'> +1.4252056e-12 </wgt>
<wgt id='1183'> +1.4203669e-12 </wgt>
<wgt id='1184'> +1.4208493e-12 </wgt>
<wgt id='1185'> +1.4213732e-12 </wgt>
<wgt id='1186'> +1.4205225e-12 </wgt>
<wgt id='1187'> +1.4201771e-12 </wgt>
<wgt id='1188'> +1.4209675e-12 </wgt>
<wgt id='1189'> +1.4193068e-12 </wgt>
<wgt id='1190'> +1.4056119e-12 </wgt>
<wgt id='1191'> +1.4105615e-12 </wgt>
<wgt id='1192'> +1.4264492e-12 </wgt>
<wgt id='1193'> +1.3164045e-12 </wgt>
<wgt id='1194'> +1.3146327e-12 </wgt>
<wgt id='1195'> +1.3177607e-12 </wgt>
<wgt id='1196'> +1.3183965e-12 </wgt>
<wgt id='1197'> +1.3142036e-12 </wgt>
<wgt id='1198'> +1.3188192e-12 </wgt>
<wgt id='1199'> +1.3127926e-12 </wgt>
<wgt id='1200'> +1.3178986e-12 </wgt>
<wgt id='1201'> +1.3154647e-12 </wgt>
<wgt id='1202'> +1.3130094e-12 </wgt>
<wgt id='1203'> +1.3212577e-12 </wgt>
<wgt id='1204'> +1.2966596e-12 </wgt>
<wgt id='1205'> +1.3286470e-12 </wgt>
<wgt id='1206'> +1.3219312e-12 </wgt>
<wgt id='1207'> +1.3088933e-12 </wgt>
<wgt id='1208'> +1.3093633e-12 </wgt>
<wgt id='1209'> +1.3190309e-12 </wgt>
<wgt id='1210'> +1.3160965e-12 </wgt>
<wgt id='1211'> +1.3085294e-12 </wgt>
<wgt id='1212'> +1.3145097e-12 </wgt>
<wgt id='1213'> +1.3181580e-12 </wgt>
<wgt id='1214'> +1.3074093e-12 </wgt>
<wgt id='1215'> +1.3295997e-12 </wgt>
<wgt id='1216'> +1.3224916e-12 </wgt>
<wgt id='1217'> +1.3121347e-12 </wgt>
<wgt id='1218'> +1.3225895e-12 </wgt>
<wgt id='1219'> +1.3132364e-12 </wgt>
<wgt id='1220'> +1.3205741e-12 </wgt>
<wgt id='1221'> +1.3158863e-12 </wgt>
<wgt id='1222'> +1.3163833e-12 </wgt>
<wgt id='1223'> +1.3193159e-12 </wgt>
<wgt id='1224'> +1.3175297e-12 </wgt>
<wgt id='1225'> +1.3159399e-12 </wgt>
<wgt id='1226'> +1.3169050e-12 </wgt>
<wgt id='1227'> +1.3161443e-12 </wgt>
<wgt id='1228'> +1.3123075e-12 </wgt>
<wgt id='1229'> +1.3182539e-12 </wgt>
<wgt id='1230'> +1.3210068e-12 </wgt>
<wgt id='1231'> +1.3026445e-12 </wgt>
<wgt id='1232'> +1.3136622e-12 </wgt>
<wgt id='1233'> +1.3171535e-12 </wgt>
<wgt id='1234'> +1.3164045e-12 </wgt>
<wgt id='1235'> +1.3069477e-12 </wgt>
<wgt id='1236'> +1.3104834e-12 </wgt>
<wgt id='1237'> +1.3136480e-12 </wgt>
<wgt id='1238'> +1.3192674e-12 </wgt>
<wgt id='1239'> +1.3215118e-12 </wgt>
<wgt id='1240'> +1.3236470e-12 </wgt>
<wgt id='1241'> +1.2568753e-12 </wgt>
<wgt id='1242'> +1.2512417e-12 </wgt>
<wgt id='1243'> +1.2624558e-12 </wgt>
<wgt id='1244'> +1.2515227e-12 </wgt>
<wgt id='1245'> +1.2608755e-12 </wgt>
<wgt id='1246'> +1.2582690e-12 </wgt>
<wgt id='1247'> +1.2557547e-12 </wgt>
<wgt id='1248'> +1.2567585e-12 </wgt>
<wgt id='1249'> +1.2569971e-12 </wgt>
<wgt id='1250'> +1.2533422e-12 </wgt>
<wgt id='1251'> +1.2594555e-12 </wgt>
<wgt id='1252'> +1.2540216e-12 </wgt>
<wgt id='1253'> +1.2590921e-12 </wgt>
<wgt id='1254'> +1.2386102e-12 </wgt>
<wgt id='1255'> +1.2678907e-12 </wgt>
<wgt id='1256'> +1.2616763e-12 </wgt>
<wgt id='1257'> +1.2449049e-12 </wgt>
<wgt id='1258'> +1.2675622e-12 </wgt>
<wgt id='1259'> +1.2458409e-12 </wgt>
<wgt id='1260'> +1.2608392e-12 </wgt>
<wgt id='1261'> +1.2524433e-12 </wgt>
<wgt id='1262'> +1.2594342e-12 </wgt>
<wgt id='1263'> +1.2556998e-12 </wgt>
<wgt id='1264'> +1.2662504e-12 </wgt>
<wgt id='1265'> +1.2523848e-12 </wgt>
<wgt id='1266'> +1.2529053e-12 </wgt>
<wgt id='1267'> +1.2617188e-12 </wgt>
<wgt id='1268'> +1.2573379e-12 </wgt>
<wgt id='1269'> +1.2601043e-12 </wgt>
<wgt id='1270'> +1.2505602e-12 </wgt>
<wgt id='1271'> +1.2527564e-12 </wgt>
<wgt id='1272'> +1.2572919e-12 </wgt>
<wgt id='1273'> +1.2563721e-12 </wgt>
<wgt id='1274'> +1.2571760e-12 </wgt>
<wgt id='1275'> +1.2554881e-12 </wgt>
<wgt id='1276'> +1.2578613e-12 </wgt>
<wgt id='1277'> +1.2550814e-12 </wgt>
<wgt id='1278'> +1.2532934e-12 </wgt>
<wgt id='1279'> +1.2569050e-12 </wgt>
<wgt id='1280'> +1.2575464e-12 </wgt>
<wgt id='1281'> +1.2539937e-12 </wgt>
<wgt id='1282'> +1.2568753e-12 </wgt>
<wgt id='1283'> +1.2473185e-12 </wgt>
<wgt id='1284'> +1.2510518e-12 </wgt>
<wgt id='1285'> +1.2543396e-12 </wgt>
<wgt id='1286'> +1.2597085e-12 </wgt>
<wgt id='1287'> +1.2618209e-12 </wgt>
<wgt id='1288'> +1.2637151e-12 </wgt>
<wgt id='1289'> +1.3697026e-12 </wgt>
<wgt id='1290'> +1.3714469e-12 </wgt>
<wgt id='1291'> +1.3678633e-12 </wgt>
<wgt id='1292'> +1.3706497e-12 </wgt>
<wgt id='1293'> +1.3690318e-12 </wgt>
<wgt id='1294'> +1.3697536e-12 </wgt>
<wgt id='1295'> +1.3696744e-12 </wgt>
<wgt id='1296'> +1.3650845e-12 </wgt>
<wgt id='1297'> +1.3754933e-12 </wgt>
<wgt id='1298'> +1.3778136e-12 </wgt>
<wgt id='1299'> +1.3596438e-12 </wgt>
<wgt id='1300'> +1.3737250e-12 </wgt>
<wgt id='1301'> +1.3616051e-12 </wgt>
<wgt id='1302'> +1.3684123e-12 </wgt>
<wgt id='1303'> +1.3714885e-12 </wgt>
<wgt id='1304'> +1.3650755e-12 </wgt>
<wgt id='1305'> +1.3728426e-12 </wgt>
<wgt id='1306'> +1.3607420e-12 </wgt>
<wgt id='1307'> +1.3798127e-12 </wgt>
<wgt id='1308'> +1.3693572e-12 </wgt>
<wgt id='1309'> +1.3699527e-12 </wgt>
<wgt id='1310'> +1.3664310e-12 </wgt>
<wgt id='1311'> +1.3732906e-12 </wgt>
<wgt id='1312'> +1.3617395e-12 </wgt>
<wgt id='1313'> +1.3779229e-12 </wgt>
<wgt id='1314'> +1.3758191e-12 </wgt>
<wgt id='1315'> +1.3571378e-12 </wgt>
<wgt id='1316'> +1.3753408e-12 </wgt>
<wgt id='1317'> +1.3702704e-12 </wgt>
<wgt id='1318'> +1.3805774e-12 </wgt>
<wgt id='1319'> +1.3568776e-12 </wgt>
<wgt id='1320'> +1.3746822e-12 </wgt>
<wgt id='1321'> +1.3646891e-12 </wgt>
<wgt id='1322'> +1.3712041e-12 </wgt>
<wgt id='1323'> +1.3674970e-12 </wgt>
<wgt id='1324'> +1.3689170e-12 </wgt>
<wgt id='1325'> +1.3752315e-12 </wgt>
<wgt id='1326'> +1.3727058e-12 </wgt>
<wgt id='1327'> +1.3692536e-12 </wgt>
<wgt id='1328'> +1.3684215e-12 </wgt>
<wgt id='1329'> +1.3707679e-12 </wgt>
<wgt id='1330'> +1.3674285e-12 </wgt>
<wgt id='1331'> +1.3728052e-12 </wgt>
<wgt id='1332'> +1.3944825e-12 </wgt>
<wgt id='1333'> +1.3602109e-12 </wgt>
<wgt id='1334'> +1.3680642e-12 </wgt>
<wgt id='1335'> +1.3742875e-12 </wgt>
<wgt id='1336'> +1.3685508e-12 </wgt>
<wgt id='1337'> +1.3644384e-12 </wgt>
<wgt id='1338'> +1.3695478e-12 </wgt>
<wgt id='1339'> +1.3696069e-12 </wgt>
<wgt id='1340'> +1.3427938e-12 </wgt>
<wgt id='1341'> +1.3446063e-12 </wgt>
<wgt id='1342'> +1.3408562e-12 </wgt>
<wgt id='1343'> +1.3438422e-12 </wgt>
<wgt id='1344'> +1.3421592e-12 </wgt>
<wgt id='1345'> +1.3428530e-12 </wgt>
<wgt id='1346'> +1.3428344e-12 </wgt>
<wgt id='1347'> +1.3380970e-12 </wgt>
<wgt id='1348'> +1.3480647e-12 </wgt>
<wgt id='1349'> +1.3503232e-12 </wgt>
<wgt id='1350'> +1.3355075e-12 </wgt>
<wgt id='1351'> +1.3468764e-12 </wgt>
<wgt id='1352'> +1.3339954e-12 </wgt>
<wgt id='1353'> +1.3407733e-12 </wgt>
<wgt id='1354'> +1.3464762e-12 </wgt>
<wgt id='1355'> +1.3381053e-12 </wgt>
<wgt id='1356'> +1.3454439e-12 </wgt>
<wgt id='1357'> +1.3332552e-12 </wgt>
<wgt id='1358'> +1.3541211e-12 </wgt>
<wgt id='1359'> +1.3446396e-12 </wgt>
<wgt id='1360'> +1.3412981e-12 </wgt>
<wgt id='1361'> +1.3395617e-12 </wgt>
<wgt id='1362'> +1.3472749e-12 </wgt>
<wgt id='1363'> +1.3318580e-12 </wgt>
<wgt id='1364'> +1.3506971e-12 </wgt>
<wgt id='1365'> +1.3328401e-12 </wgt>
<wgt id='1366'> +1.3469613e-12 </wgt>
<wgt id='1367'> +1.3478910e-12 </wgt>
<wgt id='1368'> +1.3430418e-12 </wgt>
<wgt id='1369'> +1.3521420e-12 </wgt>
<wgt id='1370'> +1.3318657e-12 </wgt>
<wgt id='1371'> +1.3474240e-12 </wgt>
<wgt id='1372'> +1.3367900e-12 </wgt>
<wgt id='1373'> +1.3443917e-12 </wgt>
<wgt id='1374'> +1.3409545e-12 </wgt>
<wgt id='1375'> +1.3419759e-12 </wgt>
<wgt id='1376'> +1.3487375e-12 </wgt>
<wgt id='1377'> +1.3457538e-12 </wgt>
<wgt id='1378'> +1.3429494e-12 </wgt>
<wgt id='1379'> +1.3414591e-12 </wgt>
<wgt id='1380'> +1.3442083e-12 </wgt>
<wgt id='1381'> +1.3417420e-12 </wgt>
<wgt id='1382'> +1.3444622e-12 </wgt>
<wgt id='1383'> +1.3662012e-12 </wgt>
<wgt id='1384'> +1.3337640e-12 </wgt>
<wgt id='1385'> +1.3415284e-12 </wgt>
<wgt id='1386'> +1.3464281e-12 </wgt>
<wgt id='1387'> +1.3411329e-12 </wgt>
<wgt id='1388'> +1.3370636e-12 </wgt>
<wgt id='1389'> +1.3421037e-12 </wgt>
<wgt id='1390'> +1.3426703e-12 </wgt>
<wgt id='1391'> +1.3113007e-12 </wgt>
<wgt id='1392'> +1.2740397e-12 </wgt>
<wgt id='1393'> +1.2866830e-12 </wgt>
<wgt id='1394'> +1.2993851e-12 </wgt>
<wgt id='1395'> +1.3231662e-12 </wgt>
<wgt id='1396'> +1.3112794e-12 </wgt>
<wgt id='1397'> +1.3351709e-12 </wgt>
<wgt id='1398'> +1.3298347e-12 </wgt>
<wgt id='1399'> +1.3249142e-12 </wgt>
<wgt id='1400'> +1.3203688e-12 </wgt>
<wgt id='1401'> +1.3157653e-12 </wgt>
<wgt id='1402'> +1.3072958e-12 </wgt>
<wgt id='1403'> +1.3036016e-12 </wgt>
<wgt id='1404'> +1.3000335e-12 </wgt>
<wgt id='1405'> +1.3112794e-12 </wgt>
<wgt id='1406'> +1.3043963e-12 </wgt>
<wgt id='1407'> +1.3079317e-12 </wgt>
<wgt id='1408'> +1.3143906e-12 </wgt>
<wgt id='1409'> +1.3169087e-12 </wgt>
<wgt id='1410'> +1.2393089e-12 </wgt>
<wgt id='1411'> +1.2407733e-12 </wgt>
<wgt id='1412'> +1.2373290e-12 </wgt>
<wgt id='1413'> +1.2420493e-12 </wgt>
<wgt id='1414'> +1.2365355e-12 </wgt>
<wgt id='1415'> +1.2414950e-12 </wgt>
<wgt id='1416'> +1.2383894e-12 </wgt>
<wgt id='1417'> +1.2328655e-12 </wgt>
<wgt id='1418'> +1.2456926e-12 </wgt>
<wgt id='1419'> +1.2427991e-12 </wgt>
<wgt id='1420'> +1.2359043e-12 </wgt>
<wgt id='1421'> +1.2211197e-12 </wgt>
<wgt id='1422'> +1.2471645e-12 </wgt>
<wgt id='1423'> +1.2392712e-12 </wgt>
<wgt id='1424'> +1.2392940e-12 </wgt>
<wgt id='1425'> +1.2338135e-12 </wgt>
<wgt id='1426'> +1.2452026e-12 </wgt>
<wgt id='1427'> +1.2281785e-12 </wgt>
<wgt id='1428'> +1.2451955e-12 </wgt>
<wgt id='1429'> +1.2364140e-12 </wgt>
<wgt id='1430'> +1.2431862e-12 </wgt>
<wgt id='1431'> +1.2409438e-12 </wgt>
<wgt id='1432'> +1.2380546e-12 </wgt>
<wgt id='1433'> +1.2468643e-12 </wgt>
<wgt id='1434'> +1.2306074e-12 </wgt>
<wgt id='1435'> +1.2436893e-12 </wgt>
<wgt id='1436'> +1.2286341e-12 </wgt>
<wgt id='1437'> +1.2459929e-12 </wgt>
<wgt id='1438'> +1.2380136e-12 </wgt>
<wgt id='1439'> +1.2333412e-12 </wgt>
<wgt id='1440'> +1.2528951e-12 </wgt>
<wgt id='1441'> +1.2403763e-12 </wgt>
<wgt id='1442'> +1.2375305e-12 </wgt>
<wgt id='1443'> +1.2375758e-12 </wgt>
<wgt id='1444'> +1.2440282e-12 </wgt>
<wgt id='1445'> +1.2441551e-12 </wgt>
<wgt id='1446'> +1.2382833e-12 </wgt>
<wgt id='1447'> +1.2399412e-12 </wgt>
<wgt id='1448'> +1.2405034e-12 </wgt>
<wgt id='1449'> +1.2381506e-12 </wgt>
<wgt id='1450'> +1.2399162e-12 </wgt>
<wgt id='1451'> +1.2375137e-12 </wgt>
<wgt id='1452'> +1.2410379e-12 </wgt>
<wgt id='1453'> +1.2403156e-12 </wgt>
<wgt id='1454'> +1.2333543e-12 </wgt>
<wgt id='1455'> +1.2325951e-12 </wgt>
<wgt id='1456'> +1.2429929e-12 </wgt>
<wgt id='1457'> +1.2407100e-12 </wgt>
<wgt id='1458'> +1.2386937e-12 </wgt>
<wgt id='1459'> +1.2415059e-12 </wgt>
<wgt id='1460'> +1.2379772e-12 </wgt>
<wgt id='1461'> +1.2393089e-12 </wgt>
<wgt id='1462'> +1.2326142e-12 </wgt>
<wgt id='1463'> +1.2456032e-12 </wgt>
<wgt id='1464'> +1.2396911e-12 </wgt>
<wgt id='1465'> +1.2658134e-12 </wgt>
<wgt id='1466'> +1.2594484e-12 </wgt>
<wgt id='1467'> +1.2537987e-12 </wgt>
<wgt id='1468'> +1.2498509e-12 </wgt>
<wgt id='1469'> +1.2441934e-12 </wgt>
<wgt id='1470'> +1.2360402e-12 </wgt>
<wgt id='1471'> +1.2311138e-12 </wgt>
<wgt id='1472'> +1.2270914e-12 </wgt>
<wgt id='1473'> +1.2396911e-12 </wgt>
<wgt id='1474'> +1.2331717e-12 </wgt>
<wgt id='1475'> +1.2368822e-12 </wgt>
<wgt id='1476'> +1.2424189e-12 </wgt>
<wgt id='1477'> +1.2447337e-12 </wgt>
<wgt id='1478'> +1.2908354e-12 </wgt>
<wgt id='1479'> +1.2909859e-12 </wgt>
<wgt id='1480'> +1.2900816e-12 </wgt>
<wgt id='1481'> +1.2810761e-12 </wgt>
<wgt id='1482'> +1.2959214e-12 </wgt>
<wgt id='1483'> +1.2834599e-12 </wgt>
<wgt id='1484'> +1.2913783e-12 </wgt>
<wgt id='1485'> +1.3050243e-12 </wgt>
<wgt id='1486'> +1.2905570e-12 </wgt>
<wgt id='1487'> +1.2919264e-12 </wgt>
<wgt id='1488'> +1.2862401e-12 </wgt>
<wgt id='1489'> +1.3124063e-12 </wgt>
<wgt id='1490'> +1.2927457e-12 </wgt>
<wgt id='1491'> +1.2935789e-12 </wgt>
<wgt id='1492'> +1.2884257e-12 </wgt>
<wgt id='1493'> +1.2809049e-12 </wgt>
<wgt id='1494'> +1.2933114e-12 </wgt>
<wgt id='1495'> +1.3003367e-12 </wgt>
<wgt id='1496'> +1.2903384e-12 </wgt>
<wgt id='1497'> +1.2957547e-12 </wgt>
<wgt id='1498'> +1.2889790e-12 </wgt>
<wgt id='1499'> +1.2944062e-12 </wgt>
<wgt id='1500'> +1.2899202e-12 </wgt>
<wgt id='1501'> +1.2901194e-12 </wgt>
<wgt id='1502'> +1.2918540e-12 </wgt>
<wgt id='1503'> +1.2932119e-12 </wgt>
<wgt id='1504'> +1.2925893e-12 </wgt>
<wgt id='1505'> +1.2905950e-12 </wgt>
<wgt id='1506'> +1.2926491e-12 </wgt>
<wgt id='1507'> +1.2897939e-12 </wgt>
<wgt id='1508'> +1.2992978e-12 </wgt>
<wgt id='1509'> +1.2817596e-12 </wgt>
<wgt id='1510'> +1.2791627e-12 </wgt>
<wgt id='1511'> +1.2841224e-12 </wgt>
<wgt id='1512'> +1.2826784e-12 </wgt>
<wgt id='1513'> +1.2832017e-12 </wgt>
<wgt id='1514'> +1.2818224e-12 </wgt>
<wgt id='1515'> +1.2816354e-12 </wgt>
<wgt id='1516'> +1.2828797e-12 </wgt>
<wgt id='1517'> +1.2862319e-12 </wgt>
<wgt id='1518'> +1.2808678e-12 </wgt>
<wgt id='1519'> +1.2775318e-12 </wgt>
<wgt id='1520'> +1.2889250e-12 </wgt>
<wgt id='1521'> +1.2875421e-12 </wgt>
<wgt id='1522'> +1.2899138e-12 </wgt>
<wgt id='1523'> +1.2874454e-12 </wgt>
<wgt id='1524'> +1.2848895e-12 </wgt>
<wgt id='1525'> +1.2813996e-12 </wgt>
<wgt id='1526'> +1.2837189e-12 </wgt>
<wgt id='1527'> +1.2852718e-12 </wgt>
<wgt id='1528'> +1.2789224e-12 </wgt>
<wgt id='1529'> +1.2858945e-12 </wgt>
<wgt id='1530'> +1.2744873e-12 </wgt>
<wgt id='1531'> +1.2846395e-12 </wgt>
<wgt id='1532'> +1.2827761e-12 </wgt>
<wgt id='1533'> +1.2798958e-12 </wgt>
<wgt id='1534'> +1.2806652e-12 </wgt>
<wgt id='1535'> +1.2880570e-12 </wgt>
<wgt id='1536'> +1.2842994e-12 </wgt>
<wgt id='1537'> +1.2813060e-12 </wgt>
<wgt id='1538'> +1.2819039e-12 </wgt>
<wgt id='1539'> +1.2815646e-12 </wgt>
<wgt id='1540'> +1.2804410e-12 </wgt>
<wgt id='1541'> +1.2822699e-12 </wgt>
<wgt id='1542'> +1.2805850e-12 </wgt>
<wgt id='1543'> +1.2823394e-12 </wgt>
<wgt id='1544'> +1.2831967e-12 </wgt>
<wgt id='1545'> +1.2801283e-12 </wgt>
<wgt id='1546'> +1.2811958e-12 </wgt>
<wgt id='1547'> +1.2810550e-12 </wgt>
<wgt id='1548'> +1.2830611e-12 </wgt>
<wgt id='1549'> +1.2821966e-12 </wgt>
<wgt id='1550'> +1.2801206e-12 </wgt>
<wgt id='1551'> +1.2824138e-12 </wgt>
<wgt id='1552'> +1.2816132e-12 </wgt>
<wgt id='1553'> +1.2809132e-12 </wgt>
<wgt id='1554'> +1.2801559e-12 </wgt>
<wgt id='1555'> +1.2820186e-12 </wgt>
<wgt id='1556'> +1.2823054e-12 </wgt>
<wgt id='1557'> +1.2820932e-12 </wgt>
<wgt id='1558'> +1.2819021e-12 </wgt>
<wgt id='1559'> +1.2813774e-12 </wgt>
<wgt id='1560'> +1.2817857e-12 </wgt>
<wgt id='1561'> +1.2814386e-12 </wgt>
<wgt id='1562'> +1.2817055e-12 </wgt>
<wgt id='1563'> +1.2825361e-12 </wgt>
<wgt id='1564'> +1.2819058e-12 </wgt>
<wgt id='1565'> +1.2817653e-12 </wgt>
<wgt id='1566'> +1.2818320e-12 </wgt>
<wgt id='1567'> +1.2817125e-12 </wgt>
<wgt id='1568'> +1.2810603e-12 </wgt>
<wgt id='1569'> +1.2816662e-12 </wgt>
<wgt id='1570'> +1.2818365e-12 </wgt>
<wgt id='1571'> +1.2819708e-12 </wgt>
<wgt id='1572'> +1.2814610e-12 </wgt>
<wgt id='1573'> +1.2819248e-12 </wgt>
<wgt id='1574'> +1.2819655e-12 </wgt>
<wgt id='1575'> +1.2818277e-12 </wgt>
<wgt id='1576'> +1.2817801e-12 </wgt>
<wgt id='1577'> +1.2824146e-12 </wgt>
<wgt id='1578'> +1.2814021e-12 </wgt>
<wgt id='1579'> +1.2815778e-12 </wgt>
<wgt id='1580'> +1.2820119e-12 </wgt>
<wgt id='1581'> +1.2822581e-12 </wgt>
<wgt id='1582'> +1.2821682e-12 </wgt>
<wgt id='1583'> +1.2820179e-12 </wgt>
<wgt id='1584'> +1.2819375e-12 </wgt>
<wgt id='1585'> +1.2816913e-12 </wgt>
<wgt id='1586'> +1.2824285e-12 </wgt>
<wgt id='1587'> +1.2821763e-12 </wgt>
<wgt id='1588'> +1.2814276e-12 </wgt>
<wgt id='1589'> +1.2817862e-12 </wgt>
<wgt id='1590'> +1.2815643e-12 </wgt>
<wgt id='1591'> +1.2814537e-12 </wgt>
<wgt id='1592'> +1.2817798e-12 </wgt>
<wgt id='1593'> +1.2825909e-12 </wgt>
<wgt id='1594'> +1.2816048e-12 </wgt>
<wgt id='1595'> +1.2821462e-12 </wgt>
<wgt id='1596'> +1.2815564e-12 </wgt>
<wgt id='1597'> +1.2816241e-12 </wgt>
<wgt id='1598'> +1.2822266e-12 </wgt>
<wgt id='1599'> +1.2815827e-12 </wgt>
<wgt id='1600'> +1.2816172e-12 </wgt>
<wgt id='1601'> +1.2821107e-12 </wgt>
<wgt id='1602'> +1.2820151e-12 </wgt>
<wgt id='1603'> +1.2819055e-12 </wgt>
<wgt id='1604'> +1.2819002e-12 </wgt>
<wgt id='1605'> +1.2821248e-12 </wgt>
<wgt id='1606'> +1.2808155e-12 </wgt>
<wgt id='1607'> +1.2820667e-12 </wgt>
<wgt id='1608'> +1.2817677e-12 </wgt>
<wgt id='1609'> +1.2817655e-12 </wgt>
<wgt id='1610'> +1.2534520e-12 </wgt>
<wgt id='1611'> +1.3094675e-12 </wgt>
<wgt id='1612'> +1.4909655e-12 </wgt>
<wgt id='1613'> +1.5132795e-12 </wgt>
<wgt id='1614'> +1.5061731e-12 </wgt>
<wgt id='1615'> +1.4881492e-12 </wgt>
<wgt id='1616'> +1.5025237e-12 </wgt>
<wgt id='1617'> +1.4516450e-12 </wgt>
<wgt id='1618'> +1.4208537e-12 </wgt>
<wgt id='1619'> +1.4919870e-12 </wgt>
<wgt id='1620'> +1.5103906e-12 </wgt>
<wgt id='1621'> +1.4943055e-12 </wgt>
<wgt id='1622'> +1.5010297e-12 </wgt>
<wgt id='1623'> +1.4952004e-12 </wgt>
<wgt id='1624'> +1.4787895e-12 </wgt>
<wgt id='1625'> +1.5050287e-12 </wgt>
<wgt id='1626'> +1.5041476e-12 </wgt>
<wgt id='1627'> +1.4888418e-12 </wgt>
<wgt id='1628'> +1.5235494e-12 </wgt>
<wgt id='1629'> +1.5432294e-12 </wgt>
<wgt id='1630'> +1.5010157e-12 </wgt>
<wgt id='1631'> +1.4909886e-12 </wgt>
<wgt id='1632'> +1.5275476e-12 </wgt>
<wgt id='1633'> +1.4781712e-12 </wgt>
<wgt id='1634'> +1.5030345e-12 </wgt>
<wgt id='1635'> +1.4751733e-12 </wgt>
<wgt id='1636'> +1.4699937e-12 </wgt>
<wgt id='1637'> +1.4404773e-12 </wgt>
<wgt id='1638'> +1.5021922e-12 </wgt>
<wgt id='1639'> +1.5147968e-12 </wgt>
<wgt id='1640'> +1.5114887e-12 </wgt>
<wgt id='1641'> +1.4740344e-12 </wgt>
<wgt id='1642'> +1.5048587e-12 </wgt>
<wgt id='1643'> +1.5217618e-12 </wgt>
<wgt id='1644'> +1.4543826e-12 </wgt>
<wgt id='1645'> +1.5095660e-12 </wgt>
<wgt id='1646'> +1.5305961e-12 </wgt>
<wgt id='1647'> +1.5121965e-12 </wgt>
<wgt id='1648'> +1.5083407e-12 </wgt>
<wgt id='1649'> +1.4335409e-12 </wgt>
<wgt id='1650'> +1.4962247e-12 </wgt>
<wgt id='1651'> +1.4615647e-12 </wgt>
<wgt id='1652'> +1.5190302e-12 </wgt>
<wgt id='1653'> +1.4538659e-12 </wgt>
<wgt id='1654'> +1.4525630e-12 </wgt>
<wgt id='1655'> +1.4641986e-12 </wgt>
<wgt id='1656'> +1.4906628e-12 </wgt>
<wgt id='1657'> +1.4611283e-12 </wgt>
<wgt id='1658'> +1.5053289e-12 </wgt>
<wgt id='1659'> +1.4787895e-12 </wgt>
<wgt id='1660'> +1.4672009e-12 </wgt>
<wgt id='1661'> +1.4664484e-12 </wgt>
<wgt id='1662'> +1.4882152e-12 </wgt>
<wgt id='1663'> +1.4872493e-12 </wgt>
<wgt id='1664'> +1.5393802e-12 </wgt>
<wgt id='1665'> +1.4987763e-12 </wgt>
<wgt id='1666'> +1.4658286e-12 </wgt>
<wgt id='1667'> +1.4903455e-12 </wgt>
<wgt id='1668'> +1.4802155e-12 </wgt>
<wgt id='1669'> +1.4855232e-12 </wgt>
<wgt id='1670'> +1.4988061e-12 </wgt>
<wgt id='1671'> +1.5121873e-12 </wgt>
<wgt id='1672'> +1.5122816e-12 </wgt>
<wgt id='1673'> +1.4578513e-12 </wgt>
<wgt id='1674'> +1.4997426e-12 </wgt>
<wgt id='1675'> +1.5271765e-12 </wgt>
<wgt id='1676'> +1.4784847e-12 </wgt>
<wgt id='1677'> +1.4977907e-12 </wgt>
<wgt id='1678'> +1.4841221e-12 </wgt>
<wgt id='1679'> +1.5120249e-12 </wgt>
<wgt id='1680'> +1.4995948e-12 </wgt>
<wgt id='1681'> +1.5085346e-12 </wgt>
<wgt id='1682'> +1.4866961e-12 </wgt>
<wgt id='1683'> +1.4761832e-12 </wgt>
<wgt id='1684'> +1.4763125e-12 </wgt>
<wgt id='1685'> +1.4900668e-12 </wgt>
<wgt id='1686'> +1.4989866e-12 </wgt>
<wgt id='1687'> +1.5145945e-12 </wgt>
<wgt id='1688'> +1.4864091e-12 </wgt>
<wgt id='1689'> +1.4836516e-12 </wgt>
<wgt id='1690'> +1.4875994e-12 </wgt>
<wgt id='1691'> +1.5181879e-12 </wgt>
<wgt id='1692'> +1.5121755e-12 </wgt>
<wgt id='1693'> +1.5018007e-12 </wgt>
<wgt id='1694'> +1.4495211e-12 </wgt>
<wgt id='1695'> +1.5292562e-12 </wgt>
<wgt id='1696'> +1.5188378e-12 </wgt>
<wgt id='1697'> +1.4765239e-12 </wgt>
<wgt id='1698'> +1.4693055e-12 </wgt>
<wgt id='1699'> +1.4699710e-12 </wgt>
<wgt id='1700'> +1.4862371e-12 </wgt>
<wgt id='1701'> +1.4947780e-12 </wgt>
<wgt id='1702'> +1.4599680e-12 </wgt>
<wgt id='1703'> +1.5210774e-12 </wgt>
<wgt id='1704'> +1.4836252e-12 </wgt>
<wgt id='1705'> +1.5121104e-12 </wgt>
<wgt id='1706'> +1.4808136e-12 </wgt>
<wgt id='1707'> +1.4674078e-12 </wgt>
<wgt id='1708'> +1.4763654e-12 </wgt>
<wgt id='1709'> +1.4878095e-12 </wgt>
<wgt id='1710'> +1.4684477e-12 </wgt>
<wgt id='1711'> +1.4855855e-12 </wgt>
<wgt id='1712'> +1.5015611e-12 </wgt>
<wgt id='1713'> +1.3111319e-12 </wgt>
<wgt id='1714'> +1.2775720e-12 </wgt>
<wgt id='1715'> +1.3043579e-12 </wgt>
<wgt id='1716'> +1.3076752e-12 </wgt>
<wgt id='1717'> +1.2917668e-12 </wgt>
<wgt id='1718'> +1.2932170e-12 </wgt>
<wgt id='1719'> +1.3285426e-12 </wgt>
<wgt id='1720'> +1.3253976e-12 </wgt>
<wgt id='1721'> +1.3138820e-12 </wgt>
<wgt id='1722'> +1.3059837e-12 </wgt>
<wgt id='1723'> +1.2705780e-12 </wgt>
<wgt id='1724'> +1.2969693e-12 </wgt>
<wgt id='1725'> +1.3339879e-12 </wgt>
<wgt id='1726'> +1.3374711e-12 </wgt>
<wgt id='1727'> +1.2794887e-12 </wgt>
<wgt id='1728'> +1.3247751e-12 </wgt>
<wgt id='1729'> +1.3188375e-12 </wgt>
<wgt id='1730'> +1.2900172e-12 </wgt>
<wgt id='1731'> +1.2888984e-12 </wgt>
<wgt id='1732'> +1.3276606e-12 </wgt>
<wgt id='1733'> +1.3239117e-12 </wgt>
<wgt id='1734'> +1.3234553e-12 </wgt>
<wgt id='1735'> +1.3080574e-12 </wgt>
<wgt id='1736'> +1.4107112e-12 </wgt>
<wgt id='1737'> +1.3140239e-12 </wgt>
<wgt id='1738'> +1.3271725e-12 </wgt>
<wgt id='1739'> +1.2883552e-12 </wgt>
<wgt id='1740'> +1.2727430e-12 </wgt>
<wgt id='1741'> +1.3061980e-12 </wgt>
<wgt id='1742'> +1.3017754e-12 </wgt>
<wgt id='1743'> +1.3390920e-12 </wgt>
<wgt id='1744'> +1.3195933e-12 </wgt>
<wgt id='1745'> +1.2638056e-12 </wgt>
<wgt id='1746'> +1.3184347e-12 </wgt>
<wgt id='1747'> +1.3272863e-12 </wgt>
<wgt id='1748'> +1.3051433e-12 </wgt>
<wgt id='1749'> +1.3318618e-12 </wgt>
<wgt id='1750'> +1.3350487e-12 </wgt>
<wgt id='1751'> +1.3117462e-12 </wgt>
<wgt id='1752'> +1.2718921e-12 </wgt>
<wgt id='1753'> +1.3349219e-12 </wgt>
<wgt id='1754'> +1.3060669e-12 </wgt>
<wgt id='1755'> +1.3175701e-12 </wgt>
<wgt id='1756'> +1.3306159e-12 </wgt>
<wgt id='1757'> +1.3080562e-12 </wgt>
<wgt id='1758'> +1.3242598e-12 </wgt>
<wgt id='1759'> +1.3228587e-12 </wgt>
<wgt id='1760'> +1.2887599e-12 </wgt>
<wgt id='1761'> +1.2900245e-12 </wgt>
<wgt id='1762'> +1.3041105e-12 </wgt>
<wgt id='1763'> +1.3146562e-12 </wgt>
<wgt id='1764'> +1.3155590e-12 </wgt>
<wgt id='1765'> +1.3033304e-12 </wgt>
<wgt id='1766'> +1.3337329e-12 </wgt>
<wgt id='1767'> +1.3161634e-12 </wgt>
<wgt id='1768'> +1.3044623e-12 </wgt>
<wgt id='1769'> +1.2844839e-12 </wgt>
<wgt id='1770'> +1.3406619e-12 </wgt>
<wgt id='1771'> +1.3075693e-12 </wgt>
<wgt id='1772'> +1.3275105e-12 </wgt>
<wgt id='1773'> +1.3046564e-12 </wgt>
<wgt id='1774'> +1.3134578e-12 </wgt>
<wgt id='1775'> +1.3147524e-12 </wgt>
<wgt id='1776'> +1.3300282e-12 </wgt>
<wgt id='1777'> +1.2823383e-12 </wgt>
<wgt id='1778'> +1.2853068e-12 </wgt>
<wgt id='1779'> +1.3327866e-12 </wgt>
<wgt id='1780'> +1.3596314e-12 </wgt>
<wgt id='1781'> +1.2891503e-12 </wgt>
<wgt id='1782'> +1.2673240e-12 </wgt>
<wgt id='1783'> +1.3182089e-12 </wgt>
<wgt id='1784'> +1.3279858e-12 </wgt>
<wgt id='1785'> +1.3073275e-12 </wgt>
<wgt id='1786'> +1.2342860e-12 </wgt>
<wgt id='1787'> +1.3282269e-12 </wgt>
<wgt id='1788'> +1.2969493e-12 </wgt>
<wgt id='1789'> +1.2994320e-12 </wgt>
<wgt id='1790'> +1.3367271e-12 </wgt>
<wgt id='1791'> +1.3521674e-12 </wgt>
<wgt id='1792'> +1.2935752e-12 </wgt>
<wgt id='1793'> +1.3206952e-12 </wgt>
<wgt id='1794'> +1.3110552e-12 </wgt>
<wgt id='1795'> +1.2993503e-12 </wgt>
<wgt id='1796'> +1.3160932e-12 </wgt>
<wgt id='1797'> +1.3129641e-12 </wgt>
<wgt id='1798'> +1.2808322e-12 </wgt>
<wgt id='1799'> +1.3082475e-12 </wgt>
<wgt id='1800'> +1.3043517e-12 </wgt>
<wgt id='1801'> +1.3018170e-12 </wgt>
<wgt id='1802'> +1.3340844e-12 </wgt>
<wgt id='1803'> +1.3099154e-12 </wgt>
<wgt id='1804'> +1.2873635e-12 </wgt>
<wgt id='1805'> +1.3233705e-12 </wgt>
<wgt id='1806'> +1.2967321e-12 </wgt>
<wgt id='1807'> +1.3406350e-12 </wgt>
<wgt id='1808'> +1.3010525e-12 </wgt>
<wgt id='1809'> +1.3088923e-12 </wgt>
<wgt id='1810'> +1.3033102e-12 </wgt>
<wgt id='1811'> +1.3458286e-12 </wgt>
<wgt id='1812'> +1.3342976e-12 </wgt>
<wgt id='1813'> +1.3083774e-12 </wgt>
<wgt id='1814'> +1.1516797e-12 </wgt>
<wgt id='1815'> +1.2904544e-12 </wgt>
<wgt id='1816'> +1.3111319e-12 </wgt>
<wgt id='1817'> +1.2775720e-12 </wgt>
<wgt id='1818'> +1.3043579e-12 </wgt>
<wgt id='1819'> +1.3076752e-12 </wgt>
<wgt id='1820'> +1.2917668e-12 </wgt>
<wgt id='1821'> +1.2932170e-12 </wgt>
<wgt id='1822'> +1.3285426e-12 </wgt>
<wgt id='1823'> +1.3253976e-12 </wgt>
<wgt id='1824'> +1.3138820e-12 </wgt>
<wgt id='1825'> +1.3059837e-12 </wgt>
<wgt id='1826'> +1.2705780e-12 </wgt>
<wgt id='1827'> +1.2969693e-12 </wgt>
<wgt id='1828'> +1.3339879e-12 </wgt>
<wgt id='1829'> +1.3374711e-12 </wgt>
<wgt id='1830'> +1.2794887e-12 </wgt>
<wgt id='1831'> +1.3247751e-12 </wgt>
<wgt id='1832'> +1.3188375e-12 </wgt>
<wgt id='1833'> +1.2900172e-12 </wgt>
<wgt id='1834'> +1.2888984e-12 </wgt>
<wgt id='1835'> +1.3276606e-12 </wgt>
<wgt id='1836'> +1.3239117e-12 </wgt>
<wgt id='1837'> +1.3234553e-12 </wgt>
<wgt id='1838'> +1.3080574e-12 </wgt>
<wgt id='1839'> +1.4107112e-12 </wgt>
<wgt id='1840'> +1.3140239e-12 </wgt>
<wgt id='1841'> +1.3271725e-12 </wgt>
<wgt id='1842'> +1.2883552e-12 </wgt>
<wgt id='1843'> +1.2727430e-12 </wgt>
<wgt id='1844'> +1.3061980e-12 </wgt>
<wgt id='1845'> +1.3017754e-12 </wgt>
<wgt id='1846'> +1.3390920e-12 </wgt>
<wgt id='1847'> +1.3195933e-12 </wgt>
<wgt id='1848'> +1.2638056e-12 </wgt>
<wgt id='1849'> +1.3184347e-12 </wgt>
<wgt id='1850'> +1.3272863e-12 </wgt>
<wgt id='1851'> +1.3051433e-12 </wgt>
<wgt id='1852'> +1.3318618e-12 </wgt>
<wgt id='1853'> +1.3350487e-12 </wgt>
<wgt id='1854'> +1.3117462e-12 </wgt>
<wgt id='1855'> +1.2718921e-12 </wgt>
<wgt id='1856'> +1.3349219e-12 </wgt>
<wgt id='1857'> +1.3060669e-12 </wgt>
<wgt id='1858'> +1.3175701e-12 </wgt>
<wgt id='1859'> +1.3306159e-12 </wgt>
<wgt id='1860'> +1.3080562e-12 </wgt>
<wgt id='1861'> +1.3242598e-12 </wgt>
<wgt id='1862'> +1.3228587e-12 </wgt>
<wgt id='1863'> +1.2887599e-12 </wgt>
<wgt id='1864'> +1.2900245e-12 </wgt>
<wgt id='1865'> +1.3041105e-12 </wgt>
<wgt id='1866'> +1.3146562e-12 </wgt>
<wgt id='1867'> +1.3155590e-12 </wgt>
<wgt id='1868'> +1.3033304e-12 </wgt>
<wgt id='1869'> +1.3337329e-12 </wgt>
<wgt id='1870'> +1.3161634e-12 </wgt>
<wgt id='1871'> +1.3044623e-12 </wgt>
<wgt id='1872'> +1.2844839e-12 </wgt>
<wgt id='1873'> +1.3406619e-12 </wgt>
<wgt id='1874'> +1.3075693e-12 </wgt>
<wgt id='1875'> +1.3275105e-12 </wgt>
<wgt id='1876'> +1.3046564e-12 </wgt>
<wgt id='1877'> +1.3134578e-12 </wgt>
<wgt id='1878'> +1.3147524e-12 </wgt>
<wgt id='1879'> +1.3300282e-12 </wgt>
<wgt id='1880'> +1.2823383e-12 </wgt>
<wgt id='1881'> +1.2853068e-12 </wgt>
<wgt id='1882'> +1.3327866e-12 </wgt>
<wgt id='1883'> +1.3596314e-12 </wgt>
<wgt id='1884'> +1.2891503e-12 </wgt>
<wgt id='1885'> +1.2673240e-12 </wgt>
<wgt id='1886'> +1.3182089e-12 </wgt>
<wgt id='1887'> +1.3279858e-12 </wgt>
<wgt id='1888'> +1.3073275e-12 </wgt>
<wgt id='1889'> +1.2342860e-12 </wgt>
<wgt id='1890'> +1.3282269e-12 </wgt>
<wgt id='1891'> +1.2969493e-12 </wgt>
<wgt id='1892'> +1.2994320e-12 </wgt>
<wgt id='1893'> +1.3367271e-12 </wgt>
<wgt id='1894'> +1.3521674e-12 </wgt>
<wgt id='1895'> +1.2935752e-12 </wgt>
<wgt id='1896'> +1.3206952e-12 </wgt>
<wgt id='1897'> +1.3110552e-12 </wgt>
<wgt id='1898'> +1.2993503e-12 </wgt>
<wgt id='1899'> +1.3160932e-12 </wgt>
<wgt id='1900'> +1.3129641e-12 </wgt>
<wgt id='1901'> +1.2808322e-12 </wgt>
<wgt id='1902'> +1.3082475e-12 </wgt>
<wgt id='1903'> +1.3043517e-12 </wgt>
<wgt id='1904'> +1.3018170e-12 </wgt>
<wgt id='1905'> +1.3340844e-12 </wgt>
<wgt id='1906'> +1.3099154e-12 </wgt>
<wgt id='1907'> +1.2873635e-12 </wgt>
<wgt id='1908'> +1.3233705e-12 </wgt>
<wgt id='1909'> +1.2967321e-12 </wgt>
<wgt id='1910'> +1.3406350e-12 </wgt>
<wgt id='1911'> +1.3010525e-12 </wgt>
<wgt id='1912'> +1.3088923e-12 </wgt>
<wgt id='1913'> +1.3033102e-12 </wgt>
<wgt id='1914'> +1.3458286e-12 </wgt>
<wgt id='1915'> +1.3342976e-12 </wgt>
<wgt id='1916'> +1.3083774e-12 </wgt>
<wgt id='1917'> +1.2960898e-12 </wgt>
<wgt id='1918'> +1.3225267e-12 </wgt>
<wgt id='1919'> +1.2797692e-12 </wgt>
</rwgt>
</event>
<event>
 9      1 +1.5607000e-12 2.90017700e+01 7.81860800e-03 1.45989500e-01
       21 -1    0    0  501  502 +0.0000000000e+00 +0.0000000000e+00 +7.4828631107e+01 7.4828631107e+01 0.0000000000e+00 0.0000e+00 1.0000e+00
       -2 -1    0    0    0  501 -0.0000000000e+00 -0.0000000000e+00 -1.7982581720e+01 1.7982581720e+01 0.0000000000e+00 0.0000e+00 1.0000e+00
     1023  2    1    2    0    0 -1.8123873660e+01 -1.6962354265e+01 -1.8715270831e+00 2.9062094831e+01 1.4996882465e+01 0.0000e+00 0.0000e+00
  1000023  2    3    3    0    0 -1.5628785714e+01 -1.3519324091e+01 -4.7331922874e+00 2.1901854027e+01 5.5006393985e+00 0.0000e+00 0.0000e+00
       -2  1    1    2    0  502 +1.8123873660e+01 +1.6962354265e+01 +5.8717576470e+01 6.3749117995e+01 0.0000000000e+00 0.0000e+00 1.0000e+00
  1000022  1    4    4    0    0 -1.5353038562e+01 -1.3344659946e+01 -4.5411672602e+00 2.1434037003e+01 5.0000000000e+00 0.0000e+00 1.0000e+00
      -13  1    4    4    0    0 -1.9385286606e-01 -1.8025444971e-01 -8.7981377772e-02 2.9830154736e-01 1.0570000000e-01 0.0000e+00 -1.0000e+00
       13  1    4    4    0    0 -8.1894285430e-02 +5.5903047664e-03 -1.0404364946e-01 1.6951547565e-01 1.0570000000e-01 0.0000e+00 -1.0000e+00
  1000022  1    3    3    0    0 -2.4950879462e+00 -3.4430301740e+00 +2.8616652044e+00 7.1602408046e+00 5.0000000000e+00 0.0000e+00 1.0000e+00
<mgrwt>
<rscale>  1 0.29001771E+02</rscale>
<asrwt>0</asrwt>
<pdfrwt beam="1">  1       21 0.11512097E-01 0.29001771E+02</pdfrwt>
<pdfrwt beam="2">  1       -2 0.27665511E-02 0.29001771E+02</pdfrwt>
<totfact> 0.21910470E+06</totfact>
</mgrwt>
<rwgt>
<wgt id='1001'> +1.5607000e-12 </wgt>
<wgt id='1002'> +1.5770569e-12 </wgt>
<wgt id='1003'> +1.5771386e-12 </wgt>
<wgt id='1004'> +1.5551492e-12 </wgt>
<wgt id='1005'> +1.5757879e-12 </wgt>
<wgt id='1006'> +1.3643627e-12 </wgt>
<wgt id='1007'> +1.3988547e-12 </wgt>
<wgt id='1008'> +1.3993281e-12 </wgt>
<wgt id='1009'> +1.3558403e-12 </wgt>
<wgt id='1010'> +1.4077044e-12 </wgt>
<wgt id='1011'> +1.8263428e-12 </wgt>
<wgt id='1012'> +1.8095782e-12 </wgt>
<wgt id='1013'> +1.8089785e-12 </wgt>
<wgt id='1014'> +1.8266785e-12 </wgt>
<wgt id='1015'> +1.7913251e-12 </wgt>
<wgt id='1016'> +1.8043962e-12 </wgt>
<wgt id='1017'> +1.7682368e-12 </wgt>
<wgt id='1018'> +1.7673104e-12 </wgt>
<wgt id='1019'> +1.8089785e-12 </wgt>
<wgt id='1020'> +1.7426458e-12 </wgt>
<wgt id='1021'> +1.5774018e-12 </wgt>
<wgt id='1022'> +1.5684319e-12 </wgt>
<wgt id='1023'> +1.5680595e-12 </wgt>
<wgt id='1024'> +1.5771386e-12 </wgt>
<wgt id='1025'> +1.5567642e-12 </wgt>
<wgt id='1026'> +2.1115180e-12 </wgt>
<wgt id='1027'> +2.0289456e-12 </wgt>
<wgt id='1028'> +2.0271056e-12 </wgt>
<wgt id='1029'> +2.1248264e-12 </wgt>
<wgt id='1030'> +1.9810060e-12 </wgt>
<wgt id='1031'> +1.2791686e-12 </wgt>
<wgt id='1032'> +1.3546101e-12 </wgt>
<wgt id='1033'> +1.3558403e-12 </wgt>
<wgt id='1034'> +1.2625075e-12 </wgt>
<wgt id='1035'> +1.3816475e-12 </wgt>
<wgt id='1036'> +1.1182482e-12 </wgt>
<wgt id='1037'> +1.2015437e-12 </wgt>
<wgt id='1038'> +1.2029795e-12 </wgt>
<wgt id='1039'> +1.1007037e-12 </wgt>
<wgt id='1040'> +1.2342723e-12 </wgt>
<wgt id='1041'> +1.4968926e-12 </wgt>
<wgt id='1042'> +1.5543338e-12 </wgt>
<wgt id='1043'> +1.5551492e-12 </wgt>
<wgt id='1044'> +1.4829415e-12 </wgt>
<wgt id='1045'> +1.5706302e-12 </wgt>
<wgt id='1046'> +1.5607000e-12 </wgt>
<wgt id='1047'> +1.5813540e-12 </wgt>
<wgt id='1048'> +1.5364207e-12 </wgt>
<wgt id='1049'> +1.5349768e-12 </wgt>
<wgt id='1050'> +1.5509423e-12 </wgt>
<wgt id='1051'> +1.5499020e-12 </wgt>
<wgt id='1052'> +1.5828706e-12 </wgt>
<wgt id='1053'> +1.5434452e-12 </wgt>
<wgt id='1054'> +1.5442246e-12 </wgt>
<wgt id='1055'> +1.5397985e-12 </wgt>
<wgt id='1056'> +1.5609861e-12 </wgt>
<wgt id='1057'> +1.6000162e-12 </wgt>
<wgt id='1058'> +1.5040435e-12 </wgt>
<wgt id='1059'> +1.5548642e-12 </wgt>
<wgt id='1060'> +1.5640032e-12 </wgt>
<wgt id='1061'> +1.5952333e-12 </wgt>
<wgt id='1062'> +1.5797035e-12 </wgt>
<wgt id='1063'> +1.5915958e-12 </wgt>
<wgt id='1064'> +1.5383304e-12 </wgt>
<wgt id='1065'> +1.5673515e-12 </wgt>
<wgt id='1066'> +1.5553778e-12 </wgt>
<wgt id='1067'> +1.5018694e-12 </wgt>
<wgt id='1068'> +1.5646944e-12 </wgt>
<wgt id='1069'> +1.5556899e-12 </wgt>
<wgt id='1070'> +1.5388598e-12 </wgt>
<wgt id='1071'> +1.5357438e-12 </wgt>
<wgt id='1072'> +1.6098155e-12 </wgt>
<wgt id='1073'> +1.6067746e-12 </wgt>
<wgt id='1074'> +1.5276933e-12 </wgt>
<wgt id='1075'> +1.5847993e-12 </wgt>
<wgt id='1076'> +1.5918756e-12 </wgt>
<wgt id='1077'> +1.5677554e-12 </wgt>
<wgt id='1078'> +1.5374788e-12 </wgt>
<wgt id='1079'> +1.5646297e-12 </wgt>
<wgt id='1080'> +1.5373140e-12 </wgt>
<wgt id='1081'> +1.6126902e-12 </wgt>
<wgt id='1082'> +1.5601618e-12 </wgt>
<wgt id='1083'> +1.5641990e-12 </wgt>
<wgt id='1084'> +1.5673541e-12 </wgt>
<wgt id='1085'> +1.5412823e-12 </wgt>
<wgt id='1086'> +1.5847167e-12 </wgt>
<wgt id='1087'> +1.6037945e-12 </wgt>
<wgt id='1088'> +1.5389285e-12 </wgt>
<wgt id='1089'> +1.5678486e-12 </wgt>
<wgt id='1090'> +1.5535021e-12 </wgt>
<wgt id='1091'> +1.5614986e-12 </wgt>
<wgt id='1092'> +1.5874664e-12 </wgt>
<wgt id='1093'> +1.5523977e-12 </wgt>
<wgt id='1094'> +1.5672953e-12 </wgt>
<wgt id='1095'> +1.5898611e-12 </wgt>
<wgt id='1096'> +1.5738159e-12 </wgt>
<wgt id='1097'> +1.5185019e-12 </wgt>
<wgt id='1098'> +1.5285556e-12 </wgt>
<wgt id='1099'> +1.5914382e-12 </wgt>
<wgt id='1100'> +1.5318899e-12 </wgt>
<wgt id='1101'> +1.5866978e-12 </wgt>
<wgt id='1102'> +1.5351561e-12 </wgt>
<wgt id='1103'> +1.5526747e-12 </wgt>
<wgt id='1104'> +1.5402909e-12 </wgt>
<wgt id='1105'> +1.6131627e-12 </wgt>
<wgt id='1106'> +1.5764564e-12 </wgt>
<wgt id='1107'> +1.5592988e-12 </wgt>
<wgt id='1108'> +1.5449692e-12 </wgt>
<wgt id='1109'> +1.5560343e-12 </wgt>
<wgt id='1110'> +1.5571228e-12 </wgt>
<wgt id='1111'> +1.5752019e-12 </wgt>
<wgt id='1112'> +1.5974080e-12 </wgt>
<wgt id='1113'> +1.5404366e-12 </wgt>
<wgt id='1114'> +1.5879818e-12 </wgt>
<wgt id='1115'> +1.5566416e-12 </wgt>
<wgt id='1116'> +1.5153112e-12 </wgt>
<wgt id='1117'> +1.5735283e-12 </wgt>
<wgt id='1118'> +1.5711712e-12 </wgt>
<wgt id='1119'> +1.5298421e-12 </wgt>
<wgt id='1120'> +1.5723637e-12 </wgt>
<wgt id='1121'> +1.5709821e-12 </wgt>
<wgt id='1122'> +1.6299081e-12 </wgt>
<wgt id='1123'> +1.5248002e-12 </wgt>
<wgt id='1124'> +1.5681192e-12 </wgt>
<wgt id='1125'> +1.5776884e-12 </wgt>
<wgt id='1126'> +1.5778016e-12 </wgt>
<wgt id='1127'> +1.5196372e-12 </wgt>
<wgt id='1128'> +1.5797035e-12 </wgt>
<wgt id='1129'> +1.5698985e-12 </wgt>
<wgt id='1130'> +1.5559980e-12 </wgt>
<wgt id='1131'> +1.5593686e-12 </wgt>
<wgt id='1132'> +1.5328263e-12 </wgt>
<wgt id='1133'> +1.5462785e-12 </wgt>
<wgt id='1134'> +1.5792280e-12 </wgt>
<wgt id='1135'> +1.5788915e-12 </wgt>
<wgt id='1136'> +1.5186796e-12 </wgt>
<wgt id='1137'> +1.5413634e-12 </wgt>
<wgt id='1138'> +1.5807759e-12 </wgt>
<wgt id='1139'> +1.5731762e-12 </wgt>
<wgt id='1140'> +1.5439799e-12 </wgt>
<wgt id='1141'> +1.4969713e-12 </wgt>
<wgt id='1142'> +1.5593358e-12 </wgt>
<wgt id='1143'> +1.5699947e-12 </wgt>
<wgt id='1144'> +1.5596048e-12 </wgt>
<wgt id='1145'> +1.5682951e-12 </wgt>
<wgt id='1146'> +1.5443250e-12 </wgt>
<wgt id='1147'> +1.2003469e-12 </wgt>
<wgt id='1148'> +1.2273126e-12 </wgt>
<wgt id='1149'> +1.2948862e-12 </wgt>
<wgt id='1150'> +1.2301969e-12 </wgt>
<wgt id='1151'> +1.1392015e-12 </wgt>
<wgt id='1152'> +1.4405687e-12 </wgt>
<wgt id='1153'> +1.4333027e-12 </wgt>
<wgt id='1154'> +1.4448056e-12 </wgt>
<wgt id='1155'> +1.4400442e-12 </wgt>
<wgt id='1156'> +1.4409061e-12 </wgt>
<wgt id='1157'> +1.4439651e-12 </wgt>
<wgt id='1158'> +1.4360483e-12 </wgt>
<wgt id='1159'> +1.4434173e-12 </wgt>
<wgt id='1160'> +1.4387564e-12 </wgt>
<wgt id='1161'> +1.4372051e-12 </wgt>
<wgt id='1162'> +1.4428556e-12 </wgt>
<wgt id='1163'> +1.4447158e-12 </wgt>
<wgt id='1164'> +1.4365056e-12 </wgt>
<wgt id='1165'> +1.4319941e-12 </wgt>
<wgt id='1166'> +1.4489875e-12 </wgt>
<wgt id='1167'> +1.4482847e-12 </wgt>
<wgt id='1168'> +1.4297259e-12 </wgt>
<wgt id='1169'> +1.4425949e-12 </wgt>
<wgt id='1170'> +1.4390496e-12 </wgt>
<wgt id='1171'> +1.4378822e-12 </wgt>
<wgt id='1172'> +1.4437693e-12 </wgt>
<wgt id='1173'> +1.4324091e-12 </wgt>
<wgt id='1174'> +1.4480184e-12 </wgt>
<wgt id='1175'> +1.4388545e-12 </wgt>
<wgt id='1176'> +1.4411681e-12 </wgt>
<wgt id='1177'> +1.4408814e-12 </wgt>
<wgt id='1178'> +1.4400579e-12 </wgt>
<wgt id='1179'> +1.4521546e-12 </wgt>
<wgt id='1180'> +1.4239734e-12 </wgt>
<wgt id='1181'> +1.4347322e-12 </wgt>
<wgt id='1182'> +1.4461263e-12 </wgt>
<wgt id='1183'> +1.4391235e-12 </wgt>
<wgt id='1184'> +1.4407897e-12 </wgt>
<wgt id='1185'> +1.4325734e-12 </wgt>
<wgt id='1186'> +1.4447822e-12 </wgt>
<wgt id='1187'> +1.4394756e-12 </wgt>
<wgt id='1188'> +1.4409605e-12 </wgt>
<wgt id='1189'> +1.4355892e-12 </wgt>
<wgt id='1190'> +1.4302468e-12 </wgt>
<wgt id='1191'> +1.4364675e-12 </wgt>
<wgt id='1192'> +1.4412884e-12 </wgt>
<wgt id='1193'> +1.2574851e-12 </wgt>
<wgt id='1194'> +1.2565709e-12 </wgt>
<wgt id='1195'> +1.2581735e-12 </wgt>
<wgt id='1196'> +1.2636415e-12 </wgt>
<wgt id='1197'> +1.2507235e-12 </wgt>
<wgt id='1198'> +1.2576897e-12 </wgt>
<wgt id='1199'> +1.2571710e-12 </wgt>
<wgt id='1200'> +1.2595481e-12 </wgt>
<wgt id='1201'> +1.2561375e-12 </wgt>
<wgt id='1202'> +1.2556340e-12 </wgt>
<wgt id='1203'> +1.2601661e-12 </wgt>
<wgt id='1204'> +1.2463173e-12 </wgt>
<wgt id='1205'> +1.2644029e-12 </wgt>
<wgt id='1206'> +1.2621677e-12 </wgt>
<wgt id='1207'> +1.2511030e-12 </wgt>
<wgt id='1208'> +1.2499120e-12 </wgt>
<wgt id='1209'> +1.2602799e-12 </wgt>
<wgt id='1210'> +1.2613832e-12 </wgt>
<wgt id='1211'> +1.2447345e-12 </wgt>
<wgt id='1212'> +1.2576912e-12 </wgt>
<wgt id='1213'> +1.2572474e-12 </wgt>
<wgt id='1214'> +1.2407405e-12 </wgt>
<wgt id='1215'> +1.2852027e-12 </wgt>
<wgt id='1216'> +1.2661111e-12 </wgt>
<wgt id='1217'> +1.2515748e-12 </wgt>
<wgt id='1218'> +1.2612675e-12 </wgt>
<wgt id='1219'> +1.2554532e-12 </wgt>
<wgt id='1220'> +1.2614813e-12 </wgt>
<wgt id='1221'> +1.2571130e-12 </wgt>
<wgt id='1222'> +1.2542077e-12 </wgt>
<wgt id='1223'> +1.2627278e-12 </wgt>
<wgt id='1224'> +1.2593431e-12 </wgt>
<wgt id='1225'> +1.2567660e-12 </wgt>
<wgt id='1226'> +1.2552602e-12 </wgt>
<wgt id='1227'> +1.2590449e-12 </wgt>
<wgt id='1228'> +1.2540849e-12 </wgt>
<wgt id='1229'> +1.2589373e-12 </wgt>
<wgt id='1230'> +1.2515899e-12 </wgt>
<wgt id='1231'> +1.2514584e-12 </wgt>
<wgt id='1232'> +1.2562209e-12 </wgt>
<wgt id='1233'> +1.2578380e-12 </wgt>
<wgt id='1234'> +1.2574851e-12 </wgt>
<wgt id='1235'> +1.2487846e-12 </wgt>
<wgt id='1236'> +1.2520345e-12 </wgt>
<wgt id='1237'> +1.2550143e-12 </wgt>
<wgt id='1238'> +1.2599813e-12 </wgt>
<wgt id='1239'> +1.2620625e-12 </wgt>
<wgt id='1240'> +1.2639976e-12 </wgt>
<wgt id='1241'> +1.2816462e-12 </wgt>
<wgt id='1242'> +1.2769214e-12 </wgt>
<wgt id='1243'> +1.2863397e-12 </wgt>
<wgt id='1244'> +1.2741238e-12 </wgt>
<wgt id='1245'> +1.2871379e-12 </wgt>
<wgt id='1246'> +1.2823756e-12 </wgt>
<wgt id='1247'> +1.2810223e-12 </wgt>
<wgt id='1248'> +1.2814936e-12 </wgt>
<wgt id='1249'> +1.2816938e-12 </wgt>
<wgt id='1250'> +1.2831255e-12 </wgt>
<wgt id='1251'> +1.2805674e-12 </wgt>
<wgt id='1252'> +1.2783525e-12 </wgt>
<wgt id='1253'> +1.2841602e-12 </wgt>
<wgt id='1254'> +1.2700298e-12 </wgt>
<wgt id='1255'> +1.2885547e-12 </wgt>
<wgt id='1256'> +1.2860278e-12 </wgt>
<wgt id='1257'> +1.2705352e-12 </wgt>
<wgt id='1258'> +1.3040373e-12 </wgt>
<wgt id='1259'> +1.2608617e-12 </wgt>
<wgt id='1260'> +1.2858149e-12 </wgt>
<wgt id='1261'> +1.2769154e-12 </wgt>
<wgt id='1262'> +1.2835549e-12 </wgt>
<wgt id='1263'> +1.2805814e-12 </wgt>
<wgt id='1264'> +1.2848459e-12 </wgt>
<wgt id='1265'> +1.2799303e-12 </wgt>
<wgt id='1266'> +1.2796322e-12 </wgt>
<wgt id='1267'> +1.2838388e-12 </wgt>
<wgt id='1268'> +1.2811256e-12 </wgt>
<wgt id='1269'> +1.2861595e-12 </wgt>
<wgt id='1270'> +1.2750817e-12 </wgt>
<wgt id='1271'> +1.2731602e-12 </wgt>
<wgt id='1272'> +1.2826106e-12 </wgt>
<wgt id='1273'> +1.2806102e-12 </wgt>
<wgt id='1274'> +1.2839341e-12 </wgt>
<wgt id='1275'> +1.2767324e-12 </wgt>
<wgt id='1276'> +1.2832643e-12 </wgt>
<wgt id='1277'> +1.2790649e-12 </wgt>
<wgt id='1278'> +1.2806613e-12 </wgt>
<wgt id='1279'> +1.2770911e-12 </wgt>
<wgt id='1280'> +1.2821615e-12 </wgt>
<wgt id='1281'> +1.2784644e-12 </wgt>
<wgt id='1282'> +1.2816462e-12 </wgt>
<wgt id='1283'> +1.2718800e-12 </wgt>
<wgt id='1284'> +1.2756053e-12 </wgt>
<wgt id='1285'> +1.2789058e-12 </wgt>
<wgt id='1286'> +1.2843560e-12 </wgt>
<wgt id='1287'> +1.2865349e-12 </wgt>
<wgt id='1288'> +1.2884022e-12 </wgt>
<wgt id='1289'> +1.2650444e-12 </wgt>
<wgt id='1290'> +1.2685165e-12 </wgt>
<wgt id='1291'> +1.2613995e-12 </wgt>
<wgt id='1292'> +1.2591508e-12 </wgt>
<wgt id='1293'> +1.2693195e-12 </wgt>
<wgt id='1294'> +1.2662141e-12 </wgt>
<wgt id='1295'> +1.2639311e-12 </wgt>
<wgt id='1296'> +1.2596634e-12 </wgt>
<wgt id='1297'> +1.2717524e-12 </wgt>
<wgt id='1298'> +1.2696927e-12 </wgt>
<wgt id='1299'> +1.2592708e-12 </wgt>
<wgt id='1300'> +1.2680327e-12 </wgt>
<wgt id='1301'> +1.2590115e-12 </wgt>
<wgt id='1302'> +1.2638023e-12 </wgt>
<wgt id='1303'> +1.2668091e-12 </wgt>
<wgt id='1304'> +1.2628889e-12 </wgt>
<wgt id='1305'> +1.2665008e-12 </wgt>
<wgt id='1306'> +1.2625139e-12 </wgt>
<wgt id='1307'> +1.2680948e-12 </wgt>
<wgt id='1308'> +1.2752369e-12 </wgt>
<wgt id='1309'> +1.2572883e-12 </wgt>
<wgt id='1310'> +1.2643888e-12 </wgt>
<wgt id='1311'> +1.2658869e-12 </wgt>
<wgt id='1312'> +1.2655103e-12 </wgt>
<wgt id='1313'> +1.2648867e-12 </wgt>
<wgt id='1314'> +1.2713605e-12 </wgt>
<wgt id='1315'> +1.2528929e-12 </wgt>
<wgt id='1316'> +1.2715827e-12 </wgt>
<wgt id='1317'> +1.2647129e-12 </wgt>
<wgt id='1318'> +1.2751829e-12 </wgt>
<wgt id='1319'> +1.2529081e-12 </wgt>
<wgt id='1320'> +1.2737863e-12 </wgt>
<wgt id='1321'> +1.2572650e-12 </wgt>
<wgt id='1322'> +1.2642617e-12 </wgt>
<wgt id='1323'> +1.2658083e-12 </wgt>
<wgt id='1324'> +1.2625344e-12 </wgt>
<wgt id='1325'> +1.2745247e-12 </wgt>
<wgt id='1326'> +1.2640466e-12 </wgt>
<wgt id='1327'> +1.2677014e-12 </wgt>
<wgt id='1328'> +1.2659992e-12 </wgt>
<wgt id='1329'> +1.2640015e-12 </wgt>
<wgt id='1330'> +1.2404432e-12 </wgt>
<wgt id='1331'> +1.2803634e-12 </wgt>
<wgt id='1332'> +1.2857400e-12 </wgt>
<wgt id='1333'> +1.2500668e-12 </wgt>
<wgt id='1334'> +1.2596728e-12 </wgt>
<wgt id='1335'> +1.2781665e-12 </wgt>
<wgt id='1336'> +1.2614272e-12 </wgt>
<wgt id='1337'> +1.2602169e-12 </wgt>
<wgt id='1338'> +1.2633446e-12 </wgt>
<wgt id='1339'> +1.2653911e-12 </wgt>
<wgt id='1340'> +1.2437081e-12 </wgt>
<wgt id='1341'> +1.2473124e-12 </wgt>
<wgt id='1342'> +1.2397823e-12 </wgt>
<wgt id='1343'> +1.2376253e-12 </wgt>
<wgt id='1344'> +1.2478046e-12 </wgt>
<wgt id='1345'> +1.2447996e-12 </wgt>
<wgt id='1346'> +1.2426018e-12 </wgt>
<wgt id='1347'> +1.2382528e-12 </wgt>
<wgt id='1348'> +1.2496631e-12 </wgt>
<wgt id='1349'> +1.2476941e-12 </wgt>
<wgt id='1350'> +1.2397575e-12 </wgt>
<wgt id='1351'> +1.2466690e-12 </wgt>
<wgt id='1352'> +1.2371516e-12 </wgt>
<wgt id='1353'> +1.2419778e-12 </wgt>
<wgt id='1354'> +1.2467818e-12 </wgt>
<wgt id='1355'> +1.2417394e-12 </wgt>
<wgt id='1356'> +1.2447121e-12 </wgt>
<wgt id='1357'> +1.2439509e-12 </wgt>
<wgt id='1358'> +1.2435338e-12 </wgt>
<wgt id='1359'> +1.2546321e-12 </wgt>
<wgt id='1360'> +1.2342053e-12 </wgt>
<wgt id='1361'> +1.2429041e-12 </wgt>
<wgt id='1362'> +1.2448289e-12 </wgt>
<wgt id='1363'> +1.2436025e-12 </wgt>
<wgt id='1364'> +1.2441209e-12 </wgt>
<wgt id='1365'> +1.2309187e-12 </wgt>
<wgt id='1366'> +1.2513845e-12 </wgt>
<wgt id='1367'> +1.2494662e-12 </wgt>
<wgt id='1368'> +1.2432573e-12 </wgt>
<wgt id='1369'> +1.2523441e-12 </wgt>
<wgt id='1370'> +1.2333175e-12 </wgt>
<wgt id='1371'> +1.2500018e-12 </wgt>
<wgt id='1372'> +1.2356240e-12 </wgt>
<wgt id='1373'> +1.2414433e-12 </wgt>
<wgt id='1374'> +1.2452697e-12 </wgt>
<wgt id='1375'> +1.2414242e-12 </wgt>
<wgt id='1376'> +1.2529140e-12 </wgt>
<wgt id='1377'> +1.2428096e-12 </wgt>
<wgt id='1378'> +1.2465048e-12 </wgt>
<wgt id='1379'> +1.2441467e-12 </wgt>
<wgt id='1380'> +1.2430259e-12 </wgt>
<wgt id='1381'> +1.2179180e-12 </wgt>
<wgt id='1382'> +1.2579862e-12 </wgt>
<wgt id='1383'> +1.2650962e-12 </wgt>
<wgt id='1384'> +1.2260986e-12 </wgt>
<wgt id='1385'> +1.2381678e-12 </wgt>
<wgt id='1386'> +1.2561937e-12 </wgt>
<wgt id='1387'> +1.2393329e-12 </wgt>
<wgt id='1388'> +1.2372817e-12 </wgt>
<wgt id='1389'> +1.2403601e-12 </wgt>
<wgt id='1390'> +1.2441725e-12 </wgt>
<wgt id='1391'> +1.2223091e-12 </wgt>
<wgt id='1392'> +1.1935549e-12 </wgt>
<wgt id='1393'> +1.2027062e-12 </wgt>
<wgt id='1394'> +1.2123921e-12 </wgt>
<wgt id='1395'> +1.2301183e-12 </wgt>
<wgt id='1396'> +1.2220536e-12 </wgt>
<wgt id='1397'> +1.1875318e-12 </wgt>
<wgt id='1398'> +1.1948816e-12 </wgt>
<wgt id='1399'> +1.2014554e-12 </wgt>
<wgt id='1400'> +1.2079290e-12 </wgt>
<wgt id='1401'> +1.2150091e-12 </wgt>
<wgt id='1402'> +1.2279193e-12 </wgt>
<wgt id='1403'> +1.2341878e-12 </wgt>
<wgt id='1404'> +1.2398238e-12 </wgt>
<wgt id='1405'> +1.2220536e-12 </wgt>
<wgt id='1406'> +1.2180304e-12 </wgt>
<wgt id='1407'> +1.2203129e-12 </wgt>
<wgt id='1408'> +1.2237054e-12 </wgt>
<wgt id='1409'> +1.2250604e-12 </wgt>
<wgt id='1410'> +1.2519540e-12 </wgt>
<wgt id='1411'> +1.2537967e-12 </wgt>
<wgt id='1412'> +1.2496205e-12 </wgt>
<wgt id='1413'> +1.2589825e-12 </wgt>
<wgt id='1414'> +1.2450191e-12 </wgt>
<wgt id='1415'> +1.2453574e-12 </wgt>
<wgt id='1416'> +1.2546232e-12 </wgt>
<wgt id='1417'> +1.2444383e-12 </wgt>
<wgt id='1418'> +1.2595395e-12 </wgt>
<wgt id='1419'> +1.2533033e-12 </wgt>
<wgt id='1420'> +1.2506723e-12 </wgt>
<wgt id='1421'> +1.2407947e-12 </wgt>
<wgt id='1422'> +1.2567955e-12 </wgt>
<wgt id='1423'> +1.2516024e-12 </wgt>
<wgt id='1424'> +1.2524715e-12 </wgt>
<wgt id='1425'> +1.2485781e-12 </wgt>
<wgt id='1426'> +1.2556548e-12 </wgt>
<wgt id='1427'> +1.2589744e-12 </wgt>
<wgt id='1428'> +1.2479009e-12 </wgt>
<wgt id='1429'> +1.2452629e-12 </wgt>
<wgt id='1430'> +1.2609593e-12 </wgt>
<wgt id='1431'> +1.2572318e-12 </wgt>
<wgt id='1432'> +1.2482399e-12 </wgt>
<wgt id='1433'> +1.2594487e-12 </wgt>
<wgt id='1434'> +1.2438871e-12 </wgt>
<wgt id='1435'> +1.2539711e-12 </wgt>
<wgt id='1436'> +1.2472069e-12 </wgt>
<wgt id='1437'> +1.2583915e-12 </wgt>
<wgt id='1438'> +1.2506028e-12 </wgt>
<wgt id='1439'> +1.2450303e-12 </wgt>
<wgt id='1440'> +1.2686708e-12 </wgt>
<wgt id='1441'> +1.2538589e-12 </wgt>
<wgt id='1442'> +1.2485078e-12 </wgt>
<wgt id='1443'> +1.2495018e-12 </wgt>
<wgt id='1444'> +1.2579012e-12 </wgt>
<wgt id='1445'> +1.2631579e-12 </wgt>
<wgt id='1446'> +1.2479857e-12 </wgt>
<wgt id='1447'> +1.2530841e-12 </wgt>
<wgt id='1448'> +1.2523777e-12 </wgt>
<wgt id='1449'> +1.2532016e-12 </wgt>
<wgt id='1450'> +1.2508303e-12 </wgt>
<wgt id='1451'> +1.2620224e-12 </wgt>
<wgt id='1452'> +1.2237487e-12 </wgt>
<wgt id='1453'> +1.2544437e-12 </wgt>
<wgt id='1454'> +1.2360069e-12 </wgt>
<wgt id='1455'> +1.2358417e-12 </wgt>
<wgt id='1456'> +1.2588183e-12 </wgt>
<wgt id='1457'> +1.2598992e-12 </wgt>
<wgt id='1458'> +1.2482406e-12 </wgt>
<wgt id='1459'> +1.2549581e-12 </wgt>
<wgt id='1460'> +1.2462024e-12 </wgt>
<wgt id='1461'> +1.2519540e-12 </wgt>
<wgt id='1462'> +1.2443633e-12 </wgt>
<wgt id='1463'> +1.2619665e-12 </wgt>
<wgt id='1464'> +1.2532754e-12 </wgt>
<wgt id='1465'> +1.2266891e-12 </wgt>
<wgt id='1466'> +1.2324961e-12 </wgt>
<wgt id='1467'> +1.2384834e-12 </wgt>
<wgt id='1468'> +1.2427048e-12 </wgt>
<wgt id='1469'> +1.2482585e-12 </wgt>
<wgt id='1470'> +1.2587222e-12 </wgt>
<wgt id='1471'> +1.2627267e-12 </wgt>
<wgt id='1472'> +1.2677663e-12 </wgt>
<wgt id='1473'> +1.2532754e-12 </wgt>
<wgt id='1474'> +1.2485962e-12 </wgt>
<wgt id='1475'> +1.2501424e-12 </wgt>
<wgt id='1476'> +1.2552509e-12 </wgt>
<wgt id='1477'> +1.2572172e-12 </wgt>
<wgt id='1478'> +1.2085804e-12 </wgt>
<wgt id='1479'> +1.2070120e-12 </wgt>
<wgt id='1480'> +1.2105471e-12 </wgt>
<wgt id='1481'> +1.2021221e-12 </wgt>
<wgt id='1482'> +1.2073999e-12 </wgt>
<wgt id='1483'> +1.1881292e-12 </wgt>
<wgt id='1484'> +1.2065188e-12 </wgt>
<wgt id='1485'> +1.2090393e-12 </wgt>
<wgt id='1486'> +1.2094792e-12 </wgt>
<wgt id='1487'> +1.2132021e-12 </wgt>
<wgt id='1488'> +1.2054309e-12 </wgt>
<wgt id='1489'> +1.2331229e-12 </wgt>
<wgt id='1490'> +1.2074993e-12 </wgt>
<wgt id='1491'> +1.2074259e-12 </wgt>
<wgt id='1492'> +1.2102308e-12 </wgt>
<wgt id='1493'> +1.2005936e-12 </wgt>
<wgt id='1494'> +1.2263973e-12 </wgt>
<wgt id='1495'> +1.2017079e-12 </wgt>
<wgt id='1496'> +1.2070664e-12 </wgt>
<wgt id='1497'> +1.2084778e-12 </wgt>
<wgt id='1498'> +1.2073130e-12 </wgt>
<wgt id='1499'> +1.2103479e-12 </wgt>
<wgt id='1500'> +1.2100473e-12 </wgt>
<wgt id='1501'> +1.2070206e-12 </wgt>
<wgt id='1502'> +1.2063137e-12 </wgt>
<wgt id='1503'> +1.2099345e-12 </wgt>
<wgt id='1504'> +1.2045499e-12 </wgt>
<wgt id='1505'> +1.2086372e-12 </wgt>
<wgt id='1506'> +1.2072166e-12 </wgt>
<wgt id='1507'> +1.2074442e-12 </wgt>
<wgt id='1508'> +1.2129850e-12 </wgt>
<wgt id='1509'> +1.2964731e-12 </wgt>
<wgt id='1510'> +1.2953966e-12 </wgt>
<wgt id='1511'> +1.3017802e-12 </wgt>
<wgt id='1512'> +1.3000443e-12 </wgt>
<wgt id='1513'> +1.3037605e-12 </wgt>
<wgt id='1514'> +1.2940119e-12 </wgt>
<wgt id='1515'> +1.2916062e-12 </wgt>
<wgt id='1516'> +1.2927225e-12 </wgt>
<wgt id='1517'> +1.2934019e-12 </wgt>
<wgt id='1518'> +1.3022999e-12 </wgt>
<wgt id='1519'> +1.2919218e-12 </wgt>
<wgt id='1520'> +1.2988408e-12 </wgt>
<wgt id='1521'> +1.3050110e-12 </wgt>
<wgt id='1522'> +1.3042844e-12 </wgt>
<wgt id='1523'> +1.3057404e-12 </wgt>
<wgt id='1524'> +1.2982141e-12 </wgt>
<wgt id='1525'> +1.2978675e-12 </wgt>
<wgt id='1526'> +1.2943078e-12 </wgt>
<wgt id='1527'> +1.2987480e-12 </wgt>
<wgt id='1528'> +1.2998475e-12 </wgt>
<wgt id='1529'> +1.3005378e-12 </wgt>
<wgt id='1530'> +1.3009032e-12 </wgt>
<wgt id='1531'> +1.2977154e-12 </wgt>
<wgt id='1532'> +1.2959329e-12 </wgt>
<wgt id='1533'> +1.2943658e-12 </wgt>
<wgt id='1534'> +1.2995197e-12 </wgt>
<wgt id='1535'> +1.2884246e-12 </wgt>
<wgt id='1536'> +1.2935977e-12 </wgt>
<wgt id='1537'> +1.2983134e-12 </wgt>
<wgt id='1538'> +1.2942229e-12 </wgt>
<wgt id='1539'> +1.2943156e-12 </wgt>
<wgt id='1540'> +1.2972349e-12 </wgt>
<wgt id='1541'> +1.2957665e-12 </wgt>
<wgt id='1542'> +1.2986290e-12 </wgt>
<wgt id='1543'> +1.2958124e-12 </wgt>
<wgt id='1544'> +1.2925160e-12 </wgt>
<wgt id='1545'> +1.2979994e-12 </wgt>
<wgt id='1546'> +1.2970072e-12 </wgt>
<wgt id='1547'> +1.2971572e-12 </wgt>
<wgt id='1548'> +1.2942102e-12 </wgt>
<wgt id='1549'> +1.2943785e-12 </wgt>
<wgt id='1550'> +1.2995701e-12 </wgt>
<wgt id='1551'> +1.2936055e-12 </wgt>
<wgt id='1552'> +1.2970861e-12 </wgt>
<wgt id='1553'> +1.2980746e-12 </wgt>
<wgt id='1554'> +1.2977075e-12 </wgt>
<wgt id='1555'> +1.2987176e-12 </wgt>
<wgt id='1556'> +1.2970818e-12 </wgt>
<wgt id='1557'> +1.2969723e-12 </wgt>
<wgt id='1558'> +1.2938583e-12 </wgt>
<wgt id='1559'> +1.2942481e-12 </wgt>
<wgt id='1560'> +1.2963161e-12 </wgt>
<wgt id='1561'> +1.2954147e-12 </wgt>
<wgt id='1562'> +1.2963703e-12 </wgt>
<wgt id='1563'> +1.2964851e-12 </wgt>
<wgt id='1564'> +1.2976331e-12 </wgt>
<wgt id='1565'> +1.2961989e-12 </wgt>
<wgt id='1566'> +1.2966538e-12 </wgt>
<wgt id='1567'> +1.2966030e-12 </wgt>
<wgt id='1568'> +1.2958115e-12 </wgt>
<wgt id='1569'> +1.2954263e-12 </wgt>
<wgt id='1570'> +1.2967701e-12 </wgt>
<wgt id='1571'> +1.2966729e-12 </wgt>
<wgt id='1572'> +1.2969248e-12 </wgt>
<wgt id='1573'> +1.2977243e-12 </wgt>
<wgt id='1574'> +1.2962293e-12 </wgt>
<wgt id='1575'> +1.2963220e-12 </wgt>
<wgt id='1576'> +1.2965576e-12 </wgt>
<wgt id='1577'> +1.2965512e-12 </wgt>
<wgt id='1578'> +1.2960403e-12 </wgt>
<wgt id='1579'> +1.2968851e-12 </wgt>
<wgt id='1580'> +1.2963064e-12 </wgt>
<wgt id='1581'> +1.2964849e-12 </wgt>
<wgt id='1582'> +1.2955859e-12 </wgt>
<wgt id='1583'> +1.2968776e-12 </wgt>
<wgt id='1584'> +1.2963749e-12 </wgt>
<wgt id='1585'> +1.2962114e-12 </wgt>
<wgt id='1586'> +1.2966979e-12 </wgt>
<wgt id='1587'> +1.2953628e-12 </wgt>
<wgt id='1588'> +1.2971818e-12 </wgt>
<wgt id='1589'> +1.2964512e-12 </wgt>
<wgt id='1590'> +1.2964364e-12 </wgt>
<wgt id='1591'> +1.2964383e-12 </wgt>
<wgt id='1592'> +1.2966962e-12 </wgt>
<wgt id='1593'> +1.2962439e-12 </wgt>
<wgt id='1594'> +1.2961531e-12 </wgt>
<wgt id='1595'> +1.2958264e-12 </wgt>
<wgt id='1596'> +1.2963488e-12 </wgt>
<wgt id='1597'> +1.2963680e-12 </wgt>
<wgt id='1598'> +1.2962816e-12 </wgt>
<wgt id='1599'> +1.2968652e-12 </wgt>
<wgt id='1600'> +1.2956996e-12 </wgt>
<wgt id='1601'> +1.2963132e-12 </wgt>
<wgt id='1602'> +1.2965141e-12 </wgt>
<wgt id='1603'> +1.2968831e-12 </wgt>
<wgt id='1604'> +1.2963740e-12 </wgt>
<wgt id='1605'> +1.2965470e-12 </wgt>
<wgt id='1606'> +1.2967452e-12 </wgt>
<wgt id='1607'> +1.2959837e-12 </wgt>
<wgt id='1608'> +1.2965093e-12 </wgt>
<wgt id='1609'> +1.2969871e-12 </wgt>
<wgt id='1610'> +1.2809313e-12 </wgt>
<wgt id='1611'> +1.3106076e-12 </wgt>
<wgt id='1612'> +1.4959220e-12 </wgt>
<wgt id='1613'> +1.4795047e-12 </wgt>
<wgt id='1614'> +1.5040728e-12 </wgt>
<wgt id='1615'> +1.4663599e-12 </wgt>
<wgt id='1616'> +1.5652715e-12 </wgt>
<wgt id='1617'> +1.5322158e-12 </wgt>
<wgt id='1618'> +1.4485865e-12 </wgt>
<wgt id='1619'> +1.5213516e-12 </wgt>
<wgt id='1620'> +1.4673202e-12 </wgt>
<wgt id='1621'> +1.4860195e-12 </wgt>
<wgt id='1622'> +1.4934621e-12 </wgt>
<wgt id='1623'> +1.5251560e-12 </wgt>
<wgt id='1624'> +1.4631315e-12 </wgt>
<wgt id='1625'> +1.4724627e-12 </wgt>
<wgt id='1626'> +1.4834492e-12 </wgt>
<wgt id='1627'> +1.4671417e-12 </wgt>
<wgt id='1628'> +1.4796782e-12 </wgt>
<wgt id='1629'> +1.5413986e-12 </wgt>
<wgt id='1630'> +1.5140717e-12 </wgt>
<wgt id='1631'> +1.4623954e-12 </wgt>
<wgt id='1632'> +1.4470614e-12 </wgt>
<wgt id='1633'> +1.4478990e-12 </wgt>
<wgt id='1634'> +1.5488113e-12 </wgt>
<wgt id='1635'> +1.5044255e-12 </wgt>
<wgt id='1636'> +1.5046082e-12 </wgt>
<wgt id='1637'> +1.4587849e-12 </wgt>
<wgt id='1638'> +1.4878725e-12 </wgt>
<wgt id='1639'> +1.5228908e-12 </wgt>
<wgt id='1640'> +1.5101573e-12 </wgt>
<wgt id='1641'> +1.4792699e-12 </wgt>
<wgt id='1642'> +1.4791190e-12 </wgt>
<wgt id='1643'> +1.5367963e-12 </wgt>
<wgt id='1644'> +1.4164045e-12 </wgt>
<wgt id='1645'> +1.4891570e-12 </wgt>
<wgt id='1646'> +1.5135396e-12 </wgt>
<wgt id='1647'> +1.5064419e-12 </wgt>
<wgt id='1648'> +1.4837341e-12 </wgt>
<wgt id='1649'> +1.4859172e-12 </wgt>
<wgt id='1650'> +1.4819279e-12 </wgt>
<wgt id='1651'> +1.4554927e-12 </wgt>
<wgt id='1652'> +1.4923839e-12 </wgt>
<wgt id='1653'> +1.5419612e-12 </wgt>
<wgt id='1654'> +1.4861411e-12 </wgt>
<wgt id='1655'> +1.4604282e-12 </wgt>
<wgt id='1656'> +1.4392994e-12 </wgt>
<wgt id='1657'> +1.4753432e-12 </wgt>
<wgt id='1658'> +1.4351006e-12 </wgt>
<wgt id='1659'> +1.4631315e-12 </wgt>
<wgt id='1660'> +1.4984635e-12 </wgt>
<wgt id='1661'> +1.4900935e-12 </wgt>
<wgt id='1662'> +1.5002576e-12 </wgt>
<wgt id='1663'> +1.5306779e-12 </wgt>
<wgt id='1664'> +1.4778216e-12 </wgt>
<wgt id='1665'> +1.4173688e-12 </wgt>
<wgt id='1666'> +1.5259623e-12 </wgt>
<wgt id='1667'> +1.4984739e-12 </wgt>
<wgt id='1668'> +1.5490669e-12 </wgt>
<wgt id='1669'> +1.4279549e-12 </wgt>
<wgt id='1670'> +1.5165769e-12 </wgt>
<wgt id='1671'> +1.4819237e-12 </wgt>
<wgt id='1672'> +1.4878490e-12 </wgt>
<wgt id='1673'> +1.5401670e-12 </wgt>
<wgt id='1674'> +1.4738279e-12 </wgt>
<wgt id='1675'> +1.5265842e-12 </wgt>
<wgt id='1676'> +1.5288186e-12 </wgt>
<wgt id='1677'> +1.5773454e-12 </wgt>
<wgt id='1678'> +1.4984564e-12 </wgt>
<wgt id='1679'> +1.5475482e-12 </wgt>
<wgt id='1680'> +1.5210093e-12 </wgt>
<wgt id='1681'> +1.5235635e-12 </wgt>
<wgt id='1682'> +1.5145856e-12 </wgt>
<wgt id='1683'> +1.4842252e-12 </wgt>
<wgt id='1684'> +1.4874356e-12 </wgt>
<wgt id='1685'> +1.4708134e-12 </wgt>
<wgt id='1686'> +1.5009315e-12 </wgt>
<wgt id='1687'> +1.5528157e-12 </wgt>
<wgt id='1688'> +1.4998252e-12 </wgt>
<wgt id='1689'> +1.4782689e-12 </wgt>
<wgt id='1690'> +1.4991719e-12 </wgt>
<wgt id='1691'> +1.5132328e-12 </wgt>
<wgt id='1692'> +1.5525748e-12 </wgt>
<wgt id='1693'> +1.5485834e-12 </wgt>
<wgt id='1694'> +1.4271801e-12 </wgt>
<wgt id='1695'> +1.4915658e-12 </wgt>
<wgt id='1696'> +1.5516405e-12 </wgt>
<wgt id='1697'> +1.5191015e-12 </wgt>
<wgt id='1698'> +1.4780090e-12 </wgt>
<wgt id='1699'> +1.5115505e-12 </wgt>
<wgt id='1700'> +1.4681438e-12 </wgt>
<wgt id='1701'> +1.5288372e-12 </wgt>
<wgt id='1702'> +1.5064052e-12 </wgt>
<wgt id='1703'> +1.5081049e-12 </wgt>
<wgt id='1704'> +1.4609239e-12 </wgt>
<wgt id='1705'> +1.4799173e-12 </wgt>
<wgt id='1706'> +1.4839275e-12 </wgt>
<wgt id='1707'> +1.5087525e-12 </wgt>
<wgt id='1708'> +1.4734346e-12 </wgt>
<wgt id='1709'> +1.4877169e-12 </wgt>
<wgt id='1710'> +1.4884516e-12 </wgt>
<wgt id='1711'> +1.5681187e-12 </wgt>
<wgt id='1712'> +1.4870082e-12 </wgt>
<wgt id='1713'> +1.1964052e-12 </wgt>
<wgt id='1714'> +1.1684907e-12 </wgt>
<wgt id='1715'> +1.2112856e-12 </wgt>
<wgt id='1716'> +1.2340080e-12 </wgt>
<wgt id='1717'> +1.2117067e-12 </wgt>
<wgt id='1718'> +1.1952056e-12 </wgt>
<wgt id='1719'> +1.2078534e-12 </wgt>
<wgt id='1720'> +1.2084314e-12 </wgt>
<wgt id='1721'> +1.1719383e-12 </wgt>
<wgt id='1722'> +1.1849244e-12 </wgt>
<wgt id='1723'> +1.1318422e-12 </wgt>
<wgt id='1724'> +1.1179833e-12 </wgt>
<wgt id='1725'> +1.2244431e-12 </wgt>
<wgt id='1726'> +1.2411793e-12 </wgt>
<wgt id='1727'> +1.1599183e-12 </wgt>
<wgt id='1728'> +1.1918440e-12 </wgt>
<wgt id='1729'> +1.1979376e-12 </wgt>
<wgt id='1730'> +1.1676702e-12 </wgt>
<wgt id='1731'> +1.1607102e-12 </wgt>
<wgt id='1732'> +1.2037323e-12 </wgt>
<wgt id='1733'> +1.2052898e-12 </wgt>
<wgt id='1734'> +1.2261952e-12 </wgt>
<wgt id='1735'> +1.1512485e-12 </wgt>
<wgt id='1736'> +1.2806522e-12 </wgt>
<wgt id='1737'> +1.2282142e-12 </wgt>
<wgt id='1738'> +1.2105578e-12 </wgt>
<wgt id='1739'> +1.2029122e-12 </wgt>
<wgt id='1740'> +1.1803677e-12 </wgt>
<wgt id='1741'> +1.1941513e-12 </wgt>
<wgt id='1742'> +1.1908074e-12 </wgt>
<wgt id='1743'> +1.2264171e-12 </wgt>
<wgt id='1744'> +1.2302747e-12 </wgt>
<wgt id='1745'> +1.1151320e-12 </wgt>
<wgt id='1746'> +1.2276001e-12 </wgt>
<wgt id='1747'> +1.2192503e-12 </wgt>
<wgt id='1748'> +1.2095235e-12 </wgt>
<wgt id='1749'> +1.2313476e-12 </wgt>
<wgt id='1750'> +1.1997399e-12 </wgt>
<wgt id='1751'> +1.1053564e-12 </wgt>
<wgt id='1752'> +1.1812078e-12 </wgt>
<wgt id='1753'> +1.2171486e-12 </wgt>
<wgt id='1754'> +1.2020992e-12 </wgt>
<wgt id='1755'> +1.2194747e-12 </wgt>
<wgt id='1756'> +1.2085138e-12 </wgt>
<wgt id='1757'> +1.1788779e-12 </wgt>
<wgt id='1758'> +1.2220179e-12 </wgt>
<wgt id='1759'> +1.2081689e-12 </wgt>
<wgt id='1760'> +1.1648807e-12 </wgt>
<wgt id='1761'> +1.1765679e-12 </wgt>
<wgt id='1762'> +1.2169743e-12 </wgt>
<wgt id='1763'> +1.2256239e-12 </wgt>
<wgt id='1764'> +1.2004576e-12 </wgt>
<wgt id='1765'> +1.1999277e-12 </wgt>
<wgt id='1766'> +1.2229251e-12 </wgt>
<wgt id='1767'> +1.2048712e-12 </wgt>
<wgt id='1768'> +1.2023739e-12 </wgt>
<wgt id='1769'> +1.1594346e-12 </wgt>
<wgt id='1770'> +1.2725706e-12 </wgt>
<wgt id='1771'> +1.2081059e-12 </wgt>
<wgt id='1772'> +1.2305125e-12 </wgt>
<wgt id='1773'> +1.1929690e-12 </wgt>
<wgt id='1774'> +1.2185069e-12 </wgt>
<wgt id='1775'> +1.1995173e-12 </wgt>
<wgt id='1776'> +1.2420132e-12 </wgt>
<wgt id='1777'> +1.1238236e-12 </wgt>
<wgt id='1778'> +1.1926267e-12 </wgt>
<wgt id='1779'> +1.2118078e-12 </wgt>
<wgt id='1780'> +1.1841535e-12 </wgt>
<wgt id='1781'> +1.1925199e-12 </wgt>
<wgt id='1782'> +1.1520681e-12 </wgt>
<wgt id='1783'> +1.1939118e-12 </wgt>
<wgt id='1784'> +1.2142058e-12 </wgt>
<wgt id='1785'> +1.1524275e-12 </wgt>
<wgt id='1786'> +1.0831809e-12 </wgt>
<wgt id='1787'> +1.2393353e-12 </wgt>
<wgt id='1788'> +1.1848219e-12 </wgt>
<wgt id='1789'> +1.1391917e-12 </wgt>
<wgt id='1790'> +1.1823438e-12 </wgt>
<wgt id='1791'> +1.2158965e-12 </wgt>
<wgt id='1792'> +1.1609888e-12 </wgt>
<wgt id='1793'> +1.2157497e-12 </wgt>
<wgt id='1794'> +1.2033065e-12 </wgt>
<wgt id='1795'> +1.2188131e-12 </wgt>
<wgt id='1796'> +1.1784772e-12 </wgt>
<wgt id='1797'> +1.2061144e-12 </wgt>
<wgt id='1798'> +1.1763261e-12 </wgt>
<wgt id='1799'> +1.1788202e-12 </wgt>
<wgt id='1800'> +1.1960042e-12 </wgt>
<wgt id='1801'> +1.2028095e-12 </wgt>
<wgt id='1802'> +1.1800689e-12 </wgt>
<wgt id='1803'> +1.2087292e-12 </wgt>
<wgt id='1804'> +1.1737020e-12 </wgt>
<wgt id='1805'> +1.2010779e-12 </wgt>
<wgt id='1806'> +1.1864929e-12 </wgt>
<wgt id='1807'> +1.2115133e-12 </wgt>
<wgt id='1808'> +1.1944762e-12 </wgt>
<wgt id='1809'> +1.1828684e-12 </wgt>
<wgt id='1810'> +1.2058505e-12 </wgt>
<wgt id='1811'> +1.2615634e-12 </wgt>
<wgt id='1812'> +1.2397490e-12 </wgt>
<wgt id='1813'> +1.2038309e-12 </wgt>
<wgt id='1814'> +1.2657610e-12 </wgt>
<wgt id='1815'> +1.4175944e-12 </wgt>
<wgt id='1816'> +1.1964052e-12 </wgt>
<wgt id='1817'> +1.1684907e-12 </wgt>
<wgt id='1818'> +1.2112856e-12 </wgt>
<wgt id='1819'> +1.2340080e-12 </wgt>
<wgt id='1820'> +1.2117067e-12 </wgt>
<wgt id='1821'> +1.1952056e-12 </wgt>
<wgt id='1822'> +1.2078534e-12 </wgt>
<wgt id='1823'> +1.2084314e-12 </wgt>
<wgt id='1824'> +1.1719383e-12 </wgt>
<wgt id='1825'> +1.1849244e-12 </wgt>
<wgt id='1826'> +1.1318422e-12 </wgt>
<wgt id='1827'> +1.1179833e-12 </wgt>
<wgt id='1828'> +1.2244431e-12 </wgt>
<wgt id='1829'> +1.2411793e-12 </wgt>
<wgt id='1830'> +1.1599183e-12 </wgt>
<wgt id='1831'> +1.1918440e-12 </wgt>
<wgt id='1832'> +1.1979376e-12 </wgt>
<wgt id='1833'> +1.1676702e-12 </wgt>
<wgt id='1834'> +1.1607102e-12 </wgt>
<wgt id='1835'> +1.2037323e-12 </wgt>
<wgt id='1836'> +1.2052898e-12 </wgt>
<wgt id='1837'> +1.2261952e-12 </wgt>
<wgt id='1838'> +1.1512485e-12 </wgt>
<wgt id='1839'> +1.2806522e-12 </wgt>
<wgt id='1840'> +1.2282142e-12 </wgt>
<wgt id='1841'> +1.2105578e-12 </wgt>
<wgt id='1842'> +1.2029122e-12 </wgt>
<wgt id='1843'> +1.1803677e-12 </wgt>
<wgt id='1844'> +1.1941513e-12 </wgt>
<wgt id='1845'> +1.1908074e-12 </wgt>
<wgt id='1846'> +1.2264171e-12 </wgt>
<wgt id='1847'> +1.2302747e-12 </wgt>
<wgt id='1848'> +1.1151320e-12 </wgt>
<wgt id='1849'> +1.2276001e-12 </wgt>
<wgt id='1850'> +1.2192503e-12 </wgt>
<wgt id='1851'> +1.2095235e-12 </wgt>
<wgt id='1852'> +1.2313476e-12 </wgt>
<wgt id='1853'> +1.1997399e-12 </wgt>
<wgt id='1854'> +1.1053564e-12 </wgt>
<wgt id='1855'> +1.1812078e-12 </wgt>
<wgt id='1856'> +1.2171486e-12 </wgt>
<wgt id='1857'> +1.2020992e-12 </wgt>
<wgt id='1858'> +1.2194747e-12 </wgt>
<wgt id='1859'> +1.2085138e-12 </wgt>
<wgt id='1860'> +1.1788779e-12 </wgt>
<wgt id='1861'> +1.2220179e-12 </wgt>
<wgt id='1862'> +1.2081689e-12 </wgt>
<wgt id='1863'> +1.1648807e-12 </wgt>
<wgt id='1864'> +1.1765679e-12 </wgt>
<wgt id='1865'> +1.2169743e-12 </wgt>
<wgt id='1866'> +1.2256239e-12 </wgt>
<wgt id='1867'> +1.2004576e-12 </wgt>
<wgt id='1868'> +1.1999277e-12 </wgt>
<wgt id='1869'> +1.2229251e-12 </wgt>
<wgt id='1870'> +1.2048712e-12 </wgt>
<wgt id='1871'> +1.2023739e-12 </wgt>
<wgt id='1872'> +1.1594346e-12 </wgt>
<wgt id='1873'> +1.2725706e-12 </wgt>
<wgt id='1874'> +1.2081059e-12 </wgt>
<wgt id='1875'> +1.2305125e-12 </wgt>
<wgt id='1876'> +1.1929690e-12 </wgt>
<wgt id='1877'> +1.2185069e-12 </wgt>
<wgt id='1878'> +1.1995173e-12 </wgt>
<wgt id='1879'> +1.2420132e-12 </wgt>
<wgt id='1880'> +1.1238236e-12 </wgt>
<wgt id='1881'> +1.1926267e-12 </wgt>
<wgt id='1882'> +1.2118078e-12 </wgt>
<wgt id='1883'> +1.1841535e-12 </wgt>
<wgt id='1884'> +1.1925199e-12 </wgt>
<wgt id='1885'> +1.1520681e-12 </wgt>
<wgt id='1886'> +1.1939118e-12 </wgt>
<wgt id='1887'> +1.2142058e-12 </wgt>
<wgt id='1888'> +1.1524275e-12 </wgt>
<wgt id='1889'> +1.0831809e-12 </wgt>
<wgt id='1890'> +1.2393353e-12 </wgt>
<wgt id='1891'> +1.1848219e-12 </wgt>
<wgt id='1892'> +1.1391917e-12 </wgt>
<wgt id='1893'> +1.1823438e-12 </wgt>
<wgt id='1894'> +1.2158965e-12 </wgt>
<wgt id='1895'> +1.1609888e-12 </wgt>
<wgt id='1896'> +1.2157497e-12 </wgt>
<wgt id='1897'> +1.2033065e-12 </wgt>
<wgt id='1898'> +1.2188131e-12 </wgt>
<wgt id='1899'> +1.1784772e-12 </wgt>
<wgt id='1900'> +1.2061144e-12 </wgt>
<wgt id='1901'> +1.1763261e-12 </wgt>
<wgt id='1902'> +1.1788202e-12 </wgt>
<wgt id='1903'> +1.1960042e-12 </wgt>
<wgt id='1904'> +1.2028095e-12 </wgt>
<wgt id='1905'> +1.1800689e-12 </wgt>
<wgt id='1906'> +1.2087292e-12 </wgt>
<wgt id='1907'> +1.1737020e-12 </wgt>
<wgt id='1908'> +1.2010779e-12 </wgt>
<wgt id='1909'> +1.1864929e-12 </wgt>
<wgt id='1910'> +1.2115133e-12 </wgt>
<wgt id='1911'> +1.1944762e-12 </wgt>
<wgt id='1912'> +1.1828684e-12 </wgt>
<wgt id='1913'> +1.2058505e-12 </wgt>
<wgt id='1914'> +1.2615634e-12 </wgt>
<wgt id='1915'> +1.2397490e-12 </wgt>
<wgt id='1916'> +1.2038309e-12 </wgt>
<wgt id='1917'> +1.1884658e-12 </wgt>
<wgt id='1918'> +1.2012311e-12 </wgt>
<wgt id='1919'> +1.2516987e-12 </wgt>
</rwgt>
</event>
<event>
 9      1 +1.5607000e-12 2.81353500e+01 7.81860800e-03 1.46919000e-01
       -2 -1    0    0    0  501 -0.0000000000e+00 +0.0000000000e+00 +8.1344810374e+01 8.1344810374e+01 0.0000000000e+00 0.0000e+00 1.0000e+00
        2 -1    0    0  502    0 +0.0000000000e+00 -0.0000000000e+00 -4.3962510310e+01 4.3962510310e+01 0.0000000000e+00 0.0000e+00 -1.0000e+00
     1023  2    1    2    0    0 -6.7870015725e+00 -2.2815374050e+01 -3.7415286325e+01 4.6813476257e+01 1.4999774167e+01 0.0000e+00 0.0000e+00
  1000023  2    3    3    0    0 -5.0550575039e+00 -2.1134695148e+01 -3.1894540234e+01 3.8983856264e+01 5.5000370089e+00 0.0000e+00 0.0000e+00
       21  1    1    2  502  501 +6.7870015725e+00 +2.2815374050e+01 +7.4797586389e+01 7.8493844428e+01 0.0000000000e+00 0.0000e+00 1.0000e+00
  1000022  1    4    4    0    0 -4.7965657356e+00 -1.8498890635e+01 -2.7950534639e+01 3.4226428154e+01 5.0000000000e+00 0.0000e+00 -1.0000e+00
      -11  1    4    4    0    0 -2.4456890220e-01 -1.9794694468e+00 -2.7872700052e+00 3.4273878656e+00 5.1100000000e-04 0.0000e+00 -1.0000e+00
       11  1    4    4    0    0 -1.3922866152e-02 -6.5633506683e-01 -1.1567355895e+00 1.3300402442e+00 5.1100000000e-04 0.0000e+00 1.0000e+00
  1000022  1    3    3    0    0 -1.7319440686e+00 -1.6806789019e+00 -5.5207460915e+00 7.8296199930e+00 5.0000000000e+00 0.0000e+00 -1.0000e+00
<mgrwt>
<rscale>  1 0.28135350E+02</rscale>
<asrwt>0</asrwt>
<pdfrwt beam="1">  1        2 0.67634631E-02 0.28135350E+02</pdfrwt>
<pdfrwt beam="2">  1       -2 0.12514586E-01 0.28135350E+02</pdfrwt>
<totfact> 0.46297648E+04</totfact>
</mgrwt>
<rwgt>
<wgt id='1001'> +1.5607000e-12 </wgt>
<wgt id='1002'> +1.5443943e-12 </wgt>
<wgt id='1003'> +1.5421290e-12 </wgt>
<wgt id='1004'> +1.5619860e-12 </wgt>
<wgt id='1005'> +1.4996851e-12 </wgt>
<wgt id='1006'> +1.3632074e-12 </wgt>
<wgt id='1007'> +1.3679646e-12 </wgt>
<wgt id='1008'> +1.3676929e-12 </wgt>
<wgt id='1009'> +1.3610387e-12 </wgt>
<wgt id='1010'> +1.3515154e-12 </wgt>
<wgt id='1011'> +1.8284930e-12 </wgt>
<wgt id='1012'> +1.7754041e-12 </wgt>
<wgt id='1013'> +1.7698129e-12 </wgt>
<wgt id='1014'> +1.8361222e-12 </wgt>
<wgt id='1015'> +1.6857057e-12 </wgt>
<wgt id='1016'> +1.7615292e-12 </wgt>
<wgt id='1017'> +1.7059600e-12 </wgt>
<wgt id='1018'> +1.7002349e-12 </wgt>
<wgt id='1019'> +1.7698129e-12 </wgt>
<wgt id='1020'> +1.6165558e-12 </wgt>
<wgt id='1021'> +1.5386234e-12 </wgt>
<wgt id='1022'> +1.5110732e-12 </wgt>
<wgt id='1023'> +1.5079148e-12 </wgt>
<wgt id='1024'> +1.5421290e-12 </wgt>
<wgt id='1025'> +1.4568392e-12 </wgt>
<wgt id='1026'> +2.0637815e-12 </wgt>
<wgt id='1027'> +1.9611368e-12 </wgt>
<wgt id='1028'> +1.9512619e-12 </wgt>
<wgt id='1029'> +2.0804238e-12 </wgt>
<wgt id='1030'> +1.8170730e-12 </wgt>
<wgt id='1031'> +1.3312955e-12 </wgt>
<wgt id='1032'> +1.3594318e-12 </wgt>
<wgt id='1033'> +1.3610387e-12 </wgt>
<wgt id='1034'> +1.3247230e-12 </wgt>
<wgt id='1035'> +1.3664362e-12 </wgt>
<wgt id='1036'> +1.1628320e-12 </wgt>
<wgt id='1037'> +1.2041320e-12 </wgt>
<wgt id='1038'> +1.2070864e-12 </wgt>
<wgt id='1039'> +1.1542993e-12 </wgt>
<wgt id='1040'> +1.2314315e-12 </wgt>
<wgt id='1041'> +1.5597261e-12 </wgt>
<wgt id='1042'> +1.5627751e-12 </wgt>
<wgt id='1043'> +1.5619860e-12 </wgt>
<wgt id='1044'> +1.5572184e-12 </wgt>
<wgt id='1045'> +1.5359286e-12 </wgt>
<wgt id='1046'> +1.5607000e-12 </wgt>
<wgt id='1047'> +1.7484501e-12 </wgt>
<wgt id='1048'> +1.5538533e-12 </wgt>
<wgt id='1049'> +1.5316275e-12 </wgt>
<wgt id='1050'> +1.5367469e-12 </wgt>
<wgt id='1051'> +1.5126450e-12 </wgt>
<wgt id='1052'> +1.6534524e-12 </wgt>
<wgt id='1053'> +1.5615505e-12 </wgt>
<wgt id='1054'> +1.4822246e-12 </wgt>
<wgt id='1055'> +1.4737634e-12 </wgt>
<wgt id='1056'> +1.5206543e-12 </wgt>
<wgt id='1057'> +1.5815271e-12 </wgt>
<wgt id='1058'> +1.4845590e-12 </wgt>
<wgt id='1059'> +1.5353393e-12 </wgt>
<wgt id='1060'> +1.5935168e-12 </wgt>
<wgt id='1061'> +1.5538991e-12 </wgt>
<wgt id='1062'> +1.5614026e-12 </wgt>
<wgt id='1063'> +1.5932661e-12 </wgt>
<wgt id='1064'> +1.5030520e-12 </wgt>
<wgt id='1065'> +1.5637618e-12 </wgt>
<wgt id='1066'> +1.4598564e-12 </wgt>
<wgt id='1067'> +1.5274788e-12 </wgt>
<wgt id='1068'> +1.6034461e-12 </wgt>
<wgt id='1069'> +1.5893469e-12 </wgt>
<wgt id='1070'> +1.4761120e-12 </wgt>
<wgt id='1071'> +1.4965055e-12 </wgt>
<wgt id='1072'> +1.6251584e-12 </wgt>
<wgt id='1073'> +1.6035984e-12 </wgt>
<wgt id='1074'> +1.5450461e-12 </wgt>
<wgt id='1075'> +1.5761242e-12 </wgt>
<wgt id='1076'> +1.5976816e-12 </wgt>
<wgt id='1077'> +1.6525747e-12 </wgt>
<wgt id='1078'> +1.5321726e-12 </wgt>
<wgt id='1079'> +1.5986625e-12 </wgt>
<wgt id='1080'> +1.4745848e-12 </wgt>
<wgt id='1081'> +1.6011829e-12 </wgt>
<wgt id='1082'> +1.5563094e-12 </wgt>
<wgt id='1083'> +1.5423944e-12 </wgt>
<wgt id='1084'> +1.5330854e-12 </wgt>
<wgt id='1085'> +1.5746379e-12 </wgt>
<wgt id='1086'> +1.6166911e-12 </wgt>
<wgt id='1087'> +1.5804227e-12 </wgt>
<wgt id='1088'> +1.5913461e-12 </wgt>
<wgt id='1089'> +1.6093118e-12 </wgt>
<wgt id='1090'> +1.6293156e-12 </wgt>
<wgt id='1091'> +1.6056350e-12 </wgt>
<wgt id='1092'> +1.6182609e-12 </wgt>
<wgt id='1093'> +1.5875786e-12 </wgt>
<wgt id='1094'> +1.5481433e-12 </wgt>
<wgt id='1095'> +1.6063396e-12 </wgt>
<wgt id='1096'> +1.5537095e-12 </wgt>
<wgt id='1097'> +1.5436495e-12 </wgt>
<wgt id='1098'> +1.5153801e-12 </wgt>
<wgt id='1099'> +1.5588576e-12 </wgt>
<wgt id='1100'> +1.5804592e-12 </wgt>
<wgt id='1101'> +1.5997969e-12 </wgt>
<wgt id='1102'> +1.5569335e-12 </wgt>
<wgt id='1103'> +1.5881196e-12 </wgt>
<wgt id='1104'> +1.5219118e-12 </wgt>
<wgt id='1105'> +1.5752767e-12 </wgt>
<wgt id='1106'> +1.6157044e-12 </wgt>
<wgt id='1107'> +1.5806335e-12 </wgt>
<wgt id='1108'> +1.5257131e-12 </wgt>
<wgt id='1109'> +1.5806076e-12 </wgt>
<wgt id='1110'> +1.5059874e-12 </wgt>
<wgt id='1111'> +1.5885092e-12 </wgt>
<wgt id='1112'> +1.6625677e-12 </wgt>
<wgt id='1113'> +1.6200175e-12 </wgt>
<wgt id='1114'> +1.6046453e-12 </wgt>
<wgt id='1115'> +1.5638478e-12 </wgt>
<wgt id='1116'> +1.5365209e-12 </wgt>
<wgt id='1117'> +1.5172096e-12 </wgt>
<wgt id='1118'> +1.6308144e-12 </wgt>
<wgt id='1119'> +1.4454987e-12 </wgt>
<wgt id='1120'> +1.4854227e-12 </wgt>
<wgt id='1121'> +1.5287176e-12 </wgt>
<wgt id='1122'> +1.6856093e-12 </wgt>
<wgt id='1123'> +1.4733440e-12 </wgt>
<wgt id='1124'> +1.5464650e-12 </wgt>
<wgt id='1125'> +1.5430747e-12 </wgt>
<wgt id='1126'> +1.6283296e-12 </wgt>
<wgt id='1127'> +1.5521324e-12 </wgt>
<wgt id='1128'> +1.5614026e-12 </wgt>
<wgt id='1129'> +1.6084057e-12 </wgt>
<wgt id='1130'> +1.5186048e-12 </wgt>
<wgt id='1131'> +1.5400841e-12 </wgt>
<wgt id='1132'> +1.6222854e-12 </wgt>
<wgt id='1133'> +1.4499317e-12 </wgt>
<wgt id='1134'> +1.6250154e-12 </wgt>
<wgt id='1135'> +1.4427824e-12 </wgt>
<wgt id='1136'> +1.5482799e-12 </wgt>
<wgt id='1137'> +1.5228864e-12 </wgt>
<wgt id='1138'> +1.4947367e-12 </wgt>
<wgt id='1139'> +1.5208471e-12 </wgt>
<wgt id='1140'> +1.5630839e-12 </wgt>
<wgt id='1141'> +1.5251033e-12 </wgt>
<wgt id='1142'> +1.5818155e-12 </wgt>
<wgt id='1143'> +1.6375083e-12 </wgt>
<wgt id='1144'> +1.5716400e-12 </wgt>
<wgt id='1145'> +1.5209028e-12 </wgt>
<wgt id='1146'> +1.5255525e-12 </wgt>
<wgt id='1147'> +1.1777389e-12 </wgt>
<wgt id='1148'> +1.2013085e-12 </wgt>
<wgt id='1149'> +1.3102675e-12 </wgt>
<wgt id='1150'> +1.2308842e-12 </wgt>
<wgt id='1151'> +1.1040680e-12 </wgt>
<wgt id='1152'> +1.3445372e-12 </wgt>
<wgt id='1153'> +1.3356184e-12 </wgt>
<wgt id='1154'> +1.3497229e-12 </wgt>
<wgt id='1155'> +1.3417915e-12 </wgt>
<wgt id='1156'> +1.3459529e-12 </wgt>
<wgt id='1157'> +1.3538465e-12 </wgt>
<wgt id='1158'> +1.3320545e-12 </wgt>
<wgt id='1159'> +1.3524569e-12 </wgt>
<wgt id='1160'> +1.3395116e-12 </wgt>
<wgt id='1161'> +1.3468346e-12 </wgt>
<wgt id='1162'> +1.3429901e-12 </wgt>
<wgt id='1163'> +1.3483977e-12 </wgt>
<wgt id='1164'> +1.3406946e-12 </wgt>
<wgt id='1165'> +1.3419687e-12 </wgt>
<wgt id='1166'> +1.3469912e-12 </wgt>
<wgt id='1167'> +1.3419695e-12 </wgt>
<wgt id='1168'> +1.3464719e-12 </wgt>
<wgt id='1169'> +1.3427841e-12 </wgt>
<wgt id='1170'> +1.3458963e-12 </wgt>
<wgt id='1171'> +1.3379329e-12 </wgt>
<wgt id='1172'> +1.3521833e-12 </wgt>
<wgt id='1173'> +1.3352255e-12 </wgt>
<wgt id='1174'> +1.3524915e-12 </wgt>
<wgt id='1175'> +1.3437122e-12 </wgt>
<wgt id='1176'> +1.3445028e-12 </wgt>
<wgt id='1177'> +1.3470024e-12 </wgt>
<wgt id='1178'> +1.3375464e-12 </wgt>
<wgt id='1179'> +1.3461525e-12 </wgt>
<wgt id='1180'> +1.3368656e-12 </wgt>
<wgt id='1181'> +1.3379249e-12 </wgt>
<wgt id='1182'> +1.3511331e-12 </wgt>
<wgt id='1183'> +1.3446663e-12 </wgt>
<wgt id='1184'> +1.3444875e-12 </wgt>
<wgt id='1185'> +1.3314138e-12 </wgt>
<wgt id='1186'> +1.3522549e-12 </wgt>
<wgt id='1187'> +1.3439316e-12 </wgt>
<wgt id='1188'> +1.3447803e-12 </wgt>
<wgt id='1189'> +1.3419424e-12 </wgt>
<wgt id='1190'> +1.3384593e-12 </wgt>
<wgt id='1191'> +1.3410368e-12 </wgt>
<wgt id='1192'> +1.3442837e-12 </wgt>
<wgt id='1193'> +1.2413763e-12 </wgt>
<wgt id='1194'> +1.2426748e-12 </wgt>
<wgt id='1195'> +1.2402873e-12 </wgt>
<wgt id='1196'> +1.2530058e-12 </wgt>
<wgt id='1197'> +1.2284638e-12 </wgt>
<wgt id='1198'> +1.2381161e-12 </wgt>
<wgt id='1199'> +1.2462489e-12 </wgt>
<wgt id='1200'> +1.2427661e-12 </wgt>
<wgt id='1201'> +1.2404493e-12 </wgt>
<wgt id='1202'> +1.2420602e-12 </wgt>
<wgt id='1203'> +1.2404243e-12 </wgt>
<wgt id='1204'> +1.2448216e-12 </wgt>
<wgt id='1205'> +1.2392732e-12 </wgt>
<wgt id='1206'> +1.2431378e-12 </wgt>
<wgt id='1207'> +1.2390268e-12 </wgt>
<wgt id='1208'> +1.2338633e-12 </wgt>
<wgt id='1209'> +1.2440746e-12 </wgt>
<wgt id='1210'> +1.2506757e-12 </wgt>
<wgt id='1211'> +1.2259929e-12 </wgt>
<wgt id='1212'> +1.2435874e-12 </wgt>
<wgt id='1213'> +1.2392146e-12 </wgt>
<wgt id='1214'> +1.2244678e-12 </wgt>
<wgt id='1215'> +1.2706834e-12 </wgt>
<wgt id='1216'> +1.2435385e-12 </wgt>
<wgt id='1217'> +1.2390779e-12 </wgt>
<wgt id='1218'> +1.2423711e-12 </wgt>
<wgt id='1219'> +1.2407143e-12 </wgt>
<wgt id='1220'> +1.2447620e-12 </wgt>
<wgt id='1221'> +1.2399707e-12 </wgt>
<wgt id='1222'> +1.2418489e-12 </wgt>
<wgt id='1223'> +1.2346085e-12 </wgt>
<wgt id='1224'> +1.2429352e-12 </wgt>
<wgt id='1225'> +1.2407830e-12 </wgt>
<wgt id='1226'> +1.2341693e-12 </wgt>
<wgt id='1227'> +1.2461783e-12 </wgt>
<wgt id='1228'> +1.2419158e-12 </wgt>
<wgt id='1229'> +1.2399153e-12 </wgt>
<wgt id='1230'> +1.2315820e-12 </wgt>
<wgt id='1231'> +1.2383094e-12 </wgt>
<wgt id='1232'> +1.2447582e-12 </wgt>
<wgt id='1233'> +1.2403710e-12 </wgt>
<wgt id='1234'> +1.2413763e-12 </wgt>
<wgt id='1235'> +1.2325684e-12 </wgt>
<wgt id='1236'> +1.2358749e-12 </wgt>
<wgt id='1237'> +1.2387804e-12 </wgt>
<wgt id='1238'> +1.2437254e-12 </wgt>
<wgt id='1239'> +1.2458222e-12 </wgt>
<wgt id='1240'> +1.2476924e-12 </wgt>
<wgt id='1241'> +1.2565565e-12 </wgt>
<wgt id='1242'> +1.2552751e-12 </wgt>
<wgt id='1243'> +1.2578253e-12 </wgt>
<wgt id='1244'> +1.2470379e-12 </wgt>
<wgt id='1245'> +1.2635566e-12 </wgt>
<wgt id='1246'> +1.2550939e-12 </wgt>
<wgt id='1247'> +1.2577727e-12 </wgt>
<wgt id='1248'> +1.2564923e-12 </wgt>
<wgt id='1249'> +1.2565909e-12 </wgt>
<wgt id='1250'> +1.2657301e-12 </wgt>
<wgt id='1251'> +1.2500861e-12 </wgt>
<wgt id='1252'> +1.2545708e-12 </wgt>
<wgt id='1253'> +1.2581187e-12 </wgt>
<wgt id='1254'> +1.2592662e-12 </wgt>
<wgt id='1255'> +1.2549074e-12 </wgt>
<wgt id='1256'> +1.2591518e-12 </wgt>
<wgt id='1257'> +1.2499884e-12 </wgt>
<wgt id='1258'> +1.2804639e-12 </wgt>
<wgt id='1259'> +1.2363030e-12 </wgt>
<wgt id='1260'> +1.2582776e-12 </wgt>
<wgt id='1261'> +1.2546358e-12 </wgt>
<wgt id='1262'> +1.2513342e-12 </wgt>
<wgt id='1263'> +1.2581857e-12 </wgt>
<wgt id='1264'> +1.2530525e-12 </wgt>
<wgt id='1265'> +1.2579438e-12 </wgt>
<wgt id='1266'> +1.2504995e-12 </wgt>
<wgt id='1267'> +1.2600104e-12 </wgt>
<wgt id='1268'> +1.2578448e-12 </wgt>
<wgt id='1269'> +1.2566838e-12 </wgt>
<wgt id='1270'> +1.2527354e-12 </wgt>
<wgt id='1271'> +1.2511518e-12 </wgt>
<wgt id='1272'> +1.2538508e-12 </wgt>
<wgt id='1273'> +1.2568069e-12 </wgt>
<wgt id='1274'> +1.2609108e-12 </wgt>
<wgt id='1275'> +1.2491476e-12 </wgt>
<wgt id='1276'> +1.2543331e-12 </wgt>
<wgt id='1277'> +1.2564108e-12 </wgt>
<wgt id='1278'> +1.2556756e-12 </wgt>
<wgt id='1279'> +1.2490688e-12 </wgt>
<wgt id='1280'> +1.2555111e-12 </wgt>
<wgt id='1281'> +1.2597218e-12 </wgt>
<wgt id='1282'> +1.2565565e-12 </wgt>
<wgt id='1283'> +1.2468868e-12 </wgt>
<wgt id='1284'> +1.2505146e-12 </wgt>
<wgt id='1285'> +1.2536941e-12 </wgt>
<wgt id='1286'> +1.2588818e-12 </wgt>
<wgt id='1287'> +1.2609909e-12 </wgt>
<wgt id='1288'> +1.2626032e-12 </wgt>
<wgt id='1289'> +1.2587229e-12 </wgt>
<wgt id='1290'> +1.2548318e-12 </wgt>
<wgt id='1291'> +1.2629204e-12 </wgt>
<wgt id='1292'> +1.2470346e-12 </wgt>
<wgt id='1293'> +1.2671745e-12 </wgt>
<wgt id='1294'> +1.2525966e-12 </wgt>
<wgt id='1295'> +1.2647385e-12 </wgt>
<wgt id='1296'> +1.2564160e-12 </wgt>
<wgt id='1297'> +1.2614531e-12 </wgt>
<wgt id='1298'> +1.2571550e-12 </wgt>
<wgt id='1299'> +1.2605890e-12 </wgt>
<wgt id='1300'> +1.2587591e-12 </wgt>
<wgt id='1301'> +1.2586642e-12 </wgt>
<wgt id='1302'> +1.2569764e-12 </wgt>
<wgt id='1303'> +1.2611528e-12 </wgt>
<wgt id='1304'> +1.2595674e-12 </wgt>
<wgt id='1305'> +1.2581145e-12 </wgt>
<wgt id='1306'> +1.2604611e-12 </wgt>
<wgt id='1307'> +1.2569715e-12 </wgt>
<wgt id='1308'> +1.2624632e-12 </wgt>
<wgt id='1309'> +1.2558662e-12 </wgt>
<wgt id='1310'> +1.2648334e-12 </wgt>
<wgt id='1311'> +1.2524274e-12 </wgt>
<wgt id='1312'> +1.2633593e-12 </wgt>
<wgt id='1313'> +1.2542480e-12 </wgt>
<wgt id='1314'> +1.2564797e-12 </wgt>
<wgt id='1315'> +1.2594002e-12 </wgt>
<wgt id='1316'> +1.2634711e-12 </wgt>
<wgt id='1317'> +1.2578495e-12 </wgt>
<wgt id='1318'> +1.2635753e-12 </wgt>
<wgt id='1319'> +1.2526443e-12 </wgt>
<wgt id='1320'> +1.2749626e-12 </wgt>
<wgt id='1321'> +1.2464417e-12 </wgt>
<wgt id='1322'> +1.2547142e-12 </wgt>
<wgt id='1323'> +1.2633510e-12 </wgt>
<wgt id='1324'> +1.2573953e-12 </wgt>
<wgt id='1325'> +1.2648785e-12 </wgt>
<wgt id='1326'> +1.2536043e-12 </wgt>
<wgt id='1327'> +1.2639955e-12 </wgt>
<wgt id='1328'> +1.2598237e-12 </wgt>
<wgt id='1329'> +1.2575017e-12 </wgt>
<wgt id='1330'> +1.2261641e-12 </wgt>
<wgt id='1331'> +1.2869690e-12 </wgt>
<wgt id='1332'> +1.2769582e-12 </wgt>
<wgt id='1333'> +1.2383438e-12 </wgt>
<wgt id='1334'> +1.2498117e-12 </wgt>
<wgt id='1335'> +1.2819561e-12 </wgt>
<wgt id='1336'> +1.2574341e-12 </wgt>
<wgt id='1337'> +1.2485491e-12 </wgt>
<wgt id='1338'> +1.2551352e-12 </wgt>
<wgt id='1339'> +1.2586195e-12 </wgt>
<wgt id='1340'> +1.2251527e-12 </wgt>
<wgt id='1341'> +1.2215560e-12 </wgt>
<wgt id='1342'> +1.2290387e-12 </wgt>
<wgt id='1343'> +1.2132776e-12 </wgt>
<wgt id='1344'> +1.2332189e-12 </wgt>
<wgt id='1345'> +1.2194950e-12 </wgt>
<wgt id='1346'> +1.2305143e-12 </wgt>
<wgt id='1347'> +1.2231148e-12 </wgt>
<wgt id='1348'> +1.2273731e-12 </wgt>
<wgt id='1349'> +1.2233940e-12 </wgt>
<wgt id='1350'> +1.2268500e-12 </wgt>
<wgt id='1351'> +1.2249982e-12 </wgt>
<wgt id='1352'> +1.2255089e-12 </wgt>
<wgt id='1353'> +1.2233382e-12 </wgt>
<wgt id='1354'> +1.2284377e-12 </wgt>
<wgt id='1355'> +1.2265793e-12 </wgt>
<wgt id='1356'> +1.2243385e-12 </wgt>
<wgt id='1357'> +1.2282773e-12 </wgt>
<wgt id='1358'> +1.2217474e-12 </wgt>
<wgt id='1359'> +1.2291308e-12 </wgt>
<wgt id='1360'> +1.2217406e-12 </wgt>
<wgt id='1361'> +1.2303448e-12 </wgt>
<wgt id='1362'> +1.2185246e-12 </wgt>
<wgt id='1363'> +1.2312799e-12 </wgt>
<wgt id='1364'> +1.2212495e-12 </wgt>
<wgt id='1365'> +1.2213798e-12 </wgt>
<wgt id='1366'> +1.2267035e-12 </wgt>
<wgt id='1367'> +1.2298653e-12 </wgt>
<wgt id='1368'> +1.2240060e-12 </wgt>
<wgt id='1369'> +1.2288290e-12 </wgt>
<wgt id='1370'> +1.2205243e-12 </wgt>
<wgt id='1371'> +1.2354596e-12 </wgt>
<wgt id='1372'> +1.2134526e-12 </wgt>
<wgt id='1373'> +1.2172975e-12 </wgt>
<wgt id='1374'> +1.2319792e-12 </wgt>
<wgt id='1375'> +1.2238536e-12 </wgt>
<wgt id='1376'> +1.2313854e-12 </wgt>
<wgt id='1377'> +1.2210025e-12 </wgt>
<wgt id='1378'> +1.2296853e-12 </wgt>
<wgt id='1379'> +1.2257170e-12 </wgt>
<wgt id='1380'> +1.2243606e-12 </wgt>
<wgt id='1381'> +1.1921122e-12 </wgt>
<wgt id='1382'> +1.2507828e-12 </wgt>
<wgt id='1383'> +1.2456927e-12 </wgt>
<wgt id='1384'> +1.2028983e-12 </wgt>
<wgt id='1385'> +1.2164247e-12 </wgt>
<wgt id='1386'> +1.2466610e-12 </wgt>
<wgt id='1387'> +1.2234915e-12 </wgt>
<wgt id='1388'> +1.2131777e-12 </wgt>
<wgt id='1389'> +1.2195704e-12 </wgt>
<wgt id='1390'> +1.2252127e-12 </wgt>
<wgt id='1391'> +1.2166248e-12 </wgt>
<wgt id='1392'> +1.1691433e-12 </wgt>
<wgt id='1393'> +1.1851713e-12 </wgt>
<wgt id='1394'> +1.2018087e-12 </wgt>
<wgt id='1395'> +1.2342576e-12 </wgt>
<wgt id='1396'> +1.2187661e-12 </wgt>
<wgt id='1397'> +1.1709999e-12 </wgt>
<wgt id='1398'> +1.1823499e-12 </wgt>
<wgt id='1399'> +1.1911818e-12 </wgt>
<wgt id='1400'> +1.1997769e-12 </wgt>
<wgt id='1401'> +1.2095245e-12 </wgt>
<wgt id='1402'> +1.2268798e-12 </wgt>
<wgt id='1403'> +1.2341347e-12 </wgt>
<wgt id='1404'> +1.2403430e-12 </wgt>
<wgt id='1405'> +1.2187661e-12 </wgt>
<wgt id='1406'> +1.2162844e-12 </wgt>
<wgt id='1407'> +1.2179408e-12 </wgt>
<wgt id='1408'> +1.2197214e-12 </wgt>
<wgt id='1409'> +1.2218618e-12 </wgt>
<wgt id='1410'> +1.2694630e-12 </wgt>
<wgt id='1411'> +1.2653066e-12 </wgt>
<wgt id='1412'> +1.2748151e-12 </wgt>
<wgt id='1413'> +1.2719044e-12 </wgt>
<wgt id='1414'> +1.2670466e-12 </wgt>
<wgt id='1415'> +1.2522427e-12 </wgt>
<wgt id='1416'> +1.2764472e-12 </wgt>
<wgt id='1417'> +1.2629428e-12 </wgt>
<wgt id='1418'> +1.2759354e-12 </wgt>
<wgt id='1419'> +1.2679956e-12 </wgt>
<wgt id='1420'> +1.2708773e-12 </wgt>
<wgt id='1421'> +1.2709717e-12 </wgt>
<wgt id='1422'> +1.2688208e-12 </wgt>
<wgt id='1423'> +1.2688586e-12 </wgt>
<wgt id='1424'> +1.2701967e-12 </wgt>
<wgt id='1425'> +1.2672633e-12 </wgt>
<wgt id='1426'> +1.2718474e-12 </wgt>
<wgt id='1427'> +1.2751229e-12 </wgt>
<wgt id='1428'> +1.2662689e-12 </wgt>
<wgt id='1429'> +1.2660808e-12 </wgt>
<wgt id='1430'> +1.2740636e-12 </wgt>
<wgt id='1431'> +1.2684209e-12 </wgt>
<wgt id='1432'> +1.2701818e-12 </wgt>
<wgt id='1433'> +1.2622600e-12 </wgt>
<wgt id='1434'> +1.2762782e-12 </wgt>
<wgt id='1435'> +1.2677050e-12 </wgt>
<wgt id='1436'> +1.2737532e-12 </wgt>
<wgt id='1437'> +1.2722117e-12 </wgt>
<wgt id='1438'> +1.2692871e-12 </wgt>
<wgt id='1439'> +1.2649414e-12 </wgt>
<wgt id='1440'> +1.2808091e-12 </wgt>
<wgt id='1441'> +1.2755581e-12 </wgt>
<wgt id='1442'> +1.2577490e-12 </wgt>
<wgt id='1443'> +1.2684496e-12 </wgt>
<wgt id='1444'> +1.2713277e-12 </wgt>
<wgt id='1445'> +1.2798276e-12 </wgt>
<wgt id='1446'> +1.2654996e-12 </wgt>
<wgt id='1447'> +1.2691856e-12 </wgt>
<wgt id='1448'> +1.2708750e-12 </wgt>
<wgt id='1449'> +1.2709912e-12 </wgt>
<wgt id='1450'> +1.2681792e-12 </wgt>
<wgt id='1451'> +1.2898083e-12 </wgt>
<wgt id='1452'> +1.2239148e-12 </wgt>
<wgt id='1453'> +1.2725452e-12 </wgt>
<wgt id='1454'> +1.2465035e-12 </wgt>
<wgt id='1455'> +1.2496062e-12 </wgt>
<wgt id='1456'> +1.2796276e-12 </wgt>
<wgt id='1457'> +1.2856879e-12 </wgt>
<wgt id='1458'> +1.2618380e-12 </wgt>
<wgt id='1459'> +1.2717812e-12 </wgt>
<wgt id='1460'> +1.2614635e-12 </wgt>
<wgt id='1461'> +1.2694630e-12 </wgt>
<wgt id='1462'> +1.2508464e-12 </wgt>
<wgt id='1463'> +1.2933850e-12 </wgt>
<wgt id='1464'> +1.2714715e-12 </wgt>
<wgt id='1465'> +1.2308544e-12 </wgt>
<wgt id='1466'> +1.2413851e-12 </wgt>
<wgt id='1467'> +1.2514351e-12 </wgt>
<wgt id='1468'> +1.2557930e-12 </wgt>
<wgt id='1469'> +1.2650151e-12 </wgt>
<wgt id='1470'> +1.2775517e-12 </wgt>
<wgt id='1471'> +1.2810657e-12 </wgt>
<wgt id='1472'> +1.2870240e-12 </wgt>
<wgt id='1473'> +1.2714715e-12 </wgt>
<wgt id='1474'> +1.2680577e-12 </wgt>
<wgt id='1475'> +1.2677010e-12 </wgt>
<wgt id='1476'> +1.2732234e-12 </wgt>
<wgt id='1477'> +1.2753169e-12 </wgt>
<wgt id='1478'> +1.1972204e-12 </wgt>
<wgt id='1479'> +1.1951157e-12 </wgt>
<wgt id='1480'> +1.2058518e-12 </wgt>
<wgt id='1481'> +1.2023354e-12 </wgt>
<wgt id='1482'> +1.1922619e-12 </wgt>
<wgt id='1483'> +1.1656658e-12 </wgt>
<wgt id='1484'> +1.1954356e-12 </wgt>
<wgt id='1485'> +1.1911033e-12 </wgt>
<wgt id='1486'> +1.1984913e-12 </wgt>
<wgt id='1487'> +1.2006719e-12 </wgt>
<wgt id='1488'> +1.1966251e-12 </wgt>
<wgt id='1489'> +1.2031176e-12 </wgt>
<wgt id='1490'> +1.1902287e-12 </wgt>
<wgt id='1491'> +1.1963938e-12 </wgt>
<wgt id='1492'> +1.2010758e-12 </wgt>
<wgt id='1493'> +1.1857980e-12 </wgt>
<wgt id='1494'> +1.2163895e-12 </wgt>
<wgt id='1495'> +1.1789712e-12 </wgt>
<wgt id='1496'> +1.1951730e-12 </wgt>
<wgt id='1497'> +1.1881273e-12 </wgt>
<wgt id='1498'> +1.1970378e-12 </wgt>
<wgt id='1499'> +1.1960023e-12 </wgt>
<wgt id='1500'> +1.1994213e-12 </wgt>
<wgt id='1501'> +1.1964907e-12 </wgt>
<wgt id='1502'> +1.1991116e-12 </wgt>
<wgt id='1503'> +1.1940991e-12 </wgt>
<wgt id='1504'> +1.1863324e-12 </wgt>
<wgt id='1505'> +1.1966149e-12 </wgt>
<wgt id='1506'> +1.1948466e-12 </wgt>
<wgt id='1507'> +1.1960573e-12 </wgt>
<wgt id='1508'> +1.2010478e-12 </wgt>
<wgt id='1509'> +1.3670532e-12 </wgt>
<wgt id='1510'> +1.3672117e-12 </wgt>
<wgt id='1511'> +1.3675869e-12 </wgt>
<wgt id='1512'> +1.3655793e-12 </wgt>
<wgt id='1513'> +1.3768481e-12 </wgt>
<wgt id='1514'> +1.3681401e-12 </wgt>
<wgt id='1515'> +1.3617680e-12 </wgt>
<wgt id='1516'> +1.3660049e-12 </wgt>
<wgt id='1517'> +1.3633216e-12 </wgt>
<wgt id='1518'> +1.3795603e-12 </wgt>
<wgt id='1519'> +1.3560408e-12 </wgt>
<wgt id='1520'> +1.3592015e-12 </wgt>
<wgt id='1521'> +1.3759155e-12 </wgt>
<wgt id='1522'> +1.3623232e-12 </wgt>
<wgt id='1523'> +1.3869512e-12 </wgt>
<wgt id='1524'> +1.3737603e-12 </wgt>
<wgt id='1525'> +1.3828006e-12 </wgt>
<wgt id='1526'> +1.3580686e-12 </wgt>
<wgt id='1527'> +1.3594562e-12 </wgt>
<wgt id='1528'> +1.3701107e-12 </wgt>
<wgt id='1529'> +1.3682501e-12 </wgt>
<wgt id='1530'> +1.3811522e-12 </wgt>
<wgt id='1531'> +1.3712679e-12 </wgt>
<wgt id='1532'> +1.3539463e-12 </wgt>
<wgt id='1533'> +1.3641725e-12 </wgt>
<wgt id='1534'> +1.3738990e-12 </wgt>
<wgt id='1535'> +1.3500569e-12 </wgt>
<wgt id='1536'> +1.3652808e-12 </wgt>
<wgt id='1537'> +1.3674744e-12 </wgt>
<wgt id='1538'> +1.3640817e-12 </wgt>
<wgt id='1539'> +1.3605073e-12 </wgt>
<wgt id='1540'> +1.3724619e-12 </wgt>
<wgt id='1541'> +1.3716099e-12 </wgt>
<wgt id='1542'> +1.3706857e-12 </wgt>
<wgt id='1543'> +1.3664163e-12 </wgt>
<wgt id='1544'> +1.3628564e-12 </wgt>
<wgt id='1545'> +1.3683642e-12 </wgt>
<wgt id='1546'> +1.3670169e-12 </wgt>
<wgt id='1547'> +1.3678411e-12 </wgt>
<wgt id='1548'> +1.3653057e-12 </wgt>
<wgt id='1549'> +1.3648449e-12 </wgt>
<wgt id='1550'> +1.3712870e-12 </wgt>
<wgt id='1551'> +1.3662627e-12 </wgt>
<wgt id='1552'> +1.3660979e-12 </wgt>
<wgt id='1553'> +1.3671452e-12 </wgt>
<wgt id='1554'> +1.3765914e-12 </wgt>
<wgt id='1555'> +1.3731310e-12 </wgt>
<wgt id='1556'> +1.3658845e-12 </wgt>
<wgt id='1557'> +1.3706949e-12 </wgt>
<wgt id='1558'> +1.3645004e-12 </wgt>
<wgt id='1559'> +1.3663726e-12 </wgt>
<wgt id='1560'> +1.3710551e-12 </wgt>
<wgt id='1561'> +1.3647583e-12 </wgt>
<wgt id='1562'> +1.3660003e-12 </wgt>
<wgt id='1563'> +1.3668073e-12 </wgt>
<wgt id='1564'> +1.3620322e-12 </wgt>
<wgt id='1565'> +1.3677200e-12 </wgt>
<wgt id='1566'> +1.3683923e-12 </wgt>
<wgt id='1567'> +1.3685323e-12 </wgt>
<wgt id='1568'> +1.3658584e-12 </wgt>
<wgt id='1569'> +1.3691533e-12 </wgt>
<wgt id='1570'> +1.3636844e-12 </wgt>
<wgt id='1571'> +1.3678574e-12 </wgt>
<wgt id='1572'> +1.3641708e-12 </wgt>
<wgt id='1573'> +1.3648216e-12 </wgt>
<wgt id='1574'> +1.3669359e-12 </wgt>
<wgt id='1575'> +1.3679755e-12 </wgt>
<wgt id='1576'> +1.3661352e-12 </wgt>
<wgt id='1577'> +1.3661621e-12 </wgt>
<wgt id='1578'> +1.3679596e-12 </wgt>
<wgt id='1579'> +1.3659216e-12 </wgt>
<wgt id='1580'> +1.3679025e-12 </wgt>
<wgt id='1581'> +1.3684145e-12 </wgt>
<wgt id='1582'> +1.3680861e-12 </wgt>
<wgt id='1583'> +1.3666518e-12 </wgt>
<wgt id='1584'> +1.3666516e-12 </wgt>
<wgt id='1585'> +1.3676009e-12 </wgt>
<wgt id='1586'> +1.3657173e-12 </wgt>
<wgt id='1587'> +1.3687506e-12 </wgt>
<wgt id='1588'> +1.3667708e-12 </wgt>
<wgt id='1589'> +1.3665356e-12 </wgt>
<wgt id='1590'> +1.3665543e-12 </wgt>
<wgt id='1591'> +1.3671363e-12 </wgt>
<wgt id='1592'> +1.3660239e-12 </wgt>
<wgt id='1593'> +1.3668217e-12 </wgt>
<wgt id='1594'> +1.3678872e-12 </wgt>
<wgt id='1595'> +1.3687400e-12 </wgt>
<wgt id='1596'> +1.3690666e-12 </wgt>
<wgt id='1597'> +1.3668925e-12 </wgt>
<wgt id='1598'> +1.3670451e-12 </wgt>
<wgt id='1599'> +1.3677195e-12 </wgt>
<wgt id='1600'> +1.3687752e-12 </wgt>
<wgt id='1601'> +1.3677929e-12 </wgt>
<wgt id='1602'> +1.3680358e-12 </wgt>
<wgt id='1603'> +1.3667149e-12 </wgt>
<wgt id='1604'> +1.3671802e-12 </wgt>
<wgt id='1605'> +1.3663364e-12 </wgt>
<wgt id='1606'> +1.3657370e-12 </wgt>
<wgt id='1607'> +1.3675335e-12 </wgt>
<wgt id='1608'> +1.3661304e-12 </wgt>
<wgt id='1609'> +1.3660061e-12 </wgt>
<wgt id='1610'> +1.3389077e-12 </wgt>
<wgt id='1611'> +1.3999272e-12 </wgt>
<wgt id='1612'> +1.5075284e-12 </wgt>
<wgt id='1613'> +1.4690377e-12 </wgt>
<wgt id='1614'> +1.5143449e-12 </wgt>
<wgt id='1615'> +1.4828394e-12 </wgt>
<wgt id='1616'> +1.5313864e-12 </wgt>
<wgt id='1617'> +1.5951291e-12 </wgt>
<wgt id='1618'> +1.6312874e-12 </wgt>
<wgt id='1619'> +1.5408324e-12 </wgt>
<wgt id='1620'> +1.4378627e-12 </wgt>
<wgt id='1621'> +1.5242487e-12 </wgt>
<wgt id='1622'> +1.5451183e-12 </wgt>
<wgt id='1623'> +1.4922222e-12 </wgt>
<wgt id='1624'> +1.5002752e-12 </wgt>
<wgt id='1625'> +1.4773931e-12 </wgt>
<wgt id='1626'> +1.4609476e-12 </wgt>
<wgt id='1627'> +1.4650659e-12 </wgt>
<wgt id='1628'> +1.5123727e-12 </wgt>
<wgt id='1629'> +1.6391326e-12 </wgt>
<wgt id='1630'> +1.5059777e-12 </wgt>
<wgt id='1631'> +1.4888600e-12 </wgt>
<wgt id='1632'> +1.3489368e-12 </wgt>
<wgt id='1633'> +1.4372621e-12 </wgt>
<wgt id='1634'> +1.5341292e-12 </wgt>
<wgt id='1635'> +1.5338322e-12 </wgt>
<wgt id='1636'> +1.5935858e-12 </wgt>
<wgt id='1637'> +1.4753706e-12 </wgt>
<wgt id='1638'> +1.5077062e-12 </wgt>
<wgt id='1639'> +1.4884017e-12 </wgt>
<wgt id='1640'> +1.4376124e-12 </wgt>
<wgt id='1641'> +1.4974070e-12 </wgt>
<wgt id='1642'> +1.4626208e-12 </wgt>
<wgt id='1643'> +1.5550571e-12 </wgt>
<wgt id='1644'> +1.4306351e-12 </wgt>
<wgt id='1645'> +1.4885430e-12 </wgt>
<wgt id='1646'> +1.4427909e-12 </wgt>
<wgt id='1647'> +1.4363849e-12 </wgt>
<wgt id='1648'> +1.5231701e-12 </wgt>
<wgt id='1649'> +1.6575495e-12 </wgt>
<wgt id='1650'> +1.4888019e-12 </wgt>
<wgt id='1651'> +1.4910633e-12 </wgt>
<wgt id='1652'> +1.4440446e-12 </wgt>
<wgt id='1653'> +1.5995479e-12 </wgt>
<wgt id='1654'> +1.5493523e-12 </wgt>
<wgt id='1655'> +1.4970508e-12 </wgt>
<wgt id='1656'> +1.4055617e-12 </wgt>
<wgt id='1657'> +1.4700411e-12 </wgt>
<wgt id='1658'> +1.4468432e-12 </wgt>
<wgt id='1659'> +1.5002752e-12 </wgt>
<wgt id='1660'> +1.5637487e-12 </wgt>
<wgt id='1661'> +1.5103635e-12 </wgt>
<wgt id='1662'> +1.5057439e-12 </wgt>
<wgt id='1663'> +1.5334150e-12 </wgt>
<wgt id='1664'> +1.4488917e-12 </wgt>
<wgt id='1665'> +1.3932521e-12 </wgt>
<wgt id='1666'> +1.5280851e-12 </wgt>
<wgt id='1667'> +1.5130180e-12 </wgt>
<wgt id='1668'> +1.5625165e-12 </wgt>
<wgt id='1669'> +1.4475273e-12 </wgt>
<wgt id='1670'> +1.5028425e-12 </wgt>
<wgt id='1671'> +1.4218939e-12 </wgt>
<wgt id='1672'> +1.5096562e-12 </wgt>
<wgt id='1673'> +1.5627323e-12 </wgt>
<wgt id='1674'> +1.4800885e-12 </wgt>
<wgt id='1675'> +1.4994068e-12 </wgt>
<wgt id='1676'> +1.5883964e-12 </wgt>
<wgt id='1677'> +1.5982237e-12 </wgt>
<wgt id='1678'> +1.4607155e-12 </wgt>
<wgt id='1679'> +1.5684829e-12 </wgt>
<wgt id='1680'> +1.5141998e-12 </wgt>
<wgt id='1681'> +1.5389589e-12 </wgt>
<wgt id='1682'> +1.5224505e-12 </wgt>
<wgt id='1683'> +1.4872872e-12 </wgt>
<wgt id='1684'> +1.4660591e-12 </wgt>
<wgt id='1685'> +1.4767361e-12 </wgt>
<wgt id='1686'> +1.4834101e-12 </wgt>
<wgt id='1687'> +1.5753344e-12 </wgt>
<wgt id='1688'> +1.4746533e-12 </wgt>
<wgt id='1689'> +1.4902118e-12 </wgt>
<wgt id='1690'> +1.5311167e-12 </wgt>
<wgt id='1691'> +1.5361818e-12 </wgt>
<wgt id='1692'> +1.5475222e-12 </wgt>
<wgt id='1693'> +1.5545922e-12 </wgt>
<wgt id='1694'> +1.5030080e-12 </wgt>
<wgt id='1695'> +1.5063266e-12 </wgt>
<wgt id='1696'> +1.5291695e-12 </wgt>
<wgt id='1697'> +1.5933915e-12 </wgt>
<wgt id='1698'> +1.4943369e-12 </wgt>
<wgt id='1699'> +1.5680605e-12 </wgt>
<wgt id='1700'> +1.4814974e-12 </wgt>
<wgt id='1701'> +1.5106344e-12 </wgt>
<wgt id='1702'> +1.5636503e-12 </wgt>
<wgt id='1703'> +1.5706077e-12 </wgt>
<wgt id='1704'> +1.4497771e-12 </wgt>
<wgt id='1705'> +1.4009160e-12 </wgt>
<wgt id='1706'> +1.5552917e-12 </wgt>
<wgt id='1707'> +1.5320332e-12 </wgt>
<wgt id='1708'> +1.5188086e-12 </wgt>
<wgt id='1709'> +1.4811643e-12 </wgt>
<wgt id='1710'> +1.4954897e-12 </wgt>
<wgt id='1711'> +1.5472220e-12 </wgt>
<wgt id='1712'> +1.5293461e-12 </wgt>
<wgt id='1713'> +1.1757758e-12 </wgt>
<wgt id='1714'> +1.1465852e-12 </wgt>
<wgt id='1715'> +1.1855174e-12 </wgt>
<wgt id='1716'> +1.2527851e-12 </wgt>
<wgt id='1717'> +1.2167301e-12 </wgt>
<wgt id='1718'> +1.2035845e-12 </wgt>
<wgt id='1719'> +1.1720570e-12 </wgt>
<wgt id='1720'> +1.1966769e-12 </wgt>
<wgt id='1721'> +1.1361685e-12 </wgt>
<wgt id='1722'> +1.1708400e-12 </wgt>
<wgt id='1723'> +1.1173688e-12 </wgt>
<wgt id='1724'> +1.1216800e-12 </wgt>
<wgt id='1725'> +1.1798446e-12 </wgt>
<wgt id='1726'> +1.2402169e-12 </wgt>
<wgt id='1727'> +1.1746832e-12 </wgt>
<wgt id='1728'> +1.1579829e-12 </wgt>
<wgt id='1729'> +1.1522785e-12 </wgt>
<wgt id='1730'> +1.1575434e-12 </wgt>
<wgt id='1731'> +1.1225104e-12 </wgt>
<wgt id='1732'> +1.1676498e-12 </wgt>
<wgt id='1733'> +1.2032271e-12 </wgt>
<wgt id='1734'> +1.2170003e-12 </wgt>
<wgt id='1735'> +1.1541449e-12 </wgt>
<wgt id='1736'> +1.2013742e-12 </wgt>
<wgt id='1737'> +1.2573148e-12 </wgt>
<wgt id='1738'> +1.2020959e-12 </wgt>
<wgt id='1739'> +1.1588016e-12 </wgt>
<wgt id='1740'> +1.1802624e-12 </wgt>
<wgt id='1741'> +1.1856105e-12 </wgt>
<wgt id='1742'> +1.1965029e-12 </wgt>
<wgt id='1743'> +1.1904059e-12 </wgt>
<wgt id='1744'> +1.2371587e-12 </wgt>
<wgt id='1745'> +1.1161316e-12 </wgt>
<wgt id='1746'> +1.1731796e-12 </wgt>
<wgt id='1747'> +1.1789516e-12 </wgt>
<wgt id='1748'> +1.1988860e-12 </wgt>
<wgt id='1749'> +1.1845772e-12 </wgt>
<wgt id='1750'> +1.1741818e-12 </wgt>
<wgt id='1751'> +1.0818656e-12 </wgt>
<wgt id='1752'> +1.1882087e-12 </wgt>
<wgt id='1753'> +1.1955714e-12 </wgt>
<wgt id='1754'> +1.1780513e-12 </wgt>
<wgt id='1755'> +1.1826260e-12 </wgt>
<wgt id='1756'> +1.1938792e-12 </wgt>
<wgt id='1757'> +1.1462506e-12 </wgt>
<wgt id='1758'> +1.1877886e-12 </wgt>
<wgt id='1759'> +1.1706882e-12 </wgt>
<wgt id='1760'> +1.1095263e-12 </wgt>
<wgt id='1761'> +1.1698727e-12 </wgt>
<wgt id='1762'> +1.1954763e-12 </wgt>
<wgt id='1763'> +1.2270992e-12 </wgt>
<wgt id='1764'> +1.1652907e-12 </wgt>
<wgt id='1765'> +1.1853499e-12 </wgt>
<wgt id='1766'> +1.1390272e-12 </wgt>
<wgt id='1767'> +1.1904388e-12 </wgt>
<wgt id='1768'> +1.1943206e-12 </wgt>
<wgt id='1769'> +1.1571030e-12 </wgt>
<wgt id='1770'> +1.2076860e-12 </wgt>
<wgt id='1771'> +1.2034369e-12 </wgt>
<wgt id='1772'> +1.1980315e-12 </wgt>
<wgt id='1773'> +1.1751626e-12 </wgt>
<wgt id='1774'> +1.1740648e-12 </wgt>
<wgt id='1775'> +1.1863908e-12 </wgt>
<wgt id='1776'> +1.1590654e-12 </wgt>
<wgt id='1777'> +1.0700639e-12 </wgt>
<wgt id='1778'> +1.1726470e-12 </wgt>
<wgt id='1779'> +1.2094526e-12 </wgt>
<wgt id='1780'> +1.1506584e-12 </wgt>
<wgt id='1781'> +1.1837057e-12 </wgt>
<wgt id='1782'> +1.1445596e-12 </wgt>
<wgt id='1783'> +1.1718841e-12 </wgt>
<wgt id='1784'> +1.1707067e-12 </wgt>
<wgt id='1785'> +1.1340983e-12 </wgt>
<wgt id='1786'> +1.0949129e-12 </wgt>
<wgt id='1787'> +1.2462937e-12 </wgt>
<wgt id='1788'> +1.1830871e-12 </wgt>
<wgt id='1789'> +1.1439415e-12 </wgt>
<wgt id='1790'> +1.1880176e-12 </wgt>
<wgt id='1791'> +1.1482867e-12 </wgt>
<wgt id='1792'> +1.1389234e-12 </wgt>
<wgt id='1793'> +1.2032227e-12 </wgt>
<wgt id='1794'> +1.1859472e-12 </wgt>
<wgt id='1795'> +1.2113000e-12 </wgt>
<wgt id='1796'> +1.1650099e-12 </wgt>
<wgt id='1797'> +1.2049949e-12 </wgt>
<wgt id='1798'> +1.1946050e-12 </wgt>
<wgt id='1799'> +1.1705967e-12 </wgt>
<wgt id='1800'> +1.1697587e-12 </wgt>
<wgt id='1801'> +1.1909926e-12 </wgt>
<wgt id='1802'> +1.1584707e-12 </wgt>
<wgt id='1803'> +1.2099319e-12 </wgt>
<wgt id='1804'> +1.1800016e-12 </wgt>
<wgt id='1805'> +1.1787955e-12 </wgt>
<wgt id='1806'> +1.1779577e-12 </wgt>
<wgt id='1807'> +1.1411333e-12 </wgt>
<wgt id='1808'> +1.1656437e-12 </wgt>
<wgt id='1809'> +1.1438824e-12 </wgt>
<wgt id='1810'> +1.1733512e-12 </wgt>
<wgt id='1811'> +1.2045668e-12 </wgt>
<wgt id='1812'> +1.1963715e-12 </wgt>
<wgt id='1813'> +1.1706128e-12 </wgt>
<wgt id='1814'> +1.1572750e-12 </wgt>
<wgt id='1815'> +1.3619597e-12 </wgt>
<wgt id='1816'> +1.1757758e-12 </wgt>
<wgt id='1817'> +1.1465852e-12 </wgt>
<wgt id='1818'> +1.1855174e-12 </wgt>
<wgt id='1819'> +1.2527851e-12 </wgt>
<wgt id='1820'> +1.2167301e-12 </wgt>
<wgt id='1821'> +1.2035845e-12 </wgt>
<wgt id='1822'> +1.1720570e-12 </wgt>
<wgt id='1823'> +1.1966769e-12 </wgt>
<wgt id='1824'> +1.1361685e-12 </wgt>
<wgt id='1825'> +1.1708400e-12 </wgt>
<wgt id='1826'> +1.1173688e-12 </wgt>
<wgt id='1827'> +1.1216800e-12 </wgt>
<wgt id='1828'> +1.1798446e-12 </wgt>
<wgt id='1829'> +1.2402169e-12 </wgt>
<wgt id='1830'> +1.1746832e-12 </wgt>
<wgt id='1831'> +1.1579829e-12 </wgt>
<wgt id='1832'> +1.1522785e-12 </wgt>
<wgt id='1833'> +1.1575434e-12 </wgt>
<wgt id='1834'> +1.1225104e-12 </wgt>
<wgt id='1835'> +1.1676498e-12 </wgt>
<wgt id='1836'> +1.2032271e-12 </wgt>
<wgt id='1837'> +1.2170003e-12 </wgt>
<wgt id='1838'> +1.1541449e-12 </wgt>
<wgt id='1839'> +1.2013742e-12 </wgt>
<wgt id='1840'> +1.2573148e-12 </wgt>
<wgt id='1841'> +1.2020959e-12 </wgt>
<wgt id='1842'> +1.1588016e-12 </wgt>
<wgt id='1843'> +1.1802624e-12 </wgt>
<wgt id='1844'> +1.1856105e-12 </wgt>
<wgt id='1845'> +1.1965029e-12 </wgt>
<wgt id='1846'> +1.1904059e-12 </wgt>
<wgt id='1847'> +1.2371587e-12 </wgt>
<wgt id='1848'> +1.1161316e-12 </wgt>
<wgt id='1849'> +1.1731796e-12 </wgt>
<wgt id='1850'> +1.1789516e-12 </wgt>
<wgt id='1851'> +1.1988860e-12 </wgt>
<wgt id='1852'> +1.1845772e-12 </wgt>
<wgt id='1853'> +1.1741818e-12 </wgt>
<wgt id='1854'> +1.0818656e-12 </wgt>
<wgt id='1855'> +1.1882087e-12 </wgt>
<wgt id='1856'> +1.1955714e-12 </wgt>
<wgt id='1857'> +1.1780513e-12 </wgt>
<wgt id='1858'> +1.1826260e-12 </wgt>
<wgt id='1859'> +1.1938792e-12 </wgt>
<wgt id='1860'> +1.1462506e-12 </wgt>
<wgt id='1861'> +1.1877886e-12 </wgt>
<wgt id='1862'> +1.1706882e-12 </wgt>
<wgt id='1863'> +1.1095263e-12 </wgt>
<wgt id='1864'> +1.1698727e-12 </wgt>
<wgt id='1865'> +1.1954763e-12 </wgt>
<wgt id='1866'> +1.2270992e-12 </wgt>
<wgt id='1867'> +1.1652907e-12 </wgt>
<wgt id='1868'> +1.1853499e-12 </wgt>
<wgt id='1869'> +1.1390272e-12 </wgt>
<wgt id='1870'> +1.1904388e-12 </wgt>
<wgt id='1871'> +1.1943206e-12 </wgt>
<wgt id='1872'> +1.1571030e-12 </wgt>
<wgt id='1873'> +1.2076860e-12 </wgt>
<wgt id='1874'> +1.2034369e-12 </wgt>
<wgt id='1875'> +1.1980315e-12 </wgt>
<wgt id='1876'> +1.1751626e-12 </wgt>
<wgt id='1877'> +1.1740648e-12 </wgt>
<wgt id='1878'> +1.1863908e-12 </wgt>
<wgt id='1879'> +1.1590654e-12 </wgt>
<wgt id='1880'> +1.0700639e-12 </wgt>
<wgt id='1881'> +1.1726470e-12 </wgt>
<wgt id='1882'> +1.2094526e-12 </wgt>
<wgt id='1883'> +1.1506584e-12 </wgt>
<wgt id='1884'> +1.1837057e-12 </wgt>
<wgt id='1885'> +1.1445596e-12 </wgt>
<wgt id='1886'> +1.1718841e-12 </wgt>
<wgt id='1887'> +1.1707067e-12 </wgt>
<wgt id='1888'> +1.1340983e-12 </wgt>
<wgt id='1889'> +1.0949129e-12 </wgt>
<wgt id='1890'> +1.2462937e-12 </wgt>
<wgt id='1891'> +1.1830871e-12 </wgt>
<wgt id='1892'> +1.1439415e-12 </wgt>
<wgt id='1893'> +1.1880176e-12 </wgt>
<wgt id='1894'> +1.1482867e-12 </wgt>
<wgt id='1895'> +1.1389234e-12 </wgt>
<wgt id='1896'> +1.2032227e-12 </wgt>
<wgt id='1897'> +1.1859472e-12 </wgt>
<wgt id='1898'> +1.2113000e-12 </wgt>
<wgt id='1899'> +1.1650099e-12 </wgt>
<wgt id='1900'> +1.2049949e-12 </wgt>
<wgt id='1901'> +1.1946050e-12 </wgt>
<wgt id='1902'> +1.1705967e-12 </wgt>
<wgt id='1903'> +1.1697587e-12 </wgt>
<wgt id='1904'> +1.1909926e-12 </wgt>
<wgt id='1905'> +1.1584707e-12 </wgt>
<wgt id='1906'> +1.2099319e-12 </wgt>
<wgt id='1907'> +1.1800016e-12 </wgt>
<wgt id='1908'> +1.1787955e-12 </wgt>
<wgt id='1909'> +1.1779577e-12 </wgt>
<wgt id='1910'> +1.1411333e-12 </wgt>
<wgt id='1911'> +1.1656437e-12 </wgt>
<wgt id='1912'> +1.1438824e-12 </wgt>
<wgt id='1913'> +1.1733512e-12 </wgt>
<wgt id='1914'> +1.2045668e-12 </wgt>
<wgt id='1915'> +1.1963715e-12 </wgt>
<wgt id='1916'> +1.1706128e-12 </wgt>
<wgt id='1917'> +1.1644112e-12 </wgt>
<wgt id='1918'> +1.1894931e-12 </wgt>
<wgt id='1919'> +1.2360998e-12 </wgt>
</rwgt>
</event>
<event>
 9      1 +1.5607000e-12 1.18656800e+02 7.81860800e-03 1.13059900e-01
        2 -1    0    0  502    0 -0.0000000000e+00 +0.0000000000e+00 +8.3543481634e+02 8.3543481634e+02 0.0000000000e+00 0.0000e+00 1.0000e+00
       21 -1    0    0  501  502 +0.0000000000e+00 -0.0000000000e+00 -4.2132082897e+00 4.2132082897e+00 0.0000000000e+00 0.0000e+00 1.0000e+00
     1023  2    1    2    0    0 -3.5895536603e+01 -3.9007337844e+00 +7.4688054154e+02 7.4790315681e+02 1.4996111321e+01 0.0000e+00 0.0000e+00
  1000023  2    3    3    0    0 -3.0680421202e+01 -3.7185297398e+00 +6.4731280475e+02 6.4807347767e+02 5.4999595450e+00 0.0000e+00 0.0000e+00
        2  1    1    2  501    0 +3.5895536603e+01 +3.9007337844e+00 +8.4341066504e+01 9.1744867819e+01 0.0000000000e+00 0.0000e+00 1.0000e+00
  1000022  1    4    4    0    0 -2.8025779497e+01 -3.5867409220e+00 +5.8520295238e+02 5.8590596899e+02 5.0000000000e+00 0.0000e+00 1.0000e+00
      -13  1    4    4    0    0 -1.9107296114e+00 -1.2457213843e-01 +4.6667367129e+01 4.6706752543e+01 1.0570000000e-01 0.0000e+00 -1.0000e+00
       13  1    4    4    0    0 -7.4391209416e-01 -7.2166793381e-03 +1.5442485240e+01 1.5460756132e+01 1.0570000000e-01 0.0000e+00 -1.0000e+00
  1000022  1    3    3    0    0 -5.2151154007e+00 -1.8220404461e-01 +9.9567736798e+01 9.9829679144e+01 5.0000000000e+00 0.0000e+00 1.0000e+00
<mgrwt>
<rscale>  1 0.11865683E+03</rscale>
<asrwt>0</asrwt>
<pdfrwt beam="1">  1       21 0.64818656E-03 0.11865683E+03</pdfrwt>
<pdfrwt beam="2">  1        2 0.12852830E+00 0.11865683E+03</pdfrwt>
<totfact> 0.28677154E+06</totfact>
</mgrwt>
<rwgt>
<wgt id='1001'> +1.5607000e-12 </wgt>
<wgt id='1002'> +1.5797245e-12 </wgt>
<wgt id='1003'> +1.5788195e-12 </wgt>
<wgt id='1004'> +1.5820515e-12 </wgt>
<wgt id='1005'> +1.5607000e-12 </wgt>
<wgt id='1006'> +1.4063180e-12 </wgt>
<wgt id='1007'> +1.4107977e-12 </wgt>
<wgt id='1008'> +1.4109045e-12 </wgt>
<wgt id='1009'> +1.3923258e-12 </wgt>
<wgt id='1010'> +1.4063180e-12 </wgt>
<wgt id='1011'> +1.7545814e-12 </wgt>
<wgt id='1012'> +1.7964984e-12 </wgt>
<wgt id='1013'> +1.7939579e-12 </wgt>
<wgt id='1014'> +1.8344426e-12 </wgt>
<wgt id='1015'> +1.7545814e-12 </wgt>
<wgt id='1016'> +1.6863619e-12 </wgt>
<wgt id='1017'> +1.7362224e-12 </wgt>
<wgt id='1018'> +1.7329981e-12 </wgt>
<wgt id='1019'> +1.7939579e-12 </wgt>
<wgt id='1020'> +1.6863619e-12 </wgt>
<wgt id='1021'> +1.5195496e-12 </wgt>
<wgt id='1022'> +1.5505606e-12 </wgt>
<wgt id='1023'> +1.5486855e-12 </wgt>
<wgt id='1024'> +1.5788195e-12 </wgt>
<wgt id='1025'> +1.5195496e-12 </wgt>
<wgt id='1026'> +1.8958540e-12 </wgt>
<wgt id='1027'> +1.9744714e-12 </wgt>
<wgt id='1028'> +1.9691457e-12 </wgt>
<wgt id='1029'> +2.0801553e-12 </wgt>
<wgt id='1030'> +1.8958540e-12 </wgt>
<wgt id='1031'> +1.4087218e-12 </wgt>
<wgt id='1032'> +1.3904264e-12 </wgt>
<wgt id='1033'> +1.3923258e-12 </wgt>
<wgt id='1034'> +1.3256607e-12 </wgt>
<wgt id='1035'> +1.4087218e-12 </wgt>
<wgt id='1036'> +1.2693732e-12 </wgt>
<wgt id='1037'> +1.2417420e-12 </wgt>
<wgt id='1038'> +1.2442452e-12 </wgt>
<wgt id='1039'> +1.1666824e-12 </wgt>
<wgt id='1040'> +1.2693732e-12 </wgt>
<wgt id='1041'> +1.5837234e-12 </wgt>
<wgt id='1042'> +1.5812243e-12 </wgt>
<wgt id='1043'> +1.5820515e-12 </wgt>
<wgt id='1044'> +1.5371488e-12 </wgt>
<wgt id='1045'> +1.5837234e-12 </wgt>
<wgt id='1046'> +1.5607000e-12 </wgt>
<wgt id='1047'> +1.5581918e-12 </wgt>
<wgt id='1048'> +1.5984443e-12 </wgt>
<wgt id='1049'> +1.5426063e-12 </wgt>
<wgt id='1050'> +1.5233698e-12 </wgt>
<wgt id='1051'> +1.5362631e-12 </wgt>
<wgt id='1052'> +1.5236119e-12 </wgt>
<wgt id='1053'> +1.5994978e-12 </wgt>
<wgt id='1054'> +1.5896595e-12 </wgt>
<wgt id='1055'> +1.5566284e-12 </wgt>
<wgt id='1056'> +1.4839769e-12 </wgt>
<wgt id='1057'> +1.5535927e-12 </wgt>
<wgt id='1058'> +1.5389108e-12 </wgt>
<wgt id='1059'> +1.5641917e-12 </wgt>
<wgt id='1060'> +1.5889002e-12 </wgt>
<wgt id='1061'> +1.5772900e-12 </wgt>
<wgt id='1062'> +1.5554681e-12 </wgt>
<wgt id='1063'> +1.5390823e-12 </wgt>
<wgt id='1064'> +1.5670911e-12 </wgt>
<wgt id='1065'> +1.5859745e-12 </wgt>
<wgt id='1066'> +1.5581380e-12 </wgt>
<wgt id='1067'> +1.5627034e-12 </wgt>
<wgt id='1068'> +1.5951191e-12 </wgt>
<wgt id='1069'> +1.5981934e-12 </wgt>
<wgt id='1070'> +1.5533380e-12 </wgt>
<wgt id='1071'> +1.5910462e-12 </wgt>
<wgt id='1072'> +1.6027130e-12 </wgt>
<wgt id='1073'> +1.5142402e-12 </wgt>
<wgt id='1074'> +1.5684295e-12 </wgt>
<wgt id='1075'> +1.5417892e-12 </wgt>
<wgt id='1076'> +1.5581249e-12 </wgt>
<wgt id='1077'> +1.5597501e-12 </wgt>
<wgt id='1078'> +1.5525168e-12 </wgt>
<wgt id='1079'> +1.5631657e-12 </wgt>
<wgt id='1080'> +1.5362274e-12 </wgt>
<wgt id='1081'> +1.5291046e-12 </wgt>
<wgt id='1082'> +1.5755301e-12 </wgt>
<wgt id='1083'> +1.5722890e-12 </wgt>
<wgt id='1084'> +1.5413280e-12 </wgt>
<wgt id='1085'> +1.5634444e-12 </wgt>
<wgt id='1086'> +1.5814041e-12 </wgt>
<wgt id='1087'> +1.5583829e-12 </wgt>
<wgt id='1088'> +1.5661857e-12 </wgt>
<wgt id='1089'> +1.5335347e-12 </wgt>
<wgt id='1090'> +1.5346547e-12 </wgt>
<wgt id='1091'> +1.5804158e-12 </wgt>
<wgt id='1092'> +1.5595907e-12 </wgt>
<wgt id='1093'> +1.5667953e-12 </wgt>
<wgt id='1094'> +1.6019610e-12 </wgt>
<wgt id='1095'> +1.5808090e-12 </wgt>
<wgt id='1096'> +1.5349437e-12 </wgt>
<wgt id='1097'> +1.5503498e-12 </wgt>
<wgt id='1098'> +1.5840634e-12 </wgt>
<wgt id='1099'> +1.5576354e-12 </wgt>
<wgt id='1100'> +1.5671289e-12 </wgt>
<wgt id='1101'> +1.5929269e-12 </wgt>
<wgt id='1102'> +1.5548222e-12 </wgt>
<wgt id='1103'> +1.5863170e-12 </wgt>
<wgt id='1104'> +1.5911598e-12 </wgt>
<wgt id='1105'> +1.5551418e-12 </wgt>
<wgt id='1106'> +1.5882882e-12 </wgt>
<wgt id='1107'> +1.5535693e-12 </wgt>
<wgt id='1108'> +1.5602052e-12 </wgt>
<wgt id='1109'> +1.5403011e-12 </wgt>
<wgt id='1110'> +1.5848800e-12 </wgt>
<wgt id='1111'> +1.5694467e-12 </wgt>
<wgt id='1112'> +1.5884365e-12 </wgt>
<wgt id='1113'> +1.5756708e-12 </wgt>
<wgt id='1114'> +1.5690497e-12 </wgt>
<wgt id='1115'> +1.5738389e-12 </wgt>
<wgt id='1116'> +1.5625284e-12 </wgt>
<wgt id='1117'> +1.5540877e-12 </wgt>
<wgt id='1118'> +1.5615567e-12 </wgt>
<wgt id='1119'> +1.5488168e-12 </wgt>
<wgt id='1120'> +1.5501018e-12 </wgt>
<wgt id='1121'> +1.5451778e-12 </wgt>
<wgt id='1122'> +1.5540655e-12 </wgt>
<wgt id='1123'> +1.5495147e-12 </wgt>
<wgt id='1124'> +1.5824297e-12 </wgt>
<wgt id='1125'> +1.5500574e-12 </wgt>
<wgt id='1126'> +1.5248728e-12 </wgt>
<wgt id='1127'> +1.5599515e-12 </wgt>
<wgt id='1128'> +1.5554681e-12 </wgt>
<wgt id='1129'> +1.5117775e-12 </wgt>
<wgt id='1130'> +1.5615892e-12 </wgt>
<wgt id='1131'> +1.5757809e-12 </wgt>
<wgt id='1132'> +1.5592520e-12 </wgt>
<wgt id='1133'> +1.5636947e-12 </wgt>
<wgt id='1134'> +1.5121433e-12 </wgt>
<wgt id='1135'> +1.4966790e-12 </wgt>
<wgt id='1136'> +1.5512121e-12 </wgt>
<wgt id='1137'> +1.5675530e-12 </wgt>
<wgt id='1138'> +1.5537221e-12 </wgt>
<wgt id='1139'> +1.5574320e-12 </wgt>
<wgt id='1140'> +1.5564581e-12 </wgt>
<wgt id='1141'> +1.5593155e-12 </wgt>
<wgt id='1142'> +1.5792665e-12 </wgt>
<wgt id='1143'> +1.5443978e-12 </wgt>
<wgt id='1144'> +1.5646571e-12 </wgt>
<wgt id='1145'> +1.6086087e-12 </wgt>
<wgt id='1146'> +1.5858115e-12 </wgt>
<wgt id='1147'> +1.4212341e-12 </wgt>
<wgt id='1148'> +1.4379708e-12 </wgt>
<wgt id='1149'> +1.3961510e-12 </wgt>
<wgt id='1150'> +1.4287009e-12 </wgt>
<wgt id='1151'> +1.5184333e-12 </wgt>
<wgt id='1152'> +1.9336528e-12 </wgt>
<wgt id='1153'> +1.9385752e-12 </wgt>
<wgt id='1154'> +1.9307475e-12 </wgt>
<wgt id='1155'> +1.9291762e-12 </wgt>
<wgt id='1156'> +1.9359651e-12 </wgt>
<wgt id='1157'> +1.9369514e-12 </wgt>
<wgt id='1158'> +1.9292063e-12 </wgt>
<wgt id='1159'> +1.9363358e-12 </wgt>
<wgt id='1160'> +1.9319684e-12 </wgt>
<wgt id='1161'> +1.9301821e-12 </wgt>
<wgt id='1162'> +1.9360323e-12 </wgt>
<wgt id='1163'> +1.9333132e-12 </wgt>
<wgt id='1164'> +1.9340162e-12 </wgt>
<wgt id='1165'> +1.9406838e-12 </wgt>
<wgt id='1166'> +1.9265328e-12 </wgt>
<wgt id='1167'> +1.9508434e-12 </wgt>
<wgt id='1168'> +1.9118114e-12 </wgt>
<wgt id='1169'> +1.9395868e-12 </wgt>
<wgt id='1170'> +1.9291863e-12 </wgt>
<wgt id='1171'> +1.9284772e-12 </wgt>
<wgt id='1172'> +1.9403324e-12 </wgt>
<wgt id='1173'> +1.9141289e-12 </wgt>
<wgt id='1174'> +1.9540995e-12 </wgt>
<wgt id='1175'> +1.9319524e-12 </wgt>
<wgt id='1176'> +1.9346290e-12 </wgt>
<wgt id='1177'> +1.9300708e-12 </wgt>
<wgt id='1178'> +1.9423533e-12 </wgt>
<wgt id='1179'> +1.9363719e-12 </wgt>
<wgt id='1180'> +1.9263125e-12 </wgt>
<wgt id='1181'> +1.9341386e-12 </wgt>
<wgt id='1182'> +1.9316854e-12 </wgt>
<wgt id='1183'> +1.9330241e-12 </wgt>
<wgt id='1184'> +1.9336549e-12 </wgt>
<wgt id='1185'> +1.9300267e-12 </wgt>
<wgt id='1186'> +1.9350862e-12 </wgt>
<wgt id='1187'> +1.9368891e-12 </wgt>
<wgt id='1188'> +1.9325084e-12 </wgt>
<wgt id='1189'> +1.9299152e-12 </wgt>
<wgt id='1190'> +1.9215526e-12 </wgt>
<wgt id='1191'> +1.9343659e-12 </wgt>
<wgt id='1192'> +1.9335108e-12 </wgt>
<wgt id='1193'> +1.4247270e-12 </wgt>
<wgt id='1194'> +1.4195145e-12 </wgt>
<wgt id='1195'> +1.4290015e-12 </wgt>
<wgt id='1196'> +1.4235523e-12 </wgt>
<wgt id='1197'> +1.4260257e-12 </wgt>
<wgt id='1198'> +1.4231684e-12 </wgt>
<wgt id='1199'> +1.4270485e-12 </wgt>
<wgt id='1200'> +1.4218784e-12 </wgt>
<wgt id='1201'> +1.4266581e-12 </wgt>
<wgt id='1202'> +1.4243786e-12 </wgt>
<wgt id='1203'> +1.4252164e-12 </wgt>
<wgt id='1204'> +1.4222207e-12 </wgt>
<wgt id='1205'> +1.4261218e-12 </wgt>
<wgt id='1206'> +1.4279937e-12 </wgt>
<wgt id='1207'> +1.4202775e-12 </wgt>
<wgt id='1208'> +1.4332511e-12 </wgt>
<wgt id='1209'> +1.4216756e-12 </wgt>
<wgt id='1210'> +1.4221868e-12 </wgt>
<wgt id='1211'> +1.4213190e-12 </wgt>
<wgt id='1212'> +1.4256282e-12 </wgt>
<wgt id='1213'> +1.4239409e-12 </wgt>
<wgt id='1214'> +1.4073619e-12 </wgt>
<wgt id='1215'> +1.4532208e-12 </wgt>
<wgt id='1216'> +1.4359884e-12 </wgt>
<wgt id='1217'> +1.4177554e-12 </wgt>
<wgt id='1218'> +1.4262925e-12 </wgt>
<wgt id='1219'> +1.4237887e-12 </wgt>
<wgt id='1220'> +1.4298125e-12 </wgt>
<wgt id='1221'> +1.4235107e-12 </wgt>
<wgt id='1222'> +1.4374433e-12 </wgt>
<wgt id='1223'> +1.4063695e-12 </wgt>
<wgt id='1224'> +1.4278903e-12 </wgt>
<wgt id='1225'> +1.4235084e-12 </wgt>
<wgt id='1226'> +1.4242888e-12 </wgt>
<wgt id='1227'> +1.4252095e-12 </wgt>
<wgt id='1228'> +1.4189786e-12 </wgt>
<wgt id='1229'> +1.4277161e-12 </wgt>
<wgt id='1230'> +1.4233897e-12 </wgt>
<wgt id='1231'> +1.4272047e-12 </wgt>
<wgt id='1232'> +1.4265814e-12 </wgt>
<wgt id='1233'> +1.4242580e-12 </wgt>
<wgt id='1234'> +1.4247270e-12 </wgt>
<wgt id='1235'> +1.4187592e-12 </wgt>
<wgt id='1236'> +1.4210496e-12 </wgt>
<wgt id='1237'> +1.4231064e-12 </wgt>
<wgt id='1238'> +1.4263690e-12 </wgt>
<wgt id='1239'> +1.4277271e-12 </wgt>
<wgt id='1240'> +1.4289954e-12 </wgt>
<wgt id='1241'> +1.3971464e-12 </wgt>
<wgt id='1242'> +1.3901987e-12 </wgt>
<wgt id='1243'> +1.4040376e-12 </wgt>
<wgt id='1244'> +1.4017088e-12 </wgt>
<wgt id='1245'> +1.3937636e-12 </wgt>
<wgt id='1246'> +1.3934232e-12 </wgt>
<wgt id='1247'> +1.4003352e-12 </wgt>
<wgt id='1248'> +1.3971506e-12 </wgt>
<wgt id='1249'> +1.3971650e-12 </wgt>
<wgt id='1250'> +1.3986320e-12 </wgt>
<wgt id='1251'> +1.3961001e-12 </wgt>
<wgt id='1252'> +1.3938129e-12 </wgt>
<wgt id='1253'> +1.3997561e-12 </wgt>
<wgt id='1254'> +1.3928702e-12 </wgt>
<wgt id='1255'> +1.3996780e-12 </wgt>
<wgt id='1256'> +1.3941798e-12 </wgt>
<wgt id='1257'> +1.4045765e-12 </wgt>
<wgt id='1258'> +1.4170038e-12 </wgt>
<wgt id='1259'> +1.3790614e-12 </wgt>
<wgt id='1260'> +1.4009476e-12 </wgt>
<wgt id='1261'> +1.3929253e-12 </wgt>
<wgt id='1262'> +1.4025527e-12 </wgt>
<wgt id='1263'> +1.3950997e-12 </wgt>
<wgt id='1264'> +1.3994923e-12 </wgt>
<wgt id='1265'> +1.3961023e-12 </wgt>
<wgt id='1266'> +1.3814806e-12 </wgt>
<wgt id='1267'> +1.4117470e-12 </wgt>
<wgt id='1268'> +1.4019429e-12 </wgt>
<wgt id='1269'> +1.3937018e-12 </wgt>
<wgt id='1270'> +1.3948395e-12 </wgt>
<wgt id='1271'> +1.3949798e-12 </wgt>
<wgt id='1272'> +1.3989001e-12 </wgt>
<wgt id='1273'> +1.3966180e-12 </wgt>
<wgt id='1274'> +1.3976600e-12 </wgt>
<wgt id='1275'> +1.3958598e-12 </wgt>
<wgt id='1276'> +1.4032668e-12 </wgt>
<wgt id='1277'> +1.3909004e-12 </wgt>
<wgt id='1278'> +1.3999780e-12 </wgt>
<wgt id='1279'> +1.4007369e-12 </wgt>
<wgt id='1280'> +1.3970781e-12 </wgt>
<wgt id='1281'> +1.4002380e-12 </wgt>
<wgt id='1282'> +1.3971464e-12 </wgt>
<wgt id='1283'> +1.3908941e-12 </wgt>
<wgt id='1284'> +1.3934535e-12 </wgt>
<wgt id='1285'> +1.3954636e-12 </wgt>
<wgt id='1286'> +1.3988647e-12 </wgt>
<wgt id='1287'> +1.4001179e-12 </wgt>
<wgt id='1288'> +1.4010844e-12 </wgt>
<wgt id='1289'> +1.4737472e-12 </wgt>
<wgt id='1290'> +1.4752584e-12 </wgt>
<wgt id='1291'> +1.4720969e-12 </wgt>
<wgt id='1292'> +1.4742636e-12 </wgt>
<wgt id='1293'> +1.4733660e-12 </wgt>
<wgt id='1294'> +1.4691103e-12 </wgt>
<wgt id='1295'> +1.4781916e-12 </wgt>
<wgt id='1296'> +1.4765553e-12 </wgt>
<wgt id='1297'> +1.4702040e-12 </wgt>
<wgt id='1298'> +1.4754602e-12 </wgt>
<wgt id='1299'> +1.4715015e-12 </wgt>
<wgt id='1300'> +1.4756310e-12 </wgt>
<wgt id='1301'> +1.4699271e-12 </wgt>
<wgt id='1302'> +1.4700773e-12 </wgt>
<wgt id='1303'> +1.4788028e-12 </wgt>
<wgt id='1304'> +1.4716155e-12 </wgt>
<wgt id='1305'> +1.4751883e-12 </wgt>
<wgt id='1306'> +1.4774313e-12 </wgt>
<wgt id='1307'> +1.4694089e-12 </wgt>
<wgt id='1308'> +1.4692843e-12 </wgt>
<wgt id='1309'> +1.4771362e-12 </wgt>
<wgt id='1310'> +1.4745895e-12 </wgt>
<wgt id='1311'> +1.4729727e-12 </wgt>
<wgt id='1312'> +1.4810015e-12 </wgt>
<wgt id='1313'> +1.4665599e-12 </wgt>
<wgt id='1314'> +1.4607932e-12 </wgt>
<wgt id='1315'> +1.4840585e-12 </wgt>
<wgt id='1316'> +1.4791195e-12 </wgt>
<wgt id='1317'> +1.4738703e-12 </wgt>
<wgt id='1318'> +1.4861808e-12 </wgt>
<wgt id='1319'> +1.4589859e-12 </wgt>
<wgt id='1320'> +1.4902948e-12 </wgt>
<wgt id='1321'> +1.4596615e-12 </wgt>
<wgt id='1322'> +1.4743222e-12 </wgt>
<wgt id='1323'> +1.4732522e-12 </wgt>
<wgt id='1324'> +1.4707447e-12 </wgt>
<wgt id='1325'> +1.4769724e-12 </wgt>
<wgt id='1326'> +1.4728144e-12 </wgt>
<wgt id='1327'> +1.4762648e-12 </wgt>
<wgt id='1328'> +1.4730385e-12 </wgt>
<wgt id='1329'> +1.4738558e-12 </wgt>
<wgt id='1330'> +1.4771751e-12 </wgt>
<wgt id='1331'> +1.4704272e-12 </wgt>
<wgt id='1332'> +1.4828465e-12 </wgt>
<wgt id='1333'> +1.4733646e-12 </wgt>
<wgt id='1334'> +1.4713952e-12 </wgt>
<wgt id='1335'> +1.4799091e-12 </wgt>
<wgt id='1336'> +1.4725142e-12 </wgt>
<wgt id='1337'> +1.4775597e-12 </wgt>
<wgt id='1338'> +1.4739031e-12 </wgt>
<wgt id='1339'> +1.4759839e-12 </wgt>
<wgt id='1340'> +1.4474516e-12 </wgt>
<wgt id='1341'> +1.4489714e-12 </wgt>
<wgt id='1342'> +1.4458570e-12 </wgt>
<wgt id='1343'> +1.4480708e-12 </wgt>
<wgt id='1344'> +1.4470458e-12 </wgt>
<wgt id='1345'> +1.4425942e-12 </wgt>
<wgt id='1346'> +1.4519525e-12 </wgt>
<wgt id='1347'> +1.4505954e-12 </wgt>
<wgt id='1348'> +1.4438810e-12 </wgt>
<wgt id='1349'> +1.4488728e-12 </wgt>
<wgt id='1350'> +1.4459932e-12 </wgt>
<wgt id='1351'> +1.4490536e-12 </wgt>
<wgt id='1352'> +1.4439783e-12 </wgt>
<wgt id='1353'> +1.4429345e-12 </wgt>
<wgt id='1354'> +1.4555551e-12 </wgt>
<wgt id='1355'> +1.4460937e-12 </wgt>
<wgt id='1356'> +1.4482151e-12 </wgt>
<wgt id='1357'> +1.4503931e-12 </wgt>
<wgt id='1358'> +1.4438186e-12 </wgt>
<wgt id='1359'> +1.4422786e-12 </wgt>
<wgt id='1360'> +1.4519152e-12 </wgt>
<wgt id='1361'> +1.4487629e-12 </wgt>
<wgt id='1362'> +1.4459032e-12 </wgt>
<wgt id='1363'> +1.4594548e-12 </wgt>
<wgt id='1364'> +1.4397528e-12 </wgt>
<wgt id='1365'> +1.4509922e-12 </wgt>
<wgt id='1366'> +1.4374854e-12 </wgt>
<wgt id='1367'> +1.4529974e-12 </wgt>
<wgt id='1368'> +1.4468763e-12 </wgt>
<wgt id='1369'> +1.4576336e-12 </wgt>
<wgt id='1370'> +1.4353450e-12 </wgt>
<wgt id='1371'> +1.4609014e-12 </wgt>
<wgt id='1372'> +1.4311367e-12 </wgt>
<wgt id='1373'> +1.4455007e-12 </wgt>
<wgt id='1374'> +1.4494194e-12 </wgt>
<wgt id='1375'> +1.4445396e-12 </wgt>
<wgt id='1376'> +1.4511504e-12 </wgt>
<wgt id='1377'> +1.4466885e-12 </wgt>
<wgt id='1378'> +1.4500504e-12 </wgt>
<wgt id='1379'> +1.4468435e-12 </wgt>
<wgt id='1380'> +1.4474972e-12 </wgt>
<wgt id='1381'> +1.4512986e-12 </wgt>
<wgt id='1382'> +1.4441153e-12 </wgt>
<wgt id='1383'> +1.4553131e-12 </wgt>
<wgt id='1384'> +1.4477739e-12 </wgt>
<wgt id='1385'> +1.4453427e-12 </wgt>
<wgt id='1386'> +1.4526140e-12 </wgt>
<wgt id='1387'> +1.4460449e-12 </wgt>
<wgt id='1388'> +1.4519388e-12 </wgt>
<wgt id='1389'> +1.4470088e-12 </wgt>
<wgt id='1390'> +1.4506926e-12 </wgt>
<wgt id='1391'> +1.4066167e-12 </wgt>
<wgt id='1392'> +1.3699764e-12 </wgt>
<wgt id='1393'> +1.3827450e-12 </wgt>
<wgt id='1394'> +1.3949020e-12 </wgt>
<wgt id='1395'> +1.4188766e-12 </wgt>
<wgt id='1396'> +1.4068889e-12 </wgt>
<wgt id='1397'> +1.3981669e-12 </wgt>
<wgt id='1398'> +1.3991796e-12 </wgt>
<wgt id='1399'> +1.4003369e-12 </wgt>
<wgt id='1400'> +1.4021245e-12 </wgt>
<wgt id='1401'> +1.4044667e-12 </wgt>
<wgt id='1402'> +1.4095577e-12 </wgt>
<wgt id='1403'> +1.4126599e-12 </wgt>
<wgt id='1404'> +1.4159561e-12 </wgt>
<wgt id='1405'> +1.4068889e-12 </wgt>
<wgt id='1406'> +1.4034700e-12 </wgt>
<wgt id='1407'> +1.4052487e-12 </wgt>
<wgt id='1408'> +1.4083886e-12 </wgt>
<wgt id='1409'> +1.4095621e-12 </wgt>
<wgt id='1410'> +1.3680597e-12 </wgt>
<wgt id='1411'> +1.3702101e-12 </wgt>
<wgt id='1412'> +1.3653066e-12 </wgt>
<wgt id='1413'> +1.3673664e-12 </wgt>
<wgt id='1414'> +1.3687331e-12 </wgt>
<wgt id='1415'> +1.3682671e-12 </wgt>
<wgt id='1416'> +1.3679612e-12 </wgt>
<wgt id='1417'> +1.3669589e-12 </wgt>
<wgt id='1418'> +1.3690822e-12 </wgt>
<wgt id='1419'> +1.3680295e-12 </wgt>
<wgt id='1420'> +1.3680495e-12 </wgt>
<wgt id='1421'> +1.3611549e-12 </wgt>
<wgt id='1422'> +1.3709726e-12 </wgt>
<wgt id='1423'> +1.3670493e-12 </wgt>
<wgt id='1424'> +1.3692842e-12 </wgt>
<wgt id='1425'> +1.3614613e-12 </wgt>
<wgt id='1426'> +1.3751443e-12 </wgt>
<wgt id='1427'> +1.3623034e-12 </wgt>
<wgt id='1428'> +1.3708662e-12 </wgt>
<wgt id='1429'> +1.3721399e-12 </wgt>
<wgt id='1430'> +1.3624773e-12 </wgt>
<wgt id='1431'> +1.3679617e-12 </wgt>
<wgt id='1432'> +1.3680631e-12 </wgt>
<wgt id='1433'> +1.3579862e-12 </wgt>
<wgt id='1434'> +1.3761199e-12 </wgt>
<wgt id='1435'> +1.3623946e-12 </wgt>
<wgt id='1436'> +1.3821185e-12 </wgt>
<wgt id='1437'> +1.3721677e-12 </wgt>
<wgt id='1438'> +1.3692837e-12 </wgt>
<wgt id='1439'> +1.3611898e-12 </wgt>
<wgt id='1440'> +1.3836641e-12 </wgt>
<wgt id='1441'> +1.3719839e-12 </wgt>
<wgt id='1442'> +1.3585427e-12 </wgt>
<wgt id='1443'> +1.3639655e-12 </wgt>
<wgt id='1444'> +1.3756753e-12 </wgt>
<wgt id='1445'> +1.3752208e-12 </wgt>
<wgt id='1446'> +1.3640567e-12 </wgt>
<wgt id='1447'> +1.3691522e-12 </wgt>
<wgt id='1448'> +1.3687874e-12 </wgt>
<wgt id='1449'> +1.3678712e-12 </wgt>
<wgt id='1450'> +1.3674588e-12 </wgt>
<wgt id='1451'> +1.3675487e-12 </wgt>
<wgt id='1452'> +1.3678055e-12 </wgt>
<wgt id='1453'> +1.3688378e-12 </wgt>
<wgt id='1454'> +1.3683801e-12 </wgt>
<wgt id='1455'> +1.3725858e-12 </wgt>
<wgt id='1456'> +1.3682440e-12 </wgt>
<wgt id='1457'> +1.3718441e-12 </wgt>
<wgt id='1458'> +1.3667533e-12 </wgt>
<wgt id='1459'> +1.3705952e-12 </wgt>
<wgt id='1460'> +1.3701843e-12 </wgt>
<wgt id='1461'> +1.3680597e-12 </wgt>
<wgt id='1462'> +1.3581604e-12 </wgt>
<wgt id='1463'> +1.3757040e-12 </wgt>
<wgt id='1464'> +1.3669431e-12 </wgt>
<wgt id='1465'> +1.3556902e-12 </wgt>
<wgt id='1466'> +1.3571942e-12 </wgt>
<wgt id='1467'> +1.3592097e-12 </wgt>
<wgt id='1468'> +1.3622956e-12 </wgt>
<wgt id='1469'> +1.3642318e-12 </wgt>
<wgt id='1470'> +1.3701143e-12 </wgt>
<wgt id='1471'> +1.3727515e-12 </wgt>
<wgt id='1472'> +1.3757573e-12 </wgt>
<wgt id='1473'> +1.3669431e-12 </wgt>
<wgt id='1474'> +1.3634524e-12 </wgt>
<wgt id='1475'> +1.3654962e-12 </wgt>
<wgt id='1476'> +1.3683242e-12 </wgt>
<wgt id='1477'> +1.3694507e-12 </wgt>
<wgt id='1478'> +1.3925197e-12 </wgt>
<wgt id='1479'> +1.3929414e-12 </wgt>
<wgt id='1480'> +1.3810983e-12 </wgt>
<wgt id='1481'> +1.3958003e-12 </wgt>
<wgt id='1482'> +1.3943698e-12 </wgt>
<wgt id='1483'> +1.3787654e-12 </wgt>
<wgt id='1484'> +1.3817527e-12 </wgt>
<wgt id='1485'> +1.4004643e-12 </wgt>
<wgt id='1486'> +1.3922172e-12 </wgt>
<wgt id='1487'> +1.4014416e-12 </wgt>
<wgt id='1488'> +1.3902471e-12 </wgt>
<wgt id='1489'> +1.3977476e-12 </wgt>
<wgt id='1490'> +1.3901308e-12 </wgt>
<wgt id='1491'> +1.3968358e-12 </wgt>
<wgt id='1492'> +1.3931942e-12 </wgt>
<wgt id='1493'> +1.3777035e-12 </wgt>
<wgt id='1494'> +1.3916936e-12 </wgt>
<wgt id='1495'> +1.3836307e-12 </wgt>
<wgt id='1496'> +1.3937033e-12 </wgt>
<wgt id='1497'> +1.3930613e-12 </wgt>
<wgt id='1498'> +1.3924886e-12 </wgt>
<wgt id='1499'> +1.3952934e-12 </wgt>
<wgt id='1500'> +1.3948371e-12 </wgt>
<wgt id='1501'> +1.3935639e-12 </wgt>
<wgt id='1502'> +1.3910072e-12 </wgt>
<wgt id='1503'> +1.3961086e-12 </wgt>
<wgt id='1504'> +1.3885231e-12 </wgt>
<wgt id='1505'> +1.3964449e-12 </wgt>
<wgt id='1506'> +1.3941339e-12 </wgt>
<wgt id='1507'> +1.3926384e-12 </wgt>
<wgt id='1508'> +1.3955899e-12 </wgt>
<wgt id='1509'> +1.4040229e-12 </wgt>
<wgt id='1510'> +1.4042658e-12 </wgt>
<wgt id='1511'> +1.4020324e-12 </wgt>
<wgt id='1512'> +1.4007544e-12 </wgt>
<wgt id='1513'> +1.4016159e-12 </wgt>
<wgt id='1514'> +1.4072600e-12 </wgt>
<wgt id='1515'> +1.4087638e-12 </wgt>
<wgt id='1516'> +1.4076736e-12 </wgt>
<wgt id='1517'> +1.4090207e-12 </wgt>
<wgt id='1518'> +1.4017799e-12 </wgt>
<wgt id='1519'> +1.4041519e-12 </wgt>
<wgt id='1520'> +1.4062814e-12 </wgt>
<wgt id='1521'> +1.4045533e-12 </wgt>
<wgt id='1522'> +1.4066696e-12 </wgt>
<wgt id='1523'> +1.4074619e-12 </wgt>
<wgt id='1524'> +1.4026963e-12 </wgt>
<wgt id='1525'> +1.4033374e-12 </wgt>
<wgt id='1526'> +1.4052115e-12 </wgt>
<wgt id='1527'> +1.4047824e-12 </wgt>
<wgt id='1528'> +1.4049463e-12 </wgt>
<wgt id='1529'> +1.4054283e-12 </wgt>
<wgt id='1530'> +1.4045253e-12 </wgt>
<wgt id='1531'> +1.4059555e-12 </wgt>
<wgt id='1532'> +1.4003427e-12 </wgt>
<wgt id='1533'> +1.4044589e-12 </wgt>
<wgt id='1534'> +1.4046048e-12 </wgt>
<wgt id='1535'> +1.3998562e-12 </wgt>
<wgt id='1536'> +1.4079565e-12 </wgt>
<wgt id='1537'> +1.4070550e-12 </wgt>
<wgt id='1538'> +1.3902662e-12 </wgt>
<wgt id='1539'> +1.4019303e-12 </wgt>
<wgt id='1540'> +1.4029940e-12 </wgt>
<wgt id='1541'> +1.4012830e-12 </wgt>
<wgt id='1542'> +1.4021323e-12 </wgt>
<wgt id='1543'> +1.4048186e-12 </wgt>
<wgt id='1544'> +1.4020868e-12 </wgt>
<wgt id='1545'> +1.4025392e-12 </wgt>
<wgt id='1546'> +1.4049287e-12 </wgt>
<wgt id='1547'> +1.4027471e-12 </wgt>
<wgt id='1548'> +1.4047766e-12 </wgt>
<wgt id='1549'> +1.4028846e-12 </wgt>
<wgt id='1550'> +1.4040615e-12 </wgt>
<wgt id='1551'> +1.4036321e-12 </wgt>
<wgt id='1552'> +1.4058394e-12 </wgt>
<wgt id='1553'> +1.4042293e-12 </wgt>
<wgt id='1554'> +1.4031618e-12 </wgt>
<wgt id='1555'> +1.4059218e-12 </wgt>
<wgt id='1556'> +1.4073845e-12 </wgt>
<wgt id='1557'> +1.4038191e-12 </wgt>
<wgt id='1558'> +1.4040417e-12 </wgt>
<wgt id='1559'> +1.4027531e-12 </wgt>
<wgt id='1560'> +1.4043217e-12 </wgt>
<wgt id='1561'> +1.4042773e-12 </wgt>
<wgt id='1562'> +1.4039751e-12 </wgt>
<wgt id='1563'> +1.4043769e-12 </wgt>
<wgt id='1564'> +1.4027433e-12 </wgt>
<wgt id='1565'> +1.4039359e-12 </wgt>
<wgt id='1566'> +1.4039853e-12 </wgt>
<wgt id='1567'> +1.4029122e-12 </wgt>
<wgt id='1568'> +1.4039728e-12 </wgt>
<wgt id='1569'> +1.4070200e-12 </wgt>
<wgt id='1570'> +1.4046596e-12 </wgt>
<wgt id='1571'> +1.4046423e-12 </wgt>
<wgt id='1572'> +1.4040453e-12 </wgt>
<wgt id='1573'> +1.4034084e-12 </wgt>
<wgt id='1574'> +1.4047427e-12 </wgt>
<wgt id='1575'> +1.4038565e-12 </wgt>
<wgt id='1576'> +1.4048013e-12 </wgt>
<wgt id='1577'> +1.4059140e-12 </wgt>
<wgt id='1578'> +1.4044576e-12 </wgt>
<wgt id='1579'> +1.4032513e-12 </wgt>
<wgt id='1580'> +1.4037649e-12 </wgt>
<wgt id='1581'> +1.4042316e-12 </wgt>
<wgt id='1582'> +1.4045172e-12 </wgt>
<wgt id='1583'> +1.4032167e-12 </wgt>
<wgt id='1584'> +1.4031608e-12 </wgt>
<wgt id='1585'> +1.4038770e-12 </wgt>
<wgt id='1586'> +1.4040824e-12 </wgt>
<wgt id='1587'> +1.4047104e-12 </wgt>
<wgt id='1588'> +1.4027434e-12 </wgt>
<wgt id='1589'> +1.4052971e-12 </wgt>
<wgt id='1590'> +1.4044822e-12 </wgt>
<wgt id='1591'> +1.4043637e-12 </wgt>
<wgt id='1592'> +1.4044122e-12 </wgt>
<wgt id='1593'> +1.4047522e-12 </wgt>
<wgt id='1594'> +1.4037954e-12 </wgt>
<wgt id='1595'> +1.4031723e-12 </wgt>
<wgt id='1596'> +1.4033383e-12 </wgt>
<wgt id='1597'> +1.4032439e-12 </wgt>
<wgt id='1598'> +1.4044374e-12 </wgt>
<wgt id='1599'> +1.4047328e-12 </wgt>
<wgt id='1600'> +1.4029971e-12 </wgt>
<wgt id='1601'> +1.4044379e-12 </wgt>
<wgt id='1602'> +1.4035613e-12 </wgt>
<wgt id='1603'> +1.4048319e-12 </wgt>
<wgt id='1604'> +1.4041110e-12 </wgt>
<wgt id='1605'> +1.4046249e-12 </wgt>
<wgt id='1606'> +1.4041732e-12 </wgt>
<wgt id='1607'> +1.4043127e-12 </wgt>
<wgt id='1608'> +1.4044255e-12 </wgt>
<wgt id='1609'> +1.4041953e-12 </wgt>
<wgt id='1610'> +1.3883250e-12 </wgt>
<wgt id='1611'> +1.4188849e-12 </wgt>
<wgt id='1612'> +1.5402688e-12 </wgt>
<wgt id='1613'> +1.5172235e-12 </wgt>
<wgt id='1614'> +1.5086409e-12 </wgt>
<wgt id='1615'> +1.5290296e-12 </wgt>
<wgt id='1616'> +1.4856035e-12 </wgt>
<wgt id='1617'> +1.5527500e-12 </wgt>
<wgt id='1618'> +1.4962770e-12 </wgt>
<wgt id='1619'> +1.5060446e-12 </wgt>
<wgt id='1620'> +1.5308239e-12 </wgt>
<wgt id='1621'> +1.5419431e-12 </wgt>
<wgt id='1622'> +1.5578592e-12 </wgt>
<wgt id='1623'> +1.5434216e-12 </wgt>
<wgt id='1624'> +1.5365613e-12 </wgt>
<wgt id='1625'> +1.5449653e-12 </wgt>
<wgt id='1626'> +1.5528304e-12 </wgt>
<wgt id='1627'> +1.5331905e-12 </wgt>
<wgt id='1628'> +1.4362727e-12 </wgt>
<wgt id='1629'> +1.5783431e-12 </wgt>
<wgt id='1630'> +1.5391714e-12 </wgt>
<wgt id='1631'> +1.5341444e-12 </wgt>
<wgt id='1632'> +1.4809695e-12 </wgt>
<wgt id='1633'> +1.5126020e-12 </wgt>
<wgt id='1634'> +1.5590118e-12 </wgt>
<wgt id='1635'> +1.5562789e-12 </wgt>
<wgt id='1636'> +1.5384895e-12 </wgt>
<wgt id='1637'> +1.5552773e-12 </wgt>
<wgt id='1638'> +1.5343507e-12 </wgt>
<wgt id='1639'> +1.5473522e-12 </wgt>
<wgt id='1640'> +1.5418409e-12 </wgt>
<wgt id='1641'> +1.5419873e-12 </wgt>
<wgt id='1642'> +1.5065401e-12 </wgt>
<wgt id='1643'> +1.5327552e-12 </wgt>
<wgt id='1644'> +1.5759131e-12 </wgt>
<wgt id='1645'> +1.5224183e-12 </wgt>
<wgt id='1646'> +1.5784257e-12 </wgt>
<wgt id='1647'> +1.5613482e-12 </wgt>
<wgt id='1648'> +1.5511345e-12 </wgt>
<wgt id='1649'> +1.5274946e-12 </wgt>
<wgt id='1650'> +1.5249422e-12 </wgt>
<wgt id='1651'> +1.5247344e-12 </wgt>
<wgt id='1652'> +1.5478264e-12 </wgt>
<wgt id='1653'> +1.5251684e-12 </wgt>
<wgt id='1654'> +1.5163804e-12 </wgt>
<wgt id='1655'> +1.5306480e-12 </wgt>
<wgt id='1656'> +1.5600170e-12 </wgt>
<wgt id='1657'> +1.5134055e-12 </wgt>
<wgt id='1658'> +1.5360705e-12 </wgt>
<wgt id='1659'> +1.5365613e-12 </wgt>
<wgt id='1660'> +1.5360079e-12 </wgt>
<wgt id='1661'> +1.5862726e-12 </wgt>
<wgt id='1662'> +1.5816696e-12 </wgt>
<wgt id='1663'> +1.5670554e-12 </wgt>
<wgt id='1664'> +1.5378642e-12 </wgt>
<wgt id='1665'> +1.5270400e-12 </wgt>
<wgt id='1666'> +1.5556733e-12 </wgt>
<wgt id='1667'> +1.5552330e-12 </wgt>
<wgt id='1668'> +1.5291279e-12 </wgt>
<wgt id='1669'> +1.5465223e-12 </wgt>
<wgt id='1670'> +1.5475646e-12 </wgt>
<wgt id='1671'> +1.5294009e-12 </wgt>
<wgt id='1672'> +1.5724137e-12 </wgt>
<wgt id='1673'> +1.5331302e-12 </wgt>
<wgt id='1674'> +1.5341957e-12 </wgt>
<wgt id='1675'> +1.5415901e-12 </wgt>
<wgt id='1676'> +1.5327573e-12 </wgt>
<wgt id='1677'> +1.5848866e-12 </wgt>
<wgt id='1678'> +1.5337378e-12 </wgt>
<wgt id='1679'> +1.5570438e-12 </wgt>
<wgt id='1680'> +1.5338149e-12 </wgt>
<wgt id='1681'> +1.5700538e-12 </wgt>
<wgt id='1682'> +1.5457520e-12 </wgt>
<wgt id='1683'> +1.5454369e-12 </wgt>
<wgt id='1684'> +1.5805544e-12 </wgt>
<wgt id='1685'> +1.5223838e-12 </wgt>
<wgt id='1686'> +1.5592180e-12 </wgt>
<wgt id='1687'> +1.5736561e-12 </wgt>
<wgt id='1688'> +1.4969159e-12 </wgt>
<wgt id='1689'> +1.5729178e-12 </wgt>
<wgt id='1690'> +1.5499924e-12 </wgt>
<wgt id='1691'> +1.5230981e-12 </wgt>
<wgt id='1692'> +1.5310436e-12 </wgt>
<wgt id='1693'> +1.5691039e-12 </wgt>
<wgt id='1694'> +1.5518300e-12 </wgt>
<wgt id='1695'> +1.5711612e-12 </wgt>
<wgt id='1696'> +1.5460684e-12 </wgt>
<wgt id='1697'> +1.5114952e-12 </wgt>
<wgt id='1698'> +1.5285527e-12 </wgt>
<wgt id='1699'> +1.5342814e-12 </wgt>
<wgt id='1700'> +1.5324589e-12 </wgt>
<wgt id='1701'> +1.5647576e-12 </wgt>
<wgt id='1702'> +1.5145265e-12 </wgt>
<wgt id='1703'> +1.5379586e-12 </wgt>
<wgt id='1704'> +1.5352710e-12 </wgt>
<wgt id='1705'> +1.5061480e-12 </wgt>
<wgt id='1706'> +1.5402960e-12 </wgt>
<wgt id='1707'> +1.5169755e-12 </wgt>
<wgt id='1708'> +1.5696768e-12 </wgt>
<wgt id='1709'> +1.5575816e-12 </wgt>
<wgt id='1710'> +1.5418570e-12 </wgt>
<wgt id='1711'> +1.5467183e-12 </wgt>
<wgt id='1712'> +1.5894740e-12 </wgt>
<wgt id='1713'> +1.3713287e-12 </wgt>
<wgt id='1714'> +1.3520676e-12 </wgt>
<wgt id='1715'> +1.3483361e-12 </wgt>
<wgt id='1716'> +1.3946161e-12 </wgt>
<wgt id='1717'> +1.3774565e-12 </wgt>
<wgt id='1718'> +1.4137941e-12 </wgt>
<wgt id='1719'> +1.3855627e-12 </wgt>
<wgt id='1720'> +1.3612002e-12 </wgt>
<wgt id='1721'> +1.3459729e-12 </wgt>
<wgt id='1722'> +1.3643337e-12 </wgt>
<wgt id='1723'> +1.3920605e-12 </wgt>
<wgt id='1724'> +1.4030608e-12 </wgt>
<wgt id='1725'> +1.3888194e-12 </wgt>
<wgt id='1726'> +1.3896132e-12 </wgt>
<wgt id='1727'> +1.3838371e-12 </wgt>
<wgt id='1728'> +1.3629438e-12 </wgt>
<wgt id='1729'> +1.3384214e-12 </wgt>
<wgt id='1730'> +1.3477446e-12 </wgt>
<wgt id='1731'> +1.3213791e-12 </wgt>
<wgt id='1732'> +1.3660677e-12 </wgt>
<wgt id='1733'> +1.3277217e-12 </wgt>
<wgt id='1734'> +1.4068568e-12 </wgt>
<wgt id='1735'> +1.3665717e-12 </wgt>
<wgt id='1736'> +1.4248162e-12 </wgt>
<wgt id='1737'> +1.3832286e-12 </wgt>
<wgt id='1738'> +1.3762664e-12 </wgt>
<wgt id='1739'> +1.3694531e-12 </wgt>
<wgt id='1740'> +1.3148666e-12 </wgt>
<wgt id='1741'> +1.3818745e-12 </wgt>
<wgt id='1742'> +1.3493946e-12 </wgt>
<wgt id='1743'> +1.3692343e-12 </wgt>
<wgt id='1744'> +1.3830986e-12 </wgt>
<wgt id='1745'> +1.3833612e-12 </wgt>
<wgt id='1746'> +1.3702046e-12 </wgt>
<wgt id='1747'> +1.4072278e-12 </wgt>
<wgt id='1748'> +1.3717366e-12 </wgt>
<wgt id='1749'> +1.3716239e-12 </wgt>
<wgt id='1750'> +1.3487459e-12 </wgt>
<wgt id='1751'> +1.3584949e-12 </wgt>
<wgt id='1752'> +1.3472552e-12 </wgt>
<wgt id='1753'> +1.3770099e-12 </wgt>
<wgt id='1754'> +1.3808534e-12 </wgt>
<wgt id='1755'> +1.3888320e-12 </wgt>
<wgt id='1756'> +1.3929961e-12 </wgt>
<wgt id='1757'> +1.3784892e-12 </wgt>
<wgt id='1758'> +1.3921535e-12 </wgt>
<wgt id='1759'> +1.3865272e-12 </wgt>
<wgt id='1760'> +1.3588340e-12 </wgt>
<wgt id='1761'> +1.3561465e-12 </wgt>
<wgt id='1762'> +1.3617150e-12 </wgt>
<wgt id='1763'> +1.3830507e-12 </wgt>
<wgt id='1764'> +1.3974375e-12 </wgt>
<wgt id='1765'> +1.3816893e-12 </wgt>
<wgt id='1766'> +1.4041667e-12 </wgt>
<wgt id='1767'> +1.3717437e-12 </wgt>
<wgt id='1768'> +1.3852776e-12 </wgt>
<wgt id='1769'> +1.3518188e-12 </wgt>
<wgt id='1770'> +1.3718341e-12 </wgt>
<wgt id='1771'> +1.3997544e-12 </wgt>
<wgt id='1772'> +1.3498082e-12 </wgt>
<wgt id='1773'> +1.3734878e-12 </wgt>
<wgt id='1774'> +1.3682584e-12 </wgt>
<wgt id='1775'> +1.3680541e-12 </wgt>
<wgt id='1776'> +1.4115387e-12 </wgt>
<wgt id='1777'> +1.3146152e-12 </wgt>
<wgt id='1778'> +1.3735894e-12 </wgt>
<wgt id='1779'> +1.3699431e-12 </wgt>
<wgt id='1780'> +1.3862860e-12 </wgt>
<wgt id='1781'> +1.3787445e-12 </wgt>
<wgt id='1782'> +1.3599778e-12 </wgt>
<wgt id='1783'> +1.3634743e-12 </wgt>
<wgt id='1784'> +1.3879039e-12 </wgt>
<wgt id='1785'> +1.3895125e-12 </wgt>
<wgt id='1786'> +1.3655976e-12 </wgt>
<wgt id='1787'> +1.4241875e-12 </wgt>
<wgt id='1788'> +1.3601255e-12 </wgt>
<wgt id='1789'> +1.4295789e-12 </wgt>
<wgt id='1790'> +1.3818603e-12 </wgt>
<wgt id='1791'> +1.3841822e-12 </wgt>
<wgt id='1792'> +1.3627878e-12 </wgt>
<wgt id='1793'> +1.3640602e-12 </wgt>
<wgt id='1794'> +1.3857292e-12 </wgt>
<wgt id='1795'> +1.3815462e-12 </wgt>
<wgt id='1796'> +1.3296172e-12 </wgt>
<wgt id='1797'> +1.3654560e-12 </wgt>
<wgt id='1798'> +1.3584790e-12 </wgt>
<wgt id='1799'> +1.3576562e-12 </wgt>
<wgt id='1800'> +1.3886609e-12 </wgt>
<wgt id='1801'> +1.3773170e-12 </wgt>
<wgt id='1802'> +1.3402652e-12 </wgt>
<wgt id='1803'> +1.3687868e-12 </wgt>
<wgt id='1804'> +1.3595285e-12 </wgt>
<wgt id='1805'> +1.3541431e-12 </wgt>
<wgt id='1806'> +1.3399028e-12 </wgt>
<wgt id='1807'> +1.3764979e-12 </wgt>
<wgt id='1808'> +1.3413707e-12 </wgt>
<wgt id='1809'> +1.3603695e-12 </wgt>
<wgt id='1810'> +1.3459041e-12 </wgt>
<wgt id='1811'> +1.3945137e-12 </wgt>
<wgt id='1812'> +1.3618694e-12 </wgt>
<wgt id='1813'> +1.3128474e-12 </wgt>
<wgt id='1814'> +1.5916257e-12 </wgt>
<wgt id='1815'> +1.8499755e-12 </wgt>
<wgt id='1816'> +1.3713287e-12 </wgt>
<wgt id='1817'> +1.3520676e-12 </wgt>
<wgt id='1818'> +1.3483361e-12 </wgt>
<wgt id='1819'> +1.3946161e-12 </wgt>
<wgt id='1820'> +1.3774565e-12 </wgt>
<wgt id='1821'> +1.4137941e-12 </wgt>
<wgt id='1822'> +1.3855627e-12 </wgt>
<wgt id='1823'> +1.3612002e-12 </wgt>
<wgt id='1824'> +1.3459729e-12 </wgt>
<wgt id='1825'> +1.3643337e-12 </wgt>
<wgt id='1826'> +1.3920605e-12 </wgt>
<wgt id='1827'> +1.4030608e-12 </wgt>
<wgt id='1828'> +1.3888194e-12 </wgt>
<wgt id='1829'> +1.3896132e-12 </wgt>
<wgt id='1830'> +1.3838371e-12 </wgt>
<wgt id='1831'> +1.3629438e-12 </wgt>
<wgt id='1832'> +1.3384214e-12 </wgt>
<wgt id='1833'> +1.3477446e-12 </wgt>
<wgt id='1834'> +1.3213791e-12 </wgt>
<wgt id='1835'> +1.3660677e-12 </wgt>
<wgt id='1836'> +1.3277217e-12 </wgt>
<wgt id='1837'> +1.4068568e-12 </wgt>
<wgt id='1838'> +1.3665717e-12 </wgt>
<wgt id='1839'> +1.4248162e-12 </wgt>
<wgt id='1840'> +1.3832286e-12 </wgt>
<wgt id='1841'> +1.3762664e-12 </wgt>
<wgt id='1842'> +1.3694531e-12 </wgt>
<wgt id='1843'> +1.3148666e-12 </wgt>
<wgt id='1844'> +1.3818745e-12 </wgt>
<wgt id='1845'> +1.3493946e-12 </wgt>
<wgt id='1846'> +1.3692343e-12 </wgt>
<wgt id='1847'> +1.3830986e-12 </wgt>
<wgt id='1848'> +1.3833612e-12 </wgt>
<wgt id='1849'> +1.3702046e-12 </wgt>
<wgt id='1850'> +1.4072278e-12 </wgt>
<wgt id='1851'> +1.3717366e-12 </wgt>
<wgt id='1852'> +1.3716239e-12 </wgt>
<wgt id='1853'> +1.3487459e-12 </wgt>
<wgt id='1854'> +1.3584949e-12 </wgt>
<wgt id='1855'> +1.3472552e-12 </wgt>
<wgt id='1856'> +1.3770099e-12 </wgt>
<wgt id='1857'> +1.3808534e-12 </wgt>
<wgt id='1858'> +1.3888320e-12 </wgt>
<wgt id='1859'> +1.3929961e-12 </wgt>
<wgt id='1860'> +1.3784892e-12 </wgt>
<wgt id='1861'> +1.3921535e-12 </wgt>
<wgt id='1862'> +1.3865272e-12 </wgt>
<wgt id='1863'> +1.3588340e-12 </wgt>
<wgt id='1864'> +1.3561465e-12 </wgt>
<wgt id='1865'> +1.3617150e-12 </wgt>
<wgt id='1866'> +1.3830507e-12 </wgt>
<wgt id='1867'> +1.3974375e-12 </wgt>
<wgt id='1868'> +1.3816893e-12 </wgt>
<wgt id='1869'> +1.4041667e-12 </wgt>
<wgt id='1870'> +1.3717437e-12 </wgt>
<wgt id='1871'> +1.3852776e-12 </wgt>
<wgt id='1872'> +1.3518188e-12 </wgt>
<wgt id='1873'> +1.3718341e-12 </wgt>
<wgt id='1874'> +1.3997544e-12 </wgt>
<wgt id='1875'> +1.3498082e-12 </wgt>
<wgt id='1876'> +1.3734878e-12 </wgt>
<wgt id='1877'> +1.3682584e-12 </wgt>
<wgt id='1878'> +1.3680541e-12 </wgt>
<wgt id='1879'> +1.4115387e-12 </wgt>
<wgt id='1880'> +1.3146152e-12 </wgt>
<wgt id='1881'> +1.3735894e-12 </wgt>
<wgt id='1882'> +1.3699431e-12 </wgt>
<wgt id='1883'> +1.3862860e-12 </wgt>
<wgt id='1884'> +1.3787445e-12 </wgt>
<wgt id='1885'> +1.3599778e-12 </wgt>
<wgt id='1886'> +1.3634743e-12 </wgt>
<wgt id='1887'> +1.3879039e-12 </wgt>
<wgt id='1888'> +1.3895125e-12 </wgt>
<wgt id='1889'> +1.3655976e-12 </wgt>
<wgt id='1890'> +1.4241875e-12 </wgt>
<wgt id='1891'> +1.3601255e-12 </wgt>
<wgt id='1892'> +1.4295789e-12 </wgt>
<wgt id='1893'> +1.3818603e-12 </wgt>
<wgt id='1894'> +1.3841822e-12 </wgt>
<wgt id='1895'> +1.3627878e-12 </wgt>
<wgt id='1896'> +1.3640602e-12 </wgt>
<wgt id='1897'> +1.3857292e-12 </wgt>
<wgt id='1898'> +1.3815462e-12 </wgt>
<wgt id='1899'> +1.3296172e-12 </wgt>
<wgt id='1900'> +1.3654560e-12 </wgt>
<wgt id='1901'> +1.3584790e-12 </wgt>
<wgt id='1902'> +1.3576562e-12 </wgt>
<wgt id='1903'> +1.3886609e-12 </wgt>
<wgt id='1904'> +1.3773170e-12 </wgt>
<wgt id='1905'> +1.3402652e-12 </wgt>
<wgt id='1906'> +1.3687868e-12 </wgt>
<wgt id='1907'> +1.3595285e-12 </wgt>
<wgt id='1908'> +1.3541431e-12 </wgt>
<wgt id='1909'> +1.3399028e-12 </wgt>
<wgt id='1910'> +1.3764979e-12 </wgt>
<wgt id='1911'> +1.3413707e-12 </wgt>
<wgt id='1912'> +1.3603695e-12 </wgt>
<wgt id='1913'> +1.3459041e-12 </wgt>
<wgt id='1914'> +1.3945137e-12 </wgt>
<wgt id='1915'> +1.3618694e-12 </wgt>
<wgt id='1916'> +1.3128474e-12 </wgt>
<wgt id='1917'> +1.3622044e-12 </wgt>
<wgt id='1918'> +1.3814156e-12 </wgt>
<wgt id='1919'> +1.3677221e-12 </wgt>
</rwgt>
</event>
<event>
 9      1 +1.5607000e-12 4.88801100e+01 7.81860800e-03 1.31700000e-01
        2 -1    0    0  502    0 -0.0000000000e+00 +0.0000000000e+00 +3.3302586937e+02 3.3302586937e+02 0.0000000000e+00 0.0000e+00 1.0000e+00
       21 -1    0    0  501  502 +0.0000000000e+00 -0.0000000000e+00 -1.7936036256e+00 1.7936036256e+00 0.0000000000e+00 0.0000e+00 -1.0000e+00
     1023  2    1    2    0    0 -2.0914785457e+01 -6.8720588602e+00 +1.6517746326e+02 1.6731170937e+02 1.4998676028e+01 0.0000e+00 0.0000e+00
  1000023  2    3    3    0    0 -1.9364205559e+01 -6.5603284651e+00 +1.4020195346e+02 1.4179156903e+02 5.5000842150e+00 0.0000e+00 0.0000e+00
        2  1    1    2  501    0 +2.0914785457e+01 +6.8720588602e+00 +1.6605480249e+02 1.6750776362e+02 0.0000000000e+00 0.0000e+00 1.0000e+00
  1000022  1    4    4    0    0 -1.6888092391e+01 -5.3112988199e+00 +1.2222547830e+02 1.2360212420e+02 5.0000000000e+00 0.0000e+00 -1.0000e+00
      -11  1    4    4    0    0 -9.4020094697e-01 -4.1754747320e-01 +6.6827648850e+00 6.7614843401e+00 5.1100000000e-04 0.0000e+00 1.0000e+00
       11  1    4    4    0    0 -1.5359122213e+00 -8.3148217200e-01 +1.1293710272e+01 1.1427960488e+01 5.1100000000e-04 0.0000e+00 -1.0000e+00
  1000022  1    3    3    0    0 -1.5505798986e+00 -3.1173039507e-01 +2.4975509794e+01 2.5520140347e+01 5.0000000000e+00 0.0000e+00 -1.0000e+00
<mgrwt>
<rscale>  1 0.48880115E+02</rscale>
<asrwt>0</asrwt>
<pdfrwt beam="1">  1       21 0.27593928E-03 0.48880115E+02</pdfrwt>
<pdfrwt beam="2">  1        2 0.51234700E-01 0.48880115E+02</pdfrwt>
<totfact> 0.23107215E+07</totfact>
</mgrwt>
<rwgt>
<wgt id='1001'> +1.5607000e-12 </wgt>
<wgt id='1002'> +1.5451692e-12 </wgt>
<wgt id='1003'> +1.5593392e-12 </wgt>
<wgt id='1004'> +1.4287106e-12 </wgt>
<wgt id='1005'> +1.5607000e-12 </wgt>
<wgt id='1006'> +1.3823894e-12 </wgt>
<wgt id='1007'> +1.3653997e-12 </wgt>
<wgt id='1008'> +1.3808940e-12 </wgt>
<wgt id='1009'> +1.2424447e-12 </wgt>
<wgt id='1010'> +1.3823894e-12 </wgt>
<wgt id='1011'> +1.7941801e-12 </wgt>
<wgt id='1012'> +1.7819240e-12 </wgt>
<wgt id='1013'> +1.7931136e-12 </wgt>
<wgt id='1014'> +1.6840929e-12 </wgt>
<wgt id='1015'> +1.7941801e-12 </wgt>
<wgt id='1016'> +1.8516239e-12 </wgt>
<wgt id='1017'> +1.8456308e-12 </wgt>
<wgt id='1018'> +1.8511145e-12 </wgt>
<wgt id='1019'> +1.7931136e-12 </wgt>
<wgt id='1020'> +1.8516239e-12 </wgt>
<wgt id='1021'> +1.6400751e-12 </wgt>
<wgt id='1022'> +1.6309047e-12 </wgt>
<wgt id='1023'> +1.6392796e-12 </wgt>
<wgt id='1024'> +1.5593392e-12 </wgt>
<wgt id='1025'> +1.6400751e-12 </wgt>
<wgt id='1026'> +2.1286261e-12 </wgt>
<wgt id='1027'> +2.1284232e-12 </wgt>
<wgt id='1028'> +2.1286316e-12 </wgt>
<wgt id='1029'> +2.1136330e-12 </wgt>
<wgt id='1030'> +2.1286261e-12 </wgt>
<wgt id='1031'> +1.2446423e-12 </wgt>
<wgt id='1032'> +1.2196515e-12 </wgt>
<wgt id='1033'> +1.2424447e-12 </wgt>
<wgt id='1034'> +1.0407565e-12 </wgt>
<wgt id='1035'> +1.2446423e-12 </wgt>
<wgt id='1036'> +1.1024414e-12 </wgt>
<wgt id='1037'> +1.0777537e-12 </wgt>
<wgt id='1038'> +1.1002637e-12 </wgt>
<wgt id='1039'> +9.0506953e-13 </wgt>
<wgt id='1040'> +1.1024414e-12 </wgt>
<wgt id='1041'> +1.4308403e-12 </wgt>
<wgt id='1042'> +1.4065297e-12 </wgt>
<wgt id='1043'> +1.4287106e-12 </wgt>
<wgt id='1044'> +1.2267920e-12 </wgt>
<wgt id='1045'> +1.4308403e-12 </wgt>
<wgt id='1046'> +1.5607000e-12 </wgt>
<wgt id='1047'> +1.5803313e-12 </wgt>
<wgt id='1048'> +1.5927733e-12 </wgt>
<wgt id='1049'> +1.5062538e-12 </wgt>
<wgt id='1050'> +1.5354477e-12 </wgt>
<wgt id='1051'> +1.5288137e-12 </wgt>
<wgt id='1052'> +1.5394641e-12 </wgt>
<wgt id='1053'> +1.6199880e-12 </wgt>
<wgt id='1054'> +1.5814535e-12 </wgt>
<wgt id='1055'> +1.5307015e-12 </wgt>
<wgt id='1056'> +1.5256776e-12 </wgt>
<wgt id='1057'> +1.5522173e-12 </wgt>
<wgt id='1058'> +1.5171959e-12 </wgt>
<wgt id='1059'> +1.5686585e-12 </wgt>
<wgt id='1060'> +1.5781129e-12 </wgt>
<wgt id='1061'> +1.5828142e-12 </wgt>
<wgt id='1062'> +1.5660669e-12 </wgt>
<wgt id='1063'> +1.5236480e-12 </wgt>
<wgt id='1064'> +1.5528137e-12 </wgt>
<wgt id='1065'> +1.6083735e-12 </wgt>
<wgt id='1066'> +1.5569727e-12 </wgt>
<wgt id='1067'> +1.5820531e-12 </wgt>
<wgt id='1068'> +1.6028244e-12 </wgt>
<wgt id='1069'> +1.6073417e-12 </wgt>
<wgt id='1070'> +1.5582629e-12 </wgt>
<wgt id='1071'> +1.5518935e-12 </wgt>
<wgt id='1072'> +1.5828298e-12 </wgt>
<wgt id='1073'> +1.5582695e-12 </wgt>
<wgt id='1074'> +1.5576166e-12 </wgt>
<wgt id='1075'> +1.5645830e-12 </wgt>
<wgt id='1076'> +1.5566302e-12 </wgt>
<wgt id='1077'> +1.5756353e-12 </wgt>
<wgt id='1078'> +1.5168840e-12 </wgt>
<wgt id='1079'> +1.5550456e-12 </wgt>
<wgt id='1080'> +1.5464431e-12 </wgt>
<wgt id='1081'> +1.5366926e-12 </wgt>
<wgt id='1082'> +1.5516489e-12 </wgt>
<wgt id='1083'> +1.5425709e-12 </wgt>
<wgt id='1084'> +1.5383175e-12 </wgt>
<wgt id='1085'> +1.5876642e-12 </wgt>
<wgt id='1086'> +1.6079306e-12 </wgt>
<wgt id='1087'> +1.5402560e-12 </wgt>
<wgt id='1088'> +1.5681517e-12 </wgt>
<wgt id='1089'> +1.5407126e-12 </wgt>
<wgt id='1090'> +1.5615781e-12 </wgt>
<wgt id='1091'> +1.5701633e-12 </wgt>
<wgt id='1092'> +1.5746969e-12 </wgt>
<wgt id='1093'> +1.5783076e-12 </wgt>
<wgt id='1094'> +1.6105830e-12 </wgt>
<wgt id='1095'> +1.5964165e-12 </wgt>
<wgt id='1096'> +1.5459136e-12 </wgt>
<wgt id='1097'> +1.5676187e-12 </wgt>
<wgt id='1098'> +1.5801033e-12 </wgt>
<wgt id='1099'> +1.5445208e-12 </wgt>
<wgt id='1100'> +1.5929180e-12 </wgt>
<wgt id='1101'> +1.5755540e-12 </wgt>
<wgt id='1102'> +1.5436304e-12 </wgt>
<wgt id='1103'> +1.5601925e-12 </wgt>
<wgt id='1104'> +1.5613314e-12 </wgt>
<wgt id='1105'> +1.5060628e-12 </wgt>
<wgt id='1106'> +1.5632219e-12 </wgt>
<wgt id='1107'> +1.6108260e-12 </wgt>
<wgt id='1108'> +1.5600913e-12 </wgt>
<wgt id='1109'> +1.5604578e-12 </wgt>
<wgt id='1110'> +1.5477850e-12 </wgt>
<wgt id='1111'> +1.5628351e-12 </wgt>
<wgt id='1112'> +1.5402516e-12 </wgt>
<wgt id='1113'> +1.6291199e-12 </wgt>
<wgt id='1114'> +1.5910430e-12 </wgt>
<wgt id='1115'> +1.5946364e-12 </wgt>
<wgt id='1116'> +1.6251870e-12 </wgt>
<wgt id='1117'> +1.5448271e-12 </wgt>
<wgt id='1118'> +1.6290327e-12 </wgt>
<wgt id='1119'> +1.4891075e-12 </wgt>
<wgt id='1120'> +1.5364311e-12 </wgt>
<wgt id='1121'> +1.5301930e-12 </wgt>
<wgt id='1122'> +1.5505193e-12 </wgt>
<wgt id='1123'> +1.5858306e-12 </wgt>
<wgt id='1124'> +1.5737879e-12 </wgt>
<wgt id='1125'> +1.5125245e-12 </wgt>
<wgt id='1126'> +1.5570240e-12 </wgt>
<wgt id='1127'> +1.5653797e-12 </wgt>
<wgt id='1128'> +1.5660669e-12 </wgt>
<wgt id='1129'> +1.5488081e-12 </wgt>
<wgt id='1130'> +1.5431568e-12 </wgt>
<wgt id='1131'> +1.5667526e-12 </wgt>
<wgt id='1132'> +1.5943878e-12 </wgt>
<wgt id='1133'> +1.5227502e-12 </wgt>
<wgt id='1134'> +1.5447654e-12 </wgt>
<wgt id='1135'> +1.5035226e-12 </wgt>
<wgt id='1136'> +1.5177571e-12 </wgt>
<wgt id='1137'> +1.5650663e-12 </wgt>
<wgt id='1138'> +1.5358805e-12 </wgt>
<wgt id='1139'> +1.5522185e-12 </wgt>
<wgt id='1140'> +1.5776493e-12 </wgt>
<wgt id='1141'> +1.5571095e-12 </wgt>
<wgt id='1142'> +1.5740947e-12 </wgt>
<wgt id='1143'> +1.5246747e-12 </wgt>
<wgt id='1144'> +1.5409520e-12 </wgt>
<wgt id='1145'> +1.5660052e-12 </wgt>
<wgt id='1146'> +1.5623000e-12 </wgt>
<wgt id='1147'> +1.3743779e-12 </wgt>
<wgt id='1148'> +1.4036469e-12 </wgt>
<wgt id='1149'> +1.3306643e-12 </wgt>
<wgt id='1150'> +1.3783844e-12 </wgt>
<wgt id='1151'> +1.6120023e-12 </wgt>
<wgt id='1152'> +2.1378419e-12 </wgt>
<wgt id='1153'> +2.1344762e-12 </wgt>
<wgt id='1154'> +2.1396854e-12 </wgt>
<wgt id='1155'> +2.1329338e-12 </wgt>
<wgt id='1156'> +2.1403305e-12 </wgt>
<wgt id='1157'> +2.1412497e-12 </wgt>
<wgt id='1158'> +2.1331791e-12 </wgt>
<wgt id='1159'> +2.1408227e-12 </wgt>
<wgt id='1160'> +2.1359095e-12 </wgt>
<wgt id='1161'> +2.1342129e-12 </wgt>
<wgt id='1162'> +2.1402825e-12 </wgt>
<wgt id='1163'> +2.1388068e-12 </wgt>
<wgt id='1164'> +2.1368461e-12 </wgt>
<wgt id='1165'> +2.1360841e-12 </wgt>
<wgt id='1166'> +2.1393348e-12 </wgt>
<wgt id='1167'> +2.1579940e-12 </wgt>
<wgt id='1168'> +2.1127858e-12 </wgt>
<wgt id='1169'> +2.1435454e-12 </wgt>
<wgt id='1170'> +2.1335756e-12 </wgt>
<wgt id='1171'> +2.1287002e-12 </wgt>
<wgt id='1172'> +2.1494393e-12 </wgt>
<wgt id='1173'> +2.1171083e-12 </wgt>
<wgt id='1174'> +2.1588179e-12 </wgt>
<wgt id='1175'> +2.1426782e-12 </wgt>
<wgt id='1176'> +2.1332882e-12 </wgt>
<wgt id='1177'> +2.1327292e-12 </wgt>
<wgt id='1178'> +2.1515852e-12 </wgt>
<wgt id='1179'> +2.1364375e-12 </wgt>
<wgt id='1180'> +2.1327166e-12 </wgt>
<wgt id='1181'> +2.1437267e-12 </wgt>
<wgt id='1182'> +2.1305151e-12 </wgt>
<wgt id='1183'> +2.1276140e-12 </wgt>
<wgt id='1184'> +2.1385803e-12 </wgt>
<wgt id='1185'> +2.1342460e-12 </wgt>
<wgt id='1186'> +2.1402397e-12 </wgt>
<wgt id='1187'> +2.1401777e-12 </wgt>
<wgt id='1188'> +2.1370132e-12 </wgt>
<wgt id='1189'> +2.1327513e-12 </wgt>
<wgt id='1190'> +2.1171166e-12 </wgt>
<wgt id='1191'> +2.1393114e-12 </wgt>
<wgt id='1192'> +2.1426753e-12 </wgt>
<wgt id='1193'> +1.3715598e-12 </wgt>
<wgt id='1194'> +1.3590102e-12 </wgt>
<wgt id='1195'> +1.3818578e-12 </wgt>
<wgt id='1196'> +1.3736788e-12 </wgt>
<wgt id='1197'> +1.3691883e-12 </wgt>
<wgt id='1198'> +1.3709856e-12 </wgt>
<wgt id='1199'> +1.3724498e-12 </wgt>
<wgt id='1200'> +1.3691365e-12 </wgt>
<wgt id='1201'> +1.3732306e-12 </wgt>
<wgt id='1202'> +1.3703689e-12 </wgt>
<wgt id='1203'> +1.3732693e-12 </wgt>
<wgt id='1204'> +1.3644908e-12 </wgt>
<wgt id='1205'> +1.3757759e-12 </wgt>
<wgt id='1206'> +1.3745881e-12 </wgt>
<wgt id='1207'> +1.3674442e-12 </wgt>
<wgt id='1208'> +1.3739998e-12 </wgt>
<wgt id='1209'> +1.3707229e-12 </wgt>
<wgt id='1210'> +1.3705637e-12 </wgt>
<wgt id='1211'> +1.3685125e-12 </wgt>
<wgt id='1212'> +1.3723305e-12 </wgt>
<wgt id='1213'> +1.3711434e-12 </wgt>
<wgt id='1214'> +1.3584848e-12 </wgt>
<wgt id='1215'> +1.3896952e-12 </wgt>
<wgt id='1216'> +1.3736367e-12 </wgt>
<wgt id='1217'> +1.3699005e-12 </wgt>
<wgt id='1218'> +1.3766562e-12 </wgt>
<wgt id='1219'> +1.3687998e-12 </wgt>
<wgt id='1220'> +1.3791509e-12 </wgt>
<wgt id='1221'> +1.3696864e-12 </wgt>
<wgt id='1222'> +1.3889515e-12 </wgt>
<wgt id='1223'> +1.3456734e-12 </wgt>
<wgt id='1224'> +1.3754099e-12 </wgt>
<wgt id='1225'> +1.3700316e-12 </wgt>
<wgt id='1226'> +1.3697370e-12 </wgt>
<wgt id='1227'> +1.3730740e-12 </wgt>
<wgt id='1228'> +1.3597332e-12 </wgt>
<wgt id='1229'> +1.3764624e-12 </wgt>
<wgt id='1230'> +1.3721825e-12 </wgt>
<wgt id='1231'> +1.3782944e-12 </wgt>
<wgt id='1232'> +1.3700615e-12 </wgt>
<wgt id='1233'> +1.3719145e-12 </wgt>
<wgt id='1234'> +1.3715598e-12 </wgt>
<wgt id='1235'> +1.3638648e-12 </wgt>
<wgt id='1236'> +1.3668223e-12 </wgt>
<wgt id='1237'> +1.3694863e-12 </wgt>
<wgt id='1238'> +1.3738195e-12 </wgt>
<wgt id='1239'> +1.3755393e-12 </wgt>
<wgt id='1240'> +1.3773057e-12 </wgt>
<wgt id='1241'> +1.3053746e-12 </wgt>
<wgt id='1242'> +1.2917725e-12 </wgt>
<wgt id='1243'> +1.3188213e-12 </wgt>
<wgt id='1244'> +1.3057360e-12 </wgt>
<wgt id='1245'> +1.3050609e-12 </wgt>
<wgt id='1246'> +1.3021130e-12 </wgt>
<wgt id='1247'> +1.3081474e-12 </wgt>
<wgt id='1248'> +1.3053584e-12 </wgt>
<wgt id='1249'> +1.3054174e-12 </wgt>
<wgt id='1250'> +1.3065367e-12 </wgt>
<wgt id='1251'> +1.3045488e-12 </wgt>
<wgt id='1252'> +1.3032530e-12 </wgt>
<wgt id='1253'> +1.3070218e-12 </wgt>
<wgt id='1254'> +1.3001558e-12 </wgt>
<wgt id='1255'> +1.3084422e-12 </wgt>
<wgt id='1256'> +1.3047945e-12 </wgt>
<wgt id='1257'> +1.3067463e-12 </wgt>
<wgt id='1258'> +1.3162677e-12 </wgt>
<wgt id='1259'> +1.2938535e-12 </wgt>
<wgt id='1260'> +1.3073661e-12 </wgt>
<wgt id='1261'> +1.3034342e-12 </wgt>
<wgt id='1262'> +1.3026991e-12 </wgt>
<wgt id='1263'> +1.3066778e-12 </wgt>
<wgt id='1264'> +1.3123184e-12 </wgt>
<wgt id='1265'> +1.3021796e-12 </wgt>
<wgt id='1266'> +1.2875576e-12 </wgt>
<wgt id='1267'> +1.3217314e-12 </wgt>
<wgt id='1268'> +1.3117959e-12 </wgt>
<wgt id='1269'> +1.3003427e-12 </wgt>
<wgt id='1270'> +1.3082996e-12 </wgt>
<wgt id='1271'> +1.3072767e-12 </wgt>
<wgt id='1272'> +1.3073859e-12 </wgt>
<wgt id='1273'> +1.3052581e-12 </wgt>
<wgt id='1274'> +1.3068569e-12 </wgt>
<wgt id='1275'> +1.3032720e-12 </wgt>
<wgt id='1276'> +1.3131281e-12 </wgt>
<wgt id='1277'> +1.2945249e-12 </wgt>
<wgt id='1278'> +1.3146517e-12 </wgt>
<wgt id='1279'> +1.3095481e-12 </wgt>
<wgt id='1280'> +1.3062157e-12 </wgt>
<wgt id='1281'> +1.3045307e-12 </wgt>
<wgt id='1282'> +1.3053746e-12 </wgt>
<wgt id='1283'> +1.2981446e-12 </wgt>
<wgt id='1284'> +1.3011255e-12 </wgt>
<wgt id='1285'> +1.3034426e-12 </wgt>
<wgt id='1286'> +1.3073955e-12 </wgt>
<wgt id='1287'> +1.3087757e-12 </wgt>
<wgt id='1288'> +1.3099480e-12 </wgt>
<wgt id='1289'> +1.4290671e-12 </wgt>
<wgt id='1290'> +1.4303809e-12 </wgt>
<wgt id='1291'> +1.4276288e-12 </wgt>
<wgt id='1292'> +1.4292213e-12 </wgt>
<wgt id='1293'> +1.4289634e-12 </wgt>
<wgt id='1294'> +1.4145019e-12 </wgt>
<wgt id='1295'> +1.4431566e-12 </wgt>
<wgt id='1296'> +1.4310600e-12 </wgt>
<wgt id='1297'> +1.4264940e-12 </wgt>
<wgt id='1298'> +1.4350944e-12 </wgt>
<wgt id='1299'> +1.4215117e-12 </wgt>
<wgt id='1300'> +1.4319981e-12 </wgt>
<wgt id='1301'> +1.4231931e-12 </wgt>
<wgt id='1302'> +1.4253968e-12 </wgt>
<wgt id='1303'> +1.4341478e-12 </wgt>
<wgt id='1304'> +1.4273926e-12 </wgt>
<wgt id='1305'> +1.4302108e-12 </wgt>
<wgt id='1306'> +1.4279324e-12 </wgt>
<wgt id='1307'> +1.4301886e-12 </wgt>
<wgt id='1308'> +1.4209768e-12 </wgt>
<wgt id='1309'> +1.4352477e-12 </wgt>
<wgt id='1310'> +1.4268503e-12 </wgt>
<wgt id='1311'> +1.4315749e-12 </wgt>
<wgt id='1312'> +1.4354905e-12 </wgt>
<wgt id='1313'> +1.4229312e-12 </wgt>
<wgt id='1314'> +1.4112708e-12 </wgt>
<wgt id='1315'> +1.4442732e-12 </wgt>
<wgt id='1316'> +1.4381485e-12 </wgt>
<wgt id='1317'> +1.4284449e-12 </wgt>
<wgt id='1318'> +1.4395745e-12 </wgt>
<wgt id='1319'> +1.4157167e-12 </wgt>
<wgt id='1320'> +1.4407899e-12 </wgt>
<wgt id='1321'> +1.4186621e-12 </wgt>
<wgt id='1322'> +1.4283674e-12 </wgt>
<wgt id='1323'> +1.4303815e-12 </wgt>
<wgt id='1324'> +1.4245108e-12 </wgt>
<wgt id='1325'> +1.4438210e-12 </wgt>
<wgt id='1326'> +1.4282713e-12 </wgt>
<wgt id='1327'> +1.4323432e-12 </wgt>
<wgt id='1328'> +1.4288675e-12 </wgt>
<wgt id='1329'> +1.4289225e-12 </wgt>
<wgt id='1330'> +1.4365898e-12 </wgt>
<wgt id='1331'> +1.4246505e-12 </wgt>
<wgt id='1332'> +1.4416668e-12 </wgt>
<wgt id='1333'> +1.4307197e-12 </wgt>
<wgt id='1334'> +1.4272176e-12 </wgt>
<wgt id='1335'> +1.4351323e-12 </wgt>
<wgt id='1336'> +1.4305771e-12 </wgt>
<wgt id='1337'> +1.4352382e-12 </wgt>
<wgt id='1338'> +1.4270180e-12 </wgt>
<wgt id='1339'> +1.4298459e-12 </wgt>
<wgt id='1340'> +1.3957823e-12 </wgt>
<wgt id='1341'> +1.3969293e-12 </wgt>
<wgt id='1342'> +1.3945395e-12 </wgt>
<wgt id='1343'> +1.3959710e-12 </wgt>
<wgt id='1344'> +1.3956408e-12 </wgt>
<wgt id='1345'> +1.3807290e-12 </wgt>
<wgt id='1346'> +1.4097565e-12 </wgt>
<wgt id='1347'> +1.3985346e-12 </wgt>
<wgt id='1348'> +1.3925788e-12 </wgt>
<wgt id='1349'> +1.4013719e-12 </wgt>
<wgt id='1350'> +1.3902748e-12 </wgt>
<wgt id='1351'> +1.3984921e-12 </wgt>
<wgt id='1352'> +1.3898525e-12 </wgt>
<wgt id='1353'> +1.3912091e-12 </wgt>
<wgt id='1354'> +1.4039338e-12 </wgt>
<wgt id='1355'> +1.3948643e-12 </wgt>
<wgt id='1356'> +1.3962785e-12 </wgt>
<wgt id='1357'> +1.3930828e-12 </wgt>
<wgt id='1358'> +1.3987281e-12 </wgt>
<wgt id='1359'> +1.3882405e-12 </wgt>
<wgt id='1360'> +1.4022877e-12 </wgt>
<wgt id='1361'> +1.3944733e-12 </wgt>
<wgt id='1362'> +1.3976660e-12 </wgt>
<wgt id='1363'> +1.4078466e-12 </wgt>
<wgt id='1364'> +1.3882518e-12 </wgt>
<wgt id='1365'> +1.4038422e-12 </wgt>
<wgt id='1366'> +1.3798256e-12 </wgt>
<wgt id='1367'> +1.4047199e-12 </wgt>
<wgt id='1368'> +1.3943306e-12 </wgt>
<wgt id='1369'> +1.4046367e-12 </wgt>
<wgt id='1370'> +1.3847713e-12 </wgt>
<wgt id='1371'> +1.4055650e-12 </wgt>
<wgt id='1372'> +1.3838640e-12 </wgt>
<wgt id='1373'> +1.3923860e-12 </wgt>
<wgt id='1374'> +1.3993337e-12 </wgt>
<wgt id='1375'> +1.3914041e-12 </wgt>
<wgt id='1376'> +1.4107468e-12 </wgt>
<wgt id='1377'> +1.3946286e-12 </wgt>
<wgt id='1378'> +1.3995123e-12 </wgt>
<wgt id='1379'> +1.3956764e-12 </wgt>
<wgt id='1380'> +1.3954949e-12 </wgt>
<wgt id='1381'> +1.4035855e-12 </wgt>
<wgt id='1382'> +1.3911213e-12 </wgt>
<wgt id='1383'> +1.4066968e-12 </wgt>
<wgt id='1384'> +1.3989714e-12 </wgt>
<wgt id='1385'> +1.3942370e-12 </wgt>
<wgt id='1386'> +1.4005340e-12 </wgt>
<wgt id='1387'> +1.3967147e-12 </wgt>
<wgt id='1388'> +1.4018709e-12 </wgt>
<wgt id='1389'> +1.3932985e-12 </wgt>
<wgt id='1390'> +1.3969217e-12 </wgt>
<wgt id='1391'> +1.3734327e-12 </wgt>
<wgt id='1392'> +1.3267958e-12 </wgt>
<wgt id='1393'> +1.3426233e-12 </wgt>
<wgt id='1394'> +1.3586000e-12 </wgt>
<wgt id='1395'> +1.3898066e-12 </wgt>
<wgt id='1396'> +1.3743082e-12 </wgt>
<wgt id='1397'> +1.3497767e-12 </wgt>
<wgt id='1398'> +1.3538867e-12 </wgt>
<wgt id='1399'> +1.3580211e-12 </wgt>
<wgt id='1400'> +1.3629802e-12 </wgt>
<wgt id='1401'> +1.3686101e-12 </wgt>
<wgt id='1402'> +1.3798900e-12 </wgt>
<wgt id='1403'> +1.3859011e-12 </wgt>
<wgt id='1404'> +1.3919885e-12 </wgt>
<wgt id='1405'> +1.3743082e-12 </wgt>
<wgt id='1406'> +1.3696786e-12 </wgt>
<wgt id='1407'> +1.3721079e-12 </wgt>
<wgt id='1408'> +1.3763263e-12 </wgt>
<wgt id='1409'> +1.3780751e-12 </wgt>
<wgt id='1410'> +1.2990717e-12 </wgt>
<wgt id='1411'> +1.3027194e-12 </wgt>
<wgt id='1412'> +1.2943359e-12 </wgt>
<wgt id='1413'> +1.2923364e-12 </wgt>
<wgt id='1414'> +1.3057867e-12 </wgt>
<wgt id='1415'> +1.2961337e-12 </wgt>
<wgt id='1416'> +1.3002387e-12 </wgt>
<wgt id='1417'> +1.2927082e-12 </wgt>
<wgt id='1418'> +1.3053769e-12 </wgt>
<wgt id='1419'> +1.3006715e-12 </wgt>
<wgt id='1420'> +1.2975151e-12 </wgt>
<wgt id='1421'> +1.2866298e-12 </wgt>
<wgt id='1422'> +1.3043696e-12 </wgt>
<wgt id='1423'> +1.2979565e-12 </wgt>
<wgt id='1424'> +1.3004134e-12 </wgt>
<wgt id='1425'> +1.2917620e-12 </wgt>
<wgt id='1426'> +1.3069184e-12 </wgt>
<wgt id='1427'> +1.2801066e-12 </wgt>
<wgt id='1428'> +1.3092825e-12 </wgt>
<wgt id='1429'> +1.3026441e-12 </wgt>
<wgt id='1430'> +1.2942777e-12 </wgt>
<wgt id='1431'> +1.2993849e-12 </wgt>
<wgt id='1432'> +1.2987647e-12 </wgt>
<wgt id='1433'> +1.2885004e-12 </wgt>
<wgt id='1434'> +1.3067378e-12 </wgt>
<wgt id='1435'> +1.2924776e-12 </wgt>
<wgt id='1436'> +1.3155829e-12 </wgt>
<wgt id='1437'> +1.3073096e-12 </wgt>
<wgt id='1438'> +1.2997857e-12 </wgt>
<wgt id='1439'> +1.2934278e-12 </wgt>
<wgt id='1440'> +1.3087552e-12 </wgt>
<wgt id='1441'> +1.3017124e-12 </wgt>
<wgt id='1442'> +1.2944780e-12 </wgt>
<wgt id='1443'> +1.2957874e-12 </wgt>
<wgt id='1444'> +1.3084144e-12 </wgt>
<wgt id='1445'> +1.3172260e-12 </wgt>
<wgt id='1446'> +1.2930787e-12 </wgt>
<wgt id='1447'> +1.2993813e-12 </wgt>
<wgt id='1448'> +1.3028930e-12 </wgt>
<wgt id='1449'> +1.2994927e-12 </wgt>
<wgt id='1450'> +1.2982131e-12 </wgt>
<wgt id='1451'> +1.2970071e-12 </wgt>
<wgt id='1452'> +1.3066932e-12 </wgt>
<wgt id='1453'> +1.2995666e-12 </wgt>
<wgt id='1454'> +1.2941167e-12 </wgt>
<wgt id='1455'> +1.3069243e-12 </wgt>
<wgt id='1456'> +1.3048476e-12 </wgt>
<wgt id='1457'> +1.3046881e-12 </wgt>
<wgt id='1458'> +1.2979457e-12 </wgt>
<wgt id='1459'> +1.3038275e-12 </wgt>
<wgt id='1460'> +1.3063815e-12 </wgt>
<wgt id='1461'> +1.2990717e-12 </wgt>
<wgt id='1462'> +1.2868292e-12 </wgt>
<wgt id='1463'> +1.3069142e-12 </wgt>
<wgt id='1464'> +1.2967346e-12 </wgt>
<wgt id='1465'> +1.2699861e-12 </wgt>
<wgt id='1466'> +1.2747109e-12 </wgt>
<wgt id='1467'> +1.2799661e-12 </wgt>
<wgt id='1468'> +1.2865865e-12 </wgt>
<wgt id='1469'> +1.2912251e-12 </wgt>
<wgt id='1470'> +1.3025325e-12 </wgt>
<wgt id='1471'> +1.3076830e-12 </wgt>
<wgt id='1472'> +1.3132478e-12 </wgt>
<wgt id='1473'> +1.2967346e-12 </wgt>
<wgt id='1474'> +1.2927847e-12 </wgt>
<wgt id='1475'> +1.2950970e-12 </wgt>
<wgt id='1476'> +1.2982534e-12 </wgt>
<wgt id='1477'> +1.2995833e-12 </wgt>
<wgt id='1478'> +1.3371563e-12 </wgt>
<wgt id='1479'> +1.3365968e-12 </wgt>
<wgt id='1480'> +1.3230844e-12 </wgt>
<wgt id='1481'> +1.3539745e-12 </wgt>
<wgt id='1482'> +1.3376435e-12 </wgt>
<wgt id='1483'> +1.3226802e-12 </wgt>
<wgt id='1484'> +1.3309743e-12 </wgt>
<wgt id='1485'> +1.3406332e-12 </wgt>
<wgt id='1486'> +1.3371245e-12 </wgt>
<wgt id='1487'> +1.3446100e-12 </wgt>
<wgt id='1488'> +1.3342911e-12 </wgt>
<wgt id='1489'> +1.3406318e-12 </wgt>
<wgt id='1490'> +1.3329052e-12 </wgt>
<wgt id='1491'> +1.3417718e-12 </wgt>
<wgt id='1492'> +1.3393790e-12 </wgt>
<wgt id='1493'> +1.3187069e-12 </wgt>
<wgt id='1494'> +1.3350122e-12 </wgt>
<wgt id='1495'> +1.3204142e-12 </wgt>
<wgt id='1496'> +1.3373353e-12 </wgt>
<wgt id='1497'> +1.3387379e-12 </wgt>
<wgt id='1498'> +1.3370415e-12 </wgt>
<wgt id='1499'> +1.3394430e-12 </wgt>
<wgt id='1500'> +1.3365716e-12 </wgt>
<wgt id='1501'> +1.3376300e-12 </wgt>
<wgt id='1502'> +1.3385491e-12 </wgt>
<wgt id='1503'> +1.3413890e-12 </wgt>
<wgt id='1504'> +1.3348206e-12 </wgt>
<wgt id='1505'> +1.3387477e-12 </wgt>
<wgt id='1506'> +1.3378662e-12 </wgt>
<wgt id='1507'> +1.3370019e-12 </wgt>
<wgt id='1508'> +1.3416854e-12 </wgt>
<wgt id='1509'> +1.3191311e-12 </wgt>
<wgt id='1510'> +1.3222001e-12 </wgt>
<wgt id='1511'> +1.3064376e-12 </wgt>
<wgt id='1512'> +1.3089995e-12 </wgt>
<wgt id='1513'> +1.3189139e-12 </wgt>
<wgt id='1514'> +1.3248867e-12 </wgt>
<wgt id='1515'> +1.3223032e-12 </wgt>
<wgt id='1516'> +1.3240522e-12 </wgt>
<wgt id='1517'> +1.3207273e-12 </wgt>
<wgt id='1518'> +1.3195915e-12 </wgt>
<wgt id='1519'> +1.3176219e-12 </wgt>
<wgt id='1520'> +1.3193339e-12 </wgt>
<wgt id='1521'> +1.3203019e-12 </wgt>
<wgt id='1522'> +1.3205233e-12 </wgt>
<wgt id='1523'> +1.3226364e-12 </wgt>
<wgt id='1524'> +1.3190701e-12 </wgt>
<wgt id='1525'> +1.3210535e-12 </wgt>
<wgt id='1526'> +1.3187750e-12 </wgt>
<wgt id='1527'> +1.3181729e-12 </wgt>
<wgt id='1528'> +1.3200105e-12 </wgt>
<wgt id='1529'> +1.3187383e-12 </wgt>
<wgt id='1530'> +1.3221406e-12 </wgt>
<wgt id='1531'> +1.3207777e-12 </wgt>
<wgt id='1532'> +1.3143844e-12 </wgt>
<wgt id='1533'> +1.3192323e-12 </wgt>
<wgt id='1534'> +1.3199966e-12 </wgt>
<wgt id='1535'> +1.3127139e-12 </wgt>
<wgt id='1536'> +1.3201831e-12 </wgt>
<wgt id='1537'> +1.3195075e-12 </wgt>
<wgt id='1538'> +1.3118972e-12 </wgt>
<wgt id='1539'> +1.3235947e-12 </wgt>
<wgt id='1540'> +1.3195920e-12 </wgt>
<wgt id='1541'> +1.3170019e-12 </wgt>
<wgt id='1542'> +1.3173587e-12 </wgt>
<wgt id='1543'> +1.3197299e-12 </wgt>
<wgt id='1544'> +1.3193337e-12 </wgt>
<wgt id='1545'> +1.3173418e-12 </wgt>
<wgt id='1546'> +1.3165054e-12 </wgt>
<wgt id='1547'> +1.3186795e-12 </wgt>
<wgt id='1548'> +1.3194402e-12 </wgt>
<wgt id='1549'> +1.3177168e-12 </wgt>
<wgt id='1550'> +1.3195080e-12 </wgt>
<wgt id='1551'> +1.3204165e-12 </wgt>
<wgt id='1552'> +1.3205867e-12 </wgt>
<wgt id='1553'> +1.3186880e-12 </wgt>
<wgt id='1554'> +1.3181935e-12 </wgt>
<wgt id='1555'> +1.3203784e-12 </wgt>
<wgt id='1556'> +1.3215613e-12 </wgt>
<wgt id='1557'> +1.3187250e-12 </wgt>
<wgt id='1558'> +1.3171034e-12 </wgt>
<wgt id='1559'> +1.3161315e-12 </wgt>
<wgt id='1560'> +1.3192231e-12 </wgt>
<wgt id='1561'> +1.3180208e-12 </wgt>
<wgt id='1562'> +1.3194942e-12 </wgt>
<wgt id='1563'> +1.3189415e-12 </wgt>
<wgt id='1564'> +1.3192147e-12 </wgt>
<wgt id='1565'> +1.3194668e-12 </wgt>
<wgt id='1566'> +1.3198258e-12 </wgt>
<wgt id='1567'> +1.3208485e-12 </wgt>
<wgt id='1568'> +1.3177977e-12 </wgt>
<wgt id='1569'> +1.3205638e-12 </wgt>
<wgt id='1570'> +1.3197215e-12 </wgt>
<wgt id='1571'> +1.3188559e-12 </wgt>
<wgt id='1572'> +1.3193066e-12 </wgt>
<wgt id='1573'> +1.3199768e-12 </wgt>
<wgt id='1574'> +1.3197240e-12 </wgt>
<wgt id='1575'> +1.3178659e-12 </wgt>
<wgt id='1576'> +1.3192074e-12 </wgt>
<wgt id='1577'> +1.3194404e-12 </wgt>
<wgt id='1578'> +1.3205990e-12 </wgt>
<wgt id='1579'> +1.3180371e-12 </wgt>
<wgt id='1580'> +1.3184719e-12 </wgt>
<wgt id='1581'> +1.3191484e-12 </wgt>
<wgt id='1582'> +1.3215986e-12 </wgt>
<wgt id='1583'> +1.3186807e-12 </wgt>
<wgt id='1584'> +1.3204419e-12 </wgt>
<wgt id='1585'> +1.3198121e-12 </wgt>
<wgt id='1586'> +1.3185904e-12 </wgt>
<wgt id='1587'> +1.3190542e-12 </wgt>
<wgt id='1588'> +1.3191006e-12 </wgt>
<wgt id='1589'> +1.3191331e-12 </wgt>
<wgt id='1590'> +1.3197057e-12 </wgt>
<wgt id='1591'> +1.3196199e-12 </wgt>
<wgt id='1592'> +1.3192318e-12 </wgt>
<wgt id='1593'> +1.3197238e-12 </wgt>
<wgt id='1594'> +1.3191674e-12 </wgt>
<wgt id='1595'> +1.3195837e-12 </wgt>
<wgt id='1596'> +1.3186090e-12 </wgt>
<wgt id='1597'> +1.3201390e-12 </wgt>
<wgt id='1598'> +1.3183375e-12 </wgt>
<wgt id='1599'> +1.3175513e-12 </wgt>
<wgt id='1600'> +1.3182838e-12 </wgt>
<wgt id='1601'> +1.3193806e-12 </wgt>
<wgt id='1602'> +1.3198987e-12 </wgt>
<wgt id='1603'> +1.3188229e-12 </wgt>
<wgt id='1604'> +1.3190822e-12 </wgt>
<wgt id='1605'> +1.3190149e-12 </wgt>
<wgt id='1606'> +1.3191786e-12 </wgt>
<wgt id='1607'> +1.3185143e-12 </wgt>
<wgt id='1608'> +1.3192602e-12 </wgt>
<wgt id='1609'> +1.3196420e-12 </wgt>
<wgt id='1610'> +1.3035528e-12 </wgt>
<wgt id='1611'> +1.3342693e-12 </wgt>
<wgt id='1612'> +1.5405603e-12 </wgt>
<wgt id='1613'> +1.5074273e-12 </wgt>
<wgt id='1614'> +1.4983230e-12 </wgt>
<wgt id='1615'> +1.5338705e-12 </wgt>
<wgt id='1616'> +1.4978546e-12 </wgt>
<wgt id='1617'> +1.5343551e-12 </wgt>
<wgt id='1618'> +1.5594231e-12 </wgt>
<wgt id='1619'> +1.5376447e-12 </wgt>
<wgt id='1620'> +1.5063736e-12 </wgt>
<wgt id='1621'> +1.5617727e-12 </wgt>
<wgt id='1622'> +1.5432135e-12 </wgt>
<wgt id='1623'> +1.5258136e-12 </wgt>
<wgt id='1624'> +1.5633052e-12 </wgt>
<wgt id='1625'> +1.5044285e-12 </wgt>
<wgt id='1626'> +1.5144164e-12 </wgt>
<wgt id='1627'> +1.5552666e-12 </wgt>
<wgt id='1628'> +1.4947767e-12 </wgt>
<wgt id='1629'> +1.5755618e-12 </wgt>
<wgt id='1630'> +1.5026318e-12 </wgt>
<wgt id='1631'> +1.5286021e-12 </wgt>
<wgt id='1632'> +1.4813318e-12 </wgt>
<wgt id='1633'> +1.4934984e-12 </wgt>
<wgt id='1634'> +1.5391377e-12 </wgt>
<wgt id='1635'> +1.5718944e-12 </wgt>
<wgt id='1636'> +1.5678419e-12 </wgt>
<wgt id='1637'> +1.5652751e-12 </wgt>
<wgt id='1638'> +1.5596043e-12 </wgt>
<wgt id='1639'> +1.5094695e-12 </wgt>
<wgt id='1640'> +1.5479191e-12 </wgt>
<wgt id='1641'> +1.5362176e-12 </wgt>
<wgt id='1642'> +1.5059778e-12 </wgt>
<wgt id='1643'> +1.5099963e-12 </wgt>
<wgt id='1644'> +1.5621911e-12 </wgt>
<wgt id='1645'> +1.5294672e-12 </wgt>
<wgt id='1646'> +1.5348418e-12 </wgt>
<wgt id='1647'> +1.5474718e-12 </wgt>
<wgt id='1648'> +1.5620301e-12 </wgt>
<wgt id='1649'> +1.6080075e-12 </wgt>
<wgt id='1650'> +1.5265675e-12 </wgt>
<wgt id='1651'> +1.5445043e-12 </wgt>
<wgt id='1652'> +1.5066434e-12 </wgt>
<wgt id='1653'> +1.5647054e-12 </wgt>
<wgt id='1654'> +1.5467632e-12 </wgt>
<wgt id='1655'> +1.5684741e-12 </wgt>
<wgt id='1656'> +1.5361136e-12 </wgt>
<wgt id='1657'> +1.5413099e-12 </wgt>
<wgt id='1658'> +1.5105640e-12 </wgt>
<wgt id='1659'> +1.5633052e-12 </wgt>
<wgt id='1660'> +1.5696704e-12 </wgt>
<wgt id='1661'> +1.5561479e-12 </wgt>
<wgt id='1662'> +1.5967966e-12 </wgt>
<wgt id='1663'> +1.5252274e-12 </wgt>
<wgt id='1664'> +1.5308036e-12 </wgt>
<wgt id='1665'> +1.4728522e-12 </wgt>
<wgt id='1666'> +1.5560204e-12 </wgt>
<wgt id='1667'> +1.5292482e-12 </wgt>
<wgt id='1668'> +1.5788084e-12 </wgt>
<wgt id='1669'> +1.5610903e-12 </wgt>
<wgt id='1670'> +1.5380724e-12 </wgt>
<wgt id='1671'> +1.5357259e-12 </wgt>
<wgt id='1672'> +1.5734229e-12 </wgt>
<wgt id='1673'> +1.5294678e-12 </wgt>
<wgt id='1674'> +1.4906003e-12 </wgt>
<wgt id='1675'> +1.5402860e-12 </wgt>
<wgt id='1676'> +1.5333754e-12 </wgt>
<wgt id='1677'> +1.5590831e-12 </wgt>
<wgt id='1678'> +1.5201020e-12 </wgt>
<wgt id='1679'> +1.5346409e-12 </wgt>
<wgt id='1680'> +1.5816569e-12 </wgt>
<wgt id='1681'> +1.5696999e-12 </wgt>
<wgt id='1682'> +1.5312015e-12 </wgt>
<wgt id='1683'> +1.5160368e-12 </wgt>
<wgt id='1684'> +1.5714619e-12 </wgt>
<wgt id='1685'> +1.5312099e-12 </wgt>
<wgt id='1686'> +1.5320964e-12 </wgt>
<wgt id='1687'> +1.5587585e-12 </wgt>
<wgt id='1688'> +1.5361307e-12 </wgt>
<wgt id='1689'> +1.5938733e-12 </wgt>
<wgt id='1690'> +1.5380863e-12 </wgt>
<wgt id='1691'> +1.5165065e-12 </wgt>
<wgt id='1692'> +1.5899665e-12 </wgt>
<wgt id='1693'> +1.5347383e-12 </wgt>
<wgt id='1694'> +1.5412685e-12 </wgt>
<wgt id='1695'> +1.5666157e-12 </wgt>
<wgt id='1696'> +1.5360479e-12 </wgt>
<wgt id='1697'> +1.5274132e-12 </wgt>
<wgt id='1698'> +1.5520245e-12 </wgt>
<wgt id='1699'> +1.5441553e-12 </wgt>
<wgt id='1700'> +1.5213098e-12 </wgt>
<wgt id='1701'> +1.5939312e-12 </wgt>
<wgt id='1702'> +1.5053265e-12 </wgt>
<wgt id='1703'> +1.5285164e-12 </wgt>
<wgt id='1704'> +1.5276278e-12 </wgt>
<wgt id='1705'> +1.4722279e-12 </wgt>
<wgt id='1706'> +1.5788664e-12 </wgt>
<wgt id='1707'> +1.5449398e-12 </wgt>
<wgt id='1708'> +1.5820901e-12 </wgt>
<wgt id='1709'> +1.5816794e-12 </wgt>
<wgt id='1710'> +1.5254059e-12 </wgt>
<wgt id='1711'> +1.5357076e-12 </wgt>
<wgt id='1712'> +1.5702511e-12 </wgt>
<wgt id='1713'> +1.2956562e-12 </wgt>
<wgt id='1714'> +1.2846413e-12 </wgt>
<wgt id='1715'> +1.2678552e-12 </wgt>
<wgt id='1716'> +1.3270866e-12 </wgt>
<wgt id='1717'> +1.3031877e-12 </wgt>
<wgt id='1718'> +1.3112429e-12 </wgt>
<wgt id='1719'> +1.3052119e-12 </wgt>
<wgt id='1720'> +1.2688924e-12 </wgt>
<wgt id='1721'> +1.2726444e-12 </wgt>
<wgt id='1722'> +1.2859911e-12 </wgt>
<wgt id='1723'> +1.3307013e-12 </wgt>
<wgt id='1724'> +1.3195887e-12 </wgt>
<wgt id='1725'> +1.2966404e-12 </wgt>
<wgt id='1726'> +1.2912739e-12 </wgt>
<wgt id='1727'> +1.3416980e-12 </wgt>
<wgt id='1728'> +1.2870737e-12 </wgt>
<wgt id='1729'> +1.2450944e-12 </wgt>
<wgt id='1730'> +1.2877967e-12 </wgt>
<wgt id='1731'> +1.2314913e-12 </wgt>
<wgt id='1732'> +1.3069794e-12 </wgt>
<wgt id='1733'> +1.2315962e-12 </wgt>
<wgt id='1734'> +1.3565460e-12 </wgt>
<wgt id='1735'> +1.2772751e-12 </wgt>
<wgt id='1736'> +1.3233798e-12 </wgt>
<wgt id='1737'> +1.3372822e-12 </wgt>
<wgt id='1738'> +1.2900676e-12 </wgt>
<wgt id='1739'> +1.2944233e-12 </wgt>
<wgt id='1740'> +1.2236171e-12 </wgt>
<wgt id='1741'> +1.3434032e-12 </wgt>
<wgt id='1742'> +1.2765189e-12 </wgt>
<wgt id='1743'> +1.2641249e-12 </wgt>
<wgt id='1744'> +1.3119679e-12 </wgt>
<wgt id='1745'> +1.3143144e-12 </wgt>
<wgt id='1746'> +1.2811433e-12 </wgt>
<wgt id='1747'> +1.3394520e-12 </wgt>
<wgt id='1748'> +1.2746401e-12 </wgt>
<wgt id='1749'> +1.2796741e-12 </wgt>
<wgt id='1750'> +1.2737798e-12 </wgt>
<wgt id='1751'> +1.2687518e-12 </wgt>
<wgt id='1752'> +1.2835878e-12 </wgt>
<wgt id='1753'> +1.3087679e-12 </wgt>
<wgt id='1754'> +1.3222793e-12 </wgt>
<wgt id='1755'> +1.3043879e-12 </wgt>
<wgt id='1756'> +1.3142877e-12 </wgt>
<wgt id='1757'> +1.3066069e-12 </wgt>
<wgt id='1758'> +1.3488408e-12 </wgt>
<wgt id='1759'> +1.3106424e-12 </wgt>
<wgt id='1760'> +1.2866027e-12 </wgt>
<wgt id='1761'> +1.2978144e-12 </wgt>
<wgt id='1762'> +1.2639687e-12 </wgt>
<wgt id='1763'> +1.3160218e-12 </wgt>
<wgt id='1764'> +1.3254912e-12 </wgt>
<wgt id='1765'> +1.2732509e-12 </wgt>
<wgt id='1766'> +1.3301926e-12 </wgt>
<wgt id='1767'> +1.3065844e-12 </wgt>
<wgt id='1768'> +1.3127100e-12 </wgt>
<wgt id='1769'> +1.3097252e-12 </wgt>
<wgt id='1770'> +1.2759648e-12 </wgt>
<wgt id='1771'> +1.3406994e-12 </wgt>
<wgt id='1772'> +1.2937402e-12 </wgt>
<wgt id='1773'> +1.2924373e-12 </wgt>
<wgt id='1774'> +1.2714782e-12 </wgt>
<wgt id='1775'> +1.2942617e-12 </wgt>
<wgt id='1776'> +1.3487458e-12 </wgt>
<wgt id='1777'> +1.2454209e-12 </wgt>
<wgt id='1778'> +1.2970988e-12 </wgt>
<wgt id='1779'> +1.2874979e-12 </wgt>
<wgt id='1780'> +1.3016185e-12 </wgt>
<wgt id='1781'> +1.3144388e-12 </wgt>
<wgt id='1782'> +1.2822970e-12 </wgt>
<wgt id='1783'> +1.3012663e-12 </wgt>
<wgt id='1784'> +1.2939997e-12 </wgt>
<wgt id='1785'> +1.3016260e-12 </wgt>
<wgt id='1786'> +1.2987389e-12 </wgt>
<wgt id='1787'> +1.3631547e-12 </wgt>
<wgt id='1788'> +1.2951355e-12 </wgt>
<wgt id='1789'> +1.3583132e-12 </wgt>
<wgt id='1790'> +1.3070046e-12 </wgt>
<wgt id='1791'> +1.2840453e-12 </wgt>
<wgt id='1792'> +1.2698789e-12 </wgt>
<wgt id='1793'> +1.2822076e-12 </wgt>
<wgt id='1794'> +1.3322325e-12 </wgt>
<wgt id='1795'> +1.3043480e-12 </wgt>
<wgt id='1796'> +1.2688108e-12 </wgt>
<wgt id='1797'> +1.3047179e-12 </wgt>
<wgt id='1798'> +1.2882404e-12 </wgt>
<wgt id='1799'> +1.2964569e-12 </wgt>
<wgt id='1800'> +1.3118294e-12 </wgt>
<wgt id='1801'> +1.2944306e-12 </wgt>
<wgt id='1802'> +1.2753416e-12 </wgt>
<wgt id='1803'> +1.3196121e-12 </wgt>
<wgt id='1804'> +1.2928867e-12 </wgt>
<wgt id='1805'> +1.2582046e-12 </wgt>
<wgt id='1806'> +1.2672431e-12 </wgt>
<wgt id='1807'> +1.2933346e-12 </wgt>
<wgt id='1808'> +1.2681603e-12 </wgt>
<wgt id='1809'> +1.2854395e-12 </wgt>
<wgt id='1810'> +1.2771112e-12 </wgt>
<wgt id='1811'> +1.2959056e-12 </wgt>
<wgt id='1812'> +1.2714018e-12 </wgt>
<wgt id='1813'> +1.2189940e-12 </wgt>
<wgt id='1814'> +1.6180825e-12 </wgt>
<wgt id='1815'> +1.9448990e-12 </wgt>
<wgt id='1816'> +1.2956562e-12 </wgt>
<wgt id='1817'> +1.2846413e-12 </wgt>
<wgt id='1818'> +1.2678552e-12 </wgt>
<wgt id='1819'> +1.3270866e-12 </wgt>
<wgt id='1820'> +1.3031877e-12 </wgt>
<wgt id='1821'> +1.3112429e-12 </wgt>
<wgt id='1822'> +1.3052119e-12 </wgt>
<wgt id='1823'> +1.2688924e-12 </wgt>
<wgt id='1824'> +1.2726444e-12 </wgt>
<wgt id='1825'> +1.2859911e-12 </wgt>
<wgt id='1826'> +1.3307013e-12 </wgt>
<wgt id='1827'> +1.3195887e-12 </wgt>
<wgt id='1828'> +1.2966404e-12 </wgt>
<wgt id='1829'> +1.2912739e-12 </wgt>
<wgt id='1830'> +1.3416980e-12 </wgt>
<wgt id='1831'> +1.2870737e-12 </wgt>
<wgt id='1832'> +1.2450944e-12 </wgt>
<wgt id='1833'> +1.2877967e-12 </wgt>
<wgt id='1834'> +1.2314913e-12 </wgt>
<wgt id='1835'> +1.3069794e-12 </wgt>
<wgt id='1836'> +1.2315962e-12 </wgt>
<wgt id='1837'> +1.3565460e-12 </wgt>
<wgt id='1838'> +1.2772751e-12 </wgt>
<wgt id='1839'> +1.3233798e-12 </wgt>
<wgt id='1840'> +1.3372822e-12 </wgt>
<wgt id='1841'> +1.2900676e-12 </wgt>
<wgt id='1842'> +1.2944233e-12 </wgt>
<wgt id='1843'> +1.2236171e-12 </wgt>
<wgt id='1844'> +1.3434032e-12 </wgt>
<wgt id='1845'> +1.2765189e-12 </wgt>
<wgt id='1846'> +1.2641249e-12 </wgt>
<wgt id='1847'> +1.3119679e-12 </wgt>
<wgt id='1848'> +1.3143144e-12 </wgt>
<wgt id='1849'> +1.2811433e-12 </wgt>
<wgt id='1850'> +1.3394520e-12 </wgt>
<wgt id='1851'> +1.2746401e-12 </wgt>
<wgt id='1852'> +1.2796741e-12 </wgt>
<wgt id='1853'> +1.2737798e-12 </wgt>
<wgt id='1854'> +1.2687518e-12 </wgt>
<wgt id='1855'> +1.2835878e-12 </wgt>
<wgt id='1856'> +1.3087679e-12 </wgt>
<wgt id='1857'> +1.3222793e-12 </wgt>
<wgt id='1858'> +1.3043879e-12 </wgt>
<wgt id='1859'> +1.3142877e-12 </wgt>
<wgt id='1860'> +1.3066069e-12 </wgt>
<wgt id='1861'> +1.3488408e-12 </wgt>
<wgt id='1862'> +1.3106424e-12 </wgt>
<wgt id='1863'> +1.2866027e-12 </wgt>
<wgt id='1864'> +1.2978144e-12 </wgt>
<wgt id='1865'> +1.2639687e-12 </wgt>
<wgt id='1866'> +1.3160218e-12 </wgt>
<wgt id='1867'> +1.3254912e-12 </wgt>
<wgt id='1868'> +1.2732509e-12 </wgt>
<wgt id='1869'> +1.3301926e-12 </wgt>
<wgt id='1870'> +1.3065844e-12 </wgt>
<wgt id='1871'> +1.3127100e-12 </wgt>
<wgt id='1872'> +1.3097252e-12 </wgt>
<wgt id='1873'> +1.2759648e-12 </wgt>
<wgt id='1874'> +1.3406994e-12 </wgt>
<wgt id='1875'> +1.2937402e-12 </wgt>
<wgt id='1876'> +1.2924373e-12 </wgt>
<wgt id='1877'> +1.2714782e-12 </wgt>
<wgt id='1878'> +1.2942617e-12 </wgt>
<wgt id='1879'> +1.3487458e-12 </wgt>
<wgt id='1880'> +1.2454209e-12 </wgt>
<wgt id='1881'> +1.2970988e-12 </wgt>
<wgt id='1882'> +1.2874979e-12 </wgt>
<wgt id='1883'> +1.3016185e-12 </wgt>
<wgt id='1884'> +1.3144388e-12 </wgt>
<wgt id='1885'> +1.2822970e-12 </wgt>
<wgt id='1886'> +1.3012663e-12 </wgt>
<wgt id='1887'> +1.2939997e-12 </wgt>
<wgt id='1888'> +1.3016260e-12 </wgt>
<wgt id='1889'> +1.2987389e-12 </wgt>
<wgt id='1890'> +1.3631547e-12 </wgt>
<wgt id='1891'> +1.2951355e-12 </wgt>
<wgt id='1892'> +1.3583132e-12 </wgt>
<wgt id='1893'> +1.3070046e-12 </wgt>
<wgt id='1894'> +1.2840453e-12 </wgt>
<wgt id='1895'> +1.2698789e-12 </wgt>
<wgt id='1896'> +1.2822076e-12 </wgt>
<wgt id='1897'> +1.3322325e-12 </wgt>
<wgt id='1898'> +1.3043480e-12 </wgt>
<wgt id='1899'> +1.2688108e-12 </wgt>
<wgt id='1900'> +1.3047179e-12 </wgt>
<wgt id='1901'> +1.2882404e-12 </wgt>
<wgt id='1902'> +1.2964569e-12 </wgt>
<wgt id='1903'> +1.3118294e-12 </wgt>
<wgt id='1904'> +1.2944306e-12 </wgt>
<wgt id='1905'> +1.2753416e-12 </wgt>
<wgt id='1906'> +1.3196121e-12 </wgt>
<wgt id='1907'> +1.2928867e-12 </wgt>
<wgt id='1908'> +1.2582046e-12 </wgt>
<wgt id='1909'> +1.2672431e-12 </wgt>
<wgt id='1910'> +1.2933346e-12 </wgt>
<wgt id='1911'> +1.2681603e-12 </wgt>
<wgt id='1912'> +1.2854395e-12 </wgt>
<wgt id='1913'> +1.2771112e-12 </wgt>
<wgt id='1914'> +1.2959056e-12 </wgt>
<wgt id='1915'> +1.2714018e-12 </wgt>
<wgt id='1916'> +1.2189940e-12 </wgt>
<wgt id='1917'> +1.2851602e-12 </wgt>
<wgt id='1918'> +1.3090494e-12 </wgt>
<wgt id='1919'> +1.2676524e-12 </wgt>
</rwgt>
</event>
<event>
 9      1 +1.5607000e-12 6.95093700e+01 7.81860800e-03 1.23587800e-01
        2 -1    0    0  502    0 -0.0000000000e+00 +0.0000000000e+00 +1.1036669157e+03 1.1036669157e+03 0.0000000000e+00 0.0000e+00 1.0000e+00
       21 -1    0    0  501  502 +0.0000000000e+00 -0.0000000000e+00 -1.0944318701e+00 1.0944318701e+00 0.0000000000e+00 0.0000e+00 1.0000e+00
     1023  2    1    2    0    0 +3.4713466112e+00 +3.2151539085e+01 +4.6208076878e+02 4.6345377022e+02 1.4999618208e+01 0.0000e+00 0.0000e+00
  1000023  2    3    3    0    0 +5.2250469366e+00 +2.7719677223e+01 +3.7393084433e+02 3.7503360259e+02 5.4995552411e+00 0.0000e+00 0.0000e+00
        2  1    1    2  501    0 -3.4713466112e+00 -3.2151539085e+01 +6.4049171504e+02 6.4130757733e+02 0.0000000000e+00 0.0000e+00 1.0000e+00
  1000022  1    4    4    0    0 +4.5907871421e+00 +2.4029653092e+01 +3.2043381589e+02 3.2140524252e+02 5.0000000000e+00 0.0000e+00 1.0000e+00
      -13  1    4    4    0    0 +3.8080519389e-01 +2.3066720638e+00 +3.3090686330e+01 3.3173339339e+01 1.0570000000e-01 0.0000e+00 -1.0000e+00
       13  1    4    4    0    0 +2.5345460069e-01 +1.3833520670e+00 +2.0406342111e+01 2.0455020729e+01 1.0570000000e-01 0.0000e+00 1.0000e+00
  1000022  1    3    3    0    0 -1.7537003255e+00 +4.4318618628e+00 +8.8149924444e+01 8.8420167631e+01 5.0000000000e+00 0.0000e+00 -1.0000e+00
<mgrwt>
<rscale>  1 0.69509373E+02</rscale>
<asrwt>0</asrwt>
<pdfrwt beam="1">  1       21 0.16837502E-03 0.69509373E+02</pdfrwt>
<pdfrwt beam="2">  1        2 0.16979402E+00 0.69509373E+02</pdfrwt>
<totfact> 0.12671424E+07</totfact>
</mgrwt>
<rwgt>
<wgt id='1001'> +1.5607000e-12 </wgt>
<wgt id='1002'> +1.5576302e-12 </wgt>
<wgt id='1003'> +1.5596278e-12 </wgt>
<wgt id='1004'> +1.5031241e-12 </wgt>
<wgt id='1005'> +1.5607000e-12 </wgt>
<wgt id='1006'> +1.3927442e-12 </wgt>
<wgt id='1007'> +1.3882718e-12 </wgt>
<wgt id='1008'> +1.3911643e-12 </wgt>
<wgt id='1009'> +1.3196791e-12 </wgt>
<wgt id='1010'> +1.3927442e-12 </wgt>
<wgt id='1011'> +1.7766139e-12 </wgt>
<wgt id='1012'> +1.7760096e-12 </wgt>
<wgt id='1013'> +1.7764274e-12 </wgt>
<wgt id='1014'> +1.7486747e-12 </wgt>
<wgt id='1015'> +1.7766139e-12 </wgt>
<wgt id='1016'> +1.7671871e-12 </wgt>
<wgt id='1017'> +1.7689939e-12 </wgt>
<wgt id='1018'> +1.7678660e-12 </wgt>
<wgt id='1019'> +1.7764274e-12 </wgt>
<wgt id='1020'> +1.7671871e-12 </wgt>
<wgt id='1021'> +1.5770101e-12 </wgt>
<wgt id='1022'> +1.5766544e-12 </wgt>
<wgt id='1023'> +1.5769096e-12 </wgt>
<wgt id='1024'> +1.5596278e-12 </wgt>
<wgt id='1025'> +1.5770101e-12 </wgt>
<wgt id='1026'> +2.0116673e-12 </wgt>
<wgt id='1027'> +2.0170065e-12 </wgt>
<wgt id='1028'> +2.0136122e-12 </wgt>
<wgt id='1029'> +2.0666249e-12 </wgt>
<wgt id='1030'> +2.0116673e-12 </wgt>
<wgt id='1031'> +1.3227752e-12 </wgt>
<wgt id='1032'> +1.3140453e-12 </wgt>
<wgt id='1033'> +1.3196791e-12 </wgt>
<wgt id='1034'> +1.1903860e-12 </wgt>
<wgt id='1035'> +1.3227752e-12 </wgt>
<wgt id='1036'> +1.1804238e-12 </wgt>
<wgt id='1037'> +1.1711715e-12 </wgt>
<wgt id='1038'> +1.1771337e-12 </wgt>
<wgt id='1039'> +1.0451083e-12 </wgt>
<wgt id='1040'> +1.1804238e-12 </wgt>
<wgt id='1041'> +1.5057735e-12 </wgt>
<wgt id='1042'> +1.4982742e-12 </wgt>
<wgt id='1043'> +1.5031241e-12 </wgt>
<wgt id='1044'> +1.3848476e-12 </wgt>
<wgt id='1045'> +1.5057735e-12 </wgt>
<wgt id='1046'> +1.5607000e-12 </wgt>
<wgt id='1047'> +1.5617246e-12 </wgt>
<wgt id='1048'> +1.6176857e-12 </wgt>
<wgt id='1049'> +1.5231658e-12 </wgt>
<wgt id='1050'> +1.5451821e-12 </wgt>
<wgt id='1051'> +1.5322976e-12 </wgt>
<wgt id='1052'> +1.5348768e-12 </wgt>
<wgt id='1053'> +1.6221770e-12 </wgt>
<wgt id='1054'> +1.5989641e-12 </wgt>
<wgt id='1055'> +1.5381486e-12 </wgt>
<wgt id='1056'> +1.4595493e-12 </wgt>
<wgt id='1057'> +1.5535417e-12 </wgt>
<wgt id='1058'> +1.5299734e-12 </wgt>
<wgt id='1059'> +1.5631449e-12 </wgt>
<wgt id='1060'> +1.5857349e-12 </wgt>
<wgt id='1061'> +1.5908441e-12 </wgt>
<wgt id='1062'> +1.5383243e-12 </wgt>
<wgt id='1063'> +1.4967766e-12 </wgt>
<wgt id='1064'> +1.5674674e-12 </wgt>
<wgt id='1065'> +1.5927706e-12 </wgt>
<wgt id='1066'> +1.5588320e-12 </wgt>
<wgt id='1067'> +1.6052387e-12 </wgt>
<wgt id='1068'> +1.6191061e-12 </wgt>
<wgt id='1069'> +1.6162802e-12 </wgt>
<wgt id='1070'> +1.5512140e-12 </wgt>
<wgt id='1071'> +1.5777360e-12 </wgt>
<wgt id='1072'> +1.5848105e-12 </wgt>
<wgt id='1073'> +1.5187950e-12 </wgt>
<wgt id='1074'> +1.5723869e-12 </wgt>
<wgt id='1075'> +1.5289293e-12 </wgt>
<wgt id='1076'> +1.5545366e-12 </wgt>
<wgt id='1077'> +1.5649505e-12 </wgt>
<wgt id='1078'> +1.5547993e-12 </wgt>
<wgt id='1079'> +1.5732718e-12 </wgt>
<wgt id='1080'> +1.5375944e-12 </wgt>
<wgt id='1081'> +1.5313142e-12 </wgt>
<wgt id='1082'> +1.5756293e-12 </wgt>
<wgt id='1083'> +1.5492598e-12 </wgt>
<wgt id='1084'> +1.5501272e-12 </wgt>
<wgt id='1085'> +1.5805944e-12 </wgt>
<wgt id='1086'> +1.6121876e-12 </wgt>
<wgt id='1087'> +1.5442283e-12 </wgt>
<wgt id='1088'> +1.5556611e-12 </wgt>
<wgt id='1089'> +1.5253449e-12 </wgt>
<wgt id='1090'> +1.5502523e-12 </wgt>
<wgt id='1091'> +1.5880530e-12 </wgt>
<wgt id='1092'> +1.5457812e-12 </wgt>
<wgt id='1093'> +1.5859083e-12 </wgt>
<wgt id='1094'> +1.5921267e-12 </wgt>
<wgt id='1095'> +1.5951877e-12 </wgt>
<wgt id='1096'> +1.5102643e-12 </wgt>
<wgt id='1097'> +1.5736681e-12 </wgt>
<wgt id='1098'> +1.5957626e-12 </wgt>
<wgt id='1099'> +1.5584977e-12 </wgt>
<wgt id='1100'> +1.6007543e-12 </wgt>
<wgt id='1101'> +1.5743799e-12 </wgt>
<wgt id='1102'> +1.5266695e-12 </wgt>
<wgt id='1103'> +1.5416403e-12 </wgt>
<wgt id='1104'> +1.5757971e-12 </wgt>
<wgt id='1105'> +1.5203331e-12 </wgt>
<wgt id='1106'> +1.5632795e-12 </wgt>
<wgt id='1107'> +1.5879947e-12 </wgt>
<wgt id='1108'> +1.5515613e-12 </wgt>
<wgt id='1109'> +1.5490890e-12 </wgt>
<wgt id='1110'> +1.5681957e-12 </wgt>
<wgt id='1111'> +1.5661895e-12 </wgt>
<wgt id='1112'> +1.5814026e-12 </wgt>
<wgt id='1113'> +1.6231217e-12 </wgt>
<wgt id='1114'> +1.5689985e-12 </wgt>
<wgt id='1115'> +1.5836183e-12 </wgt>
<wgt id='1116'> +1.6167784e-12 </wgt>
<wgt id='1117'> +1.5605270e-12 </wgt>
<wgt id='1118'> +1.5486932e-12 </wgt>
<wgt id='1119'> +1.5360619e-12 </wgt>
<wgt id='1120'> +1.5549191e-12 </wgt>
<wgt id='1121'> +1.5225340e-12 </wgt>
<wgt id='1122'> +1.5376554e-12 </wgt>
<wgt id='1123'> +1.5767818e-12 </wgt>
<wgt id='1124'> +1.6083958e-12 </wgt>
<wgt id='1125'> +1.5140995e-12 </wgt>
<wgt id='1126'> +1.5215710e-12 </wgt>
<wgt id='1127'> +1.5757650e-12 </wgt>
<wgt id='1128'> +1.5383243e-12 </wgt>
<wgt id='1129'> +1.5326333e-12 </wgt>
<wgt id='1130'> +1.5557114e-12 </wgt>
<wgt id='1131'> +1.5966104e-12 </wgt>
<wgt id='1132'> +1.5545669e-12 </wgt>
<wgt id='1133'> +1.5647138e-12 </wgt>
<wgt id='1134'> +1.5219611e-12 </wgt>
<wgt id='1135'> +1.5004200e-12 </wgt>
<wgt id='1136'> +1.5370052e-12 </wgt>
<wgt id='1137'> +1.5680608e-12 </wgt>
<wgt id='1138'> +1.5487077e-12 </wgt>
<wgt id='1139'> +1.5591923e-12 </wgt>
<wgt id='1140'> +1.5624265e-12 </wgt>
<wgt id='1141'> +1.5561197e-12 </wgt>
<wgt id='1142'> +1.6010625e-12 </wgt>
<wgt id='1143'> +1.5031868e-12 </wgt>
<wgt id='1144'> +1.5560646e-12 </wgt>
<wgt id='1145'> +1.5888807e-12 </wgt>
<wgt id='1146'> +1.5745529e-12 </wgt>
<wgt id='1147'> +1.4329108e-12 </wgt>
<wgt id='1148'> +1.4553554e-12 </wgt>
<wgt id='1149'> +1.3895228e-12 </wgt>
<wgt id='1150'> +1.4463832e-12 </wgt>
<wgt id='1151'> +1.6915144e-12 </wgt>
<wgt id='1152'> +2.3252708e-12 </wgt>
<wgt id='1153'> +2.3329912e-12 </wgt>
<wgt id='1154'> +2.3207013e-12 </wgt>
<wgt id='1155'> +2.3207816e-12 </wgt>
<wgt id='1156'> +2.3275279e-12 </wgt>
<wgt id='1157'> +2.3301466e-12 </wgt>
<wgt id='1158'> +2.3186524e-12 </wgt>
<wgt id='1159'> +2.3290629e-12 </wgt>
<wgt id='1160'> +2.3228043e-12 </wgt>
<wgt id='1161'> +2.3197081e-12 </wgt>
<wgt id='1162'> +2.3290825e-12 </wgt>
<wgt id='1163'> +2.3240325e-12 </wgt>
<wgt id='1164'> +2.3265141e-12 </wgt>
<wgt id='1165'> +2.3314305e-12 </wgt>
<wgt id='1166'> +2.3190843e-12 </wgt>
<wgt id='1167'> +2.3553541e-12 </wgt>
<wgt id='1168'> +2.2890463e-12 </wgt>
<wgt id='1169'> +2.3351459e-12 </wgt>
<wgt id='1170'> +2.3179040e-12 </wgt>
<wgt id='1171'> +2.3176043e-12 </wgt>
<wgt id='1172'> +2.3349336e-12 </wgt>
<wgt id='1173'> +2.2983918e-12 </wgt>
<wgt id='1174'> +2.3534464e-12 </wgt>
<wgt id='1175'> +2.3268215e-12 </wgt>
<wgt id='1176'> +2.3237991e-12 </wgt>
<wgt id='1177'> +2.3225761e-12 </wgt>
<wgt id='1178'> +2.3312915e-12 </wgt>
<wgt id='1179'> +2.3220649e-12 </wgt>
<wgt id='1180'> +2.3233833e-12 </wgt>
<wgt id='1181'> +2.3260701e-12 </wgt>
<wgt id='1182'> +2.3233346e-12 </wgt>
<wgt id='1183'> +2.3284082e-12 </wgt>
<wgt id='1184'> +2.3250735e-12 </wgt>
<wgt id='1185'> +2.3191710e-12 </wgt>
<wgt id='1186'> +2.3277013e-12 </wgt>
<wgt id='1187'> +2.3293930e-12 </wgt>
<wgt id='1188'> +2.3238310e-12 </wgt>
<wgt id='1189'> +2.3189861e-12 </wgt>
<wgt id='1190'> +2.3029950e-12 </wgt>
<wgt id='1191'> +2.3268373e-12 </wgt>
<wgt id='1192'> +2.3343766e-12 </wgt>
<wgt id='1193'> +1.4367489e-12 </wgt>
<wgt id='1194'> +1.4211139e-12 </wgt>
<wgt id='1195'> +1.4495552e-12 </wgt>
<wgt id='1196'> +1.4328650e-12 </wgt>
<wgt id='1197'> +1.4410636e-12 </wgt>
<wgt id='1198'> +1.4353900e-12 </wgt>
<wgt id='1199'> +1.4388011e-12 </wgt>
<wgt id='1200'> +1.4341904e-12 </wgt>
<wgt id='1201'> +1.4384699e-12 </wgt>
<wgt id='1202'> +1.4362552e-12 </wgt>
<wgt id='1203'> +1.4374107e-12 </wgt>
<wgt id='1204'> +1.4331875e-12 </wgt>
<wgt id='1205'> +1.4387067e-12 </wgt>
<wgt id='1206'> +1.4402288e-12 </wgt>
<wgt id='1207'> +1.4319452e-12 </wgt>
<wgt id='1208'> +1.4469140e-12 </wgt>
<wgt id='1209'> +1.4331596e-12 </wgt>
<wgt id='1210'> +1.4402872e-12 </wgt>
<wgt id='1211'> +1.4312853e-12 </wgt>
<wgt id='1212'> +1.4359242e-12 </wgt>
<wgt id='1213'> +1.4380449e-12 </wgt>
<wgt id='1214'> +1.4220000e-12 </wgt>
<wgt id='1215'> +1.4572814e-12 </wgt>
<wgt id='1216'> +1.4465423e-12 </wgt>
<wgt id='1217'> +1.4299827e-12 </wgt>
<wgt id='1218'> +1.4398712e-12 </wgt>
<wgt id='1219'> +1.4349523e-12 </wgt>
<wgt id='1220'> +1.4450059e-12 </wgt>
<wgt id='1221'> +1.4348316e-12 </wgt>
<wgt id='1222'> +1.4577763e-12 </wgt>
<wgt id='1223'> +1.4078526e-12 </wgt>
<wgt id='1224'> +1.4394027e-12 </wgt>
<wgt id='1225'> +1.4357463e-12 </wgt>
<wgt id='1226'> +1.4345570e-12 </wgt>
<wgt id='1227'> +1.4383462e-12 </wgt>
<wgt id='1228'> +1.4349059e-12 </wgt>
<wgt id='1229'> +1.4378445e-12 </wgt>
<wgt id='1230'> +1.4382741e-12 </wgt>
<wgt id='1231'> +1.4459971e-12 </wgt>
<wgt id='1232'> +1.4409498e-12 </wgt>
<wgt id='1233'> +1.4356858e-12 </wgt>
<wgt id='1234'> +1.4367489e-12 </wgt>
<wgt id='1235'> +1.4303918e-12 </wgt>
<wgt id='1236'> +1.4328682e-12 </wgt>
<wgt id='1237'> +1.4350390e-12 </wgt>
<wgt id='1238'> +1.4385782e-12 </wgt>
<wgt id='1239'> +1.4399976e-12 </wgt>
<wgt id='1240'> +1.4413979e-12 </wgt>
<wgt id='1241'> +1.3750508e-12 </wgt>
<wgt id='1242'> +1.3599768e-12 </wgt>
<wgt id='1243'> +1.3898982e-12 </wgt>
<wgt id='1244'> +1.3837158e-12 </wgt>
<wgt id='1245'> +1.3686425e-12 </wgt>
<wgt id='1246'> +1.3715679e-12 </wgt>
<wgt id='1247'> +1.3779995e-12 </wgt>
<wgt id='1248'> +1.3750790e-12 </wgt>
<wgt id='1249'> +1.3749947e-12 </wgt>
<wgt id='1250'> +1.3762065e-12 </wgt>
<wgt id='1251'> +1.3742297e-12 </wgt>
<wgt id='1252'> +1.3716245e-12 </wgt>
<wgt id='1253'> +1.3776886e-12 </wgt>
<wgt id='1254'> +1.3713656e-12 </wgt>
<wgt id='1255'> +1.3771622e-12 </wgt>
<wgt id='1256'> +1.3712315e-12 </wgt>
<wgt id='1257'> +1.3846987e-12 </wgt>
<wgt id='1258'> +1.3876880e-12 </wgt>
<wgt id='1259'> +1.3617182e-12 </wgt>
<wgt id='1260'> +1.3781719e-12 </wgt>
<wgt id='1261'> +1.3717616e-12 </wgt>
<wgt id='1262'> +1.3784282e-12 </wgt>
<wgt id='1263'> +1.3736684e-12 </wgt>
<wgt id='1264'> +1.3790679e-12 </wgt>
<wgt id='1265'> +1.3734473e-12 </wgt>
<wgt id='1266'> +1.3535887e-12 </wgt>
<wgt id='1267'> +1.3956028e-12 </wgt>
<wgt id='1268'> +1.3825871e-12 </wgt>
<wgt id='1269'> +1.3687998e-12 </wgt>
<wgt id='1270'> +1.3835268e-12 </wgt>
<wgt id='1271'> +1.3768922e-12 </wgt>
<wgt id='1272'> +1.3783122e-12 </wgt>
<wgt id='1273'> +1.3749098e-12 </wgt>
<wgt id='1274'> +1.3764297e-12 </wgt>
<wgt id='1275'> +1.3729385e-12 </wgt>
<wgt id='1276'> +1.3779945e-12 </wgt>
<wgt id='1277'> +1.3726819e-12 </wgt>
<wgt id='1278'> +1.3876499e-12 </wgt>
<wgt id='1279'> +1.3797323e-12 </wgt>
<wgt id='1280'> +1.3748253e-12 </wgt>
<wgt id='1281'> +1.3820037e-12 </wgt>
<wgt id='1282'> +1.3750508e-12 </wgt>
<wgt id='1283'> +1.3688889e-12 </wgt>
<wgt id='1284'> +1.3714543e-12 </wgt>
<wgt id='1285'> +1.3734268e-12 </wgt>
<wgt id='1286'> +1.3767249e-12 </wgt>
<wgt id='1287'> +1.3778551e-12 </wgt>
<wgt id='1288'> +1.3787236e-12 </wgt>
<wgt id='1289'> +1.4906936e-12 </wgt>
<wgt id='1290'> +1.4949953e-12 </wgt>
<wgt id='1291'> +1.4860417e-12 </wgt>
<wgt id='1292'> +1.4915816e-12 </wgt>
<wgt id='1293'> +1.4900612e-12 </wgt>
<wgt id='1294'> +1.4766958e-12 </wgt>
<wgt id='1295'> +1.5041240e-12 </wgt>
<wgt id='1296'> +1.4998711e-12 </wgt>
<wgt id='1297'> +1.4792515e-12 </wgt>
<wgt id='1298'> +1.4969716e-12 </wgt>
<wgt id='1299'> +1.4827097e-12 </wgt>
<wgt id='1300'> +1.4933619e-12 </wgt>
<wgt id='1301'> +1.4852995e-12 </wgt>
<wgt id='1302'> +1.4866744e-12 </wgt>
<wgt id='1303'> +1.4962606e-12 </wgt>
<wgt id='1304'> +1.4885135e-12 </wgt>
<wgt id='1305'> +1.4921649e-12 </wgt>
<wgt id='1306'> +1.4947400e-12 </wgt>
<wgt id='1307'> +1.4859696e-12 </wgt>
<wgt id='1308'> +1.4850964e-12 </wgt>
<wgt id='1309'> +1.4949584e-12 </wgt>
<wgt id='1310'> +1.4949065e-12 </wgt>
<wgt id='1311'> +1.4864623e-12 </wgt>
<wgt id='1312'> +1.4978811e-12 </wgt>
<wgt id='1313'> +1.4839604e-12 </wgt>
<wgt id='1314'> +1.4735908e-12 </wgt>
<wgt id='1315'> +1.5062723e-12 </wgt>
<wgt id='1316'> +1.4968943e-12 </wgt>
<wgt id='1317'> +1.4928704e-12 </wgt>
<wgt id='1318'> +1.5008801e-12 </wgt>
<wgt id='1319'> +1.4774996e-12 </wgt>
<wgt id='1320'> +1.5096191e-12 </wgt>
<wgt id='1321'> +1.4734870e-12 </wgt>
<wgt id='1322'> +1.4906334e-12 </wgt>
<wgt id='1323'> +1.4907004e-12 </wgt>
<wgt id='1324'> +1.4882156e-12 </wgt>
<wgt id='1325'> +1.4936649e-12 </wgt>
<wgt id='1326'> +1.4899669e-12 </wgt>
<wgt id='1327'> +1.4940897e-12 </wgt>
<wgt id='1328'> +1.4900280e-12 </wgt>
<wgt id='1329'> +1.4906374e-12 </wgt>
<wgt id='1330'> +1.4960367e-12 </wgt>
<wgt id='1331'> +1.4844495e-12 </wgt>
<wgt id='1332'> +1.5012438e-12 </wgt>
<wgt id='1333'> +1.4963327e-12 </wgt>
<wgt id='1334'> +1.4891247e-12 </wgt>
<wgt id='1335'> +1.4950322e-12 </wgt>
<wgt id='1336'> +1.4932400e-12 </wgt>
<wgt id='1337'> +1.4985787e-12 </wgt>
<wgt id='1338'> +1.4915166e-12 </wgt>
<wgt id='1339'> +1.4938245e-12 </wgt>
<wgt id='1340'> +1.4600483e-12 </wgt>
<wgt id='1341'> +1.4642159e-12 </wgt>
<wgt id='1342'> +1.4555788e-12 </wgt>
<wgt id='1343'> +1.4610849e-12 </wgt>
<wgt id='1344'> +1.4593717e-12 </wgt>
<wgt id='1345'> +1.4454680e-12 </wgt>
<wgt id='1346'> +1.4734842e-12 </wgt>
<wgt id='1347'> +1.4698381e-12 </wgt>
<wgt id='1348'> +1.4490560e-12 </wgt>
<wgt id='1349'> +1.4660442e-12 </wgt>
<wgt id='1350'> +1.4541239e-12 </wgt>
<wgt id='1351'> +1.4625577e-12 </wgt>
<wgt id='1352'> +1.4545776e-12 </wgt>
<wgt id='1353'> +1.4550838e-12 </wgt>
<wgt id='1354'> +1.4689201e-12 </wgt>
<wgt id='1355'> +1.4587896e-12 </wgt>
<wgt id='1356'> +1.4607435e-12 </wgt>
<wgt id='1357'> +1.4631376e-12 </wgt>
<wgt id='1358'> +1.4561861e-12 </wgt>
<wgt id='1359'> +1.4537864e-12 </wgt>
<wgt id='1360'> +1.4654708e-12 </wgt>
<wgt id='1361'> +1.4643306e-12 </wgt>
<wgt id='1362'> +1.4546429e-12 </wgt>
<wgt id='1363'> +1.4726124e-12 </wgt>
<wgt id='1364'> +1.4523074e-12 </wgt>
<wgt id='1365'> +1.4671667e-12 </wgt>
<wgt id='1366'> +1.4462566e-12 </wgt>
<wgt id='1367'> +1.4664837e-12 </wgt>
<wgt id='1368'> +1.4607317e-12 </wgt>
<wgt id='1369'> +1.4681052e-12 </wgt>
<wgt id='1370'> +1.4498436e-12 </wgt>
<wgt id='1371'> +1.4753396e-12 </wgt>
<wgt id='1372'> +1.4406320e-12 </wgt>
<wgt id='1373'> +1.4564930e-12 </wgt>
<wgt id='1374'> +1.4629978e-12 </wgt>
<wgt id='1375'> +1.4575041e-12 </wgt>
<wgt id='1376'> +1.4635600e-12 </wgt>
<wgt id='1377'> +1.4597517e-12 </wgt>
<wgt id='1378'> +1.4633254e-12 </wgt>
<wgt id='1379'> +1.4596022e-12 </wgt>
<wgt id='1380'> +1.4597960e-12 </wgt>
<wgt id='1381'> +1.4656397e-12 </wgt>
<wgt id='1382'> +1.4542062e-12 </wgt>
<wgt id='1383'> +1.4682214e-12 </wgt>
<wgt id='1384'> +1.4664635e-12 </wgt>
<wgt id='1385'> +1.4587320e-12 </wgt>
<wgt id='1386'> +1.4632973e-12 </wgt>
<wgt id='1387'> +1.4633008e-12 </wgt>
<wgt id='1388'> +1.4683614e-12 </wgt>
<wgt id='1389'> +1.4608656e-12 </wgt>
<wgt id='1390'> +1.4644782e-12 </wgt>
<wgt id='1391'> +1.4283465e-12 </wgt>
<wgt id='1392'> +1.3852313e-12 </wgt>
<wgt id='1393'> +1.4002258e-12 </wgt>
<wgt id='1394'> +1.4146914e-12 </wgt>
<wgt id='1395'> +1.4431741e-12 </wgt>
<wgt id='1396'> +1.4288864e-12 </wgt>
<wgt id='1397'> +1.4126301e-12 </wgt>
<wgt id='1398'> +1.4146267e-12 </wgt>
<wgt id='1399'> +1.4171108e-12 </wgt>
<wgt id='1400'> +1.4204394e-12 </wgt>
<wgt id='1401'> +1.4245697e-12 </wgt>
<wgt id='1402'> +1.4332549e-12 </wgt>
<wgt id='1403'> +1.4381687e-12 </wgt>
<wgt id='1404'> +1.4432341e-12 </wgt>
<wgt id='1405'> +1.4288864e-12 </wgt>
<wgt id='1406'> +1.4251761e-12 </wgt>
<wgt id='1407'> +1.4270583e-12 </wgt>
<wgt id='1408'> +1.4305176e-12 </wgt>
<wgt id='1409'> +1.4317317e-12 </wgt>
<wgt id='1410'> +1.3473798e-12 </wgt>
<wgt id='1411'> +1.3543554e-12 </wgt>
<wgt id='1412'> +1.3383893e-12 </wgt>
<wgt id='1413'> +1.3400963e-12 </wgt>
<wgt id='1414'> +1.3546018e-12 </wgt>
<wgt id='1415'> +1.3446610e-12 </wgt>
<wgt id='1416'> +1.3484681e-12 </wgt>
<wgt id='1417'> +1.3486364e-12 </wgt>
<wgt id='1418'> +1.3460265e-12 </wgt>
<wgt id='1419'> +1.3486980e-12 </wgt>
<wgt id='1420'> +1.3460467e-12 </wgt>
<wgt id='1421'> +1.3358437e-12 </wgt>
<wgt id='1422'> +1.3522094e-12 </wgt>
<wgt id='1423'> +1.3466029e-12 </wgt>
<wgt id='1424'> +1.3483017e-12 </wgt>
<wgt id='1425'> +1.3392642e-12 </wgt>
<wgt id='1426'> +1.3560906e-12 </wgt>
<wgt id='1427'> +1.3365767e-12 </wgt>
<wgt id='1428'> +1.3529616e-12 </wgt>
<wgt id='1429'> +1.3505424e-12 </wgt>
<wgt id='1430'> +1.3431766e-12 </wgt>
<wgt id='1431'> +1.3475419e-12 </wgt>
<wgt id='1432'> +1.3472180e-12 </wgt>
<wgt id='1433'> +1.3287696e-12 </wgt>
<wgt id='1434'> +1.3629619e-12 </wgt>
<wgt id='1435'> +1.3411479e-12 </wgt>
<wgt id='1436'> +1.3634511e-12 </wgt>
<wgt id='1437'> +1.3524769e-12 </wgt>
<wgt id='1438'> +1.3518722e-12 </wgt>
<wgt id='1439'> +1.3406887e-12 </wgt>
<wgt id='1440'> +1.3590644e-12 </wgt>
<wgt id='1441'> +1.3530874e-12 </wgt>
<wgt id='1442'> +1.3340281e-12 </wgt>
<wgt id='1443'> +1.3435450e-12 </wgt>
<wgt id='1444'> +1.3550020e-12 </wgt>
<wgt id='1445'> +1.3555574e-12 </wgt>
<wgt id='1446'> +1.3436169e-12 </wgt>
<wgt id='1447'> +1.3489834e-12 </wgt>
<wgt id='1448'> +1.3496874e-12 </wgt>
<wgt id='1449'> +1.3472817e-12 </wgt>
<wgt id='1450'> +1.3464872e-12 </wgt>
<wgt id='1451'> +1.3463891e-12 </wgt>
<wgt id='1452'> +1.3513308e-12 </wgt>
<wgt id='1453'> +1.3482926e-12 </wgt>
<wgt id='1454'> +1.3505089e-12 </wgt>
<wgt id='1455'> +1.3575955e-12 </wgt>
<wgt id='1456'> +1.3542375e-12 </wgt>
<wgt id='1457'> +1.3538493e-12 </wgt>
<wgt id='1458'> +1.3462773e-12 </wgt>
<wgt id='1459'> +1.3528497e-12 </wgt>
<wgt id='1460'> +1.3578714e-12 </wgt>
<wgt id='1461'> +1.3473798e-12 </wgt>
<wgt id='1462'> +1.3366906e-12 </wgt>
<wgt id='1463'> +1.3543014e-12 </wgt>
<wgt id='1464'> +1.3455538e-12 </wgt>
<wgt id='1465'> +1.3261221e-12 </wgt>
<wgt id='1466'> +1.3287380e-12 </wgt>
<wgt id='1467'> +1.3322560e-12 </wgt>
<wgt id='1468'> +1.3383272e-12 </wgt>
<wgt id='1469'> +1.3411527e-12 </wgt>
<wgt id='1470'> +1.3503821e-12 </wgt>
<wgt id='1471'> +1.3548281e-12 </wgt>
<wgt id='1472'> +1.3594795e-12 </wgt>
<wgt id='1473'> +1.3455538e-12 </wgt>
<wgt id='1474'> +1.3423931e-12 </wgt>
<wgt id='1475'> +1.3446296e-12 </wgt>
<wgt id='1476'> +1.3466442e-12 </wgt>
<wgt id='1477'> +1.3476114e-12 </wgt>
<wgt id='1478'> +1.4058672e-12 </wgt>
<wgt id='1479'> +1.4065120e-12 </wgt>
<wgt id='1480'> +1.3940109e-12 </wgt>
<wgt id='1481'> +1.4269274e-12 </wgt>
<wgt id='1482'> +1.4089110e-12 </wgt>
<wgt id='1483'> +1.3921105e-12 </wgt>
<wgt id='1484'> +1.3934809e-12 </wgt>
<wgt id='1485'> +1.4178908e-12 </wgt>
<wgt id='1486'> +1.4051368e-12 </wgt>
<wgt id='1487'> +1.4164366e-12 </wgt>
<wgt id='1488'> +1.4034528e-12 </wgt>
<wgt id='1489'> +1.4075795e-12 </wgt>
<wgt id='1490'> +1.4030325e-12 </wgt>
<wgt id='1491'> +1.4119283e-12 </wgt>
<wgt id='1492'> +1.4056859e-12 </wgt>
<wgt id='1493'> +1.3875493e-12 </wgt>
<wgt id='1494'> +1.4022022e-12 </wgt>
<wgt id='1495'> +1.3984728e-12 </wgt>
<wgt id='1496'> +1.4066931e-12 </wgt>
<wgt id='1497'> +1.4056409e-12 </wgt>
<wgt id='1498'> +1.4061182e-12 </wgt>
<wgt id='1499'> +1.4090655e-12 </wgt>
<wgt id='1500'> +1.4086121e-12 </wgt>
<wgt id='1501'> +1.4072878e-12 </wgt>
<wgt id='1502'> +1.4038372e-12 </wgt>
<wgt id='1503'> +1.4107279e-12 </wgt>
<wgt id='1504'> +1.4006204e-12 </wgt>
<wgt id='1505'> +1.4110237e-12 </wgt>
<wgt id='1506'> +1.4082994e-12 </wgt>
<wgt id='1507'> +1.4057818e-12 </wgt>
<wgt id='1508'> +1.4085468e-12 </wgt>
<wgt id='1509'> +1.3693714e-12 </wgt>
<wgt id='1510'> +1.3732926e-12 </wgt>
<wgt id='1511'> +1.3536648e-12 </wgt>
<wgt id='1512'> +1.3594699e-12 </wgt>
<wgt id='1513'> +1.3665881e-12 </wgt>
<wgt id='1514'> +1.3734424e-12 </wgt>
<wgt id='1515'> +1.3738625e-12 </wgt>
<wgt id='1516'> +1.3716804e-12 </wgt>
<wgt id='1517'> +1.3710656e-12 </wgt>
<wgt id='1518'> +1.3678563e-12 </wgt>
<wgt id='1519'> +1.3712684e-12 </wgt>
<wgt id='1520'> +1.3712151e-12 </wgt>
<wgt id='1521'> +1.3688060e-12 </wgt>
<wgt id='1522'> +1.3720950e-12 </wgt>
<wgt id='1523'> +1.3724885e-12 </wgt>
<wgt id='1524'> +1.3675957e-12 </wgt>
<wgt id='1525'> +1.3686415e-12 </wgt>
<wgt id='1526'> +1.3710924e-12 </wgt>
<wgt id='1527'> +1.3695839e-12 </wgt>
<wgt id='1528'> +1.3705504e-12 </wgt>
<wgt id='1529'> +1.3708291e-12 </wgt>
<wgt id='1530'> +1.3695910e-12 </wgt>
<wgt id='1531'> +1.3719526e-12 </wgt>
<wgt id='1532'> +1.3663725e-12 </wgt>
<wgt id='1533'> +1.3691614e-12 </wgt>
<wgt id='1534'> +1.3703105e-12 </wgt>
<wgt id='1535'> +1.3658101e-12 </wgt>
<wgt id='1536'> +1.3737521e-12 </wgt>
<wgt id='1537'> +1.3724622e-12 </wgt>
<wgt id='1538'> +1.3550658e-12 </wgt>
<wgt id='1539'> +1.3661030e-12 </wgt>
<wgt id='1540'> +1.3682465e-12 </wgt>
<wgt id='1541'> +1.3660671e-12 </wgt>
<wgt id='1542'> +1.3673478e-12 </wgt>
<wgt id='1543'> +1.3703045e-12 </wgt>
<wgt id='1544'> +1.3673003e-12 </wgt>
<wgt id='1545'> +1.3681967e-12 </wgt>
<wgt id='1546'> +1.3706438e-12 </wgt>
<wgt id='1547'> +1.3681961e-12 </wgt>
<wgt id='1548'> +1.3700648e-12 </wgt>
<wgt id='1549'> +1.3683022e-12 </wgt>
<wgt id='1550'> +1.3695671e-12 </wgt>
<wgt id='1551'> +1.3689633e-12 </wgt>
<wgt id='1552'> +1.3710982e-12 </wgt>
<wgt id='1553'> +1.3693497e-12 </wgt>
<wgt id='1554'> +1.3686692e-12 </wgt>
<wgt id='1555'> +1.3706523e-12 </wgt>
<wgt id='1556'> +1.3717420e-12 </wgt>
<wgt id='1557'> +1.3694148e-12 </wgt>
<wgt id='1558'> +1.3696852e-12 </wgt>
<wgt id='1559'> +1.3688283e-12 </wgt>
<wgt id='1560'> +1.3707486e-12 </wgt>
<wgt id='1561'> +1.3701251e-12 </wgt>
<wgt id='1562'> +1.3697952e-12 </wgt>
<wgt id='1563'> +1.3705042e-12 </wgt>
<wgt id='1564'> +1.3683352e-12 </wgt>
<wgt id='1565'> +1.3688955e-12 </wgt>
<wgt id='1566'> +1.3692047e-12 </wgt>
<wgt id='1567'> +1.3673627e-12 </wgt>
<wgt id='1568'> +1.3697508e-12 </wgt>
<wgt id='1569'> +1.3716515e-12 </wgt>
<wgt id='1570'> +1.3700217e-12 </wgt>
<wgt id='1571'> +1.3693788e-12 </wgt>
<wgt id='1572'> +1.3685936e-12 </wgt>
<wgt id='1573'> +1.3678047e-12 </wgt>
<wgt id='1574'> +1.3694550e-12 </wgt>
<wgt id='1575'> +1.3701174e-12 </wgt>
<wgt id='1576'> +1.3706429e-12 </wgt>
<wgt id='1577'> +1.3720772e-12 </wgt>
<wgt id='1578'> +1.3688267e-12 </wgt>
<wgt id='1579'> +1.3688488e-12 </wgt>
<wgt id='1580'> +1.3695322e-12 </wgt>
<wgt id='1581'> +1.3695085e-12 </wgt>
<wgt id='1582'> +1.3691357e-12 </wgt>
<wgt id='1583'> +1.3686830e-12 </wgt>
<wgt id='1584'> +1.3676613e-12 </wgt>
<wgt id='1585'> +1.3685027e-12 </wgt>
<wgt id='1586'> +1.3698994e-12 </wgt>
<wgt id='1587'> +1.3705849e-12 </wgt>
<wgt id='1588'> +1.3688693e-12 </wgt>
<wgt id='1589'> +1.3699926e-12 </wgt>
<wgt id='1590'> +1.3704921e-12 </wgt>
<wgt id='1591'> +1.3703034e-12 </wgt>
<wgt id='1592'> +1.3705710e-12 </wgt>
<wgt id='1593'> +1.3690659e-12 </wgt>
<wgt id='1594'> +1.3695473e-12 </wgt>
<wgt id='1595'> +1.3681337e-12 </wgt>
<wgt id='1596'> +1.3692200e-12 </wgt>
<wgt id='1597'> +1.3680781e-12 </wgt>
<wgt id='1598'> +1.3701603e-12 </wgt>
<wgt id='1599'> +1.3696270e-12 </wgt>
<wgt id='1600'> +1.3686749e-12 </wgt>
<wgt id='1601'> +1.3694437e-12 </wgt>
<wgt id='1602'> +1.3682484e-12 </wgt>
<wgt id='1603'> +1.3691136e-12 </wgt>
<wgt id='1604'> +1.3690015e-12 </wgt>
<wgt id='1605'> +1.3693972e-12 </wgt>
<wgt id='1606'> +1.3698824e-12 </wgt>
<wgt id='1607'> +1.3693785e-12 </wgt>
<wgt id='1608'> +1.3692172e-12 </wgt>
<wgt id='1609'> +1.3692370e-12 </wgt>
<wgt id='1610'> +1.3522222e-12 </wgt>
<wgt id='1611'> +1.3846376e-12 </wgt>
<wgt id='1612'> +1.5429482e-12 </wgt>
<wgt id='1613'> +1.5088410e-12 </wgt>
<wgt id='1614'> +1.4667635e-12 </wgt>
<wgt id='1615'> +1.5201441e-12 </wgt>
<wgt id='1616'> +1.4810958e-12 </wgt>
<wgt id='1617'> +1.5228724e-12 </wgt>
<wgt id='1618'> +1.5301484e-12 </wgt>
<wgt id='1619'> +1.5036439e-12 </wgt>
<wgt id='1620'> +1.5127238e-12 </wgt>
<wgt id='1621'> +1.5533468e-12 </wgt>
<wgt id='1622'> +1.5575608e-12 </wgt>
<wgt id='1623'> +1.5663479e-12 </wgt>
<wgt id='1624'> +1.5770144e-12 </wgt>
<wgt id='1625'> +1.4939926e-12 </wgt>
<wgt id='1626'> +1.5357635e-12 </wgt>
<wgt id='1627'> +1.5586960e-12 </wgt>
<wgt id='1628'> +1.4482267e-12 </wgt>
<wgt id='1629'> +1.5821581e-12 </wgt>
<wgt id='1630'> +1.5059940e-12 </wgt>
<wgt id='1631'> +1.5186260e-12 </wgt>
<wgt id='1632'> +1.4862641e-12 </wgt>
<wgt id='1633'> +1.4966508e-12 </wgt>
<wgt id='1634'> +1.5447062e-12 </wgt>
<wgt id='1635'> +1.5589920e-12 </wgt>
<wgt id='1636'> +1.5303963e-12 </wgt>
<wgt id='1637'> +1.5725448e-12 </wgt>
<wgt id='1638'> +1.5484472e-12 </wgt>
<wgt id='1639'> +1.5410259e-12 </wgt>
<wgt id='1640'> +1.5299242e-12 </wgt>
<wgt id='1641'> +1.5519570e-12 </wgt>
<wgt id='1642'> +1.4876253e-12 </wgt>
<wgt id='1643'> +1.5225593e-12 </wgt>
<wgt id='1644'> +1.5753299e-12 </wgt>
<wgt id='1645'> +1.5151425e-12 </wgt>
<wgt id='1646'> +1.5700906e-12 </wgt>
<wgt id='1647'> +1.5829133e-12 </wgt>
<wgt id='1648'> +1.5379845e-12 </wgt>
<wgt id='1649'> +1.5854204e-12 </wgt>
<wgt id='1650'> +1.5180326e-12 </wgt>
<wgt id='1651'> +1.5730694e-12 </wgt>
<wgt id='1652'> +1.5419045e-12 </wgt>
<wgt id='1653'> +1.5228917e-12 </wgt>
<wgt id='1654'> +1.5476908e-12 </wgt>
<wgt id='1655'> +1.5774015e-12 </wgt>
<wgt id='1656'> +1.5407854e-12 </wgt>
<wgt id='1657'> +1.5497896e-12 </wgt>
<wgt id='1658'> +1.5394539e-12 </wgt>
<wgt id='1659'> +1.5770144e-12 </wgt>
<wgt id='1660'> +1.5531394e-12 </wgt>
<wgt id='1661'> +1.5876498e-12 </wgt>
<wgt id='1662'> +1.6009104e-12 </wgt>
<wgt id='1663'> +1.5552077e-12 </wgt>
<wgt id='1664'> +1.5351082e-12 </wgt>
<wgt id='1665'> +1.5204998e-12 </wgt>
<wgt id='1666'> +1.5633447e-12 </wgt>
<wgt id='1667'> +1.5669916e-12 </wgt>
<wgt id='1668'> +1.5452163e-12 </wgt>
<wgt id='1669'> +1.5564927e-12 </wgt>
<wgt id='1670'> +1.5261676e-12 </wgt>
<wgt id='1671'> +1.5102868e-12 </wgt>
<wgt id='1672'> +1.5722351e-12 </wgt>
<wgt id='1673'> +1.5568202e-12 </wgt>
<wgt id='1674'> +1.5326895e-12 </wgt>
<wgt id='1675'> +1.5359651e-12 </wgt>
<wgt id='1676'> +1.5213108e-12 </wgt>
<wgt id='1677'> +1.5444098e-12 </wgt>
<wgt id='1678'> +1.5340444e-12 </wgt>
<wgt id='1679'> +1.5580264e-12 </wgt>
<wgt id='1680'> +1.5595052e-12 </wgt>
<wgt id='1681'> +1.5777995e-12 </wgt>
<wgt id='1682'> +1.5295343e-12 </wgt>
<wgt id='1683'> +1.5644499e-12 </wgt>
<wgt id='1684'> +1.6066376e-12 </wgt>
<wgt id='1685'> +1.5310939e-12 </wgt>
<wgt id='1686'> +1.5443203e-12 </wgt>
<wgt id='1687'> +1.5784277e-12 </wgt>
<wgt id='1688'> +1.5041756e-12 </wgt>
<wgt id='1689'> +1.6015856e-12 </wgt>
<wgt id='1690'> +1.5509061e-12 </wgt>
<wgt id='1691'> +1.4723668e-12 </wgt>
<wgt id='1692'> +1.5077253e-12 </wgt>
<wgt id='1693'> +1.5552110e-12 </wgt>
<wgt id='1694'> +1.5363132e-12 </wgt>
<wgt id='1695'> +1.5541179e-12 </wgt>
<wgt id='1696'> +1.5361402e-12 </wgt>
<wgt id='1697'> +1.5299063e-12 </wgt>
<wgt id='1698'> +1.5525824e-12 </wgt>
<wgt id='1699'> +1.5544587e-12 </wgt>
<wgt id='1700'> +1.5177465e-12 </wgt>
<wgt id='1701'> +1.5948243e-12 </wgt>
<wgt id='1702'> +1.5014667e-12 </wgt>
<wgt id='1703'> +1.5186983e-12 </wgt>
<wgt id='1704'> +1.5117545e-12 </wgt>
<wgt id='1705'> +1.4962985e-12 </wgt>
<wgt id='1706'> +1.5689960e-12 </wgt>
<wgt id='1707'> +1.5540379e-12 </wgt>
<wgt id='1708'> +1.6162809e-12 </wgt>
<wgt id='1709'> +1.5940223e-12 </wgt>
<wgt id='1710'> +1.5464312e-12 </wgt>
<wgt id='1711'> +1.5573859e-12 </wgt>
<wgt id='1712'> +1.6176175e-12 </wgt>
<wgt id='1713'> +1.3765497e-12 </wgt>
<wgt id='1714'> +1.3609533e-12 </wgt>
<wgt id='1715'> +1.3290805e-12 </wgt>
<wgt id='1716'> +1.4109286e-12 </wgt>
<wgt id='1717'> +1.3944268e-12 </wgt>
<wgt id='1718'> +1.4156442e-12 </wgt>
<wgt id='1719'> +1.3955006e-12 </wgt>
<wgt id='1720'> +1.3393575e-12 </wgt>
<wgt id='1721'> +1.3551037e-12 </wgt>
<wgt id='1722'> +1.3742996e-12 </wgt>
<wgt id='1723'> +1.4121273e-12 </wgt>
<wgt id='1724'> +1.3853299e-12 </wgt>
<wgt id='1725'> +1.3953067e-12 </wgt>
<wgt id='1726'> +1.3819187e-12 </wgt>
<wgt id='1727'> +1.4236440e-12 </wgt>
<wgt id='1728'> +1.3644856e-12 </wgt>
<wgt id='1729'> +1.3156000e-12 </wgt>
<wgt id='1730'> +1.3531857e-12 </wgt>
<wgt id='1731'> +1.3145386e-12 </wgt>
<wgt id='1732'> +1.3782390e-12 </wgt>
<wgt id='1733'> +1.3189800e-12 </wgt>
<wgt id='1734'> +1.4425180e-12 </wgt>
<wgt id='1735'> +1.3486399e-12 </wgt>
<wgt id='1736'> +1.4063979e-12 </wgt>
<wgt id='1737'> +1.4200275e-12 </wgt>
<wgt id='1738'> +1.3692001e-12 </wgt>
<wgt id='1739'> +1.3947555e-12 </wgt>
<wgt id='1740'> +1.3038525e-12 </wgt>
<wgt id='1741'> +1.4253133e-12 </wgt>
<wgt id='1742'> +1.3639947e-12 </wgt>
<wgt id='1743'> +1.3549014e-12 </wgt>
<wgt id='1744'> +1.3946092e-12 </wgt>
<wgt id='1745'> +1.4093899e-12 </wgt>
<wgt id='1746'> +1.3704031e-12 </wgt>
<wgt id='1747'> +1.4237009e-12 </wgt>
<wgt id='1748'> +1.3849447e-12 </wgt>
<wgt id='1749'> +1.3694626e-12 </wgt>
<wgt id='1750'> +1.3517714e-12 </wgt>
<wgt id='1751'> +1.3667113e-12 </wgt>
<wgt id='1752'> +1.3551750e-12 </wgt>
<wgt id='1753'> +1.3864078e-12 </wgt>
<wgt id='1754'> +1.3936335e-12 </wgt>
<wgt id='1755'> +1.3809262e-12 </wgt>
<wgt id='1756'> +1.3998389e-12 </wgt>
<wgt id='1757'> +1.3966025e-12 </wgt>
<wgt id='1758'> +1.4143064e-12 </wgt>
<wgt id='1759'> +1.3946410e-12 </wgt>
<wgt id='1760'> +1.3712286e-12 </wgt>
<wgt id='1761'> +1.3623822e-12 </wgt>
<wgt id='1762'> +1.3744948e-12 </wgt>
<wgt id='1763'> +1.3969907e-12 </wgt>
<wgt id='1764'> +1.4280937e-12 </wgt>
<wgt id='1765'> +1.3784547e-12 </wgt>
<wgt id='1766'> +1.4128223e-12 </wgt>
<wgt id='1767'> +1.3573538e-12 </wgt>
<wgt id='1768'> +1.3970207e-12 </wgt>
<wgt id='1769'> +1.3618315e-12 </wgt>
<wgt id='1770'> +1.3688967e-12 </wgt>
<wgt id='1771'> +1.4304416e-12 </wgt>
<wgt id='1772'> +1.3562287e-12 </wgt>
<wgt id='1773'> +1.3812479e-12 </wgt>
<wgt id='1774'> +1.3743734e-12 </wgt>
<wgt id='1775'> +1.3764684e-12 </wgt>
<wgt id='1776'> +1.4333978e-12 </wgt>
<wgt id='1777'> +1.3170131e-12 </wgt>
<wgt id='1778'> +1.3927619e-12 </wgt>
<wgt id='1779'> +1.3632096e-12 </wgt>
<wgt id='1780'> +1.3887331e-12 </wgt>
<wgt id='1781'> +1.3949124e-12 </wgt>
<wgt id='1782'> +1.3652958e-12 </wgt>
<wgt id='1783'> +1.3739841e-12 </wgt>
<wgt id='1784'> +1.3717136e-12 </wgt>
<wgt id='1785'> +1.3968320e-12 </wgt>
<wgt id='1786'> +1.3656790e-12 </wgt>
<wgt id='1787'> +1.4584644e-12 </wgt>
<wgt id='1788'> +1.3615794e-12 </wgt>
<wgt id='1789'> +1.4549993e-12 </wgt>
<wgt id='1790'> +1.3673347e-12 </wgt>
<wgt id='1791'> +1.3600478e-12 </wgt>
<wgt id='1792'> +1.3686707e-12 </wgt>
<wgt id='1793'> +1.3542054e-12 </wgt>
<wgt id='1794'> +1.3953533e-12 </wgt>
<wgt id='1795'> +1.3861238e-12 </wgt>
<wgt id='1796'> +1.3328570e-12 </wgt>
<wgt id='1797'> +1.3714352e-12 </wgt>
<wgt id='1798'> +1.3759032e-12 </wgt>
<wgt id='1799'> +1.3580526e-12 </wgt>
<wgt id='1800'> +1.3906846e-12 </wgt>
<wgt id='1801'> +1.3765480e-12 </wgt>
<wgt id='1802'> +1.3290870e-12 </wgt>
<wgt id='1803'> +1.3827637e-12 </wgt>
<wgt id='1804'> +1.3856059e-12 </wgt>
<wgt id='1805'> +1.3493312e-12 </wgt>
<wgt id='1806'> +1.3439618e-12 </wgt>
<wgt id='1807'> +1.3472484e-12 </wgt>
<wgt id='1808'> +1.3474520e-12 </wgt>
<wgt id='1809'> +1.3518985e-12 </wgt>
<wgt id='1810'> +1.3449639e-12 </wgt>
<wgt id='1811'> +1.3908480e-12 </wgt>
<wgt id='1812'> +1.3542237e-12 </wgt>
<wgt id='1813'> +1.2915122e-12 </wgt>
<wgt id='1814'> +1.7476734e-12 </wgt>
<wgt id='1815'> +2.1097308e-12 </wgt>
<wgt id='1816'> +1.3765497e-12 </wgt>
<wgt id='1817'> +1.3609533e-12 </wgt>
<wgt id='1818'> +1.3290805e-12 </wgt>
<wgt id='1819'> +1.4109286e-12 </wgt>
<wgt id='1820'> +1.3944268e-12 </wgt>
<wgt id='1821'> +1.4156442e-12 </wgt>
<wgt id='1822'> +1.3955006e-12 </wgt>
<wgt id='1823'> +1.3393575e-12 </wgt>
<wgt id='1824'> +1.3551037e-12 </wgt>
<wgt id='1825'> +1.3742996e-12 </wgt>
<wgt id='1826'> +1.4121273e-12 </wgt>
<wgt id='1827'> +1.3853299e-12 </wgt>
<wgt id='1828'> +1.3953067e-12 </wgt>
<wgt id='1829'> +1.3819187e-12 </wgt>
<wgt id='1830'> +1.4236440e-12 </wgt>
<wgt id='1831'> +1.3644856e-12 </wgt>
<wgt id='1832'> +1.3156000e-12 </wgt>
<wgt id='1833'> +1.3531857e-12 </wgt>
<wgt id='1834'> +1.3145386e-12 </wgt>
<wgt id='1835'> +1.3782390e-12 </wgt>
<wgt id='1836'> +1.3189800e-12 </wgt>
<wgt id='1837'> +1.4425180e-12 </wgt>
<wgt id='1838'> +1.3486399e-12 </wgt>
<wgt id='1839'> +1.4063979e-12 </wgt>
<wgt id='1840'> +1.4200275e-12 </wgt>
<wgt id='1841'> +1.3692001e-12 </wgt>
<wgt id='1842'> +1.3947555e-12 </wgt>
<wgt id='1843'> +1.3038525e-12 </wgt>
<wgt id='1844'> +1.4253133e-12 </wgt>
<wgt id='1845'> +1.3639947e-12 </wgt>
<wgt id='1846'> +1.3549014e-12 </wgt>
<wgt id='1847'> +1.3946092e-12 </wgt>
<wgt id='1848'> +1.4093899e-12 </wgt>
<wgt id='1849'> +1.3704031e-12 </wgt>
<wgt id='1850'> +1.4237009e-12 </wgt>
<wgt id='1851'> +1.3849447e-12 </wgt>
<wgt id='1852'> +1.3694626e-12 </wgt>
<wgt id='1853'> +1.3517714e-12 </wgt>
<wgt id='1854'> +1.3667113e-12 </wgt>
<wgt id='1855'> +1.3551750e-12 </wgt>
<wgt id='1856'> +1.3864078e-12 </wgt>
<wgt id='1857'> +1.3936335e-12 </wgt>
<wgt id='1858'> +1.3809262e-12 </wgt>
<wgt id='1859'> +1.3998389e-12 </wgt>
<wgt id='1860'> +1.3966025e-12 </wgt>
<wgt id='1861'> +1.4143064e-12 </wgt>
<wgt id='1862'> +1.3946410e-12 </wgt>
<wgt id='1863'> +1.3712286e-12 </wgt>
<wgt id='1864'> +1.3623822e-12 </wgt>
<wgt id='1865'> +1.3744948e-12 </wgt>
<wgt id='1866'> +1.3969907e-12 </wgt>
<wgt id='1867'> +1.4280937e-12 </wgt>
<wgt id='1868'> +1.3784547e-12 </wgt>
<wgt id='1869'> +1.4128223e-12 </wgt>
<wgt id='1870'> +1.3573538e-12 </wgt>
<wgt id='1871'> +1.3970207e-12 </wgt>
<wgt id='1872'> +1.3618315e-12 </wgt>
<wgt id='1873'> +1.3688967e-12 </wgt>
<wgt id='1874'> +1.4304416e-12 </wgt>
<wgt id='1875'> +1.3562287e-12 </wgt>
<wgt id='1876'> +1.3812479e-12 </wgt>
<wgt id='1877'> +1.3743734e-12 </wgt>
<wgt id='1878'> +1.3764684e-12 </wgt>
<wgt id='1879'> +1.4333978e-12 </wgt>
<wgt id='1880'> +1.3170131e-12 </wgt>
<wgt id='1881'> +1.3927619e-12 </wgt>
<wgt id='1882'> +1.3632096e-12 </wgt>
<wgt id='1883'> +1.3887331e-12 </wgt>
<wgt id='1884'> +1.3949124e-12 </wgt>
<wgt id='1885'> +1.3652958e-12 </wgt>
<wgt id='1886'> +1.3739841e-12 </wgt>
<wgt id='1887'> +1.3717136e-12 </wgt>
<wgt id='1888'> +1.3968320e-12 </wgt>
<wgt id='1889'> +1.3656790e-12 </wgt>
<wgt id='1890'> +1.4584644e-12 </wgt>
<wgt id='1891'> +1.3615794e-12 </wgt>
<wgt id='1892'> +1.4549993e-12 </wgt>
<wgt id='1893'> +1.3673347e-12 </wgt>
<wgt id='1894'> +1.3600478e-12 </wgt>
<wgt id='1895'> +1.3686707e-12 </wgt>
<wgt id='1896'> +1.3542054e-12 </wgt>
<wgt id='1897'> +1.3953533e-12 </wgt>
<wgt id='1898'> +1.3861238e-12 </wgt>
<wgt id='1899'> +1.3328570e-12 </wgt>
<wgt id='1900'> +1.3714352e-12 </wgt>
<wgt id='1901'> +1.3759032e-12 </wgt>
<wgt id='1902'> +1.3580526e-12 </wgt>
<wgt id='1903'> +1.3906846e-12 </wgt>
<wgt id='1904'> +1.3765480e-12 </wgt>
<wgt id='1905'> +1.3290870e-12 </wgt>
<wgt id='1906'> +1.3827637e-12 </wgt>
<wgt id='1907'> +1.3856059e-12 </wgt>
<wgt id='1908'> +1.3493312e-12 </wgt>
<wgt id='1909'> +1.3439618e-12 </wgt>
<wgt id='1910'> +1.3472484e-12 </wgt>
<wgt id='1911'> +1.3474520e-12 </wgt>
<wgt id='1912'> +1.3518985e-12 </wgt>
<wgt id='1913'> +1.3449639e-12 </wgt>
<wgt id='1914'> +1.3908480e-12 </wgt>
<wgt id='1915'> +1.3542237e-12 </wgt>
<wgt id='1916'> +1.2915122e-12 </wgt>
<wgt id='1917'> +1.3695832e-12 </wgt>
<wgt id='1918'> +1.3920741e-12 </wgt>
<wgt id='1919'> +1.3436534e-12 </wgt>
</rwgt>
</event>
<event>
 9      1 +1.5607000e-12 3.59866900e+01 7.81860800e-03 1.39710300e-01
        2 -1    0    0  502    0 -0.0000000000e+00 +0.0000000000e+00 +1.4188644572e+02 1.4188644572e+02 0.0000000000e+00 0.0000e+00 -1.0000e+00
       21 -1    0    0  501  502 +0.0000000000e+00 -0.0000000000e+00 -9.6903741797e+00 9.6903741797e+00 0.0000000000e+00 0.0000e+00 -1.0000e+00
     1023  2    1    2    0    0 -1.7793611403e+01 -2.7447679252e+01 +9.7324029469e+01 1.0376419582e+02 1.5001797188e+01 0.0000e+00 0.0000e+00
  1000023  2    3    3    0    0 -4.8206520970e+00 -1.7271827031e+01 +5.0267928757e+01 5.3653096692e+01 5.4986750627e+00 0.0000e+00 0.0000e+00
        2  1    1    2  501    0 +1.7793611403e+01 +2.7447679252e+01 +3.4872042067e+01 4.7812624075e+01 0.0000000000e+00 0.0000e+00 -1.0000e+00
  1000022  1    4    4    0    0 -4.1439108485e+00 -1.4634101713e+01 +4.3711278806e+01 4.6551099073e+01 5.0000000000e+00 0.0000e+00 -1.0000e+00
      -11  1    4    4    0    0 -2.3339383664e-01 -6.2467267545e-01 +1.5178341411e+00 1.6578628940e+00 5.1100000000e-04 0.0000e+00 -1.0000e+00
       11  1    4    4    0    0 -4.4334741184e-01 -2.0130526426e+00 +5.0388158106e+00 5.4441347250e+00 5.1100000000e-04 0.0000e+00 1.0000e+00
  1000022  1    3    3    0    0 -1.2972959306e+01 -1.0175852221e+01 +4.7056100712e+01 5.0111099128e+01 5.0000000000e+00 0.0000e+00 1.0000e+00
<mgrwt>
<rscale>  1 0.35986687E+02</rscale>
<asrwt>0</asrwt>
<pdfrwt beam="1">  1       21 0.14908269E-02 0.35986687E+02</pdfrwt>
<pdfrwt beam="2">  1        2 0.21828683E-01 0.35986687E+02</pdfrwt>
<totfact> 0.47655006E+06</totfact>
</mgrwt>
<rwgt>
<wgt id='1001'> +1.5607000e-12 </wgt>
<wgt id='1002'> +1.5977534e-12 </wgt>
<wgt id='1003'> +1.5984306e-12 </wgt>
<wgt id='1004'> +1.5564847e-12 </wgt>
<wgt id='1005'> +1.6007560e-12 </wgt>
<wgt id='1006'> +1.3722472e-12 </wgt>
<wgt id='1007'> +1.4248930e-12 </wgt>
<wgt id='1008'> +1.4260726e-12 </wgt>
<wgt id='1009'> +1.3668980e-12 </wgt>
<wgt id='1010'> +1.4303085e-12 </wgt>
<wgt id='1011'> +1.8120045e-12 </wgt>
<wgt id='1012'> +1.8203170e-12 </wgt>
<wgt id='1013'> +1.8201305e-12 </wgt>
<wgt id='1014'> +1.8100831e-12 </wgt>
<wgt id='1015'> +1.8192136e-12 </wgt>
<wgt id='1016'> +1.8196111e-12 </wgt>
<wgt id='1017'> +1.8023651e-12 </wgt>
<wgt id='1018'> +1.8015541e-12 </wgt>
<wgt id='1019'> +1.8201305e-12 </wgt>
<wgt id='1020'> +1.7982962e-12 </wgt>
<wgt id='1021'> +1.5998951e-12 </wgt>
<wgt id='1022'> +1.6073678e-12 </wgt>
<wgt id='1023'> +1.6072935e-12 </wgt>
<wgt id='1024'> +1.5984306e-12 </wgt>
<wgt id='1025'> +1.6068147e-12 </wgt>
<wgt id='1026'> +2.1126056e-12 </wgt>
<wgt id='1027'> +2.0534308e-12 </wgt>
<wgt id='1028'> +2.0514270e-12 </wgt>
<wgt id='1029'> +2.1166848e-12 </wgt>
<wgt id='1030'> +2.0437125e-12 </wgt>
<wgt id='1031'> +1.2667505e-12 </wgt>
<wgt id='1032'> +1.3645204e-12 </wgt>
<wgt id='1033'> +1.3668980e-12 </wgt>
<wgt id='1034'> +1.2573119e-12 </wgt>
<wgt id='1035'> +1.3755454e-12 </wgt>
<wgt id='1036'> +1.1137918e-12 </wgt>
<wgt id='1037'> +1.2168933e-12 </wgt>
<wgt id='1038'> +1.2195061e-12 </wgt>
<wgt id='1039'> +1.1041657e-12 </wgt>
<wgt id='1040'> +1.2290782e-12 </wgt>
<wgt id='1041'> +1.4707231e-12 </wgt>
<wgt id='1042'> +1.5545952e-12 </wgt>
<wgt id='1043'> +1.5564847e-12 </wgt>
<wgt id='1044'> +1.4621660e-12 </wgt>
<wgt id='1045'> +1.5632683e-12 </wgt>
<wgt id='1046'> +1.5607000e-12 </wgt>
<wgt id='1047'> +1.6118362e-12 </wgt>
<wgt id='1048'> +1.5517232e-12 </wgt>
<wgt id='1049'> +1.5158440e-12 </wgt>
<wgt id='1050'> +1.5282988e-12 </wgt>
<wgt id='1051'> +1.5471619e-12 </wgt>
<wgt id='1052'> +1.5375213e-12 </wgt>
<wgt id='1053'> +1.5681502e-12 </wgt>
<wgt id='1054'> +1.5575080e-12 </wgt>
<wgt id='1055'> +1.5159873e-12 </wgt>
<wgt id='1056'> +1.5369342e-12 </wgt>
<wgt id='1057'> +1.5669318e-12 </wgt>
<wgt id='1058'> +1.5223161e-12 </wgt>
<wgt id='1059'> +1.5717781e-12 </wgt>
<wgt id='1060'> +1.5599078e-12 </wgt>
<wgt id='1061'> +1.5692285e-12 </wgt>
<wgt id='1062'> +1.5792002e-12 </wgt>
<wgt id='1063'> +1.5744838e-12 </wgt>
<wgt id='1064'> +1.5553548e-12 </wgt>
<wgt id='1065'> +1.5710912e-12 </wgt>
<wgt id='1066'> +1.5394578e-12 </wgt>
<wgt id='1067'> +1.5304862e-12 </wgt>
<wgt id='1068'> +1.5844740e-12 </wgt>
<wgt id='1069'> +1.5854439e-12 </wgt>
<wgt id='1070'> +1.5793986e-12 </wgt>
<wgt id='1071'> +1.5297125e-12 </wgt>
<wgt id='1072'> +1.6126834e-12 </wgt>
<wgt id='1073'> +1.5720521e-12 </wgt>
<wgt id='1074'> +1.5406357e-12 </wgt>
<wgt id='1075'> +1.5794154e-12 </wgt>
<wgt id='1076'> +1.5338787e-12 </wgt>
<wgt id='1077'> +1.5694515e-12 </wgt>
<wgt id='1078'> +1.5152595e-12 </wgt>
<wgt id='1079'> +1.5270565e-12 </wgt>
<wgt id='1080'> +1.5450104e-12 </wgt>
<wgt id='1081'> +1.5872067e-12 </wgt>
<wgt id='1082'> +1.5450408e-12 </wgt>
<wgt id='1083'> +1.5898522e-12 </wgt>
<wgt id='1084'> +1.5265206e-12 </wgt>
<wgt id='1085'> +1.5374977e-12 </wgt>
<wgt id='1086'> +1.5734323e-12 </wgt>
<wgt id='1087'> +1.5441854e-12 </wgt>
<wgt id='1088'> +1.5663549e-12 </wgt>
<wgt id='1089'> +1.5688891e-12 </wgt>
<wgt id='1090'> +1.5401727e-12 </wgt>
<wgt id='1091'> +1.5802517e-12 </wgt>
<wgt id='1092'> +1.6025672e-12 </wgt>
<wgt id='1093'> +1.5422992e-12 </wgt>
<wgt id='1094'> +1.5867027e-12 </wgt>
<wgt id='1095'> +1.5729639e-12 </wgt>
<wgt id='1096'> +1.5989244e-12 </wgt>
<wgt id='1097'> +1.5561953e-12 </wgt>
<wgt id='1098'> +1.5503691e-12 </wgt>
<wgt id='1099'> +1.5497788e-12 </wgt>
<wgt id='1100'> +1.5932788e-12 </wgt>
<wgt id='1101'> +1.6115771e-12 </wgt>
<wgt id='1102'> +1.5513431e-12 </wgt>
<wgt id='1103'> +1.6168247e-12 </wgt>
<wgt id='1104'> +1.5356492e-12 </wgt>
<wgt id='1105'> +1.5267838e-12 </wgt>
<wgt id='1106'> +1.5902601e-12 </wgt>
<wgt id='1107'> +1.5618567e-12 </wgt>
<wgt id='1108'> +1.5697678e-12 </wgt>
<wgt id='1109'> +1.5910095e-12 </wgt>
<wgt id='1110'> +1.5528184e-12 </wgt>
<wgt id='1111'> +1.5655108e-12 </wgt>
<wgt id='1112'> +1.5590877e-12 </wgt>
<wgt id='1113'> +1.6033031e-12 </wgt>
<wgt id='1114'> +1.5666811e-12 </wgt>
<wgt id='1115'> +1.5580822e-12 </wgt>
<wgt id='1116'> +1.5786875e-12 </wgt>
<wgt id='1117'> +1.5314888e-12 </wgt>
<wgt id='1118'> +1.6431291e-12 </wgt>
<wgt id='1119'> +1.4899451e-12 </wgt>
<wgt id='1120'> +1.5283330e-12 </wgt>
<wgt id='1121'> +1.5369521e-12 </wgt>
<wgt id='1122'> +1.5637171e-12 </wgt>
<wgt id='1123'> +1.5427319e-12 </wgt>
<wgt id='1124'> +1.5342952e-12 </wgt>
<wgt id='1125'> +1.5354543e-12 </wgt>
<wgt id='1126'> +1.5640502e-12 </wgt>
<wgt id='1127'> +1.5630314e-12 </wgt>
<wgt id='1128'> +1.5792002e-12 </wgt>
<wgt id='1129'> +1.5599784e-12 </wgt>
<wgt id='1130'> +1.5654674e-12 </wgt>
<wgt id='1131'> +1.5541308e-12 </wgt>
<wgt id='1132'> +1.5755320e-12 </wgt>
<wgt id='1133'> +1.5513217e-12 </wgt>
<wgt id='1134'> +1.5577345e-12 </wgt>
<wgt id='1135'> +1.5270934e-12 </wgt>
<wgt id='1136'> +1.5455667e-12 </wgt>
<wgt id='1137'> +1.5621142e-12 </wgt>
<wgt id='1138'> +1.5550394e-12 </wgt>
<wgt id='1139'> +1.5615886e-12 </wgt>
<wgt id='1140'> +1.5865697e-12 </wgt>
<wgt id='1141'> +1.5789970e-12 </wgt>
<wgt id='1142'> +1.5340711e-12 </wgt>
<wgt id='1143'> +1.5770670e-12 </wgt>
<wgt id='1144'> +1.5540440e-12 </wgt>
<wgt id='1145'> +1.5914838e-12 </wgt>
<wgt id='1146'> +1.5819153e-12 </wgt>
<wgt id='1147'> +1.3217374e-12 </wgt>
<wgt id='1148'> +1.3479000e-12 </wgt>
<wgt id='1149'> +1.3233518e-12 </wgt>
<wgt id='1150'> +1.3402648e-12 </wgt>
<wgt id='1151'> +1.4781042e-12 </wgt>
<wgt id='1152'> +1.8133736e-12 </wgt>
<wgt id='1153'> +1.8063791e-12 </wgt>
<wgt id='1154'> +1.8174700e-12 </wgt>
<wgt id='1155'> +1.8111660e-12 </wgt>
<wgt id='1156'> +1.8145215e-12 </wgt>
<wgt id='1157'> +1.8162583e-12 </wgt>
<wgt id='1158'> +1.8094514e-12 </wgt>
<wgt id='1159'> +1.8159174e-12 </wgt>
<wgt id='1160'> +1.8118190e-12 </wgt>
<wgt id='1161'> +1.8102061e-12 </wgt>
<wgt id='1162'> +1.8155824e-12 </wgt>
<wgt id='1163'> +1.8162230e-12 </wgt>
<wgt id='1164'> +1.8105661e-12 </wgt>
<wgt id='1165'> +1.8076059e-12 </wgt>
<wgt id='1166'> +1.8187945e-12 </wgt>
<wgt id='1167'> +1.8230085e-12 </wgt>
<wgt id='1168'> +1.8001852e-12 </wgt>
<wgt id='1169'> +1.8155562e-12 </wgt>
<wgt id='1170'> +1.8117365e-12 </wgt>
<wgt id='1171'> +1.8058300e-12 </wgt>
<wgt id='1172'> +1.8225323e-12 </wgt>
<wgt id='1173'> +1.7993288e-12 </wgt>
<wgt id='1174'> +1.8267121e-12 </wgt>
<wgt id='1175'> +1.8157956e-12 </wgt>
<wgt id='1176'> +1.8105513e-12 </wgt>
<wgt id='1177'> +1.8124390e-12 </wgt>
<wgt id='1178'> +1.8160348e-12 </wgt>
<wgt id='1179'> +1.8160599e-12 </wgt>
<wgt id='1180'> +1.8040353e-12 </wgt>
<wgt id='1181'> +1.8118639e-12 </wgt>
<wgt id='1182'> +1.8143166e-12 </wgt>
<wgt id='1183'> +1.8084621e-12 </wgt>
<wgt id='1184'> +1.8137762e-12 </wgt>
<wgt id='1185'> +1.8087716e-12 </wgt>
<wgt id='1186'> +1.8164421e-12 </wgt>
<wgt id='1187'> +1.8139942e-12 </wgt>
<wgt id='1188'> +1.8131997e-12 </wgt>
<wgt id='1189'> +1.8097957e-12 </wgt>
<wgt id='1190'> +1.8010320e-12 </wgt>
<wgt id='1191'> +1.8092551e-12 </wgt>
<wgt id='1192'> +1.8151269e-12 </wgt>
<wgt id='1193'> +1.3198215e-12 </wgt>
<wgt id='1194'> +1.3164171e-12 </wgt>
<wgt id='1195'> +1.3226211e-12 </wgt>
<wgt id='1196'> +1.3251416e-12 </wgt>
<wgt id='1197'> +1.3138917e-12 </wgt>
<wgt id='1198'> +1.3196430e-12 </wgt>
<wgt id='1199'> +1.3200786e-12 </wgt>
<wgt id='1200'> +1.3199446e-12 </wgt>
<wgt id='1201'> +1.3197787e-12 </wgt>
<wgt id='1202'> +1.3184642e-12 </wgt>
<wgt id='1203'> +1.3217422e-12 </wgt>
<wgt id='1204'> +1.3118002e-12 </wgt>
<wgt id='1205'> +1.3247101e-12 </wgt>
<wgt id='1206'> +1.3232935e-12 </wgt>
<wgt id='1207'> +1.3150933e-12 </wgt>
<wgt id='1208'> +1.3160897e-12 </wgt>
<wgt id='1209'> +1.3211501e-12 </wgt>
<wgt id='1210'> +1.3191701e-12 </wgt>
<wgt id='1211'> +1.3133021e-12 </wgt>
<wgt id='1212'> +1.3210924e-12 </wgt>
<wgt id='1213'> +1.3186429e-12 </wgt>
<wgt id='1214'> +1.3053253e-12 </wgt>
<wgt id='1215'> +1.3429139e-12 </wgt>
<wgt id='1216'> +1.3221487e-12 </wgt>
<wgt id='1217'> +1.3177008e-12 </wgt>
<wgt id='1218'> +1.3245776e-12 </wgt>
<wgt id='1219'> +1.3173010e-12 </wgt>
<wgt id='1220'> +1.3249211e-12 </wgt>
<wgt id='1221'> +1.3183521e-12 </wgt>
<wgt id='1222'> +1.3277560e-12 </wgt>
<wgt id='1223'> +1.3064734e-12 </wgt>
<wgt id='1224'> +1.3223800e-12 </wgt>
<wgt id='1225'> +1.3188191e-12 </wgt>
<wgt id='1226'> +1.3174760e-12 </wgt>
<wgt id='1227'> +1.3215544e-12 </wgt>
<wgt id='1228'> +1.3082737e-12 </wgt>
<wgt id='1229'> +1.3247572e-12 </wgt>
<wgt id='1230'> +1.3153555e-12 </wgt>
<wgt id='1231'> +1.3192427e-12 </wgt>
<wgt id='1232'> +1.3170696e-12 </wgt>
<wgt id='1233'> +1.3205141e-12 </wgt>
<wgt id='1234'> +1.3198215e-12 </wgt>
<wgt id='1235'> +1.3115598e-12 </wgt>
<wgt id='1236'> +1.3146464e-12 </wgt>
<wgt id='1237'> +1.3174027e-12 </wgt>
<wgt id='1238'> +1.3219825e-12 </wgt>
<wgt id='1239'> +1.3238707e-12 </wgt>
<wgt id='1240'> +1.3257058e-12 </wgt>
<wgt id='1241'> +1.2825821e-12 </wgt>
<wgt id='1242'> +1.2759227e-12 </wgt>
<wgt id='1243'> +1.2892337e-12 </wgt>
<wgt id='1244'> +1.2774031e-12 </wgt>
<wgt id='1245'> +1.2864028e-12 </wgt>
<wgt id='1246'> +1.2816983e-12 </wgt>
<wgt id='1247'> +1.2833989e-12 </wgt>
<wgt id='1248'> +1.2825541e-12 </wgt>
<wgt id='1249'> +1.2826664e-12 </wgt>
<wgt id='1250'> +1.2841829e-12 </wgt>
<wgt id='1251'> +1.2814788e-12 </wgt>
<wgt id='1252'> +1.2802208e-12 </wgt>
<wgt id='1253'> +1.2844569e-12 </wgt>
<wgt id='1254'> +1.2751941e-12 </wgt>
<wgt id='1255'> +1.2870023e-12 </wgt>
<wgt id='1256'> +1.2848595e-12 </wgt>
<wgt id='1257'> +1.2767980e-12 </wgt>
<wgt id='1258'> +1.2994346e-12 </wgt>
<wgt id='1259'> +1.2666921e-12 </wgt>
<wgt id='1260'> +1.2853272e-12 </wgt>
<wgt id='1261'> +1.2796404e-12 </wgt>
<wgt id='1262'> +1.2800292e-12 </wgt>
<wgt id='1263'> +1.2834313e-12 </wgt>
<wgt id='1264'> +1.2886581e-12 </wgt>
<wgt id='1265'> +1.2795990e-12 </wgt>
<wgt id='1266'> +1.2713144e-12 </wgt>
<wgt id='1267'> +1.2924685e-12 </wgt>
<wgt id='1268'> +1.2860253e-12 </wgt>
<wgt id='1269'> +1.2810349e-12 </wgt>
<wgt id='1270'> +1.2765374e-12 </wgt>
<wgt id='1271'> +1.2795493e-12 </wgt>
<wgt id='1272'> +1.2812247e-12 </wgt>
<wgt id='1273'> +1.2826723e-12 </wgt>
<wgt id='1274'> +1.2841519e-12 </wgt>
<wgt id='1275'> +1.2796144e-12 </wgt>
<wgt id='1276'> +1.2900205e-12 </wgt>
<wgt id='1277'> +1.2719747e-12 </wgt>
<wgt id='1278'> +1.2839126e-12 </wgt>
<wgt id='1279'> +1.2822083e-12 </wgt>
<wgt id='1280'> +1.2834228e-12 </wgt>
<wgt id='1281'> +1.2787065e-12 </wgt>
<wgt id='1282'> +1.2825821e-12 </wgt>
<wgt id='1283'> +1.2746241e-12 </wgt>
<wgt id='1284'> +1.2777679e-12 </wgt>
<wgt id='1285'> +1.2804320e-12 </wgt>
<wgt id='1286'> +1.2848329e-12 </wgt>
<wgt id='1287'> +1.2865936e-12 </wgt>
<wgt id='1288'> +1.2880176e-12 </wgt>
<wgt id='1289'> +1.3978590e-12 </wgt>
<wgt id='1290'> +1.3961812e-12 </wgt>
<wgt id='1291'> +1.3996913e-12 </wgt>
<wgt id='1292'> +1.3950765e-12 </wgt>
<wgt id='1293'> +1.3998870e-12 </wgt>
<wgt id='1294'> +1.3903755e-12 </wgt>
<wgt id='1295'> +1.4051511e-12 </wgt>
<wgt id='1296'> +1.3953140e-12 </wgt>
<wgt id='1297'> +1.4009665e-12 </wgt>
<wgt id='1298'> +1.4017766e-12 </wgt>
<wgt id='1299'> +1.3930013e-12 </wgt>
<wgt id='1300'> +1.4001201e-12 </wgt>
<wgt id='1301'> +1.3933822e-12 </wgt>
<wgt id='1302'> +1.3957962e-12 </wgt>
<wgt id='1303'> +1.4007539e-12 </wgt>
<wgt id='1304'> +1.3954755e-12 </wgt>
<wgt id='1305'> +1.3994962e-12 </wgt>
<wgt id='1306'> +1.3933191e-12 </wgt>
<wgt id='1307'> +1.4029775e-12 </wgt>
<wgt id='1308'> +1.3932121e-12 </wgt>
<wgt id='1309'> +1.4014277e-12 </wgt>
<wgt id='1310'> +1.3964015e-12 </wgt>
<wgt id='1311'> +1.3995675e-12 </wgt>
<wgt id='1312'> +1.3977202e-12 </wgt>
<wgt id='1313'> +1.3979015e-12 </wgt>
<wgt id='1314'> +1.3905216e-12 </wgt>
<wgt id='1315'> +1.4013347e-12 </wgt>
<wgt id='1316'> +1.4055055e-12 </wgt>
<wgt id='1317'> +1.3964452e-12 </wgt>
<wgt id='1318'> +1.4084789e-12 </wgt>
<wgt id='1319'> +1.3850750e-12 </wgt>
<wgt id='1320'> +1.4070697e-12 </wgt>
<wgt id='1321'> +1.3903197e-12 </wgt>
<wgt id='1322'> +1.3973633e-12 </wgt>
<wgt id='1323'> +1.3983317e-12 </wgt>
<wgt id='1324'> +1.3922673e-12 </wgt>
<wgt id='1325'> +1.4157248e-12 </wgt>
<wgt id='1326'> +1.3978571e-12 </wgt>
<wgt id='1327'> +1.3997682e-12 </wgt>
<wgt id='1328'> +1.3983263e-12 </wgt>
<wgt id='1329'> +1.3972944e-12 </wgt>
<wgt id='1330'> +1.3979863e-12 </wgt>
<wgt id='1331'> +1.3997403e-12 </wgt>
<wgt id='1332'> +1.4144923e-12 </wgt>
<wgt id='1333'> +1.3904611e-12 </wgt>
<wgt id='1334'> +1.3954524e-12 </wgt>
<wgt id='1335'> +1.4053249e-12 </wgt>
<wgt id='1336'> +1.3942877e-12 </wgt>
<wgt id='1337'> +1.3997796e-12 </wgt>
<wgt id='1338'> +1.3947130e-12 </wgt>
<wgt id='1339'> +1.3985546e-12 </wgt>
<wgt id='1340'> +1.3737953e-12 </wgt>
<wgt id='1341'> +1.3721508e-12 </wgt>
<wgt id='1342'> +1.3755680e-12 </wgt>
<wgt id='1343'> +1.3708865e-12 </wgt>
<wgt id='1344'> +1.3757013e-12 </wgt>
<wgt id='1345'> +1.3662077e-12 </wgt>
<wgt id='1346'> +1.3809047e-12 </wgt>
<wgt id='1347'> +1.3716439e-12 </wgt>
<wgt id='1348'> +1.3761218e-12 </wgt>
<wgt id='1349'> +1.3773758e-12 </wgt>
<wgt id='1350'> +1.3702674e-12 </wgt>
<wgt id='1351'> +1.3758901e-12 </wgt>
<wgt id='1352'> +1.3692584e-12 </wgt>
<wgt id='1353'> +1.3710567e-12 </wgt>
<wgt id='1354'> +1.3786667e-12 </wgt>
<wgt id='1355'> +1.3717303e-12 </wgt>
<wgt id='1356'> +1.3749538e-12 </wgt>
<wgt id='1357'> +1.3681302e-12 </wgt>
<wgt id='1358'> +1.3803639e-12 </wgt>
<wgt id='1359'> +1.3704036e-12 </wgt>
<wgt id='1360'> +1.3767084e-12 </wgt>
<wgt id='1361'> +1.3725522e-12 </wgt>
<wgt id='1362'> +1.3755507e-12 </wgt>
<wgt id='1363'> +1.3754497e-12 </wgt>
<wgt id='1364'> +1.3728159e-12 </wgt>
<wgt id='1365'> +1.3739568e-12 </wgt>
<wgt id='1366'> +1.3672688e-12 </wgt>
<wgt id='1367'> +1.3812496e-12 </wgt>
<wgt id='1368'> +1.3720242e-12 </wgt>
<wgt id='1369'> +1.3829550e-12 </wgt>
<wgt id='1370'> +1.3627324e-12 </wgt>
<wgt id='1371'> +1.3809310e-12 </wgt>
<wgt id='1372'> +1.3654245e-12 </wgt>
<wgt id='1373'> +1.3714264e-12 </wgt>
<wgt id='1374'> +1.3757329e-12 </wgt>
<wgt id='1375'> +1.3683234e-12 </wgt>
<wgt id='1376'> +1.3925099e-12 </wgt>
<wgt id='1377'> +1.3735246e-12 </wgt>
<wgt id='1378'> +1.3761218e-12 </wgt>
<wgt id='1379'> +1.3740713e-12 </wgt>
<wgt id='1380'> +1.3732735e-12 </wgt>
<wgt id='1381'> +1.3743195e-12 </wgt>
<wgt id='1382'> +1.3746241e-12 </wgt>
<wgt id='1383'> +1.3891792e-12 </wgt>
<wgt id='1384'> +1.3680548e-12 </wgt>
<wgt id='1385'> +1.3717325e-12 </wgt>
<wgt id='1386'> +1.3797768e-12 </wgt>
<wgt id='1387'> +1.3687710e-12 </wgt>
<wgt id='1388'> +1.3759288e-12 </wgt>
<wgt id='1389'> +1.3690456e-12 </wgt>
<wgt id='1390'> +1.3748481e-12 </wgt>
<wgt id='1391'> +1.3474764e-12 </wgt>
<wgt id='1392'> +1.3143086e-12 </wgt>
<wgt id='1393'> +1.3254212e-12 </wgt>
<wgt id='1394'> +1.3373280e-12 </wgt>
<wgt id='1395'> +1.3594597e-12 </wgt>
<wgt id='1396'> +1.3486797e-12 </wgt>
<wgt id='1397'> +1.3181417e-12 </wgt>
<wgt id='1398'> +1.3242074e-12 </wgt>
<wgt id='1399'> +1.3296629e-12 </wgt>
<wgt id='1400'> +1.3356247e-12 </wgt>
<wgt id='1401'> +1.3421948e-12 </wgt>
<wgt id='1402'> +1.3550704e-12 </wgt>
<wgt id='1403'> +1.3615595e-12 </wgt>
<wgt id='1404'> +1.3679367e-12 </wgt>
<wgt id='1405'> +1.3486797e-12 </wgt>
<wgt id='1406'> +1.3439749e-12 </wgt>
<wgt id='1407'> +1.3465105e-12 </wgt>
<wgt id='1408'> +1.3506233e-12 </wgt>
<wgt id='1409'> +1.3527795e-12 </wgt>
<wgt id='1410'> +1.3017421e-12 </wgt>
<wgt id='1411'> +1.3007270e-12 </wgt>
<wgt id='1412'> +1.3029960e-12 </wgt>
<wgt id='1413'> +1.3008466e-12 </wgt>
<wgt id='1414'> +1.3026071e-12 </wgt>
<wgt id='1415'> +1.2971934e-12 </wgt>
<wgt id='1416'> +1.3035323e-12 </wgt>
<wgt id='1417'> +1.2939050e-12 </wgt>
<wgt id='1418'> +1.3095332e-12 </wgt>
<wgt id='1419'> +1.3031929e-12 </wgt>
<wgt id='1420'> +1.3003672e-12 </wgt>
<wgt id='1421'> +1.2911212e-12 </wgt>
<wgt id='1422'> +1.3063190e-12 </wgt>
<wgt id='1423'> +1.3013925e-12 </wgt>
<wgt id='1424'> +1.3021586e-12 </wgt>
<wgt id='1425'> +1.2963475e-12 </wgt>
<wgt id='1426'> +1.3075599e-12 </wgt>
<wgt id='1427'> +1.2869385e-12 </wgt>
<wgt id='1428'> +1.3097660e-12 </wgt>
<wgt id='1429'> +1.3023277e-12 </wgt>
<wgt id='1430'> +1.3009577e-12 </wgt>
<wgt id='1431'> +1.3013110e-12 </wgt>
<wgt id='1432'> +1.3019482e-12 </wgt>
<wgt id='1433'> +1.2986899e-12 </wgt>
<wgt id='1434'> +1.3032071e-12 </wgt>
<wgt id='1435'> +1.3000682e-12 </wgt>
<wgt id='1436'> +1.3056175e-12 </wgt>
<wgt id='1437'> +1.3089097e-12 </wgt>
<wgt id='1438'> +1.3001193e-12 </wgt>
<wgt id='1439'> +1.2962758e-12 </wgt>
<wgt id='1440'> +1.3138395e-12 </wgt>
<wgt id='1441'> +1.3033740e-12 </wgt>
<wgt id='1442'> +1.2994384e-12 </wgt>
<wgt id='1443'> +1.2976629e-12 </wgt>
<wgt id='1444'> +1.3111553e-12 </wgt>
<wgt id='1445'> +1.3191557e-12 </wgt>
<wgt id='1446'> +1.2956286e-12 </wgt>
<wgt id='1447'> +1.3007164e-12 </wgt>
<wgt id='1448'> +1.3056446e-12 </wgt>
<wgt id='1449'> +1.3025760e-12 </wgt>
<wgt id='1450'> +1.3008379e-12 </wgt>
<wgt id='1451'> +1.3018034e-12 </wgt>
<wgt id='1452'> +1.3005755e-12 </wgt>
<wgt id='1453'> +1.3026494e-12 </wgt>
<wgt id='1454'> +1.2942322e-12 </wgt>
<wgt id='1455'> +1.3008350e-12 </wgt>
<wgt id='1456'> +1.3031722e-12 </wgt>
<wgt id='1457'> +1.3041029e-12 </wgt>
<wgt id='1458'> +1.3007587e-12 </wgt>
<wgt id='1459'> +1.3055892e-12 </wgt>
<wgt id='1460'> +1.2994654e-12 </wgt>
<wgt id='1461'> +1.3017421e-12 </wgt>
<wgt id='1462'> +1.2924322e-12 </wgt>
<wgt id='1463'> +1.3091939e-12 </wgt>
<wgt id='1464'> +1.3016418e-12 </wgt>
<wgt id='1465'> +1.2734235e-12 </wgt>
<wgt id='1466'> +1.2788872e-12 </wgt>
<wgt id='1467'> +1.2850617e-12 </wgt>
<wgt id='1468'> +1.2905902e-12 </wgt>
<wgt id='1469'> +1.2958880e-12 </wgt>
<wgt id='1470'> +1.3077697e-12 </wgt>
<wgt id='1471'> +1.3125387e-12 </wgt>
<wgt id='1472'> +1.3183403e-12 </wgt>
<wgt id='1473'> +1.3016418e-12 </wgt>
<wgt id='1474'> +1.2970614e-12 </wgt>
<wgt id='1475'> +1.2990976e-12 </wgt>
<wgt id='1476'> +1.3035545e-12 </wgt>
<wgt id='1477'> +1.3052842e-12 </wgt>
<wgt id='1478'> +1.3081272e-12 </wgt>
<wgt id='1479'> +1.3054895e-12 </wgt>
<wgt id='1480'> +1.2978728e-12 </wgt>
<wgt id='1481'> +1.3098309e-12 </wgt>
<wgt id='1482'> +1.3052369e-12 </wgt>
<wgt id='1483'> +1.2966093e-12 </wgt>
<wgt id='1484'> +1.3072731e-12 </wgt>
<wgt id='1485'> +1.3034421e-12 </wgt>
<wgt id='1486'> +1.3081331e-12 </wgt>
<wgt id='1487'> +1.3086426e-12 </wgt>
<wgt id='1488'> +1.3064711e-12 </wgt>
<wgt id='1489'> +1.3186476e-12 </wgt>
<wgt id='1490'> +1.3033732e-12 </wgt>
<wgt id='1491'> +1.3092495e-12 </wgt>
<wgt id='1492'> +1.3123741e-12 </wgt>
<wgt id='1493'> +1.2901049e-12 </wgt>
<wgt id='1494'> +1.3113334e-12 </wgt>
<wgt id='1495'> +1.2925496e-12 </wgt>
<wgt id='1496'> +1.3070803e-12 </wgt>
<wgt id='1497'> +1.3082616e-12 </wgt>
<wgt id='1498'> +1.3088004e-12 </wgt>
<wgt id='1499'> +1.3087839e-12 </wgt>
<wgt id='1500'> +1.3071233e-12 </wgt>
<wgt id='1501'> +1.3089942e-12 </wgt>
<wgt id='1502'> +1.3122508e-12 </wgt>
<wgt id='1503'> +1.3096636e-12 </wgt>
<wgt id='1504'> +1.3069430e-12 </wgt>
<wgt id='1505'> +1.3081674e-12 </wgt>
<wgt id='1506'> +1.3072080e-12 </wgt>
<wgt id='1507'> +1.3072917e-12 </wgt>
<wgt id='1508'> +1.3127751e-12 </wgt>
<wgt id='1509'> +1.3244282e-12 </wgt>
<wgt id='1510'> +1.3233903e-12 </wgt>
<wgt id='1511'> +1.3261287e-12 </wgt>
<wgt id='1512'> +1.3236925e-12 </wgt>
<wgt id='1513'> +1.3237826e-12 </wgt>
<wgt id='1514'> +1.3277168e-12 </wgt>
<wgt id='1515'> +1.3264337e-12 </wgt>
<wgt id='1516'> +1.3282877e-12 </wgt>
<wgt id='1517'> +1.3310117e-12 </wgt>
<wgt id='1518'> +1.3246174e-12 </wgt>
<wgt id='1519'> +1.3189223e-12 </wgt>
<wgt id='1520'> +1.3282125e-12 </wgt>
<wgt id='1521'> +1.3284052e-12 </wgt>
<wgt id='1522'> +1.3240736e-12 </wgt>
<wgt id='1523'> +1.3298740e-12 </wgt>
<wgt id='1524'> +1.3264756e-12 </wgt>
<wgt id='1525'> +1.3300825e-12 </wgt>
<wgt id='1526'> +1.3228024e-12 </wgt>
<wgt id='1527'> +1.3216181e-12 </wgt>
<wgt id='1528'> +1.3257145e-12 </wgt>
<wgt id='1529'> +1.3240469e-12 </wgt>
<wgt id='1530'> +1.3294311e-12 </wgt>
<wgt id='1531'> +1.3267460e-12 </wgt>
<wgt id='1532'> +1.3188210e-12 </wgt>
<wgt id='1533'> +1.3244777e-12 </wgt>
<wgt id='1534'> +1.3272339e-12 </wgt>
<wgt id='1535'> +1.3161443e-12 </wgt>
<wgt id='1536'> +1.3227526e-12 </wgt>
<wgt id='1537'> +1.3220711e-12 </wgt>
<wgt id='1538'> +1.3231914e-12 </wgt>
<wgt id='1539'> +1.3342112e-12 </wgt>
<wgt id='1540'> +1.3269839e-12 </wgt>
<wgt id='1541'> +1.3238629e-12 </wgt>
<wgt id='1542'> +1.3221663e-12 </wgt>
<wgt id='1543'> +1.3255898e-12 </wgt>
<wgt id='1544'> +1.3247589e-12 </wgt>
<wgt id='1545'> +1.3230001e-12 </wgt>
<wgt id='1546'> +1.3208509e-12 </wgt>
<wgt id='1547'> +1.3248938e-12 </wgt>
<wgt id='1548'> +1.3233378e-12 </wgt>
<wgt id='1549'> +1.3238668e-12 </wgt>
<wgt id='1550'> +1.3246931e-12 </wgt>
<wgt id='1551'> +1.3257313e-12 </wgt>
<wgt id='1552'> +1.3257663e-12 </wgt>
<wgt id='1553'> +1.3231354e-12 </wgt>
<wgt id='1554'> +1.3253517e-12 </wgt>
<wgt id='1555'> +1.3252649e-12 </wgt>
<wgt id='1556'> +1.3235908e-12 </wgt>
<wgt id='1557'> +1.3272412e-12 </wgt>
<wgt id='1558'> +1.3212334e-12 </wgt>
<wgt id='1559'> +1.3239729e-12 </wgt>
<wgt id='1560'> +1.3261302e-12 </wgt>
<wgt id='1561'> +1.3235869e-12 </wgt>
<wgt id='1562'> +1.3256759e-12 </wgt>
<wgt id='1563'> +1.3255966e-12 </wgt>
<wgt id='1564'> +1.3264741e-12 </wgt>
<wgt id='1565'> +1.3228126e-12 </wgt>
<wgt id='1566'> +1.3252815e-12 </wgt>
<wgt id='1567'> +1.3258152e-12 </wgt>
<wgt id='1568'> +1.3228663e-12 </wgt>
<wgt id='1569'> +1.3241952e-12 </wgt>
<wgt id='1570'> +1.3245446e-12 </wgt>
<wgt id='1571'> +1.3240056e-12 </wgt>
<wgt id='1572'> +1.3237311e-12 </wgt>
<wgt id='1573'> +1.3241257e-12 </wgt>
<wgt id='1574'> +1.3236547e-12 </wgt>
<wgt id='1575'> +1.3246429e-12 </wgt>
<wgt id='1576'> +1.3242331e-12 </wgt>
<wgt id='1577'> +1.3257511e-12 </wgt>
<wgt id='1578'> +1.3256039e-12 </wgt>
<wgt id='1579'> +1.3239100e-12 </wgt>
<wgt id='1580'> +1.3235351e-12 </wgt>
<wgt id='1581'> +1.3259030e-12 </wgt>
<wgt id='1582'> +1.3259896e-12 </wgt>
<wgt id='1583'> +1.3243841e-12 </wgt>
<wgt id='1584'> +1.3250622e-12 </wgt>
<wgt id='1585'> +1.3244719e-12 </wgt>
<wgt id='1586'> +1.3247237e-12 </wgt>
<wgt id='1587'> +1.3254190e-12 </wgt>
<wgt id='1588'> +1.3247211e-12 </wgt>
<wgt id='1589'> +1.3245353e-12 </wgt>
<wgt id='1590'> +1.3242386e-12 </wgt>
<wgt id='1591'> +1.3241240e-12 </wgt>
<wgt id='1592'> +1.3249816e-12 </wgt>
<wgt id='1593'> +1.3233022e-12 </wgt>
<wgt id='1594'> +1.3239522e-12 </wgt>
<wgt id='1595'> +1.3243391e-12 </wgt>
<wgt id='1596'> +1.3238286e-12 </wgt>
<wgt id='1597'> +1.3242678e-12 </wgt>
<wgt id='1598'> +1.3242628e-12 </wgt>
<wgt id='1599'> +1.3240208e-12 </wgt>
<wgt id='1600'> +1.3255097e-12 </wgt>
<wgt id='1601'> +1.3238142e-12 </wgt>
<wgt id='1602'> +1.3243009e-12 </wgt>
<wgt id='1603'> +1.3236406e-12 </wgt>
<wgt id='1604'> +1.3241709e-12 </wgt>
<wgt id='1605'> +1.3246276e-12 </wgt>
<wgt id='1606'> +1.3243628e-12 </wgt>
<wgt id='1607'> +1.3252008e-12 </wgt>
<wgt id='1608'> +1.3245014e-12 </wgt>
<wgt id='1609'> +1.3242047e-12 </wgt>
<wgt id='1610'> +1.3127753e-12 </wgt>
<wgt id='1611'> +1.3351811e-12 </wgt>
<wgt id='1612'> +1.5353396e-12 </wgt>
<wgt id='1613'> +1.5058096e-12 </wgt>
<wgt id='1614'> +1.5306636e-12 </wgt>
<wgt id='1615'> +1.5406953e-12 </wgt>
<wgt id='1616'> +1.5178774e-12 </wgt>
<wgt id='1617'> +1.5454162e-12 </wgt>
<wgt id='1618'> +1.5569227e-12 </wgt>
<wgt id='1619'> +1.5334806e-12 </wgt>
<wgt id='1620'> +1.4841478e-12 </wgt>
<wgt id='1621'> +1.5629460e-12 </wgt>
<wgt id='1622'> +1.5326043e-12 </wgt>
<wgt id='1623'> +1.5162411e-12 </wgt>
<wgt id='1624'> +1.5158008e-12 </wgt>
<wgt id='1625'> +1.5418131e-12 </wgt>
<wgt id='1626'> +1.5194971e-12 </wgt>
<wgt id='1627'> +1.5181339e-12 </wgt>
<wgt id='1628'> +1.5140150e-12 </wgt>
<wgt id='1629'> +1.5809056e-12 </wgt>
<wgt id='1630'> +1.5244587e-12 </wgt>
<wgt id='1631'> +1.5378288e-12 </wgt>
<wgt id='1632'> +1.5108353e-12 </wgt>
<wgt id='1633'> +1.5003745e-12 </wgt>
<wgt id='1634'> +1.5695254e-12 </wgt>
<wgt id='1635'> +1.5528633e-12 </wgt>
<wgt id='1636'> +1.5758381e-12 </wgt>
<wgt id='1637'> +1.5302071e-12 </wgt>
<wgt id='1638'> +1.5672561e-12 </wgt>
<wgt id='1639'> +1.5090059e-12 </wgt>
<wgt id='1640'> +1.5546126e-12 </wgt>
<wgt id='1641'> +1.5132487e-12 </wgt>
<wgt id='1642'> +1.5481901e-12 </wgt>
<wgt id='1643'> +1.5107019e-12 </wgt>
<wgt id='1644'> +1.5429863e-12 </wgt>
<wgt id='1645'> +1.5618899e-12 </wgt>
<wgt id='1646'> +1.5276881e-12 </wgt>
<wgt id='1647'> +1.5291412e-12 </wgt>
<wgt id='1648'> +1.5825767e-12 </wgt>
<wgt id='1649'> +1.5411835e-12 </wgt>
<wgt id='1650'> +1.5160076e-12 </wgt>
<wgt id='1651'> +1.4894569e-12 </wgt>
<wgt id='1652'> +1.5071782e-12 </wgt>
<wgt id='1653'> +1.5460523e-12 </wgt>
<wgt id='1654'> +1.5369368e-12 </wgt>
<wgt id='1655'> +1.5070601e-12 </wgt>
<wgt id='1656'> +1.5229754e-12 </wgt>
<wgt id='1657'> +1.4997671e-12 </wgt>
<wgt id='1658'> +1.5215293e-12 </wgt>
<wgt id='1659'> +1.5158008e-12 </wgt>
<wgt id='1660'> +1.5823861e-12 </wgt>
<wgt id='1661'> +1.5494230e-12 </wgt>
<wgt id='1662'> +1.5451990e-12 </wgt>
<wgt id='1663'> +1.5332095e-12 </wgt>
<wgt id='1664'> +1.5441230e-12 </wgt>
<wgt id='1665'> +1.5037793e-12 </wgt>
<wgt id='1666'> +1.5192092e-12 </wgt>
<wgt id='1667'> +1.5140000e-12 </wgt>
<wgt id='1668'> +1.5494898e-12 </wgt>
<wgt id='1669'> +1.5612290e-12 </wgt>
<wgt id='1670'> +1.5673431e-12 </wgt>
<wgt id='1671'> +1.5756991e-12 </wgt>
<wgt id='1672'> +1.5841666e-12 </wgt>
<wgt id='1673'> +1.5114565e-12 </wgt>
<wgt id='1674'> +1.4804364e-12 </wgt>
<wgt id='1675'> +1.5746916e-12 </wgt>
<wgt id='1676'> +1.5574890e-12 </wgt>
<wgt id='1677'> +1.6026973e-12 </wgt>
<wgt id='1678'> +1.5285699e-12 </wgt>
<wgt id='1679'> +1.5144217e-12 </wgt>
<wgt id='1680'> +1.5448655e-12 </wgt>
<wgt id='1681'> +1.5509935e-12 </wgt>
<wgt id='1682'> +1.5485803e-12 </wgt>
<wgt id='1683'> +1.4910084e-12 </wgt>
<wgt id='1684'> +1.5346561e-12 </wgt>
<wgt id='1685'> +1.5148863e-12 </wgt>
<wgt id='1686'> +1.5394278e-12 </wgt>
<wgt id='1687'> +1.5609862e-12 </wgt>
<wgt id='1688'> +1.5260636e-12 </wgt>
<wgt id='1689'> +1.5452272e-12 </wgt>
<wgt id='1690'> +1.5690610e-12 </wgt>
<wgt id='1691'> +1.5657112e-12 </wgt>
<wgt id='1692'> +1.5854840e-12 </wgt>
<wgt id='1693'> +1.5593601e-12 </wgt>
<wgt id='1694'> +1.5434360e-12 </wgt>
<wgt id='1695'> +1.5961539e-12 </wgt>
<wgt id='1696'> +1.5648484e-12 </wgt>
<wgt id='1697'> +1.5104404e-12 </wgt>
<wgt id='1698'> +1.5174721e-12 </wgt>
<wgt id='1699'> +1.5271959e-12 </wgt>
<wgt id='1700'> +1.5202543e-12 </wgt>
<wgt id='1701'> +1.5388271e-12 </wgt>
<wgt id='1702'> +1.5218333e-12 </wgt>
<wgt id='1703'> +1.5653993e-12 </wgt>
<wgt id='1704'> +1.5276009e-12 </wgt>
<wgt id='1705'> +1.4767828e-12 </wgt>
<wgt id='1706'> +1.5409496e-12 </wgt>
<wgt id='1707'> +1.5004011e-12 </wgt>
<wgt id='1708'> +1.5152006e-12 </wgt>
<wgt id='1709'> +1.5342724e-12 </wgt>
<wgt id='1710'> +1.4996719e-12 </wgt>
<wgt id='1711'> +1.5017983e-12 </wgt>
<wgt id='1712'> +1.5275712e-12 </wgt>
<wgt id='1713'> +1.2644101e-12 </wgt>
<wgt id='1714'> +1.2301568e-12 </wgt>
<wgt id='1715'> +1.2617760e-12 </wgt>
<wgt id='1716'> +1.2670893e-12 </wgt>
<wgt id='1717'> +1.2557266e-12 </wgt>
<wgt id='1718'> +1.2703002e-12 </wgt>
<wgt id='1719'> +1.2573896e-12 </wgt>
<wgt id='1720'> +1.2693375e-12 </wgt>
<wgt id='1721'> +1.2305573e-12 </wgt>
<wgt id='1722'> +1.2452039e-12 </wgt>
<wgt id='1723'> +1.2562572e-12 </wgt>
<wgt id='1724'> +1.3427296e-12 </wgt>
<wgt id='1725'> +1.2591974e-12 </wgt>
<wgt id='1726'> +1.2666627e-12 </wgt>
<wgt id='1727'> +1.2882471e-12 </wgt>
<wgt id='1728'> +1.2675161e-12 </wgt>
<wgt id='1729'> +1.2318516e-12 </wgt>
<wgt id='1730'> +1.2660773e-12 </wgt>
<wgt id='1731'> +1.2123723e-12 </wgt>
<wgt id='1732'> +1.2784245e-12 </wgt>
<wgt id='1733'> +1.2371103e-12 </wgt>
<wgt id='1734'> +1.2888933e-12 </wgt>
<wgt id='1735'> +1.2647548e-12 </wgt>
<wgt id='1736'> +1.3115298e-12 </wgt>
<wgt id='1737'> +1.2887353e-12 </wgt>
<wgt id='1738'> +1.2789939e-12 </wgt>
<wgt id='1739'> +1.2323365e-12 </wgt>
<wgt id='1740'> +1.2234991e-12 </wgt>
<wgt id='1741'> +1.3060834e-12 </wgt>
<wgt id='1742'> +1.2512288e-12 </wgt>
<wgt id='1743'> +1.2597480e-12 </wgt>
<wgt id='1744'> +1.2797593e-12 </wgt>
<wgt id='1745'> +1.2504181e-12 </wgt>
<wgt id='1746'> +1.2677094e-12 </wgt>
<wgt id='1747'> +1.2703816e-12 </wgt>
<wgt id='1748'> +1.2439498e-12 </wgt>
<wgt id='1749'> +1.2555926e-12 </wgt>
<wgt id='1750'> +1.2550828e-12 </wgt>
<wgt id='1751'> +1.2385394e-12 </wgt>
<wgt id='1752'> +1.2485379e-12 </wgt>
<wgt id='1753'> +1.2772513e-12 </wgt>
<wgt id='1754'> +1.2849336e-12 </wgt>
<wgt id='1755'> +1.2868682e-12 </wgt>
<wgt id='1756'> +1.2807769e-12 </wgt>
<wgt id='1757'> +1.2508795e-12 </wgt>
<wgt id='1758'> +1.2843655e-12 </wgt>
<wgt id='1759'> +1.2654176e-12 </wgt>
<wgt id='1760'> +1.2427276e-12 </wgt>
<wgt id='1761'> +1.2517860e-12 </wgt>
<wgt id='1762'> +1.2350571e-12 </wgt>
<wgt id='1763'> +1.2743874e-12 </wgt>
<wgt id='1764'> +1.2863890e-12 </wgt>
<wgt id='1765'> +1.2490728e-12 </wgt>
<wgt id='1766'> +1.2779744e-12 </wgt>
<wgt id='1767'> +1.2765717e-12 </wgt>
<wgt id='1768'> +1.2696781e-12 </wgt>
<wgt id='1769'> +1.2495020e-12 </wgt>
<wgt id='1770'> +1.2498066e-12 </wgt>
<wgt id='1771'> +1.2834977e-12 </wgt>
<wgt id='1772'> +1.2690160e-12 </wgt>
<wgt id='1773'> +1.2554443e-12 </wgt>
<wgt id='1774'> +1.2408183e-12 </wgt>
<wgt id='1775'> +1.2712410e-12 </wgt>
<wgt id='1776'> +1.3050824e-12 </wgt>
<wgt id='1777'> +1.2244235e-12 </wgt>
<wgt id='1778'> +1.2531127e-12 </wgt>
<wgt id='1779'> +1.2825662e-12 </wgt>
<wgt id='1780'> +1.2809544e-12 </wgt>
<wgt id='1781'> +1.2575576e-12 </wgt>
<wgt id='1782'> +1.2672102e-12 </wgt>
<wgt id='1783'> +1.2600662e-12 </wgt>
<wgt id='1784'> +1.2777216e-12 </wgt>
<wgt id='1785'> +1.2707918e-12 </wgt>
<wgt id='1786'> +1.2601357e-12 </wgt>
<wgt id='1787'> +1.2957589e-12 </wgt>
<wgt id='1788'> +1.2790424e-12 </wgt>
<wgt id='1789'> +1.2978956e-12 </wgt>
<wgt id='1790'> +1.2892630e-12 </wgt>
<wgt id='1791'> +1.2751798e-12 </wgt>
<wgt id='1792'> +1.2529840e-12 </wgt>
<wgt id='1793'> +1.2627139e-12 </wgt>
<wgt id='1794'> +1.2825833e-12 </wgt>
<wgt id='1795'> +1.2702564e-12 </wgt>
<wgt id='1796'> +1.2426877e-12 </wgt>
<wgt id='1797'> +1.2627910e-12 </wgt>
<wgt id='1798'> +1.2717727e-12 </wgt>
<wgt id='1799'> +1.2815801e-12 </wgt>
<wgt id='1800'> +1.2915602e-12 </wgt>
<wgt id='1801'> +1.2632092e-12 </wgt>
<wgt id='1802'> +1.2554444e-12 </wgt>
<wgt id='1803'> +1.2943376e-12 </wgt>
<wgt id='1804'> +1.2410096e-12 </wgt>
<wgt id='1805'> +1.2324327e-12 </wgt>
<wgt id='1806'> +1.2350463e-12 </wgt>
<wgt id='1807'> +1.2980701e-12 </wgt>
<wgt id='1808'> +1.2509052e-12 </wgt>
<wgt id='1809'> +1.2623753e-12 </wgt>
<wgt id='1810'> +1.2490572e-12 </wgt>
<wgt id='1811'> +1.2765409e-12 </wgt>
<wgt id='1812'> +1.2482052e-12 </wgt>
<wgt id='1813'> +1.2194947e-12 </wgt>
<wgt id='1814'> +1.4849036e-12 </wgt>
<wgt id='1815'> +1.7134273e-12 </wgt>
<wgt id='1816'> +1.2644101e-12 </wgt>
<wgt id='1817'> +1.2301568e-12 </wgt>
<wgt id='1818'> +1.2617760e-12 </wgt>
<wgt id='1819'> +1.2670893e-12 </wgt>
<wgt id='1820'> +1.2557266e-12 </wgt>
<wgt id='1821'> +1.2703002e-12 </wgt>
<wgt id='1822'> +1.2573896e-12 </wgt>
<wgt id='1823'> +1.2693375e-12 </wgt>
<wgt id='1824'> +1.2305573e-12 </wgt>
<wgt id='1825'> +1.2452039e-12 </wgt>
<wgt id='1826'> +1.2562572e-12 </wgt>
<wgt id='1827'> +1.3427296e-12 </wgt>
<wgt id='1828'> +1.2591974e-12 </wgt>
<wgt id='1829'> +1.2666627e-12 </wgt>
<wgt id='1830'> +1.2882471e-12 </wgt>
<wgt id='1831'> +1.2675161e-12 </wgt>
<wgt id='1832'> +1.2318516e-12 </wgt>
<wgt id='1833'> +1.2660773e-12 </wgt>
<wgt id='1834'> +1.2123723e-12 </wgt>
<wgt id='1835'> +1.2784245e-12 </wgt>
<wgt id='1836'> +1.2371103e-12 </wgt>
<wgt id='1837'> +1.2888933e-12 </wgt>
<wgt id='1838'> +1.2647548e-12 </wgt>
<wgt id='1839'> +1.3115298e-12 </wgt>
<wgt id='1840'> +1.2887353e-12 </wgt>
<wgt id='1841'> +1.2789939e-12 </wgt>
<wgt id='1842'> +1.2323365e-12 </wgt>
<wgt id='1843'> +1.2234991e-12 </wgt>
<wgt id='1844'> +1.3060834e-12 </wgt>
<wgt id='1845'> +1.2512288e-12 </wgt>
<wgt id='1846'> +1.2597480e-12 </wgt>
<wgt id='1847'> +1.2797593e-12 </wgt>
<wgt id='1848'> +1.2504181e-12 </wgt>
<wgt id='1849'> +1.2677094e-12 </wgt>
<wgt id='1850'> +1.2703816e-12 </wgt>
<wgt id='1851'> +1.2439498e-12 </wgt>
<wgt id='1852'> +1.2555926e-12 </wgt>
<wgt id='1853'> +1.2550828e-12 </wgt>
<wgt id='1854'> +1.2385394e-12 </wgt>
<wgt id='1855'> +1.2485379e-12 </wgt>
<wgt id='1856'> +1.2772513e-12 </wgt>
<wgt id='1857'> +1.2849336e-12 </wgt>
<wgt id='1858'> +1.2868682e-12 </wgt>
<wgt id='1859'> +1.2807769e-12 </wgt>
<wgt id='1860'> +1.2508795e-12 </wgt>
<wgt id='1861'> +1.2843655e-12 </wgt>
<wgt id='1862'> +1.2654176e-12 </wgt>
<wgt id='1863'> +1.2427276e-12 </wgt>
<wgt id='1864'> +1.2517860e-12 </wgt>
<wgt id='1865'> +1.2350571e-12 </wgt>
<wgt id='1866'> +1.2743874e-12 </wgt>
<wgt id='1867'> +1.2863890e-12 </wgt>
<wgt id='1868'> +1.2490728e-12 </wgt>
<wgt id='1869'> +1.2779744e-12 </wgt>
<wgt id='1870'> +1.2765717e-12 </wgt>
<wgt id='1871'> +1.2696781e-12 </wgt>
<wgt id='1872'> +1.2495020e-12 </wgt>
<wgt id='1873'> +1.2498066e-12 </wgt>
<wgt id='1874'> +1.2834977e-12 </wgt>
<wgt id='1875'> +1.2690160e-12 </wgt>
<wgt id='1876'> +1.2554443e-12 </wgt>
<wgt id='1877'> +1.2408183e-12 </wgt>
<wgt id='1878'> +1.2712410e-12 </wgt>
<wgt id='1879'> +1.3050824e-12 </wgt>
<wgt id='1880'> +1.2244235e-12 </wgt>
<wgt id='1881'> +1.2531127e-12 </wgt>
<wgt id='1882'> +1.2825662e-12 </wgt>
<wgt id='1883'> +1.2809544e-12 </wgt>
<wgt id='1884'> +1.2575576e-12 </wgt>
<wgt id='1885'> +1.2672102e-12 </wgt>
<wgt id='1886'> +1.2600662e-12 </wgt>
<wgt id='1887'> +1.2777216e-12 </wgt>
<wgt id='1888'> +1.2707918e-12 </wgt>
<wgt id='1889'> +1.2601357e-12 </wgt>
<wgt id='1890'> +1.2957589e-12 </wgt>
<wgt id='1891'> +1.2790424e-12 </wgt>
<wgt id='1892'> +1.2978956e-12 </wgt>
<wgt id='1893'> +1.2892630e-12 </wgt>
<wgt id='1894'> +1.2751798e-12 </wgt>
<wgt id='1895'> +1.2529840e-12 </wgt>
<wgt id='1896'> +1.2627139e-12 </wgt>
<wgt id='1897'> +1.2825833e-12 </wgt>
<wgt id='1898'> +1.2702564e-12 </wgt>
<wgt id='1899'> +1.2426877e-12 </wgt>
<wgt id='1900'> +1.2627910e-12 </wgt>
<wgt id='1901'> +1.2717727e-12 </wgt>
<wgt id='1902'> +1.2815801e-12 </wgt>
<wgt id='1903'> +1.2915602e-12 </wgt>
<wgt id='1904'> +1.2632092e-12 </wgt>
<wgt id='1905'> +1.2554444e-12 </wgt>
<wgt id='1906'> +1.2943376e-12 </wgt>
<wgt id='1907'> +1.2410096e-12 </wgt>
<wgt id='1908'> +1.2324327e-12 </wgt>
<wgt id='1909'> +1.2350463e-12 </wgt>
<wgt id='1910'> +1.2980701e-12 </wgt>
<wgt id='1911'> +1.2509052e-12 </wgt>
<wgt id='1912'> +1.2623753e-12 </wgt>
<wgt id='1913'> +1.2490572e-12 </wgt>
<wgt id='1914'> +1.2765409e-12 </wgt>
<wgt id='1915'> +1.2482052e-12 </wgt>
<wgt id='1916'> +1.2194947e-12 </wgt>
<wgt id='1917'> +1.2523505e-12 </wgt>
<wgt id='1918'> +1.2699892e-12 </wgt>
<wgt id='1919'> +1.2706454e-12 </wgt>
</rwgt>
</event>
<event>
 9      1 +1.5607000e-12 3.51333900e+01 7.81860800e-03 1.40380600e-01
       21 -1    0    0  501  502 +0.0000000000e+00 +0.0000000000e+00 +1.6931545432e+00 1.6931545432e+00 0.0000000000e+00 0.0000e+00 1.0000e+00
        2 -1    0    0  502    0 -0.0000000000e+00 -0.0000000000e+00 -8.0315389313e+02 8.0315389313e+02 0.0000000000e+00 0.0000e+00 -1.0000e+00
     1023  2    1    2    0    0 +3.0648415228e+01 -8.3675963974e+00 -2.4812665788e+02 2.5060166258e+02 1.5000430384e+01 0.0000e+00 0.0000e+00
  1000023  2    3    3    0    0 +1.4723103289e+01 +1.4020245841e+00 -1.1492763303e+02 1.1600581838e+02 5.5003291836e+00 0.0000e+00 0.0000e+00
        2  1    1    2  501    0 -3.0648415228e+01 +8.3675963974e+00 -5.5333408071e+02 5.5424538509e+02 0.0000000000e+00 0.0000e+00 -1.0000e+00
  1000022  1    4    4    0    0 +1.3624342671e+01 +9.9841206498e-01 -1.0824779321e+02 1.0922089670e+02 5.0000000000e+00 0.0000e+00 1.0000e+00
      -11  1    4    4    0    0 +5.5283098313e-01 +1.8252924136e-01 -3.9141023395e+00 3.9571626710e+00 5.1100000000e-04 0.0000e+00 1.0000e+00
       11  1    4    4    0    0 +5.4592963466e-01 +2.2108327772e-01 -2.7657374736e+00 2.8277590095e+00 5.1100000000e-04 0.0000e+00 -1.0000e+00
  1000022  1    3    3    0    0 +1.5925311939e+01 -9.7696209815e+00 -1.3319902486e+02 1.3459584420e+02 5.0000000000e+00 0.0000e+00 1.0000e+00
<mgrwt>
<rscale>  1 0.35133388E+02</rscale>
<asrwt>0</asrwt>
<pdfrwt beam="1">  1       21 0.26048445E-03 0.35133388E+02</pdfrwt>
<pdfrwt beam="2">  1        2 0.12356255E+00 0.35133388E+02</pdfrwt>
<totfact> 0.87817631E+06</totfact>
</mgrwt>
<rwgt>
<wgt id='1001'> +1.5607000e-12 </wgt>
<wgt id='1002'> +1.6140211e-12 </wgt>
<wgt id='1003'> +1.6152912e-12 </wgt>
<wgt id='1004'> +1.5545315e-12 </wgt>
<wgt id='1005'> +1.6202503e-12 </wgt>
<wgt id='1006'> +1.3714084e-12 </wgt>
<wgt id='1007'> +1.4385265e-12 </wgt>
<wgt id='1008'> +1.4403268e-12 </wgt>
<wgt id='1009'> +1.3642088e-12 </wgt>
<wgt id='1010'> +1.4475723e-12 </wgt>
<wgt id='1011'> +1.8135232e-12 </wgt>
<wgt id='1012'> +1.8403149e-12 </wgt>
<wgt id='1013'> +1.8406428e-12 </wgt>
<wgt id='1014'> +1.8095707e-12 </wgt>
<wgt id='1015'> +1.8416242e-12 </wgt>
<wgt id='1016'> +1.8412288e-12 </wgt>
<wgt id='1017'> +1.8354263e-12 </wgt>
<wgt id='1018'> +1.8348500e-12 </wgt>
<wgt id='1019'> +1.8406428e-12 </wgt>
<wgt id='1020'> +1.8320141e-12 </wgt>
<wgt id='1021'> +1.6179130e-12 </wgt>
<wgt id='1022'> +1.6358580e-12 </wgt>
<wgt id='1023'> +1.6361035e-12 </wgt>
<wgt id='1024'> +1.6152912e-12 </wgt>
<wgt id='1025'> +1.6367675e-12 </wgt>
<wgt id='1026'> +2.1394958e-12 </wgt>
<wgt id='1027'> +2.0927622e-12 </wgt>
<wgt id='1028'> +2.0908325e-12 </wgt>
<wgt id='1029'> +2.1426219e-12 </wgt>
<wgt id='1030'> +2.0823213e-12 </wgt>
<wgt id='1031'> +1.2417284e-12 </wgt>
<wgt id='1032'> +1.3608023e-12 </wgt>
<wgt id='1033'> +1.3642088e-12 </wgt>
<wgt id='1034'> +1.2294853e-12 </wgt>
<wgt id='1035'> +1.3780579e-12 </wgt>
<wgt id='1036'> +1.0911237e-12 </wgt>
<wgt id='1037'> +1.2128405e-12 </wgt>
<wgt id='1038'> +1.2164411e-12 </wgt>
<wgt id='1039'> +1.0789583e-12 </wgt>
<wgt id='1040'> +1.2311916e-12 </wgt>
<wgt id='1041'> +1.4428802e-12 </wgt>
<wgt id='1042'> +1.5515936e-12 </wgt>
<wgt id='1043'> +1.5545315e-12 </wgt>
<wgt id='1044'> +1.4311968e-12 </wgt>
<wgt id='1045'> +1.5663413e-12 </wgt>
<wgt id='1046'> +1.5607000e-12 </wgt>
<wgt id='1047'> +1.5599204e-12 </wgt>
<wgt id='1048'> +1.6268655e-12 </wgt>
<wgt id='1049'> +1.5222262e-12 </wgt>
<wgt id='1050'> +1.5254383e-12 </wgt>
<wgt id='1051'> +1.5117990e-12 </wgt>
<wgt id='1052'> +1.5231760e-12 </wgt>
<wgt id='1053'> +1.6244871e-12 </wgt>
<wgt id='1054'> +1.5964748e-12 </wgt>
<wgt id='1055'> +1.5379068e-12 </wgt>
<wgt id='1056'> +1.4819372e-12 </wgt>
<wgt id='1057'> +1.5466235e-12 </wgt>
<wgt id='1058'> +1.5222013e-12 </wgt>
<wgt id='1059'> +1.5694774e-12 </wgt>
<wgt id='1060'> +1.5818570e-12 </wgt>
<wgt id='1061'> +1.5867427e-12 </wgt>
<wgt id='1062'> +1.5407392e-12 </wgt>
<wgt id='1063'> +1.5050968e-12 </wgt>
<wgt id='1064'> +1.5587360e-12 </wgt>
<wgt id='1065'> +1.6007394e-12 </wgt>
<wgt id='1066'> +1.5638078e-12 </wgt>
<wgt id='1067'> +1.5813703e-12 </wgt>
<wgt id='1068'> +1.6103566e-12 </wgt>
<wgt id='1069'> +1.6249655e-12 </wgt>
<wgt id='1070'> +1.5476238e-12 </wgt>
<wgt id='1071'> +1.5804406e-12 </wgt>
<wgt id='1072'> +1.5776453e-12 </wgt>
<wgt id='1073'> +1.5323710e-12 </wgt>
<wgt id='1074'> +1.5671518e-12 </wgt>
<wgt id='1075'> +1.5371311e-12 </wgt>
<wgt id='1076'> +1.5723768e-12 </wgt>
<wgt id='1077'> +1.5765803e-12 </wgt>
<wgt id='1078'> +1.5469285e-12 </wgt>
<wgt id='1079'> +1.5689513e-12 </wgt>
<wgt id='1080'> +1.5415267e-12 </wgt>
<wgt id='1081'> +1.5131931e-12 </wgt>
<wgt id='1082'> +1.5692316e-12 </wgt>
<wgt id='1083'> +1.5388343e-12 </wgt>
<wgt id='1084'> +1.5432485e-12 </wgt>
<wgt id='1085'> +1.5896541e-12 </wgt>
<wgt id='1086'> +1.6110618e-12 </wgt>
<wgt id='1087'> +1.5465332e-12 </wgt>
<wgt id='1088'> +1.5622972e-12 </wgt>
<wgt id='1089'> +1.5294222e-12 </wgt>
<wgt id='1090'> +1.5539032e-12 </wgt>
<wgt id='1091'> +1.5774285e-12 </wgt>
<wgt id='1092'> +1.5462516e-12 </wgt>
<wgt id='1093'> +1.5945372e-12 </wgt>
<wgt id='1094'> +1.6013959e-12 </wgt>
<wgt id='1095'> +1.6043041e-12 </wgt>
<wgt id='1096'> +1.5126087e-12 </wgt>
<wgt id='1097'> +1.5653303e-12 </wgt>
<wgt id='1098'> +1.5923560e-12 </wgt>
<wgt id='1099'> +1.5556609e-12 </wgt>
<wgt id='1100'> +1.5842632e-12 </wgt>
<wgt id='1101'> +1.5711848e-12 </wgt>
<wgt id='1102'> +1.5390074e-12 </wgt>
<wgt id='1103'> +1.5471750e-12 </wgt>
<wgt id='1104'> +1.5759671e-12 </wgt>
<wgt id='1105'> +1.5169537e-12 </wgt>
<wgt id='1106'> +1.5605355e-12 </wgt>
<wgt id='1107'> +1.6004511e-12 </wgt>
<wgt id='1108'> +1.5489992e-12 </wgt>
<wgt id='1109'> +1.5413331e-12 </wgt>
<wgt id='1110'> +1.5696265e-12 </wgt>
<wgt id='1111'> +1.5645056e-12 </wgt>
<wgt id='1112'> +1.5845711e-12 </wgt>
<wgt id='1113'> +1.6216014e-12 </wgt>
<wgt id='1114'> +1.5903061e-12 </wgt>
<wgt id='1115'> +1.5966006e-12 </wgt>
<wgt id='1116'> +1.6205929e-12 </wgt>
<wgt id='1117'> +1.5522052e-12 </wgt>
<wgt id='1118'> +1.5814385e-12 </wgt>
<wgt id='1119'> +1.5215348e-12 </wgt>
<wgt id='1120'> +1.5567199e-12 </wgt>
<wgt id='1121'> +1.5341242e-12 </wgt>
<wgt id='1122'> +1.5422949e-12 </wgt>
<wgt id='1123'> +1.5818512e-12 </wgt>
<wgt id='1124'> +1.6006673e-12 </wgt>
<wgt id='1125'> +1.5121654e-12 </wgt>
<wgt id='1126'> +1.5280390e-12 </wgt>
<wgt id='1127'> +1.5661505e-12 </wgt>
<wgt id='1128'> +1.5407392e-12 </wgt>
<wgt id='1129'> +1.5270579e-12 </wgt>
<wgt id='1130'> +1.5483738e-12 </wgt>
<wgt id='1131'> +1.5834683e-12 </wgt>
<wgt id='1132'> +1.5766871e-12 </wgt>
<wgt id='1133'> +1.5489641e-12 </wgt>
<wgt id='1134'> +1.5232988e-12 </wgt>
<wgt id='1135'> +1.4966163e-12 </wgt>
<wgt id='1136'> +1.5271604e-12 </wgt>
<wgt id='1137'> +1.5616799e-12 </wgt>
<wgt id='1138'> +1.5472864e-12 </wgt>
<wgt id='1139'> +1.5549337e-12 </wgt>
<wgt id='1140'> +1.5755506e-12 </wgt>
<wgt id='1141'> +1.5509538e-12 </wgt>
<wgt id='1142'> +1.5998715e-12 </wgt>
<wgt id='1143'> +1.5121523e-12 </wgt>
<wgt id='1144'> +1.5605939e-12 </wgt>
<wgt id='1145'> +1.5974450e-12 </wgt>
<wgt id='1146'> +1.5658253e-12 </wgt>
<wgt id='1147'> +1.4142868e-12 </wgt>
<wgt id='1148'> +1.4395500e-12 </wgt>
<wgt id='1149'> +1.3656906e-12 </wgt>
<wgt id='1150'> +1.4238671e-12 </wgt>
<wgt id='1151'> +1.6556814e-12 </wgt>
<wgt id='1152'> +2.2700488e-12 </wgt>
<wgt id='1153'> +2.2739565e-12 </wgt>
<wgt id='1154'> +2.2677018e-12 </wgt>
<wgt id='1155'> +2.2643030e-12 </wgt>
<wgt id='1156'> +2.2729498e-12 </wgt>
<wgt id='1157'> +2.2740161e-12 </wgt>
<wgt id='1158'> +2.2646712e-12 </wgt>
<wgt id='1159'> +2.2733274e-12 </wgt>
<wgt id='1160'> +2.2679572e-12 </wgt>
<wgt id='1161'> +2.2653751e-12 </wgt>
<wgt id='1162'> +2.2732273e-12 </wgt>
<wgt id='1163'> +2.2692994e-12 </wgt>
<wgt id='1164'> +2.2707693e-12 </wgt>
<wgt id='1165'> +2.2741918e-12 </wgt>
<wgt id='1166'> +2.2658580e-12 </wgt>
<wgt id='1167'> +2.2989111e-12 </wgt>
<wgt id='1168'> +2.2351294e-12 </wgt>
<wgt id='1169'> +2.2791029e-12 </wgt>
<wgt id='1170'> +2.2632540e-12 </wgt>
<wgt id='1171'> +2.2631785e-12 </wgt>
<wgt id='1172'> +2.2789668e-12 </wgt>
<wgt id='1173'> +2.2428650e-12 </wgt>
<wgt id='1174'> +2.2985749e-12 </wgt>
<wgt id='1175'> +2.2722932e-12 </wgt>
<wgt id='1176'> +2.2677993e-12 </wgt>
<wgt id='1177'> +2.2652158e-12 </wgt>
<wgt id='1178'> +2.2819301e-12 </wgt>
<wgt id='1179'> +2.2672324e-12 </wgt>
<wgt id='1180'> +2.2672264e-12 </wgt>
<wgt id='1181'> +2.2740242e-12 </wgt>
<wgt id='1182'> +2.2643944e-12 </wgt>
<wgt id='1183'> +2.2675981e-12 </wgt>
<wgt id='1184'> +2.2701151e-12 </wgt>
<wgt id='1185'> +2.2645749e-12 </wgt>
<wgt id='1186'> +2.2723880e-12 </wgt>
<wgt id='1187'> +2.2738877e-12 </wgt>
<wgt id='1188'> +2.2686672e-12 </wgt>
<wgt id='1189'> +2.2634891e-12 </wgt>
<wgt id='1190'> +2.2479706e-12 </wgt>
<wgt id='1191'> +2.2736748e-12 </wgt>
<wgt id='1192'> +2.2763123e-12 </wgt>
<wgt id='1193'> +1.4171026e-12 </wgt>
<wgt id='1194'> +1.4017700e-12 </wgt>
<wgt id='1195'> +1.4296660e-12 </wgt>
<wgt id='1196'> +1.4152073e-12 </wgt>
<wgt id='1197'> +1.4191886e-12 </wgt>
<wgt id='1198'> +1.4160440e-12 </wgt>
<wgt id='1199'> +1.4186964e-12 </wgt>
<wgt id='1200'> +1.4136069e-12 </wgt>
<wgt id='1201'> +1.4194729e-12 </wgt>
<wgt id='1202'> +1.4161822e-12 </wgt>
<wgt id='1203'> +1.4183827e-12 </wgt>
<wgt id='1204'> +1.4114028e-12 </wgt>
<wgt id='1205'> +1.4204009e-12 </wgt>
<wgt id='1206'> +1.4204562e-12 </wgt>
<wgt id='1207'> +1.4125037e-12 </wgt>
<wgt id='1208'> +1.4255969e-12 </wgt>
<wgt id='1209'> +1.4141070e-12 </wgt>
<wgt id='1210'> +1.4168015e-12 </wgt>
<wgt id='1211'> +1.4139278e-12 </wgt>
<wgt id='1212'> +1.4171982e-12 </wgt>
<wgt id='1213'> +1.4174161e-12 </wgt>
<wgt id='1214'> +1.4021337e-12 </wgt>
<wgt id='1215'> +1.4380767e-12 </wgt>
<wgt id='1216'> +1.4268450e-12 </wgt>
<wgt id='1217'> +1.4106742e-12 </wgt>
<wgt id='1218'> +1.4206139e-12 </wgt>
<wgt id='1219'> +1.4150462e-12 </wgt>
<wgt id='1220'> +1.4253656e-12 </wgt>
<wgt id='1221'> +1.4153041e-12 </wgt>
<wgt id='1222'> +1.4385373e-12 </wgt>
<wgt id='1223'> +1.3869639e-12 </wgt>
<wgt id='1224'> +1.4207833e-12 </wgt>
<wgt id='1225'> +1.4156761e-12 </wgt>
<wgt id='1226'> +1.4153231e-12 </wgt>
<wgt id='1227'> +1.4185247e-12 </wgt>
<wgt id='1228'> +1.4115289e-12 </wgt>
<wgt id='1229'> +1.4194400e-12 </wgt>
<wgt id='1230'> +1.4189091e-12 </wgt>
<wgt id='1231'> +1.4261795e-12 </wgt>
<wgt id='1232'> +1.4195825e-12 </wgt>
<wgt id='1233'> +1.4164573e-12 </wgt>
<wgt id='1234'> +1.4171026e-12 </wgt>
<wgt id='1235'> +1.4103369e-12 </wgt>
<wgt id='1236'> +1.4130178e-12 </wgt>
<wgt id='1237'> +1.4153196e-12 </wgt>
<wgt id='1238'> +1.4191130e-12 </wgt>
<wgt id='1239'> +1.4205800e-12 </wgt>
<wgt id='1240'> +1.4221479e-12 </wgt>
<wgt id='1241'> +1.3578013e-12 </wgt>
<wgt id='1242'> +1.3422148e-12 </wgt>
<wgt id='1243'> +1.3731811e-12 </wgt>
<wgt id='1244'> +1.3638550e-12 </wgt>
<wgt id='1245'> +1.3532898e-12 </wgt>
<wgt id='1246'> +1.3534731e-12 </wgt>
<wgt id='1247'> +1.3614879e-12 </wgt>
<wgt id='1248'> +1.3577948e-12 </wgt>
<wgt id='1249'> +1.3577901e-12 </wgt>
<wgt id='1250'> +1.3586642e-12 </wgt>
<wgt id='1251'> +1.3572157e-12 </wgt>
<wgt id='1252'> +1.3549420e-12 </wgt>
<wgt id='1253'> +1.3600076e-12 </wgt>
<wgt id='1254'> +1.3530914e-12 </wgt>
<wgt id='1255'> +1.3605334e-12 </wgt>
<wgt id='1256'> +1.3547437e-12 </wgt>
<wgt id='1257'> +1.3654598e-12 </wgt>
<wgt id='1258'> +1.3710402e-12 </wgt>
<wgt id='1259'> +1.3440523e-12 </wgt>
<wgt id='1260'> +1.3606933e-12 </wgt>
<wgt id='1261'> +1.3548316e-12 </wgt>
<wgt id='1262'> +1.3616936e-12 </wgt>
<wgt id='1263'> +1.3564124e-12 </wgt>
<wgt id='1264'> +1.3629011e-12 </wgt>
<wgt id='1265'> +1.3556012e-12 </wgt>
<wgt id='1266'> +1.3363043e-12 </wgt>
<wgt id='1267'> +1.3781349e-12 </wgt>
<wgt id='1268'> +1.3653868e-12 </wgt>
<wgt id='1269'> +1.3515760e-12 </wgt>
<wgt id='1270'> +1.3635000e-12 </wgt>
<wgt id='1271'> +1.3602431e-12 </wgt>
<wgt id='1272'> +1.3609937e-12 </wgt>
<wgt id='1273'> +1.3575988e-12 </wgt>
<wgt id='1274'> +1.3590838e-12 </wgt>
<wgt id='1275'> +1.3559468e-12 </wgt>
<wgt id='1276'> +1.3625976e-12 </wgt>
<wgt id='1277'> +1.3520828e-12 </wgt>
<wgt id='1278'> +1.3695132e-12 </wgt>
<wgt id='1279'> +1.3638281e-12 </wgt>
<wgt id='1280'> +1.3578770e-12 </wgt>
<wgt id='1281'> +1.3627761e-12 </wgt>
<wgt id='1282'> +1.3578013e-12 </wgt>
<wgt id='1283'> +1.3512062e-12 </wgt>
<wgt id='1284'> +1.3539890e-12 </wgt>
<wgt id='1285'> +1.3560519e-12 </wgt>
<wgt id='1286'> +1.3596244e-12 </wgt>
<wgt id='1287'> +1.3608195e-12 </wgt>
<wgt id='1288'> +1.3617970e-12 </wgt>
<wgt id='1289'> +1.4519469e-12 </wgt>
<wgt id='1290'> +1.4557129e-12 </wgt>
<wgt id='1291'> +1.4478836e-12 </wgt>
<wgt id='1292'> +1.4530089e-12 </wgt>
<wgt id='1293'> +1.4511601e-12 </wgt>
<wgt id='1294'> +1.4376621e-12 </wgt>
<wgt id='1295'> +1.4656477e-12 </wgt>
<wgt id='1296'> +1.4581761e-12 </wgt>
<wgt id='1297'> +1.4440868e-12 </wgt>
<wgt id='1298'> +1.4586269e-12 </wgt>
<wgt id='1299'> +1.4434644e-12 </wgt>
<wgt id='1300'> +1.4550681e-12 </wgt>
<wgt id='1301'> +1.4456495e-12 </wgt>
<wgt id='1302'> +1.4475933e-12 </wgt>
<wgt id='1303'> +1.4579744e-12 </wgt>
<wgt id='1304'> +1.4502560e-12 </wgt>
<wgt id='1305'> +1.4530636e-12 </wgt>
<wgt id='1306'> +1.4549905e-12 </wgt>
<wgt id='1307'> +1.4482804e-12 </wgt>
<wgt id='1308'> +1.4456882e-12 </wgt>
<wgt id='1309'> +1.4567048e-12 </wgt>
<wgt id='1310'> +1.4528966e-12 </wgt>
<wgt id='1311'> +1.4511556e-12 </wgt>
<wgt id='1312'> +1.4601801e-12 </wgt>
<wgt id='1313'> +1.4442018e-12 </wgt>
<wgt id='1314'> +1.4317322e-12 </wgt>
<wgt id='1315'> +1.4699199e-12 </wgt>
<wgt id='1316'> +1.4592041e-12 </wgt>
<wgt id='1317'> +1.4533268e-12 </wgt>
<wgt id='1318'> +1.4623930e-12 </wgt>
<wgt id='1319'> +1.4385588e-12 </wgt>
<wgt id='1320'> +1.4702996e-12 </wgt>
<wgt id='1321'> +1.4355780e-12 </wgt>
<wgt id='1322'> +1.4521299e-12 </wgt>
<wgt id='1323'> +1.4520142e-12 </wgt>
<wgt id='1324'> +1.4495012e-12 </wgt>
<wgt id='1325'> +1.4565752e-12 </wgt>
<wgt id='1326'> +1.4509190e-12 </wgt>
<wgt id='1327'> +1.4556027e-12 </wgt>
<wgt id='1328'> +1.4511800e-12 </wgt>
<wgt id='1329'> +1.4520585e-12 </wgt>
<wgt id='1330'> +1.4583628e-12 </wgt>
<wgt id='1331'> +1.4458527e-12 </wgt>
<wgt id='1332'> +1.4643617e-12 </wgt>
<wgt id='1333'> +1.4555393e-12 </wgt>
<wgt id='1334'> +1.4498230e-12 </wgt>
<wgt id='1335'> +1.4579372e-12 </wgt>
<wgt id='1336'> +1.4543648e-12 </wgt>
<wgt id='1337'> +1.4598914e-12 </wgt>
<wgt id='1338'> +1.4527939e-12 </wgt>
<wgt id='1339'> +1.4537341e-12 </wgt>
<wgt id='1340'> +1.4203516e-12 </wgt>
<wgt id='1341'> +1.4239615e-12 </wgt>
<wgt id='1342'> +1.4164953e-12 </wgt>
<wgt id='1343'> +1.4215792e-12 </wgt>
<wgt id='1344'> +1.4195323e-12 </wgt>
<wgt id='1345'> +1.4055268e-12 </wgt>
<wgt id='1346'> +1.4340806e-12 </wgt>
<wgt id='1347'> +1.4272967e-12 </wgt>
<wgt id='1348'> +1.4125483e-12 </wgt>
<wgt id='1349'> +1.4265654e-12 </wgt>
<wgt id='1350'> +1.4142010e-12 </wgt>
<wgt id='1351'> +1.4232719e-12 </wgt>
<wgt id='1352'> +1.4140011e-12 </wgt>
<wgt id='1353'> +1.4150071e-12 </wgt>
<wgt id='1354'> +1.4298869e-12 </wgt>
<wgt id='1355'> +1.4196753e-12 </wgt>
<wgt id='1356'> +1.4207195e-12 </wgt>
<wgt id='1357'> +1.4224376e-12 </wgt>
<wgt id='1358'> +1.4176882e-12 </wgt>
<wgt id='1359'> +1.4136568e-12 </wgt>
<wgt id='1360'> +1.4261227e-12 </wgt>
<wgt id='1361'> +1.4219510e-12 </wgt>
<wgt id='1362'> +1.4184836e-12 </wgt>
<wgt id='1363'> +1.4349201e-12 </wgt>
<wgt id='1364'> +1.4114037e-12 </wgt>
<wgt id='1365'> +1.4295580e-12 </wgt>
<wgt id='1366'> +1.4028995e-12 </wgt>
<wgt id='1367'> +1.4277841e-12 </wgt>
<wgt id='1368'> +1.4203673e-12 </wgt>
<wgt id='1369'> +1.4287649e-12 </wgt>
<wgt id='1370'> +1.4098473e-12 </wgt>
<wgt id='1371'> +1.4354772e-12 </wgt>
<wgt id='1372'> +1.4015737e-12 </wgt>
<wgt id='1373'> +1.4172123e-12 </wgt>
<wgt id='1374'> +1.4233901e-12 </wgt>
<wgt id='1375'> +1.4178685e-12 </wgt>
<wgt id='1376'> +1.4253651e-12 </wgt>
<wgt id='1377'> +1.4194963e-12 </wgt>
<wgt id='1378'> +1.4240716e-12 </wgt>
<wgt id='1379'> +1.4198421e-12 </wgt>
<wgt id='1380'> +1.4202798e-12 </wgt>
<wgt id='1381'> +1.4270865e-12 </wgt>
<wgt id='1382'> +1.4144417e-12 </wgt>
<wgt id='1383'> +1.4306325e-12 </wgt>
<wgt id='1384'> +1.4247523e-12 </wgt>
<wgt id='1385'> +1.4184995e-12 </wgt>
<wgt id='1386'> +1.4251041e-12 </wgt>
<wgt id='1387'> +1.4228494e-12 </wgt>
<wgt id='1388'> +1.4286947e-12 </wgt>
<wgt id='1389'> +1.4211820e-12 </wgt>
<wgt id='1390'> +1.4231454e-12 </wgt>
<wgt id='1391'> +1.3999654e-12 </wgt>
<wgt id='1392'> +1.3551472e-12 </wgt>
<wgt id='1393'> +1.3706790e-12 </wgt>
<wgt id='1394'> +1.3856926e-12 </wgt>
<wgt id='1395'> +1.4155851e-12 </wgt>
<wgt id='1396'> +1.4006414e-12 </wgt>
<wgt id='1397'> +1.3820725e-12 </wgt>
<wgt id='1398'> +1.3845960e-12 </wgt>
<wgt id='1399'> +1.3874887e-12 </wgt>
<wgt id='1400'> +1.3913106e-12 </wgt>
<wgt id='1401'> +1.3959050e-12 </wgt>
<wgt id='1402'> +1.4054865e-12 </wgt>
<wgt id='1403'> +1.4109041e-12 </wgt>
<wgt id='1404'> +1.4164879e-12 </wgt>
<wgt id='1405'> +1.4006414e-12 </wgt>
<wgt id='1406'> +1.3966625e-12 </wgt>
<wgt id='1407'> +1.3986884e-12 </wgt>
<wgt id='1408'> +1.4024371e-12 </wgt>
<wgt id='1409'> +1.4037216e-12 </wgt>
<wgt id='1410'> +1.3217227e-12 </wgt>
<wgt id='1411'> +1.3280609e-12 </wgt>
<wgt id='1412'> +1.3135892e-12 </wgt>
<wgt id='1413'> +1.3148787e-12 </wgt>
<wgt id='1414'> +1.3285698e-12 </wgt>
<wgt id='1415'> +1.3196315e-12 </wgt>
<wgt id='1416'> +1.3225687e-12 </wgt>
<wgt id='1417'> +1.3196582e-12 </wgt>
<wgt id='1418'> +1.3237126e-12 </wgt>
<wgt id='1419'> +1.3233187e-12 </wgt>
<wgt id='1420'> +1.3201931e-12 </wgt>
<wgt id='1421'> +1.3086289e-12 </wgt>
<wgt id='1422'> +1.3272669e-12 </wgt>
<wgt id='1423'> +1.3203786e-12 </wgt>
<wgt id='1424'> +1.3233729e-12 </wgt>
<wgt id='1425'> +1.3134367e-12 </wgt>
<wgt id='1426'> +1.3306615e-12 </wgt>
<wgt id='1427'> +1.3079299e-12 </wgt>
<wgt id='1428'> +1.3289360e-12 </wgt>
<wgt id='1429'> +1.3252809e-12 </wgt>
<wgt id='1430'> +1.3169638e-12 </wgt>
<wgt id='1431'> +1.3230852e-12 </wgt>
<wgt id='1432'> +1.3206997e-12 </wgt>
<wgt id='1433'> +1.3049009e-12 </wgt>
<wgt id='1434'> +1.3352513e-12 </wgt>
<wgt id='1435'> +1.3141968e-12 </wgt>
<wgt id='1436'> +1.3410311e-12 </wgt>
<wgt id='1437'> +1.3278352e-12 </wgt>
<wgt id='1438'> +1.3253028e-12 </wgt>
<wgt id='1439'> +1.3152659e-12 </wgt>
<wgt id='1440'> +1.3328194e-12 </wgt>
<wgt id='1441'> +1.3270669e-12 </wgt>
<wgt id='1442'> +1.3099066e-12 </wgt>
<wgt id='1443'> +1.3179668e-12 </wgt>
<wgt id='1444'> +1.3304748e-12 </wgt>
<wgt id='1445'> +1.3317833e-12 </wgt>
<wgt id='1446'> +1.3178238e-12 </wgt>
<wgt id='1447'> +1.3232473e-12 </wgt>
<wgt id='1448'> +1.3241907e-12 </wgt>
<wgt id='1449'> +1.3216514e-12 </wgt>
<wgt id='1450'> +1.3209507e-12 </wgt>
<wgt id='1451'> +1.3208238e-12 </wgt>
<wgt id='1452'> +1.3262170e-12 </wgt>
<wgt id='1453'> +1.3220764e-12 </wgt>
<wgt id='1454'> +1.3232006e-12 </wgt>
<wgt id='1455'> +1.3318129e-12 </wgt>
<wgt id='1456'> +1.3283716e-12 </wgt>
<wgt id='1457'> +1.3285113e-12 </wgt>
<wgt id='1458'> +1.3204211e-12 </wgt>
<wgt id='1459'> +1.3275253e-12 </wgt>
<wgt id='1460'> +1.3313918e-12 </wgt>
<wgt id='1461'> +1.3217227e-12 </wgt>
<wgt id='1462'> +1.3108488e-12 </wgt>
<wgt id='1463'> +1.3291049e-12 </wgt>
<wgt id='1464'> +1.3197833e-12 </wgt>
<wgt id='1465'> +1.2977009e-12 </wgt>
<wgt id='1466'> +1.3010103e-12 </wgt>
<wgt id='1467'> +1.3050094e-12 </wgt>
<wgt id='1468'> +1.3114644e-12 </wgt>
<wgt id='1469'> +1.3149641e-12 </wgt>
<wgt id='1470'> +1.3250367e-12 </wgt>
<wgt id='1471'> +1.3299060e-12 </wgt>
<wgt id='1472'> +1.3349705e-12 </wgt>
<wgt id='1473'> +1.3197833e-12 </wgt>
<wgt id='1474'> +1.3163691e-12 </wgt>
<wgt id='1475'> +1.3187075e-12 </wgt>
<wgt id='1476'> +1.3209835e-12 </wgt>
<wgt id='1477'> +1.3220055e-12 </wgt>
<wgt id='1478'> +1.3773074e-12 </wgt>
<wgt id='1479'> +1.3781072e-12 </wgt>
<wgt id='1480'> +1.3632173e-12 </wgt>
<wgt id='1481'> +1.3977717e-12 </wgt>
<wgt id='1482'> +1.3794420e-12 </wgt>
<wgt id='1483'> +1.3611165e-12 </wgt>
<wgt id='1484'> +1.3668267e-12 </wgt>
<wgt id='1485'> +1.3877201e-12 </wgt>
<wgt id='1486'> +1.3769729e-12 </wgt>
<wgt id='1487'> +1.3893479e-12 </wgt>
<wgt id='1488'> +1.3745475e-12 </wgt>
<wgt id='1489'> +1.3786331e-12 </wgt>
<wgt id='1490'> +1.3737904e-12 </wgt>
<wgt id='1491'> +1.3834234e-12 </wgt>
<wgt id='1492'> +1.3779140e-12 </wgt>
<wgt id='1493'> +1.3577012e-12 </wgt>
<wgt id='1494'> +1.3743903e-12 </wgt>
<wgt id='1495'> +1.3673560e-12 </wgt>
<wgt id='1496'> +1.3782874e-12 </wgt>
<wgt id='1497'> +1.3774896e-12 </wgt>
<wgt id='1498'> +1.3776108e-12 </wgt>
<wgt id='1499'> +1.3803415e-12 </wgt>
<wgt id='1500'> +1.3789752e-12 </wgt>
<wgt id='1501'> +1.3782815e-12 </wgt>
<wgt id='1502'> +1.3762854e-12 </wgt>
<wgt id='1503'> +1.3826342e-12 </wgt>
<wgt id='1504'> +1.3716773e-12 </wgt>
<wgt id='1505'> +1.3817103e-12 </wgt>
<wgt id='1506'> +1.3788650e-12 </wgt>
<wgt id='1507'> +1.3777962e-12 </wgt>
<wgt id='1508'> +1.3802405e-12 </wgt>
<wgt id='1509'> +1.3386556e-12 </wgt>
<wgt id='1510'> +1.3426787e-12 </wgt>
<wgt id='1511'> +1.3226883e-12 </wgt>
<wgt id='1512'> +1.3266382e-12 </wgt>
<wgt id='1513'> +1.3372454e-12 </wgt>
<wgt id='1514'> +1.3443820e-12 </wgt>
<wgt id='1515'> +1.3429425e-12 </wgt>
<wgt id='1516'> +1.3432588e-12 </wgt>
<wgt id='1517'> +1.3400172e-12 </wgt>
<wgt id='1518'> +1.3378420e-12 </wgt>
<wgt id='1519'> +1.3398672e-12 </wgt>
<wgt id='1520'> +1.3392976e-12 </wgt>
<wgt id='1521'> +1.3383784e-12 </wgt>
<wgt id='1522'> +1.3413710e-12 </wgt>
<wgt id='1523'> +1.3413952e-12 </wgt>
<wgt id='1524'> +1.3370061e-12 </wgt>
<wgt id='1525'> +1.3382416e-12 </wgt>
<wgt id='1526'> +1.3396466e-12 </wgt>
<wgt id='1527'> +1.3384223e-12 </wgt>
<wgt id='1528'> +1.3394342e-12 </wgt>
<wgt id='1529'> +1.3395581e-12 </wgt>
<wgt id='1530'> +1.3394704e-12 </wgt>
<wgt id='1531'> +1.3409835e-12 </wgt>
<wgt id='1532'> +1.3348294e-12 </wgt>
<wgt id='1533'> +1.3391736e-12 </wgt>
<wgt id='1534'> +1.3386914e-12 </wgt>
<wgt id='1535'> +1.3342797e-12 </wgt>
<wgt id='1536'> +1.3423980e-12 </wgt>
<wgt id='1537'> +1.3416586e-12 </wgt>
<wgt id='1538'> +1.3258766e-12 </wgt>
<wgt id='1539'> +1.3371240e-12 </wgt>
<wgt id='1540'> +1.3378995e-12 </wgt>
<wgt id='1541'> +1.3361182e-12 </wgt>
<wgt id='1542'> +1.3368186e-12 </wgt>
<wgt id='1543'> +1.3393750e-12 </wgt>
<wgt id='1544'> +1.3369228e-12 </wgt>
<wgt id='1545'> +1.3371420e-12 </wgt>
<wgt id='1546'> +1.3392702e-12 </wgt>
<wgt id='1547'> +1.3373996e-12 </wgt>
<wgt id='1548'> +1.3395573e-12 </wgt>
<wgt id='1549'> +1.3374069e-12 </wgt>
<wgt id='1550'> +1.3385938e-12 </wgt>
<wgt id='1551'> +1.3384734e-12 </wgt>
<wgt id='1552'> +1.3403604e-12 </wgt>
<wgt id='1553'> +1.3388277e-12 </wgt>
<wgt id='1554'> +1.3376763e-12 </wgt>
<wgt id='1555'> +1.3406348e-12 </wgt>
<wgt id='1556'> +1.3421700e-12 </wgt>
<wgt id='1557'> +1.3384015e-12 </wgt>
<wgt id='1558'> +1.3385759e-12 </wgt>
<wgt id='1559'> +1.3369776e-12 </wgt>
<wgt id='1560'> +1.3384810e-12 </wgt>
<wgt id='1561'> +1.3387597e-12 </wgt>
<wgt id='1562'> +1.3384273e-12 </wgt>
<wgt id='1563'> +1.3386765e-12 </wgt>
<wgt id='1564'> +1.3373360e-12 </wgt>
<wgt id='1565'> +1.3387408e-12 </wgt>
<wgt id='1566'> +1.3386346e-12 </wgt>
<wgt id='1567'> +1.3378986e-12 </wgt>
<wgt id='1568'> +1.3384140e-12 </wgt>
<wgt id='1569'> +1.3417780e-12 </wgt>
<wgt id='1570'> +1.3393119e-12 </wgt>
<wgt id='1571'> +1.3394895e-12 </wgt>
<wgt id='1572'> +1.3389415e-12 </wgt>
<wgt id='1573'> +1.3383891e-12 </wgt>
<wgt id='1574'> +1.3394480e-12 </wgt>
<wgt id='1575'> +1.3382040e-12 </wgt>
<wgt id='1576'> +1.3391919e-12 </wgt>
<wgt id='1577'> +1.3401645e-12 </wgt>
<wgt id='1578'> +1.3394510e-12 </wgt>
<wgt id='1579'> +1.3378455e-12 </wgt>
<wgt id='1580'> +1.3382764e-12 </wgt>
<wgt id='1581'> +1.3389373e-12 </wgt>
<wgt id='1582'> +1.3394431e-12 </wgt>
<wgt id='1583'> +1.3378392e-12 </wgt>
<wgt id='1584'> +1.3381603e-12 </wgt>
<wgt id='1585'> +1.3387257e-12 </wgt>
<wgt id='1586'> +1.3386327e-12 </wgt>
<wgt id='1587'> +1.3391037e-12 </wgt>
<wgt id='1588'> +1.3371763e-12 </wgt>
<wgt id='1589'> +1.3400807e-12 </wgt>
<wgt id='1590'> +1.3388459e-12 </wgt>
<wgt id='1591'> +1.3387768e-12 </wgt>
<wgt id='1592'> +1.3386936e-12 </wgt>
<wgt id='1593'> +1.3396310e-12 </wgt>
<wgt id='1594'> +1.3382994e-12 </wgt>
<wgt id='1595'> +1.3379908e-12 </wgt>
<wgt id='1596'> +1.3378057e-12 </wgt>
<wgt id='1597'> +1.3380996e-12 </wgt>
<wgt id='1598'> +1.3389378e-12 </wgt>
<wgt id='1599'> +1.3394456e-12 </wgt>
<wgt id='1600'> +1.3375382e-12 </wgt>
<wgt id='1601'> +1.3391623e-12 </wgt>
<wgt id='1602'> +1.3383649e-12 </wgt>
<wgt id='1603'> +1.3397017e-12 </wgt>
<wgt id='1604'> +1.3388770e-12 </wgt>
<wgt id='1605'> +1.3393763e-12 </wgt>
<wgt id='1606'> +1.3386494e-12 </wgt>
<wgt id='1607'> +1.3389905e-12 </wgt>
<wgt id='1608'> +1.3391799e-12 </wgt>
<wgt id='1609'> +1.3389382e-12 </wgt>
<wgt id='1610'> +1.3240897e-12 </wgt>
<wgt id='1611'> +1.3524302e-12 </wgt>
<wgt id='1612'> +1.5449788e-12 </wgt>
<wgt id='1613'> +1.5145718e-12 </wgt>
<wgt id='1614'> +1.4800413e-12 </wgt>
<wgt id='1615'> +1.5273966e-12 </wgt>
<wgt id='1616'> +1.4766228e-12 </wgt>
<wgt id='1617'> +1.5331602e-12 </wgt>
<wgt id='1618'> +1.5377445e-12 </wgt>
<wgt id='1619'> +1.5083194e-12 </wgt>
<wgt id='1620'> +1.5237164e-12 </wgt>
<wgt id='1621'> +1.5516514e-12 </wgt>
<wgt id='1622'> +1.5571819e-12 </wgt>
<wgt id='1623'> +1.5561463e-12 </wgt>
<wgt id='1624'> +1.5801931e-12 </wgt>
<wgt id='1625'> +1.5072782e-12 </wgt>
<wgt id='1626'> +1.5369297e-12 </wgt>
<wgt id='1627'> +1.5649260e-12 </wgt>
<wgt id='1628'> +1.4556553e-12 </wgt>
<wgt id='1629'> +1.5752842e-12 </wgt>
<wgt id='1630'> +1.5050467e-12 </wgt>
<wgt id='1631'> +1.5155152e-12 </wgt>
<wgt id='1632'> +1.4752376e-12 </wgt>
<wgt id='1633'> +1.4896728e-12 </wgt>
<wgt id='1634'> +1.5385130e-12 </wgt>
<wgt id='1635'> +1.5654848e-12 </wgt>
<wgt id='1636'> +1.5506933e-12 </wgt>
<wgt id='1637'> +1.5781965e-12 </wgt>
<wgt id='1638'> +1.5476305e-12 </wgt>
<wgt id='1639'> +1.5403151e-12 </wgt>
<wgt id='1640'> +1.5379944e-12 </wgt>
<wgt id='1641'> +1.5516082e-12 </wgt>
<wgt id='1642'> +1.4835624e-12 </wgt>
<wgt id='1643'> +1.5208933e-12 </wgt>
<wgt id='1644'> +1.5777466e-12 </wgt>
<wgt id='1645'> +1.5084660e-12 </wgt>
<wgt id='1646'> +1.5629216e-12 </wgt>
<wgt id='1647'> +1.5841980e-12 </wgt>
<wgt id='1648'> +1.5439148e-12 </wgt>
<wgt id='1649'> +1.6077045e-12 </wgt>
<wgt id='1650'> +1.5190814e-12 </wgt>
<wgt id='1651'> +1.5619200e-12 </wgt>
<wgt id='1652'> +1.5316210e-12 </wgt>
<wgt id='1653'> +1.5403019e-12 </wgt>
<wgt id='1654'> +1.5467595e-12 </wgt>
<wgt id='1655'> +1.5788244e-12 </wgt>
<wgt id='1656'> +1.5462680e-12 </wgt>
<wgt id='1657'> +1.5474682e-12 </wgt>
<wgt id='1658'> +1.5346073e-12 </wgt>
<wgt id='1659'> +1.5801931e-12 </wgt>
<wgt id='1660'> +1.5571259e-12 </wgt>
<wgt id='1661'> +1.5836129e-12 </wgt>
<wgt id='1662'> +1.6099841e-12 </wgt>
<wgt id='1663'> +1.5445752e-12 </wgt>
<wgt id='1664'> +1.5310852e-12 </wgt>
<wgt id='1665'> +1.5251687e-12 </wgt>
<wgt id='1666'> +1.5688048e-12 </wgt>
<wgt id='1667'> +1.5577200e-12 </wgt>
<wgt id='1668'> +1.5661408e-12 </wgt>
<wgt id='1669'> +1.5554021e-12 </wgt>
<wgt id='1670'> +1.5231385e-12 </wgt>
<wgt id='1671'> +1.5137924e-12 </wgt>
<wgt id='1672'> +1.5735807e-12 </wgt>
<wgt id='1673'> +1.5461957e-12 </wgt>
<wgt id='1674'> +1.5295650e-12 </wgt>
<wgt id='1675'> +1.5288144e-12 </wgt>
<wgt id='1676'> +1.5230261e-12 </wgt>
<wgt id='1677'> +1.5525508e-12 </wgt>
<wgt id='1678'> +1.5281175e-12 </wgt>
<wgt id='1679'> +1.5556993e-12 </wgt>
<wgt id='1680'> +1.5697231e-12 </wgt>
<wgt id='1681'> +1.5753850e-12 </wgt>
<wgt id='1682'> +1.5359811e-12 </wgt>
<wgt id='1683'> +1.5630235e-12 </wgt>
<wgt id='1684'> +1.6092292e-12 </wgt>
<wgt id='1685'> +1.5354480e-12 </wgt>
<wgt id='1686'> +1.5433017e-12 </wgt>
<wgt id='1687'> +1.5759977e-12 </wgt>
<wgt id='1688'> +1.5102084e-12 </wgt>
<wgt id='1689'> +1.6088415e-12 </wgt>
<wgt id='1690'> +1.5404882e-12 </wgt>
<wgt id='1691'> +1.4871984e-12 </wgt>
<wgt id='1692'> +1.5421813e-12 </wgt>
<wgt id='1693'> +1.5522198e-12 </wgt>
<wgt id='1694'> +1.5387741e-12 </wgt>
<wgt id='1695'> +1.5561916e-12 </wgt>
<wgt id='1696'> +1.5292627e-12 </wgt>
<wgt id='1697'> +1.5303575e-12 </wgt>
<wgt id='1698'> +1.5521888e-12 </wgt>
<wgt id='1699'> +1.5636645e-12 </wgt>
<wgt id='1700'> +1.5260743e-12 </wgt>
<wgt id='1701'> +1.6023976e-12 </wgt>
<wgt id='1702'> +1.5003883e-12 </wgt>
<wgt id='1703'> +1.5218700e-12 </wgt>
<wgt id='1704'> +1.5315336e-12 </wgt>
<wgt id='1705'> +1.4863288e-12 </wgt>
<wgt id='1706'> +1.5769604e-12 </wgt>
<wgt id='1707'> +1.5579281e-12 </wgt>
<wgt id='1708'> +1.6204380e-12 </wgt>
<wgt id='1709'> +1.5970343e-12 </wgt>
<wgt id='1710'> +1.5457385e-12 </wgt>
<wgt id='1711'> +1.5545491e-12 </wgt>
<wgt id='1712'> +1.6200512e-12 </wgt>
<wgt id='1713'> +1.3443999e-12 </wgt>
<wgt id='1714'> +1.3303371e-12 </wgt>
<wgt id='1715'> +1.3035418e-12 </wgt>
<wgt id='1716'> +1.3744361e-12 </wgt>
<wgt id='1717'> +1.3532944e-12 </wgt>
<wgt id='1718'> +1.3880060e-12 </wgt>
<wgt id='1719'> +1.3677474e-12 </wgt>
<wgt id='1720'> +1.3039876e-12 </wgt>
<wgt id='1721'> +1.3183965e-12 </wgt>
<wgt id='1722'> +1.3358425e-12 </wgt>
<wgt id='1723'> +1.3922781e-12 </wgt>
<wgt id='1724'> +1.3458803e-12 </wgt>
<wgt id='1725'> +1.3602365e-12 </wgt>
<wgt id='1726'> +1.3530384e-12 </wgt>
<wgt id='1727'> +1.3851398e-12 </wgt>
<wgt id='1728'> +1.3261978e-12 </wgt>
<wgt id='1729'> +1.2870229e-12 </wgt>
<wgt id='1730'> +1.3188510e-12 </wgt>
<wgt id='1731'> +1.2840960e-12 </wgt>
<wgt id='1732'> +1.3458796e-12 </wgt>
<wgt id='1733'> +1.2854943e-12 </wgt>
<wgt id='1734'> +1.4064263e-12 </wgt>
<wgt id='1735'> +1.3207056e-12 </wgt>
<wgt id='1736'> +1.3720329e-12 </wgt>
<wgt id='1737'> +1.3840553e-12 </wgt>
<wgt id='1738'> +1.3407173e-12 </wgt>
<wgt id='1739'> +1.3495497e-12 </wgt>
<wgt id='1740'> +1.2718349e-12 </wgt>
<wgt id='1741'> +1.3830081e-12 </wgt>
<wgt id='1742'> +1.3271148e-12 </wgt>
<wgt id='1743'> +1.3224382e-12 </wgt>
<wgt id='1744'> +1.3698032e-12 </wgt>
<wgt id='1745'> +1.3607301e-12 </wgt>
<wgt id='1746'> +1.3310499e-12 </wgt>
<wgt id='1747'> +1.3999409e-12 </wgt>
<wgt id='1748'> +1.3475299e-12 </wgt>
<wgt id='1749'> +1.3450700e-12 </wgt>
<wgt id='1750'> +1.3178144e-12 </wgt>
<wgt id='1751'> +1.3283910e-12 </wgt>
<wgt id='1752'> +1.3253439e-12 </wgt>
<wgt id='1753'> +1.3508540e-12 </wgt>
<wgt id='1754'> +1.3571704e-12 </wgt>
<wgt id='1755'> +1.3578147e-12 </wgt>
<wgt id='1756'> +1.3685459e-12 </wgt>
<wgt id='1757'> +1.3661216e-12 </wgt>
<wgt id='1758'> +1.3905110e-12 </wgt>
<wgt id='1759'> +1.3722289e-12 </wgt>
<wgt id='1760'> +1.3407512e-12 </wgt>
<wgt id='1761'> +1.3408455e-12 </wgt>
<wgt id='1762'> +1.3268283e-12 </wgt>
<wgt id='1763'> +1.3651214e-12 </wgt>
<wgt id='1764'> +1.3913093e-12 </wgt>
<wgt id='1765'> +1.3458752e-12 </wgt>
<wgt id='1766'> +1.3795111e-12 </wgt>
<wgt id='1767'> +1.3363752e-12 </wgt>
<wgt id='1768'> +1.3679598e-12 </wgt>
<wgt id='1769'> +1.3438690e-12 </wgt>
<wgt id='1770'> +1.3359315e-12 </wgt>
<wgt id='1771'> +1.3955819e-12 </wgt>
<wgt id='1772'> +1.3247634e-12 </wgt>
<wgt id='1773'> +1.3527131e-12 </wgt>
<wgt id='1774'> +1.3351986e-12 </wgt>
<wgt id='1775'> +1.3439953e-12 </wgt>
<wgt id='1776'> +1.3971493e-12 </wgt>
<wgt id='1777'> +1.2852555e-12 </wgt>
<wgt id='1778'> +1.3575203e-12 </wgt>
<wgt id='1779'> +1.3317759e-12 </wgt>
<wgt id='1780'> +1.3405103e-12 </wgt>
<wgt id='1781'> +1.3714016e-12 </wgt>
<wgt id='1782'> +1.3378391e-12 </wgt>
<wgt id='1783'> +1.3506717e-12 </wgt>
<wgt id='1784'> +1.3406736e-12 </wgt>
<wgt id='1785'> +1.3564119e-12 </wgt>
<wgt id='1786'> +1.3305195e-12 </wgt>
<wgt id='1787'> +1.4291509e-12 </wgt>
<wgt id='1788'> +1.3267392e-12 </wgt>
<wgt id='1789'> +1.4252761e-12 </wgt>
<wgt id='1790'> +1.3453965e-12 </wgt>
<wgt id='1791'> +1.3303956e-12 </wgt>
<wgt id='1792'> +1.3250240e-12 </wgt>
<wgt id='1793'> +1.3264689e-12 </wgt>
<wgt id='1794'> +1.3683143e-12 </wgt>
<wgt id='1795'> +1.3538288e-12 </wgt>
<wgt id='1796'> +1.3055417e-12 </wgt>
<wgt id='1797'> +1.3434226e-12 </wgt>
<wgt id='1798'> +1.3361397e-12 </wgt>
<wgt id='1799'> +1.3254812e-12 </wgt>
<wgt id='1800'> +1.3662127e-12 </wgt>
<wgt id='1801'> +1.3427190e-12 </wgt>
<wgt id='1802'> +1.3034368e-12 </wgt>
<wgt id='1803'> +1.3477442e-12 </wgt>
<wgt id='1804'> +1.3555424e-12 </wgt>
<wgt id='1805'> +1.3086281e-12 </wgt>
<wgt id='1806'> +1.3120806e-12 </wgt>
<wgt id='1807'> +1.3226037e-12 </wgt>
<wgt id='1808'> +1.3174086e-12 </wgt>
<wgt id='1809'> +1.3219301e-12 </wgt>
<wgt id='1810'> +1.3122808e-12 </wgt>
<wgt id='1811'> +1.3562748e-12 </wgt>
<wgt id='1812'> +1.3211317e-12 </wgt>
<wgt id='1813'> +1.2671764e-12 </wgt>
<wgt id='1814'> +1.6849236e-12 </wgt>
<wgt id='1815'> +2.0441280e-12 </wgt>
<wgt id='1816'> +1.3443999e-12 </wgt>
<wgt id='1817'> +1.3303371e-12 </wgt>
<wgt id='1818'> +1.3035418e-12 </wgt>
<wgt id='1819'> +1.3744361e-12 </wgt>
<wgt id='1820'> +1.3532944e-12 </wgt>
<wgt id='1821'> +1.3880060e-12 </wgt>
<wgt id='1822'> +1.3677474e-12 </wgt>
<wgt id='1823'> +1.3039876e-12 </wgt>
<wgt id='1824'> +1.3183965e-12 </wgt>
<wgt id='1825'> +1.3358425e-12 </wgt>
<wgt id='1826'> +1.3922781e-12 </wgt>
<wgt id='1827'> +1.3458803e-12 </wgt>
<wgt id='1828'> +1.3602365e-12 </wgt>
<wgt id='1829'> +1.3530384e-12 </wgt>
<wgt id='1830'> +1.3851398e-12 </wgt>
<wgt id='1831'> +1.3261978e-12 </wgt>
<wgt id='1832'> +1.2870229e-12 </wgt>
<wgt id='1833'> +1.3188510e-12 </wgt>
<wgt id='1834'> +1.2840960e-12 </wgt>
<wgt id='1835'> +1.3458796e-12 </wgt>
<wgt id='1836'> +1.2854943e-12 </wgt>
<wgt id='1837'> +1.4064263e-12 </wgt>
<wgt id='1838'> +1.3207056e-12 </wgt>
<wgt id='1839'> +1.3720329e-12 </wgt>
<wgt id='1840'> +1.3840553e-12 </wgt>
<wgt id='1841'> +1.3407173e-12 </wgt>
<wgt id='1842'> +1.3495497e-12 </wgt>
<wgt id='1843'> +1.2718349e-12 </wgt>
<wgt id='1844'> +1.3830081e-12 </wgt>
<wgt id='1845'> +1.3271148e-12 </wgt>
<wgt id='1846'> +1.3224382e-12 </wgt>
<wgt id='1847'> +1.3698032e-12 </wgt>
<wgt id='1848'> +1.3607301e-12 </wgt>
<wgt id='1849'> +1.3310499e-12 </wgt>
<wgt id='1850'> +1.3999409e-12 </wgt>
<wgt id='1851'> +1.3475299e-12 </wgt>
<wgt id='1852'> +1.3450700e-12 </wgt>
<wgt id='1853'> +1.3178144e-12 </wgt>
<wgt id='1854'> +1.3283910e-12 </wgt>
<wgt id='1855'> +1.3253439e-12 </wgt>
<wgt id='1856'> +1.3508540e-12 </wgt>
<wgt id='1857'> +1.3571704e-12 </wgt>
<wgt id='1858'> +1.3578147e-12 </wgt>
<wgt id='1859'> +1.3685459e-12 </wgt>
<wgt id='1860'> +1.3661216e-12 </wgt>
<wgt id='1861'> +1.3905110e-12 </wgt>
<wgt id='1862'> +1.3722289e-12 </wgt>
<wgt id='1863'> +1.3407512e-12 </wgt>
<wgt id='1864'> +1.3408455e-12 </wgt>
<wgt id='1865'> +1.3268283e-12 </wgt>
<wgt id='1866'> +1.3651214e-12 </wgt>
<wgt id='1867'> +1.3913093e-12 </wgt>
<wgt id='1868'> +1.3458752e-12 </wgt>
<wgt id='1869'> +1.3795111e-12 </wgt>
<wgt id='1870'> +1.3363752e-12 </wgt>
<wgt id='1871'> +1.3679598e-12 </wgt>
<wgt id='1872'> +1.3438690e-12 </wgt>
<wgt id='1873'> +1.3359315e-12 </wgt>
<wgt id='1874'> +1.3955819e-12 </wgt>
<wgt id='1875'> +1.3247634e-12 </wgt>
<wgt id='1876'> +1.3527131e-12 </wgt>
<wgt id='1877'> +1.3351986e-12 </wgt>
<wgt id='1878'> +1.3439953e-12 </wgt>
<wgt id='1879'> +1.3971493e-12 </wgt>
<wgt id='1880'> +1.2852555e-12 </wgt>
<wgt id='1881'> +1.3575203e-12 </wgt>
<wgt id='1882'> +1.3317759e-12 </wgt>
<wgt id='1883'> +1.3405103e-12 </wgt>
<wgt id='1884'> +1.3714016e-12 </wgt>
<wgt id='1885'> +1.3378391e-12 </wgt>
<wgt id='1886'> +1.3506717e-12 </wgt>
<wgt id='1887'> +1.3406736e-12 </wgt>
<wgt id='1888'> +1.3564119e-12 </wgt>
<wgt id='1889'> +1.3305195e-12 </wgt>
<wgt id='1890'> +1.4291509e-12 </wgt>
<wgt id='1891'> +1.3267392e-12 </wgt>
<wgt id='1892'> +1.4252761e-12 </wgt>
<wgt id='1893'> +1.3453965e-12 </wgt>
<wgt id='1894'> +1.3303956e-12 </wgt>
<wgt id='1895'> +1.3250240e-12 </wgt>
<wgt id='1896'> +1.3264689e-12 </wgt>
<wgt id='1897'> +1.3683143e-12 </wgt>
<wgt id='1898'> +1.3538288e-12 </wgt>
<wgt id='1899'> +1.3055417e-12 </wgt>
<wgt id='1900'> +1.3434226e-12 </wgt>
<wgt id='1901'> +1.3361397e-12 </wgt>
<wgt id='1902'> +1.3254812e-12 </wgt>
<wgt id='1903'> +1.3662127e-12 </wgt>
<wgt id='1904'> +1.3427190e-12 </wgt>
<wgt id='1905'> +1.3034368e-12 </wgt>
<wgt id='1906'> +1.3477442e-12 </wgt>
<wgt id='1907'> +1.3555424e-12 </wgt>
<wgt id='1908'> +1.3086281e-12 </wgt>
<wgt id='1909'> +1.3120806e-12 </wgt>
<wgt id='1910'> +1.3226037e-12 </wgt>
<wgt id='1911'> +1.3174086e-12 </wgt>
<wgt id='1912'> +1.3219301e-12 </wgt>
<wgt id='1913'> +1.3122808e-12 </wgt>
<wgt id='1914'> +1.3562748e-12 </wgt>
<wgt id='1915'> +1.3211317e-12 </wgt>
<wgt id='1916'> +1.2671764e-12 </wgt>
<wgt id='1917'> +1.3367945e-12 </wgt>
<wgt id='1918'> +1.3605551e-12 </wgt>
<wgt id='1919'> +1.3101545e-12 </wgt>
</rwgt>
</event>
<event>
 9      1 +1.5607000e-12 3.67119400e+01 7.81860800e-03 1.39157900e-01
       -4 -1    0    0    0  501 -0.0000000000e+00 +0.0000000000e+00 +8.0845671731e+00 8.2083266490e+00 0.0000000000e+00 0.0000e+00 1.0000e+00
       21 -1    0    0  501  502 +0.0000000000e+00 -0.0000000000e+00 -1.7791316943e+02 1.7791316943e+02 1.4200000000e+00 0.0000e+00 1.0000e+00
     1023  2    1    2    0    0 -1.6118812250e+01 -2.9376528265e+01 -1.2407469140e+02 1.2939202155e+02 1.4998989110e+01 0.0000e+00 0.0000e+00
  1000023  2    3    3    0    0 -1.8794185999e+00 -8.1719901789e+00 -4.6451766792e+01 4.7521934270e+01 5.5003600745e+00 0.0000e+00 0.0000e+00
       -4  1    1    2    0  502 +1.6118812250e+01 +2.9376528265e+01 -4.5753910855e+01 5.6729474524e+01 1.4200000000e+00 0.0000e+00 1.0000e+00
  1000022  1    4    4    0    0 -1.7649624446e+00 -7.1772773642e+00 -4.2330938544e+01 4.3261261665e+01 5.0000000000e+00 0.0000e+00 1.0000e+00
      -13  1    4    4    0    0 -1.0673153383e-01 -4.4337418833e-01 -2.5479453595e+00 2.5905926612e+00 1.0570000000e-01 0.0000e+00 -1.0000e+00
       13  1    4    4    0    0 -7.7246215380e-03 -5.5133862642e-01 -1.5728828881e+00 1.6700799443e+00 1.0570000000e-01 0.0000e+00 -1.0000e+00
  1000022  1    3    3    0    0 -1.4239393650e+01 -2.1204538086e+01 -7.7622924609e+01 8.1870087284e+01 5.0000000000e+00 0.0000e+00 1.0000e+00
<mgrwt>
<rscale>  1 0.36711935E+02</rscale>
<asrwt>0</asrwt>
<pdfrwt beam="1">  1       21 0.27371261E-01 0.36711935E+02</pdfrwt>
<pdfrwt beam="2">  1       -4 0.12537353E-02 0.36711935E+02</pdfrwt>
<totfact> 0.11655674E+06</totfact>
</mgrwt>
<rwgt>
<wgt id='1001'> +1.5607000e-12 </wgt>
<wgt id='1002'> +1.5942422e-12 </wgt>
<wgt id='1003'> +1.5949896e-12 </wgt>
<wgt id='1004'> +1.5557764e-12 </wgt>
<wgt id='1005'> +1.5969613e-12 </wgt>
<wgt id='1006'> +1.3729399e-12 </wgt>
<wgt id='1007'> +1.4218679e-12 </wgt>
<wgt id='1008'> +1.4233473e-12 </wgt>
<wgt id='1009'> +1.3667055e-12 </wgt>
<wgt id='1010'> +1.4276480e-12 </wgt>
<wgt id='1011'> +1.8107530e-12 </wgt>
<wgt id='1012'> +1.8161395e-12 </wgt>
<wgt id='1013'> +1.8156415e-12 </wgt>
<wgt id='1014'> +1.8084829e-12 </wgt>
<wgt id='1015'> +1.8136901e-12 </wgt>
<wgt id='1016'> +1.8145412e-12 </wgt>
<wgt id='1017'> +1.7908399e-12 </wgt>
<wgt id='1018'> +1.7893165e-12 </wgt>
<wgt id='1019'> +1.8156415e-12 </wgt>
<wgt id='1020'> +1.7842047e-12 </wgt>
<wgt id='1021'> +1.5962428e-12 </wgt>
<wgt id='1022'> +1.5972089e-12 </wgt>
<wgt id='1023'> +1.5967620e-12 </wgt>
<wgt id='1024'> +1.5949896e-12 </wgt>
<wgt id='1025'> +1.5950394e-12 </wgt>
<wgt id='1026'> +2.1052643e-12 </wgt>
<wgt id='1027'> +2.0401011e-12 </wgt>
<wgt id='1028'> +2.0368517e-12 </wgt>
<wgt id='1029'> +2.1105582e-12 </wgt>
<wgt id='1030'> +2.0263449e-12 </wgt>
<wgt id='1031'> +1.2637976e-12 </wgt>
<wgt id='1032'> +1.3632964e-12 </wgt>
<wgt id='1033'> +1.3667055e-12 </wgt>
<wgt id='1034'> +1.2520129e-12 </wgt>
<wgt id='1035'> +1.3769181e-12 </wgt>
<wgt id='1036'> +1.1117563e-12 </wgt>
<wgt id='1037'> +1.2158927e-12 </wgt>
<wgt id='1038'> +1.2196296e-12 </wgt>
<wgt id='1039'> +1.0998579e-12 </wgt>
<wgt id='1040'> +1.2309343e-12 </wgt>
<wgt id='1041'> +1.4662813e-12 </wgt>
<wgt id='1042'> +1.5530492e-12 </wgt>
<wgt id='1043'> +1.5557764e-12 </wgt>
<wgt id='1044'> +1.4553787e-12 </wgt>
<wgt id='1045'> +1.5637841e-12 </wgt>
<wgt id='1046'> +1.5607000e-12 </wgt>
<wgt id='1047'> +1.5297793e-12 </wgt>
<wgt id='1048'> +1.5856944e-12 </wgt>
<wgt id='1049'> +1.5683461e-12 </wgt>
<wgt id='1050'> +1.5560412e-12 </wgt>
<wgt id='1051'> +1.5487906e-12 </wgt>
<wgt id='1052'> +1.5072481e-12 </wgt>
<wgt id='1053'> +1.5777600e-12 </wgt>
<wgt id='1054'> +1.5798685e-12 </wgt>
<wgt id='1055'> +1.6003634e-12 </wgt>
<wgt id='1056'> +1.5861172e-12 </wgt>
<wgt id='1057'> +1.5591267e-12 </wgt>
<wgt id='1058'> +1.5419203e-12 </wgt>
<wgt id='1059'> +1.5537495e-12 </wgt>
<wgt id='1060'> +1.5439917e-12 </wgt>
<wgt id='1061'> +1.5911131e-12 </wgt>
<wgt id='1062'> +1.5867367e-12 </wgt>
<wgt id='1063'> +1.6017392e-12 </wgt>
<wgt id='1064'> +1.5557991e-12 </wgt>
<wgt id='1065'> +1.5491139e-12 </wgt>
<wgt id='1066'> +1.5833758e-12 </wgt>
<wgt id='1067'> +1.5679380e-12 </wgt>
<wgt id='1068'> +1.5816535e-12 </wgt>
<wgt id='1069'> +1.5781299e-12 </wgt>
<wgt id='1070'> +1.5627480e-12 </wgt>
<wgt id='1071'> +1.5506666e-12 </wgt>
<wgt id='1072'> +1.5821500e-12 </wgt>
<wgt id='1073'> +1.5606984e-12 </wgt>
<wgt id='1074'> +1.5219798e-12 </wgt>
<wgt id='1075'> +1.5550963e-12 </wgt>
<wgt id='1076'> +1.5831262e-12 </wgt>
<wgt id='1077'> +1.5973292e-12 </wgt>
<wgt id='1078'> +1.5677948e-12 </wgt>
<wgt id='1079'> +1.5217027e-12 </wgt>
<wgt id='1080'> +1.5316100e-12 </wgt>
<wgt id='1081'> +1.5815108e-12 </wgt>
<wgt id='1082'> +1.5391092e-12 </wgt>
<wgt id='1083'> +1.5821576e-12 </wgt>
<wgt id='1084'> +1.5407686e-12 </wgt>
<wgt id='1085'> +1.5544364e-12 </wgt>
<wgt id='1086'> +1.5536432e-12 </wgt>
<wgt id='1087'> +1.5369467e-12 </wgt>
<wgt id='1088'> +1.5037910e-12 </wgt>
<wgt id='1089'> +1.5367605e-12 </wgt>
<wgt id='1090'> +1.5098939e-12 </wgt>
<wgt id='1091'> +1.5478924e-12 </wgt>
<wgt id='1092'> +1.5621704e-12 </wgt>
<wgt id='1093'> +1.5022838e-12 </wgt>
<wgt id='1094'> +1.5658297e-12 </wgt>
<wgt id='1095'> +1.5677325e-12 </wgt>
<wgt id='1096'> +1.5717517e-12 </wgt>
<wgt id='1097'> +1.5432992e-12 </wgt>
<wgt id='1098'> +1.5873170e-12 </wgt>
<wgt id='1099'> +1.5464353e-12 </wgt>
<wgt id='1100'> +1.5634167e-12 </wgt>
<wgt id='1101'> +1.5327339e-12 </wgt>
<wgt id='1102'> +1.5499145e-12 </wgt>
<wgt id='1103'> +1.5785439e-12 </wgt>
<wgt id='1104'> +1.5556502e-12 </wgt>
<wgt id='1105'> +1.5721990e-12 </wgt>
<wgt id='1106'> +1.5803565e-12 </wgt>
<wgt id='1107'> +1.5716349e-12 </wgt>
<wgt id='1108'> +1.5712356e-12 </wgt>
<wgt id='1109'> +1.5127301e-12 </wgt>
<wgt id='1110'> +1.5523462e-12 </wgt>
<wgt id='1111'> +1.5479886e-12 </wgt>
<wgt id='1112'> +1.5363937e-12 </wgt>
<wgt id='1113'> +1.5129987e-12 </wgt>
<wgt id='1114'> +1.6094740e-12 </wgt>
<wgt id='1115'> +1.5430460e-12 </wgt>
<wgt id='1116'> +1.5865504e-12 </wgt>
<wgt id='1117'> +1.6030690e-12 </wgt>
<wgt id='1118'> +1.5872275e-12 </wgt>
<wgt id='1119'> +1.6057255e-12 </wgt>
<wgt id='1120'> +1.5998398e-12 </wgt>
<wgt id='1121'> +1.5612232e-12 </wgt>
<wgt id='1122'> +1.5272582e-12 </wgt>
<wgt id='1123'> +1.5892367e-12 </wgt>
<wgt id='1124'> +1.5588391e-12 </wgt>
<wgt id='1125'> +1.5540553e-12 </wgt>
<wgt id='1126'> +1.5325287e-12 </wgt>
<wgt id='1127'> +1.5379807e-12 </wgt>
<wgt id='1128'> +1.5867367e-12 </wgt>
<wgt id='1129'> +1.5329027e-12 </wgt>
<wgt id='1130'> +1.5884537e-12 </wgt>
<wgt id='1131'> +1.6139844e-12 </wgt>
<wgt id='1132'> +1.5075784e-12 </wgt>
<wgt id='1133'> +1.5318885e-12 </wgt>
<wgt id='1134'> +1.5535904e-12 </wgt>
<wgt id='1135'> +1.6015035e-12 </wgt>
<wgt id='1136'> +1.5323726e-12 </wgt>
<wgt id='1137'> +1.5240627e-12 </wgt>
<wgt id='1138'> +1.5607974e-12 </wgt>
<wgt id='1139'> +1.5777493e-12 </wgt>
<wgt id='1140'> +1.5635862e-12 </wgt>
<wgt id='1141'> +1.5550317e-12 </wgt>
<wgt id='1142'> +1.5445032e-12 </wgt>
<wgt id='1143'> +1.5402220e-12 </wgt>
<wgt id='1144'> +1.6010696e-12 </wgt>
<wgt id='1145'> +1.6059111e-12 </wgt>
<wgt id='1146'> +1.6087886e-12 </wgt>
<wgt id='1147'> +1.2352921e-12 </wgt>
<wgt id='1148'> +1.2686748e-12 </wgt>
<wgt id='1149'> +1.2394496e-12 </wgt>
<wgt id='1150'> +1.2540863e-12 </wgt>
<wgt id='1151'> +9.6398358e-13 </wgt>
<wgt id='1152'> +1.4007997e-12 </wgt>
<wgt id='1153'> +1.3948994e-12 </wgt>
<wgt id='1154'> +1.4042257e-12 </wgt>
<wgt id='1155'> +1.4014841e-12 </wgt>
<wgt id='1156'> +1.4004763e-12 </wgt>
<wgt id='1157'> +1.3978193e-12 </wgt>
<wgt id='1158'> +1.4047550e-12 </wgt>
<wgt id='1159'> +1.3984021e-12 </wgt>
<wgt id='1160'> +1.4024341e-12 </wgt>
<wgt id='1161'> +1.3936185e-12 </wgt>
<wgt id='1162'> +1.4057604e-12 </wgt>
<wgt id='1163'> +1.4045843e-12 </wgt>
<wgt id='1164'> +1.3970010e-12 </wgt>
<wgt id='1165'> +1.3874494e-12 </wgt>
<wgt id='1166'> +1.4137667e-12 </wgt>
<wgt id='1167'> +1.4132252e-12 </wgt>
<wgt id='1168'> +1.3839720e-12 </wgt>
<wgt id='1169'> +1.4052999e-12 </wgt>
<wgt id='1170'> +1.3973656e-12 </wgt>
<wgt id='1171'> +1.3986724e-12 </wgt>
<wgt id='1172'> +1.4034416e-12 </wgt>
<wgt id='1173'> +1.3921504e-12 </wgt>
<wgt id='1174'> +1.4091164e-12 </wgt>
<wgt id='1175'> +1.4029017e-12 </wgt>
<wgt id='1176'> +1.3982291e-12 </wgt>
<wgt id='1177'> +1.4013055e-12 </wgt>
<wgt id='1178'> +1.3997474e-12 </wgt>
<wgt id='1179'> +1.4103529e-12 </wgt>
<wgt id='1180'> +1.3862986e-12 </wgt>
<wgt id='1181'> +1.3963268e-12 </wgt>
<wgt id='1182'> +1.4050303e-12 </wgt>
<wgt id='1183'> +1.4003072e-12 </wgt>
<wgt id='1184'> +1.4009137e-12 </wgt>
<wgt id='1185'> +1.4009592e-12 </wgt>
<wgt id='1186'> +1.4007763e-12 </wgt>
<wgt id='1187'> +1.4001820e-12 </wgt>
<wgt id='1188'> +1.4010221e-12 </wgt>
<wgt id='1189'> +1.3987800e-12 </wgt>
<wgt id='1190'> +1.3840159e-12 </wgt>
<wgt id='1191'> +1.3911612e-12 </wgt>
<wgt id='1192'> +1.4077332e-12 </wgt>
<wgt id='1193'> +1.2847556e-12 </wgt>
<wgt id='1194'> +1.2813364e-12 </wgt>
<wgt id='1195'> +1.2875563e-12 </wgt>
<wgt id='1196'> +1.2866385e-12 </wgt>
<wgt id='1197'> +1.2827434e-12 </wgt>
<wgt id='1198'> +1.2873769e-12 </wgt>
<wgt id='1199'> +1.2809243e-12 </wgt>
<wgt id='1200'> +1.2862658e-12 </wgt>
<wgt id='1201'> +1.2837880e-12 </wgt>
<wgt id='1202'> +1.2810926e-12 </wgt>
<wgt id='1203'> +1.2900376e-12 </wgt>
<wgt id='1204'> +1.2633874e-12 </wgt>
<wgt id='1205'> +1.2980295e-12 </wgt>
<wgt id='1206'> +1.2906296e-12 </wgt>
<wgt id='1207'> +1.2768030e-12 </wgt>
<wgt id='1208'> +1.2774340e-12 </wgt>
<wgt id='1209'> +1.2874600e-12 </wgt>
<wgt id='1210'> +1.2831635e-12 </wgt>
<wgt id='1211'> +1.2776974e-12 </wgt>
<wgt id='1212'> +1.2829632e-12 </wgt>
<wgt id='1213'> +1.2864651e-12 </wgt>
<wgt id='1214'> +1.2748964e-12 </wgt>
<wgt id='1215'> +1.2988453e-12 </wgt>
<wgt id='1216'> +1.2910490e-12 </wgt>
<wgt id='1217'> +1.2803113e-12 </wgt>
<wgt id='1218'> +1.2916204e-12 </wgt>
<wgt id='1219'> +1.2812522e-12 </wgt>
<wgt id='1220'> +1.2897898e-12 </wgt>
<wgt id='1221'> +1.2839745e-12 </wgt>
<wgt id='1222'> +1.2867744e-12 </wgt>
<wgt id='1223'> +1.2848875e-12 </wgt>
<wgt id='1224'> +1.2859954e-12 </wgt>
<wgt id='1225'> +1.2842892e-12 </wgt>
<wgt id='1226'> +1.2849608e-12 </wgt>
<wgt id='1227'> +1.2847889e-12 </wgt>
<wgt id='1228'> +1.2807154e-12 </wgt>
<wgt id='1229'> +1.2865816e-12 </wgt>
<wgt id='1230'> +1.2909909e-12 </wgt>
<wgt id='1231'> +1.2706760e-12 </wgt>
<wgt id='1232'> +1.2822262e-12 </wgt>
<wgt id='1233'> +1.2854861e-12 </wgt>
<wgt id='1234'> +1.2847556e-12 </wgt>
<wgt id='1235'> +1.2748329e-12 </wgt>
<wgt id='1236'> +1.2785909e-12 </wgt>
<wgt id='1237'> +1.2819433e-12 </wgt>
<wgt id='1238'> +1.2878246e-12 </wgt>
<wgt id='1239'> +1.2901478e-12 </wgt>
<wgt id='1240'> +1.2923679e-12 </wgt>
<wgt id='1241'> +1.2247674e-12 </wgt>
<wgt id='1242'> +1.2173483e-12 </wgt>
<wgt id='1243'> +1.2321616e-12 </wgt>
<wgt id='1244'> +1.2197293e-12 </wgt>
<wgt id='1245'> +1.2285553e-12 </wgt>
<wgt id='1246'> +1.2261425e-12 </wgt>
<wgt id='1247'> +1.2236666e-12 </wgt>
<wgt id='1248'> +1.2246936e-12 </wgt>
<wgt id='1249'> +1.2249272e-12 </wgt>
<wgt id='1250'> +1.2209976e-12 </wgt>
<wgt id='1251'> +1.2274807e-12 </wgt>
<wgt id='1252'> +1.2219124e-12 </wgt>
<wgt id='1253'> +1.2270371e-12 </wgt>
<wgt id='1254'> +1.2056169e-12 </wgt>
<wgt id='1255'> +1.2363662e-12 </wgt>
<wgt id='1256'> +1.2297344e-12 </wgt>
<wgt id='1257'> +1.2124078e-12 </wgt>
<wgt id='1258'> +1.2358360e-12 </wgt>
<wgt id='1259'> +1.2132428e-12 </wgt>
<wgt id='1260'> +1.2289897e-12 </wgt>
<wgt id='1261'> +1.2201193e-12 </wgt>
<wgt id='1262'> +1.2274341e-12 </wgt>
<wgt id='1263'> +1.2235412e-12 </wgt>
<wgt id='1264'> +1.2352668e-12 </wgt>
<wgt id='1265'> +1.2198271e-12 </wgt>
<wgt id='1266'> +1.2193341e-12 </wgt>
<wgt id='1267'> +1.2311286e-12 </wgt>
<wgt id='1268'> +1.2257880e-12 </wgt>
<wgt id='1269'> +1.2276773e-12 </wgt>
<wgt id='1270'> +1.2185035e-12 </wgt>
<wgt id='1271'> +1.2214393e-12 </wgt>
<wgt id='1272'> +1.2250098e-12 </wgt>
<wgt id='1273'> +1.2244386e-12 </wgt>
<wgt id='1274'> +1.2251551e-12 </wgt>
<wgt id='1275'> +1.2233440e-12 </wgt>
<wgt id='1276'> +1.2256710e-12 </wgt>
<wgt id='1277'> +1.2230503e-12 </wgt>
<wgt id='1278'> +1.2216362e-12 </wgt>
<wgt id='1279'> +1.2262039e-12 </wgt>
<wgt id='1280'> +1.2254090e-12 </wgt>
<wgt id='1281'> +1.2228043e-12 </wgt>
<wgt id='1282'> +1.2247674e-12 </wgt>
<wgt id='1283'> +1.2148428e-12 </wgt>
<wgt id='1284'> +1.2187359e-12 </wgt>
<wgt id='1285'> +1.2221023e-12 </wgt>
<wgt id='1286'> +1.2277626e-12 </wgt>
<wgt id='1287'> +1.2299550e-12 </wgt>
<wgt id='1288'> +1.2318906e-12 </wgt>
<wgt id='1289'> +1.3266709e-12 </wgt>
<wgt id='1290'> +1.3289110e-12 </wgt>
<wgt id='1291'> +1.3242637e-12 </wgt>
<wgt id='1292'> +1.3276903e-12 </wgt>
<wgt id='1293'> +1.3259100e-12 </wgt>
<wgt id='1294'> +1.3252349e-12 </wgt>
<wgt id='1295'> +1.3280150e-12 </wgt>
<wgt id='1296'> +1.3225130e-12 </wgt>
<wgt id='1297'> +1.3317364e-12 </wgt>
<wgt id='1298'> +1.3360015e-12 </wgt>
<wgt id='1299'> +1.3150331e-12 </wgt>
<wgt id='1300'> +1.3310652e-12 </wgt>
<wgt id='1301'> +1.3178561e-12 </wgt>
<wgt id='1302'> +1.3252328e-12 </wgt>
<wgt id='1303'> +1.3286362e-12 </wgt>
<wgt id='1304'> +1.3219402e-12 </wgt>
<wgt id='1305'> +1.3299142e-12 </wgt>
<wgt id='1306'> +1.3172053e-12 </wgt>
<wgt id='1307'> +1.3373888e-12 </wgt>
<wgt id='1308'> +1.3259001e-12 </wgt>
<wgt id='1309'> +1.3272371e-12 </wgt>
<wgt id='1310'> +1.3233161e-12 </wgt>
<wgt id='1311'> +1.3303425e-12 </wgt>
<wgt id='1312'> +1.3181794e-12 </wgt>
<wgt id='1313'> +1.3354555e-12 </wgt>
<wgt id='1314'> +1.3302702e-12 </wgt>
<wgt id='1315'> +1.3161137e-12 </wgt>
<wgt id='1316'> +1.3327491e-12 </wgt>
<wgt id='1317'> +1.3274995e-12 </wgt>
<wgt id='1318'> +1.3378661e-12 </wgt>
<wgt id='1319'> +1.3133453e-12 </wgt>
<wgt id='1320'> +1.3328321e-12 </wgt>
<wgt id='1321'> +1.3205272e-12 </wgt>
<wgt id='1322'> +1.3281088e-12 </wgt>
<wgt id='1323'> +1.3245813e-12 </wgt>
<wgt id='1324'> +1.3259195e-12 </wgt>
<wgt id='1325'> +1.3326590e-12 </wgt>
<wgt id='1326'> +1.3297691e-12 </wgt>
<wgt id='1327'> +1.3264065e-12 </wgt>
<wgt id='1328'> +1.3253871e-12 </wgt>
<wgt id='1329'> +1.3277856e-12 </wgt>
<wgt id='1330'> +1.3250542e-12 </wgt>
<wgt id='1331'> +1.3290775e-12 </wgt>
<wgt id='1332'> +1.3535225e-12 </wgt>
<wgt id='1333'> +1.3172116e-12 </wgt>
<wgt id='1334'> +1.3250019e-12 </wgt>
<wgt id='1335'> +1.3314456e-12 </wgt>
<wgt id='1336'> +1.3264791e-12 </wgt>
<wgt id='1337'> +1.3212959e-12 </wgt>
<wgt id='1338'> +1.3268465e-12 </wgt>
<wgt id='1339'> +1.3264600e-12 </wgt>
<wgt id='1340'> +1.2985067e-12 </wgt>
<wgt id='1341'> +1.3007772e-12 </wgt>
<wgt id='1342'> +1.2960440e-12 </wgt>
<wgt id='1343'> +1.2995963e-12 </wgt>
<wgt id='1344'> +1.2977605e-12 </wgt>
<wgt id='1345'> +1.2969518e-12 </wgt>
<wgt id='1346'> +1.2998878e-12 </wgt>
<wgt id='1347'> +1.2943799e-12 </wgt>
<wgt id='1348'> +1.3030593e-12 </wgt>
<wgt id='1349'> +1.3071348e-12 </wgt>
<wgt id='1350'> +1.2900494e-12 </wgt>
<wgt id='1351'> +1.3029161e-12 </wgt>
<wgt id='1352'> +1.2889023e-12 </wgt>
<wgt id='1353'> +1.2962394e-12 </wgt>
<wgt id='1354'> +1.3025346e-12 </wgt>
<wgt id='1355'> +1.2937314e-12 </wgt>
<wgt id='1356'> +1.3011746e-12 </wgt>
<wgt id='1357'> +1.2883747e-12 </wgt>
<wgt id='1358'> +1.3104427e-12 </wgt>
<wgt id='1359'> +1.3000527e-12 </wgt>
<wgt id='1360'> +1.2971664e-12 </wgt>
<wgt id='1361'> +1.2951678e-12 </wgt>
<wgt id='1362'> +1.3030282e-12 </wgt>
<wgt id='1363'> +1.2872405e-12 </wgt>
<wgt id='1364'> +1.3066414e-12 </wgt>
<wgt id='1365'> +1.2901616e-12 </wgt>
<wgt id='1366'> +1.2997679e-12 </wgt>
<wgt id='1367'> +1.3041088e-12 </wgt>
<wgt id='1368'> +1.2988314e-12 </wgt>
<wgt id='1369'> +1.3080536e-12 </wgt>
<wgt id='1370'> +1.2871945e-12 </wgt>
<wgt id='1371'> +1.3040933e-12 </wgt>
<wgt id='1372'> +1.2911461e-12 </wgt>
<wgt id='1373'> +1.2996293e-12 </wgt>
<wgt id='1374'> +1.2969939e-12 </wgt>
<wgt id='1375'> +1.2976140e-12 </wgt>
<wgt id='1376'> +1.3048590e-12 </wgt>
<wgt id='1377'> +1.3015092e-12 </wgt>
<wgt id='1378'> +1.2987547e-12 </wgt>
<wgt id='1379'> +1.2971449e-12 </wgt>
<wgt id='1380'> +1.2998566e-12 </wgt>
<wgt id='1381'> +1.2980667e-12 </wgt>
<wgt id='1382'> +1.2994210e-12 </wgt>
<wgt id='1383'> +1.3235647e-12 </wgt>
<wgt id='1384'> +1.2895827e-12 </wgt>
<wgt id='1385'> +1.2971200e-12 </wgt>
<wgt id='1386'> +1.3021630e-12 </wgt>
<wgt id='1387'> +1.2979230e-12 </wgt>
<wgt id='1388'> +1.2924584e-12 </wgt>
<wgt id='1389'> +1.2982946e-12 </wgt>
<wgt id='1390'> +1.2981281e-12 </wgt>
<wgt id='1391'> +1.2785900e-12 </wgt>
<wgt id='1392'> +1.2390349e-12 </wgt>
<wgt id='1393'> +1.2525267e-12 </wgt>
<wgt id='1394'> +1.2660409e-12 </wgt>
<wgt id='1395'> +1.2913460e-12 </wgt>
<wgt id='1396'> +1.2785999e-12 </wgt>
<wgt id='1397'> +1.3053656e-12 </wgt>
<wgt id='1398'> +1.2994111e-12 </wgt>
<wgt id='1399'> +1.2938975e-12 </wgt>
<wgt id='1400'> +1.2888192e-12 </wgt>
<wgt id='1401'> +1.2837090e-12 </wgt>
<wgt id='1402'> +1.2741200e-12 </wgt>
<wgt id='1403'> +1.2698479e-12 </wgt>
<wgt id='1404'> +1.2657559e-12 </wgt>
<wgt id='1405'> +1.2785999e-12 </wgt>
<wgt id='1406'> +1.2714360e-12 </wgt>
<wgt id='1407'> +1.2751242e-12 </wgt>
<wgt id='1408'> +1.2818573e-12 </wgt>
<wgt id='1409'> +1.2845646e-12 </wgt>
<wgt id='1410'> +1.2011673e-12 </wgt>
<wgt id='1411'> +1.2034181e-12 </wgt>
<wgt id='1412'> +1.1982568e-12 </wgt>
<wgt id='1413'> +1.2032624e-12 </wgt>
<wgt id='1414'> +1.1990480e-12 </wgt>
<wgt id='1415'> +1.2031423e-12 </wgt>
<wgt id='1416'> +1.2003336e-12 </wgt>
<wgt id='1417'> +1.1944244e-12 </wgt>
<wgt id='1418'> +1.2078779e-12 </wgt>
<wgt id='1419'> +1.2051172e-12 </wgt>
<wgt id='1420'> +1.1973157e-12 </wgt>
<wgt id='1421'> +1.1810227e-12 </wgt>
<wgt id='1422'> +1.2098709e-12 </wgt>
<wgt id='1423'> +1.2010626e-12 </wgt>
<wgt id='1424'> +1.2012668e-12 </wgt>
<wgt id='1425'> +1.1950904e-12 </wgt>
<wgt id='1426'> +1.2077075e-12 </wgt>
<wgt id='1427'> +1.1875192e-12 </wgt>
<wgt id='1428'> +1.2084719e-12 </wgt>
<wgt id='1429'> +1.1980303e-12 </wgt>
<wgt id='1430'> +1.2054640e-12 </wgt>
<wgt id='1431'> +1.2033392e-12 </wgt>
<wgt id='1432'> +1.1995374e-12 </wgt>
<wgt id='1433'> +1.2067609e-12 </wgt>
<wgt id='1434'> +1.1940398e-12 </wgt>
<wgt id='1435'> +1.2052580e-12 </wgt>
<wgt id='1436'> +1.1913944e-12 </wgt>
<wgt id='1437'> +1.2083387e-12 </wgt>
<wgt id='1438'> +1.2003468e-12 </wgt>
<wgt id='1439'> +1.1950925e-12 </wgt>
<wgt id='1440'> +1.2144169e-12 </wgt>
<wgt id='1441'> +1.2027013e-12 </wgt>
<wgt id='1442'> +1.1985086e-12 </wgt>
<wgt id='1443'> +1.1994199e-12 </wgt>
<wgt id='1444'> +1.2062215e-12 </wgt>
<wgt id='1445'> +1.2067183e-12 </wgt>
<wgt id='1446'> +1.2001255e-12 </wgt>
<wgt id='1447'> +1.2019300e-12 </wgt>
<wgt id='1448'> +1.2027483e-12 </wgt>
<wgt id='1449'> +1.2001188e-12 </wgt>
<wgt id='1450'> +1.2017338e-12 </wgt>
<wgt id='1451'> +1.1993429e-12 </wgt>
<wgt id='1452'> +1.2035905e-12 </wgt>
<wgt id='1453'> +1.2021107e-12 </wgt>
<wgt id='1454'> +1.1955032e-12 </wgt>
<wgt id='1455'> +1.1953822e-12 </wgt>
<wgt id='1456'> +1.2058387e-12 </wgt>
<wgt id='1457'> +1.2030606e-12 </wgt>
<wgt id='1458'> +1.2005481e-12 </wgt>
<wgt id='1459'> +1.2041307e-12 </wgt>
<wgt id='1460'> +1.2009856e-12 </wgt>
<wgt id='1461'> +1.2011673e-12 </wgt>
<wgt id='1462'> +1.1941843e-12 </wgt>
<wgt id='1463'> +1.2076489e-12 </wgt>
<wgt id='1464'> +1.2014127e-12 </wgt>
<wgt id='1465'> +1.2314915e-12 </wgt>
<wgt id='1466'> +1.2242309e-12 </wgt>
<wgt id='1467'> +1.2177245e-12 </wgt>
<wgt id='1468'> +1.2132912e-12 </wgt>
<wgt id='1469'> +1.2066599e-12 </wgt>
<wgt id='1470'> +1.1969999e-12 </wgt>
<wgt id='1471'> +1.1913341e-12 </wgt>
<wgt id='1472'> +1.1865563e-12 </wgt>
<wgt id='1473'> +1.2014127e-12 </wgt>
<wgt id='1474'> +1.1946403e-12 </wgt>
<wgt id='1475'> +1.1985559e-12 </wgt>
<wgt id='1476'> +1.2041870e-12 </wgt>
<wgt id='1477'> +1.2065484e-12 </wgt>
<wgt id='1478'> +1.2609719e-12 </wgt>
<wgt id='1479'> +1.2614344e-12 </wgt>
<wgt id='1480'> +1.2599145e-12 </wgt>
<wgt id='1481'> +1.2535886e-12 </wgt>
<wgt id='1482'> +1.2667862e-12 </wgt>
<wgt id='1483'> +1.2522771e-12 </wgt>
<wgt id='1484'> +1.2613124e-12 </wgt>
<wgt id='1485'> +1.2774065e-12 </wgt>
<wgt id='1486'> +1.2606919e-12 </wgt>
<wgt id='1487'> +1.2632517e-12 </wgt>
<wgt id='1488'> +1.2562946e-12 </wgt>
<wgt id='1489'> +1.2819685e-12 </wgt>
<wgt id='1490'> +1.2627930e-12 </wgt>
<wgt id='1491'> +1.2649558e-12 </wgt>
<wgt id='1492'> +1.2581138e-12 </wgt>
<wgt id='1493'> +1.2493950e-12 </wgt>
<wgt id='1494'> +1.2631729e-12 </wgt>
<wgt id='1495'> +1.2711590e-12 </wgt>
<wgt id='1496'> +1.2602849e-12 </wgt>
<wgt id='1497'> +1.2660954e-12 </wgt>
<wgt id='1498'> +1.2591419e-12 </wgt>
<wgt id='1499'> +1.2645967e-12 </wgt>
<wgt id='1500'> +1.2599880e-12 </wgt>
<wgt id='1501'> +1.2602515e-12 </wgt>
<wgt id='1502'> +1.2620183e-12 </wgt>
<wgt id='1503'> +1.2641978e-12 </wgt>
<wgt id='1504'> +1.2624411e-12 </wgt>
<wgt id='1505'> +1.2609517e-12 </wgt>
<wgt id='1506'> +1.2630853e-12 </wgt>
<wgt id='1507'> +1.2601111e-12 </wgt>
<wgt id='1508'> +1.2699665e-12 </wgt>
<wgt id='1509'> +1.2530765e-12 </wgt>
<wgt id='1510'> +1.2506263e-12 </wgt>
<wgt id='1511'> +1.2540822e-12 </wgt>
<wgt id='1512'> +1.2522072e-12 </wgt>
<wgt id='1513'> +1.2549237e-12 </wgt>
<wgt id='1514'> +1.2541577e-12 </wgt>
<wgt id='1515'> +1.2536867e-12 </wgt>
<wgt id='1516'> +1.2556984e-12 </wgt>
<wgt id='1517'> +1.2581894e-12 </wgt>
<wgt id='1518'> +1.2522769e-12 </wgt>
<wgt id='1519'> +1.2480505e-12 </wgt>
<wgt id='1520'> +1.2596312e-12 </wgt>
<wgt id='1521'> +1.2584329e-12 </wgt>
<wgt id='1522'> +1.2606798e-12 </wgt>
<wgt id='1523'> +1.2599050e-12 </wgt>
<wgt id='1524'> +1.2566353e-12 </wgt>
<wgt id='1525'> +1.2533120e-12 </wgt>
<wgt id='1526'> +1.2555882e-12 </wgt>
<wgt id='1527'> +1.2567651e-12 </wgt>
<wgt id='1528'> +1.2496435e-12 </wgt>
<wgt id='1529'> +1.2577862e-12 </wgt>
<wgt id='1530'> +1.2442742e-12 </wgt>
<wgt id='1531'> +1.2564155e-12 </wgt>
<wgt id='1532'> +1.2539304e-12 </wgt>
<wgt id='1533'> +1.2510537e-12 </wgt>
<wgt id='1534'> +1.2521991e-12 </wgt>
<wgt id='1535'> +1.2601033e-12 </wgt>
<wgt id='1536'> +1.2559834e-12 </wgt>
<wgt id='1537'> +1.2524551e-12 </wgt>
<wgt id='1538'> +1.2525725e-12 </wgt>
<wgt id='1539'> +1.2532114e-12 </wgt>
<wgt id='1540'> +1.2518730e-12 </wgt>
<wgt id='1541'> +1.2535349e-12 </wgt>
<wgt id='1542'> +1.2516768e-12 </wgt>
<wgt id='1543'> +1.2534304e-12 </wgt>
<wgt id='1544'> +1.2547151e-12 </wgt>
<wgt id='1545'> +1.2515422e-12 </wgt>
<wgt id='1546'> +1.2520112e-12 </wgt>
<wgt id='1547'> +1.2526618e-12 </wgt>
<wgt id='1548'> +1.2546128e-12 </wgt>
<wgt id='1549'> +1.2533259e-12 </wgt>
<wgt id='1550'> +1.2514900e-12 </wgt>
<wgt id='1551'> +1.2535564e-12 </wgt>
<wgt id='1552'> +1.2530517e-12 </wgt>
<wgt id='1553'> +1.2525496e-12 </wgt>
<wgt id='1554'> +1.2517082e-12 </wgt>
<wgt id='1555'> +1.2537192e-12 </wgt>
<wgt id='1556'> +1.2533299e-12 </wgt>
<wgt id='1557'> +1.2535948e-12 </wgt>
<wgt id='1558'> +1.2530776e-12 </wgt>
<wgt id='1559'> +1.2525309e-12 </wgt>
<wgt id='1560'> +1.2531073e-12 </wgt>
<wgt id='1561'> +1.2523847e-12 </wgt>
<wgt id='1562'> +1.2529231e-12 </wgt>
<wgt id='1563'> +1.2538513e-12 </wgt>
<wgt id='1564'> +1.2530279e-12 </wgt>
<wgt id='1565'> +1.2530977e-12 </wgt>
<wgt id='1566'> +1.2530828e-12 </wgt>
<wgt id='1567'> +1.2528348e-12 </wgt>
<wgt id='1568'> +1.2522478e-12 </wgt>
<wgt id='1569'> +1.2529433e-12 </wgt>
<wgt id='1570'> +1.2532344e-12 </wgt>
<wgt id='1571'> +1.2535260e-12 </wgt>
<wgt id='1572'> +1.2524795e-12 </wgt>
<wgt id='1573'> +1.2535310e-12 </wgt>
<wgt id='1574'> +1.2533516e-12 </wgt>
<wgt id='1575'> +1.2533700e-12 </wgt>
<wgt id='1576'> +1.2530878e-12 </wgt>
<wgt id='1577'> +1.2536054e-12 </wgt>
<wgt id='1578'> +1.2526999e-12 </wgt>
<wgt id='1579'> +1.2528805e-12 </wgt>
<wgt id='1580'> +1.2533678e-12 </wgt>
<wgt id='1581'> +1.2535824e-12 </wgt>
<wgt id='1582'> +1.2534708e-12 </wgt>
<wgt id='1583'> +1.2531312e-12 </wgt>
<wgt id='1584'> +1.2534011e-12 </wgt>
<wgt id='1585'> +1.2529686e-12 </wgt>
<wgt id='1586'> +1.2539191e-12 </wgt>
<wgt id='1587'> +1.2534584e-12 </wgt>
<wgt id='1588'> +1.2527485e-12 </wgt>
<wgt id='1589'> +1.2530528e-12 </wgt>
<wgt id='1590'> +1.2528162e-12 </wgt>
<wgt id='1591'> +1.2527324e-12 </wgt>
<wgt id='1592'> +1.2532615e-12 </wgt>
<wgt id='1593'> +1.2539408e-12 </wgt>
<wgt id='1594'> +1.2527820e-12 </wgt>
<wgt id='1595'> +1.2535064e-12 </wgt>
<wgt id='1596'> +1.2528956e-12 </wgt>
<wgt id='1597'> +1.2528577e-12 </wgt>
<wgt id='1598'> +1.2536099e-12 </wgt>
<wgt id='1599'> +1.2529169e-12 </wgt>
<wgt id='1600'> +1.2529157e-12 </wgt>
<wgt id='1601'> +1.2535274e-12 </wgt>
<wgt id='1602'> +1.2534114e-12 </wgt>
<wgt id='1603'> +1.2532890e-12 </wgt>
<wgt id='1604'> +1.2531849e-12 </wgt>
<wgt id='1605'> +1.2535452e-12 </wgt>
<wgt id='1606'> +1.2521019e-12 </wgt>
<wgt id='1607'> +1.2535225e-12 </wgt>
<wgt id='1608'> +1.2530847e-12 </wgt>
<wgt id='1609'> +1.2531469e-12 </wgt>
<wgt id='1610'> +1.2233757e-12 </wgt>
<wgt id='1611'> +1.2831940e-12 </wgt>
<wgt id='1612'> +1.4792018e-12 </wgt>
<wgt id='1613'> +1.4956148e-12 </wgt>
<wgt id='1614'> +1.4881144e-12 </wgt>
<wgt id='1615'> +1.4804910e-12 </wgt>
<wgt id='1616'> +1.4808630e-12 </wgt>
<wgt id='1617'> +1.4392952e-12 </wgt>
<wgt id='1618'> +1.4103911e-12 </wgt>
<wgt id='1619'> +1.4756956e-12 </wgt>
<wgt id='1620'> +1.4974867e-12 </wgt>
<wgt id='1621'> +1.4907560e-12 </wgt>
<wgt id='1622'> +1.4959130e-12 </wgt>
<wgt id='1623'> +1.4876769e-12 </wgt>
<wgt id='1624'> +1.4728030e-12 </wgt>
<wgt id='1625'> +1.4934989e-12 </wgt>
<wgt id='1626'> +1.4923962e-12 </wgt>
<wgt id='1627'> +1.4822326e-12 </wgt>
<wgt id='1628'> +1.5193343e-12 </wgt>
<wgt id='1629'> +1.5418296e-12 </wgt>
<wgt id='1630'> +1.4888893e-12 </wgt>
<wgt id='1631'> +1.4797976e-12 </wgt>
<wgt id='1632'> +1.5094473e-12 </wgt>
<wgt id='1633'> +1.4631179e-12 </wgt>
<wgt id='1634'> +1.4895431e-12 </wgt>
<wgt id='1635'> +1.4590790e-12 </wgt>
<wgt id='1636'> +1.4571999e-12 </wgt>
<wgt id='1637'> +1.4247688e-12 </wgt>
<wgt id='1638'> +1.4867906e-12 </wgt>
<wgt id='1639'> +1.5027569e-12 </wgt>
<wgt id='1640'> +1.4940930e-12 </wgt>
<wgt id='1641'> +1.4592829e-12 </wgt>
<wgt id='1642'> +1.4892611e-12 </wgt>
<wgt id='1643'> +1.5048158e-12 </wgt>
<wgt id='1644'> +1.4448999e-12 </wgt>
<wgt id='1645'> +1.5007881e-12 </wgt>
<wgt id='1646'> +1.5190352e-12 </wgt>
<wgt id='1647'> +1.4976124e-12 </wgt>
<wgt id='1648'> +1.5097805e-12 </wgt>
<wgt id='1649'> +1.4275302e-12 </wgt>
<wgt id='1650'> +1.4813947e-12 </wgt>
<wgt id='1651'> +1.4507511e-12 </wgt>
<wgt id='1652'> +1.5033041e-12 </wgt>
<wgt id='1653'> +1.4386238e-12 </wgt>
<wgt id='1654'> +1.4383007e-12 </wgt>
<wgt id='1655'> +1.4574411e-12 </wgt>
<wgt id='1656'> +1.4816469e-12 </wgt>
<wgt id='1657'> +1.4467977e-12 </wgt>
<wgt id='1658'> +1.4987405e-12 </wgt>
<wgt id='1659'> +1.4728030e-12 </wgt>
<wgt id='1660'> +1.4598715e-12 </wgt>
<wgt id='1661'> +1.4567017e-12 </wgt>
<wgt id='1662'> +1.4794008e-12 </wgt>
<wgt id='1663'> +1.4726674e-12 </wgt>
<wgt id='1664'> +1.5304606e-12 </wgt>
<wgt id='1665'> +1.4838813e-12 </wgt>
<wgt id='1666'> +1.4489448e-12 </wgt>
<wgt id='1667'> +1.4827711e-12 </wgt>
<wgt id='1668'> +1.4636534e-12 </wgt>
<wgt id='1669'> +1.4771694e-12 </wgt>
<wgt id='1670'> +1.4842068e-12 </wgt>
<wgt id='1671'> +1.4980054e-12 </wgt>
<wgt id='1672'> +1.5078339e-12 </wgt>
<wgt id='1673'> +1.4447231e-12 </wgt>
<wgt id='1674'> +1.4832305e-12 </wgt>
<wgt id='1675'> +1.5059211e-12 </wgt>
<wgt id='1676'> +1.4633005e-12 </wgt>
<wgt id='1677'> +1.4806495e-12 </wgt>
<wgt id='1678'> +1.4744187e-12 </wgt>
<wgt id='1679'> +1.4983565e-12 </wgt>
<wgt id='1680'> +1.4957403e-12 </wgt>
<wgt id='1681'> +1.4960802e-12 </wgt>
<wgt id='1682'> +1.4723354e-12 </wgt>
<wgt id='1683'> +1.4635573e-12 </wgt>
<wgt id='1684'> +1.4608003e-12 </wgt>
<wgt id='1685'> +1.4774659e-12 </wgt>
<wgt id='1686'> +1.4845681e-12 </wgt>
<wgt id='1687'> +1.4984922e-12 </wgt>
<wgt id='1688'> +1.4662717e-12 </wgt>
<wgt id='1689'> +1.4806484e-12 </wgt>
<wgt id='1690'> +1.4697727e-12 </wgt>
<wgt id='1691'> +1.5101409e-12 </wgt>
<wgt id='1692'> +1.5005735e-12 </wgt>
<wgt id='1693'> +1.4837861e-12 </wgt>
<wgt id='1694'> +1.4424083e-12 </wgt>
<wgt id='1695'> +1.5329637e-12 </wgt>
<wgt id='1696'> +1.4977968e-12 </wgt>
<wgt id='1697'> +1.4667187e-12 </wgt>
<wgt id='1698'> +1.4553618e-12 </wgt>
<wgt id='1699'> +1.4595922e-12 </wgt>
<wgt id='1700'> +1.4726962e-12 </wgt>
<wgt id='1701'> +1.4885709e-12 </wgt>
<wgt id='1702'> +1.4453104e-12 </wgt>
<wgt id='1703'> +1.5133392e-12 </wgt>
<wgt id='1704'> +1.4727321e-12 </wgt>
<wgt id='1705'> +1.4987258e-12 </wgt>
<wgt id='1706'> +1.4727128e-12 </wgt>
<wgt id='1707'> +1.4544345e-12 </wgt>
<wgt id='1708'> +1.4679958e-12 </wgt>
<wgt id='1709'> +1.4802588e-12 </wgt>
<wgt id='1710'> +1.4514342e-12 </wgt>
<wgt id='1711'> +1.4690519e-12 </wgt>
<wgt id='1712'> +1.4957441e-12 </wgt>
<wgt id='1713'> +1.2875552e-12 </wgt>
<wgt id='1714'> +1.2526782e-12 </wgt>
<wgt id='1715'> +1.2726962e-12 </wgt>
<wgt id='1716'> +1.2865334e-12 </wgt>
<wgt id='1717'> +1.2692349e-12 </wgt>
<wgt id='1718'> +1.2711097e-12 </wgt>
<wgt id='1719'> +1.3105439e-12 </wgt>
<wgt id='1720'> +1.2971783e-12 </wgt>
<wgt id='1721'> +1.2948207e-12 </wgt>
<wgt id='1722'> +1.2839274e-12 </wgt>
<wgt id='1723'> +1.2460581e-12 </wgt>
<wgt id='1724'> +1.2687900e-12 </wgt>
<wgt id='1725'> +1.3109894e-12 </wgt>
<wgt id='1726'> +1.3149872e-12 </wgt>
<wgt id='1727'> +1.2594132e-12 </wgt>
<wgt id='1728'> +1.2984961e-12 </wgt>
<wgt id='1729'> +1.2890782e-12 </wgt>
<wgt id='1730'> +1.2657495e-12 </wgt>
<wgt id='1731'> +1.2622423e-12 </wgt>
<wgt id='1732'> +1.3077494e-12 </wgt>
<wgt id='1733'> +1.2985936e-12 </wgt>
<wgt id='1734'> +1.3051690e-12 </wgt>
<wgt id='1735'> +1.2837903e-12 </wgt>
<wgt id='1736'> +1.3850196e-12 </wgt>
<wgt id='1737'> +1.2968624e-12 </wgt>
<wgt id='1738'> +1.3028971e-12 </wgt>
<wgt id='1739'> +1.2675198e-12 </wgt>
<wgt id='1740'> +1.2420982e-12 </wgt>
<wgt id='1741'> +1.2862764e-12 </wgt>
<wgt id='1742'> +1.2784557e-12 </wgt>
<wgt id='1743'> +1.3149722e-12 </wgt>
<wgt id='1744'> +1.3006936e-12 </wgt>
<wgt id='1745'> +1.2404684e-12 </wgt>
<wgt id='1746'> +1.2897017e-12 </wgt>
<wgt id='1747'> +1.3075829e-12 </wgt>
<wgt id='1748'> +1.2793990e-12 </wgt>
<wgt id='1749'> +1.3072826e-12 </wgt>
<wgt id='1750'> +1.3121226e-12 </wgt>
<wgt id='1751'> +1.2897725e-12 </wgt>
<wgt id='1752'> +1.2485728e-12 </wgt>
<wgt id='1753'> +1.3130752e-12 </wgt>
<wgt id='1754'> +1.2850766e-12 </wgt>
<wgt id='1755'> +1.2896284e-12 </wgt>
<wgt id='1756'> +1.3092353e-12 </wgt>
<wgt id='1757'> +1.2865240e-12 </wgt>
<wgt id='1758'> +1.3001336e-12 </wgt>
<wgt id='1759'> +1.3033992e-12 </wgt>
<wgt id='1760'> +1.2661255e-12 </wgt>
<wgt id='1761'> +1.2690872e-12 </wgt>
<wgt id='1762'> +1.2754948e-12 </wgt>
<wgt id='1763'> +1.2915499e-12 </wgt>
<wgt id='1764'> +1.2952996e-12 </wgt>
<wgt id='1765'> +1.2767986e-12 </wgt>
<wgt id='1766'> +1.3100002e-12 </wgt>
<wgt id='1767'> +1.2935805e-12 </wgt>
<wgt id='1768'> +1.2818276e-12 </wgt>
<wgt id='1769'> +1.2632964e-12 </wgt>
<wgt id='1770'> +1.3136439e-12 </wgt>
<wgt id='1771'> +1.2873542e-12 </wgt>
<wgt id='1772'> +1.3010349e-12 </wgt>
<wgt id='1773'> +1.2820482e-12 </wgt>
<wgt id='1774'> +1.2887621e-12 </wgt>
<wgt id='1775'> +1.2906044e-12 </wgt>
<wgt id='1776'> +1.3103607e-12 </wgt>
<wgt id='1777'> +1.2529750e-12 </wgt>
<wgt id='1778'> +1.2641235e-12 </wgt>
<wgt id='1779'> +1.3113691e-12 </wgt>
<wgt id='1780'> +1.3313811e-12 </wgt>
<wgt id='1781'> +1.2688799e-12 </wgt>
<wgt id='1782'> +1.2418072e-12 </wgt>
<wgt id='1783'> +1.2973158e-12 </wgt>
<wgt id='1784'> +1.3010612e-12 </wgt>
<wgt id='1785'> +1.2866751e-12 </wgt>
<wgt id='1786'> +1.2029214e-12 </wgt>
<wgt id='1787'> +1.3088559e-12 </wgt>
<wgt id='1788'> +1.2728814e-12 </wgt>
<wgt id='1789'> +1.2822961e-12 </wgt>
<wgt id='1790'> +1.3139750e-12 </wgt>
<wgt id='1791'> +1.3253535e-12 </wgt>
<wgt id='1792'> +1.2671441e-12 </wgt>
<wgt id='1793'> +1.2955642e-12 </wgt>
<wgt id='1794'> +1.2901268e-12 </wgt>
<wgt id='1795'> +1.2758109e-12 </wgt>
<wgt id='1796'> +1.2946365e-12 </wgt>
<wgt id='1797'> +1.2900132e-12 </wgt>
<wgt id='1798'> +1.2576403e-12 </wgt>
<wgt id='1799'> +1.2840142e-12 </wgt>
<wgt id='1800'> +1.2812136e-12 </wgt>
<wgt id='1801'> +1.2764670e-12 </wgt>
<wgt id='1802'> +1.3106323e-12 </wgt>
<wgt id='1803'> +1.2869490e-12 </wgt>
<wgt id='1804'> +1.2713118e-12 </wgt>
<wgt id='1805'> +1.2950984e-12 </wgt>
<wgt id='1806'> +1.2723346e-12 </wgt>
<wgt id='1807'> +1.3134728e-12 </wgt>
<wgt id='1808'> +1.2774149e-12 </wgt>
<wgt id='1809'> +1.2852406e-12 </wgt>
<wgt id='1810'> +1.2754766e-12 </wgt>
<wgt id='1811'> +1.3218779e-12 </wgt>
<wgt id='1812'> +1.3088943e-12 </wgt>
<wgt id='1813'> +1.2792808e-12 </wgt>
<wgt id='1814'> +1.1025911e-12 </wgt>
<wgt id='1815'> +1.2499582e-12 </wgt>
<wgt id='1816'> +1.2875552e-12 </wgt>
<wgt id='1817'> +1.2526782e-12 </wgt>
<wgt id='1818'> +1.2726962e-12 </wgt>
<wgt id='1819'> +1.2865334e-12 </wgt>
<wgt id='1820'> +1.2692349e-12 </wgt>
<wgt id='1821'> +1.2711097e-12 </wgt>
<wgt id='1822'> +1.3105439e-12 </wgt>
<wgt id='1823'> +1.2971783e-12 </wgt>
<wgt id='1824'> +1.2948207e-12 </wgt>
<wgt id='1825'> +1.2839274e-12 </wgt>
<wgt id='1826'> +1.2460581e-12 </wgt>
<wgt id='1827'> +1.2687900e-12 </wgt>
<wgt id='1828'> +1.3109894e-12 </wgt>
<wgt id='1829'> +1.3149872e-12 </wgt>
<wgt id='1830'> +1.2594132e-12 </wgt>
<wgt id='1831'> +1.2984961e-12 </wgt>
<wgt id='1832'> +1.2890782e-12 </wgt>
<wgt id='1833'> +1.2657495e-12 </wgt>
<wgt id='1834'> +1.2622423e-12 </wgt>
<wgt id='1835'> +1.3077494e-12 </wgt>
<wgt id='1836'> +1.2985936e-12 </wgt>
<wgt id='1837'> +1.3051690e-12 </wgt>
<wgt id='1838'> +1.2837903e-12 </wgt>
<wgt id='1839'> +1.3850196e-12 </wgt>
<wgt id='1840'> +1.2968624e-12 </wgt>
<wgt id='1841'> +1.3028971e-12 </wgt>
<wgt id='1842'> +1.2675198e-12 </wgt>
<wgt id='1843'> +1.2420982e-12 </wgt>
<wgt id='1844'> +1.2862764e-12 </wgt>
<wgt id='1845'> +1.2784557e-12 </wgt>
<wgt id='1846'> +1.3149722e-12 </wgt>
<wgt id='1847'> +1.3006936e-12 </wgt>
<wgt id='1848'> +1.2404684e-12 </wgt>
<wgt id='1849'> +1.2897017e-12 </wgt>
<wgt id='1850'> +1.3075829e-12 </wgt>
<wgt id='1851'> +1.2793990e-12 </wgt>
<wgt id='1852'> +1.3072826e-12 </wgt>
<wgt id='1853'> +1.3121226e-12 </wgt>
<wgt id='1854'> +1.2897725e-12 </wgt>
<wgt id='1855'> +1.2485728e-12 </wgt>
<wgt id='1856'> +1.3130752e-12 </wgt>
<wgt id='1857'> +1.2850766e-12 </wgt>
<wgt id='1858'> +1.2896284e-12 </wgt>
<wgt id='1859'> +1.3092353e-12 </wgt>
<wgt id='1860'> +1.2865240e-12 </wgt>
<wgt id='1861'> +1.3001336e-12 </wgt>
<wgt id='1862'> +1.3033992e-12 </wgt>
<wgt id='1863'> +1.2661255e-12 </wgt>
<wgt id='1864'> +1.2690872e-12 </wgt>
<wgt id='1865'> +1.2754948e-12 </wgt>
<wgt id='1866'> +1.2915499e-12 </wgt>
<wgt id='1867'> +1.2952996e-12 </wgt>
<wgt id='1868'> +1.2767986e-12 </wgt>
<wgt id='1869'> +1.3100002e-12 </wgt>
<wgt id='1870'> +1.2935805e-12 </wgt>
<wgt id='1871'> +1.2818276e-12 </wgt>
<wgt id='1872'> +1.2632964e-12 </wgt>
<wgt id='1873'> +1.3136439e-12 </wgt>
<wgt id='1874'> +1.2873542e-12 </wgt>
<wgt id='1875'> +1.3010349e-12 </wgt>
<wgt id='1876'> +1.2820482e-12 </wgt>
<wgt id='1877'> +1.2887621e-12 </wgt>
<wgt id='1878'> +1.2906044e-12 </wgt>
<wgt id='1879'> +1.3103607e-12 </wgt>
<wgt id='1880'> +1.2529750e-12 </wgt>
<wgt id='1881'> +1.2641235e-12 </wgt>
<wgt id='1882'> +1.3113691e-12 </wgt>
<wgt id='1883'> +1.3313811e-12 </wgt>
<wgt id='1884'> +1.2688799e-12 </wgt>
<wgt id='1885'> +1.2418072e-12 </wgt>
<wgt id='1886'> +1.2973158e-12 </wgt>
<wgt id='1887'> +1.3010612e-12 </wgt>
<wgt id='1888'> +1.2866751e-12 </wgt>
<wgt id='1889'> +1.2029214e-12 </wgt>
<wgt id='1890'> +1.3088559e-12 </wgt>
<wgt id='1891'> +1.2728814e-12 </wgt>
<wgt id='1892'> +1.2822961e-12 </wgt>
<wgt id='1893'> +1.3139750e-12 </wgt>
<wgt id='1894'> +1.3253535e-12 </wgt>
<wgt id='1895'> +1.2671441e-12 </wgt>
<wgt id='1896'> +1.2955642e-12 </wgt>
<wgt id='1897'> +1.2901268e-12 </wgt>
<wgt id='1898'> +1.2758109e-12 </wgt>
<wgt id='1899'> +1.2946365e-12 </wgt>
<wgt id='1900'> +1.2900132e-12 </wgt>
<wgt id='1901'> +1.2576403e-12 </wgt>
<wgt id='1902'> +1.2840142e-12 </wgt>
<wgt id='1903'> +1.2812136e-12 </wgt>
<wgt id='1904'> +1.2764670e-12 </wgt>
<wgt id='1905'> +1.3106323e-12 </wgt>
<wgt id='1906'> +1.2869490e-12 </wgt>
<wgt id='1907'> +1.2713118e-12 </wgt>
<wgt id='1908'> +1.2950984e-12 </wgt>
<wgt id='1909'> +1.2723346e-12 </wgt>
<wgt id='1910'> +1.3134728e-12 </wgt>
<wgt id='1911'> +1.2774149e-12 </wgt>
<wgt id='1912'> +1.2852406e-12 </wgt>
<wgt id='1913'> +1.2754766e-12 </wgt>
<wgt id='1914'> +1.3218779e-12 </wgt>
<wgt id='1915'> +1.3088943e-12 </wgt>
<wgt id='1916'> +1.2792808e-12 </wgt>
<wgt id='1917'> +1.2723262e-12 </wgt>
<wgt id='1918'> +1.3012607e-12 </wgt>
<wgt id='1919'> +1.2496710e-12 </wgt>
</rwgt>
</event>
<event>
 9      1 +1.5607000e-12 5.35077500e+01 7.81860800e-03 1.29513000e-01
       21 -1    0    0  501  502 +0.0000000000e+00 +0.0000000000e+00 +1.0309121321e+00 1.0309121321e+00 0.0000000000e+00 0.0000e+00 1.0000e+00
        2 -1    0    0  502    0 -0.0000000000e+00 -0.0000000000e+00 -6.9430722841e+02 6.9430722841e+02 0.0000000000e+00 0.0000e+00 -1.0000e+00
     1023  2    1    2    0    0 +1.9541247233e+01 +8.8459295964e+00 -2.1602331693e+02 2.1760334361e+02 1.5001029254e+01 0.0000e+00 0.0000e+00
  1000023  2    3    3    0    0 +7.4286680257e+00 +9.1844664903e+00 -1.0194579140e+02 1.0277516321e+02 5.5000232508e+00 0.0000e+00 0.0000e+00
        2  1    1    2  501    0 -1.9541247233e+01 -8.8459295964e+00 -4.7725299935e+02 4.7773479694e+02 0.0000000000e+00 0.0000e+00 -1.0000e+00
  1000022  1    4    4    0    0 +6.5014233758e+00 +8.5942619036e+00 -9.2932359627e+01 9.3688597542e+01 5.0000000000e+00 0.0000e+00 1.0000e+00
      -11  1    4    4    0    0 +5.6517763989e-01 +4.7154404344e-01 -6.8916130972e+00 6.9308088195e+00 5.1100000000e-04 0.0000e+00 1.0000e+00
       11  1    4    4    0    0 +3.6206701001e-01 +1.1866054329e-01 -2.1218186764e+00 2.1557568510e+00 5.1100000000e-04 0.0000e+00 -1.0000e+00
  1000022  1    3    3    0    0 +1.2112579207e+01 -3.3853689391e-01 -1.1407752553e+02 1.1482818040e+02 5.0000000000e+00 0.0000e+00 1.0000e+00
<mgrwt>
<rscale>  1 0.53507747E+02</rscale>
<asrwt>0</asrwt>
<pdfrwt beam="1">  1       21 0.15860222E-03 0.53507747E+02</pdfrwt>
<pdfrwt beam="2">  1        2 0.10681626E+00 0.53507747E+02</pdfrwt>
<totfact> 0.23136987E+07</totfact>
</mgrwt>
<rwgt>
<wgt id='1001'> +1.5607000e-12 </wgt>
<wgt id='1002'> +1.5390459e-12 </wgt>
<wgt id='1003'> +1.5452199e-12 </wgt>
<wgt id='1004'> +1.4209635e-12 </wgt>
<wgt id='1005'> +1.5607000e-12 </wgt>
<wgt id='1006'> +1.3851734e-12 </wgt>
<wgt id='1007'> +1.3609551e-12 </wgt>
<wgt id='1008'> +1.3678199e-12 </wgt>
<wgt id='1009'> +1.2350277e-12 </wgt>
<wgt id='1010'> +1.3851734e-12 </wgt>
<wgt id='1011'> +1.7893811e-12 </wgt>
<wgt id='1012'> +1.7731639e-12 </wgt>
<wgt id='1013'> +1.7778557e-12 </wgt>
<wgt id='1014'> +1.6762594e-12 </wgt>
<wgt id='1015'> +1.7893811e-12 </wgt>
<wgt id='1016'> +1.8315899e-12 </wgt>
<wgt id='1017'> +1.8251073e-12 </wgt>
<wgt id='1018'> +1.8270547e-12 </wgt>
<wgt id='1019'> +1.7778557e-12 </wgt>
<wgt id='1020'> +1.8315899e-12 </wgt>
<wgt id='1021'> +1.6255973e-12 </wgt>
<wgt id='1022'> +1.6139149e-12 </wgt>
<wgt id='1023'> +1.6172985e-12 </wgt>
<wgt id='1024'> +1.5452199e-12 </wgt>
<wgt id='1025'> +1.6255973e-12 </wgt>
<wgt id='1026'> +2.0999630e-12 </wgt>
<wgt id='1027'> +2.1027407e-12 </wgt>
<wgt id='1028'> +2.1021213e-12 </wgt>
<wgt id='1029'> +2.0972723e-12 </wgt>
<wgt id='1030'> +2.0999630e-12 </wgt>
<wgt id='1031'> +1.2616094e-12 </wgt>
<wgt id='1032'> +1.2245879e-12 </wgt>
<wgt id='1033'> +1.2350277e-12 </wgt>
<wgt id='1034'> +1.0358060e-12 </wgt>
<wgt id='1035'> +1.2616094e-12 </wgt>
<wgt id='1036'> +1.1197205e-12 </wgt>
<wgt id='1037'> +1.0828847e-12 </wgt>
<wgt id='1038'> +1.0932395e-12 </wgt>
<wgt id='1039'> +9.0026880e-13 </wgt>
<wgt id='1040'> +1.1197205e-12 </wgt>
<wgt id='1041'> +1.4464663e-12 </wgt>
<wgt id='1042'> +1.4108709e-12 </wgt>
<wgt id='1043'> +1.4209635e-12 </wgt>
<wgt id='1044'> +1.2219030e-12 </wgt>
<wgt id='1045'> +1.4464663e-12 </wgt>
<wgt id='1046'> +1.5607000e-12 </wgt>
<wgt id='1047'> +1.5567657e-12 </wgt>
<wgt id='1048'> +1.6267771e-12 </wgt>
<wgt id='1049'> +1.5160188e-12 </wgt>
<wgt id='1050'> +1.5289771e-12 </wgt>
<wgt id='1051'> +1.5232297e-12 </wgt>
<wgt id='1052'> +1.5240026e-12 </wgt>
<wgt id='1053'> +1.6248173e-12 </wgt>
<wgt id='1054'> +1.5943003e-12 </wgt>
<wgt id='1055'> +1.5425340e-12 </wgt>
<wgt id='1056'> +1.4890336e-12 </wgt>
<wgt id='1057'> +1.5427372e-12 </wgt>
<wgt id='1058'> +1.5226347e-12 </wgt>
<wgt id='1059'> +1.5713392e-12 </wgt>
<wgt id='1060'> +1.5737312e-12 </wgt>
<wgt id='1061'> +1.5896609e-12 </wgt>
<wgt id='1062'> +1.5441949e-12 </wgt>
<wgt id='1063'> +1.5026564e-12 </wgt>
<wgt id='1064'> +1.5533254e-12 </wgt>
<wgt id='1065'> +1.6034455e-12 </wgt>
<wgt id='1066'> +1.5668942e-12 </wgt>
<wgt id='1067'> +1.5816062e-12 </wgt>
<wgt id='1068'> +1.6065045e-12 </wgt>
<wgt id='1069'> +1.6236607e-12 </wgt>
<wgt id='1070'> +1.5529478e-12 </wgt>
<wgt id='1071'> +1.5762694e-12 </wgt>
<wgt id='1072'> +1.5719686e-12 </wgt>
<wgt id='1073'> +1.5400410e-12 </wgt>
<wgt id='1074'> +1.5666261e-12 </wgt>
<wgt id='1075'> +1.5439508e-12 </wgt>
<wgt id='1076'> +1.5742621e-12 </wgt>
<wgt id='1077'> +1.5792381e-12 </wgt>
<wgt id='1078'> +1.5384745e-12 </wgt>
<wgt id='1079'> +1.5700862e-12 </wgt>
<wgt id='1080'> +1.5468645e-12 </wgt>
<wgt id='1081'> +1.5105229e-12 </wgt>
<wgt id='1082'> +1.5633928e-12 </wgt>
<wgt id='1083'> +1.5409028e-12 </wgt>
<wgt id='1084'> +1.5470499e-12 </wgt>
<wgt id='1085'> +1.5929434e-12 </wgt>
<wgt id='1086'> +1.6121274e-12 </wgt>
<wgt id='1087'> +1.5461442e-12 </wgt>
<wgt id='1088'> +1.5535063e-12 </wgt>
<wgt id='1089'> +1.5321589e-12 </wgt>
<wgt id='1090'> +1.5627106e-12 </wgt>
<wgt id='1091'> +1.5707262e-12 </wgt>
<wgt id='1092'> +1.5442351e-12 </wgt>
<wgt id='1093'> +1.5959004e-12 </wgt>
<wgt id='1094'> +1.5986956e-12 </wgt>
<wgt id='1095'> +1.6070990e-12 </wgt>
<wgt id='1096'> +1.5177283e-12 </wgt>
<wgt id='1097'> +1.5652159e-12 </wgt>
<wgt id='1098'> +1.5889385e-12 </wgt>
<wgt id='1099'> +1.5553277e-12 </wgt>
<wgt id='1100'> +1.5827392e-12 </wgt>
<wgt id='1101'> +1.5725834e-12 </wgt>
<wgt id='1102'> +1.5291917e-12 </wgt>
<wgt id='1103'> +1.5411659e-12 </wgt>
<wgt id='1104'> +1.5708012e-12 </wgt>
<wgt id='1105'> +1.5116251e-12 </wgt>
<wgt id='1106'> +1.5567988e-12 </wgt>
<wgt id='1107'> +1.6054011e-12 </wgt>
<wgt id='1108'> +1.5504429e-12 </wgt>
<wgt id='1109'> +1.5491759e-12 </wgt>
<wgt id='1110'> +1.5593145e-12 </wgt>
<wgt id='1111'> +1.5670671e-12 </wgt>
<wgt id='1112'> +1.5971303e-12 </wgt>
<wgt id='1113'> +1.6259905e-12 </wgt>
<wgt id='1114'> +1.5925290e-12 </wgt>
<wgt id='1115'> +1.5998593e-12 </wgt>
<wgt id='1116'> +1.6281961e-12 </wgt>
<wgt id='1117'> +1.5527845e-12 </wgt>
<wgt id='1118'> +1.5942953e-12 </wgt>
<wgt id='1119'> +1.5185203e-12 </wgt>
<wgt id='1120'> +1.5581442e-12 </wgt>
<wgt id='1121'> +1.5320508e-12 </wgt>
<wgt id='1122'> +1.5454415e-12 </wgt>
<wgt id='1123'> +1.5872665e-12 </wgt>
<wgt id='1124'> +1.6004082e-12 </wgt>
<wgt id='1125'> +1.5064798e-12 </wgt>
<wgt id='1126'> +1.5290072e-12 </wgt>
<wgt id='1127'> +1.5597482e-12 </wgt>
<wgt id='1128'> +1.5441949e-12 </wgt>
<wgt id='1129'> +1.5254630e-12 </wgt>
<wgt id='1130'> +1.5476013e-12 </wgt>
<wgt id='1131'> +1.5808642e-12 </wgt>
<wgt id='1132'> +1.5731547e-12 </wgt>
<wgt id='1133'> +1.5440229e-12 </wgt>
<wgt id='1134'> +1.5266124e-12 </wgt>
<wgt id='1135'> +1.5000809e-12 </wgt>
<wgt id='1136'> +1.5272870e-12 </wgt>
<wgt id='1137'> +1.5627825e-12 </wgt>
<wgt id='1138'> +1.5503632e-12 </wgt>
<wgt id='1139'> +1.5509103e-12 </wgt>
<wgt id='1140'> +1.5801260e-12 </wgt>
<wgt id='1141'> +1.5498550e-12 </wgt>
<wgt id='1142'> +1.6043302e-12 </wgt>
<wgt id='1143'> +1.4965603e-12 </wgt>
<wgt id='1144'> +1.5615540e-12 </wgt>
<wgt id='1145'> +1.5810232e-12 </wgt>
<wgt id='1146'> +1.5627305e-12 </wgt>
<wgt id='1147'> +1.4172141e-12 </wgt>
<wgt id='1148'> +1.4445610e-12 </wgt>
<wgt id='1149'> +1.3632428e-12 </wgt>
<wgt id='1150'> +1.4244233e-12 </wgt>
<wgt id='1151'> +1.6608727e-12 </wgt>
<wgt id='1152'> +2.3155849e-12 </wgt>
<wgt id='1153'> +2.3184315e-12 </wgt>
<wgt id='1154'> +2.3139001e-12 </wgt>
<wgt id='1155'> +2.3095706e-12 </wgt>
<wgt id='1156'> +2.3186560e-12 </wgt>
<wgt id='1157'> +2.3196016e-12 </wgt>
<wgt id='1158'> +2.3101540e-12 </wgt>
<wgt id='1159'> +2.3189099e-12 </wgt>
<wgt id='1160'> +2.3134654e-12 </wgt>
<wgt id='1161'> +2.3111001e-12 </wgt>
<wgt id='1162'> +2.3186959e-12 </wgt>
<wgt id='1163'> +2.3149787e-12 </wgt>
<wgt id='1164'> +2.3162511e-12 </wgt>
<wgt id='1165'> +2.3186859e-12 </wgt>
<wgt id='1166'> +2.3124315e-12 </wgt>
<wgt id='1167'> +2.3449498e-12 </wgt>
<wgt id='1168'> +2.2802726e-12 </wgt>
<wgt id='1169'> +2.3246646e-12 </wgt>
<wgt id='1170'> +2.3087442e-12 </wgt>
<wgt id='1171'> +2.3083385e-12 </wgt>
<wgt id='1172'> +2.3249927e-12 </wgt>
<wgt id='1173'> +2.2886382e-12 </wgt>
<wgt id='1174'> +2.3438921e-12 </wgt>
<wgt id='1175'> +2.3189214e-12 </wgt>
<wgt id='1176'> +2.3125649e-12 </wgt>
<wgt id='1177'> +2.3102050e-12 </wgt>
<wgt id='1178'> +2.3290036e-12 </wgt>
<wgt id='1179'> +2.3117079e-12 </wgt>
<wgt id='1180'> +2.3139681e-12 </wgt>
<wgt id='1181'> +2.3212095e-12 </wgt>
<wgt id='1182'> +2.3083351e-12 </wgt>
<wgt id='1183'> +2.3112943e-12 </wgt>
<wgt id='1184'> +2.3157261e-12 </wgt>
<wgt id='1185'> +2.3104258e-12 </wgt>
<wgt id='1186'> +2.3179474e-12 </wgt>
<wgt id='1187'> +2.3193900e-12 </wgt>
<wgt id='1188'> +2.3142510e-12 </wgt>
<wgt id='1189'> +2.3083374e-12 </wgt>
<wgt id='1190'> +2.2924413e-12 </wgt>
<wgt id='1191'> +2.3187877e-12 </wgt>
<wgt id='1192'> +2.3242905e-12 </wgt>
<wgt id='1193'> +1.4206818e-12 </wgt>
<wgt id='1194'> +1.4032419e-12 </wgt>
<wgt id='1195'> +1.4349992e-12 </wgt>
<wgt id='1196'> +1.4190147e-12 </wgt>
<wgt id='1197'> +1.4225248e-12 </wgt>
<wgt id='1198'> +1.4196539e-12 </wgt>
<wgt id='1199'> +1.4222470e-12 </wgt>
<wgt id='1200'> +1.4169383e-12 </wgt>
<wgt id='1201'> +1.4232137e-12 </wgt>
<wgt id='1202'> +1.4197872e-12 </wgt>
<wgt id='1203'> +1.4219406e-12 </wgt>
<wgt id='1204'> +1.4151980e-12 </wgt>
<wgt id='1205'> +1.4238440e-12 </wgt>
<wgt id='1206'> +1.4236934e-12 </wgt>
<wgt id='1207'> +1.4165307e-12 </wgt>
<wgt id='1208'> +1.4287024e-12 </wgt>
<wgt id='1209'> +1.4178620e-12 </wgt>
<wgt id='1210'> +1.4253989e-12 </wgt>
<wgt id='1211'> +1.4150536e-12 </wgt>
<wgt id='1212'> +1.4199335e-12 </wgt>
<wgt id='1213'> +1.4219654e-12 </wgt>
<wgt id='1214'> +1.4083668e-12 </wgt>
<wgt id='1215'> +1.4362537e-12 </wgt>
<wgt id='1216'> +1.4289419e-12 </wgt>
<wgt id='1217'> +1.4152431e-12 </wgt>
<wgt id='1218'> +1.4246826e-12 </wgt>
<wgt id='1219'> +1.4183959e-12 </wgt>
<wgt id='1220'> +1.4291550e-12 </wgt>
<wgt id='1221'> +1.4189969e-12 </wgt>
<wgt id='1222'> +1.4422417e-12 </wgt>
<wgt id='1223'> +1.3905301e-12 </wgt>
<wgt id='1224'> +1.4245850e-12 </wgt>
<wgt id='1225'> +1.4191279e-12 </wgt>
<wgt id='1226'> +1.4189698e-12 </wgt>
<wgt id='1227'> +1.4221061e-12 </wgt>
<wgt id='1228'> +1.4142882e-12 </wgt>
<wgt id='1229'> +1.4232299e-12 </wgt>
<wgt id='1230'> +1.4216575e-12 </wgt>
<wgt id='1231'> +1.4319540e-12 </wgt>
<wgt id='1232'> +1.4225076e-12 </wgt>
<wgt id='1233'> +1.4202103e-12 </wgt>
<wgt id='1234'> +1.4206818e-12 </wgt>
<wgt id='1235'> +1.4135260e-12 </wgt>
<wgt id='1236'> +1.4163256e-12 </wgt>
<wgt id='1237'> +1.4187664e-12 </wgt>
<wgt id='1238'> +1.4227901e-12 </wgt>
<wgt id='1239'> +1.4243496e-12 </wgt>
<wgt id='1240'> +1.4260153e-12 </wgt>
<wgt id='1241'> +1.3455963e-12 </wgt>
<wgt id='1242'> +1.3289289e-12 </wgt>
<wgt id='1243'> +1.3620571e-12 </wgt>
<wgt id='1244'> +1.3512731e-12 </wgt>
<wgt id='1245'> +1.3413614e-12 </wgt>
<wgt id='1246'> +1.3411388e-12 </wgt>
<wgt id='1247'> +1.3493964e-12 </wgt>
<wgt id='1248'> +1.3456240e-12 </wgt>
<wgt id='1249'> +1.3455912e-12 </wgt>
<wgt id='1250'> +1.3464885e-12 </wgt>
<wgt id='1251'> +1.3449984e-12 </wgt>
<wgt id='1252'> +1.3430639e-12 </wgt>
<wgt id='1253'> +1.3475681e-12 </wgt>
<wgt id='1254'> +1.3414143e-12 </wgt>
<wgt id='1255'> +1.3480145e-12 </wgt>
<wgt id='1256'> +1.3426459e-12 </wgt>
<wgt id='1257'> +1.3530797e-12 </wgt>
<wgt id='1258'> +1.3544980e-12 </wgt>
<wgt id='1259'> +1.3350942e-12 </wgt>
<wgt id='1260'> +1.3476991e-12 </wgt>
<wgt id='1261'> +1.3436057e-12 </wgt>
<wgt id='1262'> +1.3477831e-12 </wgt>
<wgt id='1263'> +1.3450162e-12 </wgt>
<wgt id='1264'> +1.3506778e-12 </wgt>
<wgt id='1265'> +1.3434377e-12 </wgt>
<wgt id='1266'> +1.3241675e-12 </wgt>
<wgt id='1267'> +1.3658462e-12 </wgt>
<wgt id='1268'> +1.3536368e-12 </wgt>
<wgt id='1269'> +1.3388079e-12 </wgt>
<wgt id='1270'> +1.3555491e-12 </wgt>
<wgt id='1271'> +1.3484015e-12 </wgt>
<wgt id='1272'> +1.3502735e-12 </wgt>
<wgt id='1273'> +1.3451614e-12 </wgt>
<wgt id='1274'> +1.3473319e-12 </wgt>
<wgt id='1275'> +1.3433326e-12 </wgt>
<wgt id='1276'> +1.3502597e-12 </wgt>
<wgt id='1277'> +1.3395115e-12 </wgt>
<wgt id='1278'> +1.3606125e-12 </wgt>
<wgt id='1279'> +1.3497261e-12 </wgt>
<wgt id='1280'> +1.3460633e-12 </wgt>
<wgt id='1281'> +1.3488844e-12 </wgt>
<wgt id='1282'> +1.3455963e-12 </wgt>
<wgt id='1283'> +1.3389979e-12 </wgt>
<wgt id='1284'> +1.3417401e-12 </wgt>
<wgt id='1285'> +1.3438633e-12 </wgt>
<wgt id='1286'> +1.3474228e-12 </wgt>
<wgt id='1287'> +1.3485935e-12 </wgt>
<wgt id='1288'> +1.3496069e-12 </wgt>
<wgt id='1289'> +1.4661495e-12 </wgt>
<wgt id='1290'> +1.4701482e-12 </wgt>
<wgt id='1291'> +1.4618291e-12 </wgt>
<wgt id='1292'> +1.4673984e-12 </wgt>
<wgt id='1293'> +1.4652591e-12 </wgt>
<wgt id='1294'> +1.4494279e-12 </wgt>
<wgt id='1295'> +1.4822239e-12 </wgt>
<wgt id='1296'> +1.4728663e-12 </wgt>
<wgt id='1297'> +1.4577201e-12 </wgt>
<wgt id='1298'> +1.4734658e-12 </wgt>
<wgt id='1299'> +1.4568854e-12 </wgt>
<wgt id='1300'> +1.4693772e-12 </wgt>
<wgt id='1301'> +1.4596482e-12 </wgt>
<wgt id='1302'> +1.4616757e-12 </wgt>
<wgt id='1303'> +1.4723328e-12 </wgt>
<wgt id='1304'> +1.4648279e-12 </wgt>
<wgt id='1305'> +1.4670123e-12 </wgt>
<wgt id='1306'> +1.4691553e-12 </wgt>
<wgt id='1307'> +1.4625698e-12 </wgt>
<wgt id='1308'> +1.4591825e-12 </wgt>
<wgt id='1309'> +1.4714609e-12 </wgt>
<wgt id='1310'> +1.4668222e-12 </wgt>
<wgt id='1311'> +1.4656592e-12 </wgt>
<wgt id='1312'> +1.4759667e-12 </wgt>
<wgt id='1313'> +1.4570233e-12 </wgt>
<wgt id='1314'> +1.4487295e-12 </wgt>
<wgt id='1315'> +1.4824436e-12 </wgt>
<wgt id='1316'> +1.4740234e-12 </wgt>
<wgt id='1317'> +1.4674306e-12 </wgt>
<wgt id='1318'> +1.4758471e-12 </wgt>
<wgt id='1319'> +1.4533909e-12 </wgt>
<wgt id='1320'> +1.4829440e-12 </wgt>
<wgt id='1321'> +1.4508541e-12 </wgt>
<wgt id='1322'> +1.4662002e-12 </wgt>
<wgt id='1323'> +1.4664987e-12 </wgt>
<wgt id='1324'> +1.4635887e-12 </wgt>
<wgt id='1325'> +1.4721508e-12 </wgt>
<wgt id='1326'> +1.4648983e-12 </wgt>
<wgt id='1327'> +1.4701128e-12 </wgt>
<wgt id='1328'> +1.4654475e-12 </wgt>
<wgt id='1329'> +1.4662284e-12 </wgt>
<wgt id='1330'> +1.4730509e-12 </wgt>
<wgt id='1331'> +1.4601709e-12 </wgt>
<wgt id='1332'> +1.4774802e-12 </wgt>
<wgt id='1333'> +1.4715687e-12 </wgt>
<wgt id='1334'> +1.4641560e-12 </wgt>
<wgt id='1335'> +1.4719593e-12 </wgt>
<wgt id='1336'> +1.4691411e-12 </wgt>
<wgt id='1337'> +1.4748270e-12 </wgt>
<wgt id='1338'> +1.4666868e-12 </wgt>
<wgt id='1339'> +1.4676488e-12 </wgt>
<wgt id='1340'> +1.4313788e-12 </wgt>
<wgt id='1341'> +1.4351663e-12 </wgt>
<wgt id='1342'> +1.4273115e-12 </wgt>
<wgt id='1343'> +1.4327536e-12 </wgt>
<wgt id='1344'> +1.4304631e-12 </wgt>
<wgt id='1345'> +1.4140192e-12 </wgt>
<wgt id='1346'> +1.4474252e-12 </wgt>
<wgt id='1347'> +1.4388828e-12 </wgt>
<wgt id='1348'> +1.4229344e-12 </wgt>
<wgt id='1349'> +1.4382519e-12 </wgt>
<wgt id='1350'> +1.4245846e-12 </wgt>
<wgt id='1351'> +1.4344175e-12 </wgt>
<wgt id='1352'> +1.4247403e-12 </wgt>
<wgt id='1353'> +1.4259258e-12 </wgt>
<wgt id='1354'> +1.4411183e-12 </wgt>
<wgt id='1355'> +1.4310817e-12 </wgt>
<wgt id='1356'> +1.4315252e-12 </wgt>
<wgt id='1357'> +1.4332071e-12 </wgt>
<wgt id='1358'> +1.4289716e-12 </wgt>
<wgt id='1359'> +1.4240697e-12 </wgt>
<wgt id='1360'> +1.4377158e-12 </wgt>
<wgt id='1361'> +1.4327223e-12 </wgt>
<wgt id='1362'> +1.4298440e-12 </wgt>
<wgt id='1363'> +1.4477166e-12 </wgt>
<wgt id='1364'> +1.4213313e-12 </wgt>
<wgt id='1365'> +1.4389043e-12 </wgt>
<wgt id='1366'> +1.4174969e-12 </wgt>
<wgt id='1367'> +1.4392387e-12 </wgt>
<wgt id='1368'> +1.4313699e-12 </wgt>
<wgt id='1369'> +1.4390860e-12 </wgt>
<wgt id='1370'> +1.4215651e-12 </wgt>
<wgt id='1371'> +1.4451911e-12 </wgt>
<wgt id='1372'> +1.4140848e-12 </wgt>
<wgt id='1373'> +1.4283125e-12 </wgt>
<wgt id='1374'> +1.4345064e-12 </wgt>
<wgt id='1375'> +1.4288609e-12 </wgt>
<wgt id='1376'> +1.4375309e-12 </wgt>
<wgt id='1377'> +1.4302489e-12 </wgt>
<wgt id='1378'> +1.4354559e-12 </wgt>
<wgt id='1379'> +1.4309192e-12 </wgt>
<wgt id='1380'> +1.4312418e-12 </wgt>
<wgt id='1381'> +1.4384798e-12 </wgt>
<wgt id='1382'> +1.4256542e-12 </wgt>
<wgt id='1383'> +1.4407159e-12 </wgt>
<wgt id='1384'> +1.4375523e-12 </wgt>
<wgt id='1385'> +1.4296565e-12 </wgt>
<wgt id='1386'> +1.4360288e-12 </wgt>
<wgt id='1387'> +1.4344826e-12 </wgt>
<wgt id='1388'> +1.4402551e-12 </wgt>
<wgt id='1389'> +1.4320059e-12 </wgt>
<wgt id='1390'> +1.4337272e-12 </wgt>
<wgt id='1391'> +1.4079271e-12 </wgt>
<wgt id='1392'> +1.3587830e-12 </wgt>
<wgt id='1393'> +1.3757502e-12 </wgt>
<wgt id='1394'> +1.3921231e-12 </wgt>
<wgt id='1395'> +1.4248518e-12 </wgt>
<wgt id='1396'> +1.4085108e-12 </wgt>
<wgt id='1397'> +1.3883863e-12 </wgt>
<wgt id='1398'> +1.3912027e-12 </wgt>
<wgt id='1399'> +1.3944256e-12 </wgt>
<wgt id='1400'> +1.3985360e-12 </wgt>
<wgt id='1401'> +1.4034569e-12 </wgt>
<wgt id='1402'> +1.4134503e-12 </wgt>
<wgt id='1403'> +1.4188920e-12 </wgt>
<wgt id='1404'> +1.4245033e-12 </wgt>
<wgt id='1405'> +1.4085108e-12 </wgt>
<wgt id='1406'> +1.4042691e-12 </wgt>
<wgt id='1407'> +1.4064312e-12 </wgt>
<wgt id='1408'> +1.4103873e-12 </wgt>
<wgt id='1409'> +1.4117377e-12 </wgt>
<wgt id='1410'> +1.3185483e-12 </wgt>
<wgt id='1411'> +1.3257108e-12 </wgt>
<wgt id='1412'> +1.3093290e-12 </wgt>
<wgt id='1413'> +1.3092860e-12 </wgt>
<wgt id='1414'> +1.3277421e-12 </wgt>
<wgt id='1415'> +1.3156324e-12 </wgt>
<wgt id='1416'> +1.3197240e-12 </wgt>
<wgt id='1417'> +1.3163557e-12 </wgt>
<wgt id='1418'> +1.3206630e-12 </wgt>
<wgt id='1419'> +1.3201955e-12 </wgt>
<wgt id='1420'> +1.3169199e-12 </wgt>
<wgt id='1421'> +1.3055480e-12 </wgt>
<wgt id='1422'> +1.3240120e-12 </wgt>
<wgt id='1423'> +1.3170504e-12 </wgt>
<wgt id='1424'> +1.3203605e-12 </wgt>
<wgt id='1425'> +1.3104586e-12 </wgt>
<wgt id='1426'> +1.3272631e-12 </wgt>
<wgt id='1427'> +1.3048849e-12 </wgt>
<wgt id='1428'> +1.3257636e-12 </wgt>
<wgt id='1429'> +1.3224604e-12 </wgt>
<wgt id='1430'> +1.3133033e-12 </wgt>
<wgt id='1431'> +1.3192027e-12 </wgt>
<wgt id='1432'> +1.3180327e-12 </wgt>
<wgt id='1433'> +1.3035280e-12 </wgt>
<wgt id='1434'> +1.3305712e-12 </wgt>
<wgt id='1435'> +1.3109047e-12 </wgt>
<wgt id='1436'> +1.3382409e-12 </wgt>
<wgt id='1437'> +1.3254407e-12 </wgt>
<wgt id='1438'> +1.3221299e-12 </wgt>
<wgt id='1439'> +1.3122707e-12 </wgt>
<wgt id='1440'> +1.3286233e-12 </wgt>
<wgt id='1441'> +1.3234879e-12 </wgt>
<wgt id='1442'> +1.3078468e-12 </wgt>
<wgt id='1443'> +1.3150366e-12 </wgt>
<wgt id='1444'> +1.3275326e-12 </wgt>
<wgt id='1445'> +1.3301799e-12 </wgt>
<wgt id='1446'> +1.3144679e-12 </wgt>
<wgt id='1447'> +1.3201008e-12 </wgt>
<wgt id='1448'> +1.3214045e-12 </wgt>
<wgt id='1449'> +1.3184717e-12 </wgt>
<wgt id='1450'> +1.3177753e-12 </wgt>
<wgt id='1451'> +1.3173219e-12 </wgt>
<wgt id='1452'> +1.3248387e-12 </wgt>
<wgt id='1453'> +1.3187706e-12 </wgt>
<wgt id='1454'> +1.3192643e-12 </wgt>
<wgt id='1455'> +1.3292289e-12 </wgt>
<wgt id='1456'> +1.3271019e-12 </wgt>
<wgt id='1457'> +1.3261001e-12 </wgt>
<wgt id='1458'> +1.3171775e-12 </wgt>
<wgt id='1459'> +1.3246373e-12 </wgt>
<wgt id='1460'> +1.3300251e-12 </wgt>
<wgt id='1461'> +1.3185483e-12 </wgt>
<wgt id='1462'> +1.3064165e-12 </wgt>
<wgt id='1463'> +1.3265465e-12 </wgt>
<wgt id='1464'> +1.3161655e-12 </wgt>
<wgt id='1465'> +1.2925008e-12 </wgt>
<wgt id='1466'> +1.2961831e-12 </wgt>
<wgt id='1467'> +1.3005110e-12 </wgt>
<wgt id='1468'> +1.3074071e-12 </wgt>
<wgt id='1469'> +1.3111299e-12 </wgt>
<wgt id='1470'> +1.3215623e-12 </wgt>
<wgt id='1471'> +1.3265506e-12 </wgt>
<wgt id='1472'> +1.3317265e-12 </wgt>
<wgt id='1473'> +1.3161655e-12 </wgt>
<wgt id='1474'> +1.3126967e-12 </wgt>
<wgt id='1475'> +1.3151043e-12 </wgt>
<wgt id='1476'> +1.3173798e-12 </wgt>
<wgt id='1477'> +1.3184308e-12 </wgt>
<wgt id='1478'> +1.3782066e-12 </wgt>
<wgt id='1479'> +1.3786195e-12 </wgt>
<wgt id='1480'> +1.3638726e-12 </wgt>
<wgt id='1481'> +1.4023816e-12 </wgt>
<wgt id='1482'> +1.3797885e-12 </wgt>
<wgt id='1483'> +1.3623645e-12 </wgt>
<wgt id='1484'> +1.3681793e-12 </wgt>
<wgt id='1485'> +1.3871067e-12 </wgt>
<wgt id='1486'> +1.3779382e-12 </wgt>
<wgt id='1487'> +1.3899007e-12 </wgt>
<wgt id='1488'> +1.3755919e-12 </wgt>
<wgt id='1489'> +1.3799703e-12 </wgt>
<wgt id='1490'> +1.3746491e-12 </wgt>
<wgt id='1491'> +1.3841662e-12 </wgt>
<wgt id='1492'> +1.3792137e-12 </wgt>
<wgt id='1493'> +1.3595918e-12 </wgt>
<wgt id='1494'> +1.3747887e-12 </wgt>
<wgt id='1495'> +1.3668876e-12 </wgt>
<wgt id='1496'> +1.3790951e-12 </wgt>
<wgt id='1497'> +1.3785872e-12 </wgt>
<wgt id='1498'> +1.3783846e-12 </wgt>
<wgt id='1499'> +1.3810765e-12 </wgt>
<wgt id='1500'> +1.3793577e-12 </wgt>
<wgt id='1501'> +1.3790553e-12 </wgt>
<wgt id='1502'> +1.3773893e-12 </wgt>
<wgt id='1503'> +1.3828002e-12 </wgt>
<wgt id='1504'> +1.3730795e-12 </wgt>
<wgt id='1505'> +1.3821157e-12 </wgt>
<wgt id='1506'> +1.3795513e-12 </wgt>
<wgt id='1507'> +1.3785332e-12 </wgt>
<wgt id='1508'> +1.3813174e-12 </wgt>
<wgt id='1509'> +1.3365194e-12 </wgt>
<wgt id='1510'> +1.3415170e-12 </wgt>
<wgt id='1511'> +1.3181950e-12 </wgt>
<wgt id='1512'> +1.3253684e-12 </wgt>
<wgt id='1513'> +1.3350505e-12 </wgt>
<wgt id='1514'> +1.3412260e-12 </wgt>
<wgt id='1515'> +1.3400178e-12 </wgt>
<wgt id='1516'> +1.3393075e-12 </wgt>
<wgt id='1517'> +1.3375593e-12 </wgt>
<wgt id='1518'> +1.3358351e-12 </wgt>
<wgt id='1519'> +1.3376240e-12 </wgt>
<wgt id='1520'> +1.3378740e-12 </wgt>
<wgt id='1521'> +1.3364502e-12 </wgt>
<wgt id='1522'> +1.3389205e-12 </wgt>
<wgt id='1523'> +1.3389543e-12 </wgt>
<wgt id='1524'> +1.3349200e-12 </wgt>
<wgt id='1525'> +1.3367265e-12 </wgt>
<wgt id='1526'> +1.3373290e-12 </wgt>
<wgt id='1527'> +1.3362457e-12 </wgt>
<wgt id='1528'> +1.3371190e-12 </wgt>
<wgt id='1529'> +1.3374458e-12 </wgt>
<wgt id='1530'> +1.3374047e-12 </wgt>
<wgt id='1531'> +1.3381445e-12 </wgt>
<wgt id='1532'> +1.3323610e-12 </wgt>
<wgt id='1533'> +1.3373379e-12 </wgt>
<wgt id='1534'> +1.3365259e-12 </wgt>
<wgt id='1535'> +1.3318686e-12 </wgt>
<wgt id='1536'> +1.3396829e-12 </wgt>
<wgt id='1537'> +1.3391838e-12 </wgt>
<wgt id='1538'> +1.3244951e-12 </wgt>
<wgt id='1539'> +1.3359577e-12 </wgt>
<wgt id='1540'> +1.3358816e-12 </wgt>
<wgt id='1541'> +1.3343177e-12 </wgt>
<wgt id='1542'> +1.3347380e-12 </wgt>
<wgt id='1543'> +1.3372772e-12 </wgt>
<wgt id='1544'> +1.3350865e-12 </wgt>
<wgt id='1545'> +1.3348000e-12 </wgt>
<wgt id='1546'> +1.3367373e-12 </wgt>
<wgt id='1547'> +1.3352411e-12 </wgt>
<wgt id='1548'> +1.3373710e-12 </wgt>
<wgt id='1549'> +1.3352722e-12 </wgt>
<wgt id='1550'> +1.3363040e-12 </wgt>
<wgt id='1551'> +1.3366977e-12 </wgt>
<wgt id='1552'> +1.3382220e-12 </wgt>
<wgt id='1553'> +1.3365301e-12 </wgt>
<wgt id='1554'> +1.3353142e-12 </wgt>
<wgt id='1555'> +1.3388349e-12 </wgt>
<wgt id='1556'> +1.3401476e-12 </wgt>
<wgt id='1557'> +1.3363148e-12 </wgt>
<wgt id='1558'> +1.3364039e-12 </wgt>
<wgt id='1559'> +1.3345768e-12 </wgt>
<wgt id='1560'> +1.3361821e-12 </wgt>
<wgt id='1561'> +1.3364179e-12 </wgt>
<wgt id='1562'> +1.3360931e-12 </wgt>
<wgt id='1563'> +1.3364136e-12 </wgt>
<wgt id='1564'> +1.3353028e-12 </wgt>
<wgt id='1565'> +1.3366846e-12 </wgt>
<wgt id='1566'> +1.3365525e-12 </wgt>
<wgt id='1567'> +1.3362577e-12 </wgt>
<wgt id='1568'> +1.3359525e-12 </wgt>
<wgt id='1569'> +1.3395927e-12 </wgt>
<wgt id='1570'> +1.3371514e-12 </wgt>
<wgt id='1571'> +1.3375478e-12 </wgt>
<wgt id='1572'> +1.3371159e-12 </wgt>
<wgt id='1573'> +1.3363949e-12 </wgt>
<wgt id='1574'> +1.3373898e-12 </wgt>
<wgt id='1575'> +1.3357751e-12 </wgt>
<wgt id='1576'> +1.3368873e-12 </wgt>
<wgt id='1577'> +1.3377038e-12 </wgt>
<wgt id='1578'> +1.3376818e-12 </wgt>
<wgt id='1579'> +1.3355966e-12 </wgt>
<wgt id='1580'> +1.3358534e-12 </wgt>
<wgt id='1581'> +1.3369260e-12 </wgt>
<wgt id='1582'> +1.3376300e-12 </wgt>
<wgt id='1583'> +1.3357433e-12 </wgt>
<wgt id='1584'> +1.3364941e-12 </wgt>
<wgt id='1585'> +1.3367979e-12 </wgt>
<wgt id='1586'> +1.3365342e-12 </wgt>
<wgt id='1587'> +1.3365554e-12 </wgt>
<wgt id='1588'> +1.3351451e-12 </wgt>
<wgt id='1589'> +1.3379325e-12 </wgt>
<wgt id='1590'> +1.3363865e-12 </wgt>
<wgt id='1591'> +1.3366267e-12 </wgt>
<wgt id='1592'> +1.3361212e-12 </wgt>
<wgt id='1593'> +1.3376725e-12 </wgt>
<wgt id='1594'> +1.3360638e-12 </wgt>
<wgt id='1595'> +1.3362424e-12 </wgt>
<wgt id='1596'> +1.3354205e-12 </wgt>
<wgt id='1597'> +1.3365560e-12 </wgt>
<wgt id='1598'> +1.3365600e-12 </wgt>
<wgt id='1599'> +1.3371856e-12 </wgt>
<wgt id='1600'> +1.3353701e-12 </wgt>
<wgt id='1601'> +1.3369980e-12 </wgt>
<wgt id='1602'> +1.3364068e-12 </wgt>
<wgt id='1603'> +1.3376650e-12 </wgt>
<wgt id='1604'> +1.3369415e-12 </wgt>
<wgt id='1605'> +1.3371599e-12 </wgt>
<wgt id='1606'> +1.3363384e-12 </wgt>
<wgt id='1607'> +1.3366736e-12 </wgt>
<wgt id='1608'> +1.3371376e-12 </wgt>
<wgt id='1609'> +1.3369220e-12 </wgt>
<wgt id='1610'> +1.3190331e-12 </wgt>
<wgt id='1611'> +1.3519161e-12 </wgt>
<wgt id='1612'> +1.5451685e-12 </wgt>
<wgt id='1613'> +1.5163443e-12 </wgt>
<wgt id='1614'> +1.4807643e-12 </wgt>
<wgt id='1615'> +1.5252038e-12 </wgt>
<wgt id='1616'> +1.4835358e-12 </wgt>
<wgt id='1617'> +1.5059164e-12 </wgt>
<wgt id='1618'> +1.5480692e-12 </wgt>
<wgt id='1619'> +1.5153027e-12 </wgt>
<wgt id='1620'> +1.5284816e-12 </wgt>
<wgt id='1621'> +1.5450674e-12 </wgt>
<wgt id='1622'> +1.5569717e-12 </wgt>
<wgt id='1623'> +1.5518758e-12 </wgt>
<wgt id='1624'> +1.5871540e-12 </wgt>
<wgt id='1625'> +1.4885091e-12 </wgt>
<wgt id='1626'> +1.5284993e-12 </wgt>
<wgt id='1627'> +1.5721200e-12 </wgt>
<wgt id='1628'> +1.4654180e-12 </wgt>
<wgt id='1629'> +1.5741469e-12 </wgt>
<wgt id='1630'> +1.5030865e-12 </wgt>
<wgt id='1631'> +1.5052816e-12 </wgt>
<wgt id='1632'> +1.4770012e-12 </wgt>
<wgt id='1633'> +1.4705051e-12 </wgt>
<wgt id='1634'> +1.5401301e-12 </wgt>
<wgt id='1635'> +1.5627437e-12 </wgt>
<wgt id='1636'> +1.5475078e-12 </wgt>
<wgt id='1637'> +1.5816856e-12 </wgt>
<wgt id='1638'> +1.5564513e-12 </wgt>
<wgt id='1639'> +1.5275306e-12 </wgt>
<wgt id='1640'> +1.5377093e-12 </wgt>
<wgt id='1641'> +1.5510946e-12 </wgt>
<wgt id='1642'> +1.4819316e-12 </wgt>
<wgt id='1643'> +1.5172945e-12 </wgt>
<wgt id='1644'> +1.5751130e-12 </wgt>
<wgt id='1645'> +1.5055020e-12 </wgt>
<wgt id='1646'> +1.5571539e-12 </wgt>
<wgt id='1647'> +1.5893730e-12 </wgt>
<wgt id='1648'> +1.5470757e-12 </wgt>
<wgt id='1649'> +1.6228415e-12 </wgt>
<wgt id='1650'> +1.5063532e-12 </wgt>
<wgt id='1651'> +1.5626091e-12 </wgt>
<wgt id='1652'> +1.5205388e-12 </wgt>
<wgt id='1653'> +1.5488944e-12 </wgt>
<wgt id='1654'> +1.5512896e-12 </wgt>
<wgt id='1655'> +1.5862468e-12 </wgt>
<wgt id='1656'> +1.5257765e-12 </wgt>
<wgt id='1657'> +1.5571297e-12 </wgt>
<wgt id='1658'> +1.5196968e-12 </wgt>
<wgt id='1659'> +1.5871540e-12 </wgt>
<wgt id='1660'> +1.5605901e-12 </wgt>
<wgt id='1661'> +1.5836354e-12 </wgt>
<wgt id='1662'> +1.6172124e-12 </wgt>
<wgt id='1663'> +1.5408300e-12 </wgt>
<wgt id='1664'> +1.5213153e-12 </wgt>
<wgt id='1665'> +1.5231073e-12 </wgt>
<wgt id='1666'> +1.5717507e-12 </wgt>
<wgt id='1667'> +1.5548688e-12 </wgt>
<wgt id='1668'> +1.5737779e-12 </wgt>
<wgt id='1669'> +1.5631740e-12 </wgt>
<wgt id='1670'> +1.5166226e-12 </wgt>
<wgt id='1671'> +1.5192652e-12 </wgt>
<wgt id='1672'> +1.5734282e-12 </wgt>
<wgt id='1673'> +1.5495883e-12 </wgt>
<wgt id='1674'> +1.5318549e-12 </wgt>
<wgt id='1675'> +1.5334214e-12 </wgt>
<wgt id='1676'> +1.5229470e-12 </wgt>
<wgt id='1677'> +1.5450567e-12 </wgt>
<wgt id='1678'> +1.5261394e-12 </wgt>
<wgt id='1679'> +1.5559148e-12 </wgt>
<wgt id='1680'> +1.5875529e-12 </wgt>
<wgt id='1681'> +1.5799802e-12 </wgt>
<wgt id='1682'> +1.5355627e-12 </wgt>
<wgt id='1683'> +1.5649290e-12 </wgt>
<wgt id='1684'> +1.6099713e-12 </wgt>
<wgt id='1685'> +1.5406466e-12 </wgt>
<wgt id='1686'> +1.5366071e-12 </wgt>
<wgt id='1687'> +1.5724533e-12 </wgt>
<wgt id='1688'> +1.5155632e-12 </wgt>
<wgt id='1689'> +1.6147649e-12 </wgt>
<wgt id='1690'> +1.5464372e-12 </wgt>
<wgt id='1691'> +1.4786374e-12 </wgt>
<wgt id='1692'> +1.5570096e-12 </wgt>
<wgt id='1693'> +1.5523404e-12 </wgt>
<wgt id='1694'> +1.5320227e-12 </wgt>
<wgt id='1695'> +1.5563485e-12 </wgt>
<wgt id='1696'> +1.5354342e-12 </wgt>
<wgt id='1697'> +1.5394815e-12 </wgt>
<wgt id='1698'> +1.5575979e-12 </wgt>
<wgt id='1699'> +1.5703615e-12 </wgt>
<wgt id='1700'> +1.5177572e-12 </wgt>
<wgt id='1701'> +1.6112290e-12 </wgt>
<wgt id='1702'> +1.5036372e-12 </wgt>
<wgt id='1703'> +1.5239589e-12 </wgt>
<wgt id='1704'> +1.5148593e-12 </wgt>
<wgt id='1705'> +1.4797186e-12 </wgt>
<wgt id='1706'> +1.5861992e-12 </wgt>
<wgt id='1707'> +1.5678484e-12 </wgt>
<wgt id='1708'> +1.6256694e-12 </wgt>
<wgt id='1709'> +1.6031694e-12 </wgt>
<wgt id='1710'> +1.5451139e-12 </wgt>
<wgt id='1711'> +1.5540740e-12 </wgt>
<wgt id='1712'> +1.6170432e-12 </wgt>
<wgt id='1713'> +1.3403517e-12 </wgt>
<wgt id='1714'> +1.3331125e-12 </wgt>
<wgt id='1715'> +1.3027180e-12 </wgt>
<wgt id='1716'> +1.3679619e-12 </wgt>
<wgt id='1717'> +1.3514004e-12 </wgt>
<wgt id='1718'> +1.3746656e-12 </wgt>
<wgt id='1719'> +1.3627858e-12 </wgt>
<wgt id='1720'> +1.2942808e-12 </wgt>
<wgt id='1721'> +1.3126803e-12 </wgt>
<wgt id='1722'> +1.3302938e-12 </wgt>
<wgt id='1723'> +1.3917199e-12 </wgt>
<wgt id='1724'> +1.3356698e-12 </wgt>
<wgt id='1725'> +1.3523474e-12 </wgt>
<wgt id='1726'> +1.3457541e-12 </wgt>
<wgt id='1727'> +1.3873338e-12 </wgt>
<wgt id='1728'> +1.3248683e-12 </wgt>
<wgt id='1729'> +1.2823803e-12 </wgt>
<wgt id='1730'> +1.3142238e-12 </wgt>
<wgt id='1731'> +1.2774257e-12 </wgt>
<wgt id='1732'> +1.3430077e-12 </wgt>
<wgt id='1733'> +1.2798837e-12 </wgt>
<wgt id='1734'> +1.4062833e-12 </wgt>
<wgt id='1735'> +1.3114411e-12 </wgt>
<wgt id='1736'> +1.3657948e-12 </wgt>
<wgt id='1737'> +1.3851496e-12 </wgt>
<wgt id='1738'> +1.3324786e-12 </wgt>
<wgt id='1739'> +1.3451095e-12 </wgt>
<wgt id='1740'> +1.2652875e-12 </wgt>
<wgt id='1741'> +1.3839651e-12 </wgt>
<wgt id='1742'> +1.3236228e-12 </wgt>
<wgt id='1743'> +1.3135719e-12 </wgt>
<wgt id='1744'> +1.3639176e-12 </wgt>
<wgt id='1745'> +1.3582798e-12 </wgt>
<wgt id='1746'> +1.3222904e-12 </wgt>
<wgt id='1747'> +1.4000069e-12 </wgt>
<wgt id='1748'> +1.3417303e-12 </wgt>
<wgt id='1749'> +1.3385865e-12 </wgt>
<wgt id='1750'> +1.3130875e-12 </wgt>
<wgt id='1751'> +1.3274755e-12 </wgt>
<wgt id='1752'> +1.3278532e-12 </wgt>
<wgt id='1753'> +1.3497078e-12 </wgt>
<wgt id='1754'> +1.3556223e-12 </wgt>
<wgt id='1755'> +1.3531837e-12 </wgt>
<wgt id='1756'> +1.3640860e-12 </wgt>
<wgt id='1757'> +1.3649392e-12 </wgt>
<wgt id='1758'> +1.3930668e-12 </wgt>
<wgt id='1759'> +1.3703942e-12 </wgt>
<wgt id='1760'> +1.3373326e-12 </wgt>
<wgt id='1761'> +1.3401587e-12 </wgt>
<wgt id='1762'> +1.3198720e-12 </wgt>
<wgt id='1763'> +1.3633600e-12 </wgt>
<wgt id='1764'> +1.3877685e-12 </wgt>
<wgt id='1765'> +1.3363161e-12 </wgt>
<wgt id='1766'> +1.3755593e-12 </wgt>
<wgt id='1767'> +1.3332169e-12 </wgt>
<wgt id='1768'> +1.3625595e-12 </wgt>
<wgt id='1769'> +1.3465030e-12 </wgt>
<wgt id='1770'> +1.3338262e-12 </wgt>
<wgt id='1771'> +1.3936086e-12 </wgt>
<wgt id='1772'> +1.3262378e-12 </wgt>
<wgt id='1773'> +1.3484258e-12 </wgt>
<wgt id='1774'> +1.3268312e-12 </wgt>
<wgt id='1775'> +1.3393329e-12 </wgt>
<wgt id='1776'> +1.3903013e-12 </wgt>
<wgt id='1777'> +1.2815387e-12 </wgt>
<wgt id='1778'> +1.3523395e-12 </wgt>
<wgt id='1779'> +1.3254216e-12 </wgt>
<wgt id='1780'> +1.3359020e-12 </wgt>
<wgt id='1781'> +1.3692572e-12 </wgt>
<wgt id='1782'> +1.3349838e-12 </wgt>
<wgt id='1783'> +1.3493337e-12 </wgt>
<wgt id='1784'> +1.3325300e-12 </wgt>
<wgt id='1785'> +1.3477899e-12 </wgt>
<wgt id='1786'> +1.3273636e-12 </wgt>
<wgt id='1787'> +1.4276416e-12 </wgt>
<wgt id='1788'> +1.3232106e-12 </wgt>
<wgt id='1789'> +1.4193514e-12 </wgt>
<wgt id='1790'> +1.3438377e-12 </wgt>
<wgt id='1791'> +1.3228772e-12 </wgt>
<wgt id='1792'> +1.3187264e-12 </wgt>
<wgt id='1793'> +1.3201233e-12 </wgt>
<wgt id='1794'> +1.3701323e-12 </wgt>
<wgt id='1795'> +1.3499559e-12 </wgt>
<wgt id='1796'> +1.3043457e-12 </wgt>
<wgt id='1797'> +1.3421575e-12 </wgt>
<wgt id='1798'> +1.3293756e-12 </wgt>
<wgt id='1799'> +1.3192996e-12 </wgt>
<wgt id='1800'> +1.3603484e-12 </wgt>
<wgt id='1801'> +1.3378973e-12 </wgt>
<wgt id='1802'> +1.3015879e-12 </wgt>
<wgt id='1803'> +1.3466891e-12 </wgt>
<wgt id='1804'> +1.3542253e-12 </wgt>
<wgt id='1805'> +1.3044538e-12 </wgt>
<wgt id='1806'> +1.3118196e-12 </wgt>
<wgt id='1807'> +1.3157471e-12 </wgt>
<wgt id='1808'> +1.3084321e-12 </wgt>
<wgt id='1809'> +1.3181406e-12 </wgt>
<wgt id='1810'> +1.3098697e-12 </wgt>
<wgt id='1811'> +1.3493690e-12 </wgt>
<wgt id='1812'> +1.3148048e-12 </wgt>
<wgt id='1813'> +1.2612282e-12 </wgt>
<wgt id='1814'> +1.6881179e-12 </wgt>
<wgt id='1815'> +2.0616507e-12 </wgt>
<wgt id='1816'> +1.3403517e-12 </wgt>
<wgt id='1817'> +1.3331125e-12 </wgt>
<wgt id='1818'> +1.3027180e-12 </wgt>
<wgt id='1819'> +1.3679619e-12 </wgt>
<wgt id='1820'> +1.3514004e-12 </wgt>
<wgt id='1821'> +1.3746656e-12 </wgt>
<wgt id='1822'> +1.3627858e-12 </wgt>
<wgt id='1823'> +1.2942808e-12 </wgt>
<wgt id='1824'> +1.3126803e-12 </wgt>
<wgt id='1825'> +1.3302938e-12 </wgt>
<wgt id='1826'> +1.3917199e-12 </wgt>
<wgt id='1827'> +1.3356698e-12 </wgt>
<wgt id='1828'> +1.3523474e-12 </wgt>
<wgt id='1829'> +1.3457541e-12 </wgt>
<wgt id='1830'> +1.3873338e-12 </wgt>
<wgt id='1831'> +1.3248683e-12 </wgt>
<wgt id='1832'> +1.2823803e-12 </wgt>
<wgt id='1833'> +1.3142238e-12 </wgt>
<wgt id='1834'> +1.2774257e-12 </wgt>
<wgt id='1835'> +1.3430077e-12 </wgt>
<wgt id='1836'> +1.2798837e-12 </wgt>
<wgt id='1837'> +1.4062833e-12 </wgt>
<wgt id='1838'> +1.3114411e-12 </wgt>
<wgt id='1839'> +1.3657948e-12 </wgt>
<wgt id='1840'> +1.3851496e-12 </wgt>
<wgt id='1841'> +1.3324786e-12 </wgt>
<wgt id='1842'> +1.3451095e-12 </wgt>
<wgt id='1843'> +1.2652875e-12 </wgt>
<wgt id='1844'> +1.3839651e-12 </wgt>
<wgt id='1845'> +1.3236228e-12 </wgt>
<wgt id='1846'> +1.3135719e-12 </wgt>
<wgt id='1847'> +1.3639176e-12 </wgt>
<wgt id='1848'> +1.3582798e-12 </wgt>
<wgt id='1849'> +1.3222904e-12 </wgt>
<wgt id='1850'> +1.4000069e-12 </wgt>
<wgt id='1851'> +1.3417303e-12 </wgt>
<wgt id='1852'> +1.3385865e-12 </wgt>
<wgt id='1853'> +1.3130875e-12 </wgt>
<wgt id='1854'> +1.3274755e-12 </wgt>
<wgt id='1855'> +1.3278532e-12 </wgt>
<wgt id='1856'> +1.3497078e-12 </wgt>
<wgt id='1857'> +1.3556223e-12 </wgt>
<wgt id='1858'> +1.3531837e-12 </wgt>
<wgt id='1859'> +1.3640860e-12 </wgt>
<wgt id='1860'> +1.3649392e-12 </wgt>
<wgt id='1861'> +1.3930668e-12 </wgt>
<wgt id='1862'> +1.3703942e-12 </wgt>
<wgt id='1863'> +1.3373326e-12 </wgt>
<wgt id='1864'> +1.3401587e-12 </wgt>
<wgt id='1865'> +1.3198720e-12 </wgt>
<wgt id='1866'> +1.3633600e-12 </wgt>
<wgt id='1867'> +1.3877685e-12 </wgt>
<wgt id='1868'> +1.3363161e-12 </wgt>
<wgt id='1869'> +1.3755593e-12 </wgt>
<wgt id='1870'> +1.3332169e-12 </wgt>
<wgt id='1871'> +1.3625595e-12 </wgt>
<wgt id='1872'> +1.3465030e-12 </wgt>
<wgt id='1873'> +1.3338262e-12 </wgt>
<wgt id='1874'> +1.3936086e-12 </wgt>
<wgt id='1875'> +1.3262378e-12 </wgt>
<wgt id='1876'> +1.3484258e-12 </wgt>
<wgt id='1877'> +1.3268312e-12 </wgt>
<wgt id='1878'> +1.3393329e-12 </wgt>
<wgt id='1879'> +1.3903013e-12 </wgt>
<wgt id='1880'> +1.2815387e-12 </wgt>
<wgt id='1881'> +1.3523395e-12 </wgt>
<wgt id='1882'> +1.3254216e-12 </wgt>
<wgt id='1883'> +1.3359020e-12 </wgt>
<wgt id='1884'> +1.3692572e-12 </wgt>
<wgt id='1885'> +1.3349838e-12 </wgt>
<wgt id='1886'> +1.3493337e-12 </wgt>
<wgt id='1887'> +1.3325300e-12 </wgt>
<wgt id='1888'> +1.3477899e-12 </wgt>
<wgt id='1889'> +1.3273636e-12 </wgt>
<wgt id='1890'> +1.4276416e-12 </wgt>
<wgt id='1891'> +1.3232106e-12 </wgt>
<wgt id='1892'> +1.4193514e-12 </wgt>
<wgt id='1893'> +1.3438377e-12 </wgt>
<wgt id='1894'> +1.3228772e-12 </wgt>
<wgt id='1895'> +1.3187264e-12 </wgt>
<wgt id='1896'> +1.3201233e-12 </wgt>
<wgt id='1897'> +1.3701323e-12 </wgt>
<wgt id='1898'> +1.3499559e-12 </wgt>
<wgt id='1899'> +1.3043457e-12 </wgt>
<wgt id='1900'> +1.3421575e-12 </wgt>
<wgt id='1901'> +1.3293756e-12 </wgt>
<wgt id='1902'> +1.3192996e-12 </wgt>
<wgt id='1903'> +1.3603484e-12 </wgt>
<wgt id='1904'> +1.3378973e-12 </wgt>
<wgt id='1905'> +1.3015879e-12 </wgt>
<wgt id='1906'> +1.3466891e-12 </wgt>
<wgt id='1907'> +1.3542253e-12 </wgt>
<wgt id='1908'> +1.3044538e-12 </wgt>
<wgt id='1909'> +1.3118196e-12 </wgt>
<wgt id='1910'> +1.3157471e-12 </wgt>
<wgt id='1911'> +1.3084321e-12 </wgt>
<wgt id='1912'> +1.3181406e-12 </wgt>
<wgt id='1913'> +1.3098697e-12 </wgt>
<wgt id='1914'> +1.3493690e-12 </wgt>
<wgt id='1915'> +1.3148048e-12 </wgt>
<wgt id='1916'> +1.2612282e-12 </wgt>
<wgt id='1917'> +1.3321394e-12 </wgt>
<wgt id='1918'> +1.3582941e-12 </wgt>
<wgt id='1919'> +1.2985862e-12 </wgt>
</rwgt>
</event>
<event>
 9      1 +1.5607000e-12 2.57524600e+01 7.81860800e-03 1.49704300e-01
       21 -1    0    0  501  502 +0.0000000000e+00 +0.0000000000e+00 +1.4803580783e+01 1.4803580783e+01 0.0000000000e+00 0.0000e+00 1.0000e+00
        2 -1    0    0  502    0 -0.0000000000e+00 -0.0000000000e+00 -5.8904794129e+01 5.8904794129e+01 0.0000000000e+00 0.0000e+00 1.0000e+00
     1023  2    1    2    0    0 +1.1900405980e+00 -2.0901800962e+01 -9.7707662683e-01 2.5770992339e+01 1.4996262446e+01 0.0000e+00 0.0000e+00
  1000023  2    3    3    0    0 -4.5241181892e+00 -7.7174389888e+00 -1.1019069328e+00 1.0556045941e+01 5.4944878827e+00 0.0000e+00 0.0000e+00
        2  1    1    2  501    0 -1.1900405980e+00 +2.0901800962e+01 -4.3124136720e+01 4.7937382572e+01 0.0000000000e+00 0.0000e+00 1.0000e+00
  1000022  1    4    4    0    0 -3.8993654507e+00 -6.6907210299e+00 -8.7538339982e-01 9.2594327534e+00 5.0000000000e+00 0.0000e+00 1.0000e+00
      -11  1    4    4    0    0 -2.4169408739e-01 -7.6988292468e-01 -7.1622258977e-02 8.1010231372e-01 5.1100000000e-04 0.0000e+00 -1.0000e+00
       11  1    4    4    0    0 -3.8305865118e-01 -2.5683503425e-01 -1.5490127404e-01 4.8651087437e-01 5.1100000000e-04 0.0000e+00 1.0000e+00
  1000022  1    3    3    0    0 +5.7141587872e+00 -1.3184361973e+01 +1.2483030601e-01 1.5214946398e+01 5.0000000000e+00 0.0000e+00 1.0000e+00
<mgrwt>
<rscale>  1 0.25752463E+02</rscale>
<asrwt>0</asrwt>
<pdfrwt beam="1">  1       21 0.22774740E-02 0.25752463E+02</pdfrwt>
<pdfrwt beam="2">  1        2 0.90622760E-02 0.25752463E+02</pdfrwt>
<totfact> 0.64807442E+06</totfact>
</mgrwt>
<rwgt>
<wgt id='1001'> +1.5607000e-12 </wgt>
<wgt id='1002'> +1.6311824e-12 </wgt>
<wgt id='1003'> +1.6312145e-12 </wgt>
<wgt id='1004'> +1.5450471e-12 </wgt>
<wgt id='1005'> +1.6494672e-12 </wgt>
<wgt id='1006'> +1.3597194e-12 </wgt>
<wgt id='1007'> +1.4432511e-12 </wgt>
<wgt id='1008'> +1.4432918e-12 </wgt>
<wgt id='1009'> +1.3420783e-12 </wgt>
<wgt id='1010'> +1.4670603e-12 </wgt>
<wgt id='1011'> +1.8349805e-12 </wgt>
<wgt id='1012'> +1.8778949e-12 </wgt>
<wgt id='1013'> +1.8779107e-12 </wgt>
<wgt id='1014'> +1.8241669e-12 </wgt>
<wgt id='1015'> +1.8858914e-12 </wgt>
<wgt id='1016'> +1.8818025e-12 </wgt>
<wgt id='1017'> +1.8902291e-12 </wgt>
<wgt id='1018'> +1.8902275e-12 </wgt>
<wgt id='1019'> +1.8779107e-12 </wgt>
<wgt id='1020'> +1.8878951e-12 </wgt>
<wgt id='1021'> +1.6394716e-12 </wgt>
<wgt id='1022'> +1.6724525e-12 </wgt>
<wgt id='1023'> +1.6724654e-12 </wgt>
<wgt id='1024'> +1.6312145e-12 </wgt>
<wgt id='1025'> +1.6791215e-12 </wgt>
<wgt id='1026'> +2.2125141e-12 </wgt>
<wgt id='1027'> +2.1761217e-12 </wgt>
<wgt id='1028'> +2.1760954e-12 </wgt>
<wgt id='1029'> +2.2171639e-12 </wgt>
<wgt id='1030'> +2.1584939e-12 </wgt>
<wgt id='1031'> +1.2067490e-12 </wgt>
<wgt id='1032'> +1.3420107e-12 </wgt>
<wgt id='1033'> +1.3420783e-12 </wgt>
<wgt id='1034'> +1.1785124e-12 </wgt>
<wgt id='1035'> +1.3825226e-12 </wgt>
<wgt id='1036'> +1.0513488e-12 </wgt>
<wgt id='1037'> +1.1873954e-12 </wgt>
<wgt id='1038'> +1.1874653e-12 </wgt>
<wgt id='1039'> +1.0236943e-12 </wgt>
<wgt id='1040'> +1.2296359e-12 </wgt>
<wgt id='1041'> +1.4188255e-12 </wgt>
<wgt id='1042'> +1.5449867e-12 </wgt>
<wgt id='1043'> +1.5450471e-12 </wgt>
<wgt id='1044'> +1.3914160e-12 </wgt>
<wgt id='1045'> +1.5806847e-12 </wgt>
<wgt id='1046'> +1.5607000e-12 </wgt>
<wgt id='1047'> +1.6090748e-12 </wgt>
<wgt id='1048'> +1.5414199e-12 </wgt>
<wgt id='1049'> +1.5221451e-12 </wgt>
<wgt id='1050'> +1.5293992e-12 </wgt>
<wgt id='1051'> +1.5737319e-12 </wgt>
<wgt id='1052'> +1.5373346e-12 </wgt>
<wgt id='1053'> +1.5541101e-12 </wgt>
<wgt id='1054'> +1.5430707e-12 </wgt>
<wgt id='1055'> +1.5180822e-12 </wgt>
<wgt id='1056'> +1.5580341e-12 </wgt>
<wgt id='1057'> +1.5844279e-12 </wgt>
<wgt id='1058'> +1.5168421e-12 </wgt>
<wgt id='1059'> +1.5724847e-12 </wgt>
<wgt id='1060'> +1.5719014e-12 </wgt>
<wgt id='1061'> +1.5476314e-12 </wgt>
<wgt id='1062'> +1.5714429e-12 </wgt>
<wgt id='1063'> +1.5808461e-12 </wgt>
<wgt id='1064'> +1.5564045e-12 </wgt>
<wgt id='1065'> +1.5556496e-12 </wgt>
<wgt id='1066'> +1.5388833e-12 </wgt>
<wgt id='1067'> +1.5204811e-12 </wgt>
<wgt id='1068'> +1.5835012e-12 </wgt>
<wgt id='1069'> +1.5805367e-12 </wgt>
<wgt id='1070'> +1.5559377e-12 </wgt>
<wgt id='1071'> +1.5035114e-12 </wgt>
<wgt id='1072'> +1.5952528e-12 </wgt>
<wgt id='1073'> +1.5781944e-12 </wgt>
<wgt id='1074'> +1.5448873e-12 </wgt>
<wgt id='1075'> +1.5656015e-12 </wgt>
<wgt id='1076'> +1.5529752e-12 </wgt>
<wgt id='1077'> +1.5773655e-12 </wgt>
<wgt id='1078'> +1.5251054e-12 </wgt>
<wgt id='1079'> +1.5306009e-12 </wgt>
<wgt id='1080'> +1.5392893e-12 </wgt>
<wgt id='1081'> +1.5890567e-12 </wgt>
<wgt id='1082'> +1.5379014e-12 </wgt>
<wgt id='1083'> +1.5952052e-12 </wgt>
<wgt id='1084'> +1.5284032e-12 </wgt>
<wgt id='1085'> +1.5523898e-12 </wgt>
<wgt id='1086'> +1.5649052e-12 </wgt>
<wgt id='1087'> +1.5549139e-12 </wgt>
<wgt id='1088'> +1.5588932e-12 </wgt>
<wgt id='1089'> +1.5879317e-12 </wgt>
<wgt id='1090'> +1.5511336e-12 </wgt>
<wgt id='1091'> +1.5747436e-12 </wgt>
<wgt id='1092'> +1.5883267e-12 </wgt>
<wgt id='1093'> +1.5387376e-12 </wgt>
<wgt id='1094'> +1.5917471e-12 </wgt>
<wgt id='1095'> +1.5756409e-12 </wgt>
<wgt id='1096'> +1.6063377e-12 </wgt>
<wgt id='1097'> +1.5566163e-12 </wgt>
<wgt id='1098'> +1.5409370e-12 </wgt>
<wgt id='1099'> +1.5522813e-12 </wgt>
<wgt id='1100'> +1.5708966e-12 </wgt>
<wgt id='1101'> +1.5873256e-12 </wgt>
<wgt id='1102'> +1.5672035e-12 </wgt>
<wgt id='1103'> +1.6118087e-12 </wgt>
<wgt id='1104'> +1.5369101e-12 </wgt>
<wgt id='1105'> +1.5521812e-12 </wgt>
<wgt id='1106'> +1.5912767e-12 </wgt>
<wgt id='1107'> +1.5445201e-12 </wgt>
<wgt id='1108'> +1.5635881e-12 </wgt>
<wgt id='1109'> +1.6035339e-12 </wgt>
<wgt id='1110'> +1.5556611e-12 </wgt>
<wgt id='1111'> +1.5627678e-12 </wgt>
<wgt id='1112'> +1.6036479e-12 </wgt>
<wgt id='1113'> +1.5991667e-12 </wgt>
<wgt id='1114'> +1.5666362e-12 </wgt>
<wgt id='1115'> +1.5321296e-12 </wgt>
<wgt id='1116'> +1.5554494e-12 </wgt>
<wgt id='1117'> +1.5415564e-12 </wgt>
<wgt id='1118'> +1.6593516e-12 </wgt>
<wgt id='1119'> +1.5082567e-12 </wgt>
<wgt id='1120'> +1.5310658e-12 </wgt>
<wgt id='1121'> +1.5494419e-12 </wgt>
<wgt id='1122'> +1.5820862e-12 </wgt>
<wgt id='1123'> +1.5233773e-12 </wgt>
<wgt id='1124'> +1.5215156e-12 </wgt>
<wgt id='1125'> +1.5334050e-12 </wgt>
<wgt id='1126'> +1.5938787e-12 </wgt>
<wgt id='1127'> +1.5576448e-12 </wgt>
<wgt id='1128'> +1.5714429e-12 </wgt>
<wgt id='1129'> +1.5681326e-12 </wgt>
<wgt id='1130'> +1.5662943e-12 </wgt>
<wgt id='1131'> +1.5554904e-12 </wgt>
<wgt id='1132'> +1.5855788e-12 </wgt>
<wgt id='1133'> +1.5444343e-12 </wgt>
<wgt id='1134'> +1.5896079e-12 </wgt>
<wgt id='1135'> +1.5048559e-12 </wgt>
<wgt id='1136'> +1.5506463e-12 </wgt>
<wgt id='1137'> +1.5266843e-12 </wgt>
<wgt id='1138'> +1.5527060e-12 </wgt>
<wgt id='1139'> +1.5561919e-12 </wgt>
<wgt id='1140'> +1.5895695e-12 </wgt>
<wgt id='1141'> +1.5657163e-12 </wgt>
<wgt id='1142'> +1.5346341e-12 </wgt>
<wgt id='1143'> +1.5930760e-12 </wgt>
<wgt id='1144'> +1.5750360e-12 </wgt>
<wgt id='1145'> +1.5688259e-12 </wgt>
<wgt id='1146'> +1.5790130e-12 </wgt>
<wgt id='1147'> +1.2623933e-12 </wgt>
<wgt id='1148'> +1.2918818e-12 </wgt>
<wgt id='1149'> +1.2957384e-12 </wgt>
<wgt id='1150'> +1.2910089e-12 </wgt>
<wgt id='1151'> +1.4016060e-12 </wgt>
<wgt id='1152'> +1.7478322e-12 </wgt>
<wgt id='1153'> +1.7382555e-12 </wgt>
<wgt id='1154'> +1.7533087e-12 </wgt>
<wgt id='1155'> +1.7469899e-12 </wgt>
<wgt id='1156'> +1.7482644e-12 </wgt>
<wgt id='1157'> +1.7508682e-12 </wgt>
<wgt id='1158'> +1.7435586e-12 </wgt>
<wgt id='1159'> +1.7504725e-12 </wgt>
<wgt id='1160'> +1.7461503e-12 </wgt>
<wgt id='1161'> +1.7440280e-12 </wgt>
<wgt id='1162'> +1.7503790e-12 </wgt>
<wgt id='1163'> +1.7516653e-12 </wgt>
<wgt id='1164'> +1.7439389e-12 </wgt>
<wgt id='1165'> +1.7367967e-12 </wgt>
<wgt id='1166'> +1.7583780e-12 </wgt>
<wgt id='1167'> +1.7578371e-12 </wgt>
<wgt id='1168'> +1.7341319e-12 </wgt>
<wgt id='1169'> +1.7499494e-12 </wgt>
<wgt id='1170'> +1.7461980e-12 </wgt>
<wgt id='1171'> +1.7423187e-12 </wgt>
<wgt id='1172'> +1.7541997e-12 </wgt>
<wgt id='1173'> +1.7352459e-12 </wgt>
<wgt id='1174'> +1.7594944e-12 </wgt>
<wgt id='1175'> +1.7500019e-12 </wgt>
<wgt id='1176'> +1.7450475e-12 </wgt>
<wgt id='1177'> +1.7498131e-12 </wgt>
<wgt id='1178'> +1.7421073e-12 </wgt>
<wgt id='1179'> +1.7521862e-12 </wgt>
<wgt id='1180'> +1.7365654e-12 </wgt>
<wgt id='1181'> +1.7414847e-12 </wgt>
<wgt id='1182'> +1.7540627e-12 </wgt>
<wgt id='1183'> +1.7485165e-12 </wgt>
<wgt id='1184'> +1.7477168e-12 </wgt>
<wgt id='1185'> +1.7406070e-12 </wgt>
<wgt id='1186'> +1.7518649e-12 </wgt>
<wgt id='1187'> +1.7471391e-12 </wgt>
<wgt id='1188'> +1.7479920e-12 </wgt>
<wgt id='1189'> +1.7422687e-12 </wgt>
<wgt id='1190'> +1.7366046e-12 </wgt>
<wgt id='1191'> +1.7431485e-12 </wgt>
<wgt id='1192'> +1.7497905e-12 </wgt>
<wgt id='1193'> +1.2749740e-12 </wgt>
<wgt id='1194'> +1.2723376e-12 </wgt>
<wgt id='1195'> +1.2770240e-12 </wgt>
<wgt id='1196'> +1.2811866e-12 </wgt>
<wgt id='1197'> +1.2679809e-12 </wgt>
<wgt id='1198'> +1.2753837e-12 </wgt>
<wgt id='1199'> +1.2743095e-12 </wgt>
<wgt id='1200'> +1.2764653e-12 </wgt>
<wgt id='1201'> +1.2739395e-12 </wgt>
<wgt id='1202'> +1.2730922e-12 </wgt>
<wgt id='1203'> +1.2775539e-12 </wgt>
<wgt id='1204'> +1.2639706e-12 </wgt>
<wgt id='1205'> +1.2816767e-12 </wgt>
<wgt id='1206'> +1.2791871e-12 </wgt>
<wgt id='1207'> +1.2692319e-12 </wgt>
<wgt id='1208'> +1.2674742e-12 </wgt>
<wgt id='1209'> +1.2776369e-12 </wgt>
<wgt id='1210'> +1.2759237e-12 </wgt>
<wgt id='1211'> +1.2655396e-12 </wgt>
<wgt id='1212'> +1.2758170e-12 </wgt>
<wgt id='1213'> +1.2740515e-12 </wgt>
<wgt id='1214'> +1.2592596e-12 </wgt>
<wgt id='1215'> +1.3002000e-12 </wgt>
<wgt id='1216'> +1.2805546e-12 </wgt>
<wgt id='1217'> +1.2706403e-12 </wgt>
<wgt id='1218'> +1.2802076e-12 </wgt>
<wgt id='1219'> +1.2721167e-12 </wgt>
<wgt id='1220'> +1.2801431e-12 </wgt>
<wgt id='1221'> +1.2735603e-12 </wgt>
<wgt id='1222'> +1.2789607e-12 </wgt>
<wgt id='1223'> +1.2678957e-12 </wgt>
<wgt id='1224'> +1.2766843e-12 </wgt>
<wgt id='1225'> +1.2742297e-12 </wgt>
<wgt id='1226'> +1.2718324e-12 </wgt>
<wgt id='1227'> +1.2771116e-12 </wgt>
<wgt id='1228'> +1.2682554e-12 </wgt>
<wgt id='1229'> +1.2775505e-12 </wgt>
<wgt id='1230'> +1.2673965e-12 </wgt>
<wgt id='1231'> +1.2739274e-12 </wgt>
<wgt id='1232'> +1.2731012e-12 </wgt>
<wgt id='1233'> +1.2753777e-12 </wgt>
<wgt id='1234'> +1.2749740e-12 </wgt>
<wgt id='1235'> +1.2658091e-12 </wgt>
<wgt id='1236'> +1.2691519e-12 </wgt>
<wgt id='1237'> +1.2721472e-12 </wgt>
<wgt id='1238'> +1.2771619e-12 </wgt>
<wgt id='1239'> +1.2792445e-12 </wgt>
<wgt id='1240'> +1.2812291e-12 </wgt>
<wgt id='1241'> +1.2606778e-12 </wgt>
<wgt id='1242'> +1.2539192e-12 </wgt>
<wgt id='1243'> +1.2674423e-12 </wgt>
<wgt id='1244'> +1.2535787e-12 </wgt>
<wgt id='1245'> +1.2659398e-12 </wgt>
<wgt id='1246'> +1.2610402e-12 </wgt>
<wgt id='1247'> +1.2604688e-12 </wgt>
<wgt id='1248'> +1.2606426e-12 </wgt>
<wgt id='1249'> +1.2607767e-12 </wgt>
<wgt id='1250'> +1.2620057e-12 </wgt>
<wgt id='1251'> +1.2598045e-12 </wgt>
<wgt id='1252'> +1.2580145e-12 </wgt>
<wgt id='1253'> +1.2628016e-12 </wgt>
<wgt id='1254'> +1.2508797e-12 </wgt>
<wgt id='1255'> +1.2665978e-12 </wgt>
<wgt id='1256'> +1.2647924e-12 </wgt>
<wgt id='1257'> +1.2504515e-12 </wgt>
<wgt id='1258'> +1.2803176e-12 </wgt>
<wgt id='1259'> +1.2419933e-12 </wgt>
<wgt id='1260'> +1.2642164e-12 </wgt>
<wgt id='1261'> +1.2568157e-12 </wgt>
<wgt id='1262'> +1.2606323e-12 </wgt>
<wgt id='1263'> +1.2603844e-12 </wgt>
<wgt id='1264'> +1.2667229e-12 </wgt>
<wgt id='1265'> +1.2577235e-12 </wgt>
<wgt id='1266'> +1.2526495e-12 </wgt>
<wgt id='1267'> +1.2680196e-12 </wgt>
<wgt id='1268'> +1.2626776e-12 </wgt>
<wgt id='1269'> +1.2615882e-12 </wgt>
<wgt id='1270'> +1.2528725e-12 </wgt>
<wgt id='1271'> +1.2547179e-12 </wgt>
<wgt id='1272'> +1.2591602e-12 </wgt>
<wgt id='1273'> +1.2605878e-12 </wgt>
<wgt id='1274'> +1.2627443e-12 </wgt>
<wgt id='1275'> +1.2564537e-12 </wgt>
<wgt id='1276'> +1.2644791e-12 </wgt>
<wgt id='1277'> +1.2544972e-12 </wgt>
<wgt id='1278'> +1.2612063e-12 </wgt>
<wgt id='1279'> +1.2590843e-12 </wgt>
<wgt id='1280'> +1.2612729e-12 </wgt>
<wgt id='1281'> +1.2580095e-12 </wgt>
<wgt id='1282'> +1.2606778e-12 </wgt>
<wgt id='1283'> +1.2517197e-12 </wgt>
<wgt id='1284'> +1.2551808e-12 </wgt>
<wgt id='1285'> +1.2582009e-12 </wgt>
<wgt id='1286'> +1.2632319e-12 </wgt>
<wgt id='1287'> +1.2652510e-12 </wgt>
<wgt id='1288'> +1.2668900e-12 </wgt>
<wgt id='1289'> +1.3332032e-12 </wgt>
<wgt id='1290'> +1.3330446e-12 </wgt>
<wgt id='1291'> +1.3333078e-12 </wgt>
<wgt id='1292'> +1.3280115e-12 </wgt>
<wgt id='1293'> +1.3368776e-12 </wgt>
<wgt id='1294'> +1.3281155e-12 </wgt>
<wgt id='1295'> +1.3380863e-12 </wgt>
<wgt id='1296'> +1.3295004e-12 </wgt>
<wgt id='1297'> +1.3376775e-12 </wgt>
<wgt id='1298'> +1.3390662e-12 </wgt>
<wgt id='1299'> +1.3258268e-12 </wgt>
<wgt id='1300'> +1.3360098e-12 </wgt>
<wgt id='1301'> +1.3274972e-12 </wgt>
<wgt id='1302'> +1.3317500e-12 </wgt>
<wgt id='1303'> +1.3351048e-12 </wgt>
<wgt id='1304'> +1.3308791e-12 </wgt>
<wgt id='1305'> +1.3347220e-12 </wgt>
<wgt id='1306'> +1.3271815e-12 </wgt>
<wgt id='1307'> +1.3399959e-12 </wgt>
<wgt id='1308'> +1.3347169e-12 </wgt>
<wgt id='1309'> +1.3320517e-12 </wgt>
<wgt id='1310'> +1.3332994e-12 </wgt>
<wgt id='1311'> +1.3331091e-12 </wgt>
<wgt id='1312'> +1.3292000e-12 </wgt>
<wgt id='1313'> +1.3372489e-12 </wgt>
<wgt id='1314'> +1.3317328e-12 </wgt>
<wgt id='1315'> +1.3296113e-12 </wgt>
<wgt id='1316'> +1.3395145e-12 </wgt>
<wgt id='1317'> +1.3330802e-12 </wgt>
<wgt id='1318'> +1.3417244e-12 </wgt>
<wgt id='1319'> +1.3227656e-12 </wgt>
<wgt id='1320'> +1.3441632e-12 </wgt>
<wgt id='1321'> +1.3240574e-12 </wgt>
<wgt id='1322'> +1.3325309e-12 </wgt>
<wgt id='1323'> +1.3336348e-12 </wgt>
<wgt id='1324'> +1.3296536e-12 </wgt>
<wgt id='1325'> +1.3461822e-12 </wgt>
<wgt id='1326'> +1.3333003e-12 </wgt>
<wgt id='1327'> +1.3350121e-12 </wgt>
<wgt id='1328'> +1.3337530e-12 </wgt>
<wgt id='1329'> +1.3324602e-12 </wgt>
<wgt id='1330'> +1.3228379e-12 </wgt>
<wgt id='1331'> +1.3406885e-12 </wgt>
<wgt id='1332'> +1.3550309e-12 </wgt>
<wgt id='1333'> +1.3203539e-12 </wgt>
<wgt id='1334'> +1.3296083e-12 </wgt>
<wgt id='1335'> +1.3427526e-12 </wgt>
<wgt id='1336'> +1.3276792e-12 </wgt>
<wgt id='1337'> +1.3344953e-12 </wgt>
<wgt id='1338'> +1.3311399e-12 </wgt>
<wgt id='1339'> +1.3334506e-12 </wgt>
<wgt id='1340'> +1.3139707e-12 </wgt>
<wgt id='1341'> +1.3139874e-12 </wgt>
<wgt id='1342'> +1.3139944e-12 </wgt>
<wgt id='1343'> +1.3087825e-12 </wgt>
<wgt id='1344'> +1.3175238e-12 </wgt>
<wgt id='1345'> +1.3089128e-12 </wgt>
<wgt id='1346'> +1.3187221e-12 </wgt>
<wgt id='1347'> +1.3105361e-12 </wgt>
<wgt id='1348'> +1.3178278e-12 </wgt>
<wgt id='1349'> +1.3194102e-12 </wgt>
<wgt id='1350'> +1.3086603e-12 </wgt>
<wgt id='1351'> +1.3168378e-12 </wgt>
<wgt id='1352'> +1.3078427e-12 </wgt>
<wgt id='1353'> +1.3120345e-12 </wgt>
<wgt id='1354'> +1.3174641e-12 </wgt>
<wgt id='1355'> +1.3119716e-12 </wgt>
<wgt id='1356'> +1.3151185e-12 </wgt>
<wgt id='1357'> +1.3084025e-12 </wgt>
<wgt id='1358'> +1.3206439e-12 </wgt>
<wgt id='1359'> +1.3171382e-12 </wgt>
<wgt id='1360'> +1.3112997e-12 </wgt>
<wgt id='1361'> +1.3138910e-12 </wgt>
<wgt id='1362'> +1.3143496e-12 </wgt>
<wgt id='1363'> +1.3093868e-12 </wgt>
<wgt id='1364'> +1.3173606e-12 </wgt>
<wgt id='1365'> +1.3090577e-12 </wgt>
<wgt id='1366'> +1.3127227e-12 </wgt>
<wgt id='1367'> +1.3201024e-12 </wgt>
<wgt id='1368'> +1.3134384e-12 </wgt>
<wgt id='1369'> +1.3213408e-12 </wgt>
<wgt id='1370'> +1.3050868e-12 </wgt>
<wgt id='1371'> +1.3220257e-12 </wgt>
<wgt id='1372'> +1.3043933e-12 </wgt>
<wgt id='1373'> +1.3114449e-12 </wgt>
<wgt id='1374'> +1.3158799e-12 </wgt>
<wgt id='1375'> +1.3103318e-12 </wgt>
<wgt id='1376'> +1.3279859e-12 </wgt>
<wgt id='1377'> +1.3141444e-12 </wgt>
<wgt id='1378'> +1.3160996e-12 </wgt>
<wgt id='1379'> +1.3143131e-12 </wgt>
<wgt id='1380'> +1.3134975e-12 </wgt>
<wgt id='1381'> +1.3037959e-12 </wgt>
<wgt id='1382'> +1.3200372e-12 </wgt>
<wgt id='1383'> +1.3348490e-12 </wgt>
<wgt id='1384'> +1.3014267e-12 </wgt>
<wgt id='1385'> +1.3107308e-12 </wgt>
<wgt id='1386'> +1.3221785e-12 </wgt>
<wgt id='1387'> +1.3065691e-12 </wgt>
<wgt id='1388'> +1.3157866e-12 </wgt>
<wgt id='1389'> +1.3098213e-12 </wgt>
<wgt id='1390'> +1.3148328e-12 </wgt>
<wgt id='1391'> +1.2899664e-12 </wgt>
<wgt id='1392'> +1.2637372e-12 </wgt>
<wgt id='1393'> +1.2724112e-12 </wgt>
<wgt id='1394'> +1.2818444e-12 </wgt>
<wgt id='1395'> +1.2993172e-12 </wgt>
<wgt id='1396'> +1.2910026e-12 </wgt>
<wgt id='1397'> +1.2512302e-12 </wgt>
<wgt id='1398'> +1.2593931e-12 </wgt>
<wgt id='1399'> +1.2668070e-12 </wgt>
<wgt id='1400'> +1.2744957e-12 </wgt>
<wgt id='1401'> +1.2827388e-12 </wgt>
<wgt id='1402'> +1.2989147e-12 </wgt>
<wgt id='1403'> +1.3069076e-12 </wgt>
<wgt id='1404'> +1.3145233e-12 </wgt>
<wgt id='1405'> +1.2910026e-12 </wgt>
<wgt id='1406'> +1.2863234e-12 </wgt>
<wgt id='1407'> +1.2889329e-12 </wgt>
<wgt id='1408'> +1.2929813e-12 </wgt>
<wgt id='1409'> +1.2951486e-12 </wgt>
<wgt id='1410'> +1.2633531e-12 </wgt>
<wgt id='1411'> +1.2632183e-12 </wgt>
<wgt id='1412'> +1.2634607e-12 </wgt>
<wgt id='1413'> +1.2657276e-12 </wgt>
<wgt id='1414'> +1.2609087e-12 </wgt>
<wgt id='1415'> +1.2562763e-12 </wgt>
<wgt id='1416'> +1.2661705e-12 </wgt>
<wgt id='1417'> +1.2551313e-12 </wgt>
<wgt id='1418'> +1.2715135e-12 </wgt>
<wgt id='1419'> +1.2655612e-12 </wgt>
<wgt id='1420'> +1.2611316e-12 </wgt>
<wgt id='1421'> +1.2499675e-12 </wgt>
<wgt id='1422'> +1.2690749e-12 </wgt>
<wgt id='1423'> +1.2630235e-12 </wgt>
<wgt id='1424'> +1.2636750e-12 </wgt>
<wgt id='1425'> +1.2586233e-12 </wgt>
<wgt id='1426'> +1.2684196e-12 </wgt>
<wgt id='1427'> +1.2545312e-12 </wgt>
<wgt id='1428'> +1.2680275e-12 </wgt>
<wgt id='1429'> +1.2589853e-12 </wgt>
<wgt id='1430'> +1.2692604e-12 </wgt>
<wgt id='1431'> +1.2653748e-12 </wgt>
<wgt id='1432'> +1.2618092e-12 </wgt>
<wgt id='1433'> +1.2626489e-12 </wgt>
<wgt id='1434'> +1.2626473e-12 </wgt>
<wgt id='1435'> +1.2649147e-12 </wgt>
<wgt id='1436'> +1.2593722e-12 </wgt>
<wgt id='1437'> +1.2695975e-12 </wgt>
<wgt id='1438'> +1.2625664e-12 </wgt>
<wgt id='1439'> +1.2579286e-12 </wgt>
<wgt id='1440'> +1.2752075e-12 </wgt>
<wgt id='1441'> +1.2663204e-12 </wgt>
<wgt id='1442'> +1.2579764e-12 </wgt>
<wgt id='1443'> +1.2601918e-12 </wgt>
<wgt id='1444'> +1.2707481e-12 </wgt>
<wgt id='1445'> +1.2764375e-12 </wgt>
<wgt id='1446'> +1.2589184e-12 </wgt>
<wgt id='1447'> +1.2629313e-12 </wgt>
<wgt id='1448'> +1.2662400e-12 </wgt>
<wgt id='1449'> +1.2643650e-12 </wgt>
<wgt id='1450'> +1.2623173e-12 </wgt>
<wgt id='1451'> +1.2680891e-12 </wgt>
<wgt id='1452'> +1.2495847e-12 </wgt>
<wgt id='1453'> +1.2644791e-12 </wgt>
<wgt id='1454'> +1.2547488e-12 </wgt>
<wgt id='1455'> +1.2565427e-12 </wgt>
<wgt id='1456'> +1.2664127e-12 </wgt>
<wgt id='1457'> +1.2666568e-12 </wgt>
<wgt id='1458'> +1.2617404e-12 </wgt>
<wgt id='1459'> +1.2683348e-12 </wgt>
<wgt id='1460'> +1.2582937e-12 </wgt>
<wgt id='1461'> +1.2633531e-12 </wgt>
<wgt id='1462'> +1.2566135e-12 </wgt>
<wgt id='1463'> +1.2714824e-12 </wgt>
<wgt id='1464'> +1.2646654e-12 </wgt>
<wgt id='1465'> +1.2315071e-12 </wgt>
<wgt id='1466'> +1.2381333e-12 </wgt>
<wgt id='1467'> +1.2455233e-12 </wgt>
<wgt id='1468'> +1.2515870e-12 </wgt>
<wgt id='1469'> +1.2580754e-12 </wgt>
<wgt id='1470'> +1.2717510e-12 </wgt>
<wgt id='1471'> +1.2772823e-12 </wgt>
<wgt id='1472'> +1.2840566e-12 </wgt>
<wgt id='1473'> +1.2646654e-12 </wgt>
<wgt id='1474'> +1.2598466e-12 </wgt>
<wgt id='1475'> +1.2617274e-12 </wgt>
<wgt id='1476'> +1.2667467e-12 </wgt>
<wgt id='1477'> +1.2686651e-12 </wgt>
<wgt id='1478'> +1.2584660e-12 </wgt>
<wgt id='1479'> +1.2557503e-12 </wgt>
<wgt id='1480'> +1.2525369e-12 </wgt>
<wgt id='1481'> +1.2586202e-12 </wgt>
<wgt id='1482'> +1.2552340e-12 </wgt>
<wgt id='1483'> +1.2444323e-12 </wgt>
<wgt id='1484'> +1.2608676e-12 </wgt>
<wgt id='1485'> +1.2525762e-12 </wgt>
<wgt id='1486'> +1.2591989e-12 </wgt>
<wgt id='1487'> +1.2591433e-12 </wgt>
<wgt id='1488'> +1.2566586e-12 </wgt>
<wgt id='1489'> +1.2727111e-12 </wgt>
<wgt id='1490'> +1.2533302e-12 </wgt>
<wgt id='1491'> +1.2584859e-12 </wgt>
<wgt id='1492'> +1.2622105e-12 </wgt>
<wgt id='1493'> +1.2394599e-12 </wgt>
<wgt id='1494'> +1.2666238e-12 </wgt>
<wgt id='1495'> +1.2480337e-12 </wgt>
<wgt id='1496'> +1.2572743e-12 </wgt>
<wgt id='1497'> +1.2573057e-12 </wgt>
<wgt id='1498'> +1.2589618e-12 </wgt>
<wgt id='1499'> +1.2584834e-12 </wgt>
<wgt id='1500'> +1.2577807e-12 </wgt>
<wgt id='1501'> +1.2592563e-12 </wgt>
<wgt id='1502'> +1.2614335e-12 </wgt>
<wgt id='1503'> +1.2579686e-12 </wgt>
<wgt id='1504'> +1.2553587e-12 </wgt>
<wgt id='1505'> +1.2582803e-12 </wgt>
<wgt id='1506'> +1.2562299e-12 </wgt>
<wgt id='1507'> +1.2581620e-12 </wgt>
<wgt id='1508'> +1.2620369e-12 </wgt>
<wgt id='1509'> +1.2904268e-12 </wgt>
<wgt id='1510'> +1.2892901e-12 </wgt>
<wgt id='1511'> +1.2933420e-12 </wgt>
<wgt id='1512'> +1.2908540e-12 </wgt>
<wgt id='1513'> +1.2922182e-12 </wgt>
<wgt id='1514'> +1.2919886e-12 </wgt>
<wgt id='1515'> +1.2902913e-12 </wgt>
<wgt id='1516'> +1.2930359e-12 </wgt>
<wgt id='1517'> +1.2958043e-12 </wgt>
<wgt id='1518'> +1.2917390e-12 </wgt>
<wgt id='1519'> +1.2835482e-12 </wgt>
<wgt id='1520'> +1.2941914e-12 </wgt>
<wgt id='1521'> +1.2960681e-12 </wgt>
<wgt id='1522'> +1.2906787e-12 </wgt>
<wgt id='1523'> +1.2961923e-12 </wgt>
<wgt id='1524'> +1.2929796e-12 </wgt>
<wgt id='1525'> +1.2961243e-12 </wgt>
<wgt id='1526'> +1.2873922e-12 </wgt>
<wgt id='1527'> +1.2863475e-12 </wgt>
<wgt id='1528'> +1.2923118e-12 </wgt>
<wgt id='1529'> +1.2900870e-12 </wgt>
<wgt id='1530'> +1.2965927e-12 </wgt>
<wgt id='1531'> +1.2923084e-12 </wgt>
<wgt id='1532'> +1.2855084e-12 </wgt>
<wgt id='1533'> +1.2900731e-12 </wgt>
<wgt id='1534'> +1.2941038e-12 </wgt>
<wgt id='1535'> +1.2814472e-12 </wgt>
<wgt id='1536'> +1.2874968e-12 </wgt>
<wgt id='1537'> +1.2881114e-12 </wgt>
<wgt id='1538'> +1.2919533e-12 </wgt>
<wgt id='1539'> +1.2992809e-12 </wgt>
<wgt id='1540'> +1.2921389e-12 </wgt>
<wgt id='1541'> +1.2912081e-12 </wgt>
<wgt id='1542'> +1.2885634e-12 </wgt>
<wgt id='1543'> +1.2898872e-12 </wgt>
<wgt id='1544'> +1.2898786e-12 </wgt>
<wgt id='1545'> +1.2903140e-12 </wgt>
<wgt id='1546'> +1.2881357e-12 </wgt>
<wgt id='1547'> +1.2907420e-12 </wgt>
<wgt id='1548'> +1.2898482e-12 </wgt>
<wgt id='1549'> +1.2896530e-12 </wgt>
<wgt id='1550'> +1.2921448e-12 </wgt>
<wgt id='1551'> +1.2927491e-12 </wgt>
<wgt id='1552'> +1.2907449e-12 </wgt>
<wgt id='1553'> +1.2908442e-12 </wgt>
<wgt id='1554'> +1.2934362e-12 </wgt>
<wgt id='1555'> +1.2923823e-12 </wgt>
<wgt id='1556'> +1.2902946e-12 </wgt>
<wgt id='1557'> +1.2921336e-12 </wgt>
<wgt id='1558'> +1.2899744e-12 </wgt>
<wgt id='1559'> +1.2904930e-12 </wgt>
<wgt id='1560'> +1.2927421e-12 </wgt>
<wgt id='1561'> +1.2889495e-12 </wgt>
<wgt id='1562'> +1.2893515e-12 </wgt>
<wgt id='1563'> +1.2910202e-12 </wgt>
<wgt id='1564'> +1.2884035e-12 </wgt>
<wgt id='1565'> +1.2913412e-12 </wgt>
<wgt id='1566'> +1.2902509e-12 </wgt>
<wgt id='1567'> +1.2915209e-12 </wgt>
<wgt id='1568'> +1.2897485e-12 </wgt>
<wgt id='1569'> +1.2900470e-12 </wgt>
<wgt id='1570'> +1.2894112e-12 </wgt>
<wgt id='1571'> +1.2906090e-12 </wgt>
<wgt id='1572'> +1.2888616e-12 </wgt>
<wgt id='1573'> +1.2887749e-12 </wgt>
<wgt id='1574'> +1.2903511e-12 </wgt>
<wgt id='1575'> +1.2913502e-12 </wgt>
<wgt id='1576'> +1.2905082e-12 </wgt>
<wgt id='1577'> +1.2900488e-12 </wgt>
<wgt id='1578'> +1.2900347e-12 </wgt>
<wgt id='1579'> +1.2900992e-12 </wgt>
<wgt id='1580'> +1.2911502e-12 </wgt>
<wgt id='1581'> +1.2910324e-12 </wgt>
<wgt id='1582'> +1.2896471e-12 </wgt>
<wgt id='1583'> +1.2908491e-12 </wgt>
<wgt id='1584'> +1.2909854e-12 </wgt>
<wgt id='1585'> +1.2898389e-12 </wgt>
<wgt id='1586'> +1.2904178e-12 </wgt>
<wgt id='1587'> +1.2913249e-12 </wgt>
<wgt id='1588'> +1.2903984e-12 </wgt>
<wgt id='1589'> +1.2914074e-12 </wgt>
<wgt id='1590'> +1.2906180e-12 </wgt>
<wgt id='1591'> +1.2912332e-12 </wgt>
<wgt id='1592'> +1.2894562e-12 </wgt>
<wgt id='1593'> +1.2905525e-12 </wgt>
<wgt id='1594'> +1.2908595e-12 </wgt>
<wgt id='1595'> +1.2908769e-12 </wgt>
<wgt id='1596'> +1.2912625e-12 </wgt>
<wgt id='1597'> +1.2895995e-12 </wgt>
<wgt id='1598'> +1.2902759e-12 </wgt>
<wgt id='1599'> +1.2912247e-12 </wgt>
<wgt id='1600'> +1.2903007e-12 </wgt>
<wgt id='1601'> +1.2905187e-12 </wgt>
<wgt id='1602'> +1.2902039e-12 </wgt>
<wgt id='1603'> +1.2908150e-12 </wgt>
<wgt id='1604'> +1.2908110e-12 </wgt>
<wgt id='1605'> +1.2907012e-12 </wgt>
<wgt id='1606'> +1.2898934e-12 </wgt>
<wgt id='1607'> +1.2906710e-12 </wgt>
<wgt id='1608'> +1.2902869e-12 </wgt>
<wgt id='1609'> +1.2900632e-12 </wgt>
<wgt id='1610'> +1.2814868e-12 </wgt>
<wgt id='1611'> +1.2986730e-12 </wgt>
<wgt id='1612'> +1.5210515e-12 </wgt>
<wgt id='1613'> +1.4983437e-12 </wgt>
<wgt id='1614'> +1.5300723e-12 </wgt>
<wgt id='1615'> +1.5131930e-12 </wgt>
<wgt id='1616'> +1.5344141e-12 </wgt>
<wgt id='1617'> +1.5372795e-12 </wgt>
<wgt id='1618'> +1.5548390e-12 </wgt>
<wgt id='1619'> +1.5097158e-12 </wgt>
<wgt id='1620'> +1.4608284e-12 </wgt>
<wgt id='1621'> +1.5434440e-12 </wgt>
<wgt id='1622'> +1.5323615e-12 </wgt>
<wgt id='1623'> +1.5018870e-12 </wgt>
<wgt id='1624'> +1.4981630e-12 </wgt>
<wgt id='1625'> +1.5120109e-12 </wgt>
<wgt id='1626'> +1.4976130e-12 </wgt>
<wgt id='1627'> +1.5114283e-12 </wgt>
<wgt id='1628'> +1.5420601e-12 </wgt>
<wgt id='1629'> +1.5836160e-12 </wgt>
<wgt id='1630'> +1.5073432e-12 </wgt>
<wgt id='1631'> +1.5159752e-12 </wgt>
<wgt id='1632'> +1.4496315e-12 </wgt>
<wgt id='1633'> +1.4873219e-12 </wgt>
<wgt id='1634'> +1.5846270e-12 </wgt>
<wgt id='1635'> +1.5344174e-12 </wgt>
<wgt id='1636'> +1.5608019e-12 </wgt>
<wgt id='1637'> +1.5031461e-12 </wgt>
<wgt id='1638'> +1.5594247e-12 </wgt>
<wgt id='1639'> +1.4914345e-12 </wgt>
<wgt id='1640'> +1.5446407e-12 </wgt>
<wgt id='1641'> +1.5047666e-12 </wgt>
<wgt id='1642'> +1.5346226e-12 </wgt>
<wgt id='1643'> +1.5400665e-12 </wgt>
<wgt id='1644'> +1.5041559e-12 </wgt>
<wgt id='1645'> +1.5438849e-12 </wgt>
<wgt id='1646'> +1.4964095e-12 </wgt>
<wgt id='1647'> +1.4929600e-12 </wgt>
<wgt id='1648'> +1.5586535e-12 </wgt>
<wgt id='1649'> +1.5528712e-12 </wgt>
<wgt id='1650'> +1.5065996e-12 </wgt>
<wgt id='1651'> +1.4751187e-12 </wgt>
<wgt id='1652'> +1.4841748e-12 </wgt>
<wgt id='1653'> +1.5468264e-12 </wgt>
<wgt id='1654'> +1.5338586e-12 </wgt>
<wgt id='1655'> +1.4916467e-12 </wgt>
<wgt id='1656'> +1.4824965e-12 </wgt>
<wgt id='1657'> +1.4876827e-12 </wgt>
<wgt id='1658'> +1.4987546e-12 </wgt>
<wgt id='1659'> +1.4981630e-12 </wgt>
<wgt id='1660'> +1.5402676e-12 </wgt>
<wgt id='1661'> +1.5294799e-12 </wgt>
<wgt id='1662'> +1.5204349e-12 </wgt>
<wgt id='1663'> +1.5123647e-12 </wgt>
<wgt id='1664'> +1.5231926e-12 </wgt>
<wgt id='1665'> +1.5156638e-12 </wgt>
<wgt id='1666'> +1.5183781e-12 </wgt>
<wgt id='1667'> +1.4771125e-12 </wgt>
<wgt id='1668'> +1.5324462e-12 </wgt>
<wgt id='1669'> +1.5246520e-12 </wgt>
<wgt id='1670'> +1.5400184e-12 </wgt>
<wgt id='1671'> +1.5239020e-12 </wgt>
<wgt id='1672'> +1.5613188e-12 </wgt>
<wgt id='1673'> +1.4906251e-12 </wgt>
<wgt id='1674'> +1.4797778e-12 </wgt>
<wgt id='1675'> +1.5697862e-12 </wgt>
<wgt id='1676'> +1.5585162e-12 </wgt>
<wgt id='1677'> +1.5945631e-12 </wgt>
<wgt id='1678'> +1.5041974e-12 </wgt>
<wgt id='1679'> +1.5163286e-12 </wgt>
<wgt id='1680'> +1.5406853e-12 </wgt>
<wgt id='1681'> +1.5326759e-12 </wgt>
<wgt id='1682'> +1.5361594e-12 </wgt>
<wgt id='1683'> +1.4743900e-12 </wgt>
<wgt id='1684'> +1.5001347e-12 </wgt>
<wgt id='1685'> +1.5093473e-12 </wgt>
<wgt id='1686'> +1.5334539e-12 </wgt>
<wgt id='1687'> +1.5475834e-12 </wgt>
<wgt id='1688'> +1.5300279e-12 </wgt>
<wgt id='1689'> +1.5092639e-12 </wgt>
<wgt id='1690'> +1.5644494e-12 </wgt>
<wgt id='1691'> +1.5635029e-12 </wgt>
<wgt id='1692'> +1.5510720e-12 </wgt>
<wgt id='1693'> +1.5476421e-12 </wgt>
<wgt id='1694'> +1.5133073e-12 </wgt>
<wgt id='1695'> +1.5735983e-12 </wgt>
<wgt id='1696'> +1.5607282e-12 </wgt>
<wgt id='1697'> +1.5103991e-12 </wgt>
<wgt id='1698'> +1.5068486e-12 </wgt>
<wgt id='1699'> +1.5257705e-12 </wgt>
<wgt id='1700'> +1.5166101e-12 </wgt>
<wgt id='1701'> +1.4960732e-12 </wgt>
<wgt id='1702'> +1.5058567e-12 </wgt>
<wgt id='1703'> +1.5608980e-12 </wgt>
<wgt id='1704'> +1.5036426e-12 </wgt>
<wgt id='1705'> +1.4680938e-12 </wgt>
<wgt id='1706'> +1.5330050e-12 </wgt>
<wgt id='1707'> +1.4874988e-12 </wgt>
<wgt id='1708'> +1.4865933e-12 </wgt>
<wgt id='1709'> +1.5098145e-12 </wgt>
<wgt id='1710'> +1.4774872e-12 </wgt>
<wgt id='1711'> +1.5374918e-12 </wgt>
<wgt id='1712'> +1.5254653e-12 </wgt>
<wgt id='1713'> +1.2179556e-12 </wgt>
<wgt id='1714'> +1.1804054e-12 </wgt>
<wgt id='1715'> +1.2314749e-12 </wgt>
<wgt id='1716'> +1.2253282e-12 </wgt>
<wgt id='1717'> +1.2074021e-12 </wgt>
<wgt id='1718'> +1.2309878e-12 </wgt>
<wgt id='1719'> +1.2204789e-12 </wgt>
<wgt id='1720'> +1.2350211e-12 </wgt>
<wgt id='1721'> +1.1789665e-12 </wgt>
<wgt id='1722'> +1.2008690e-12 </wgt>
<wgt id='1723'> +1.1943716e-12 </wgt>
<wgt id='1724'> +1.2702654e-12 </wgt>
<wgt id='1725'> +1.2164807e-12 </wgt>
<wgt id='1726'> +1.2594899e-12 </wgt>
<wgt id='1727'> +1.2223028e-12 </wgt>
<wgt id='1728'> +1.2199116e-12 </wgt>
<wgt id='1729'> +1.2019526e-12 </wgt>
<wgt id='1730'> +1.2049394e-12 </wgt>
<wgt id='1731'> +1.1694549e-12 </wgt>
<wgt id='1732'> +1.2312108e-12 </wgt>
<wgt id='1733'> +1.2258235e-12 </wgt>
<wgt id='1734'> +1.2377174e-12 </wgt>
<wgt id='1735'> +1.2166940e-12 </wgt>
<wgt id='1736'> +1.2703970e-12 </wgt>
<wgt id='1737'> +1.2539769e-12 </wgt>
<wgt id='1738'> +1.2424532e-12 </wgt>
<wgt id='1739'> +1.1717323e-12 </wgt>
<wgt id='1740'> +1.2034951e-12 </wgt>
<wgt id='1741'> +1.2373781e-12 </wgt>
<wgt id='1742'> +1.2211654e-12 </wgt>
<wgt id='1743'> +1.2282325e-12 </wgt>
<wgt id='1744'> +1.2503449e-12 </wgt>
<wgt id='1745'> +1.1721636e-12 </wgt>
<wgt id='1746'> +1.2224307e-12 </wgt>
<wgt id='1747'> +1.2225827e-12 </wgt>
<wgt id='1748'> +1.2156592e-12 </wgt>
<wgt id='1749'> +1.2191930e-12 </wgt>
<wgt id='1750'> +1.2343445e-12 </wgt>
<wgt id='1751'> +1.1844558e-12 </wgt>
<wgt id='1752'> +1.2044600e-12 </wgt>
<wgt id='1753'> +1.2344727e-12 </wgt>
<wgt id='1754'> +1.2256256e-12 </wgt>
<wgt id='1755'> +1.2497580e-12 </wgt>
<wgt id='1756'> +1.2388167e-12 </wgt>
<wgt id='1757'> +1.2016637e-12 </wgt>
<wgt id='1758'> +1.2330151e-12 </wgt>
<wgt id='1759'> +1.2296201e-12 </wgt>
<wgt id='1760'> +1.1838287e-12 </wgt>
<wgt id='1761'> +1.1977767e-12 </wgt>
<wgt id='1762'> +1.2033833e-12 </wgt>
<wgt id='1763'> +1.2361675e-12 </wgt>
<wgt id='1764'> +1.2080229e-12 </wgt>
<wgt id='1765'> +1.2152292e-12 </wgt>
<wgt id='1766'> +1.2064394e-12 </wgt>
<wgt id='1767'> +1.2223252e-12 </wgt>
<wgt id='1768'> +1.2208784e-12 </wgt>
<wgt id='1769'> +1.1958671e-12 </wgt>
<wgt id='1770'> +1.2032734e-12 </wgt>
<wgt id='1771'> +1.2303367e-12 </wgt>
<wgt id='1772'> +1.2454033e-12 </wgt>
<wgt id='1773'> +1.2053407e-12 </wgt>
<wgt id='1774'> +1.2071257e-12 </wgt>
<wgt id='1775'> +1.2327852e-12 </wgt>
<wgt id='1776'> +1.2420328e-12 </wgt>
<wgt id='1777'> +1.1645602e-12 </wgt>
<wgt id='1778'> +1.1997779e-12 </wgt>
<wgt id='1779'> +1.2517728e-12 </wgt>
<wgt id='1780'> +1.2002904e-12 </wgt>
<wgt id='1781'> +1.2170162e-12 </wgt>
<wgt id='1782'> +1.1975767e-12 </wgt>
<wgt id='1783'> +1.2164755e-12 </wgt>
<wgt id='1784'> +1.2224555e-12 </wgt>
<wgt id='1785'> +1.2110042e-12 </wgt>
<wgt id='1786'> +1.1639389e-12 </wgt>
<wgt id='1787'> +1.2551428e-12 </wgt>
<wgt id='1788'> +1.2337425e-12 </wgt>
<wgt id='1789'> +1.2226599e-12 </wgt>
<wgt id='1790'> +1.2484344e-12 </wgt>
<wgt id='1791'> +1.2268587e-12 </wgt>
<wgt id='1792'> +1.1989601e-12 </wgt>
<wgt id='1793'> +1.2196723e-12 </wgt>
<wgt id='1794'> +1.2293074e-12 </wgt>
<wgt id='1795'> +1.2233457e-12 </wgt>
<wgt id='1796'> +1.2046659e-12 </wgt>
<wgt id='1797'> +1.2210895e-12 </wgt>
<wgt id='1798'> +1.2219463e-12 </wgt>
<wgt id='1799'> +1.2313897e-12 </wgt>
<wgt id='1800'> +1.2191963e-12 </wgt>
<wgt id='1801'> +1.2104777e-12 </wgt>
<wgt id='1802'> +1.2111998e-12 </wgt>
<wgt id='1803'> +1.2399477e-12 </wgt>
<wgt id='1804'> +1.2025017e-12 </wgt>
<wgt id='1805'> +1.2041709e-12 </wgt>
<wgt id='1806'> +1.2025950e-12 </wgt>
<wgt id='1807'> +1.2422946e-12 </wgt>
<wgt id='1808'> +1.2094759e-12 </wgt>
<wgt id='1809'> +1.1993644e-12 </wgt>
<wgt id='1810'> +1.2033360e-12 </wgt>
<wgt id='1811'> +1.2387995e-12 </wgt>
<wgt id='1812'> +1.2158761e-12 </wgt>
<wgt id='1813'> +1.2127941e-12 </wgt>
<wgt id='1814'> +1.4271160e-12 </wgt>
<wgt id='1815'> +1.6335696e-12 </wgt>
<wgt id='1816'> +1.2179556e-12 </wgt>
<wgt id='1817'> +1.1804054e-12 </wgt>
<wgt id='1818'> +1.2314749e-12 </wgt>
<wgt id='1819'> +1.2253282e-12 </wgt>
<wgt id='1820'> +1.2074021e-12 </wgt>
<wgt id='1821'> +1.2309878e-12 </wgt>
<wgt id='1822'> +1.2204789e-12 </wgt>
<wgt id='1823'> +1.2350211e-12 </wgt>
<wgt id='1824'> +1.1789665e-12 </wgt>
<wgt id='1825'> +1.2008690e-12 </wgt>
<wgt id='1826'> +1.1943716e-12 </wgt>
<wgt id='1827'> +1.2702654e-12 </wgt>
<wgt id='1828'> +1.2164807e-12 </wgt>
<wgt id='1829'> +1.2594899e-12 </wgt>
<wgt id='1830'> +1.2223028e-12 </wgt>
<wgt id='1831'> +1.2199116e-12 </wgt>
<wgt id='1832'> +1.2019526e-12 </wgt>
<wgt id='1833'> +1.2049394e-12 </wgt>
<wgt id='1834'> +1.1694549e-12 </wgt>
<wgt id='1835'> +1.2312108e-12 </wgt>
<wgt id='1836'> +1.2258235e-12 </wgt>
<wgt id='1837'> +1.2377174e-12 </wgt>
<wgt id='1838'> +1.2166940e-12 </wgt>
<wgt id='1839'> +1.2703970e-12 </wgt>
<wgt id='1840'> +1.2539769e-12 </wgt>
<wgt id='1841'> +1.2424532e-12 </wgt>
<wgt id='1842'> +1.1717323e-12 </wgt>
<wgt id='1843'> +1.2034951e-12 </wgt>
<wgt id='1844'> +1.2373781e-12 </wgt>
<wgt id='1845'> +1.2211654e-12 </wgt>
<wgt id='1846'> +1.2282325e-12 </wgt>
<wgt id='1847'> +1.2503449e-12 </wgt>
<wgt id='1848'> +1.1721636e-12 </wgt>
<wgt id='1849'> +1.2224307e-12 </wgt>
<wgt id='1850'> +1.2225827e-12 </wgt>
<wgt id='1851'> +1.2156592e-12 </wgt>
<wgt id='1852'> +1.2191930e-12 </wgt>
<wgt id='1853'> +1.2343445e-12 </wgt>
<wgt id='1854'> +1.1844558e-12 </wgt>
<wgt id='1855'> +1.2044600e-12 </wgt>
<wgt id='1856'> +1.2344727e-12 </wgt>
<wgt id='1857'> +1.2256256e-12 </wgt>
<wgt id='1858'> +1.2497580e-12 </wgt>
<wgt id='1859'> +1.2388167e-12 </wgt>
<wgt id='1860'> +1.2016637e-12 </wgt>
<wgt id='1861'> +1.2330151e-12 </wgt>
<wgt id='1862'> +1.2296201e-12 </wgt>
<wgt id='1863'> +1.1838287e-12 </wgt>
<wgt id='1864'> +1.1977767e-12 </wgt>
<wgt id='1865'> +1.2033833e-12 </wgt>
<wgt id='1866'> +1.2361675e-12 </wgt>
<wgt id='1867'> +1.2080229e-12 </wgt>
<wgt id='1868'> +1.2152292e-12 </wgt>
<wgt id='1869'> +1.2064394e-12 </wgt>
<wgt id='1870'> +1.2223252e-12 </wgt>
<wgt id='1871'> +1.2208784e-12 </wgt>
<wgt id='1872'> +1.1958671e-12 </wgt>
<wgt id='1873'> +1.2032734e-12 </wgt>
<wgt id='1874'> +1.2303367e-12 </wgt>
<wgt id='1875'> +1.2454033e-12 </wgt>
<wgt id='1876'> +1.2053407e-12 </wgt>
<wgt id='1877'> +1.2071257e-12 </wgt>
<wgt id='1878'> +1.2327852e-12 </wgt>
<wgt id='1879'> +1.2420328e-12 </wgt>
<wgt id='1880'> +1.1645602e-12 </wgt>
<wgt id='1881'> +1.1997779e-12 </wgt>
<wgt id='1882'> +1.2517728e-12 </wgt>
<wgt id='1883'> +1.2002904e-12 </wgt>
<wgt id='1884'> +1.2170162e-12 </wgt>
<wgt id='1885'> +1.1975767e-12 </wgt>
<wgt id='1886'> +1.2164755e-12 </wgt>
<wgt id='1887'> +1.2224555e-12 </wgt>
<wgt id='1888'> +1.2110042e-12 </wgt>
<wgt id='1889'> +1.1639389e-12 </wgt>
<wgt id='1890'> +1.2551428e-12 </wgt>
<wgt id='1891'> +1.2337425e-12 </wgt>
<wgt id='1892'> +1.2226599e-12 </wgt>
<wgt id='1893'> +1.2484344e-12 </wgt>
<wgt id='1894'> +1.2268587e-12 </wgt>
<wgt id='1895'> +1.1989601e-12 </wgt>
<wgt id='1896'> +1.2196723e-12 </wgt>
<wgt id='1897'> +1.2293074e-12 </wgt>
<wgt id='1898'> +1.2233457e-12 </wgt>
<wgt id='1899'> +1.2046659e-12 </wgt>
<wgt id='1900'> +1.2210895e-12 </wgt>
<wgt id='1901'> +1.2219463e-12 </wgt>
<wgt id='1902'> +1.2313897e-12 </wgt>
<wgt id='1903'> +1.2191963e-12 </wgt>
<wgt id='1904'> +1.2104777e-12 </wgt>
<wgt id='1905'> +1.2111998e-12 </wgt>
<wgt id='1906'> +1.2399477e-12 </wgt>
<wgt id='1907'> +1.2025017e-12 </wgt>
<wgt id='1908'> +1.2041709e-12 </wgt>
<wgt id='1909'> +1.2025950e-12 </wgt>
<wgt id='1910'> +1.2422946e-12 </wgt>
<wgt id='1911'> +1.2094759e-12 </wgt>
<wgt id='1912'> +1.1993644e-12 </wgt>
<wgt id='1913'> +1.2033360e-12 </wgt>
<wgt id='1914'> +1.2387995e-12 </wgt>
<wgt id='1915'> +1.2158761e-12 </wgt>
<wgt id='1916'> +1.2127941e-12 </wgt>
<wgt id='1917'> +1.2085936e-12 </wgt>
<wgt id='1918'> +1.2222891e-12 </wgt>
<wgt id='1919'> +1.2408099e-12 </wgt>
</rwgt>
</event>
<event>
 9      1 +1.5607000e-12 2.69416300e+01 7.81860800e-03 1.48269500e-01
       -2 -1    0    0    0  501 -0.0000000000e+00 +0.0000000000e+00 +8.7177522949e+01 8.7177522949e+01 0.0000000000e+00 0.0000e+00 -1.0000e+00
       21 -1    0    0  501  502 +0.0000000000e+00 -0.0000000000e+00 -1.9588018734e+01 1.9588018734e+01 0.0000000000e+00 0.0000e+00 -1.0000e+00
     1023  2    1    2    0    0 -5.3480637868e+00 -2.1731576643e+01 +7.7677454950e+01 8.2217019127e+01 1.4999600565e+01 0.0000e+00 0.0000e+00
  1000023  2    3    3    0    0 +1.1366828922e+00 -1.5685601928e+01 +4.4674061567e+01 4.7679652052e+01 5.4997533635e+00 0.0000e+00 0.0000e+00
       -2  1    1    2    0  502 +5.3480637868e+00 +2.1731576643e+01 -1.0087950734e+01 2.4548522556e+01 0.0000000000e+00 0.0000e+00 -1.0000e+00
  1000022  1    4    4    0    0 +1.0271106476e+00 -1.3262425956e+01 +3.8792381189e+01 4.1313384476e+01 5.0000000000e+00 0.0000e+00 -1.0000e+00
      -11  1    4    4    0    0 +1.7089262364e-01 -1.4278468027e+00 +3.3842994313e+00 3.6771502121e+00 5.1100000000e-04 0.0000e+00 1.0000e+00
       11  1    4    4    0    0 -6.1320379002e-02 -9.9532916897e-01 +2.4973809470e+00 2.6891173644e+00 5.1100000000e-04 0.0000e+00 -1.0000e+00
  1000022  1    3    3    0    0 -6.4847466790e+00 -6.0459747148e+00 +3.3003393382e+01 3.4537367075e+01 5.0000000000e+00 0.0000e+00 1.0000e+00
<mgrwt>
<rscale>  1 0.26941626E+02</rscale>
<asrwt>0</asrwt>
<pdfrwt beam="1">  1       21 0.30135414E-02 0.26941626E+02</pdfrwt>
<pdfrwt beam="2">  1       -2 0.13411926E-01 0.26941626E+02</pdfrwt>
<totfact> 0.17673033E+06</totfact>
</mgrwt>
<rwgt>
<wgt id='1001'> +1.5607000e-12 </wgt>
<wgt id='1002'> +1.5955311e-12 </wgt>
<wgt id='1003'> +1.5969527e-12 </wgt>
<wgt id='1004'> +1.5519100e-12 </wgt>
<wgt id='1005'> +1.6040038e-12 </wgt>
<wgt id='1006'> +1.3615203e-12 </wgt>
<wgt id='1007'> +1.4120949e-12 </wgt>
<wgt id='1008'> +1.4147123e-12 </wgt>
<wgt id='1009'> +1.3502248e-12 </wgt>
<wgt id='1010'> +1.4361665e-12 </wgt>
<wgt id='1011'> +1.8316337e-12 </wgt>
<wgt id='1012'> +1.8361871e-12 </wgt>
<wgt id='1013'> +1.8354920e-12 </wgt>
<wgt id='1014'> +1.8280942e-12 </wgt>
<wgt id='1015'> +1.8180182e-12 </wgt>
<wgt id='1016'> +1.8335760e-12 </wgt>
<wgt id='1017'> +1.8113995e-12 </wgt>
<wgt id='1018'> +1.8091310e-12 </wgt>
<wgt id='1019'> +1.8354920e-12 </wgt>
<wgt id='1020'> +1.7765932e-12 </wgt>
<wgt id='1021'> +1.5995714e-12 </wgt>
<wgt id='1022'> +1.6031452e-12 </wgt>
<wgt id='1023'> +1.6026773e-12 </wgt>
<wgt id='1024'> +1.5969527e-12 </wgt>
<wgt id='1025'> +1.5906967e-12 </wgt>
<wgt id='1026'> +2.1518804e-12 </wgt>
<wgt id='1027'> +2.0846152e-12 </wgt>
<wgt id='1028'> +2.0793637e-12 </wgt>
<wgt id='1029'> +2.1621436e-12 </wgt>
<wgt id='1030'> +2.0136352e-12 </wgt>
<wgt id='1031'> +1.2467094e-12 </wgt>
<wgt id='1032'> +1.3447162e-12 </wgt>
<wgt id='1033'> +1.3502248e-12 </wgt>
<wgt id='1034'> +1.2259708e-12 </wgt>
<wgt id='1035'> +1.4029432e-12 </wgt>
<wgt id='1036'> +1.0876019e-12 </wgt>
<wgt id='1037'> +1.1901159e-12 </wgt>
<wgt id='1038'> +1.1961404e-12 </wgt>
<wgt id='1039'> +1.0666445e-12 </wgt>
<wgt id='1040'> +1.2561442e-12 </wgt>
<wgt id='1041'> +1.4631351e-12 </wgt>
<wgt id='1042'> +1.5475414e-12 </wgt>
<wgt id='1043'> +1.5519100e-12 </wgt>
<wgt id='1044'> +1.4441495e-12 </wgt>
<wgt id='1045'> +1.5901310e-12 </wgt>
<wgt id='1046'> +1.5607000e-12 </wgt>
<wgt id='1047'> +1.6921770e-12 </wgt>
<wgt id='1048'> +1.5777463e-12 </wgt>
<wgt id='1049'> +1.5358169e-12 </wgt>
<wgt id='1050'> +1.5479524e-12 </wgt>
<wgt id='1051'> +1.5053916e-12 </wgt>
<wgt id='1052'> +1.6107615e-12 </wgt>
<wgt id='1053'> +1.5715600e-12 </wgt>
<wgt id='1054'> +1.5174101e-12 </wgt>
<wgt id='1055'> +1.5068134e-12 </wgt>
<wgt id='1056'> +1.5114961e-12 </wgt>
<wgt id='1057'> +1.5720409e-12 </wgt>
<wgt id='1058'> +1.5008560e-12 </wgt>
<wgt id='1059'> +1.5507804e-12 </wgt>
<wgt id='1060'> +1.5638831e-12 </wgt>
<wgt id='1061'> +1.5673580e-12 </wgt>
<wgt id='1062'> +1.5724055e-12 </wgt>
<wgt id='1063'> +1.5748411e-12 </wgt>
<wgt id='1064'> +1.5156035e-12 </wgt>
<wgt id='1065'> +1.5725485e-12 </wgt>
<wgt id='1066'> +1.4910161e-12 </wgt>
<wgt id='1067'> +1.5344750e-12 </wgt>
<wgt id='1068'> +1.6144121e-12 </wgt>
<wgt id='1069'> +1.5831083e-12 </wgt>
<wgt id='1070'> +1.5161244e-12 </wgt>
<wgt id='1071'> +1.5491624e-12 </wgt>
<wgt id='1072'> +1.6354050e-12 </wgt>
<wgt id='1073'> +1.5921507e-12 </wgt>
<wgt id='1074'> +1.5299823e-12 </wgt>
<wgt id='1075'> +1.5561558e-12 </wgt>
<wgt id='1076'> +1.5801147e-12 </wgt>
<wgt id='1077'> +1.6190669e-12 </wgt>
<wgt id='1078'> +1.5427859e-12 </wgt>
<wgt id='1079'> +1.5919003e-12 </wgt>
<wgt id='1080'> +1.4864622e-12 </wgt>
<wgt id='1081'> +1.5788288e-12 </wgt>
<wgt id='1082'> +1.5824015e-12 </wgt>
<wgt id='1083'> +1.5741540e-12 </wgt>
<wgt id='1084'> +1.5410528e-12 </wgt>
<wgt id='1085'> +1.5422570e-12 </wgt>
<wgt id='1086'> +1.6089855e-12 </wgt>
<wgt id='1087'> +1.5731156e-12 </wgt>
<wgt id='1088'> +1.5745201e-12 </wgt>
<wgt id='1089'> +1.5836135e-12 </wgt>
<wgt id='1090'> +1.5738594e-12 </wgt>
<wgt id='1091'> +1.5876134e-12 </wgt>
<wgt id='1092'> +1.6163354e-12 </wgt>
<wgt id='1093'> +1.5747595e-12 </wgt>
<wgt id='1094'> +1.5628047e-12 </wgt>
<wgt id='1095'> +1.5794809e-12 </wgt>
<wgt id='1096'> +1.5367623e-12 </wgt>
<wgt id='1097'> +1.5018394e-12 </wgt>
<wgt id='1098'> +1.5490668e-12 </wgt>
<wgt id='1099'> +1.5406013e-12 </wgt>
<wgt id='1100'> +1.5750031e-12 </wgt>
<wgt id='1101'> +1.6076362e-12 </wgt>
<wgt id='1102'> +1.5541767e-12 </wgt>
<wgt id='1103'> +1.6012548e-12 </wgt>
<wgt id='1104'> +1.5596282e-12 </wgt>
<wgt id='1105'> +1.5675925e-12 </wgt>
<wgt id='1106'> +1.6078246e-12 </wgt>
<wgt id='1107'> +1.5873275e-12 </wgt>
<wgt id='1108'> +1.5491806e-12 </wgt>
<wgt id='1109'> +1.5540155e-12 </wgt>
<wgt id='1110'> +1.5048860e-12 </wgt>
<wgt id='1111'> +1.6023516e-12 </wgt>
<wgt id='1112'> +1.6109934e-12 </wgt>
<wgt id='1113'> +1.5568338e-12 </wgt>
<wgt id='1114'> +1.6044026e-12 </wgt>
<wgt id='1115'> +1.5765569e-12 </wgt>
<wgt id='1116'> +1.5353259e-12 </wgt>
<wgt id='1117'> +1.5244555e-12 </wgt>
<wgt id='1118'> +1.5540590e-12 </wgt>
<wgt id='1119'> +1.4998612e-12 </wgt>
<wgt id='1120'> +1.5080328e-12 </wgt>
<wgt id='1121'> +1.5288519e-12 </wgt>
<wgt id='1122'> +1.6229670e-12 </wgt>
<wgt id='1123'> +1.5246108e-12 </wgt>
<wgt id='1124'> +1.5459583e-12 </wgt>
<wgt id='1125'> +1.5537804e-12 </wgt>
<wgt id='1126'> +1.5654763e-12 </wgt>
<wgt id='1127'> +1.5574085e-12 </wgt>
<wgt id='1128'> +1.5724055e-12 </wgt>
<wgt id='1129'> +1.5737293e-12 </wgt>
<wgt id='1130'> +1.5381466e-12 </wgt>
<wgt id='1131'> +1.5707819e-12 </wgt>
<wgt id='1132'> +1.5819087e-12 </wgt>
<wgt id='1133'> +1.4785153e-12 </wgt>
<wgt id='1134'> +1.5806852e-12 </wgt>
<wgt id='1135'> +1.5048916e-12 </wgt>
<wgt id='1136'> +1.5273562e-12 </wgt>
<wgt id='1137'> +1.5367282e-12 </wgt>
<wgt id='1138'> +1.5005163e-12 </wgt>
<wgt id='1139'> +1.5375392e-12 </wgt>
<wgt id='1140'> +1.5348487e-12 </wgt>
<wgt id='1141'> +1.5653661e-12 </wgt>
<wgt id='1142'> +1.5765519e-12 </wgt>
<wgt id='1143'> +1.6048579e-12 </wgt>
<wgt id='1144'> +1.5942478e-12 </wgt>
<wgt id='1145'> +1.5905615e-12 </wgt>
<wgt id='1146'> +1.5791434e-12 </wgt>
<wgt id='1147'> +1.2178990e-12 </wgt>
<wgt id='1148'> +1.2440303e-12 </wgt>
<wgt id='1149'> +1.2616701e-12 </wgt>
<wgt id='1150'> +1.2565302e-12 </wgt>
<wgt id='1151'> +1.2870212e-12 </wgt>
<wgt id='1152'> +1.6146694e-12 </wgt>
<wgt id='1153'> +1.6056369e-12 </wgt>
<wgt id='1154'> +1.6199432e-12 </wgt>
<wgt id='1155'> +1.6123717e-12 </wgt>
<wgt id='1156'> +1.6158303e-12 </wgt>
<wgt id='1157'> +1.6204156e-12 </wgt>
<wgt id='1158'> +1.6068363e-12 </wgt>
<wgt id='1159'> +1.6195952e-12 </wgt>
<wgt id='1160'> +1.6115412e-12 </wgt>
<wgt id='1161'> +1.6125731e-12 </wgt>
<wgt id='1162'> +1.6160563e-12 </wgt>
<wgt id='1163'> +1.6187704e-12 </wgt>
<wgt id='1164'> +1.6106002e-12 </wgt>
<wgt id='1165'> +1.6064738e-12 </wgt>
<wgt id='1166'> +1.6225832e-12 </wgt>
<wgt id='1167'> +1.6196593e-12 </wgt>
<wgt id='1168'> +1.6066412e-12 </wgt>
<wgt id='1169'> +1.6163701e-12 </wgt>
<wgt id='1170'> +1.6133900e-12 </wgt>
<wgt id='1171'> +1.6067766e-12 </wgt>
<wgt id='1172'> +1.6239740e-12 </wgt>
<wgt id='1173'> +1.5999829e-12 </wgt>
<wgt id='1174'> +1.6281811e-12 </wgt>
<wgt id='1175'> +1.6160404e-12 </wgt>
<wgt id='1176'> +1.6125136e-12 </wgt>
<wgt id='1177'> +1.6163165e-12 </wgt>
<wgt id='1178'> +1.6098687e-12 </wgt>
<wgt id='1179'> +1.6195089e-12 </wgt>
<wgt id='1180'> +1.6020287e-12 </wgt>
<wgt id='1181'> +1.6092510e-12 </wgt>
<wgt id='1182'> +1.6197804e-12 </wgt>
<wgt id='1183'> +1.6127090e-12 </wgt>
<wgt id='1184'> +1.6147857e-12 </wgt>
<wgt id='1185'> +1.6055973e-12 </wgt>
<wgt id='1186'> +1.6201710e-12 </wgt>
<wgt id='1187'> +1.6143914e-12 </wgt>
<wgt id='1188'> +1.6147650e-12 </wgt>
<wgt id='1189'> +1.6105063e-12 </wgt>
<wgt id='1190'> +1.6036249e-12 </wgt>
<wgt id='1191'> +1.6077618e-12 </wgt>
<wgt id='1192'> +1.6162662e-12 </wgt>
<wgt id='1193'> +1.2829062e-12 </wgt>
<wgt id='1194'> +1.2821258e-12 </wgt>
<wgt id='1195'> +1.2834394e-12 </wgt>
<wgt id='1196'> +1.2911606e-12 </wgt>
<wgt id='1197'> +1.2736147e-12 </wgt>
<wgt id='1198'> +1.2818634e-12 </wgt>
<wgt id='1199'> +1.2844210e-12 </wgt>
<wgt id='1200'> +1.2839873e-12 </wgt>
<wgt id='1201'> +1.2821514e-12 </wgt>
<wgt id='1202'> +1.2818111e-12 </wgt>
<wgt id='1203'> +1.2844110e-12 </wgt>
<wgt id='1204'> +1.2761589e-12 </wgt>
<wgt id='1205'> +1.2869847e-12 </wgt>
<wgt id='1206'> +1.2868306e-12 </wgt>
<wgt id='1207'> +1.2775880e-12 </wgt>
<wgt id='1208'> +1.2747582e-12 </wgt>
<wgt id='1209'> +1.2858548e-12 </wgt>
<wgt id='1210'> +1.2878173e-12 </wgt>
<wgt id='1211'> +1.2693643e-12 </wgt>
<wgt id='1212'> +1.2835759e-12 </wgt>
<wgt id='1213'> +1.2821089e-12 </wgt>
<wgt id='1214'> +1.2646602e-12 </wgt>
<wgt id='1215'> +1.3133884e-12 </wgt>
<wgt id='1216'> +1.2877634e-12 </wgt>
<wgt id='1217'> +1.2788848e-12 </wgt>
<wgt id='1218'> +1.2878586e-12 </wgt>
<wgt id='1219'> +1.2802325e-12 </wgt>
<wgt id='1220'> +1.2888170e-12 </wgt>
<wgt id='1221'> +1.2804431e-12 </wgt>
<wgt id='1222'> +1.2866213e-12 </wgt>
<wgt id='1223'> +1.2742843e-12 </wgt>
<wgt id='1224'> +1.2845325e-12 </wgt>
<wgt id='1225'> +1.2822383e-12 </wgt>
<wgt id='1226'> +1.2781059e-12 </wgt>
<wgt id='1227'> +1.2861165e-12 </wgt>
<wgt id='1228'> +1.2843959e-12 </wgt>
<wgt id='1229'> +1.2812141e-12 </wgt>
<wgt id='1230'> +1.2770912e-12 </wgt>
<wgt id='1231'> +1.2765234e-12 </wgt>
<wgt id='1232'> +1.2852969e-12 </wgt>
<wgt id='1233'> +1.2821554e-12 </wgt>
<wgt id='1234'> +1.2829062e-12 </wgt>
<wgt id='1235'> +1.2745382e-12 </wgt>
<wgt id='1236'> +1.2777520e-12 </wgt>
<wgt id='1237'> +1.2804858e-12 </wgt>
<wgt id='1238'> +1.2852620e-12 </wgt>
<wgt id='1239'> +1.2872381e-12 </wgt>
<wgt id='1240'> +1.2890824e-12 </wgt>
<wgt id='1241'> +1.2750704e-12 </wgt>
<wgt id='1242'> +1.2702765e-12 </wgt>
<wgt id='1243'> +1.2798505e-12 </wgt>
<wgt id='1244'> +1.2670803e-12 </wgt>
<wgt id='1245'> +1.2809835e-12 </wgt>
<wgt id='1246'> +1.2744165e-12 </wgt>
<wgt id='1247'> +1.2756928e-12 </wgt>
<wgt id='1248'> +1.2750340e-12 </wgt>
<wgt id='1249'> +1.2751641e-12 </wgt>
<wgt id='1250'> +1.2791030e-12 </wgt>
<wgt id='1251'> +1.2722583e-12 </wgt>
<wgt id='1252'> +1.2720500e-12 </wgt>
<wgt id='1253'> +1.2774453e-12 </wgt>
<wgt id='1254'> +1.2681040e-12 </wgt>
<wgt id='1255'> +1.2792272e-12 </wgt>
<wgt id='1256'> +1.2791032e-12 </wgt>
<wgt id='1257'> +1.2651284e-12 </wgt>
<wgt id='1258'> +1.2987812e-12 </wgt>
<wgt id='1259'> +1.2536970e-12 </wgt>
<wgt id='1260'> +1.2790010e-12 </wgt>
<wgt id='1261'> +1.2707068e-12 </wgt>
<wgt id='1262'> +1.2728730e-12 </wgt>
<wgt id='1263'> +1.2755392e-12 </wgt>
<wgt id='1264'> +1.2794957e-12 </wgt>
<wgt id='1265'> +1.2727999e-12 </wgt>
<wgt id='1266'> +1.2646343e-12 </wgt>
<wgt id='1267'> +1.2837911e-12 </wgt>
<wgt id='1268'> +1.2773152e-12 </wgt>
<wgt id='1269'> +1.2754978e-12 </wgt>
<wgt id='1270'> +1.2673640e-12 </wgt>
<wgt id='1271'> +1.2688607e-12 </wgt>
<wgt id='1272'> +1.2729615e-12 </wgt>
<wgt id='1273'> +1.2750988e-12 </wgt>
<wgt id='1274'> +1.2779626e-12 </wgt>
<wgt id='1275'> +1.2696630e-12 </wgt>
<wgt id='1276'> +1.2716856e-12 </wgt>
<wgt id='1277'> +1.2771643e-12 </wgt>
<wgt id='1278'> +1.2725391e-12 </wgt>
<wgt id='1279'> +1.2719155e-12 </wgt>
<wgt id='1280'> +1.2742019e-12 </wgt>
<wgt id='1281'> +1.2791644e-12 </wgt>
<wgt id='1282'> +1.2750704e-12 </wgt>
<wgt id='1283'> +1.2664055e-12 </wgt>
<wgt id='1284'> +1.2697245e-12 </wgt>
<wgt id='1285'> +1.2726026e-12 </wgt>
<wgt id='1286'> +1.2775361e-12 </wgt>
<wgt id='1287'> +1.2794727e-12 </wgt>
<wgt id='1288'> +1.2810811e-12 </wgt>
<wgt id='1289'> +1.2820976e-12 </wgt>
<wgt id='1290'> +1.2790658e-12 </wgt>
<wgt id='1291'> +1.2853198e-12 </wgt>
<wgt id='1292'> +1.2754314e-12 </wgt>
<wgt id='1293'> +1.2868428e-12 </wgt>
<wgt id='1294'> +1.2758527e-12 </wgt>
<wgt id='1295'> +1.2881196e-12 </wgt>
<wgt id='1296'> +1.2800083e-12 </wgt>
<wgt id='1297'> +1.2845720e-12 </wgt>
<wgt id='1298'> +1.2839574e-12 </wgt>
<wgt id='1299'> +1.2796507e-12 </wgt>
<wgt id='1300'> +1.2836780e-12 </wgt>
<wgt id='1301'> +1.2788400e-12 </wgt>
<wgt id='1302'> +1.2798488e-12 </wgt>
<wgt id='1303'> +1.2851181e-12 </wgt>
<wgt id='1304'> +1.2799649e-12 </wgt>
<wgt id='1305'> +1.2835318e-12 </wgt>
<wgt id='1306'> +1.2799666e-12 </wgt>
<wgt id='1307'> +1.2845453e-12 </wgt>
<wgt id='1308'> +1.2805054e-12 </wgt>
<wgt id='1309'> +1.2833197e-12 </wgt>
<wgt id='1310'> +1.2852058e-12 </wgt>
<wgt id='1311'> +1.2789404e-12 </wgt>
<wgt id='1312'> +1.2823107e-12 </wgt>
<wgt id='1313'> +1.2821397e-12 </wgt>
<wgt id='1314'> +1.2797147e-12 </wgt>
<wgt id='1315'> +1.2807141e-12 </wgt>
<wgt id='1316'> +1.2876938e-12 </wgt>
<wgt id='1317'> +1.2822279e-12 </wgt>
<wgt id='1318'> +1.2938665e-12 </wgt>
<wgt id='1319'> +1.2681695e-12 </wgt>
<wgt id='1320'> +1.3022330e-12 </wgt>
<wgt id='1321'> +1.2663463e-12 </wgt>
<wgt id='1322'> +1.2796490e-12 </wgt>
<wgt id='1323'> +1.2847953e-12 </wgt>
<wgt id='1324'> +1.2820983e-12 </wgt>
<wgt id='1325'> +1.2855768e-12 </wgt>
<wgt id='1326'> +1.2803467e-12 </wgt>
<wgt id='1327'> +1.2853142e-12 </wgt>
<wgt id='1328'> +1.2819659e-12 </wgt>
<wgt id='1329'> +1.2819825e-12 </wgt>
<wgt id='1330'> +1.2651698e-12 </wgt>
<wgt id='1331'> +1.2990889e-12 </wgt>
<wgt id='1332'> +1.3059736e-12 </wgt>
<wgt id='1333'> +1.2650285e-12 </wgt>
<wgt id='1334'> +1.2752295e-12 </wgt>
<wgt id='1335'> +1.3003289e-12 </wgt>
<wgt id='1336'> +1.2780758e-12 </wgt>
<wgt id='1337'> +1.2776238e-12 </wgt>
<wgt id='1338'> +1.2775733e-12 </wgt>
<wgt id='1339'> +1.2829603e-12 </wgt>
<wgt id='1340'> +1.2647159e-12 </wgt>
<wgt id='1341'> +1.2618715e-12 </wgt>
<wgt id='1342'> +1.2678339e-12 </wgt>
<wgt id='1343'> +1.2579251e-12 </wgt>
<wgt id='1344'> +1.2693649e-12 </wgt>
<wgt id='1345'> +1.2587227e-12 </wgt>
<wgt id='1346'> +1.2704111e-12 </wgt>
<wgt id='1347'> +1.2628930e-12 </wgt>
<wgt id='1348'> +1.2667871e-12 </wgt>
<wgt id='1349'> +1.2664012e-12 </wgt>
<wgt id='1350'> +1.2631406e-12 </wgt>
<wgt id='1351'> +1.2661949e-12 </wgt>
<wgt id='1352'> +1.2615983e-12 </wgt>
<wgt id='1353'> +1.2619800e-12 </wgt>
<wgt id='1354'> +1.2697323e-12 </wgt>
<wgt id='1355'> +1.2631024e-12 </wgt>
<wgt id='1356'> +1.2656981e-12 </wgt>
<wgt id='1357'> +1.2622120e-12 </wgt>
<wgt id='1358'> +1.2678357e-12 </wgt>
<wgt id='1359'> +1.2640791e-12 </wgt>
<wgt id='1360'> +1.2653603e-12 </wgt>
<wgt id='1361'> +1.2673653e-12 </wgt>
<wgt id='1362'> +1.2614954e-12 </wgt>
<wgt id='1363'> +1.2653240e-12 </wgt>
<wgt id='1364'> +1.2648346e-12 </wgt>
<wgt id='1365'> +1.2594176e-12 </wgt>
<wgt id='1366'> +1.2651118e-12 </wgt>
<wgt id='1367'> +1.2703399e-12 </wgt>
<wgt id='1368'> +1.2643096e-12 </wgt>
<wgt id='1369'> +1.2742334e-12 </wgt>
<wgt id='1370'> +1.2534289e-12 </wgt>
<wgt id='1371'> +1.2794096e-12 </wgt>
<wgt id='1372'> +1.2478581e-12 </wgt>
<wgt id='1373'> +1.2583591e-12 </wgt>
<wgt id='1374'> +1.2702612e-12 </wgt>
<wgt id='1375'> +1.2646784e-12 </wgt>
<wgt id='1376'> +1.2683698e-12 </wgt>
<wgt id='1377'> +1.2636069e-12 </wgt>
<wgt id='1378'> +1.2677880e-12 </wgt>
<wgt id='1379'> +1.2643476e-12 </wgt>
<wgt id='1380'> +1.2650015e-12 </wgt>
<wgt id='1381'> +1.2482318e-12 </wgt>
<wgt id='1382'> +1.2795077e-12 </wgt>
<wgt id='1383'> +1.2897227e-12 </wgt>
<wgt id='1384'> +1.2470202e-12 </wgt>
<wgt id='1385'> +1.2582464e-12 </wgt>
<wgt id='1386'> +1.2812817e-12 </wgt>
<wgt id='1387'> +1.2596150e-12 </wgt>
<wgt id='1388'> +1.2592830e-12 </wgt>
<wgt id='1389'> +1.2575303e-12 </wgt>
<wgt id='1390'> +1.2662564e-12 </wgt>
<wgt id='1391'> +1.2398469e-12 </wgt>
<wgt id='1392'> +1.2148242e-12 </wgt>
<wgt id='1393'> +1.2240585e-12 </wgt>
<wgt id='1394'> +1.2327032e-12 </wgt>
<wgt id='1395'> +1.2497313e-12 </wgt>
<wgt id='1396'> +1.2415453e-12 </wgt>
<wgt id='1397'> +1.2005515e-12 </wgt>
<wgt id='1398'> +1.2093910e-12 </wgt>
<wgt id='1399'> +1.2168970e-12 </wgt>
<wgt id='1400'> +1.2246553e-12 </wgt>
<wgt id='1401'> +1.2332035e-12 </wgt>
<wgt id='1402'> +1.2497581e-12 </wgt>
<wgt id='1403'> +1.2575966e-12 </wgt>
<wgt id='1404'> +1.2650540e-12 </wgt>
<wgt id='1405'> +1.2415453e-12 </wgt>
<wgt id='1406'> +1.2379135e-12 </wgt>
<wgt id='1407'> +1.2399961e-12 </wgt>
<wgt id='1408'> +1.2429729e-12 </wgt>
<wgt id='1409'> +1.2451371e-12 </wgt>
<wgt id='1410'> +1.2370377e-12 </wgt>
<wgt id='1411'> +1.2342984e-12 </wgt>
<wgt id='1412'> +1.2405369e-12 </wgt>
<wgt id='1413'> +1.2383680e-12 </wgt>
<wgt id='1414'> +1.2356353e-12 </wgt>
<wgt id='1415'> +1.2276770e-12 </wgt>
<wgt id='1416'> +1.2407688e-12 </wgt>
<wgt id='1417'> +1.2302642e-12 </wgt>
<wgt id='1418'> +1.2437811e-12 </wgt>
<wgt id='1419'> +1.2374662e-12 </wgt>
<wgt id='1420'> +1.2365660e-12 </wgt>
<wgt id='1421'> +1.2294354e-12 </wgt>
<wgt id='1422'> +1.2402658e-12 </wgt>
<wgt id='1423'> +1.2367420e-12 </wgt>
<wgt id='1424'> +1.2373834e-12 </wgt>
<wgt id='1425'> +1.2316831e-12 </wgt>
<wgt id='1426'> +1.2428124e-12 </wgt>
<wgt id='1427'> +1.2301813e-12 </wgt>
<wgt id='1428'> +1.2406497e-12 </wgt>
<wgt id='1429'> +1.2361531e-12 </wgt>
<wgt id='1430'> +1.2382365e-12 </wgt>
<wgt id='1431'> +1.2355105e-12 </wgt>
<wgt id='1432'> +1.2380011e-12 </wgt>
<wgt id='1433'> +1.2319875e-12 </wgt>
<wgt id='1434'> +1.2409204e-12 </wgt>
<wgt id='1435'> +1.2368197e-12 </wgt>
<wgt id='1436'> +1.2377244e-12 </wgt>
<wgt id='1437'> +1.2420030e-12 </wgt>
<wgt id='1438'> +1.2368049e-12 </wgt>
<wgt id='1439'> +1.2294668e-12 </wgt>
<wgt id='1440'> +1.2554794e-12 </wgt>
<wgt id='1441'> +1.2437998e-12 </wgt>
<wgt id='1442'> +1.2237816e-12 </wgt>
<wgt id='1443'> +1.2360292e-12 </wgt>
<wgt id='1444'> +1.2395316e-12 </wgt>
<wgt id='1445'> +1.2443399e-12 </wgt>
<wgt id='1446'> +1.2347950e-12 </wgt>
<wgt id='1447'> +1.2377707e-12 </wgt>
<wgt id='1448'> +1.2379529e-12 </wgt>
<wgt id='1449'> +1.2375383e-12 </wgt>
<wgt id='1450'> +1.2364490e-12 </wgt>
<wgt id='1451'> +1.2476144e-12 </wgt>
<wgt id='1452'> +1.2133117e-12 </wgt>
<wgt id='1453'> +1.2394148e-12 </wgt>
<wgt id='1454'> +1.2195147e-12 </wgt>
<wgt id='1455'> +1.2273567e-12 </wgt>
<wgt id='1456'> +1.2409410e-12 </wgt>
<wgt id='1457'> +1.2466519e-12 </wgt>
<wgt id='1458'> +1.2324135e-12 </wgt>
<wgt id='1459'> +1.2415983e-12 </wgt>
<wgt id='1460'> +1.2299855e-12 </wgt>
<wgt id='1461'> +1.2370377e-12 </wgt>
<wgt id='1462'> +1.2313842e-12 </wgt>
<wgt id='1463'> +1.2471239e-12 </wgt>
<wgt id='1464'> +1.2389983e-12 </wgt>
<wgt id='1465'> +1.2026812e-12 </wgt>
<wgt id='1466'> +1.2107654e-12 </wgt>
<wgt id='1467'> +1.2189770e-12 </wgt>
<wgt id='1468'> +1.2245865e-12 </wgt>
<wgt id='1469'> +1.2323065e-12 </wgt>
<wgt id='1470'> +1.2460714e-12 </wgt>
<wgt id='1471'> +1.2508320e-12 </wgt>
<wgt id='1472'> +1.2575531e-12 </wgt>
<wgt id='1473'> +1.2389983e-12 </wgt>
<wgt id='1474'> +1.2349866e-12 </wgt>
<wgt id='1475'> +1.2360640e-12 </wgt>
<wgt id='1476'> +1.2407738e-12 </wgt>
<wgt id='1477'> +1.2425386e-12 </wgt>
<wgt id='1478'> +1.2288344e-12 </wgt>
<wgt id='1479'> +1.2274685e-12 </wgt>
<wgt id='1480'> +1.2300814e-12 </wgt>
<wgt id='1481'> +1.2274285e-12 </wgt>
<wgt id='1482'> +1.2284310e-12 </wgt>
<wgt id='1483'> +1.2058043e-12 </wgt>
<wgt id='1484'> +1.2262520e-12 </wgt>
<wgt id='1485'> +1.2331398e-12 </wgt>
<wgt id='1486'> +1.2293649e-12 </wgt>
<wgt id='1487'> +1.2298267e-12 </wgt>
<wgt id='1488'> +1.2270743e-12 </wgt>
<wgt id='1489'> +1.2410617e-12 </wgt>
<wgt id='1490'> +1.2247505e-12 </wgt>
<wgt id='1491'> +1.2319848e-12 </wgt>
<wgt id='1492'> +1.2303146e-12 </wgt>
<wgt id='1493'> +1.2086795e-12 </wgt>
<wgt id='1494'> +1.2383219e-12 </wgt>
<wgt id='1495'> +1.2211224e-12 </wgt>
<wgt id='1496'> +1.2289695e-12 </wgt>
<wgt id='1497'> +1.2227019e-12 </wgt>
<wgt id='1498'> +1.2282752e-12 </wgt>
<wgt id='1499'> +1.2301527e-12 </wgt>
<wgt id='1500'> +1.2303366e-12 </wgt>
<wgt id='1501'> +1.2284241e-12 </wgt>
<wgt id='1502'> +1.2312920e-12 </wgt>
<wgt id='1503'> +1.2281958e-12 </wgt>
<wgt id='1504'> +1.2208147e-12 </wgt>
<wgt id='1505'> +1.2293017e-12 </wgt>
<wgt id='1506'> +1.2289531e-12 </wgt>
<wgt id='1507'> +1.2268569e-12 </wgt>
<wgt id='1508'> +1.2345745e-12 </wgt>
<wgt id='1509'> +1.3079912e-12 </wgt>
<wgt id='1510'> +1.3067002e-12 </wgt>
<wgt id='1511'> +1.3113733e-12 </wgt>
<wgt id='1512'> +1.3084879e-12 </wgt>
<wgt id='1513'> +1.3119575e-12 </wgt>
<wgt id='1514'> +1.3090866e-12 </wgt>
<wgt id='1515'> +1.3062300e-12 </wgt>
<wgt id='1516'> +1.3103073e-12 </wgt>
<wgt id='1517'> +1.3129167e-12 </wgt>
<wgt id='1518'> +1.3121719e-12 </wgt>
<wgt id='1519'> +1.2987762e-12 </wgt>
<wgt id='1520'> +1.3090331e-12 </wgt>
<wgt id='1521'> +1.3171537e-12 </wgt>
<wgt id='1522'> +1.3080794e-12 </wgt>
<wgt id='1523'> +1.3194987e-12 </wgt>
<wgt id='1524'> +1.3132491e-12 </wgt>
<wgt id='1525'> +1.3185365e-12 </wgt>
<wgt id='1526'> +1.3024173e-12 </wgt>
<wgt id='1527'> +1.3027491e-12 </wgt>
<wgt id='1528'> +1.3084741e-12 </wgt>
<wgt id='1529'> +1.3090214e-12 </wgt>
<wgt id='1530'> +1.3159629e-12 </wgt>
<wgt id='1531'> +1.3120066e-12 </wgt>
<wgt id='1532'> +1.2995847e-12 </wgt>
<wgt id='1533'> +1.3061695e-12 </wgt>
<wgt id='1534'> +1.3118725e-12 </wgt>
<wgt id='1535'> +1.3004915e-12 </wgt>
<wgt id='1536'> +1.3095597e-12 </wgt>
<wgt id='1537'> +1.3109619e-12 </wgt>
<wgt id='1538'> +1.3035526e-12 </wgt>
<wgt id='1539'> +1.2941202e-12 </wgt>
<wgt id='1540'> +1.3115287e-12 </wgt>
<wgt id='1541'> +1.3122385e-12 </wgt>
<wgt id='1542'> +1.3132941e-12 </wgt>
<wgt id='1543'> +1.3084603e-12 </wgt>
<wgt id='1544'> +1.3052878e-12 </wgt>
<wgt id='1545'> +1.3087358e-12 </wgt>
<wgt id='1546'> +1.3096049e-12 </wgt>
<wgt id='1547'> +1.3084989e-12 </wgt>
<wgt id='1548'> +1.3063462e-12 </wgt>
<wgt id='1549'> +1.3070994e-12 </wgt>
<wgt id='1550'> +1.3095780e-12 </wgt>
<wgt id='1551'> +1.3053867e-12 </wgt>
<wgt id='1552'> +1.3071017e-12 </wgt>
<wgt id='1553'> +1.3070952e-12 </wgt>
<wgt id='1554'> +1.3141783e-12 </wgt>
<wgt id='1555'> +1.3117187e-12 </wgt>
<wgt id='1556'> +1.3072539e-12 </wgt>
<wgt id='1557'> +1.3107211e-12 </wgt>
<wgt id='1558'> +1.3054342e-12 </wgt>
<wgt id='1559'> +1.3075841e-12 </wgt>
<wgt id='1560'> +1.3100323e-12 </wgt>
<wgt id='1561'> +1.3070580e-12 </wgt>
<wgt id='1562'> +1.3078394e-12 </wgt>
<wgt id='1563'> +1.3072409e-12 </wgt>
<wgt id='1564'> +1.3059109e-12 </wgt>
<wgt id='1565'> +1.3074555e-12 </wgt>
<wgt id='1566'> +1.3097365e-12 </wgt>
<wgt id='1567'> +1.3093602e-12 </wgt>
<wgt id='1568'> +1.3067744e-12 </wgt>
<wgt id='1569'> +1.3101008e-12 </wgt>
<wgt id='1570'> +1.3059440e-12 </wgt>
<wgt id='1571'> +1.3087391e-12 </wgt>
<wgt id='1572'> +1.3068835e-12 </wgt>
<wgt id='1573'> +1.3071216e-12 </wgt>
<wgt id='1574'> +1.3079664e-12 </wgt>
<wgt id='1575'> +1.3078807e-12 </wgt>
<wgt id='1576'> +1.3075116e-12 </wgt>
<wgt id='1577'> +1.3080647e-12 </wgt>
<wgt id='1578'> +1.3092090e-12 </wgt>
<wgt id='1579'> +1.3070566e-12 </wgt>
<wgt id='1580'> +1.3073317e-12 </wgt>
<wgt id='1581'> +1.3095035e-12 </wgt>
<wgt id='1582'> +1.3099081e-12 </wgt>
<wgt id='1583'> +1.3073978e-12 </wgt>
<wgt id='1584'> +1.3072679e-12 </wgt>
<wgt id='1585'> +1.3091090e-12 </wgt>
<wgt id='1586'> +1.3067907e-12 </wgt>
<wgt id='1587'> +1.3092384e-12 </wgt>
<wgt id='1588'> +1.3068589e-12 </wgt>
<wgt id='1589'> +1.3070503e-12 </wgt>
<wgt id='1590'> +1.3076672e-12 </wgt>
<wgt id='1591'> +1.3073857e-12 </wgt>
<wgt id='1592'> +1.3080738e-12 </wgt>
<wgt id='1593'> +1.3071367e-12 </wgt>
<wgt id='1594'> +1.3081438e-12 </wgt>
<wgt id='1595'> +1.3093316e-12 </wgt>
<wgt id='1596'> +1.3093627e-12 </wgt>
<wgt id='1597'> +1.3085177e-12 </wgt>
<wgt id='1598'> +1.3078295e-12 </wgt>
<wgt id='1599'> +1.3076792e-12 </wgt>
<wgt id='1600'> +1.3098768e-12 </wgt>
<wgt id='1601'> +1.3086436e-12 </wgt>
<wgt id='1602'> +1.3090473e-12 </wgt>
<wgt id='1603'> +1.3071418e-12 </wgt>
<wgt id='1604'> +1.3080954e-12 </wgt>
<wgt id='1605'> +1.3072166e-12 </wgt>
<wgt id='1606'> +1.3071736e-12 </wgt>
<wgt id='1607'> +1.3082490e-12 </wgt>
<wgt id='1608'> +1.3075313e-12 </wgt>
<wgt id='1609'> +1.3069222e-12 </wgt>
<wgt id='1610'> +1.3056470e-12 </wgt>
<wgt id='1611'> +1.3131813e-12 </wgt>
<wgt id='1612'> +1.5256365e-12 </wgt>
<wgt id='1613'> +1.5045366e-12 </wgt>
<wgt id='1614'> +1.5376763e-12 </wgt>
<wgt id='1615'> +1.5053537e-12 </wgt>
<wgt id='1616'> +1.5582077e-12 </wgt>
<wgt id='1617'> +1.5650722e-12 </wgt>
<wgt id='1618'> +1.5636835e-12 </wgt>
<wgt id='1619'> +1.5295224e-12 </wgt>
<wgt id='1620'> +1.4914657e-12 </wgt>
<wgt id='1621'> +1.5330315e-12 </wgt>
<wgt id='1622'> +1.5534611e-12 </wgt>
<wgt id='1623'> +1.5030841e-12 </wgt>
<wgt id='1624'> +1.5013145e-12 </wgt>
<wgt id='1625'> +1.5115563e-12 </wgt>
<wgt id='1626'> +1.5008458e-12 </wgt>
<wgt id='1627'> +1.4817285e-12 </wgt>
<wgt id='1628'> +1.5058870e-12 </wgt>
<wgt id='1629'> +1.6307195e-12 </wgt>
<wgt id='1630'> +1.5273888e-12 </wgt>
<wgt id='1631'> +1.5215892e-12 </wgt>
<wgt id='1632'> +1.4452760e-12 </wgt>
<wgt id='1633'> +1.4672164e-12 </wgt>
<wgt id='1634'> +1.5376477e-12 </wgt>
<wgt id='1635'> +1.5281453e-12 </wgt>
<wgt id='1636'> +1.5655299e-12 </wgt>
<wgt id='1637'> +1.4903297e-12 </wgt>
<wgt id='1638'> +1.5197338e-12 </wgt>
<wgt id='1639'> +1.5109369e-12 </wgt>
<wgt id='1640'> +1.4672863e-12 </wgt>
<wgt id='1641'> +1.5106856e-12 </wgt>
<wgt id='1642'> +1.5052633e-12 </wgt>
<wgt id='1643'> +1.5843467e-12 </wgt>
<wgt id='1644'> +1.4716197e-12 </wgt>
<wgt id='1645'> +1.5111079e-12 </wgt>
<wgt id='1646'> +1.5198382e-12 </wgt>
<wgt id='1647'> +1.4955799e-12 </wgt>
<wgt id='1648'> +1.5142772e-12 </wgt>
<wgt id='1649'> +1.6014208e-12 </wgt>
<wgt id='1650'> +1.5138517e-12 </wgt>
<wgt id='1651'> +1.4980075e-12 </wgt>
<wgt id='1652'> +1.5084907e-12 </wgt>
<wgt id='1653'> +1.5840318e-12 </wgt>
<wgt id='1654'> +1.5412495e-12 </wgt>
<wgt id='1655'> +1.5114433e-12 </wgt>
<wgt id='1656'> +1.4812436e-12 </wgt>
<wgt id='1657'> +1.4892854e-12 </wgt>
<wgt id='1658'> +1.4745435e-12 </wgt>
<wgt id='1659'> +1.5013145e-12 </wgt>
<wgt id='1660'> +1.5430281e-12 </wgt>
<wgt id='1661'> +1.5448664e-12 </wgt>
<wgt id='1662'> +1.5051161e-12 </wgt>
<wgt id='1663'> +1.5596217e-12 </wgt>
<wgt id='1664'> +1.5002460e-12 </wgt>
<wgt id='1665'> +1.4448538e-12 </wgt>
<wgt id='1666'> +1.5283746e-12 </wgt>
<wgt id='1667'> +1.5633182e-12 </wgt>
<wgt id='1668'> +1.5396516e-12 </wgt>
<wgt id='1669'> +1.5035443e-12 </wgt>
<wgt id='1670'> +1.5136356e-12 </wgt>
<wgt id='1671'> +1.4944437e-12 </wgt>
<wgt id='1672'> +1.5414031e-12 </wgt>
<wgt id='1673'> +1.5839861e-12 </wgt>
<wgt id='1674'> +1.5278388e-12 </wgt>
<wgt id='1675'> +1.5499503e-12 </wgt>
<wgt id='1676'> +1.5752997e-12 </wgt>
<wgt id='1677'> +1.5892298e-12 </wgt>
<wgt id='1678'> +1.4731927e-12 </wgt>
<wgt id='1679'> +1.5882694e-12 </wgt>
<wgt id='1680'> +1.5095128e-12 </wgt>
<wgt id='1681'> +1.5570527e-12 </wgt>
<wgt id='1682'> +1.5262128e-12 </wgt>
<wgt id='1683'> +1.5182823e-12 </wgt>
<wgt id='1684'> +1.4971509e-12 </wgt>
<wgt id='1685'> +1.5017104e-12 </wgt>
<wgt id='1686'> +1.5081344e-12 </wgt>
<wgt id='1687'> +1.5777290e-12 </wgt>
<wgt id='1688'> +1.5020488e-12 </wgt>
<wgt id='1689'> +1.5065706e-12 </wgt>
<wgt id='1690'> +1.5228383e-12 </wgt>
<wgt id='1691'> +1.5306248e-12 </wgt>
<wgt id='1692'> +1.5733470e-12 </wgt>
<wgt id='1693'> +1.5834093e-12 </wgt>
<wgt id='1694'> +1.5235133e-12 </wgt>
<wgt id='1695'> +1.5105308e-12 </wgt>
<wgt id='1696'> +1.5498197e-12 </wgt>
<wgt id='1697'> +1.5746644e-12 </wgt>
<wgt id='1698'> +1.4999897e-12 </wgt>
<wgt id='1699'> +1.5434730e-12 </wgt>
<wgt id='1700'> +1.5044211e-12 </wgt>
<wgt id='1701'> +1.5425277e-12 </wgt>
<wgt id='1702'> +1.5711954e-12 </wgt>
<wgt id='1703'> +1.5676457e-12 </wgt>
<wgt id='1704'> +1.5008799e-12 </wgt>
<wgt id='1705'> +1.4620486e-12 </wgt>
<wgt id='1706'> +1.5491848e-12 </wgt>
<wgt id='1707'> +1.5204649e-12 </wgt>
<wgt id='1708'> +1.5565672e-12 </wgt>
<wgt id='1709'> +1.5069061e-12 </wgt>
<wgt id='1710'> +1.5162988e-12 </wgt>
<wgt id='1711'> +1.5439415e-12 </wgt>
<wgt id='1712'> +1.5489558e-12 </wgt>
<wgt id='1713'> +1.2114118e-12 </wgt>
<wgt id='1714'> +1.1591311e-12 </wgt>
<wgt id='1715'> +1.2104260e-12 </wgt>
<wgt id='1716'> +1.2689879e-12 </wgt>
<wgt id='1717'> +1.2337583e-12 </wgt>
<wgt id='1718'> +1.2239381e-12 </wgt>
<wgt id='1719'> +1.2046906e-12 </wgt>
<wgt id='1720'> +1.2374663e-12 </wgt>
<wgt id='1721'> +1.1943139e-12 </wgt>
<wgt id='1722'> +1.2137362e-12 </wgt>
<wgt id='1723'> +1.1820286e-12 </wgt>
<wgt id='1724'> +1.1898114e-12 </wgt>
<wgt id='1725'> +1.2259517e-12 </wgt>
<wgt id='1726'> +1.2465631e-12 </wgt>
<wgt id='1727'> +1.2154431e-12 </wgt>
<wgt id='1728'> +1.2129646e-12 </wgt>
<wgt id='1729'> +1.1956783e-12 </wgt>
<wgt id='1730'> +1.1896222e-12 </wgt>
<wgt id='1731'> +1.1609669e-12 </wgt>
<wgt id='1732'> +1.1844758e-12 </wgt>
<wgt id='1733'> +1.2147974e-12 </wgt>
<wgt id='1734'> +1.2429817e-12 </wgt>
<wgt id='1735'> +1.2203008e-12 </wgt>
<wgt id='1736'> +1.2706456e-12 </wgt>
<wgt id='1737'> +1.2656718e-12 </wgt>
<wgt id='1738'> +1.2289761e-12 </wgt>
<wgt id='1739'> +1.2060567e-12 </wgt>
<wgt id='1740'> +1.1807797e-12 </wgt>
<wgt id='1741'> +1.2033479e-12 </wgt>
<wgt id='1742'> +1.2143740e-12 </wgt>
<wgt id='1743'> +1.2305223e-12 </wgt>
<wgt id='1744'> +1.2554407e-12 </wgt>
<wgt id='1745'> +1.1873758e-12 </wgt>
<wgt id='1746'> +1.2116834e-12 </wgt>
<wgt id='1747'> +1.2325859e-12 </wgt>
<wgt id='1748'> +1.2325637e-12 </wgt>
<wgt id='1749'> +1.2039693e-12 </wgt>
<wgt id='1750'> +1.2130411e-12 </wgt>
<wgt id='1751'> +1.1374999e-12 </wgt>
<wgt id='1752'> +1.1914904e-12 </wgt>
<wgt id='1753'> +1.2409550e-12 </wgt>
<wgt id='1754'> +1.1819537e-12 </wgt>
<wgt id='1755'> +1.1974394e-12 </wgt>
<wgt id='1756'> +1.2363569e-12 </wgt>
<wgt id='1757'> +1.2019128e-12 </wgt>
<wgt id='1758'> +1.2352257e-12 </wgt>
<wgt id='1759'> +1.1861347e-12 </wgt>
<wgt id='1760'> +1.1502158e-12 </wgt>
<wgt id='1761'> +1.1949788e-12 </wgt>
<wgt id='1762'> +1.2313421e-12 </wgt>
<wgt id='1763'> +1.2466285e-12 </wgt>
<wgt id='1764'> +1.2192152e-12 </wgt>
<wgt id='1765'> +1.2265428e-12 </wgt>
<wgt id='1766'> +1.2110826e-12 </wgt>
<wgt id='1767'> +1.2243574e-12 </wgt>
<wgt id='1768'> +1.2185762e-12 </wgt>
<wgt id='1769'> +1.1901836e-12 </wgt>
<wgt id='1770'> +1.2423385e-12 </wgt>
<wgt id='1771'> +1.2337835e-12 </wgt>
<wgt id='1772'> +1.2187972e-12 </wgt>
<wgt id='1773'> +1.2083499e-12 </wgt>
<wgt id='1774'> +1.2027281e-12 </wgt>
<wgt id='1775'> +1.2128195e-12 </wgt>
<wgt id='1776'> +1.1802669e-12 </wgt>
<wgt id='1777'> +1.1421254e-12 </wgt>
<wgt id='1778'> +1.1859210e-12 </wgt>
<wgt id='1779'> +1.2549786e-12 </wgt>
<wgt id='1780'> +1.2392706e-12 </wgt>
<wgt id='1781'> +1.1999186e-12 </wgt>
<wgt id='1782'> +1.1778599e-12 </wgt>
<wgt id='1783'> +1.2215244e-12 </wgt>
<wgt id='1784'> +1.2156157e-12 </wgt>
<wgt id='1785'> +1.1792416e-12 </wgt>
<wgt id='1786'> +1.1636744e-12 </wgt>
<wgt id='1787'> +1.2677313e-12 </wgt>
<wgt id='1788'> +1.1823800e-12 </wgt>
<wgt id='1789'> +1.2198943e-12 </wgt>
<wgt id='1790'> +1.2483622e-12 </wgt>
<wgt id='1791'> +1.2079475e-12 </wgt>
<wgt id='1792'> +1.1737783e-12 </wgt>
<wgt id='1793'> +1.2540223e-12 </wgt>
<wgt id='1794'> +1.2223069e-12 </wgt>
<wgt id='1795'> +1.2389401e-12 </wgt>
<wgt id='1796'> +1.1875021e-12 </wgt>
<wgt id='1797'> +1.2318047e-12 </wgt>
<wgt id='1798'> +1.2072161e-12 </wgt>
<wgt id='1799'> +1.2019572e-12 </wgt>
<wgt id='1800'> +1.2189049e-12 </wgt>
<wgt id='1801'> +1.2188170e-12 </wgt>
<wgt id='1802'> +1.1942761e-12 </wgt>
<wgt id='1803'> +1.2409566e-12 </wgt>
<wgt id='1804'> +1.1899798e-12 </wgt>
<wgt id='1805'> +1.2254120e-12 </wgt>
<wgt id='1806'> +1.1988502e-12 </wgt>
<wgt id='1807'> +1.1937672e-12 </wgt>
<wgt id='1808'> +1.2038123e-12 </wgt>
<wgt id='1809'> +1.1874642e-12 </wgt>
<wgt id='1810'> +1.2021564e-12 </wgt>
<wgt id='1811'> +1.2353746e-12 </wgt>
<wgt id='1812'> +1.2224222e-12 </wgt>
<wgt id='1813'> +1.2031261e-12 </wgt>
<wgt id='1814'> +1.4324449e-12 </wgt>
<wgt id='1815'> +1.6185347e-12 </wgt>
<wgt id='1816'> +1.2114118e-12 </wgt>
<wgt id='1817'> +1.1591311e-12 </wgt>
<wgt id='1818'> +1.2104260e-12 </wgt>
<wgt id='1819'> +1.2689879e-12 </wgt>
<wgt id='1820'> +1.2337583e-12 </wgt>
<wgt id='1821'> +1.2239381e-12 </wgt>
<wgt id='1822'> +1.2046906e-12 </wgt>
<wgt id='1823'> +1.2374663e-12 </wgt>
<wgt id='1824'> +1.1943139e-12 </wgt>
<wgt id='1825'> +1.2137362e-12 </wgt>
<wgt id='1826'> +1.1820286e-12 </wgt>
<wgt id='1827'> +1.1898114e-12 </wgt>
<wgt id='1828'> +1.2259517e-12 </wgt>
<wgt id='1829'> +1.2465631e-12 </wgt>
<wgt id='1830'> +1.2154431e-12 </wgt>
<wgt id='1831'> +1.2129646e-12 </wgt>
<wgt id='1832'> +1.1956783e-12 </wgt>
<wgt id='1833'> +1.1896222e-12 </wgt>
<wgt id='1834'> +1.1609669e-12 </wgt>
<wgt id='1835'> +1.1844758e-12 </wgt>
<wgt id='1836'> +1.2147974e-12 </wgt>
<wgt id='1837'> +1.2429817e-12 </wgt>
<wgt id='1838'> +1.2203008e-12 </wgt>
<wgt id='1839'> +1.2706456e-12 </wgt>
<wgt id='1840'> +1.2656718e-12 </wgt>
<wgt id='1841'> +1.2289761e-12 </wgt>
<wgt id='1842'> +1.2060567e-12 </wgt>
<wgt id='1843'> +1.1807797e-12 </wgt>
<wgt id='1844'> +1.2033479e-12 </wgt>
<wgt id='1845'> +1.2143740e-12 </wgt>
<wgt id='1846'> +1.2305223e-12 </wgt>
<wgt id='1847'> +1.2554407e-12 </wgt>
<wgt id='1848'> +1.1873758e-12 </wgt>
<wgt id='1849'> +1.2116834e-12 </wgt>
<wgt id='1850'> +1.2325859e-12 </wgt>
<wgt id='1851'> +1.2325637e-12 </wgt>
<wgt id='1852'> +1.2039693e-12 </wgt>
<wgt id='1853'> +1.2130411e-12 </wgt>
<wgt id='1854'> +1.1374999e-12 </wgt>
<wgt id='1855'> +1.1914904e-12 </wgt>
<wgt id='1856'> +1.2409550e-12 </wgt>
<wgt id='1857'> +1.1819537e-12 </wgt>
<wgt id='1858'> +1.1974394e-12 </wgt>
<wgt id='1859'> +1.2363569e-12 </wgt>
<wgt id='1860'> +1.2019128e-12 </wgt>
<wgt id='1861'> +1.2352257e-12 </wgt>
<wgt id='1862'> +1.1861347e-12 </wgt>
<wgt id='1863'> +1.1502158e-12 </wgt>
<wgt id='1864'> +1.1949788e-12 </wgt>
<wgt id='1865'> +1.2313421e-12 </wgt>
<wgt id='1866'> +1.2466285e-12 </wgt>
<wgt id='1867'> +1.2192152e-12 </wgt>
<wgt id='1868'> +1.2265428e-12 </wgt>
<wgt id='1869'> +1.2110826e-12 </wgt>
<wgt id='1870'> +1.2243574e-12 </wgt>
<wgt id='1871'> +1.2185762e-12 </wgt>
<wgt id='1872'> +1.1901836e-12 </wgt>
<wgt id='1873'> +1.2423385e-12 </wgt>
<wgt id='1874'> +1.2337835e-12 </wgt>
<wgt id='1875'> +1.2187972e-12 </wgt>
<wgt id='1876'> +1.2083499e-12 </wgt>
<wgt id='1877'> +1.2027281e-12 </wgt>
<wgt id='1878'> +1.2128195e-12 </wgt>
<wgt id='1879'> +1.1802669e-12 </wgt>
<wgt id='1880'> +1.1421254e-12 </wgt>
<wgt id='1881'> +1.1859210e-12 </wgt>
<wgt id='1882'> +1.2549786e-12 </wgt>
<wgt id='1883'> +1.2392706e-12 </wgt>
<wgt id='1884'> +1.1999186e-12 </wgt>
<wgt id='1885'> +1.1778599e-12 </wgt>
<wgt id='1886'> +1.2215244e-12 </wgt>
<wgt id='1887'> +1.2156157e-12 </wgt>
<wgt id='1888'> +1.1792416e-12 </wgt>
<wgt id='1889'> +1.1636744e-12 </wgt>
<wgt id='1890'> +1.2677313e-12 </wgt>
<wgt id='1891'> +1.1823800e-12 </wgt>
<wgt id='1892'> +1.2198943e-12 </wgt>
<wgt id='1893'> +1.2483622e-12 </wgt>
<wgt id='1894'> +1.2079475e-12 </wgt>
<wgt id='1895'> +1.1737783e-12 </wgt>
<wgt id='1896'> +1.2540223e-12 </wgt>
<wgt id='1897'> +1.2223069e-12 </wgt>
<wgt id='1898'> +1.2389401e-12 </wgt>
<wgt id='1899'> +1.1875021e-12 </wgt>
<wgt id='1900'> +1.2318047e-12 </wgt>
<wgt id='1901'> +1.2072161e-12 </wgt>
<wgt id='1902'> +1.2019572e-12 </wgt>
<wgt id='1903'> +1.2189049e-12 </wgt>
<wgt id='1904'> +1.2188170e-12 </wgt>
<wgt id='1905'> +1.1942761e-12 </wgt>
<wgt id='1906'> +1.2409566e-12 </wgt>
<wgt id='1907'> +1.1899798e-12 </wgt>
<wgt id='1908'> +1.2254120e-12 </wgt>
<wgt id='1909'> +1.1988502e-12 </wgt>
<wgt id='1910'> +1.1937672e-12 </wgt>
<wgt id='1911'> +1.2038123e-12 </wgt>
<wgt id='1912'> +1.1874642e-12 </wgt>
<wgt id='1913'> +1.2021564e-12 </wgt>
<wgt id='1914'> +1.2353746e-12 </wgt>
<wgt id='1915'> +1.2224222e-12 </wgt>
<wgt id='1916'> +1.2031261e-12 </wgt>
<wgt id='1917'> +1.2038960e-12 </wgt>
<wgt id='1918'> +1.2162345e-12 </wgt>
<wgt id='1919'> +1.2357094e-12 </wgt>
</rwgt>
</event>
<event>
 9      1 +1.5607000e-12 5.18142800e+01 7.81860800e-03 1.30281800e-01
        4 -1    0    0  502    0 -0.0000000000e+00 +0.0000000000e+00 +6.7272102524e+01 6.7287087751e+01 0.0000000000e+00 0.0000e+00 1.0000e+00
       21 -1    0    0  501  502 +0.0000000000e+00 -0.0000000000e+00 -9.9684876456e+00 9.9684876456e+00 1.4200000000e+00 0.0000e+00 -1.0000e+00
     1023  2    1    2    0    0 +1.1225188820e+01 +2.0744027763e+01 +3.4681230478e+01 4.4543066660e+01 1.4999249587e+01 0.0000e+00 0.0000e+00
  1000023  2    3    3    0    0 +2.2403514992e-01 +2.8354524099e+00 +9.7922662769e+00 1.1585472812e+01 5.4995199185e+00 0.0000e+00 0.0000e+00
        4  1    1    2  501    0 -1.1225188820e+01 -2.0744027763e+01 +2.2622384401e+01 3.2712508736e+01 1.4200000000e+00 0.0000e+00 1.0000e+00
  1000022  1    4    4    0    0 -8.2152268106e-02 +2.5636934208e+00 +9.3262995257e+00 1.0888486387e+01 5.0000000000e+00 0.0000e+00 -1.0000e+00
      -11  1    4    4    0    0 +2.0000288646e-01 +2.9880812383e-01 +4.6448970075e-01 5.8739968734e-01 5.1100000000e-04 0.0000e+00 -1.0000e+00
       11  1    4    4    0    0 +1.0618453157e-01 -2.7049134768e-02 +1.4770504386e-03 1.0958673841e-01 5.1100000000e-04 0.0000e+00 1.0000e+00
  1000022  1    3    3    0    0 +1.1001153670e+01 +1.7908575353e+01 +2.4888964201e+01 3.2957593848e+01 5.0000000000e+00 0.0000e+00 -1.0000e+00
<mgrwt>
<rscale>  1 0.51814280E+02</rscale>
<asrwt>0</asrwt>
<pdfrwt beam="1">  1       21 0.15336144E-02 0.51814280E+02</pdfrwt>
<pdfrwt beam="2">  1        4 0.10358481E-01 0.51814280E+02</pdfrwt>
<totfact> 0.51497882E+06</totfact>
</mgrwt>
<rwgt>
<wgt id='1001'> +1.5607000e-12 </wgt>
<wgt id='1002'> +1.5442028e-12 </wgt>
<wgt id='1003'> +1.5585393e-12 </wgt>
<wgt id='1004'> +1.3685655e-12 </wgt>
<wgt id='1005'> +1.5607000e-12 </wgt>
<wgt id='1006'> +1.3841951e-12 </wgt>
<wgt id='1007'> +1.3673598e-12 </wgt>
<wgt id='1008'> +1.3819864e-12 </wgt>
<wgt id='1009'> +1.1922018e-12 </wgt>
<wgt id='1010'> +1.3841951e-12 </wgt>
<wgt id='1011'> +1.7910706e-12 </wgt>
<wgt id='1012'> +1.7759308e-12 </wgt>
<wgt id='1013'> +1.7890958e-12 </wgt>
<wgt id='1014'> +1.6093137e-12 </wgt>
<wgt id='1015'> +1.7910706e-12 </wgt>
<wgt id='1016'> +1.9049118e-12 </wgt>
<wgt id='1017'> +1.8955739e-12 </wgt>
<wgt id='1018'> +1.9036959e-12 </wgt>
<wgt id='1019'> +1.7890958e-12 </wgt>
<wgt id='1020'> +1.9049118e-12 </wgt>
<wgt id='1021'> +1.6894788e-12 </wgt>
<wgt id='1022'> +1.6784917e-12 </wgt>
<wgt id='1023'> +1.6880433e-12 </wgt>
<wgt id='1024'> +1.5585393e-12 </wgt>
<wgt id='1025'> +1.6894788e-12 </wgt>
<wgt id='1026'> +2.1860905e-12 </wgt>
<wgt id='1027'> +2.1800297e-12 </wgt>
<wgt id='1028'> +2.1853118e-12 </wgt>
<wgt id='1029'> +2.1038206e-12 </wgt>
<wgt id='1030'> +2.1860905e-12 </wgt>
<wgt id='1031'> +1.1952263e-12 </wgt>
<wgt id='1032'> +1.1722907e-12 </wgt>
<wgt id='1033'> +1.1922018e-12 </wgt>
<wgt id='1034'> +9.3760466e-13 </wgt>
<wgt id='1035'> +1.1952263e-12 </wgt>
<wgt id='1036'> +1.0600540e-12 </wgt>
<wgt id='1037'> +1.0380393e-12 </wgt>
<wgt id='1038'> +1.0571480e-12 </wgt>
<wgt id='1039'> +8.1677780e-13 </wgt>
<wgt id='1040'> +1.0600540e-12 </wgt>
<wgt id='1041'> +1.3716503e-12 </wgt>
<wgt id='1042'> +1.3482084e-12 </wgt>
<wgt id='1043'> +1.3685655e-12 </wgt>
<wgt id='1044'> +1.1025413e-12 </wgt>
<wgt id='1045'> +1.3716503e-12 </wgt>
<wgt id='1046'> +1.5607000e-12 </wgt>
<wgt id='1047'> +1.4593150e-12 </wgt>
<wgt id='1048'> +1.5762763e-12 </wgt>
<wgt id='1049'> +1.6143259e-12 </wgt>
<wgt id='1050'> +1.5640465e-12 </wgt>
<wgt id='1051'> +1.5686464e-12 </wgt>
<wgt id='1052'> +1.4609854e-12 </wgt>
<wgt id='1053'> +1.5750355e-12 </wgt>
<wgt id='1054'> +1.6097819e-12 </wgt>
<wgt id='1055'> +1.6469056e-12 </wgt>
<wgt id='1056'> +1.5940752e-12 </wgt>
<wgt id='1057'> +1.5545421e-12 </wgt>
<wgt id='1058'> +1.5499128e-12 </wgt>
<wgt id='1059'> +1.5804025e-12 </wgt>
<wgt id='1060'> +1.5222241e-12 </wgt>
<wgt id='1061'> +1.6057507e-12 </wgt>
<wgt id='1062'> +1.5804396e-12 </wgt>
<wgt id='1063'> +1.5927161e-12 </wgt>
<wgt id='1064'> +1.5525069e-12 </wgt>
<wgt id='1065'> +1.5545994e-12 </wgt>
<wgt id='1066'> +1.6331263e-12 </wgt>
<wgt id='1067'> +1.5756035e-12 </wgt>
<wgt id='1068'> +1.5444509e-12 </wgt>
<wgt id='1069'> +1.5454788e-12 </wgt>
<wgt id='1070'> +1.5589736e-12 </wgt>
<wgt id='1071'> +1.6168455e-12 </wgt>
<wgt id='1072'> +1.5892398e-12 </wgt>
<wgt id='1073'> +1.5652450e-12 </wgt>
<wgt id='1074'> +1.5351517e-12 </wgt>
<wgt id='1075'> +1.5537639e-12 </wgt>
<wgt id='1076'> +1.5924630e-12 </wgt>
<wgt id='1077'> +1.4993392e-12 </wgt>
<wgt id='1078'> +1.5915229e-12 </wgt>
<wgt id='1079'> +1.5138278e-12 </wgt>
<wgt id='1080'> +1.5385540e-12 </wgt>
<wgt id='1081'> +1.5481484e-12 </wgt>
<wgt id='1082'> +1.5460911e-12 </wgt>
<wgt id='1083'> +1.5855598e-12 </wgt>
<wgt id='1084'> +1.5629146e-12 </wgt>
<wgt id='1085'> +1.5414935e-12 </wgt>
<wgt id='1086'> +1.5562339e-12 </wgt>
<wgt id='1087'> +1.5623346e-12 </wgt>
<wgt id='1088'> +1.5019127e-12 </wgt>
<wgt id='1089'> +1.5058882e-12 </wgt>
<wgt id='1090'> +1.4806405e-12 </wgt>
<wgt id='1091'> +1.5286245e-12 </wgt>
<wgt id='1092'> +1.5102777e-12 </wgt>
<wgt id='1093'> +1.5180333e-12 </wgt>
<wgt id='1094'> +1.5772990e-12 </wgt>
<wgt id='1095'> +1.5445224e-12 </wgt>
<wgt id='1096'> +1.5525837e-12 </wgt>
<wgt id='1097'> +1.5191104e-12 </wgt>
<wgt id='1098'> +1.6172697e-12 </wgt>
<wgt id='1099'> +1.5632707e-12 </wgt>
<wgt id='1100'> +1.5121144e-12 </wgt>
<wgt id='1101'> +1.5172586e-12 </wgt>
<wgt id='1102'> +1.5431721e-12 </wgt>
<wgt id='1103'> +1.5312823e-12 </wgt>
<wgt id='1104'> +1.5834403e-12 </wgt>
<wgt id='1105'> +1.6115304e-12 </wgt>
<wgt id='1106'> +1.5370995e-12 </wgt>
<wgt id='1107'> +1.5526410e-12 </wgt>
<wgt id='1108'> +1.5876293e-12 </wgt>
<wgt id='1109'> +1.5130320e-12 </wgt>
<wgt id='1110'> +1.5766727e-12 </wgt>
<wgt id='1111'> +1.5350705e-12 </wgt>
<wgt id='1112'> +1.4712923e-12 </wgt>
<wgt id='1113'> +1.4663352e-12 </wgt>
<wgt id='1114'> +1.5973317e-12 </wgt>
<wgt id='1115'> +1.5517285e-12 </wgt>
<wgt id='1116'> +1.5583230e-12 </wgt>
<wgt id='1117'> +1.6286842e-12 </wgt>
<wgt id='1118'> +1.5399930e-12 </wgt>
<wgt id='1119'> +1.6638350e-12 </wgt>
<wgt id='1120'> +1.6599448e-12 </wgt>
<wgt id='1121'> +1.5791616e-12 </wgt>
<wgt id='1122'> +1.4811225e-12 </wgt>
<wgt id='1123'> +1.6658833e-12 </wgt>
<wgt id='1124'> +1.5615737e-12 </wgt>
<wgt id='1125'> +1.5747421e-12 </wgt>
<wgt id='1126'> +1.5054203e-12 </wgt>
<wgt id='1127'> +1.5349186e-12 </wgt>
<wgt id='1128'> +1.5804396e-12 </wgt>
<wgt id='1129'> +1.5136455e-12 </wgt>
<wgt id='1130'> +1.6115160e-12 </wgt>
<wgt id='1131'> +1.5908252e-12 </wgt>
<wgt id='1132'> +1.4619628e-12 </wgt>
<wgt id='1133'> +1.5738851e-12 </wgt>
<wgt id='1134'> +1.5402154e-12 </wgt>
<wgt id='1135'> +1.6986976e-12 </wgt>
<wgt id='1136'> +1.5240937e-12 </wgt>
<wgt id='1137'> +1.5199393e-12 </wgt>
<wgt id='1138'> +1.6182518e-12 </wgt>
<wgt id='1139'> +1.5950189e-12 </wgt>
<wgt id='1140'> +1.5953462e-12 </wgt>
<wgt id='1141'> +1.5644495e-12 </wgt>
<wgt id='1142'> +1.5444021e-12 </wgt>
<wgt id='1143'> +1.4903718e-12 </wgt>
<wgt id='1144'> +1.6145811e-12 </wgt>
<wgt id='1145'> +1.6608532e-12 </wgt>
<wgt id='1146'> +1.5991523e-12 </wgt>
<wgt id='1147'> +1.2979533e-12 </wgt>
<wgt id='1148'> +1.3387506e-12 </wgt>
<wgt id='1149'> +1.3054690e-12 </wgt>
<wgt id='1150'> +1.3150966e-12 </wgt>
<wgt id='1151'> +1.1200793e-12 </wgt>
<wgt id='1152'> +1.6655037e-12 </wgt>
<wgt id='1153'> +1.6576185e-12 </wgt>
<wgt id='1154'> +1.6700739e-12 </wgt>
<wgt id='1155'> +1.6663413e-12 </wgt>
<wgt id='1156'> +1.6650851e-12 </wgt>
<wgt id='1157'> +1.6617409e-12 </wgt>
<wgt id='1158'> +1.6705429e-12 </wgt>
<wgt id='1159'> +1.6623838e-12 </wgt>
<wgt id='1160'> +1.6674994e-12 </wgt>
<wgt id='1161'> +1.6559617e-12 </wgt>
<wgt id='1162'> +1.6720278e-12 </wgt>
<wgt id='1163'> +1.6702752e-12 </wgt>
<wgt id='1164'> +1.6607183e-12 </wgt>
<wgt id='1165'> +1.6477697e-12 </wgt>
<wgt id='1166'> +1.6827585e-12 </wgt>
<wgt id='1167'> +1.6820660e-12 </wgt>
<wgt id='1168'> +1.6429570e-12 </wgt>
<wgt id='1169'> +1.6714709e-12 </wgt>
<wgt id='1170'> +1.6609697e-12 </wgt>
<wgt id='1171'> +1.6619685e-12 </wgt>
<wgt id='1172'> +1.6697984e-12 </wgt>
<wgt id='1173'> +1.6523061e-12 </wgt>
<wgt id='1174'> +1.6782623e-12 </wgt>
<wgt id='1175'> +1.6678987e-12 </wgt>
<wgt id='1176'> +1.6623483e-12 </wgt>
<wgt id='1177'> +1.6661393e-12 </wgt>
<wgt id='1178'> +1.6641434e-12 </wgt>
<wgt id='1179'> +1.6806491e-12 </wgt>
<wgt id='1180'> +1.6439291e-12 </wgt>
<wgt id='1181'> +1.6587951e-12 </wgt>
<wgt id='1182'> +1.6719180e-12 </wgt>
<wgt id='1183'> +1.6646512e-12 </wgt>
<wgt id='1184'> +1.6656379e-12 </wgt>
<wgt id='1185'> +1.6658759e-12 </wgt>
<wgt id='1186'> +1.6653037e-12 </wgt>
<wgt id='1187'> +1.6647337e-12 </wgt>
<wgt id='1188'> +1.6657542e-12 </wgt>
<wgt id='1189'> +1.6592118e-12 </wgt>
<wgt id='1190'> +1.6518498e-12 </wgt>
<wgt id='1191'> +1.6525738e-12 </wgt>
<wgt id='1192'> +1.6715543e-12 </wgt>
<wgt id='1193'> +1.3456683e-12 </wgt>
<wgt id='1194'> +1.3437555e-12 </wgt>
<wgt id='1195'> +1.3472071e-12 </wgt>
<wgt id='1196'> +1.3481457e-12 </wgt>
<wgt id='1197'> +1.3429791e-12 </wgt>
<wgt id='1198'> +1.3485669e-12 </wgt>
<wgt id='1199'> +1.3414162e-12 </wgt>
<wgt id='1200'> +1.3473756e-12 </wgt>
<wgt id='1201'> +1.3445777e-12 </wgt>
<wgt id='1202'> +1.3417574e-12 </wgt>
<wgt id='1203'> +1.3512746e-12 </wgt>
<wgt id='1204'> +1.3228340e-12 </wgt>
<wgt id='1205'> +1.3598728e-12 </wgt>
<wgt id='1206'> +1.3522950e-12 </wgt>
<wgt id='1207'> +1.3366986e-12 </wgt>
<wgt id='1208'> +1.3368046e-12 </wgt>
<wgt id='1209'> +1.3489163e-12 </wgt>
<wgt id='1210'> +1.3493833e-12 </wgt>
<wgt id='1211'> +1.3321497e-12 </wgt>
<wgt id='1212'> +1.3431133e-12 </wgt>
<wgt id='1213'> +1.3481175e-12 </wgt>
<wgt id='1214'> +1.3331357e-12 </wgt>
<wgt id='1215'> +1.3648992e-12 </wgt>
<wgt id='1216'> +1.3549898e-12 </wgt>
<wgt id='1217'> +1.3393978e-12 </wgt>
<wgt id='1218'> +1.3539865e-12 </wgt>
<wgt id='1219'> +1.3414114e-12 </wgt>
<wgt id='1220'> +1.3508761e-12 </wgt>
<wgt id='1221'> +1.3449347e-12 </wgt>
<wgt id='1222'> +1.3449746e-12 </wgt>
<wgt id='1223'> +1.3501962e-12 </wgt>
<wgt id='1224'> +1.3472124e-12 </wgt>
<wgt id='1225'> +1.3450722e-12 </wgt>
<wgt id='1226'> +1.3465117e-12 </wgt>
<wgt id='1227'> +1.3453025e-12 </wgt>
<wgt id='1228'> +1.3404387e-12 </wgt>
<wgt id='1229'> +1.3481779e-12 </wgt>
<wgt id='1230'> +1.3447121e-12 </wgt>
<wgt id='1231'> +1.3336416e-12 </wgt>
<wgt id='1232'> +1.3418792e-12 </wgt>
<wgt id='1233'> +1.3467472e-12 </wgt>
<wgt id='1234'> +1.3456683e-12 </wgt>
<wgt id='1235'> +1.3330013e-12 </wgt>
<wgt id='1236'> +1.3377297e-12 </wgt>
<wgt id='1237'> +1.3419912e-12 </wgt>
<wgt id='1238'> +1.3494821e-12 </wgt>
<wgt id='1239'> +1.3524860e-12 </wgt>
<wgt id='1240'> +1.3553565e-12 </wgt>
<wgt id='1241'> +1.2719089e-12 </wgt>
<wgt id='1242'> +1.2652864e-12 </wgt>
<wgt id='1243'> +1.2785284e-12 </wgt>
<wgt id='1244'> +1.2654302e-12 </wgt>
<wgt id='1245'> +1.2767362e-12 </wgt>
<wgt id='1246'> +1.2735745e-12 </wgt>
<wgt id='1247'> +1.2705584e-12 </wgt>
<wgt id='1248'> +1.2717876e-12 </wgt>
<wgt id='1249'> +1.2720769e-12 </wgt>
<wgt id='1250'> +1.2677016e-12 </wgt>
<wgt id='1251'> +1.2749282e-12 </wgt>
<wgt id='1252'> +1.2683706e-12 </wgt>
<wgt id='1253'> +1.2746823e-12 </wgt>
<wgt id='1254'> +1.2502415e-12 </wgt>
<wgt id='1255'> +1.2850269e-12 </wgt>
<wgt id='1256'> +1.2778310e-12 </wgt>
<wgt id='1257'> +1.2570439e-12 </wgt>
<wgt id='1258'> +1.2892170e-12 </wgt>
<wgt id='1259'> +1.2548076e-12 </wgt>
<wgt id='1260'> +1.2772712e-12 </wgt>
<wgt id='1261'> +1.2658310e-12 </wgt>
<wgt id='1262'> +1.2757800e-12 </wgt>
<wgt id='1263'> +1.2701670e-12 </wgt>
<wgt id='1264'> +1.2837702e-12 </wgt>
<wgt id='1265'> +1.2662379e-12 </wgt>
<wgt id='1266'> +1.2662919e-12 </wgt>
<wgt id='1267'> +1.2785142e-12 </wgt>
<wgt id='1268'> +1.2726556e-12 </wgt>
<wgt id='1269'> +1.2757387e-12 </wgt>
<wgt id='1270'> +1.2627548e-12 </wgt>
<wgt id='1271'> +1.2656580e-12 </wgt>
<wgt id='1272'> +1.2724850e-12 </wgt>
<wgt id='1273'> +1.2711105e-12 </wgt>
<wgt id='1274'> +1.2723023e-12 </wgt>
<wgt id='1275'> +1.2700024e-12 </wgt>
<wgt id='1276'> +1.2737028e-12 </wgt>
<wgt id='1277'> +1.2692959e-12 </wgt>
<wgt id='1278'> +1.2710076e-12 </wgt>
<wgt id='1279'> +1.2681698e-12 </wgt>
<wgt id='1280'> +1.2732505e-12 </wgt>
<wgt id='1281'> +1.2658246e-12 </wgt>
<wgt id='1282'> +1.2719089e-12 </wgt>
<wgt id='1283'> +1.2593936e-12 </wgt>
<wgt id='1284'> +1.2641637e-12 </wgt>
<wgt id='1285'> +1.2684360e-12 </wgt>
<wgt id='1286'> +1.2755296e-12 </wgt>
<wgt id='1287'> +1.2784372e-12 </wgt>
<wgt id='1288'> +1.2809402e-12 </wgt>
<wgt id='1289'> +1.3937949e-12 </wgt>
<wgt id='1290'> +1.3959030e-12 </wgt>
<wgt id='1291'> +1.3915970e-12 </wgt>
<wgt id='1292'> +1.3944456e-12 </wgt>
<wgt id='1293'> +1.3933470e-12 </wgt>
<wgt id='1294'> +1.3938600e-12 </wgt>
<wgt id='1295'> +1.3937182e-12 </wgt>
<wgt id='1296'> +1.3883671e-12 </wgt>
<wgt id='1297'> +1.4005445e-12 </wgt>
<wgt id='1298'> +1.4031171e-12 </wgt>
<wgt id='1299'> +1.3822055e-12 </wgt>
<wgt id='1300'> +1.3984185e-12 </wgt>
<wgt id='1301'> +1.3845704e-12 </wgt>
<wgt id='1302'> +1.3922872e-12 </wgt>
<wgt id='1303'> +1.3959719e-12 </wgt>
<wgt id='1304'> +1.3884509e-12 </wgt>
<wgt id='1305'> +1.3974791e-12 </wgt>
<wgt id='1306'> +1.3833792e-12 </wgt>
<wgt id='1307'> +1.4055721e-12 </wgt>
<wgt id='1308'> +1.3924082e-12 </wgt>
<wgt id='1309'> +1.3948674e-12 </wgt>
<wgt id='1310'> +1.3900686e-12 </wgt>
<wgt id='1311'> +1.3979507e-12 </wgt>
<wgt id='1312'> +1.3853252e-12 </wgt>
<wgt id='1313'> +1.4026314e-12 </wgt>
<wgt id='1314'> +1.4045591e-12 </wgt>
<wgt id='1315'> +1.3753574e-12 </wgt>
<wgt id='1316'> +1.4004389e-12 </wgt>
<wgt id='1317'> +1.3944596e-12 </wgt>
<wgt id='1318'> +1.4084722e-12 </wgt>
<wgt id='1319'> +1.3766885e-12 </wgt>
<wgt id='1320'> +1.4022758e-12 </wgt>
<wgt id='1321'> +1.3859878e-12 </wgt>
<wgt id='1322'> +1.3954642e-12 </wgt>
<wgt id='1323'> +1.3914554e-12 </wgt>
<wgt id='1324'> +1.3924235e-12 </wgt>
<wgt id='1325'> +1.4015617e-12 </wgt>
<wgt id='1326'> +1.3974283e-12 </wgt>
<wgt id='1327'> +1.3932636e-12 </wgt>
<wgt id='1328'> +1.3926817e-12 </wgt>
<wgt id='1329'> +1.3947321e-12 </wgt>
<wgt id='1330'> +1.3930899e-12 </wgt>
<wgt id='1331'> +1.3952210e-12 </wgt>
<wgt id='1332'> +1.4213813e-12 </wgt>
<wgt id='1333'> +1.3837060e-12 </wgt>
<wgt id='1334'> +1.3920609e-12 </wgt>
<wgt id='1335'> +1.3988122e-12 </wgt>
<wgt id='1336'> +1.3878545e-12 </wgt>
<wgt id='1337'> +1.3926083e-12 </wgt>
<wgt id='1338'> +1.3920217e-12 </wgt>
<wgt id='1339'> +1.3944546e-12 </wgt>
<wgt id='1340'> +1.3581970e-12 </wgt>
<wgt id='1341'> +1.3603733e-12 </wgt>
<wgt id='1342'> +1.3559032e-12 </wgt>
<wgt id='1343'> +1.3588919e-12 </wgt>
<wgt id='1344'> +1.3577199e-12 </wgt>
<wgt id='1345'> +1.3580399e-12 </wgt>
<wgt id='1346'> +1.3583425e-12 </wgt>
<wgt id='1347'> +1.3528160e-12 </wgt>
<wgt id='1348'> +1.3641996e-12 </wgt>
<wgt id='1349'> +1.3668400e-12 </wgt>
<wgt id='1350'> +1.3497574e-12 </wgt>
<wgt id='1351'> +1.3627987e-12 </wgt>
<wgt id='1352'> +1.3481870e-12 </wgt>
<wgt id='1353'> +1.3557165e-12 </wgt>
<wgt id='1354'> +1.3625722e-12 </wgt>
<wgt id='1355'> +1.3528021e-12 </wgt>
<wgt id='1356'> +1.3612444e-12 </wgt>
<wgt id='1357'> +1.3469116e-12 </wgt>
<wgt id='1358'> +1.3715505e-12 </wgt>
<wgt id='1359'> +1.3593824e-12 </wgt>
<wgt id='1360'> +1.3571985e-12 </wgt>
<wgt id='1361'> +1.3543967e-12 </wgt>
<wgt id='1362'> +1.3633408e-12 </wgt>
<wgt id='1363'> +1.3461113e-12 </wgt>
<wgt id='1364'> +1.3669009e-12 </wgt>
<wgt id='1365'> +1.3427913e-12 </wgt>
<wgt id='1366'> +1.3674015e-12 </wgt>
<wgt id='1367'> +1.3640946e-12 </wgt>
<wgt id='1368'> +1.3585673e-12 </wgt>
<wgt id='1369'> +1.3703699e-12 </wgt>
<wgt id='1370'> +1.3438762e-12 </wgt>
<wgt id='1371'> +1.3652907e-12 </wgt>
<wgt id='1372'> +1.3492397e-12 </wgt>
<wgt id='1373'> +1.3594577e-12 </wgt>
<wgt id='1374'> +1.3565346e-12 </wgt>
<wgt id='1375'> +1.3567272e-12 </wgt>
<wgt id='1376'> +1.3663061e-12 </wgt>
<wgt id='1377'> +1.3615401e-12 </wgt>
<wgt id='1378'> +1.3583270e-12 </wgt>
<wgt id='1379'> +1.3569468e-12 </wgt>
<wgt id='1380'> +1.3594257e-12 </wgt>
<wgt id='1381'> +1.3588114e-12 </wgt>
<wgt id='1382'> +1.3579986e-12 </wgt>
<wgt id='1383'> +1.3836984e-12 </wgt>
<wgt id='1384'> +1.3489695e-12 </wgt>
<wgt id='1385'> +1.3568066e-12 </wgt>
<wgt id='1386'> +1.3618654e-12 </wgt>
<wgt id='1387'> +1.3509389e-12 </wgt>
<wgt id='1388'> +1.3568536e-12 </wgt>
<wgt id='1389'> +1.3548020e-12 </wgt>
<wgt id='1390'> +1.3591929e-12 </wgt>
<wgt id='1391'> +1.3388287e-12 </wgt>
<wgt id='1392'> +1.2889661e-12 </wgt>
<wgt id='1393'> +1.3057846e-12 </wgt>
<wgt id='1394'> +1.3226242e-12 </wgt>
<wgt id='1395'> +1.3548702e-12 </wgt>
<wgt id='1396'> +1.3386830e-12 </wgt>
<wgt id='1397'> +1.4022839e-12 </wgt>
<wgt id='1398'> +1.3874230e-12 </wgt>
<wgt id='1399'> +1.3740000e-12 </wgt>
<wgt id='1400'> +1.3616287e-12 </wgt>
<wgt id='1401'> +1.3498198e-12 </wgt>
<wgt id='1402'> +1.3285349e-12 </wgt>
<wgt id='1403'> +1.3191581e-12 </wgt>
<wgt id='1404'> +1.3103965e-12 </wgt>
<wgt id='1405'> +1.3386830e-12 </wgt>
<wgt id='1406'> +1.3295919e-12 </wgt>
<wgt id='1407'> +1.3343421e-12 </wgt>
<wgt id='1408'> +1.3427796e-12 </wgt>
<wgt id='1409'> +1.3462358e-12 </wgt>
<wgt id='1410'> +1.2585185e-12 </wgt>
<wgt id='1411'> +1.2602366e-12 </wgt>
<wgt id='1412'> +1.2563960e-12 </wgt>
<wgt id='1413'> +1.2622277e-12 </wgt>
<wgt id='1414'> +1.2548899e-12 </wgt>
<wgt id='1415'> +1.2605765e-12 </wgt>
<wgt id='1416'> +1.2577431e-12 </wgt>
<wgt id='1417'> +1.2509306e-12 </wgt>
<wgt id='1418'> +1.2662006e-12 </wgt>
<wgt id='1419'> +1.2626430e-12 </wgt>
<wgt id='1420'> +1.2545962e-12 </wgt>
<wgt id='1421'> +1.2376678e-12 </wgt>
<wgt id='1422'> +1.2676197e-12 </wgt>
<wgt id='1423'> +1.2584461e-12 </wgt>
<wgt id='1424'> +1.2586482e-12 </wgt>
<wgt id='1425'> +1.2521345e-12 </wgt>
<wgt id='1426'> +1.2654856e-12 </wgt>
<wgt id='1427'> +1.2457524e-12 </wgt>
<wgt id='1428'> +1.2654522e-12 </wgt>
<wgt id='1429'> +1.2559608e-12 </wgt>
<wgt id='1430'> +1.2620998e-12 </wgt>
<wgt id='1431'> +1.2591932e-12 </wgt>
<wgt id='1432'> +1.2580293e-12 </wgt>
<wgt id='1433'> +1.2699460e-12 </wgt>
<wgt id='1434'> +1.2463220e-12 </wgt>
<wgt id='1435'> +1.2643233e-12 </wgt>
<wgt id='1436'> +1.2446366e-12 </wgt>
<wgt id='1437'> +1.2668330e-12 </wgt>
<wgt id='1438'> +1.2567269e-12 </wgt>
<wgt id='1439'> +1.2500621e-12 </wgt>
<wgt id='1440'> +1.2788897e-12 </wgt>
<wgt id='1441'> +1.2606052e-12 </wgt>
<wgt id='1442'> +1.2548753e-12 </wgt>
<wgt id='1443'> +1.2559669e-12 </wgt>
<wgt id='1444'> +1.2652168e-12 </wgt>
<wgt id='1445'> +1.2659265e-12 </wgt>
<wgt id='1446'> +1.2566938e-12 </wgt>
<wgt id='1447'> +1.2593746e-12 </wgt>
<wgt id='1448'> +1.2599810e-12 </wgt>
<wgt id='1449'> +1.2577501e-12 </wgt>
<wgt id='1450'> +1.2589382e-12 </wgt>
<wgt id='1451'> +1.2554928e-12 </wgt>
<wgt id='1452'> +1.2616216e-12 </wgt>
<wgt id='1453'> +1.2596371e-12 </wgt>
<wgt id='1454'> +1.2522768e-12 </wgt>
<wgt id='1455'> +1.2533682e-12 </wgt>
<wgt id='1456'> +1.2592503e-12 </wgt>
<wgt id='1457'> +1.2581013e-12 </wgt>
<wgt id='1458'> +1.2585921e-12 </wgt>
<wgt id='1459'> +1.2626481e-12 </wgt>
<wgt id='1460'> +1.2545850e-12 </wgt>
<wgt id='1461'> +1.2585185e-12 </wgt>
<wgt id='1462'> +1.2498509e-12 </wgt>
<wgt id='1463'> +1.2675247e-12 </wgt>
<wgt id='1464'> +1.2596106e-12 </wgt>
<wgt id='1465'> +1.3158946e-12 </wgt>
<wgt id='1466'> +1.3025028e-12 </wgt>
<wgt id='1467'> +1.2904912e-12 </wgt>
<wgt id='1468'> +1.2807117e-12 </wgt>
<wgt id='1469'> +1.2692440e-12 </wgt>
<wgt id='1470'> +1.2514261e-12 </wgt>
<wgt id='1471'> +1.2419172e-12 </wgt>
<wgt id='1472'> +1.2336915e-12 </wgt>
<wgt id='1473'> +1.2596106e-12 </wgt>
<wgt id='1474'> +1.2510622e-12 </wgt>
<wgt id='1475'> +1.2558559e-12 </wgt>
<wgt id='1476'> +1.2631785e-12 </wgt>
<wgt id='1477'> +1.2662466e-12 </wgt>
<wgt id='1478'> +1.3078002e-12 </wgt>
<wgt id='1479'> +1.3081001e-12 </wgt>
<wgt id='1480'> +1.3039064e-12 </wgt>
<wgt id='1481'> +1.2959576e-12 </wgt>
<wgt id='1482'> +1.3133510e-12 </wgt>
<wgt id='1483'> +1.2985834e-12 </wgt>
<wgt id='1484'> +1.3072251e-12 </wgt>
<wgt id='1485'> +1.3245407e-12 </wgt>
<wgt id='1486'> +1.3075069e-12 </wgt>
<wgt id='1487'> +1.3115046e-12 </wgt>
<wgt id='1488'> +1.3022858e-12 </wgt>
<wgt id='1489'> +1.3375396e-12 </wgt>
<wgt id='1490'> +1.3093727e-12 </wgt>
<wgt id='1491'> +1.3120551e-12 </wgt>
<wgt id='1492'> +1.3048183e-12 </wgt>
<wgt id='1493'> +1.2935742e-12 </wgt>
<wgt id='1494'> +1.3089499e-12 </wgt>
<wgt id='1495'> +1.3166679e-12 </wgt>
<wgt id='1496'> +1.3067491e-12 </wgt>
<wgt id='1497'> +1.3118474e-12 </wgt>
<wgt id='1498'> +1.3062840e-12 </wgt>
<wgt id='1499'> +1.3118616e-12 </wgt>
<wgt id='1500'> +1.3074166e-12 </wgt>
<wgt id='1501'> +1.3065211e-12 </wgt>
<wgt id='1502'> +1.3079899e-12 </wgt>
<wgt id='1503'> +1.3100262e-12 </wgt>
<wgt id='1504'> +1.3084401e-12 </wgt>
<wgt id='1505'> +1.3088043e-12 </wgt>
<wgt id='1506'> +1.3099591e-12 </wgt>
<wgt id='1507'> +1.3073927e-12 </wgt>
<wgt id='1508'> +1.3154690e-12 </wgt>
<wgt id='1509'> +1.2274950e-12 </wgt>
<wgt id='1510'> +1.2245841e-12 </wgt>
<wgt id='1511'> +1.2303003e-12 </wgt>
<wgt id='1512'> +1.2298594e-12 </wgt>
<wgt id='1513'> +1.2256521e-12 </wgt>
<wgt id='1514'> +1.2266950e-12 </wgt>
<wgt id='1515'> +1.2274499e-12 </wgt>
<wgt id='1516'> +1.2289789e-12 </wgt>
<wgt id='1517'> +1.2336672e-12 </wgt>
<wgt id='1518'> +1.2214747e-12 </wgt>
<wgt id='1519'> +1.2274871e-12 </wgt>
<wgt id='1520'> +1.2392252e-12 </wgt>
<wgt id='1521'> +1.2339045e-12 </wgt>
<wgt id='1522'> +1.2410301e-12 </wgt>
<wgt id='1523'> +1.2270076e-12 </wgt>
<wgt id='1524'> +1.2257767e-12 </wgt>
<wgt id='1525'> +1.2196629e-12 </wgt>
<wgt id='1526'> +1.2307933e-12 </wgt>
<wgt id='1527'> +1.2357352e-12 </wgt>
<wgt id='1528'> +1.2256400e-12 </wgt>
<wgt id='1529'> +1.2327849e-12 </wgt>
<wgt id='1530'> +1.2170946e-12 </wgt>
<wgt id='1531'> +1.2275296e-12 </wgt>
<wgt id='1532'> +1.2334227e-12 </wgt>
<wgt id='1533'> +1.2247093e-12 </wgt>
<wgt id='1534'> +1.2213450e-12 </wgt>
<wgt id='1535'> +1.2380892e-12 </wgt>
<wgt id='1536'> +1.2300021e-12 </wgt>
<wgt id='1537'> +1.2285786e-12 </wgt>
<wgt id='1538'> +1.2293048e-12 </wgt>
<wgt id='1539'> +1.2234183e-12 </wgt>
<wgt id='1540'> +1.2233611e-12 </wgt>
<wgt id='1541'> +1.2258300e-12 </wgt>
<wgt id='1542'> +1.2251708e-12 </wgt>
<wgt id='1543'> +1.2289293e-12 </wgt>
<wgt id='1544'> +1.2290432e-12 </wgt>
<wgt id='1545'> +1.2259591e-12 </wgt>
<wgt id='1546'> +1.2297756e-12 </wgt>
<wgt id='1547'> +1.2252176e-12 </wgt>
<wgt id='1548'> +1.2309631e-12 </wgt>
<wgt id='1549'> +1.2293432e-12 </wgt>
<wgt id='1550'> +1.2251818e-12 </wgt>
<wgt id='1551'> +1.2291510e-12 </wgt>
<wgt id='1552'> +1.2283379e-12 </wgt>
<wgt id='1553'> +1.2238793e-12 </wgt>
<wgt id='1554'> +1.2215365e-12 </wgt>
<wgt id='1555'> +1.2230497e-12 </wgt>
<wgt id='1556'> +1.2304626e-12 </wgt>
<wgt id='1557'> +1.2242058e-12 </wgt>
<wgt id='1558'> +1.2308561e-12 </wgt>
<wgt id='1559'> +1.2262719e-12 </wgt>
<wgt id='1560'> +1.2251124e-12 </wgt>
<wgt id='1561'> +1.2310757e-12 </wgt>
<wgt id='1562'> +1.2275714e-12 </wgt>
<wgt id='1563'> +1.2275919e-12 </wgt>
<wgt id='1564'> +1.2295265e-12 </wgt>
<wgt id='1565'> +1.2273659e-12 </wgt>
<wgt id='1566'> +1.2244980e-12 </wgt>
<wgt id='1567'> +1.2238882e-12 </wgt>
<wgt id='1568'> +1.2286340e-12 </wgt>
<wgt id='1569'> +1.2257709e-12 </wgt>
<wgt id='1570'> +1.2319052e-12 </wgt>
<wgt id='1571'> +1.2266519e-12 </wgt>
<wgt id='1572'> +1.2293836e-12 </wgt>
<wgt id='1573'> +1.2283733e-12 </wgt>
<wgt id='1574'> +1.2268469e-12 </wgt>
<wgt id='1575'> +1.2267033e-12 </wgt>
<wgt id='1576'> +1.2297104e-12 </wgt>
<wgt id='1577'> +1.2264412e-12 </wgt>
<wgt id='1578'> +1.2265772e-12 </wgt>
<wgt id='1579'> +1.2283585e-12 </wgt>
<wgt id='1580'> +1.2301367e-12 </wgt>
<wgt id='1581'> +1.2263515e-12 </wgt>
<wgt id='1582'> +1.2269605e-12 </wgt>
<wgt id='1583'> +1.2277377e-12 </wgt>
<wgt id='1584'> +1.2288294e-12 </wgt>
<wgt id='1585'> +1.2275190e-12 </wgt>
<wgt id='1586'> +1.2299158e-12 </wgt>
<wgt id='1587'> +1.2269872e-12 </wgt>
<wgt id='1588'> +1.2254413e-12 </wgt>
<wgt id='1589'> +1.2266626e-12 </wgt>
<wgt id='1590'> +1.2274122e-12 </wgt>
<wgt id='1591'> +1.2266105e-12 </wgt>
<wgt id='1592'> +1.2292137e-12 </wgt>
<wgt id='1593'> +1.2277929e-12 </wgt>
<wgt id='1594'> +1.2268898e-12 </wgt>
<wgt id='1595'> +1.2259824e-12 </wgt>
<wgt id='1596'> +1.2256467e-12 </wgt>
<wgt id='1597'> +1.2274566e-12 </wgt>
<wgt id='1598'> +1.2274868e-12 </wgt>
<wgt id='1599'> +1.2272465e-12 </wgt>
<wgt id='1600'> +1.2249539e-12 </wgt>
<wgt id='1601'> +1.2278917e-12 </wgt>
<wgt id='1602'> +1.2276497e-12 </wgt>
<wgt id='1603'> +1.2288034e-12 </wgt>
<wgt id='1604'> +1.2268598e-12 </wgt>
<wgt id='1605'> +1.2291157e-12 </wgt>
<wgt id='1606'> +1.2262667e-12 </wgt>
<wgt id='1607'> +1.2270687e-12 </wgt>
<wgt id='1608'> +1.2273231e-12 </wgt>
<wgt id='1609'> +1.2287540e-12 </wgt>
<wgt id='1610'> +1.1945241e-12 </wgt>
<wgt id='1611'> +1.2593221e-12 </wgt>
<wgt id='1612'> +1.4561871e-12 </wgt>
<wgt id='1613'> +1.5328559e-12 </wgt>
<wgt id='1614'> +1.4716584e-12 </wgt>
<wgt id='1615'> +1.4586549e-12 </wgt>
<wgt id='1616'> +1.5381194e-12 </wgt>
<wgt id='1617'> +1.3525398e-12 </wgt>
<wgt id='1618'> +1.2847225e-12 </wgt>
<wgt id='1619'> +1.4583130e-12 </wgt>
<wgt id='1620'> +1.4969452e-12 </wgt>
<wgt id='1621'> +1.4402026e-12 </wgt>
<wgt id='1622'> +1.4322560e-12 </wgt>
<wgt id='1623'> +1.4795176e-12 </wgt>
<wgt id='1624'> +1.4321871e-12 </wgt>
<wgt id='1625'> +1.4980388e-12 </wgt>
<wgt id='1626'> +1.5335223e-12 </wgt>
<wgt id='1627'> +1.4481032e-12 </wgt>
<wgt id='1628'> +1.5014763e-12 </wgt>
<wgt id='1629'> +1.5013638e-12 </wgt>
<wgt id='1630'> +1.4663873e-12 </wgt>
<wgt id='1631'> +1.4613187e-12 </wgt>
<wgt id='1632'> +1.5822170e-12 </wgt>
<wgt id='1633'> +1.4651097e-12 </wgt>
<wgt id='1634'> +1.4660964e-12 </wgt>
<wgt id='1635'> +1.4385904e-12 </wgt>
<wgt id='1636'> +1.4118096e-12 </wgt>
<wgt id='1637'> +1.4088837e-12 </wgt>
<wgt id='1638'> +1.4610568e-12 </wgt>
<wgt id='1639'> +1.4898134e-12 </wgt>
<wgt id='1640'> +1.5405462e-12 </wgt>
<wgt id='1641'> +1.4559668e-12 </wgt>
<wgt id='1642'> +1.4979400e-12 </wgt>
<wgt id='1643'> +1.5283821e-12 </wgt>
<wgt id='1644'> +1.4185771e-12 </wgt>
<wgt id='1645'> +1.4925728e-12 </wgt>
<wgt id='1646'> +1.5299487e-12 </wgt>
<wgt id='1647'> +1.5227398e-12 </wgt>
<wgt id='1648'> +1.4331390e-12 </wgt>
<wgt id='1649'> +1.2981185e-12 </wgt>
<wgt id='1650'> +1.5168317e-12 </wgt>
<wgt id='1651'> +1.4420193e-12 </wgt>
<wgt id='1652'> +1.5420076e-12 </wgt>
<wgt id='1653'> +1.3707158e-12 </wgt>
<wgt id='1654'> +1.3735091e-12 </wgt>
<wgt id='1655'> +1.3938793e-12 </wgt>
<wgt id='1656'> +1.4988243e-12 </wgt>
<wgt id='1657'> +1.4257709e-12 </wgt>
<wgt id='1658'> +1.4708909e-12 </wgt>
<wgt id='1659'> +1.4321871e-12 </wgt>
<wgt id='1660'> +1.3778141e-12 </wgt>
<wgt id='1661'> +1.4407049e-12 </wgt>
<wgt id='1662'> +1.4523786e-12 </wgt>
<wgt id='1663'> +1.4561697e-12 </wgt>
<wgt id='1664'> +1.5376015e-12 </wgt>
<wgt id='1665'> +1.5354300e-12 </wgt>
<wgt id='1666'> +1.4363483e-12 </wgt>
<wgt id='1667'> +1.4267216e-12 </wgt>
<wgt id='1668'> +1.4231105e-12 </wgt>
<wgt id='1669'> +1.4509700e-12 </wgt>
<wgt id='1670'> +1.4781297e-12 </wgt>
<wgt id='1671'> +1.5192826e-12 </wgt>
<wgt id='1672'> +1.4491191e-12 </wgt>
<wgt id='1673'> +1.3828009e-12 </wgt>
<wgt id='1674'> +1.4756253e-12 </wgt>
<wgt id='1675'> +1.5365934e-12 </wgt>
<wgt id='1676'> +1.4324948e-12 </wgt>
<wgt id='1677'> +1.4591704e-12 </wgt>
<wgt id='1678'> +1.4686683e-12 </wgt>
<wgt id='1679'> +1.4580847e-12 </wgt>
<wgt id='1680'> +1.4361590e-12 </wgt>
<wgt id='1681'> +1.4842921e-12 </wgt>
<wgt id='1682'> +1.4394971e-12 </wgt>
<wgt id='1683'> +1.4280653e-12 </wgt>
<wgt id='1684'> +1.4530422e-12 </wgt>
<wgt id='1685'> +1.4545411e-12 </wgt>
<wgt id='1686'> +1.4913165e-12 </wgt>
<wgt id='1687'> +1.4960024e-12 </wgt>
<wgt id='1688'> +1.4876503e-12 </wgt>
<wgt id='1689'> +1.4092802e-12 </wgt>
<wgt id='1690'> +1.4179327e-12 </wgt>
<wgt id='1691'> +1.4513653e-12 </wgt>
<wgt id='1692'> +1.4424545e-12 </wgt>
<wgt id='1693'> +1.5160987e-12 </wgt>
<wgt id='1694'> +1.3957701e-12 </wgt>
<wgt id='1695'> +1.4759665e-12 </wgt>
<wgt id='1696'> +1.4969809e-12 </wgt>
<wgt id='1697'> +1.3377812e-12 </wgt>
<wgt id='1698'> +1.4412342e-12 </wgt>
<wgt id='1699'> +1.3949371e-12 </wgt>
<wgt id='1700'> +1.4597530e-12 </wgt>
<wgt id='1701'> +1.4482534e-12 </wgt>
<wgt id='1702'> +1.3878055e-12 </wgt>
<wgt id='1703'> +1.4767860e-12 </wgt>
<wgt id='1704'> +1.4495405e-12 </wgt>
<wgt id='1705'> +1.5175875e-12 </wgt>
<wgt id='1706'> +1.4013872e-12 </wgt>
<wgt id='1707'> +1.4342800e-12 </wgt>
<wgt id='1708'> +1.4122217e-12 </wgt>
<wgt id='1709'> +1.4706776e-12 </wgt>
<wgt id='1710'> +1.4518692e-12 </wgt>
<wgt id='1711'> +1.4326453e-12 </wgt>
<wgt id='1712'> +1.4438363e-12 </wgt>
<wgt id='1713'> +1.3122147e-12 </wgt>
<wgt id='1714'> +1.2655250e-12 </wgt>
<wgt id='1715'> +1.3085924e-12 </wgt>
<wgt id='1716'> +1.3000654e-12 </wgt>
<wgt id='1717'> +1.2914006e-12 </wgt>
<wgt id='1718'> +1.2789576e-12 </wgt>
<wgt id='1719'> +1.3209090e-12 </wgt>
<wgt id='1720'> +1.3320427e-12 </wgt>
<wgt id='1721'> +1.2994198e-12 </wgt>
<wgt id='1722'> +1.3018025e-12 </wgt>
<wgt id='1723'> +1.2771425e-12 </wgt>
<wgt id='1724'> +1.3155297e-12 </wgt>
<wgt id='1725'> +1.3355177e-12 </wgt>
<wgt id='1726'> +1.3338518e-12 </wgt>
<wgt id='1727'> +1.2774849e-12 </wgt>
<wgt id='1728'> +1.3102623e-12 </wgt>
<wgt id='1729'> +1.3255368e-12 </wgt>
<wgt id='1730'> +1.2833602e-12 </wgt>
<wgt id='1731'> +1.2827562e-12 </wgt>
<wgt id='1732'> +1.3255151e-12 </wgt>
<wgt id='1733'> +1.3164051e-12 </wgt>
<wgt id='1734'> +1.3236201e-12 </wgt>
<wgt id='1735'> +1.3159857e-12 </wgt>
<wgt id='1736'> +1.4189029e-12 </wgt>
<wgt id='1737'> +1.3103243e-12 </wgt>
<wgt id='1738'> +1.3349567e-12 </wgt>
<wgt id='1739'> +1.2799866e-12 </wgt>
<wgt id='1740'> +1.2699546e-12 </wgt>
<wgt id='1741'> +1.3112762e-12 </wgt>
<wgt id='1742'> +1.2897919e-12 </wgt>
<wgt id='1743'> +1.3370315e-12 </wgt>
<wgt id='1744'> +1.3175330e-12 </wgt>
<wgt id='1745'> +1.2673772e-12 </wgt>
<wgt id='1746'> +1.3421237e-12 </wgt>
<wgt id='1747'> +1.3342545e-12 </wgt>
<wgt id='1748'> +1.3078369e-12 </wgt>
<wgt id='1749'> +1.3436203e-12 </wgt>
<wgt id='1750'> +1.3300828e-12 </wgt>
<wgt id='1751'> +1.2923608e-12 </wgt>
<wgt id='1752'> +1.2631156e-12 </wgt>
<wgt id='1753'> +1.3409871e-12 </wgt>
<wgt id='1754'> +1.2992617e-12 </wgt>
<wgt id='1755'> +1.3318714e-12 </wgt>
<wgt id='1756'> +1.3390456e-12 </wgt>
<wgt id='1757'> +1.3086445e-12 </wgt>
<wgt id='1758'> +1.3467868e-12 </wgt>
<wgt id='1759'> +1.3151406e-12 </wgt>
<wgt id='1760'> +1.2861847e-12 </wgt>
<wgt id='1761'> +1.2817020e-12 </wgt>
<wgt id='1762'> +1.3179638e-12 </wgt>
<wgt id='1763'> +1.3192641e-12 </wgt>
<wgt id='1764'> +1.3213542e-12 </wgt>
<wgt id='1765'> +1.3098241e-12 </wgt>
<wgt id='1766'> +1.3439891e-12 </wgt>
<wgt id='1767'> +1.3111145e-12 </wgt>
<wgt id='1768'> +1.3140725e-12 </wgt>
<wgt id='1769'> +1.2767054e-12 </wgt>
<wgt id='1770'> +1.3542191e-12 </wgt>
<wgt id='1771'> +1.3124030e-12 </wgt>
<wgt id='1772'> +1.3262499e-12 </wgt>
<wgt id='1773'> +1.3052146e-12 </wgt>
<wgt id='1774'> +1.3215900e-12 </wgt>
<wgt id='1775'> +1.3153492e-12 </wgt>
<wgt id='1776'> +1.3382883e-12 </wgt>
<wgt id='1777'> +1.2895105e-12 </wgt>
<wgt id='1778'> +1.2923258e-12 </wgt>
<wgt id='1779'> +1.3321564e-12 </wgt>
<wgt id='1780'> +1.3542976e-12 </wgt>
<wgt id='1781'> +1.2917476e-12 </wgt>
<wgt id='1782'> +1.2690960e-12 </wgt>
<wgt id='1783'> +1.3279626e-12 </wgt>
<wgt id='1784'> +1.3456012e-12 </wgt>
<wgt id='1785'> +1.3023672e-12 </wgt>
<wgt id='1786'> +1.2337724e-12 </wgt>
<wgt id='1787'> +1.3295048e-12 </wgt>
<wgt id='1788'> +1.2933150e-12 </wgt>
<wgt id='1789'> +1.3026422e-12 </wgt>
<wgt id='1790'> +1.3415529e-12 </wgt>
<wgt id='1791'> +1.3603967e-12 </wgt>
<wgt id='1792'> +1.2966215e-12 </wgt>
<wgt id='1793'> +1.3262926e-12 </wgt>
<wgt id='1794'> +1.3144140e-12 </wgt>
<wgt id='1795'> +1.2980545e-12 </wgt>
<wgt id='1796'> +1.3061837e-12 </wgt>
<wgt id='1797'> +1.3173572e-12 </wgt>
<wgt id='1798'> +1.2742192e-12 </wgt>
<wgt id='1799'> +1.3122330e-12 </wgt>
<wgt id='1800'> +1.3053448e-12 </wgt>
<wgt id='1801'> +1.3041237e-12 </wgt>
<wgt id='1802'> +1.3285782e-12 </wgt>
<wgt id='1803'> +1.3121431e-12 </wgt>
<wgt id='1804'> +1.2713224e-12 </wgt>
<wgt id='1805'> +1.3375358e-12 </wgt>
<wgt id='1806'> +1.2919671e-12 </wgt>
<wgt id='1807'> +1.3465901e-12 </wgt>
<wgt id='1808'> +1.3011928e-12 </wgt>
<wgt id='1809'> +1.3123070e-12 </wgt>
<wgt id='1810'> +1.3079812e-12 </wgt>
<wgt id='1811'> +1.3565006e-12 </wgt>
<wgt id='1812'> +1.3377698e-12 </wgt>
<wgt id='1813'> +1.2942839e-12 </wgt>
<wgt id='1814'> +1.2758044e-12 </wgt>
<wgt id='1815'> +1.5086015e-12 </wgt>
<wgt id='1816'> +1.3122147e-12 </wgt>
<wgt id='1817'> +1.2655250e-12 </wgt>
<wgt id='1818'> +1.3085924e-12 </wgt>
<wgt id='1819'> +1.3000654e-12 </wgt>
<wgt id='1820'> +1.2914006e-12 </wgt>
<wgt id='1821'> +1.2789576e-12 </wgt>
<wgt id='1822'> +1.3209090e-12 </wgt>
<wgt id='1823'> +1.3320427e-12 </wgt>
<wgt id='1824'> +1.2994198e-12 </wgt>
<wgt id='1825'> +1.3018025e-12 </wgt>
<wgt id='1826'> +1.2771425e-12 </wgt>
<wgt id='1827'> +1.3155297e-12 </wgt>
<wgt id='1828'> +1.3355177e-12 </wgt>
<wgt id='1829'> +1.3338518e-12 </wgt>
<wgt id='1830'> +1.2774849e-12 </wgt>
<wgt id='1831'> +1.3102623e-12 </wgt>
<wgt id='1832'> +1.3255368e-12 </wgt>
<wgt id='1833'> +1.2833602e-12 </wgt>
<wgt id='1834'> +1.2827562e-12 </wgt>
<wgt id='1835'> +1.3255151e-12 </wgt>
<wgt id='1836'> +1.3164051e-12 </wgt>
<wgt id='1837'> +1.3236201e-12 </wgt>
<wgt id='1838'> +1.3159857e-12 </wgt>
<wgt id='1839'> +1.4189029e-12 </wgt>
<wgt id='1840'> +1.3103243e-12 </wgt>
<wgt id='1841'> +1.3349567e-12 </wgt>
<wgt id='1842'> +1.2799866e-12 </wgt>
<wgt id='1843'> +1.2699546e-12 </wgt>
<wgt id='1844'> +1.3112762e-12 </wgt>
<wgt id='1845'> +1.2897919e-12 </wgt>
<wgt id='1846'> +1.3370315e-12 </wgt>
<wgt id='1847'> +1.3175330e-12 </wgt>
<wgt id='1848'> +1.2673772e-12 </wgt>
<wgt id='1849'> +1.3421237e-12 </wgt>
<wgt id='1850'> +1.3342545e-12 </wgt>
<wgt id='1851'> +1.3078369e-12 </wgt>
<wgt id='1852'> +1.3436203e-12 </wgt>
<wgt id='1853'> +1.3300828e-12 </wgt>
<wgt id='1854'> +1.2923608e-12 </wgt>
<wgt id='1855'> +1.2631156e-12 </wgt>
<wgt id='1856'> +1.3409871e-12 </wgt>
<wgt id='1857'> +1.2992617e-12 </wgt>
<wgt id='1858'> +1.3318714e-12 </wgt>
<wgt id='1859'> +1.3390456e-12 </wgt>
<wgt id='1860'> +1.3086445e-12 </wgt>
<wgt id='1861'> +1.3467868e-12 </wgt>
<wgt id='1862'> +1.3151406e-12 </wgt>
<wgt id='1863'> +1.2861847e-12 </wgt>
<wgt id='1864'> +1.2817020e-12 </wgt>
<wgt id='1865'> +1.3179638e-12 </wgt>
<wgt id='1866'> +1.3192641e-12 </wgt>
<wgt id='1867'> +1.3213542e-12 </wgt>
<wgt id='1868'> +1.3098241e-12 </wgt>
<wgt id='1869'> +1.3439891e-12 </wgt>
<wgt id='1870'> +1.3111145e-12 </wgt>
<wgt id='1871'> +1.3140725e-12 </wgt>
<wgt id='1872'> +1.2767054e-12 </wgt>
<wgt id='1873'> +1.3542191e-12 </wgt>
<wgt id='1874'> +1.3124030e-12 </wgt>
<wgt id='1875'> +1.3262499e-12 </wgt>
<wgt id='1876'> +1.3052146e-12 </wgt>
<wgt id='1877'> +1.3215900e-12 </wgt>
<wgt id='1878'> +1.3153492e-12 </wgt>
<wgt id='1879'> +1.3382883e-12 </wgt>
<wgt id='1880'> +1.2895105e-12 </wgt>
<wgt id='1881'> +1.2923258e-12 </wgt>
<wgt id='1882'> +1.3321564e-12 </wgt>
<wgt id='1883'> +1.3542976e-12 </wgt>
<wgt id='1884'> +1.2917476e-12 </wgt>
<wgt id='1885'> +1.2690960e-12 </wgt>
<wgt id='1886'> +1.3279626e-12 </wgt>
<wgt id='1887'> +1.3456012e-12 </wgt>
<wgt id='1888'> +1.3023672e-12 </wgt>
<wgt id='1889'> +1.2337724e-12 </wgt>
<wgt id='1890'> +1.3295048e-12 </wgt>
<wgt id='1891'> +1.2933150e-12 </wgt>
<wgt id='1892'> +1.3026422e-12 </wgt>
<wgt id='1893'> +1.3415529e-12 </wgt>
<wgt id='1894'> +1.3603967e-12 </wgt>
<wgt id='1895'> +1.2966215e-12 </wgt>
<wgt id='1896'> +1.3262926e-12 </wgt>
<wgt id='1897'> +1.3144140e-12 </wgt>
<wgt id='1898'> +1.2980545e-12 </wgt>
<wgt id='1899'> +1.3061837e-12 </wgt>
<wgt id='1900'> +1.3173572e-12 </wgt>
<wgt id='1901'> +1.2742192e-12 </wgt>
<wgt id='1902'> +1.3122330e-12 </wgt>
<wgt id='1903'> +1.3053448e-12 </wgt>
<wgt id='1904'> +1.3041237e-12 </wgt>
<wgt id='1905'> +1.3285782e-12 </wgt>
<wgt id='1906'> +1.3121431e-12 </wgt>
<wgt id='1907'> +1.2713224e-12 </wgt>
<wgt id='1908'> +1.3375358e-12 </wgt>
<wgt id='1909'> +1.2919671e-12 </wgt>
<wgt id='1910'> +1.3465901e-12 </wgt>
<wgt id='1911'> +1.3011928e-12 </wgt>
<wgt id='1912'> +1.3123070e-12 </wgt>
<wgt id='1913'> +1.3079812e-12 </wgt>
<wgt id='1914'> +1.3565006e-12 </wgt>
<wgt id='1915'> +1.3377698e-12 </wgt>
<wgt id='1916'> +1.2942839e-12 </wgt>
<wgt id='1917'> +1.2919282e-12 </wgt>
<wgt id='1918'> +1.3254107e-12 </wgt>
<wgt id='1919'> +1.3040468e-12 </wgt>
</rwgt>
</event>
<event>
 9      1 +1.5607000e-12 4.43956500e+01 7.81860800e-03 1.34113600e-01
       21 -1    0    0  501  502 +0.0000000000e+00 +0.0000000000e+00 +5.0136243533e+01 5.0136243533e+01 0.0000000000e+00 0.0000e+00 1.0000e+00
       -1 -1    0    0    0  501 -0.0000000000e+00 -0.0000000000e+00 -2.0021042902e+02 2.0021042902e+02 0.0000000000e+00 0.0000e+00 1.0000e+00
     1023  2    1    2    0    0 -1.0173005095e+01 -4.0527639095e+01 -1.8845267526e+02 1.9361142741e+02 1.4999814859e+01 0.0000e+00 0.0000e+00
  1000023  2    3    3    0    0 -5.8303948174e+00 -1.5283636116e+01 -9.6314568359e+01 9.7848445550e+01 5.4990164322e+00 0.0000e+00 0.0000e+00
       -1  1    1    2    0  502 +1.0173005095e+01 +4.0527639095e+01 +3.8378489781e+01 5.6735245140e+01 0.0000000000e+00 0.0000e+00 1.0000e+00
  1000022  1    4    4    0    0 -5.3526118973e+00 -1.3244322286e+01 -8.6169126547e+01 8.7488175754e+01 5.0000000000e+00 0.0000e+00 1.0000e+00
      -11  1    4    4    0    0 -4.5813307681e-03 -3.0304648706e-02 -8.6864792026e-02 9.2114676027e-02 5.1100000000e-04 0.0000e+00 -1.0000e+00
       11  1    4    4    0    0 -4.7320158937e-01 -2.0090091812e+00 -1.0058577020e+01 1.0268155120e+01 5.1100000000e-04 0.0000e+00 1.0000e+00
  1000022  1    3    3    0    0 -4.3426102773e+00 -2.5244002979e+01 -9.2138106906e+01 9.5762981859e+01 5.0000000000e+00 0.0000e+00 1.0000e+00
<mgrwt>
<rscale>  1 0.44395653E+02</rscale>
<asrwt>0</asrwt>
<pdfrwt beam="1">  1       21 0.77132683E-02 0.44395653E+02</pdfrwt>
<pdfrwt beam="2">  1       -1 0.30801604E-01 0.44395653E+02</pdfrwt>
<totfact> 0.13224705E+05</totfact>
</mgrwt>
<rwgt>
<wgt id='1001'> +1.5607000e-12 </wgt>
<wgt id='1002'> +1.4732718e-12 </wgt>
<wgt id='1003'> +1.4711527e-12 </wgt>
<wgt id='1004'> +1.5662800e-12 </wgt>
<wgt id='1005'> +1.3516712e-12 </wgt>
<wgt id='1006'> +1.3793238e-12 </wgt>
<wgt id='1007'> +1.3194657e-12 </wgt>
<wgt id='1008'> +1.3179370e-12 </wgt>
<wgt id='1009'> +1.3828745e-12 </wgt>
<wgt id='1010'> +1.2277354e-12 </wgt>
<wgt id='1011'> +1.7994812e-12 </wgt>
<wgt id='1012'> +1.6692684e-12 </wgt>
<wgt id='1013'> +1.6662662e-12 </wgt>
<wgt id='1014'> +1.8083556e-12 </wgt>
<wgt id='1015'> +1.5043895e-12 </wgt>
<wgt id='1016'> +1.6578755e-12 </wgt>
<wgt id='1017'> +1.5366185e-12 </wgt>
<wgt id='1018'> +1.5338585e-12 </wgt>
<wgt id='1019'> +1.6662662e-12 </wgt>
<wgt id='1020'> +1.3864829e-12 </wgt>
<wgt id='1021'> +1.4652061e-12 </wgt>
<wgt id='1022'> +1.3761991e-12 </wgt>
<wgt id='1023'> +1.3741122e-12 </wgt>
<wgt id='1024'> +1.4711527e-12 </wgt>
<wgt id='1025'> +1.2593552e-12 </wgt>
<wgt id='1026'> +1.9115242e-12 </wgt>
<wgt id='1027'> +1.7410425e-12 </wgt>
<wgt id='1028'> +1.7372885e-12 </wgt>
<wgt id='1029'> +1.9237952e-12 </wgt>
<wgt id='1030'> +1.5431344e-12 </wgt>
<wgt id='1031'> +1.4254033e-12 </wgt>
<wgt id='1032'> +1.3841223e-12 </wgt>
<wgt id='1033'> +1.3828745e-12 </wgt>
<wgt id='1034'> +1.4271367e-12 </wgt>
<wgt id='1035'> +1.3012037e-12 </wgt>
<wgt id='1036'> +1.2597506e-12 </wgt>
<wgt id='1037'> +1.2396231e-12 </wgt>
<wgt id='1038'> +1.2388527e-12 </wgt>
<wgt id='1039'> +1.2600243e-12 </wgt>
<wgt id='1040'> +1.1818954e-12 </wgt>
<wgt id='1041'> +1.6434846e-12 </wgt>
<wgt id='1042'> +1.5682589e-12 </wgt>
<wgt id='1043'> +1.5662800e-12 </wgt>
<wgt id='1044'> +1.6477071e-12 </wgt>
<wgt id='1045'> +1.4482200e-12 </wgt>
<wgt id='1046'> +1.5607000e-12 </wgt>
<wgt id='1047'> +1.7100712e-12 </wgt>
<wgt id='1048'> +1.5448515e-12 </wgt>
<wgt id='1049'> +1.5855934e-12 </wgt>
<wgt id='1050'> +1.6051539e-12 </wgt>
<wgt id='1051'> +1.5290115e-12 </wgt>
<wgt id='1052'> +1.5665651e-12 </wgt>
<wgt id='1053'> +1.5550324e-12 </wgt>
<wgt id='1054'> +1.5125883e-12 </wgt>
<wgt id='1055'> +1.5176321e-12 </wgt>
<wgt id='1056'> +1.5679012e-12 </wgt>
<wgt id='1057'> +1.5689816e-12 </wgt>
<wgt id='1058'> +1.5053302e-12 </wgt>
<wgt id='1059'> +1.5403175e-12 </wgt>
<wgt id='1060'> +1.5394573e-12 </wgt>
<wgt id='1061'> +1.5671019e-12 </wgt>
<wgt id='1062'> +1.5500874e-12 </wgt>
<wgt id='1063'> +1.6117298e-12 </wgt>
<wgt id='1064'> +1.5620271e-12 </wgt>
<wgt id='1065'> +1.5816291e-12 </wgt>
<wgt id='1066'> +1.5219946e-12 </wgt>
<wgt id='1067'> +1.5358770e-12 </wgt>
<wgt id='1068'> +1.6141979e-12 </wgt>
<wgt id='1069'> +1.5828469e-12 </wgt>
<wgt id='1070'> +1.5404844e-12 </wgt>
<wgt id='1071'> +1.5120250e-12 </wgt>
<wgt id='1072'> +1.5651005e-12 </wgt>
<wgt id='1073'> +1.7095791e-12 </wgt>
<wgt id='1074'> +1.5288779e-12 </wgt>
<wgt id='1075'> +1.5562097e-12 </wgt>
<wgt id='1076'> +1.5630224e-12 </wgt>
<wgt id='1077'> +1.5884278e-12 </wgt>
<wgt id='1078'> +1.5240076e-12 </wgt>
<wgt id='1079'> +1.6492838e-12 </wgt>
<wgt id='1080'> +1.4967403e-12 </wgt>
<wgt id='1081'> +1.6179534e-12 </wgt>
<wgt id='1082'> +1.5559408e-12 </wgt>
<wgt id='1083'> +1.6056037e-12 </wgt>
<wgt id='1084'> +1.5542387e-12 </wgt>
<wgt id='1085'> +1.5045503e-12 </wgt>
<wgt id='1086'> +1.5584830e-12 </wgt>
<wgt id='1087'> +1.6063500e-12 </wgt>
<wgt id='1088'> +1.5254879e-12 </wgt>
<wgt id='1089'> +1.6229127e-12 </wgt>
<wgt id='1090'> +1.5706104e-12 </wgt>
<wgt id='1091'> +1.5618408e-12 </wgt>
<wgt id='1092'> +1.5887053e-12 </wgt>
<wgt id='1093'> +1.5401294e-12 </wgt>
<wgt id='1094'> +1.4992262e-12 </wgt>
<wgt id='1095'> +1.5457056e-12 </wgt>
<wgt id='1096'> +1.6022367e-12 </wgt>
<wgt id='1097'> +1.5180050e-12 </wgt>
<wgt id='1098'> +1.5374872e-12 </wgt>
<wgt id='1099'> +1.5492911e-12 </wgt>
<wgt id='1100'> +1.5944022e-12 </wgt>
<wgt id='1101'> +1.6310876e-12 </wgt>
<wgt id='1102'> +1.5691735e-12 </wgt>
<wgt id='1103'> +1.6037759e-12 </wgt>
<wgt id='1104'> +1.5486593e-12 </wgt>
<wgt id='1105'> +1.5546141e-12 </wgt>
<wgt id='1106'> +1.6103093e-12 </wgt>
<wgt id='1107'> +1.5893968e-12 </wgt>
<wgt id='1108'> +1.5444216e-12 </wgt>
<wgt id='1109'> +1.5955951e-12 </wgt>
<wgt id='1110'> +1.5537673e-12 </wgt>
<wgt id='1111'> +1.6145047e-12 </wgt>
<wgt id='1112'> +1.5155494e-12 </wgt>
<wgt id='1113'> +1.6199288e-12 </wgt>
<wgt id='1114'> +1.5677363e-12 </wgt>
<wgt id='1115'> +1.5182901e-12 </wgt>
<wgt id='1116'> +1.5018714e-12 </wgt>
<wgt id='1117'> +1.5890444e-12 </wgt>
<wgt id='1118'> +1.5072624e-12 </wgt>
<wgt id='1119'> +1.4866576e-12 </wgt>
<wgt id='1120'> +1.5565539e-12 </wgt>
<wgt id='1121'> +1.4734753e-12 </wgt>
<wgt id='1122'> +1.6401341e-12 </wgt>
<wgt id='1123'> +1.5811714e-12 </wgt>
<wgt id='1124'> +1.5578785e-12 </wgt>
<wgt id='1125'> +1.5384478e-12 </wgt>
<wgt id='1126'> +1.5558849e-12 </wgt>
<wgt id='1127'> +1.5834945e-12 </wgt>
<wgt id='1128'> +1.5500874e-12 </wgt>
<wgt id='1129'> +1.5518961e-12 </wgt>
<wgt id='1130'> +1.5347223e-12 </wgt>
<wgt id='1131'> +1.5600159e-12 </wgt>
<wgt id='1132'> +1.5297177e-12 </wgt>
<wgt id='1133'> +1.5294833e-12 </wgt>
<wgt id='1134'> +1.6028087e-12 </wgt>
<wgt id='1135'> +1.4056222e-12 </wgt>
<wgt id='1136'> +1.5175642e-12 </wgt>
<wgt id='1137'> +1.5667411e-12 </wgt>
<wgt id='1138'> +1.4591769e-12 </wgt>
<wgt id='1139'> +1.5139167e-12 </wgt>
<wgt id='1140'> +1.5585097e-12 </wgt>
<wgt id='1141'> +1.5828284e-12 </wgt>
<wgt id='1142'> +1.5375987e-12 </wgt>
<wgt id='1143'> +1.6120388e-12 </wgt>
<wgt id='1144'> +1.5762952e-12 </wgt>
<wgt id='1145'> +1.5797363e-12 </wgt>
<wgt id='1146'> +1.6082899e-12 </wgt>
<wgt id='1147'> +1.2874350e-12 </wgt>
<wgt id='1148'> +1.3009029e-12 </wgt>
<wgt id='1149'> +1.3145419e-12 </wgt>
<wgt id='1150'> +1.3423802e-12 </wgt>
<wgt id='1151'> +1.3335722e-12 </wgt>
<wgt id='1152'> +1.5492463e-12 </wgt>
<wgt id='1153'> +1.5418885e-12 </wgt>
<wgt id='1154'> +1.5535271e-12 </wgt>
<wgt id='1155'> +1.5525959e-12 </wgt>
<wgt id='1156'> +1.5475687e-12 </wgt>
<wgt id='1157'> +1.5561921e-12 </wgt>
<wgt id='1158'> +1.5398174e-12 </wgt>
<wgt id='1159'> +1.5545376e-12 </wgt>
<wgt id='1160'> +1.5458935e-12 </wgt>
<wgt id='1161'> +1.5457647e-12 </wgt>
<wgt id='1162'> +1.5515985e-12 </wgt>
<wgt id='1163'> +1.5524239e-12 </wgt>
<wgt id='1164'> +1.5460576e-12 </wgt>
<wgt id='1165'> +1.5503685e-12 </wgt>
<wgt id='1166'> +1.5479302e-12 </wgt>
<wgt id='1167'> +1.5422017e-12 </wgt>
<wgt id='1168'> +1.5552223e-12 </wgt>
<wgt id='1169'> +1.5442315e-12 </wgt>
<wgt id='1170'> +1.5529841e-12 </wgt>
<wgt id='1171'> +1.5489813e-12 </wgt>
<wgt id='1172'> +1.5493446e-12 </wgt>
<wgt id='1173'> +1.5309832e-12 </wgt>
<wgt id='1174'> +1.5671309e-12 </wgt>
<wgt id='1175'> +1.5542942e-12 </wgt>
<wgt id='1176'> +1.5441002e-12 </wgt>
<wgt id='1177'> +1.5490420e-12 </wgt>
<wgt id='1178'> +1.5502425e-12 </wgt>
<wgt id='1179'> +1.5541773e-12 </wgt>
<wgt id='1180'> +1.5370494e-12 </wgt>
<wgt id='1181'> +1.5423795e-12 </wgt>
<wgt id='1182'> +1.5556620e-12 </wgt>
<wgt id='1183'> +1.5506551e-12 </wgt>
<wgt id='1184'> +1.5492988e-12 </wgt>
<wgt id='1185'> +1.5466619e-12 </wgt>
<wgt id='1186'> +1.5518548e-12 </wgt>
<wgt id='1187'> +1.5490535e-12 </wgt>
<wgt id='1188'> +1.5493419e-12 </wgt>
<wgt id='1189'> +1.5517414e-12 </wgt>
<wgt id='1190'> +1.5376648e-12 </wgt>
<wgt id='1191'> +1.5348389e-12 </wgt>
<wgt id='1192'> +1.5540903e-12 </wgt>
<wgt id='1193'> +1.3629552e-12 </wgt>
<wgt id='1194'> +1.3655564e-12 </wgt>
<wgt id='1195'> +1.3607511e-12 </wgt>
<wgt id='1196'> +1.3723827e-12 </wgt>
<wgt id='1197'> +1.3523698e-12 </wgt>
<wgt id='1198'> +1.3605573e-12 </wgt>
<wgt id='1199'> +1.3663440e-12 </wgt>
<wgt id='1200'> +1.3702752e-12 </wgt>
<wgt id='1201'> +1.3579543e-12 </wgt>
<wgt id='1202'> +1.3638154e-12 </wgt>
<wgt id='1203'> +1.3616474e-12 </wgt>
<wgt id='1204'> +1.3663827e-12 </wgt>
<wgt id='1205'> +1.3606981e-12 </wgt>
<wgt id='1206'> +1.3661449e-12 </wgt>
<wgt id='1207'> +1.3585490e-12 </wgt>
<wgt id='1208'> +1.3587840e-12 </wgt>
<wgt id='1209'> +1.3644312e-12 </wgt>
<wgt id='1210'> +1.3700188e-12 </wgt>
<wgt id='1211'> +1.3504194e-12 </wgt>
<wgt id='1212'> +1.3661481e-12 </wgt>
<wgt id='1213'> +1.3597482e-12 </wgt>
<wgt id='1214'> +1.3542160e-12 </wgt>
<wgt id='1215'> +1.3775185e-12 </wgt>
<wgt id='1216'> +1.3769953e-12 </wgt>
<wgt id='1217'> +1.3540501e-12 </wgt>
<wgt id='1218'> +1.3690095e-12 </wgt>
<wgt id='1219'> +1.3599493e-12 </wgt>
<wgt id='1220'> +1.3625042e-12 </wgt>
<wgt id='1221'> +1.3652078e-12 </wgt>
<wgt id='1222'> +1.3657470e-12 </wgt>
<wgt id='1223'> +1.3535162e-12 </wgt>
<wgt id='1224'> +1.3646432e-12 </wgt>
<wgt id='1225'> +1.3623474e-12 </wgt>
<wgt id='1226'> +1.3584334e-12 </wgt>
<wgt id='1227'> +1.3661897e-12 </wgt>
<wgt id='1228'> +1.3628897e-12 </wgt>
<wgt id='1229'> +1.3625020e-12 </wgt>
<wgt id='1230'> +1.3637141e-12 </wgt>
<wgt id='1231'> +1.3496473e-12 </wgt>
<wgt id='1232'> +1.3645999e-12 </wgt>
<wgt id='1233'> +1.3623959e-12 </wgt>
<wgt id='1234'> +1.3629552e-12 </wgt>
<wgt id='1235'> +1.3569625e-12 </wgt>
<wgt id='1236'> +1.3591914e-12 </wgt>
<wgt id='1237'> +1.3612049e-12 </wgt>
<wgt id='1238'> +1.3646556e-12 </wgt>
<wgt id='1239'> +1.3660897e-12 </wgt>
<wgt id='1240'> +1.3673354e-12 </wgt>
<wgt id='1241'> +1.3090637e-12 </wgt>
<wgt id='1242'> +1.3092341e-12 </wgt>
<wgt id='1243'> +1.3088922e-12 </wgt>
<wgt id='1244'> +1.3012820e-12 </wgt>
<wgt id='1245'> +1.3148744e-12 </wgt>
<wgt id='1246'> +1.3130734e-12 </wgt>
<wgt id='1247'> +1.3056998e-12 </wgt>
<wgt id='1248'> +1.3090532e-12 </wgt>
<wgt id='1249'> +1.3090321e-12 </wgt>
<wgt id='1250'> +1.3165333e-12 </wgt>
<wgt id='1251'> +1.3038330e-12 </wgt>
<wgt id='1252'> +1.3054655e-12 </wgt>
<wgt id='1253'> +1.3118951e-12 </wgt>
<wgt id='1254'> +1.3083009e-12 </wgt>
<wgt id='1255'> +1.3095234e-12 </wgt>
<wgt id='1256'> +1.3108375e-12 </wgt>
<wgt id='1257'> +1.3047342e-12 </wgt>
<wgt id='1258'> +1.3260099e-12 </wgt>
<wgt id='1259'> +1.2948891e-12 </wgt>
<wgt id='1260'> +1.3092925e-12 </wgt>
<wgt id='1261'> +1.3090303e-12 </wgt>
<wgt id='1262'> +1.3185270e-12 </wgt>
<wgt id='1263'> +1.3051006e-12 </wgt>
<wgt id='1264'> +1.3131036e-12 </wgt>
<wgt id='1265'> +1.3069373e-12 </wgt>
<wgt id='1266'> +1.3001550e-12 </wgt>
<wgt id='1267'> +1.3152957e-12 </wgt>
<wgt id='1268'> +1.3149364e-12 </wgt>
<wgt id='1269'> +1.3030610e-12 </wgt>
<wgt id='1270'> +1.3055934e-12 </wgt>
<wgt id='1271'> +1.3050038e-12 </wgt>
<wgt id='1272'> +1.3056316e-12 </wgt>
<wgt id='1273'> +1.3097238e-12 </wgt>
<wgt id='1274'> +1.3120700e-12 </wgt>
<wgt id='1275'> +1.3042847e-12 </wgt>
<wgt id='1276'> +1.3063759e-12 </wgt>
<wgt id='1277'> +1.3107650e-12 </wgt>
<wgt id='1278'> +1.3029084e-12 </wgt>
<wgt id='1279'> +1.3045483e-12 </wgt>
<wgt id='1280'> +1.3076616e-12 </wgt>
<wgt id='1281'> +1.3139357e-12 </wgt>
<wgt id='1282'> +1.3090637e-12 </wgt>
<wgt id='1283'> +1.3029139e-12 </wgt>
<wgt id='1284'> +1.3051629e-12 </wgt>
<wgt id='1285'> +1.3072991e-12 </wgt>
<wgt id='1286'> +1.3107172e-12 </wgt>
<wgt id='1287'> +1.3121335e-12 </wgt>
<wgt id='1288'> +1.3132319e-12 </wgt>
<wgt id='1289'> +1.4087397e-12 </wgt>
<wgt id='1290'> +1.4020478e-12 </wgt>
<wgt id='1291'> +1.4160107e-12 </wgt>
<wgt id='1292'> +1.4056249e-12 </wgt>
<wgt id='1293'> +1.4110211e-12 </wgt>
<wgt id='1294'> +1.4030876e-12 </wgt>
<wgt id='1295'> +1.4142939e-12 </wgt>
<wgt id='1296'> +1.4062070e-12 </wgt>
<wgt id='1297'> +1.4118708e-12 </wgt>
<wgt id='1298'> +1.4052002e-12 </wgt>
<wgt id='1299'> +1.4132622e-12 </wgt>
<wgt id='1300'> +1.4080131e-12 </wgt>
<wgt id='1301'> +1.4103033e-12 </wgt>
<wgt id='1302'> +1.4107835e-12 </wgt>
<wgt id='1303'> +1.4060119e-12 </wgt>
<wgt id='1304'> +1.4001870e-12 </wgt>
<wgt id='1305'> +1.4147186e-12 </wgt>
<wgt id='1306'> +1.4091906e-12 </wgt>
<wgt id='1307'> +1.4083729e-12 </wgt>
<wgt id='1308'> +1.3966439e-12 </wgt>
<wgt id='1309'> +1.4179709e-12 </wgt>
<wgt id='1310'> +1.4082570e-12 </wgt>
<wgt id='1311'> +1.4094103e-12 </wgt>
<wgt id='1312'> +1.4041633e-12 </wgt>
<wgt id='1313'> +1.4135502e-12 </wgt>
<wgt id='1314'> +1.4129770e-12 </wgt>
<wgt id='1315'> +1.4020590e-12 </wgt>
<wgt id='1316'> +1.4111152e-12 </wgt>
<wgt id='1317'> +1.4099225e-12 </wgt>
<wgt id='1318'> +1.4133250e-12 </wgt>
<wgt id='1319'> +1.4034608e-12 </wgt>
<wgt id='1320'> +1.4400447e-12 </wgt>
<wgt id='1321'> +1.3859945e-12 </wgt>
<wgt id='1322'> +1.4133267e-12 </wgt>
<wgt id='1323'> +1.4024818e-12 </wgt>
<wgt id='1324'> +1.4094706e-12 </wgt>
<wgt id='1325'> +1.4093809e-12 </wgt>
<wgt id='1326'> +1.4079317e-12 </wgt>
<wgt id='1327'> +1.4106444e-12 </wgt>
<wgt id='1328'> +1.4070834e-12 </wgt>
<wgt id='1329'> +1.4101774e-12 </wgt>
<wgt id='1330'> +1.3876929e-12 </wgt>
<wgt id='1331'> +1.4402837e-12 </wgt>
<wgt id='1332'> +1.4220469e-12 </wgt>
<wgt id='1333'> +1.3974149e-12 </wgt>
<wgt id='1334'> +1.4001446e-12 </wgt>
<wgt id='1335'> +1.4326415e-12 </wgt>
<wgt id='1336'> +1.4068923e-12 </wgt>
<wgt id='1337'> +1.4016340e-12 </wgt>
<wgt id='1338'> +1.4145364e-12 </wgt>
<wgt id='1339'> +1.4073083e-12 </wgt>
<wgt id='1340'> +1.3962573e-12 </wgt>
<wgt id='1341'> +1.3895484e-12 </wgt>
<wgt id='1342'> +1.4034833e-12 </wgt>
<wgt id='1343'> +1.3929237e-12 </wgt>
<wgt id='1344'> +1.3985268e-12 </wgt>
<wgt id='1345'> +1.3908962e-12 </wgt>
<wgt id='1346'> +1.4013813e-12 </wgt>
<wgt id='1347'> +1.3939611e-12 </wgt>
<wgt id='1348'> +1.3988154e-12 </wgt>
<wgt id='1349'> +1.3929279e-12 </wgt>
<wgt id='1350'> +1.3996181e-12 </wgt>
<wgt id='1351'> +1.3953388e-12 </wgt>
<wgt id='1352'> +1.3983933e-12 </wgt>
<wgt id='1353'> +1.3980733e-12 </wgt>
<wgt id='1354'> +1.3931334e-12 </wgt>
<wgt id='1355'> +1.3865500e-12 </wgt>
<wgt id='1356'> +1.4018303e-12 </wgt>
<wgt id='1357'> +1.3934277e-12 </wgt>
<wgt id='1358'> +1.3997658e-12 </wgt>
<wgt id='1359'> +1.3851781e-12 </wgt>
<wgt id='1360'> +1.4058954e-12 </wgt>
<wgt id='1361'> +1.3957802e-12 </wgt>
<wgt id='1362'> +1.3970898e-12 </wgt>
<wgt id='1363'> +1.3890913e-12 </wgt>
<wgt id='1364'> +1.4013538e-12 </wgt>
<wgt id='1365'> +1.3875002e-12 </wgt>
<wgt id='1366'> +1.4032972e-12 </wgt>
<wgt id='1367'> +1.3986129e-12 </wgt>
<wgt id='1368'> +1.3970230e-12 </wgt>
<wgt id='1369'> +1.3983984e-12 </wgt>
<wgt id='1370'> +1.3938287e-12 </wgt>
<wgt id='1371'> +1.4198886e-12 </wgt>
<wgt id='1372'> +1.3705375e-12 </wgt>
<wgt id='1373'> +1.3991527e-12 </wgt>
<wgt id='1374'> +1.3929837e-12 </wgt>
<wgt id='1375'> +1.3966527e-12 </wgt>
<wgt id='1376'> +1.3976027e-12 </wgt>
<wgt id='1377'> +1.3964654e-12 </wgt>
<wgt id='1378'> +1.3976159e-12 </wgt>
<wgt id='1379'> +1.3942839e-12 </wgt>
<wgt id='1380'> +1.3982439e-12 </wgt>
<wgt id='1381'> +1.3756043e-12 </wgt>
<wgt id='1382'> +1.4252596e-12 </wgt>
<wgt id='1383'> +1.4138831e-12 </wgt>
<wgt id='1384'> +1.3838246e-12 </wgt>
<wgt id='1385'> +1.3875421e-12 </wgt>
<wgt id='1386'> +1.4195814e-12 </wgt>
<wgt id='1387'> +1.3928989e-12 </wgt>
<wgt id='1388'> +1.3918290e-12 </wgt>
<wgt id='1389'> +1.4014325e-12 </wgt>
<wgt id='1390'> +1.3951959e-12 </wgt>
<wgt id='1391'> +1.3551141e-12 </wgt>
<wgt id='1392'> +1.3364629e-12 </wgt>
<wgt id='1393'> +1.3442821e-12 </wgt>
<wgt id='1394'> +1.3503343e-12 </wgt>
<wgt id='1395'> +1.3627769e-12 </wgt>
<wgt id='1396'> +1.3567195e-12 </wgt>
<wgt id='1397'> +1.3213912e-12 </wgt>
<wgt id='1398'> +1.3295239e-12 </wgt>
<wgt id='1399'> +1.3367252e-12 </wgt>
<wgt id='1400'> +1.3434604e-12 </wgt>
<wgt id='1401'> +1.3502054e-12 </wgt>
<wgt id='1402'> +1.3633491e-12 </wgt>
<wgt id='1403'> +1.3692934e-12 </wgt>
<wgt id='1404'> +1.3751475e-12 </wgt>
<wgt id='1405'> +1.3567195e-12 </wgt>
<wgt id='1406'> +1.3541645e-12 </wgt>
<wgt id='1407'> +1.3556811e-12 </wgt>
<wgt id='1408'> +1.3577839e-12 </wgt>
<wgt id='1409'> +1.3595549e-12 </wgt>
<wgt id='1410'> +1.3160343e-12 </wgt>
<wgt id='1411'> +1.3096915e-12 </wgt>
<wgt id='1412'> +1.3241989e-12 </wgt>
<wgt id='1413'> +1.3138728e-12 </wgt>
<wgt id='1414'> +1.3182544e-12 </wgt>
<wgt id='1415'> +1.3116035e-12 </wgt>
<wgt id='1416'> +1.3178287e-12 </wgt>
<wgt id='1417'> +1.3101716e-12 </wgt>
<wgt id='1418'> +1.3219612e-12 </wgt>
<wgt id='1419'> +1.3144273e-12 </wgt>
<wgt id='1420'> +1.3175895e-12 </wgt>
<wgt id='1421'> +1.3175442e-12 </wgt>
<wgt id='1422'> +1.3154533e-12 </wgt>
<wgt id='1423'> +1.3198809e-12 </wgt>
<wgt id='1424'> +1.3113734e-12 </wgt>
<wgt id='1425'> +1.3135201e-12 </wgt>
<wgt id='1426'> +1.3187980e-12 </wgt>
<wgt id='1427'> +1.3034088e-12 </wgt>
<wgt id='1428'> +1.3230444e-12 </wgt>
<wgt id='1429'> +1.3249647e-12 </wgt>
<wgt id='1430'> +1.3040853e-12 </wgt>
<wgt id='1431'> +1.3112839e-12 </wgt>
<wgt id='1432'> +1.3193963e-12 </wgt>
<wgt id='1433'> +1.3157304e-12 </wgt>
<wgt id='1434'> +1.3161787e-12 </wgt>
<wgt id='1435'> +1.3189180e-12 </wgt>
<wgt id='1436'> +1.3091388e-12 </wgt>
<wgt id='1437'> +1.3199808e-12 </wgt>
<wgt id='1438'> +1.3145876e-12 </wgt>
<wgt id='1439'> +1.3094683e-12 </wgt>
<wgt id='1440'> +1.3335965e-12 </wgt>
<wgt id='1441'> +1.3277377e-12 </wgt>
<wgt id='1442'> +1.2930683e-12 </wgt>
<wgt id='1443'> +1.3104341e-12 </wgt>
<wgt id='1444'> +1.3273249e-12 </wgt>
<wgt id='1445'> +1.3129802e-12 </wgt>
<wgt id='1446'> +1.3180273e-12 </wgt>
<wgt id='1447'> +1.3136756e-12 </wgt>
<wgt id='1448'> +1.3202293e-12 </wgt>
<wgt id='1449'> +1.3149480e-12 </wgt>
<wgt id='1450'> +1.3165643e-12 </wgt>
<wgt id='1451'> +1.3315922e-12 </wgt>
<wgt id='1452'> +1.2899919e-12 </wgt>
<wgt id='1453'> +1.3170968e-12 </wgt>
<wgt id='1454'> +1.3168299e-12 </wgt>
<wgt id='1455'> +1.3054441e-12 </wgt>
<wgt id='1456'> +1.3208993e-12 </wgt>
<wgt id='1457'> +1.3308474e-12 </wgt>
<wgt id='1458'> +1.3090127e-12 </wgt>
<wgt id='1459'> +1.3167875e-12 </wgt>
<wgt id='1460'> +1.3096409e-12 </wgt>
<wgt id='1461'> +1.3160343e-12 </wgt>
<wgt id='1462'> +1.3135026e-12 </wgt>
<wgt id='1463'> +1.3225435e-12 </wgt>
<wgt id='1464'> +1.3174863e-12 </wgt>
<wgt id='1465'> +1.2846813e-12 </wgt>
<wgt id='1466'> +1.2930139e-12 </wgt>
<wgt id='1467'> +1.3002701e-12 </wgt>
<wgt id='1468'> +1.3046390e-12 </wgt>
<wgt id='1469'> +1.3120001e-12 </wgt>
<wgt id='1470'> +1.3229037e-12 </wgt>
<wgt id='1471'> +1.3254068e-12 </wgt>
<wgt id='1472'> +1.3303827e-12 </wgt>
<wgt id='1473'> +1.3174863e-12 </wgt>
<wgt id='1474'> +1.3147200e-12 </wgt>
<wgt id='1475'> +1.3153356e-12 </wgt>
<wgt id='1476'> +1.3187127e-12 </wgt>
<wgt id='1477'> +1.3199891e-12 </wgt>
<wgt id='1478'> +1.3416771e-12 </wgt>
<wgt id='1479'> +1.3409570e-12 </wgt>
<wgt id='1480'> +1.3482374e-12 </wgt>
<wgt id='1481'> +1.3359362e-12 </wgt>
<wgt id='1482'> +1.3432525e-12 </wgt>
<wgt id='1483'> +1.3218802e-12 </wgt>
<wgt id='1484'> +1.3434979e-12 </wgt>
<wgt id='1485'> +1.3510396e-12 </wgt>
<wgt id='1486'> +1.3423460e-12 </wgt>
<wgt id='1487'> +1.3250785e-12 </wgt>
<wgt id='1488'> +1.3394142e-12 </wgt>
<wgt id='1489'> +1.3571718e-12 </wgt>
<wgt id='1490'> +1.3369677e-12 </wgt>
<wgt id='1491'> +1.3471116e-12 </wgt>
<wgt id='1492'> +1.3398992e-12 </wgt>
<wgt id='1493'> +1.3286741e-12 </wgt>
<wgt id='1494'> +1.3464806e-12 </wgt>
<wgt id='1495'> +1.3437423e-12 </wgt>
<wgt id='1496'> +1.3461031e-12 </wgt>
<wgt id='1497'> +1.3287728e-12 </wgt>
<wgt id='1498'> +1.3401073e-12 </wgt>
<wgt id='1499'> +1.3421465e-12 </wgt>
<wgt id='1500'> +1.3423514e-12 </wgt>
<wgt id='1501'> +1.3417800e-12 </wgt>
<wgt id='1502'> +1.3438613e-12 </wgt>
<wgt id='1503'> +1.3396413e-12 </wgt>
<wgt id='1504'> +1.3175656e-12 </wgt>
<wgt id='1505'> +1.3397399e-12 </wgt>
<wgt id='1506'> +1.3419238e-12 </wgt>
<wgt id='1507'> +1.3389251e-12 </wgt>
<wgt id='1508'> +1.3485057e-12 </wgt>
<wgt id='1509'> +1.4024953e-12 </wgt>
<wgt id='1510'> +1.4000588e-12 </wgt>
<wgt id='1511'> +1.4077964e-12 </wgt>
<wgt id='1512'> +1.4052200e-12 </wgt>
<wgt id='1513'> +1.4056080e-12 </wgt>
<wgt id='1514'> +1.4028743e-12 </wgt>
<wgt id='1515'> +1.4000895e-12 </wgt>
<wgt id='1516'> +1.4015222e-12 </wgt>
<wgt id='1517'> +1.4039989e-12 </wgt>
<wgt id='1518'> +1.4108602e-12 </wgt>
<wgt id='1519'> +1.3959591e-12 </wgt>
<wgt id='1520'> +1.4055099e-12 </wgt>
<wgt id='1521'> +1.4127998e-12 </wgt>
<wgt id='1522'> +1.4071575e-12 </wgt>
<wgt id='1523'> +1.4138579e-12 </wgt>
<wgt id='1524'> +1.4059742e-12 </wgt>
<wgt id='1525'> +1.4093400e-12 </wgt>
<wgt id='1526'> +1.3978411e-12 </wgt>
<wgt id='1527'> +1.4003779e-12 </wgt>
<wgt id='1528'> +1.4043740e-12 </wgt>
<wgt id='1529'> +1.4026486e-12 </wgt>
<wgt id='1530'> +1.4096249e-12 </wgt>
<wgt id='1531'> +1.4034065e-12 </wgt>
<wgt id='1532'> +1.3942957e-12 </wgt>
<wgt id='1533'> +1.4000092e-12 </wgt>
<wgt id='1534'> +1.4047493e-12 </wgt>
<wgt id='1535'> +1.3932643e-12 </wgt>
<wgt id='1536'> +1.4017677e-12 </wgt>
<wgt id='1537'> +1.4032686e-12 </wgt>
<wgt id='1538'> +1.4027536e-12 </wgt>
<wgt id='1539'> +1.3898942e-12 </wgt>
<wgt id='1540'> +1.4117619e-12 </wgt>
<wgt id='1541'> +1.4059758e-12 </wgt>
<wgt id='1542'> +1.4106961e-12 </wgt>
<wgt id='1543'> +1.4012604e-12 </wgt>
<wgt id='1544'> +1.4196991e-12 </wgt>
<wgt id='1545'> +1.4054505e-12 </wgt>
<wgt id='1546'> +1.3881992e-12 </wgt>
<wgt id='1547'> +1.4084088e-12 </wgt>
<wgt id='1548'> +1.3975954e-12 </wgt>
<wgt id='1549'> +1.4034568e-12 </wgt>
<wgt id='1550'> +1.4006119e-12 </wgt>
<wgt id='1551'> +1.4059674e-12 </wgt>
<wgt id='1552'> +1.4027966e-12 </wgt>
<wgt id='1553'> +1.4052082e-12 </wgt>
<wgt id='1554'> +1.3981835e-12 </wgt>
<wgt id='1555'> +1.3982823e-12 </wgt>
<wgt id='1556'> +1.3987759e-12 </wgt>
<wgt id='1557'> +1.4048229e-12 </wgt>
<wgt id='1558'> +1.4041536e-12 </wgt>
<wgt id='1559'> +1.4043614e-12 </wgt>
<wgt id='1560'> +1.4035396e-12 </wgt>
<wgt id='1561'> +1.4003052e-12 </wgt>
<wgt id='1562'> +1.4030979e-12 </wgt>
<wgt id='1563'> +1.4044143e-12 </wgt>
<wgt id='1564'> +1.4055540e-12 </wgt>
<wgt id='1565'> +1.4026821e-12 </wgt>
<wgt id='1566'> +1.4014962e-12 </wgt>
<wgt id='1567'> +1.4043555e-12 </wgt>
<wgt id='1568'> +1.4018085e-12 </wgt>
<wgt id='1569'> +1.4004005e-12 </wgt>
<wgt id='1570'> +1.4018330e-12 </wgt>
<wgt id='1571'> +1.4032705e-12 </wgt>
<wgt id='1572'> +1.4019665e-12 </wgt>
<wgt id='1573'> +1.3996134e-12 </wgt>
<wgt id='1574'> +1.4054577e-12 </wgt>
<wgt id='1575'> +1.4015840e-12 </wgt>
<wgt id='1576'> +1.4009821e-12 </wgt>
<wgt id='1577'> +1.4035816e-12 </wgt>
<wgt id='1578'> +1.3989594e-12 </wgt>
<wgt id='1579'> +1.4047901e-12 </wgt>
<wgt id='1580'> +1.3990023e-12 </wgt>
<wgt id='1581'> +1.4032284e-12 </wgt>
<wgt id='1582'> +1.4005465e-12 </wgt>
<wgt id='1583'> +1.4028749e-12 </wgt>
<wgt id='1584'> +1.4003398e-12 </wgt>
<wgt id='1585'> +1.3998903e-12 </wgt>
<wgt id='1586'> +1.4012499e-12 </wgt>
<wgt id='1587'> +1.4001941e-12 </wgt>
<wgt id='1588'> +1.4045931e-12 </wgt>
<wgt id='1589'> +1.4015436e-12 </wgt>
<wgt id='1590'> +1.4038127e-12 </wgt>
<wgt id='1591'> +1.4012675e-12 </wgt>
<wgt id='1592'> +1.4022099e-12 </wgt>
<wgt id='1593'> +1.4017113e-12 </wgt>
<wgt id='1594'> +1.4018849e-12 </wgt>
<wgt id='1595'> +1.4012835e-12 </wgt>
<wgt id='1596'> +1.4023452e-12 </wgt>
<wgt id='1597'> +1.4017591e-12 </wgt>
<wgt id='1598'> +1.4016469e-12 </wgt>
<wgt id='1599'> +1.4032581e-12 </wgt>
<wgt id='1600'> +1.4021374e-12 </wgt>
<wgt id='1601'> +1.4007466e-12 </wgt>
<wgt id='1602'> +1.4016202e-12 </wgt>
<wgt id='1603'> +1.4040207e-12 </wgt>
<wgt id='1604'> +1.4023005e-12 </wgt>
<wgt id='1605'> +1.4026367e-12 </wgt>
<wgt id='1606'> +1.4043810e-12 </wgt>
<wgt id='1607'> +1.4026954e-12 </wgt>
<wgt id='1608'> +1.4028513e-12 </wgt>
<wgt id='1609'> +1.4027246e-12 </wgt>
<wgt id='1610'> +1.3998584e-12 </wgt>
<wgt id='1611'> +1.4098080e-12 </wgt>
<wgt id='1612'> +1.5586828e-12 </wgt>
<wgt id='1613'> +1.6373118e-12 </wgt>
<wgt id='1614'> +1.5721234e-12 </wgt>
<wgt id='1615'> +1.5099983e-12 </wgt>
<wgt id='1616'> +1.5776179e-12 </wgt>
<wgt id='1617'> +1.5599243e-12 </wgt>
<wgt id='1618'> +1.5860775e-12 </wgt>
<wgt id='1619'> +1.6257496e-12 </wgt>
<wgt id='1620'> +1.5273990e-12 </wgt>
<wgt id='1621'> +1.5838467e-12 </wgt>
<wgt id='1622'> +1.5539184e-12 </wgt>
<wgt id='1623'> +1.5501907e-12 </wgt>
<wgt id='1624'> +1.5518577e-12 </wgt>
<wgt id='1625'> +1.6178137e-12 </wgt>
<wgt id='1626'> +1.5057573e-12 </wgt>
<wgt id='1627'> +1.5401452e-12 </wgt>
<wgt id='1628'> +1.6079913e-12 </wgt>
<wgt id='1629'> +1.5887111e-12 </wgt>
<wgt id='1630'> +1.5528115e-12 </wgt>
<wgt id='1631'> +1.5490994e-12 </wgt>
<wgt id='1632'> +1.5594670e-12 </wgt>
<wgt id='1633'> +1.4725118e-12 </wgt>
<wgt id='1634'> +1.6136180e-12 </wgt>
<wgt id='1635'> +1.5328202e-12 </wgt>
<wgt id='1636'> +1.6050473e-12 </wgt>
<wgt id='1637'> +1.5190590e-12 </wgt>
<wgt id='1638'> +1.5371457e-12 </wgt>
<wgt id='1639'> +1.5719554e-12 </wgt>
<wgt id='1640'> +1.5359545e-12 </wgt>
<wgt id='1641'> +1.5583369e-12 </wgt>
<wgt id='1642'> +1.5091746e-12 </wgt>
<wgt id='1643'> +1.6604413e-12 </wgt>
<wgt id='1644'> +1.4529489e-12 </wgt>
<wgt id='1645'> +1.5807108e-12 </wgt>
<wgt id='1646'> +1.5232839e-12 </wgt>
<wgt id='1647'> +1.5634423e-12 </wgt>
<wgt id='1648'> +1.5491458e-12 </wgt>
<wgt id='1649'> +1.5750893e-12 </wgt>
<wgt id='1650'> +1.5255068e-12 </wgt>
<wgt id='1651'> +1.4948912e-12 </wgt>
<wgt id='1652'> +1.5456946e-12 </wgt>
<wgt id='1653'> +1.6171910e-12 </wgt>
<wgt id='1654'> +1.5871002e-12 </wgt>
<wgt id='1655'> +1.5666302e-12 </wgt>
<wgt id='1656'> +1.5000209e-12 </wgt>
<wgt id='1657'> +1.6070582e-12 </wgt>
<wgt id='1658'> +1.4488123e-12 </wgt>
<wgt id='1659'> +1.5518577e-12 </wgt>
<wgt id='1660'> +1.6362339e-12 </wgt>
<wgt id='1661'> +1.5073600e-12 </wgt>
<wgt id='1662'> +1.5362334e-12 </wgt>
<wgt id='1663'> +1.5450903e-12 </wgt>
<wgt id='1664'> +1.5815607e-12 </wgt>
<wgt id='1665'> +1.4213584e-12 </wgt>
<wgt id='1666'> +1.5319618e-12 </wgt>
<wgt id='1667'> +1.5909406e-12 </wgt>
<wgt id='1668'> +1.6227427e-12 </wgt>
<wgt id='1669'> +1.5813113e-12 </wgt>
<wgt id='1670'> +1.5681438e-12 </wgt>
<wgt id='1671'> +1.5594748e-12 </wgt>
<wgt id='1672'> +1.5540772e-12 </wgt>
<wgt id='1673'> +1.5116044e-12 </wgt>
<wgt id='1674'> +1.5624646e-12 </wgt>
<wgt id='1675'> +1.6337475e-12 </wgt>
<wgt id='1676'> +1.6250391e-12 </wgt>
<wgt id='1677'> +1.5621663e-12 </wgt>
<wgt id='1678'> +1.5253996e-12 </wgt>
<wgt id='1679'> +1.5419488e-12 </wgt>
<wgt id='1680'> +1.6268027e-12 </wgt>
<wgt id='1681'> +1.5691411e-12 </wgt>
<wgt id='1682'> +1.5733618e-12 </wgt>
<wgt id='1683'> +1.5464412e-12 </wgt>
<wgt id='1684'> +1.5606704e-12 </wgt>
<wgt id='1685'> +1.5753123e-12 </wgt>
<wgt id='1686'> +1.5836249e-12 </wgt>
<wgt id='1687'> +1.6107118e-12 </wgt>
<wgt id='1688'> +1.4666075e-12 </wgt>
<wgt id='1689'> +1.5150891e-12 </wgt>
<wgt id='1690'> +1.5796034e-12 </wgt>
<wgt id='1691'> +1.5926253e-12 </wgt>
<wgt id='1692'> +1.5565570e-12 </wgt>
<wgt id='1693'> +1.5773493e-12 </wgt>
<wgt id='1694'> +1.5276001e-12 </wgt>
<wgt id='1695'> +1.4338048e-12 </wgt>
<wgt id='1696'> +1.5750511e-12 </wgt>
<wgt id='1697'> +1.5501433e-12 </wgt>
<wgt id='1698'> +1.5377894e-12 </wgt>
<wgt id='1699'> +1.6196174e-12 </wgt>
<wgt id='1700'> +1.5073388e-12 </wgt>
<wgt id='1701'> +1.5464983e-12 </wgt>
<wgt id='1702'> +1.6222885e-12 </wgt>
<wgt id='1703'> +1.5580979e-12 </wgt>
<wgt id='1704'> +1.5809615e-12 </wgt>
<wgt id='1705'> +1.5134523e-12 </wgt>
<wgt id='1706'> +1.6056857e-12 </wgt>
<wgt id='1707'> +1.5597577e-12 </wgt>
<wgt id='1708'> +1.5695064e-12 </wgt>
<wgt id='1709'> +1.5662939e-12 </wgt>
<wgt id='1710'> +1.5412480e-12 </wgt>
<wgt id='1711'> +1.5676106e-12 </wgt>
<wgt id='1712'> +1.5867265e-12 </wgt>
<wgt id='1713'> +1.3433066e-12 </wgt>
<wgt id='1714'> +1.2653421e-12 </wgt>
<wgt id='1715'> +1.3415091e-12 </wgt>
<wgt id='1716'> +1.3402235e-12 </wgt>
<wgt id='1717'> +1.3490233e-12 </wgt>
<wgt id='1718'> +1.3733731e-12 </wgt>
<wgt id='1719'> +1.2814434e-12 </wgt>
<wgt id='1720'> +1.3508545e-12 </wgt>
<wgt id='1721'> +1.3321069e-12 </wgt>
<wgt id='1722'> +1.3572136e-12 </wgt>
<wgt id='1723'> +1.3305875e-12 </wgt>
<wgt id='1724'> +1.2978491e-12 </wgt>
<wgt id='1725'> +1.3662732e-12 </wgt>
<wgt id='1726'> +1.3795326e-12 </wgt>
<wgt id='1727'> +1.3277221e-12 </wgt>
<wgt id='1728'> +1.3268746e-12 </wgt>
<wgt id='1729'> +1.4051399e-12 </wgt>
<wgt id='1730'> +1.2958675e-12 </wgt>
<wgt id='1731'> +1.3105324e-12 </wgt>
<wgt id='1732'> +1.3312825e-12 </wgt>
<wgt id='1733'> +1.4319089e-12 </wgt>
<wgt id='1734'> +1.3584663e-12 </wgt>
<wgt id='1735'> +1.3280015e-12 </wgt>
<wgt id='1736'> +1.4325012e-12 </wgt>
<wgt id='1737'> +1.4102579e-12 </wgt>
<wgt id='1738'> +1.3819817e-12 </wgt>
<wgt id='1739'> +1.3372367e-12 </wgt>
<wgt id='1740'> +1.3249202e-12 </wgt>
<wgt id='1741'> +1.3518884e-12 </wgt>
<wgt id='1742'> +1.3181451e-12 </wgt>
<wgt id='1743'> +1.3701105e-12 </wgt>
<wgt id='1744'> +1.3938934e-12 </wgt>
<wgt id='1745'> +1.3258457e-12 </wgt>
<wgt id='1746'> +1.3748958e-12 </wgt>
<wgt id='1747'> +1.3653365e-12 </wgt>
<wgt id='1748'> +1.3734693e-12 </wgt>
<wgt id='1749'> +1.3697287e-12 </wgt>
<wgt id='1750'> +1.3469303e-12 </wgt>
<wgt id='1751'> +1.3422270e-12 </wgt>
<wgt id='1752'> +1.2857539e-12 </wgt>
<wgt id='1753'> +1.3754690e-12 </wgt>
<wgt id='1754'> +1.2824587e-12 </wgt>
<wgt id='1755'> +1.3353129e-12 </wgt>
<wgt id='1756'> +1.3627469e-12 </wgt>
<wgt id='1757'> +1.3280833e-12 </wgt>
<wgt id='1758'> +1.3546552e-12 </wgt>
<wgt id='1759'> +1.2901091e-12 </wgt>
<wgt id='1760'> +1.2991505e-12 </wgt>
<wgt id='1761'> +1.3231527e-12 </wgt>
<wgt id='1762'> +1.3708893e-12 </wgt>
<wgt id='1763'> +1.3502783e-12 </wgt>
<wgt id='1764'> +1.3271589e-12 </wgt>
<wgt id='1765'> +1.3547129e-12 </wgt>
<wgt id='1766'> +1.4006582e-12 </wgt>
<wgt id='1767'> +1.3411620e-12 </wgt>
<wgt id='1768'> +1.3706289e-12 </wgt>
<wgt id='1769'> +1.2678884e-12 </wgt>
<wgt id='1770'> +1.3364298e-12 </wgt>
<wgt id='1771'> +1.3232992e-12 </wgt>
<wgt id='1772'> +1.3789160e-12 </wgt>
<wgt id='1773'> +1.3546488e-12 </wgt>
<wgt id='1774'> +1.3454830e-12 </wgt>
<wgt id='1775'> +1.3527854e-12 </wgt>
<wgt id='1776'> +1.3634561e-12 </wgt>
<wgt id='1777'> +1.2768016e-12 </wgt>
<wgt id='1778'> +1.3469815e-12 </wgt>
<wgt id='1779'> +1.3773043e-12 </wgt>
<wgt id='1780'> +1.3202085e-12 </wgt>
<wgt id='1781'> +1.3162571e-12 </wgt>
<wgt id='1782'> +1.3398882e-12 </wgt>
<wgt id='1783'> +1.3942107e-12 </wgt>
<wgt id='1784'> +1.3436640e-12 </wgt>
<wgt id='1785'> +1.3464440e-12 </wgt>
<wgt id='1786'> +1.2944784e-12 </wgt>
<wgt id='1787'> +1.3716760e-12 </wgt>
<wgt id='1788'> +1.3071474e-12 </wgt>
<wgt id='1789'> +1.3639236e-12 </wgt>
<wgt id='1790'> +1.3586994e-12 </wgt>
<wgt id='1791'> +1.3529686e-12 </wgt>
<wgt id='1792'> +1.3317881e-12 </wgt>
<wgt id='1793'> +1.4023033e-12 </wgt>
<wgt id='1794'> +1.3508236e-12 </wgt>
<wgt id='1795'> +1.3607910e-12 </wgt>
<wgt id='1796'> +1.2834855e-12 </wgt>
<wgt id='1797'> +1.3514195e-12 </wgt>
<wgt id='1798'> +1.3215958e-12 </wgt>
<wgt id='1799'> +1.3221273e-12 </wgt>
<wgt id='1800'> +1.3364392e-12 </wgt>
<wgt id='1801'> +1.2909804e-12 </wgt>
<wgt id='1802'> +1.3443903e-12 </wgt>
<wgt id='1803'> +1.3768293e-12 </wgt>
<wgt id='1804'> +1.3021472e-12 </wgt>
<wgt id='1805'> +1.4264848e-12 </wgt>
<wgt id='1806'> +1.3326919e-12 </wgt>
<wgt id='1807'> +1.3231124e-12 </wgt>
<wgt id='1808'> +1.2731789e-12 </wgt>
<wgt id='1809'> +1.3196855e-12 </wgt>
<wgt id='1810'> +1.3753472e-12 </wgt>
<wgt id='1811'> +1.3837300e-12 </wgt>
<wgt id='1812'> +1.3551815e-12 </wgt>
<wgt id='1813'> +1.2854792e-12 </wgt>
<wgt id='1814'> +1.4617227e-12 </wgt>
<wgt id='1815'> +1.5930580e-12 </wgt>
<wgt id='1816'> +1.3433066e-12 </wgt>
<wgt id='1817'> +1.2653421e-12 </wgt>
<wgt id='1818'> +1.3415091e-12 </wgt>
<wgt id='1819'> +1.3402235e-12 </wgt>
<wgt id='1820'> +1.3490233e-12 </wgt>
<wgt id='1821'> +1.3733731e-12 </wgt>
<wgt id='1822'> +1.2814434e-12 </wgt>
<wgt id='1823'> +1.3508545e-12 </wgt>
<wgt id='1824'> +1.3321069e-12 </wgt>
<wgt id='1825'> +1.3572136e-12 </wgt>
<wgt id='1826'> +1.3305875e-12 </wgt>
<wgt id='1827'> +1.2978491e-12 </wgt>
<wgt id='1828'> +1.3662732e-12 </wgt>
<wgt id='1829'> +1.3795326e-12 </wgt>
<wgt id='1830'> +1.3277221e-12 </wgt>
<wgt id='1831'> +1.3268746e-12 </wgt>
<wgt id='1832'> +1.4051399e-12 </wgt>
<wgt id='1833'> +1.2958675e-12 </wgt>
<wgt id='1834'> +1.3105324e-12 </wgt>
<wgt id='1835'> +1.3312825e-12 </wgt>
<wgt id='1836'> +1.4319089e-12 </wgt>
<wgt id='1837'> +1.3584663e-12 </wgt>
<wgt id='1838'> +1.3280015e-12 </wgt>
<wgt id='1839'> +1.4325012e-12 </wgt>
<wgt id='1840'> +1.4102579e-12 </wgt>
<wgt id='1841'> +1.3819817e-12 </wgt>
<wgt id='1842'> +1.3372367e-12 </wgt>
<wgt id='1843'> +1.3249202e-12 </wgt>
<wgt id='1844'> +1.3518884e-12 </wgt>
<wgt id='1845'> +1.3181451e-12 </wgt>
<wgt id='1846'> +1.3701105e-12 </wgt>
<wgt id='1847'> +1.3938934e-12 </wgt>
<wgt id='1848'> +1.3258457e-12 </wgt>
<wgt id='1849'> +1.3748958e-12 </wgt>
<wgt id='1850'> +1.3653365e-12 </wgt>
<wgt id='1851'> +1.3734693e-12 </wgt>
<wgt id='1852'> +1.3697287e-12 </wgt>
<wgt id='1853'> +1.3469303e-12 </wgt>
<wgt id='1854'> +1.3422270e-12 </wgt>
<wgt id='1855'> +1.2857539e-12 </wgt>
<wgt id='1856'> +1.3754690e-12 </wgt>
<wgt id='1857'> +1.2824587e-12 </wgt>
<wgt id='1858'> +1.3353129e-12 </wgt>
<wgt id='1859'> +1.3627469e-12 </wgt>
<wgt id='1860'> +1.3280833e-12 </wgt>
<wgt id='1861'> +1.3546552e-12 </wgt>
<wgt id='1862'> +1.2901091e-12 </wgt>
<wgt id='1863'> +1.2991505e-12 </wgt>
<wgt id='1864'> +1.3231527e-12 </wgt>
<wgt id='1865'> +1.3708893e-12 </wgt>
<wgt id='1866'> +1.3502783e-12 </wgt>
<wgt id='1867'> +1.3271589e-12 </wgt>
<wgt id='1868'> +1.3547129e-12 </wgt>
<wgt id='1869'> +1.4006582e-12 </wgt>
<wgt id='1870'> +1.3411620e-12 </wgt>
<wgt id='1871'> +1.3706289e-12 </wgt>
<wgt id='1872'> +1.2678884e-12 </wgt>
<wgt id='1873'> +1.3364298e-12 </wgt>
<wgt id='1874'> +1.3232992e-12 </wgt>
<wgt id='1875'> +1.3789160e-12 </wgt>
<wgt id='1876'> +1.3546488e-12 </wgt>
<wgt id='1877'> +1.3454830e-12 </wgt>
<wgt id='1878'> +1.3527854e-12 </wgt>
<wgt id='1879'> +1.3634561e-12 </wgt>
<wgt id='1880'> +1.2768016e-12 </wgt>
<wgt id='1881'> +1.3469815e-12 </wgt>
<wgt id='1882'> +1.3773043e-12 </wgt>
<wgt id='1883'> +1.3202085e-12 </wgt>
<wgt id='1884'> +1.3162571e-12 </wgt>
<wgt id='1885'> +1.3398882e-12 </wgt>
<wgt id='1886'> +1.3942107e-12 </wgt>
<wgt id='1887'> +1.3436640e-12 </wgt>
<wgt id='1888'> +1.3464440e-12 </wgt>
<wgt id='1889'> +1.2944784e-12 </wgt>
<wgt id='1890'> +1.3716760e-12 </wgt>
<wgt id='1891'> +1.3071474e-12 </wgt>
<wgt id='1892'> +1.3639236e-12 </wgt>
<wgt id='1893'> +1.3586994e-12 </wgt>
<wgt id='1894'> +1.3529686e-12 </wgt>
<wgt id='1895'> +1.3317881e-12 </wgt>
<wgt id='1896'> +1.4023033e-12 </wgt>
<wgt id='1897'> +1.3508236e-12 </wgt>
<wgt id='1898'> +1.3607910e-12 </wgt>
<wgt id='1899'> +1.2834855e-12 </wgt>
<wgt id='1900'> +1.3514195e-12 </wgt>
<wgt id='1901'> +1.3215958e-12 </wgt>
<wgt id='1902'> +1.3221273e-12 </wgt>
<wgt id='1903'> +1.3364392e-12 </wgt>
<wgt id='1904'> +1.2909804e-12 </wgt>
<wgt id='1905'> +1.3443903e-12 </wgt>
<wgt id='1906'> +1.3768293e-12 </wgt>
<wgt id='1907'> +1.3021472e-12 </wgt>
<wgt id='1908'> +1.4264848e-12 </wgt>
<wgt id='1909'> +1.3326919e-12 </wgt>
<wgt id='1910'> +1.3231124e-12 </wgt>
<wgt id='1911'> +1.2731789e-12 </wgt>
<wgt id='1912'> +1.3196855e-12 </wgt>
<wgt id='1913'> +1.3753472e-12 </wgt>
<wgt id='1914'> +1.3837300e-12 </wgt>
<wgt id='1915'> +1.3551815e-12 </wgt>
<wgt id='1916'> +1.2854792e-12 </wgt>
<wgt id='1917'> +1.3355859e-12 </wgt>
<wgt id='1918'> +1.3421379e-12 </wgt>
<wgt id='1919'> +1.3328590e-12 </wgt>
</rwgt>
</event>
<event>
 9      1 +1.5607000e-12 5.93386600e+01 7.81860800e-03 1.27101100e-01
        3 -1    0    0  502    0 -0.0000000000e+00 +0.0000000000e+00 +9.1700839894e+01 9.1700839894e+01 0.0000000000e+00 0.0000e+00 -1.0000e+00
       21 -1    0    0  501  502 +0.0000000000e+00 -0.0000000000e+00 -9.5993584412e+00 9.5993584412e+00 0.0000000000e+00 0.0000e+00 -1.0000e+00
     1023  2    1    2    0    0 +2.6048400826e+00 +2.7006677969e+01 +3.3550237357e+01 4.5682133374e+01 1.5003100882e+01 0.0000e+00 0.0000e+00
  1000023  2    3    3    0    0 -1.0388649428e+00 +1.9361492752e+01 +1.6710304818e+01 2.6180626477e+01 5.4994794002e+00 0.0000e+00 0.0000e+00
        3  1    1    2  501    0 -2.6048400826e+00 -2.7006677969e+01 +4.8551244096e+01 5.5618064962e+01 0.0000000000e+00 0.0000e+00 -1.0000e+00
  1000022  1    4    4    0    0 -1.1813406659e+00 +1.9274315571e+01 +1.6593863950e+01 2.5947083214e+01 5.0000000000e+00 0.0000e+00 -1.0000e+00
      -11  1    4    4    0    0 +1.0007472027e-01 +7.0424345018e-02 +1.6223862007e-02 1.2344234617e-01 5.1100000000e-04 0.0000e+00 -1.0000e+00
       11  1    4    4    0    0 +4.2401002855e-02 +1.6752835435e-02 +1.0021700593e-01 1.1010091705e-01 5.1100000000e-04 0.0000e+00 1.0000e+00
  1000022  1    3    3    0    0 +3.6437050254e+00 +7.6451852177e+00 +1.6839932539e+01 1.9501506897e+01 5.0000000000e+00 0.0000e+00 -1.0000e+00
<mgrwt>
<rscale>  1 0.59338663E+02</rscale>
<asrwt>0</asrwt>
<pdfrwt beam="1">  1       21 0.14768244E-02 0.59338663E+02</pdfrwt>
<pdfrwt beam="2">  1        3 0.14107821E-01 0.59338663E+02</pdfrwt>
<totfact> 0.49433752E+06</totfact>
</mgrwt>
<rwgt>
<wgt id='1001'> +1.5607000e-12 </wgt>
<wgt id='1002'> +1.5544436e-12 </wgt>
<wgt id='1003'> +1.5568673e-12 </wgt>
<wgt id='1004'> +1.4621298e-12 </wgt>
<wgt id='1005'> +1.5607000e-12 </wgt>
<wgt id='1006'> +1.3882476e-12 </wgt>
<wgt id='1007'> +1.3808428e-12 </wgt>
<wgt id='1008'> +1.3836994e-12 </wgt>
<wgt id='1009'> +1.2776236e-12 </wgt>
<wgt id='1010'> +1.3882476e-12 </wgt>
<wgt id='1011'> +1.7841688e-12 </wgt>
<wgt id='1012'> +1.7801169e-12 </wgt>
<wgt id='1013'> +1.7817001e-12 </wgt>
<wgt id='1014'> +1.7120544e-12 </wgt>
<wgt id='1015'> +1.7841688e-12 </wgt>
<wgt id='1016'> +1.8090637e-12 </wgt>
<wgt id='1017'> +1.8080723e-12 </wgt>
<wgt id='1018'> +1.8084710e-12 </wgt>
<wgt id='1019'> +1.7817001e-12 </wgt>
<wgt id='1020'> +1.8090637e-12 </wgt>
<wgt id='1021'> +1.6091678e-12 </wgt>
<wgt id='1022'> +1.6061462e-12 </wgt>
<wgt id='1023'> +1.6073176e-12 </wgt>
<wgt id='1024'> +1.5568673e-12 </wgt>
<wgt id='1025'> +1.6091678e-12 </wgt>
<wgt id='1026'> +2.0680944e-12 </wgt>
<wgt id='1027'> +2.0705673e-12 </wgt>
<wgt id='1028'> +2.0696388e-12 </wgt>
<wgt id='1029'> +2.0862494e-12 </wgt>
<wgt id='1030'> +2.0680944e-12 </wgt>
<wgt id='1031'> +1.2850169e-12 </wgt>
<wgt id='1032'> +1.2730039e-12 </wgt>
<wgt id='1033'> +1.2776236e-12 </wgt>
<wgt id='1034'> +1.1139665e-12 </wgt>
<wgt id='1035'> +1.2850169e-12 </wgt>
<wgt id='1036'> +1.1430266e-12 </wgt>
<wgt id='1037'> +1.1308344e-12 </wgt>
<wgt id='1038'> +1.1355155e-12 </wgt>
<wgt id='1039'> +9.7339501e-13 </wgt>
<wgt id='1040'> +1.1430266e-12 </wgt>
<wgt id='1041'> +1.4690120e-12 </wgt>
<wgt id='1042'> +1.4578179e-12 </wgt>
<wgt id='1043'> +1.4621298e-12 </wgt>
<wgt id='1044'> +1.3043788e-12 </wgt>
<wgt id='1045'> +1.4690120e-12 </wgt>
<wgt id='1046'> +1.5607000e-12 </wgt>
<wgt id='1047'> +1.2278612e-12 </wgt>
<wgt id='1048'> +1.5247093e-12 </wgt>
<wgt id='1049'> +1.5224641e-12 </wgt>
<wgt id='1050'> +1.5725405e-12 </wgt>
<wgt id='1051'> +1.6138399e-12 </wgt>
<wgt id='1052'> +1.3711485e-12 </wgt>
<wgt id='1053'> +1.5024658e-12 </wgt>
<wgt id='1054'> +1.6311279e-12 </wgt>
<wgt id='1055'> +1.5835724e-12 </wgt>
<wgt id='1056'> +1.5502544e-12 </wgt>
<wgt id='1057'> +1.5623732e-12 </wgt>
<wgt id='1058'> +1.6341608e-12 </wgt>
<wgt id='1059'> +1.6236824e-12 </wgt>
<wgt id='1060'> +1.6189745e-12 </wgt>
<wgt id='1061'> +1.4614199e-12 </wgt>
<wgt id='1062'> +1.5782051e-12 </wgt>
<wgt id='1063'> +1.4533339e-12 </wgt>
<wgt id='1064'> +1.6334533e-12 </wgt>
<wgt id='1065'> +1.6388207e-12 </wgt>
<wgt id='1066'> +1.7097796e-12 </wgt>
<wgt id='1067'> +1.5704609e-12 </wgt>
<wgt id='1068'> +1.5611441e-12 </wgt>
<wgt id='1069'> +1.5017521e-12 </wgt>
<wgt id='1070'> +1.6738226e-12 </wgt>
<wgt id='1071'> +1.6705231e-12 </wgt>
<wgt id='1072'> +1.5482999e-12 </wgt>
<wgt id='1073'> +1.5004679e-12 </wgt>
<wgt id='1074'> +1.5814909e-12 </wgt>
<wgt id='1075'> +1.5722398e-12 </wgt>
<wgt id='1076'> +1.4585343e-12 </wgt>
<wgt id='1077'> +1.4649860e-12 </wgt>
<wgt id='1078'> +1.5290047e-12 </wgt>
<wgt id='1079'> +1.4944269e-12 </wgt>
<wgt id='1080'> +1.6423553e-12 </wgt>
<wgt id='1081'> +1.5228066e-12 </wgt>
<wgt id='1082'> +1.5768822e-12 </wgt>
<wgt id='1083'> +1.5646037e-12 </wgt>
<wgt id='1084'> +1.6016936e-12 </wgt>
<wgt id='1085'> +1.5558156e-12 </wgt>
<wgt id='1086'> +1.5286048e-12 </wgt>
<wgt id='1087'> +1.5997011e-12 </wgt>
<wgt id='1088'> +1.5698238e-12 </wgt>
<wgt id='1089'> +1.5339864e-12 </wgt>
<wgt id='1090'> +1.4581382e-12 </wgt>
<wgt id='1091'> +1.4972382e-12 </wgt>
<wgt id='1092'> +1.5598973e-12 </wgt>
<wgt id='1093'> +1.6085408e-12 </wgt>
<wgt id='1094'> +1.6841992e-12 </wgt>
<wgt id='1095'> +1.5454189e-12 </wgt>
<wgt id='1096'> +1.5536275e-12 </wgt>
<wgt id='1097'> +1.5378071e-12 </wgt>
<wgt id='1098'> +1.5626799e-12 </wgt>
<wgt id='1099'> +1.6381827e-12 </wgt>
<wgt id='1100'> +1.4825605e-12 </wgt>
<wgt id='1101'> +1.6123844e-12 </wgt>
<wgt id='1102'> +1.5388178e-12 </wgt>
<wgt id='1103'> +1.5561936e-12 </wgt>
<wgt id='1104'> +1.5958212e-12 </wgt>
<wgt id='1105'> +1.5309681e-12 </wgt>
<wgt id='1106'> +1.4783984e-12 </wgt>
<wgt id='1107'> +1.4559023e-12 </wgt>
<wgt id='1108'> +1.5739616e-12 </wgt>
<wgt id='1109'> +1.5884532e-12 </wgt>
<wgt id='1110'> +1.6978174e-12 </wgt>
<wgt id='1111'> +1.5856190e-12 </wgt>
<wgt id='1112'> +1.5549533e-12 </wgt>
<wgt id='1113'> +1.5208865e-12 </wgt>
<wgt id='1114'> +1.4927560e-12 </wgt>
<wgt id='1115'> +1.5401590e-12 </wgt>
<wgt id='1116'> +1.5396324e-12 </wgt>
<wgt id='1117'> +1.5654429e-12 </wgt>
<wgt id='1118'> +1.5869053e-12 </wgt>
<wgt id='1119'> +1.6286913e-12 </wgt>
<wgt id='1120'> +1.6420492e-12 </wgt>
<wgt id='1121'> +1.6661367e-12 </wgt>
<wgt id='1122'> +1.5532034e-12 </wgt>
<wgt id='1123'> +1.5870399e-12 </wgt>
<wgt id='1124'> +1.5796842e-12 </wgt>
<wgt id='1125'> +1.6151217e-12 </wgt>
<wgt id='1126'> +1.5094667e-12 </wgt>
<wgt id='1127'> +1.5986195e-12 </wgt>
<wgt id='1128'> +1.5782051e-12 </wgt>
<wgt id='1129'> +1.5415823e-12 </wgt>
<wgt id='1130'> +1.6402059e-12 </wgt>
<wgt id='1131'> +1.5474261e-12 </wgt>
<wgt id='1132'> +1.4643674e-12 </wgt>
<wgt id='1133'> +1.6371278e-12 </wgt>
<wgt id='1134'> +1.4092167e-12 </wgt>
<wgt id='1135'> +1.6546595e-12 </wgt>
<wgt id='1136'> +1.5831197e-12 </wgt>
<wgt id='1137'> +1.5804731e-12 </wgt>
<wgt id='1138'> +1.6471706e-12 </wgt>
<wgt id='1139'> +1.6210047e-12 </wgt>
<wgt id='1140'> +1.4763529e-12 </wgt>
<wgt id='1141'> +1.5493408e-12 </wgt>
<wgt id='1142'> +1.5644065e-12 </wgt>
<wgt id='1143'> +1.4876353e-12 </wgt>
<wgt id='1144'> +1.4873444e-12 </wgt>
<wgt id='1145'> +1.6702793e-12 </wgt>
<wgt id='1146'> +1.5779018e-12 </wgt>
<wgt id='1147'> +1.3270048e-12 </wgt>
<wgt id='1148'> +1.3577198e-12 </wgt>
<wgt id='1149'> +1.2258445e-12 </wgt>
<wgt id='1150'> +1.2116908e-12 </wgt>
<wgt id='1151'> +1.1233120e-12 </wgt>
<wgt id='1152'> +1.5133640e-12 </wgt>
<wgt id='1153'> +1.5084787e-12 </wgt>
<wgt id='1154'> +1.5161828e-12 </wgt>
<wgt id='1155'> +1.5153019e-12 </wgt>
<wgt id='1156'> +1.5124106e-12 </wgt>
<wgt id='1157'> +1.4975347e-12 </wgt>
<wgt id='1158'> +1.5346588e-12 </wgt>
<wgt id='1159'> +1.5058456e-12 </wgt>
<wgt id='1160'> +1.5181559e-12 </wgt>
<wgt id='1161'> +1.4975063e-12 </wgt>
<wgt id='1162'> +1.5242155e-12 </wgt>
<wgt id='1163'> +1.4974269e-12 </wgt>
<wgt id='1164'> +1.5291668e-12 </wgt>
<wgt id='1165'> +1.4998727e-12 </wgt>
<wgt id='1166'> +1.5264903e-12 </wgt>
<wgt id='1167'> +1.5320628e-12 </wgt>
<wgt id='1168'> +1.4885639e-12 </wgt>
<wgt id='1169'> +1.5157927e-12 </wgt>
<wgt id='1170'> +1.5115709e-12 </wgt>
<wgt id='1171'> +1.5058813e-12 </wgt>
<wgt id='1172'> +1.5226930e-12 </wgt>
<wgt id='1173'> +1.5008448e-12 </wgt>
<wgt id='1174'> +1.5253255e-12 </wgt>
<wgt id='1175'> +1.5099518e-12 </wgt>
<wgt id='1176'> +1.5151138e-12 </wgt>
<wgt id='1177'> +1.5150411e-12 </wgt>
<wgt id='1178'> +1.5084803e-12 </wgt>
<wgt id='1179'> +1.5241411e-12 </wgt>
<wgt id='1180'> +1.4962894e-12 </wgt>
<wgt id='1181'> +1.5107959e-12 </wgt>
<wgt id='1182'> +1.5158468e-12 </wgt>
<wgt id='1183'> +1.5139767e-12 </wgt>
<wgt id='1184'> +1.5133149e-12 </wgt>
<wgt id='1185'> +1.5474175e-12 </wgt>
<wgt id='1186'> +1.4933549e-12 </wgt>
<wgt id='1187'> +1.5423244e-12 </wgt>
<wgt id='1188'> +1.5052306e-12 </wgt>
<wgt id='1189'> +1.5054419e-12 </wgt>
<wgt id='1190'> +1.5042543e-12 </wgt>
<wgt id='1191'> +1.5098756e-12 </wgt>
<wgt id='1192'> +1.5118612e-12 </wgt>
<wgt id='1193'> +1.2271994e-12 </wgt>
<wgt id='1194'> +1.2259279e-12 </wgt>
<wgt id='1195'> +1.2282330e-12 </wgt>
<wgt id='1196'> +1.2225528e-12 </wgt>
<wgt id='1197'> +1.2324900e-12 </wgt>
<wgt id='1198'> +1.2368859e-12 </wgt>
<wgt id='1199'> +1.2129234e-12 </wgt>
<wgt id='1200'> +1.2232510e-12 </wgt>
<wgt id='1201'> +1.2299141e-12 </wgt>
<wgt id='1202'> +1.2245363e-12 </wgt>
<wgt id='1203'> +1.2310701e-12 </wgt>
<wgt id='1204'> +1.2273699e-12 </wgt>
<wgt id='1205'> +1.2270704e-12 </wgt>
<wgt id='1206'> +1.2323549e-12 </wgt>
<wgt id='1207'> +1.2202746e-12 </wgt>
<wgt id='1208'> +1.2202236e-12 </wgt>
<wgt id='1209'> +1.2297980e-12 </wgt>
<wgt id='1210'> +1.2327688e-12 </wgt>
<wgt id='1211'> +1.2128988e-12 </wgt>
<wgt id='1212'> +1.2248000e-12 </wgt>
<wgt id='1213'> +1.2295261e-12 </wgt>
<wgt id='1214'> +1.2108776e-12 </wgt>
<wgt id='1215'> +1.2542927e-12 </wgt>
<wgt id='1216'> +1.2383218e-12 </wgt>
<wgt id='1217'> +1.2199159e-12 </wgt>
<wgt id='1218'> +1.2356037e-12 </wgt>
<wgt id='1219'> +1.2229631e-12 </wgt>
<wgt id='1220'> +1.2330891e-12 </wgt>
<wgt id='1221'> +1.2251081e-12 </wgt>
<wgt id='1222'> +1.2306355e-12 </wgt>
<wgt id='1223'> +1.2235781e-12 </wgt>
<wgt id='1224'> +1.2209866e-12 </wgt>
<wgt id='1225'> +1.2296521e-12 </wgt>
<wgt id='1226'> +1.2404853e-12 </wgt>
<wgt id='1227'> +1.2182030e-12 </wgt>
<wgt id='1228'> +1.2234051e-12 </wgt>
<wgt id='1229'> +1.2289180e-12 </wgt>
<wgt id='1230'> +1.2218416e-12 </wgt>
<wgt id='1231'> +1.2220270e-12 </wgt>
<wgt id='1232'> +1.2453758e-12 </wgt>
<wgt id='1233'> +1.2235900e-12 </wgt>
<wgt id='1234'> +1.2271994e-12 </wgt>
<wgt id='1235'> +1.2179269e-12 </wgt>
<wgt id='1236'> +1.2213935e-12 </wgt>
<wgt id='1237'> +1.2245975e-12 </wgt>
<wgt id='1238'> +1.2300077e-12 </wgt>
<wgt id='1239'> +1.2322407e-12 </wgt>
<wgt id='1240'> +1.2343197e-12 </wgt>
<wgt id='1241'> +1.1977528e-12 </wgt>
<wgt id='1242'> +1.1928696e-12 </wgt>
<wgt id='1243'> +1.2025683e-12 </wgt>
<wgt id='1244'> +1.1939615e-12 </wgt>
<wgt id='1245'> +1.2005390e-12 </wgt>
<wgt id='1246'> +1.2003621e-12 </wgt>
<wgt id='1247'> +1.1955705e-12 </wgt>
<wgt id='1248'> +1.1965831e-12 </wgt>
<wgt id='1249'> +1.1994041e-12 </wgt>
<wgt id='1250'> +1.1815857e-12 </wgt>
<wgt id='1251'> +1.2091640e-12 </wgt>
<wgt id='1252'> +1.1903049e-12 </wgt>
<wgt id='1253'> +1.2035505e-12 </wgt>
<wgt id='1254'> +1.1960825e-12 </wgt>
<wgt id='1255'> +1.1986663e-12 </wgt>
<wgt id='1256'> +1.2014434e-12 </wgt>
<wgt id='1257'> +1.1884770e-12 </wgt>
<wgt id='1258'> +1.2216151e-12 </wgt>
<wgt id='1259'> +1.1765334e-12 </wgt>
<wgt id='1260'> +1.2040393e-12 </wgt>
<wgt id='1261'> +1.1904559e-12 </wgt>
<wgt id='1262'> +1.2015008e-12 </wgt>
<wgt id='1263'> +1.1960309e-12 </wgt>
<wgt id='1264'> +1.2082439e-12 </wgt>
<wgt id='1265'> +1.1926874e-12 </wgt>
<wgt id='1266'> +1.1899528e-12 </wgt>
<wgt id='1267'> +1.2053704e-12 </wgt>
<wgt id='1268'> +1.1987889e-12 </wgt>
<wgt id='1269'> +1.2000801e-12 </wgt>
<wgt id='1270'> +1.1935362e-12 </wgt>
<wgt id='1271'> +1.1917283e-12 </wgt>
<wgt id='1272'> +1.1986617e-12 </wgt>
<wgt id='1273'> +1.1969555e-12 </wgt>
<wgt id='1274'> +1.1877903e-12 </wgt>
<wgt id='1275'> +1.2121833e-12 </wgt>
<wgt id='1276'> +1.1993228e-12 </wgt>
<wgt id='1277'> +1.1952527e-12 </wgt>
<wgt id='1278'> +1.2009147e-12 </wgt>
<wgt id='1279'> +1.1913528e-12 </wgt>
<wgt id='1280'> +1.1969974e-12 </wgt>
<wgt id='1281'> +1.2089219e-12 </wgt>
<wgt id='1282'> +1.1977528e-12 </wgt>
<wgt id='1283'> +1.1874174e-12 </wgt>
<wgt id='1284'> +1.1914006e-12 </wgt>
<wgt id='1285'> +1.1947929e-12 </wgt>
<wgt id='1286'> +1.2005929e-12 </wgt>
<wgt id='1287'> +1.2030768e-12 </wgt>
<wgt id='1288'> +1.2050152e-12 </wgt>
<wgt id='1289'> +1.3415183e-12 </wgt>
<wgt id='1290'> +1.3416695e-12 </wgt>
<wgt id='1291'> +1.3413751e-12 </wgt>
<wgt id='1292'> +1.3391332e-12 </wgt>
<wgt id='1293'> +1.3432726e-12 </wgt>
<wgt id='1294'> +1.3387769e-12 </wgt>
<wgt id='1295'> +1.3442146e-12 </wgt>
<wgt id='1296'> +1.3373694e-12 </wgt>
<wgt id='1297'> +1.3466907e-12 </wgt>
<wgt id='1298'> +1.3465411e-12 </wgt>
<wgt id='1299'> +1.3353185e-12 </wgt>
<wgt id='1300'> +1.3438728e-12 </wgt>
<wgt id='1301'> +1.3368538e-12 </wgt>
<wgt id='1302'> +1.3402245e-12 </wgt>
<wgt id='1303'> +1.3433408e-12 </wgt>
<wgt id='1304'> +1.3367792e-12 </wgt>
<wgt id='1305'> +1.3447659e-12 </wgt>
<wgt id='1306'> +1.3367904e-12 </wgt>
<wgt id='1307'> +1.3469594e-12 </wgt>
<wgt id='1308'> +1.3466518e-12 </wgt>
<wgt id='1309'> +1.3376197e-12 </wgt>
<wgt id='1310'> +1.3399135e-12 </wgt>
<wgt id='1311'> +1.3434085e-12 </wgt>
<wgt id='1312'> +1.3355159e-12 </wgt>
<wgt id='1313'> +1.3478451e-12 </wgt>
<wgt id='1314'> +1.3475566e-12 </wgt>
<wgt id='1315'> +1.3293889e-12 </wgt>
<wgt id='1316'> +1.3478835e-12 </wgt>
<wgt id='1317'> +1.3416567e-12 </wgt>
<wgt id='1318'> +1.3551895e-12 </wgt>
<wgt id='1319'> +1.3255790e-12 </wgt>
<wgt id='1320'> +1.3527674e-12 </wgt>
<wgt id='1321'> +1.3319804e-12 </wgt>
<wgt id='1322'> +1.3437901e-12 </wgt>
<wgt id='1323'> +1.3384026e-12 </wgt>
<wgt id='1324'> +1.3419810e-12 </wgt>
<wgt id='1325'> +1.3445937e-12 </wgt>
<wgt id='1326'> +1.3504739e-12 </wgt>
<wgt id='1327'> +1.3363976e-12 </wgt>
<wgt id='1328'> +1.3421833e-12 </wgt>
<wgt id='1329'> +1.3408737e-12 </wgt>
<wgt id='1330'> +1.4252145e-12 </wgt>
<wgt id='1331'> +1.2494058e-12 </wgt>
<wgt id='1332'> +1.3079304e-12 </wgt>
<wgt id='1333'> +1.3643752e-12 </wgt>
<wgt id='1334'> +1.3599036e-12 </wgt>
<wgt id='1335'> +1.2938973e-12 </wgt>
<wgt id='1336'> +1.3284829e-12 </wgt>
<wgt id='1337'> +1.3534361e-12 </wgt>
<wgt id='1338'> +1.3362451e-12 </wgt>
<wgt id='1339'> +1.3440233e-12 </wgt>
<wgt id='1340'> +1.2904838e-12 </wgt>
<wgt id='1341'> +1.2904724e-12 </wgt>
<wgt id='1342'> +1.2905598e-12 </wgt>
<wgt id='1343'> +1.2877594e-12 </wgt>
<wgt id='1344'> +1.2923453e-12 </wgt>
<wgt id='1345'> +1.2873850e-12 </wgt>
<wgt id='1346'> +1.2933952e-12 </wgt>
<wgt id='1347'> +1.2868996e-12 </wgt>
<wgt id='1348'> +1.2944353e-12 </wgt>
<wgt id='1349'> +1.2955461e-12 </wgt>
<wgt id='1350'> +1.2855142e-12 </wgt>
<wgt id='1351'> +1.2928242e-12 </wgt>
<wgt id='1352'> +1.2853147e-12 </wgt>
<wgt id='1353'> +1.2883619e-12 </wgt>
<wgt id='1354'> +1.2942370e-12 </wgt>
<wgt id='1355'> +1.2859812e-12 </wgt>
<wgt id='1356'> +1.2930029e-12 </wgt>
<wgt id='1357'> +1.2863537e-12 </wgt>
<wgt id='1358'> +1.2953893e-12 </wgt>
<wgt id='1359'> +1.2949580e-12 </wgt>
<wgt id='1360'> +1.2866558e-12 </wgt>
<wgt id='1361'> +1.2890720e-12 </wgt>
<wgt id='1362'> +1.2925107e-12 </wgt>
<wgt id='1363'> +1.2832284e-12 </wgt>
<wgt id='1364'> +1.2958367e-12 </wgt>
<wgt id='1365'> +1.2803572e-12 </wgt>
<wgt id='1366'> +1.2950343e-12 </wgt>
<wgt id='1367'> +1.2960838e-12 </wgt>
<wgt id='1368'> +1.2904308e-12 </wgt>
<wgt id='1369'> +1.3011144e-12 </wgt>
<wgt id='1370'> +1.2779162e-12 </wgt>
<wgt id='1371'> +1.3000255e-12 </wgt>
<wgt id='1372'> +1.2791555e-12 </wgt>
<wgt id='1373'> +1.2919997e-12 </wgt>
<wgt id='1374'> +1.2886043e-12 </wgt>
<wgt id='1375'> +1.2905060e-12 </wgt>
<wgt id='1376'> +1.2942160e-12 </wgt>
<wgt id='1377'> +1.2977076e-12 </wgt>
<wgt id='1378'> +1.2872715e-12 </wgt>
<wgt id='1379'> +1.2924800e-12 </wgt>
<wgt id='1380'> +1.2882570e-12 </wgt>
<wgt id='1381'> +1.3747204e-12 </wgt>
<wgt id='1382'> +1.2041817e-12 </wgt>
<wgt id='1383'> +1.2486323e-12 </wgt>
<wgt id='1384'> +1.3193141e-12 </wgt>
<wgt id='1385'> +1.3097195e-12 </wgt>
<wgt id='1386'> +1.2426268e-12 </wgt>
<wgt id='1387'> +1.2759325e-12 </wgt>
<wgt id='1388'> +1.3023808e-12 </wgt>
<wgt id='1389'> +1.2840500e-12 </wgt>
<wgt id='1390'> +1.2931525e-12 </wgt>
<wgt id='1391'> +1.2870837e-12 </wgt>
<wgt id='1392'> +1.2180386e-12 </wgt>
<wgt id='1393'> +1.2392164e-12 </wgt>
<wgt id='1394'> +1.2590937e-12 </wgt>
<wgt id='1395'> +1.2994647e-12 </wgt>
<wgt id='1396'> +1.2810762e-12 </wgt>
<wgt id='1397'> +1.2579795e-12 </wgt>
<wgt id='1398'> +1.2604763e-12 </wgt>
<wgt id='1399'> +1.2654844e-12 </wgt>
<wgt id='1400'> +1.2706990e-12 </wgt>
<wgt id='1401'> +1.2751895e-12 </wgt>
<wgt id='1402'> +1.2849890e-12 </wgt>
<wgt id='1403'> +1.2908730e-12 </wgt>
<wgt id='1404'> +1.2978816e-12 </wgt>
<wgt id='1405'> +1.2810762e-12 </wgt>
<wgt id='1406'> +1.2685460e-12 </wgt>
<wgt id='1407'> +1.2748013e-12 </wgt>
<wgt id='1408'> +1.2863795e-12 </wgt>
<wgt id='1409'> +1.2890658e-12 </wgt>
<wgt id='1410'> +1.2224621e-12 </wgt>
<wgt id='1411'> +1.2220863e-12 </wgt>
<wgt id='1412'> +1.2230092e-12 </wgt>
<wgt id='1413'> +1.2246209e-12 </wgt>
<wgt id='1414'> +1.2203597e-12 </wgt>
<wgt id='1415'> +1.2183382e-12 </wgt>
<wgt id='1416'> +1.2241839e-12 </wgt>
<wgt id='1417'> +1.2158472e-12 </wgt>
<wgt id='1418'> +1.2291534e-12 </wgt>
<wgt id='1419'> +1.2248260e-12 </wgt>
<wgt id='1420'> +1.2202194e-12 </wgt>
<wgt id='1421'> +1.2101244e-12 </wgt>
<wgt id='1422'> +1.2278485e-12 </wgt>
<wgt id='1423'> +1.2226684e-12 </wgt>
<wgt id='1424'> +1.2222714e-12 </wgt>
<wgt id='1425'> +1.2173551e-12 </wgt>
<wgt id='1426'> +1.2280330e-12 </wgt>
<wgt id='1427'> +1.2192923e-12 </wgt>
<wgt id='1428'> +1.2239890e-12 </wgt>
<wgt id='1429'> +1.2178409e-12 </wgt>
<wgt id='1430'> +1.2288873e-12 </wgt>
<wgt id='1431'> +1.2276215e-12 </wgt>
<wgt id='1432'> +1.2188827e-12 </wgt>
<wgt id='1433'> +1.2243318e-12 </wgt>
<wgt id='1434'> +1.2196223e-12 </wgt>
<wgt id='1435'> +1.2250066e-12 </wgt>
<wgt id='1436'> +1.2164867e-12 </wgt>
<wgt id='1437'> +1.2290234e-12 </wgt>
<wgt id='1438'> +1.2213590e-12 </wgt>
<wgt id='1439'> +1.2153237e-12 </wgt>
<wgt id='1440'> +1.2396068e-12 </wgt>
<wgt id='1441'> +1.2255483e-12 </wgt>
<wgt id='1442'> +1.2167713e-12 </wgt>
<wgt id='1443'> +1.2204369e-12 </wgt>
<wgt id='1444'> +1.2278461e-12 </wgt>
<wgt id='1445'> +1.2255430e-12 </wgt>
<wgt id='1446'> +1.2223822e-12 </wgt>
<wgt id='1447'> +1.2237663e-12 </wgt>
<wgt id='1448'> +1.2228949e-12 </wgt>
<wgt id='1449'> +1.2247569e-12 </wgt>
<wgt id='1450'> +1.2208285e-12 </wgt>
<wgt id='1451'> +1.1634237e-12 </wgt>
<wgt id='1452'> +1.3232548e-12 </wgt>
<wgt id='1453'> +1.2174476e-12 </wgt>
<wgt id='1454'> +1.2515606e-12 </wgt>
<wgt id='1455'> +1.2565442e-12 </wgt>
<wgt id='1456'> +1.1909763e-12 </wgt>
<wgt id='1457'> +1.1879160e-12 </wgt>
<wgt id='1458'> +1.2377562e-12 </wgt>
<wgt id='1459'> +1.2083436e-12 </wgt>
<wgt id='1460'> +1.2308527e-12 </wgt>
<wgt id='1461'> +1.2224621e-12 </wgt>
<wgt id='1462'> +1.2025658e-12 </wgt>
<wgt id='1463'> +1.2310036e-12 </wgt>
<wgt id='1464'> +1.2169564e-12 </wgt>
<wgt id='1465'> +1.1712492e-12 </wgt>
<wgt id='1466'> +1.1786035e-12 </wgt>
<wgt id='1467'> +1.1873457e-12 </wgt>
<wgt id='1468'> +1.1979526e-12 </wgt>
<wgt id='1469'> +1.2071540e-12 </wgt>
<wgt id='1470'> +1.2280063e-12 </wgt>
<wgt id='1471'> +1.2463170e-12 </wgt>
<wgt id='1472'> +1.2570994e-12 </wgt>
<wgt id='1473'> +1.2169564e-12 </wgt>
<wgt id='1474'> +1.2062014e-12 </wgt>
<wgt id='1475'> +1.2126245e-12 </wgt>
<wgt id='1476'> +1.2220019e-12 </wgt>
<wgt id='1477'> +1.2257570e-12 </wgt>
<wgt id='1478'> +1.1840920e-12 </wgt>
<wgt id='1479'> +1.1802057e-12 </wgt>
<wgt id='1480'> +1.1422975e-12 </wgt>
<wgt id='1481'> +1.1769096e-12 </wgt>
<wgt id='1482'> +1.1796214e-12 </wgt>
<wgt id='1483'> +1.2471124e-12 </wgt>
<wgt id='1484'> +1.1823285e-12 </wgt>
<wgt id='1485'> +1.1702768e-12 </wgt>
<wgt id='1486'> +1.1862616e-12 </wgt>
<wgt id='1487'> +1.1948810e-12 </wgt>
<wgt id='1488'> +1.1837971e-12 </wgt>
<wgt id='1489'> +1.1949831e-12 </wgt>
<wgt id='1490'> +1.1790322e-12 </wgt>
<wgt id='1491'> +1.1930051e-12 </wgt>
<wgt id='1492'> +1.1878755e-12 </wgt>
<wgt id='1493'> +1.1752149e-12 </wgt>
<wgt id='1494'> +1.1553825e-12 </wgt>
<wgt id='1495'> +1.1713267e-12 </wgt>
<wgt id='1496'> +1.1905600e-12 </wgt>
<wgt id='1497'> +1.1870527e-12 </wgt>
<wgt id='1498'> +1.1952084e-12 </wgt>
<wgt id='1499'> +1.1850382e-12 </wgt>
<wgt id='1500'> +1.1812298e-12 </wgt>
<wgt id='1501'> +1.1909643e-12 </wgt>
<wgt id='1502'> +1.1865051e-12 </wgt>
<wgt id='1503'> +1.1820853e-12 </wgt>
<wgt id='1504'> +1.1865560e-12 </wgt>
<wgt id='1505'> +1.1956362e-12 </wgt>
<wgt id='1506'> +1.1775963e-12 </wgt>
<wgt id='1507'> +1.1814642e-12 </wgt>
<wgt id='1508'> +1.1732061e-12 </wgt>
<wgt id='1509'> +1.2997790e-12 </wgt>
<wgt id='1510'> +1.2979708e-12 </wgt>
<wgt id='1511'> +1.3026344e-12 </wgt>
<wgt id='1512'> +1.2984027e-12 </wgt>
<wgt id='1513'> +1.2932022e-12 </wgt>
<wgt id='1514'> +1.3011721e-12 </wgt>
<wgt id='1515'> +1.3095302e-12 </wgt>
<wgt id='1516'> +1.3089098e-12 </wgt>
<wgt id='1517'> +1.3139703e-12 </wgt>
<wgt id='1518'> +1.2826045e-12 </wgt>
<wgt id='1519'> +1.3094930e-12 </wgt>
<wgt id='1520'> +1.3116382e-12 </wgt>
<wgt id='1521'> +1.2894262e-12 </wgt>
<wgt id='1522'> +1.3015963e-12 </wgt>
<wgt id='1523'> +1.2723025e-12 </wgt>
<wgt id='1524'> +1.2848611e-12 </wgt>
<wgt id='1525'> +1.2780170e-12 </wgt>
<wgt id='1526'> +1.3099309e-12 </wgt>
<wgt id='1527'> +1.3068634e-12 </wgt>
<wgt id='1528'> +1.3032987e-12 </wgt>
<wgt id='1529'> +1.2986500e-12 </wgt>
<wgt id='1530'> +1.2891909e-12 </wgt>
<wgt id='1531'> +1.2885970e-12 </wgt>
<wgt id='1532'> +1.3223043e-12 </wgt>
<wgt id='1533'> +1.3007738e-12 </wgt>
<wgt id='1534'> +1.2980690e-12 </wgt>
<wgt id='1535'> +1.3010430e-12 </wgt>
<wgt id='1536'> +1.2970509e-12 </wgt>
<wgt id='1537'> +1.3035775e-12 </wgt>
<wgt id='1538'> +1.2952044e-12 </wgt>
<wgt id='1539'> +1.3089454e-12 </wgt>
<wgt id='1540'> +1.2875222e-12 </wgt>
<wgt id='1541'> +1.2867518e-12 </wgt>
<wgt id='1542'> +1.3067356e-12 </wgt>
<wgt id='1543'> +1.2967098e-12 </wgt>
<wgt id='1544'> +1.2853519e-12 </wgt>
<wgt id='1545'> +1.3004545e-12 </wgt>
<wgt id='1546'> +1.2873426e-12 </wgt>
<wgt id='1547'> +1.3004503e-12 </wgt>
<wgt id='1548'> +1.2977354e-12 </wgt>
<wgt id='1549'> +1.2990016e-12 </wgt>
<wgt id='1550'> +1.3009139e-12 </wgt>
<wgt id='1551'> +1.3036633e-12 </wgt>
<wgt id='1552'> +1.3008840e-12 </wgt>
<wgt id='1553'> +1.3052628e-12 </wgt>
<wgt id='1554'> +1.2964520e-12 </wgt>
<wgt id='1555'> +1.3002652e-12 </wgt>
<wgt id='1556'> +1.3006553e-12 </wgt>
<wgt id='1557'> +1.2987952e-12 </wgt>
<wgt id='1558'> +1.3009541e-12 </wgt>
<wgt id='1559'> +1.2991380e-12 </wgt>
<wgt id='1560'> +1.2976040e-12 </wgt>
<wgt id='1561'> +1.2987482e-12 </wgt>
<wgt id='1562'> +1.2997930e-12 </wgt>
<wgt id='1563'> +1.2996560e-12 </wgt>
<wgt id='1564'> +1.2993364e-12 </wgt>
<wgt id='1565'> +1.2999987e-12 </wgt>
<wgt id='1566'> +1.3015321e-12 </wgt>
<wgt id='1567'> +1.3013011e-12 </wgt>
<wgt id='1568'> +1.3020104e-12 </wgt>
<wgt id='1569'> +1.2971244e-12 </wgt>
<wgt id='1570'> +1.2962549e-12 </wgt>
<wgt id='1571'> +1.3004518e-12 </wgt>
<wgt id='1572'> +1.2966706e-12 </wgt>
<wgt id='1573'> +1.3001734e-12 </wgt>
<wgt id='1574'> +1.2997346e-12 </wgt>
<wgt id='1575'> +1.2980598e-12 </wgt>
<wgt id='1576'> +1.2988649e-12 </wgt>
<wgt id='1577'> +1.3002203e-12 </wgt>
<wgt id='1578'> +1.3004212e-12 </wgt>
<wgt id='1579'> +1.3003193e-12 </wgt>
<wgt id='1580'> +1.2990026e-12 </wgt>
<wgt id='1581'> +1.3008003e-12 </wgt>
<wgt id='1582'> +1.3013047e-12 </wgt>
<wgt id='1583'> +1.3012735e-12 </wgt>
<wgt id='1584'> +1.3008766e-12 </wgt>
<wgt id='1585'> +1.2973311e-12 </wgt>
<wgt id='1586'> +1.2970753e-12 </wgt>
<wgt id='1587'> +1.3013252e-12 </wgt>
<wgt id='1588'> +1.3021482e-12 </wgt>
<wgt id='1589'> +1.2993261e-12 </wgt>
<wgt id='1590'> +1.3013004e-12 </wgt>
<wgt id='1591'> +1.3006241e-12 </wgt>
<wgt id='1592'> +1.3004188e-12 </wgt>
<wgt id='1593'> +1.3013861e-12 </wgt>
<wgt id='1594'> +1.2991599e-12 </wgt>
<wgt id='1595'> +1.2985255e-12 </wgt>
<wgt id='1596'> +1.2983715e-12 </wgt>
<wgt id='1597'> +1.2991786e-12 </wgt>
<wgt id='1598'> +1.2998936e-12 </wgt>
<wgt id='1599'> +1.3002143e-12 </wgt>
<wgt id='1600'> +1.3003409e-12 </wgt>
<wgt id='1601'> +1.3008515e-12 </wgt>
<wgt id='1602'> +1.3004137e-12 </wgt>
<wgt id='1603'> +1.2994797e-12 </wgt>
<wgt id='1604'> +1.2996752e-12 </wgt>
<wgt id='1605'> +1.2997558e-12 </wgt>
<wgt id='1606'> +1.3002773e-12 </wgt>
<wgt id='1607'> +1.3012985e-12 </wgt>
<wgt id='1608'> +1.3004910e-12 </wgt>
<wgt id='1609'> +1.2995010e-12 </wgt>
<wgt id='1610'> +1.2856227e-12 </wgt>
<wgt id='1611'> +1.3139746e-12 </wgt>
<wgt id='1612'> +1.4623599e-12 </wgt>
<wgt id='1613'> +1.4005441e-12 </wgt>
<wgt id='1614'> +1.4731337e-12 </wgt>
<wgt id='1615'> +1.5027937e-12 </wgt>
<wgt id='1616'> +1.4080156e-12 </wgt>
<wgt id='1617'> +1.4154615e-12 </wgt>
<wgt id='1618'> +1.2880656e-12 </wgt>
<wgt id='1619'> +1.3854694e-12 </wgt>
<wgt id='1620'> +1.4807458e-12 </wgt>
<wgt id='1621'> +1.4127469e-12 </wgt>
<wgt id='1622'> +1.4515292e-12 </wgt>
<wgt id='1623'> +1.4623975e-12 </wgt>
<wgt id='1624'> +1.4725262e-12 </wgt>
<wgt id='1625'> +1.3984904e-12 </wgt>
<wgt id='1626'> +1.4945034e-12 </wgt>
<wgt id='1627'> +1.5353353e-12 </wgt>
<wgt id='1628'> +1.4015348e-12 </wgt>
<wgt id='1629'> +1.1718695e-12 </wgt>
<wgt id='1630'> +1.5033299e-12 </wgt>
<wgt id='1631'> +1.4090741e-12 </wgt>
<wgt id='1632'> +1.4979886e-12 </wgt>
<wgt id='1633'> +1.5337406e-12 </wgt>
<wgt id='1634'> +1.4774765e-12 </wgt>
<wgt id='1635'> +1.3667635e-12 </wgt>
<wgt id='1636'> +1.2922137e-12 </wgt>
<wgt id='1637'> +1.5600702e-12 </wgt>
<wgt id='1638'> +1.4701272e-12 </wgt>
<wgt id='1639'> +1.4254707e-12 </wgt>
<wgt id='1640'> +1.5785951e-12 </wgt>
<wgt id='1641'> +1.4556239e-12 </wgt>
<wgt id='1642'> +1.5564138e-12 </wgt>
<wgt id='1643'> +1.4369585e-12 </wgt>
<wgt id='1644'> +1.5647189e-12 </wgt>
<wgt id='1645'> +1.4855828e-12 </wgt>
<wgt id='1646'> +1.5568402e-12 </wgt>
<wgt id='1647'> +1.5539819e-12 </wgt>
<wgt id='1648'> +1.4865047e-12 </wgt>
<wgt id='1649'> +1.4238586e-12 </wgt>
<wgt id='1650'> +1.4978393e-12 </wgt>
<wgt id='1651'> +1.4480841e-12 </wgt>
<wgt id='1652'> +1.4257970e-12 </wgt>
<wgt id='1653'> +1.4842030e-12 </wgt>
<wgt id='1654'> +1.4197795e-12 </wgt>
<wgt id='1655'> +1.4735314e-12 </wgt>
<wgt id='1656'> +1.5449870e-12 </wgt>
<wgt id='1657'> +1.4461328e-12 </wgt>
<wgt id='1658'> +1.5521526e-12 </wgt>
<wgt id='1659'> +1.4725262e-12 </wgt>
<wgt id='1660'> +1.3672819e-12 </wgt>
<wgt id='1661'> +1.5707479e-12 </wgt>
<wgt id='1662'> +1.4688544e-12 </wgt>
<wgt id='1663'> +1.4666318e-12 </wgt>
<wgt id='1664'> +1.4672270e-12 </wgt>
<wgt id='1665'> +1.5936281e-12 </wgt>
<wgt id='1666'> +1.5015909e-12 </wgt>
<wgt id='1667'> +1.4410310e-12 </wgt>
<wgt id='1668'> +1.4041686e-12 </wgt>
<wgt id='1669'> +1.4860430e-12 </wgt>
<wgt id='1670'> +1.5045170e-12 </wgt>
<wgt id='1671'> +1.3986351e-12 </wgt>
<wgt id='1672'> +1.5268447e-12 </wgt>
<wgt id='1673'> +1.4236925e-12 </wgt>
<wgt id='1674'> +1.4149111e-12 </wgt>
<wgt id='1675'> +1.4414151e-12 </wgt>
<wgt id='1676'> +1.3710200e-12 </wgt>
<wgt id='1677'> +1.4130283e-12 </wgt>
<wgt id='1678'> +1.5032930e-12 </wgt>
<wgt id='1679'> +1.4136373e-12 </wgt>
<wgt id='1680'> +1.4987246e-12 </wgt>
<wgt id='1681'> +1.3962369e-12 </wgt>
<wgt id='1682'> +1.4860203e-12 </wgt>
<wgt id='1683'> +1.4792128e-12 </wgt>
<wgt id='1684'> +1.5899130e-12 </wgt>
<wgt id='1685'> +1.4800329e-12 </wgt>
<wgt id='1686'> +1.4826316e-12 </wgt>
<wgt id='1687'> +1.3468336e-12 </wgt>
<wgt id='1688'> +1.5206661e-12 </wgt>
<wgt id='1689'> +1.4864872e-12 </wgt>
<wgt id='1690'> +1.4306665e-12 </wgt>
<wgt id='1691'> +1.3294369e-12 </wgt>
<wgt id='1692'> +1.4412480e-12 </wgt>
<wgt id='1693'> +1.5072358e-12 </wgt>
<wgt id='1694'> +1.5226738e-12 </wgt>
<wgt id='1695'> +1.5981249e-12 </wgt>
<wgt id='1696'> +1.4435628e-12 </wgt>
<wgt id='1697'> +1.3907120e-12 </wgt>
<wgt id='1698'> +1.4770993e-12 </wgt>
<wgt id='1699'> +1.3864304e-12 </wgt>
<wgt id='1700'> +1.4848051e-12 </wgt>
<wgt id='1701'> +1.3920304e-12 </wgt>
<wgt id='1702'> +1.4358975e-12 </wgt>
<wgt id='1703'> +1.4012848e-12 </wgt>
<wgt id='1704'> +1.5653799e-12 </wgt>
<wgt id='1705'> +1.5640880e-12 </wgt>
<wgt id='1706'> +1.4734892e-12 </wgt>
<wgt id='1707'> +1.4207182e-12 </wgt>
<wgt id='1708'> +1.4700076e-12 </wgt>
<wgt id='1709'> +1.5276489e-12 </wgt>
<wgt id='1710'> +1.4553117e-12 </wgt>
<wgt id='1711'> +1.5603828e-12 </wgt>
<wgt id='1712'> +1.4648420e-12 </wgt>
<wgt id='1713'> +1.1177379e-12 </wgt>
<wgt id='1714'> +1.1100041e-12 </wgt>
<wgt id='1715'> +1.0932473e-12 </wgt>
<wgt id='1716'> +1.0493917e-12 </wgt>
<wgt id='1717'> +1.0776042e-12 </wgt>
<wgt id='1718'> +1.0557303e-12 </wgt>
<wgt id='1719'> +1.1596939e-12 </wgt>
<wgt id='1720'> +1.0793676e-12 </wgt>
<wgt id='1721'> +1.1088707e-12 </wgt>
<wgt id='1722'> +1.1235718e-12 </wgt>
<wgt id='1723'> +1.3119904e-12 </wgt>
<wgt id='1724'> +1.1873768e-12 </wgt>
<wgt id='1725'> +1.0875564e-12 </wgt>
<wgt id='1726'> +1.0943545e-12 </wgt>
<wgt id='1727'> +1.1095120e-12 </wgt>
<wgt id='1728'> +1.1575179e-12 </wgt>
<wgt id='1729'> +1.1493410e-12 </wgt>
<wgt id='1730'> +1.1657467e-12 </wgt>
<wgt id='1731'> +1.1529705e-12 </wgt>
<wgt id='1732'> +1.0805455e-12 </wgt>
<wgt id='1733'> +1.0244320e-12 </wgt>
<wgt id='1734'> +1.0309155e-12 </wgt>
<wgt id='1735'> +1.1402321e-12 </wgt>
<wgt id='1736'> +1.1483518e-12 </wgt>
<wgt id='1737'> +1.0254028e-12 </wgt>
<wgt id='1738'> +1.0589580e-12 </wgt>
<wgt id='1739'> +1.2268828e-12 </wgt>
<wgt id='1740'> +1.0253082e-12 </wgt>
<wgt id='1741'> +1.1098092e-12 </wgt>
<wgt id='1742'> +1.0380691e-12 </wgt>
<wgt id='1743'> +1.0642701e-12 </wgt>
<wgt id='1744'> +1.0622512e-12 </wgt>
<wgt id='1745'> +1.2319675e-12 </wgt>
<wgt id='1746'> +1.1501271e-12 </wgt>
<wgt id='1747'> +1.1910380e-12 </wgt>
<wgt id='1748'> +1.0249877e-12 </wgt>
<wgt id='1749'> +1.0950373e-12 </wgt>
<wgt id='1750'> +1.1038850e-12 </wgt>
<wgt id='1751'> +1.1732340e-12 </wgt>
<wgt id='1752'> +1.0633457e-12 </wgt>
<wgt id='1753'> +1.0797243e-12 </wgt>
<wgt id='1754'> +1.1409102e-12 </wgt>
<wgt id='1755'> +1.1047372e-12 </wgt>
<wgt id='1756'> +1.0865789e-12 </wgt>
<wgt id='1757'> +1.1741523e-12 </wgt>
<wgt id='1758'> +1.1804587e-12 </wgt>
<wgt id='1759'> +1.1039159e-12 </wgt>
<wgt id='1760'> +1.1749399e-12 </wgt>
<wgt id='1761'> +1.1226998e-12 </wgt>
<wgt id='1762'> +1.0380123e-12 </wgt>
<wgt id='1763'> +1.0449060e-12 </wgt>
<wgt id='1764'> +1.1084080e-12 </wgt>
<wgt id='1765'> +1.1341579e-12 </wgt>
<wgt id='1766'> +1.3082758e-12 </wgt>
<wgt id='1767'> +1.1514706e-12 </wgt>
<wgt id='1768'> +1.1377939e-12 </wgt>
<wgt id='1769'> +1.1281215e-12 </wgt>
<wgt id='1770'> +1.0515155e-12 </wgt>
<wgt id='1771'> +1.0879070e-12 </wgt>
<wgt id='1772'> +1.1199609e-12 </wgt>
<wgt id='1773'> +1.1309847e-12 </wgt>
<wgt id='1774'> +1.0752063e-12 </wgt>
<wgt id='1775'> +1.0684669e-12 </wgt>
<wgt id='1776'> +1.1348392e-12 </wgt>
<wgt id='1777'> +1.2111090e-12 </wgt>
<wgt id='1778'> +1.1315449e-12 </wgt>
<wgt id='1779'> +1.1104090e-12 </wgt>
<wgt id='1780'> +1.2481936e-12 </wgt>
<wgt id='1781'> +1.1198899e-12 </wgt>
<wgt id='1782'> +1.1106333e-12 </wgt>
<wgt id='1783'> +1.1116727e-12 </wgt>
<wgt id='1784'> +1.1715020e-12 </wgt>
<wgt id='1785'> +1.2592561e-12 </wgt>
<wgt id='1786'> +1.2378692e-12 </wgt>
<wgt id='1787'> +1.1481265e-12 </wgt>
<wgt id='1788'> +1.0525205e-12 </wgt>
<wgt id='1789'> +1.1968736e-12 </wgt>
<wgt id='1790'> +1.1382237e-12 </wgt>
<wgt id='1791'> +1.1340623e-12 </wgt>
<wgt id='1792'> +1.1384094e-12 </wgt>
<wgt id='1793'> +1.0821051e-12 </wgt>
<wgt id='1794'> +1.1317283e-12 </wgt>
<wgt id='1795'> +1.0439328e-12 </wgt>
<wgt id='1796'> +1.1278449e-12 </wgt>
<wgt id='1797'> +1.0662239e-12 </wgt>
<wgt id='1798'> +1.0476044e-12 </wgt>
<wgt id='1799'> +1.1282736e-12 </wgt>
<wgt id='1800'> +1.1308797e-12 </wgt>
<wgt id='1801'> +1.0516853e-12 </wgt>
<wgt id='1802'> +1.0943244e-12 </wgt>
<wgt id='1803'> +1.0701684e-12 </wgt>
<wgt id='1804'> +1.0489143e-12 </wgt>
<wgt id='1805'> +1.1277766e-12 </wgt>
<wgt id='1806'> +1.1073099e-12 </wgt>
<wgt id='1807'> +1.1800160e-12 </wgt>
<wgt id='1808'> +1.0869582e-12 </wgt>
<wgt id='1809'> +1.1430238e-12 </wgt>
<wgt id='1810'> +1.1126395e-12 </wgt>
<wgt id='1811'> +1.1409346e-12 </wgt>
<wgt id='1812'> +1.0800146e-12 </wgt>
<wgt id='1813'> +1.0211354e-12 </wgt>
<wgt id='1814'> +1.1274719e-12 </wgt>
<wgt id='1815'> +1.3556507e-12 </wgt>
<wgt id='1816'> +1.1177379e-12 </wgt>
<wgt id='1817'> +1.1100041e-12 </wgt>
<wgt id='1818'> +1.0932473e-12 </wgt>
<wgt id='1819'> +1.0493917e-12 </wgt>
<wgt id='1820'> +1.0776042e-12 </wgt>
<wgt id='1821'> +1.0557303e-12 </wgt>
<wgt id='1822'> +1.1596939e-12 </wgt>
<wgt id='1823'> +1.0793676e-12 </wgt>
<wgt id='1824'> +1.1088707e-12 </wgt>
<wgt id='1825'> +1.1235718e-12 </wgt>
<wgt id='1826'> +1.3119904e-12 </wgt>
<wgt id='1827'> +1.1873768e-12 </wgt>
<wgt id='1828'> +1.0875564e-12 </wgt>
<wgt id='1829'> +1.0943545e-12 </wgt>
<wgt id='1830'> +1.1095120e-12 </wgt>
<wgt id='1831'> +1.1575179e-12 </wgt>
<wgt id='1832'> +1.1493410e-12 </wgt>
<wgt id='1833'> +1.1657467e-12 </wgt>
<wgt id='1834'> +1.1529705e-12 </wgt>
<wgt id='1835'> +1.0805455e-12 </wgt>
<wgt id='1836'> +1.0244320e-12 </wgt>
<wgt id='1837'> +1.0309155e-12 </wgt>
<wgt id='1838'> +1.1402321e-12 </wgt>
<wgt id='1839'> +1.1483518e-12 </wgt>
<wgt id='1840'> +1.0254028e-12 </wgt>
<wgt id='1841'> +1.0589580e-12 </wgt>
<wgt id='1842'> +1.2268828e-12 </wgt>
<wgt id='1843'> +1.0253082e-12 </wgt>
<wgt id='1844'> +1.1098092e-12 </wgt>
<wgt id='1845'> +1.0380691e-12 </wgt>
<wgt id='1846'> +1.0642701e-12 </wgt>
<wgt id='1847'> +1.0622512e-12 </wgt>
<wgt id='1848'> +1.2319675e-12 </wgt>
<wgt id='1849'> +1.1501271e-12 </wgt>
<wgt id='1850'> +1.1910380e-12 </wgt>
<wgt id='1851'> +1.0249877e-12 </wgt>
<wgt id='1852'> +1.0950373e-12 </wgt>
<wgt id='1853'> +1.1038850e-12 </wgt>
<wgt id='1854'> +1.1732340e-12 </wgt>
<wgt id='1855'> +1.0633457e-12 </wgt>
<wgt id='1856'> +1.0797243e-12 </wgt>
<wgt id='1857'> +1.1409102e-12 </wgt>
<wgt id='1858'> +1.1047372e-12 </wgt>
<wgt id='1859'> +1.0865789e-12 </wgt>
<wgt id='1860'> +1.1741523e-12 </wgt>
<wgt id='1861'> +1.1804587e-12 </wgt>
<wgt id='1862'> +1.1039159e-12 </wgt>
<wgt id='1863'> +1.1749399e-12 </wgt>
<wgt id='1864'> +1.1226998e-12 </wgt>
<wgt id='1865'> +1.0380123e-12 </wgt>
<wgt id='1866'> +1.0449060e-12 </wgt>
<wgt id='1867'> +1.1084080e-12 </wgt>
<wgt id='1868'> +1.1341579e-12 </wgt>
<wgt id='1869'> +1.3082758e-12 </wgt>
<wgt id='1870'> +1.1514706e-12 </wgt>
<wgt id='1871'> +1.1377939e-12 </wgt>
<wgt id='1872'> +1.1281215e-12 </wgt>
<wgt id='1873'> +1.0515155e-12 </wgt>
<wgt id='1874'> +1.0879070e-12 </wgt>
<wgt id='1875'> +1.1199609e-12 </wgt>
<wgt id='1876'> +1.1309847e-12 </wgt>
<wgt id='1877'> +1.0752063e-12 </wgt>
<wgt id='1878'> +1.0684669e-12 </wgt>
<wgt id='1879'> +1.1348392e-12 </wgt>
<wgt id='1880'> +1.2111090e-12 </wgt>
<wgt id='1881'> +1.1315449e-12 </wgt>
<wgt id='1882'> +1.1104090e-12 </wgt>
<wgt id='1883'> +1.2481936e-12 </wgt>
<wgt id='1884'> +1.1198899e-12 </wgt>
<wgt id='1885'> +1.1106333e-12 </wgt>
<wgt id='1886'> +1.1116727e-12 </wgt>
<wgt id='1887'> +1.1715020e-12 </wgt>
<wgt id='1888'> +1.2592561e-12 </wgt>
<wgt id='1889'> +1.2378692e-12 </wgt>
<wgt id='1890'> +1.1481265e-12 </wgt>
<wgt id='1891'> +1.0525205e-12 </wgt>
<wgt id='1892'> +1.1968736e-12 </wgt>
<wgt id='1893'> +1.1382237e-12 </wgt>
<wgt id='1894'> +1.1340623e-12 </wgt>
<wgt id='1895'> +1.1384094e-12 </wgt>
<wgt id='1896'> +1.0821051e-12 </wgt>
<wgt id='1897'> +1.1317283e-12 </wgt>
<wgt id='1898'> +1.0439328e-12 </wgt>
<wgt id='1899'> +1.1278449e-12 </wgt>
<wgt id='1900'> +1.0662239e-12 </wgt>
<wgt id='1901'> +1.0476044e-12 </wgt>
<wgt id='1902'> +1.1282736e-12 </wgt>
<wgt id='1903'> +1.1308797e-12 </wgt>
<wgt id='1904'> +1.0516853e-12 </wgt>
<wgt id='1905'> +1.0943244e-12 </wgt>
<wgt id='1906'> +1.0701684e-12 </wgt>
<wgt id='1907'> +1.0489143e-12 </wgt>
<wgt id='1908'> +1.1277766e-12 </wgt>
<wgt id='1909'> +1.1073099e-12 </wgt>
<wgt id='1910'> +1.1800160e-12 </wgt>
<wgt id='1911'> +1.0869582e-12 </wgt>
<wgt id='1912'> +1.1430238e-12 </wgt>
<wgt id='1913'> +1.1126395e-12 </wgt>
<wgt id='1914'> +1.1409346e-12 </wgt>
<wgt id='1915'> +1.0800146e-12 </wgt>
<wgt id='1916'> +1.0211354e-12 </wgt>
<wgt id='1917'> +1.0965153e-12 </wgt>
<wgt id='1918'> +1.1236701e-12 </wgt>
<wgt id='1919'> +1.1453746e-12 </wgt>
</rwgt>
</event>
<event>
 9      1 +1.5607000e-12 3.67305400e+01 7.81860800e-03 1.39143900e-01
        2 -1    0    0  502    0 -0.0000000000e+00 +0.0000000000e+00 +7.9303982072e+02 7.9303982072e+02 0.0000000000e+00 0.0000e+00 -1.0000e+00
       21 -1    0    0  501  502 +0.0000000000e+00 -0.0000000000e+00 -1.7150621936e+00 1.7150621936e+00 0.0000000000e+00 0.0000e+00 -1.0000e+00
     1023  2    1    2    0    0 -1.5891037741e+01 +2.9522829251e+01 +5.3288468612e+02 5.3414906265e+02 1.5000330198e+01 0.0000e+00 0.0000e+00
  1000023  2    3    3    0    0 -5.1781297307e+00 +4.1115205809e+00 +1.0890825671e+02 1.0924729319e+02 5.4995507822e+00 0.0000e+00 0.0000e+00
        2  1    1    2  501    0 +1.5891037741e+01 -2.9522829251e+01 +2.5844007241e+02 2.6060582026e+02 0.0000000000e+00 0.0000e+00 -1.0000e+00
  1000022  1    4    4    0    0 -4.5225355905e+00 +3.9405344929e+00 +1.0192676168e+02 1.0222546594e+02 5.0000000000e+00 0.0000e+00 -1.0000e+00
      -11  1    4    4    0    0 -5.8169608832e-01 +2.3802446080e-01 +6.4863409648e+00 6.5167204449e+00 5.1100000000e-04 0.0000e+00 -1.0000e+00
       11  1    4    4    0    0 -7.3898051799e-02 -6.7038372775e-02 +4.9515406820e-01 5.0510679847e-01 5.1100000000e-04 0.0000e+00 1.0000e+00
  1000022  1    3    3    0    0 -1.0712908011e+01 +2.5411308670e+01 +4.2397642941e+02 4.2490176947e+02 5.0000000000e+00 0.0000e+00 -1.0000e+00
<mgrwt>
<rscale>  1 0.36730538E+02</rscale>
<asrwt>0</asrwt>
<pdfrwt beam="1">  1       21 0.26385636E-03 0.36730538E+02</pdfrwt>
<pdfrwt beam="2">  1        2 0.12200583E+00 0.36730538E+02</pdfrwt>
<totfact> 0.88615775E+06</totfact>
</mgrwt>
<rwgt>
<wgt id='1001'> +1.5607000e-12 </wgt>
<wgt id='1002'> +1.6108918e-12 </wgt>
<wgt id='1003'> +1.6125839e-12 </wgt>
<wgt id='1004'> +1.5552189e-12 </wgt>
<wgt id='1005'> +1.6150561e-12 </wgt>
<wgt id='1006'> +1.3729575e-12 </wgt>
<wgt id='1007'> +1.4368376e-12 </wgt>
<wgt id='1008'> +1.4392832e-12 </wgt>
<wgt id='1009'> +1.3665048e-12 </wgt>
<wgt id='1010'> +1.4429343e-12 </wgt>
<wgt id='1011'> +1.8107213e-12 </wgt>
<wgt id='1012'> +1.8349061e-12 </wgt>
<wgt id='1013'> +1.8352815e-12 </wgt>
<wgt id='1014'> +1.8073120e-12 </wgt>
<wgt id='1015'> +1.8357161e-12 </wgt>
<wgt id='1016'> +1.8356883e-12 </wgt>
<wgt id='1017'> +1.8287561e-12 </wgt>
<wgt id='1018'> +1.8278680e-12 </wgt>
<wgt id='1019'> +1.8352815e-12 </wgt>
<wgt id='1020'> +1.8263436e-12 </wgt>
<wgt id='1021'> +1.6148664e-12 </wgt>
<wgt id='1022'> +1.6311620e-12 </wgt>
<wgt id='1023'> +1.6314312e-12 </wgt>
<wgt id='1024'> +1.6125839e-12 </wgt>
<wgt id='1025'> +1.6317042e-12 </wgt>
<wgt id='1026'> +2.1297623e-12 </wgt>
<wgt id='1027'> +2.0830671e-12 </wgt>
<wgt id='1028'> +2.0802963e-12 </wgt>
<wgt id='1029'> +2.1327713e-12 </wgt>
<wgt id='1030'> +2.0758712e-12 </wgt>
<wgt id='1031'> +1.2479552e-12 </wgt>
<wgt id='1032'> +1.3618557e-12 </wgt>
<wgt id='1033'> +1.3665048e-12 </wgt>
<wgt id='1034'> +1.2369120e-12 </wgt>
<wgt id='1035'> +1.3735027e-12 </wgt>
<wgt id='1036'> +1.0978339e-12 </wgt>
<wgt id='1037'> +1.2147095e-12 </wgt>
<wgt id='1038'> +1.2196497e-12 </wgt>
<wgt id='1039'> +1.0868220e-12 </wgt>
<wgt id='1040'> +1.2271241e-12 </wgt>
<wgt id='1041'> +1.4478753e-12 </wgt>
<wgt id='1042'> +1.5512386e-12 </wgt>
<wgt id='1043'> +1.5552189e-12 </wgt>
<wgt id='1044'> +1.4374092e-12 </wgt>
<wgt id='1045'> +1.5611601e-12 </wgt>
<wgt id='1046'> +1.5607000e-12 </wgt>
<wgt id='1047'> +1.5594353e-12 </wgt>
<wgt id='1048'> +1.6258387e-12 </wgt>
<wgt id='1049'> +1.5225632e-12 </wgt>
<wgt id='1050'> +1.5254012e-12 </wgt>
<wgt id='1051'> +1.5126112e-12 </wgt>
<wgt id='1052'> +1.5228553e-12 </wgt>
<wgt id='1053'> +1.6235517e-12 </wgt>
<wgt id='1054'> +1.5962243e-12 </wgt>
<wgt id='1055'> +1.5388940e-12 </wgt>
<wgt id='1056'> +1.4828563e-12 </wgt>
<wgt id='1057'> +1.5465236e-12 </wgt>
<wgt id='1058'> +1.5226672e-12 </wgt>
<wgt id='1059'> +1.5693052e-12 </wgt>
<wgt id='1060'> +1.5816760e-12 </wgt>
<wgt id='1061'> +1.5864409e-12 </wgt>
<wgt id='1062'> +1.5415281e-12 </wgt>
<wgt id='1063'> +1.5067335e-12 </wgt>
<wgt id='1064'> +1.5587219e-12 </wgt>
<wgt id='1065'> +1.6004298e-12 </wgt>
<wgt id='1066'> +1.5638361e-12 </wgt>
<wgt id='1067'> +1.5804834e-12 </wgt>
<wgt id='1068'> +1.6094280e-12 </wgt>
<wgt id='1069'> +1.6239976e-12 </wgt>
<wgt id='1070'> +1.5479946e-12 </wgt>
<wgt id='1071'> +1.5807847e-12 </wgt>
<wgt id='1072'> +1.5781555e-12 </wgt>
<wgt id='1073'> +1.5324624e-12 </wgt>
<wgt id='1074'> +1.5670038e-12 </wgt>
<wgt id='1075'> +1.5379109e-12 </wgt>
<wgt id='1076'> +1.5721836e-12 </wgt>
<wgt id='1077'> +1.5762689e-12 </wgt>
<wgt id='1078'> +1.5463665e-12 </wgt>
<wgt id='1079'> +1.5685528e-12 </wgt>
<wgt id='1080'> +1.5418100e-12 </wgt>
<wgt id='1081'> +1.5130640e-12 </wgt>
<wgt id='1082'> +1.5688264e-12 </wgt>
<wgt id='1083'> +1.5395682e-12 </wgt>
<wgt id='1084'> +1.5430442e-12 </wgt>
<wgt id='1085'> +1.5888966e-12 </wgt>
<wgt id='1086'> +1.6098019e-12 </wgt>
<wgt id='1087'> +1.5470435e-12 </wgt>
<wgt id='1088'> +1.5622301e-12 </wgt>
<wgt id='1089'> +1.5298698e-12 </wgt>
<wgt id='1090'> +1.5536513e-12 </wgt>
<wgt id='1091'> +1.5768011e-12 </wgt>
<wgt id='1092'> +1.5466282e-12 </wgt>
<wgt id='1093'> +1.5936077e-12 </wgt>
<wgt id='1094'> +1.6017843e-12 </wgt>
<wgt id='1095'> +1.6037028e-12 </wgt>
<wgt id='1096'> +1.5138146e-12 </wgt>
<wgt id='1097'> +1.5644494e-12 </wgt>
<wgt id='1098'> +1.5918791e-12 </wgt>
<wgt id='1099'> +1.5555623e-12 </wgt>
<wgt id='1100'> +1.5831952e-12 </wgt>
<wgt id='1101'> +1.5719049e-12 </wgt>
<wgt id='1102'> +1.5400792e-12 </wgt>
<wgt id='1103'> +1.5490221e-12 </wgt>
<wgt id='1104'> +1.5765732e-12 </wgt>
<wgt id='1105'> +1.5180686e-12 </wgt>
<wgt id='1106'> +1.5614521e-12 </wgt>
<wgt id='1107'> +1.5988963e-12 </wgt>
<wgt id='1108'> +1.5495101e-12 </wgt>
<wgt id='1109'> +1.5412669e-12 </wgt>
<wgt id='1110'> +1.5699315e-12 </wgt>
<wgt id='1111'> +1.5643588e-12 </wgt>
<wgt id='1112'> +1.5849843e-12 </wgt>
<wgt id='1113'> +1.6197577e-12 </wgt>
<wgt id='1114'> +1.5897887e-12 </wgt>
<wgt id='1115'> +1.5961058e-12 </wgt>
<wgt id='1116'> +1.6186503e-12 </wgt>
<wgt id='1117'> +1.5520984e-12 </wgt>
<wgt id='1118'> +1.5821081e-12 </wgt>
<wgt id='1119'> +1.5223408e-12 </wgt>
<wgt id='1120'> +1.5564864e-12 </wgt>
<wgt id='1121'> +1.5349704e-12 </wgt>
<wgt id='1122'> +1.5429660e-12 </wgt>
<wgt id='1123'> +1.5810686e-12 </wgt>
<wgt id='1124'> +1.5995571e-12 </wgt>
<wgt id='1125'> +1.5135859e-12 </wgt>
<wgt id='1126'> +1.5278199e-12 </wgt>
<wgt id='1127'> +1.5660709e-12 </wgt>
<wgt id='1128'> +1.5415281e-12 </wgt>
<wgt id='1129'> +1.5261630e-12 </wgt>
<wgt id='1130'> +1.5485821e-12 </wgt>
<wgt id='1131'> +1.5826940e-12 </wgt>
<wgt id='1132'> +1.5763449e-12 </wgt>
<wgt id='1133'> +1.5488501e-12 </wgt>
<wgt id='1134'> +1.5230054e-12 </wgt>
<wgt id='1135'> +1.4965659e-12 </wgt>
<wgt id='1136'> +1.5280114e-12 </wgt>
<wgt id='1137'> +1.5618480e-12 </wgt>
<wgt id='1138'> +1.5476554e-12 </wgt>
<wgt id='1139'> +1.5546693e-12 </wgt>
<wgt id='1140'> +1.5753326e-12 </wgt>
<wgt id='1141'> +1.5513361e-12 </wgt>
<wgt id='1142'> +1.5994873e-12 </wgt>
<wgt id='1143'> +1.5131139e-12 </wgt>
<wgt id='1144'> +1.5606004e-12 </wgt>
<wgt id='1145'> +1.5980903e-12 </wgt>
<wgt id='1146'> +1.5663105e-12 </wgt>
<wgt id='1147'> +1.4137180e-12 </wgt>
<wgt id='1148'> +1.4388625e-12 </wgt>
<wgt id='1149'> +1.3656952e-12 </wgt>
<wgt id='1150'> +1.4229379e-12 </wgt>
<wgt id='1151'> +1.6495184e-12 </wgt>
<wgt id='1152'> +2.2576808e-12 </wgt>
<wgt id='1153'> +2.2614913e-12 </wgt>
<wgt id='1154'> +2.2553744e-12 </wgt>
<wgt id='1155'> +2.2519449e-12 </wgt>
<wgt id='1156'> +2.2605736e-12 </wgt>
<wgt id='1157'> +2.2616108e-12 </wgt>
<wgt id='1158'> +2.2523513e-12 </wgt>
<wgt id='1159'> +2.2609208e-12 </wgt>
<wgt id='1160'> +2.2556063e-12 </wgt>
<wgt id='1161'> +2.2530719e-12 </wgt>
<wgt id='1162'> +2.2608016e-12 </wgt>
<wgt id='1163'> +2.2569571e-12 </wgt>
<wgt id='1164'> +2.2583650e-12 </wgt>
<wgt id='1165'> +2.2618333e-12 </wgt>
<wgt id='1166'> +2.2534601e-12 </wgt>
<wgt id='1167'> +2.2860209e-12 </wgt>
<wgt id='1168'> +2.2233167e-12 </wgt>
<wgt id='1169'> +2.2665828e-12 </wgt>
<wgt id='1170'> +2.2509956e-12 </wgt>
<wgt id='1171'> +2.2508544e-12 </wgt>
<wgt id='1172'> +2.2665408e-12 </wgt>
<wgt id='1173'> +2.2308231e-12 </wgt>
<wgt id='1174'> +2.2858694e-12 </wgt>
<wgt id='1175'> +2.2598182e-12 </wgt>
<wgt id='1176'> +2.2555092e-12 </wgt>
<wgt id='1177'> +2.2528302e-12 </wgt>
<wgt id='1178'> +2.2696189e-12 </wgt>
<wgt id='1179'> +2.2550922e-12 </wgt>
<wgt id='1180'> +2.2546451e-12 </wgt>
<wgt id='1181'> +2.2616403e-12 </wgt>
<wgt id='1182'> +2.2520476e-12 </wgt>
<wgt id='1183'> +2.2550922e-12 </wgt>
<wgt id='1184'> +2.2577471e-12 </wgt>
<wgt id='1185'> +2.2523283e-12 </wgt>
<wgt id='1186'> +2.2599735e-12 </wgt>
<wgt id='1187'> +2.2614790e-12 </wgt>
<wgt id='1188'> +2.2563146e-12 </wgt>
<wgt id='1189'> +2.2512205e-12 </wgt>
<wgt id='1190'> +2.2359625e-12 </wgt>
<wgt id='1191'> +2.2612437e-12 </wgt>
<wgt id='1192'> +2.2636219e-12 </wgt>
<wgt id='1193'> +1.4167128e-12 </wgt>
<wgt id='1194'> +1.4017630e-12 </wgt>
<wgt id='1195'> +1.4289675e-12 </wgt>
<wgt id='1196'> +1.4149159e-12 </wgt>
<wgt id='1197'> +1.4186859e-12 </wgt>
<wgt id='1198'> +1.4156495e-12 </wgt>
<wgt id='1199'> +1.4183188e-12 </wgt>
<wgt id='1200'> +1.4132209e-12 </wgt>
<wgt id='1201'> +1.4190763e-12 </wgt>
<wgt id='1202'> +1.4157995e-12 </wgt>
<wgt id='1203'> +1.4179830e-12 </wgt>
<wgt id='1204'> +1.4110801e-12 </wgt>
<wgt id='1205'> +1.4199834e-12 </wgt>
<wgt id='1206'> +1.4200585e-12 </wgt>
<wgt id='1207'> +1.4121352e-12 </wgt>
<wgt id='1208'> +1.4251251e-12 </wgt>
<wgt id='1209'> +1.4137478e-12 </wgt>
<wgt id='1210'> +1.4162328e-12 </wgt>
<wgt id='1211'> +1.4135990e-12 </wgt>
<wgt id='1212'> +1.4168622e-12 </wgt>
<wgt id='1213'> +1.4169619e-12 </wgt>
<wgt id='1214'> +1.4016614e-12 </wgt>
<wgt id='1215'> +1.4379492e-12 </wgt>
<wgt id='1216'> +1.4264271e-12 </wgt>
<wgt id='1217'> +1.4103282e-12 </wgt>
<wgt id='1218'> +1.4201829e-12 </wgt>
<wgt id='1219'> +1.4146810e-12 </wgt>
<wgt id='1220'> +1.4248672e-12 </wgt>
<wgt id='1221'> +1.4149385e-12 </wgt>
<wgt id='1222'> +1.4378182e-12 </wgt>
<wgt id='1223'> +1.3870005e-12 </wgt>
<wgt id='1224'> +1.4204059e-12 </wgt>
<wgt id='1225'> +1.4152816e-12 </wgt>
<wgt id='1226'> +1.4149960e-12 </wgt>
<wgt id='1227'> +1.4180921e-12 </wgt>
<wgt id='1228'> +1.4109982e-12 </wgt>
<wgt id='1229'> +1.4191277e-12 </wgt>
<wgt id='1230'> +1.4184066e-12 </wgt>
<wgt id='1231'> +1.4255552e-12 </wgt>
<wgt id='1232'> +1.4190984e-12 </wgt>
<wgt id='1233'> +1.4160992e-12 </wgt>
<wgt id='1234'> +1.4167128e-12 </wgt>
<wgt id='1235'> +1.4099397e-12 </wgt>
<wgt id='1236'> +1.4126078e-12 </wgt>
<wgt id='1237'> +1.4149250e-12 </wgt>
<wgt id='1238'> +1.4187178e-12 </wgt>
<wgt id='1239'> +1.4201951e-12 </wgt>
<wgt id='1240'> +1.4217566e-12 </wgt>
<wgt id='1241'> +1.3582581e-12 </wgt>
<wgt id='1242'> +1.3429722e-12 </wgt>
<wgt id='1243'> +1.3733374e-12 </wgt>
<wgt id='1244'> +1.3641559e-12 </wgt>
<wgt id='1245'> +1.3538604e-12 </wgt>
<wgt id='1246'> +1.3539367e-12 </wgt>
<wgt id='1247'> +1.3619357e-12 </wgt>
<wgt id='1248'> +1.3582552e-12 </wgt>
<wgt id='1249'> +1.3582471e-12 </wgt>
<wgt id='1250'> +1.3591389e-12 </wgt>
<wgt id='1251'> +1.3576586e-12 </wgt>
<wgt id='1252'> +1.3554004e-12 </wgt>
<wgt id='1253'> +1.3604634e-12 </wgt>
<wgt id='1254'> +1.3535470e-12 </wgt>
<wgt id='1255'> +1.3609911e-12 </wgt>
<wgt id='1256'> +1.3552382e-12 </wgt>
<wgt id='1257'> +1.3658123e-12 </wgt>
<wgt id='1258'> +1.3717140e-12 </wgt>
<wgt id='1259'> +1.3443755e-12 </wgt>
<wgt id='1260'> +1.3611718e-12 </wgt>
<wgt id='1261'> +1.3552565e-12 </wgt>
<wgt id='1262'> +1.3621398e-12 </wgt>
<wgt id='1263'> +1.3568757e-12 </wgt>
<wgt id='1264'> +1.3633070e-12 </wgt>
<wgt id='1265'> +1.3560694e-12 </wgt>
<wgt id='1266'> +1.3370008e-12 </wgt>
<wgt id='1267'> +1.3783498e-12 </wgt>
<wgt id='1268'> +1.3657391e-12 </wgt>
<wgt id='1269'> +1.3521403e-12 </wgt>
<wgt id='1270'> +1.3636014e-12 </wgt>
<wgt id='1271'> +1.3605510e-12 </wgt>
<wgt id='1272'> +1.3614017e-12 </wgt>
<wgt id='1273'> +1.3580357e-12 </wgt>
<wgt id='1274'> +1.3595071e-12 </wgt>
<wgt id='1275'> +1.3564325e-12 </wgt>
<wgt id='1276'> +1.3631673e-12 </wgt>
<wgt id='1277'> +1.3523958e-12 </wgt>
<wgt id='1278'> +1.3696347e-12 </wgt>
<wgt id='1279'> +1.3642164e-12 </wgt>
<wgt id='1280'> +1.3583423e-12 </wgt>
<wgt id='1281'> +1.3630565e-12 </wgt>
<wgt id='1282'> +1.3582581e-12 </wgt>
<wgt id='1283'> +1.3516444e-12 </wgt>
<wgt id='1284'> +1.3544245e-12 </wgt>
<wgt id='1285'> +1.3564937e-12 </wgt>
<wgt id='1286'> +1.3600808e-12 </wgt>
<wgt id='1287'> +1.3612837e-12 </wgt>
<wgt id='1288'> +1.3622742e-12 </wgt>
<wgt id='1289'> +1.4520074e-12 </wgt>
<wgt id='1290'> +1.4556673e-12 </wgt>
<wgt id='1291'> +1.4480451e-12 </wgt>
<wgt id='1292'> +1.4530455e-12 </wgt>
<wgt id='1293'> +1.4512277e-12 </wgt>
<wgt id='1294'> +1.4380501e-12 </wgt>
<wgt id='1295'> +1.4653967e-12 </wgt>
<wgt id='1296'> +1.4580208e-12 </wgt>
<wgt id='1297'> +1.4444196e-12 </wgt>
<wgt id='1298'> +1.4585088e-12 </wgt>
<wgt id='1299'> +1.4437379e-12 </wgt>
<wgt id='1300'> +1.4550816e-12 </wgt>
<wgt id='1301'> +1.4457739e-12 </wgt>
<wgt id='1302'> +1.4476660e-12 </wgt>
<wgt id='1303'> +1.4580051e-12 </wgt>
<wgt id='1304'> +1.4503151e-12 </wgt>
<wgt id='1305'> +1.4531236e-12 </wgt>
<wgt id='1306'> +1.4550143e-12 </wgt>
<wgt id='1307'> +1.4483760e-12 </wgt>
<wgt id='1308'> +1.4457550e-12 </wgt>
<wgt id='1309'> +1.4567540e-12 </wgt>
<wgt id='1310'> +1.4528466e-12 </wgt>
<wgt id='1311'> +1.4513231e-12 </wgt>
<wgt id='1312'> +1.4602250e-12 </wgt>
<wgt id='1313'> +1.4442477e-12 </wgt>
<wgt id='1314'> +1.4319744e-12 </wgt>
<wgt id='1315'> +1.4697546e-12 </wgt>
<wgt id='1316'> +1.4592368e-12 </wgt>
<wgt id='1317'> +1.4533067e-12 </wgt>
<wgt id='1318'> +1.4625317e-12 </wgt>
<wgt id='1319'> +1.4385521e-12 </wgt>
<wgt id='1320'> +1.4702252e-12 </wgt>
<wgt id='1321'> +1.4357847e-12 </wgt>
<wgt id='1322'> +1.4521931e-12 </wgt>
<wgt id='1323'> +1.4520713e-12 </wgt>
<wgt id='1324'> +1.4495270e-12 </wgt>
<wgt id='1325'> +1.4567030e-12 </wgt>
<wgt id='1326'> +1.4509747e-12 </wgt>
<wgt id='1327'> +1.4556210e-12 </wgt>
<wgt id='1328'> +1.4512382e-12 </wgt>
<wgt id='1329'> +1.4521193e-12 </wgt>
<wgt id='1330'> +1.4583851e-12 </wgt>
<wgt id='1331'> +1.4459958e-12 </wgt>
<wgt id='1332'> +1.4643118e-12 </wgt>
<wgt id='1333'> +1.4554276e-12 </wgt>
<wgt id='1334'> +1.4498692e-12 </wgt>
<wgt id='1335'> +1.4580225e-12 </wgt>
<wgt id='1336'> +1.4542812e-12 </wgt>
<wgt id='1337'> +1.4598082e-12 </wgt>
<wgt id='1338'> +1.4528073e-12 </wgt>
<wgt id='1339'> +1.4537621e-12 </wgt>
<wgt id='1340'> +1.4204014e-12 </wgt>
<wgt id='1341'> +1.4239061e-12 </wgt>
<wgt id='1342'> +1.4166443e-12 </wgt>
<wgt id='1343'> +1.4216026e-12 </wgt>
<wgt id='1344'> +1.4195992e-12 </wgt>
<wgt id='1345'> +1.4059100e-12 </wgt>
<wgt id='1346'> +1.4338180e-12 </wgt>
<wgt id='1347'> +1.4271149e-12 </wgt>
<wgt id='1348'> +1.4128469e-12 </wgt>
<wgt id='1349'> +1.4264401e-12 </wgt>
<wgt id='1350'> +1.4144143e-12 </wgt>
<wgt id='1351'> +1.4232774e-12 </wgt>
<wgt id='1352'> +1.4141331e-12 </wgt>
<wgt id='1353'> +1.4150721e-12 </wgt>
<wgt id='1354'> +1.4298995e-12 </wgt>
<wgt id='1355'> +1.4197120e-12 </wgt>
<wgt id='1356'> +1.4207744e-12 </wgt>
<wgt id='1357'> +1.4224415e-12 </wgt>
<wgt id='1358'> +1.4177810e-12 </wgt>
<wgt id='1359'> +1.4137168e-12 </wgt>
<wgt id='1360'> +1.4261558e-12 </wgt>
<wgt id='1361'> +1.4218982e-12 </wgt>
<wgt id='1362'> +1.4186544e-12 </wgt>
<wgt id='1363'> +1.4349307e-12 </wgt>
<wgt id='1364'> +1.4114582e-12 </wgt>
<wgt id='1365'> +1.4294525e-12 </wgt>
<wgt id='1366'> +1.4031309e-12 </wgt>
<wgt id='1367'> +1.4278017e-12 </wgt>
<wgt id='1368'> +1.4203687e-12 </wgt>
<wgt id='1369'> +1.4288825e-12 </wgt>
<wgt id='1370'> +1.4098236e-12 </wgt>
<wgt id='1371'> +1.4354179e-12 </wgt>
<wgt id='1372'> +1.4017790e-12 </wgt>
<wgt id='1373'> +1.4172988e-12 </wgt>
<wgt id='1374'> +1.4234168e-12 </wgt>
<wgt id='1375'> +1.4178869e-12 </wgt>
<wgt id='1376'> +1.4254810e-12 </wgt>
<wgt id='1377'> +1.4195317e-12 </wgt>
<wgt id='1378'> +1.4240846e-12 </wgt>
<wgt id='1379'> +1.4198811e-12 </wgt>
<wgt id='1380'> +1.4203339e-12 </wgt>
<wgt id='1381'> +1.4270949e-12 </wgt>
<wgt id='1382'> +1.4145558e-12 </wgt>
<wgt id='1383'> +1.4306113e-12 </wgt>
<wgt id='1384'> +1.4246354e-12 </wgt>
<wgt id='1385'> +1.4185336e-12 </wgt>
<wgt id='1386'> +1.4251869e-12 </wgt>
<wgt id='1387'> +1.4227224e-12 </wgt>
<wgt id='1388'> +1.4286002e-12 </wgt>
<wgt id='1389'> +1.4211500e-12 </wgt>
<wgt id='1390'> +1.4231465e-12 </wgt>
<wgt id='1391'> +1.3993768e-12 </wgt>
<wgt id='1392'> +1.3545776e-12 </wgt>
<wgt id='1393'> +1.3700981e-12 </wgt>
<wgt id='1394'> +1.3850997e-12 </wgt>
<wgt id='1395'> +1.4149783e-12 </wgt>
<wgt id='1396'> +1.4000363e-12 </wgt>
<wgt id='1397'> +1.3817386e-12 </wgt>
<wgt id='1398'> +1.3842326e-12 </wgt>
<wgt id='1399'> +1.3870759e-12 </wgt>
<wgt id='1400'> +1.3908372e-12 </wgt>
<wgt id='1401'> +1.3953673e-12 </wgt>
<wgt id='1402'> +1.4048176e-12 </wgt>
<wgt id='1403'> +1.4101687e-12 </wgt>
<wgt id='1404'> +1.4156843e-12 </wgt>
<wgt id='1405'> +1.4000363e-12 </wgt>
<wgt id='1406'> +1.3960519e-12 </wgt>
<wgt id='1407'> +1.3980879e-12 </wgt>
<wgt id='1408'> +1.4018304e-12 </wgt>
<wgt id='1409'> +1.4031306e-12 </wgt>
<wgt id='1410'> +1.3224913e-12 </wgt>
<wgt id='1411'> +1.3286508e-12 </wgt>
<wgt id='1412'> +1.3145784e-12 </wgt>
<wgt id='1413'> +1.3158696e-12 </wgt>
<wgt id='1414'> +1.3291127e-12 </wgt>
<wgt id='1415'> +1.3204911e-12 </wgt>
<wgt id='1416'> +1.3232936e-12 </wgt>
<wgt id='1417'> +1.3203445e-12 </wgt>
<wgt id='1418'> +1.3245605e-12 </wgt>
<wgt id='1419'> +1.3240287e-12 </wgt>
<wgt id='1420'> +1.3210139e-12 </wgt>
<wgt id='1421'> +1.3095955e-12 </wgt>
<wgt id='1422'> +1.3279524e-12 </wgt>
<wgt id='1423'> +1.3211441e-12 </wgt>
<wgt id='1424'> +1.3241398e-12 </wgt>
<wgt id='1425'> +1.3142693e-12 </wgt>
<wgt id='1426'> +1.3313577e-12 </wgt>
<wgt id='1427'> +1.3088592e-12 </wgt>
<wgt id='1428'> +1.3296133e-12 </wgt>
<wgt id='1429'> +1.3260837e-12 </wgt>
<wgt id='1430'> +1.3176764e-12 </wgt>
<wgt id='1431'> +1.3238028e-12 </wgt>
<wgt id='1432'> +1.3214952e-12 </wgt>
<wgt id='1433'> +1.3060036e-12 </wgt>
<wgt id='1434'> +1.3357188e-12 </wgt>
<wgt id='1435'> +1.3149966e-12 </wgt>
<wgt id='1436'> +1.3416835e-12 </wgt>
<wgt id='1437'> +1.3285796e-12 </wgt>
<wgt id='1438'> +1.3259453e-12 </wgt>
<wgt id='1439'> +1.3160290e-12 </wgt>
<wgt id='1440'> +1.3337159e-12 </wgt>
<wgt id='1441'> +1.3277482e-12 </wgt>
<wgt id='1442'> +1.3108621e-12 </wgt>
<wgt id='1443'> +1.3187354e-12 </wgt>
<wgt id='1444'> +1.3312315e-12 </wgt>
<wgt id='1445'> +1.3325723e-12 </wgt>
<wgt id='1446'> +1.3185621e-12 </wgt>
<wgt id='1447'> +1.3239837e-12 </wgt>
<wgt id='1448'> +1.3249059e-12 </wgt>
<wgt id='1449'> +1.3224178e-12 </wgt>
<wgt id='1450'> +1.3217215e-12 </wgt>
<wgt id='1451'> +1.3215766e-12 </wgt>
<wgt id='1452'> +1.3268921e-12 </wgt>
<wgt id='1453'> +1.3228382e-12 </wgt>
<wgt id='1454'> +1.3238430e-12 </wgt>
<wgt id='1455'> +1.3323906e-12 </wgt>
<wgt id='1456'> +1.3288902e-12 </wgt>
<wgt id='1457'> +1.3291610e-12 </wgt>
<wgt id='1458'> +1.3211869e-12 </wgt>
<wgt id='1459'> +1.3281680e-12 </wgt>
<wgt id='1460'> +1.3318651e-12 </wgt>
<wgt id='1461'> +1.3224913e-12 </wgt>
<wgt id='1462'> +1.3115585e-12 </wgt>
<wgt id='1463'> +1.3299665e-12 </wgt>
<wgt id='1464'> +1.3205696e-12 </wgt>
<wgt id='1465'> +1.2987711e-12 </wgt>
<wgt id='1466'> +1.3020488e-12 </wgt>
<wgt id='1467'> +1.3059978e-12 </wgt>
<wgt id='1468'> +1.3123346e-12 </wgt>
<wgt id='1469'> +1.3158079e-12 </wgt>
<wgt id='1470'> +1.3257507e-12 </wgt>
<wgt id='1471'> +1.3305569e-12 </wgt>
<wgt id='1472'> +1.3355515e-12 </wgt>
<wgt id='1473'> +1.3205696e-12 </wgt>
<wgt id='1474'> +1.3171180e-12 </wgt>
<wgt id='1475'> +1.3194549e-12 </wgt>
<wgt id='1476'> +1.3217816e-12 </wgt>
<wgt id='1477'> +1.3228217e-12 </wgt>
<wgt id='1478'> +1.3766682e-12 </wgt>
<wgt id='1479'> +1.3774343e-12 </wgt>
<wgt id='1480'> +1.3626058e-12 </wgt>
<wgt id='1481'> +1.3964762e-12 </wgt>
<wgt id='1482'> +1.3787453e-12 </wgt>
<wgt id='1483'> +1.3605191e-12 </wgt>
<wgt id='1484'> +1.3662420e-12 </wgt>
<wgt id='1485'> +1.3868949e-12 </wgt>
<wgt id='1486'> +1.3763461e-12 </wgt>
<wgt id='1487'> +1.3886131e-12 </wgt>
<wgt id='1488'> +1.3739211e-12 </wgt>
<wgt id='1489'> +1.3781245e-12 </wgt>
<wgt id='1490'> +1.3731715e-12 </wgt>
<wgt id='1491'> +1.3827217e-12 </wgt>
<wgt id='1492'> +1.3773144e-12 </wgt>
<wgt id='1493'> +1.3572287e-12 </wgt>
<wgt id='1494'> +1.3738194e-12 </wgt>
<wgt id='1495'> +1.3666308e-12 </wgt>
<wgt id='1496'> +1.3776465e-12 </wgt>
<wgt id='1497'> +1.3768812e-12 </wgt>
<wgt id='1498'> +1.3769528e-12 </wgt>
<wgt id='1499'> +1.3796806e-12 </wgt>
<wgt id='1500'> +1.3782961e-12 </wgt>
<wgt id='1501'> +1.3776276e-12 </wgt>
<wgt id='1502'> +1.3756625e-12 </wgt>
<wgt id='1503'> +1.3819205e-12 </wgt>
<wgt id='1504'> +1.3711127e-12 </wgt>
<wgt id='1505'> +1.3810112e-12 </wgt>
<wgt id='1506'> +1.3782000e-12 </wgt>
<wgt id='1507'> +1.3771447e-12 </wgt>
<wgt id='1508'> +1.3796221e-12 </wgt>
<wgt id='1509'> +1.3399776e-12 </wgt>
<wgt id='1510'> +1.3438727e-12 </wgt>
<wgt id='1511'> +1.3245232e-12 </wgt>
<wgt id='1512'> +1.3282357e-12 </wgt>
<wgt id='1513'> +1.3385592e-12 </wgt>
<wgt id='1514'> +1.3456593e-12 </wgt>
<wgt id='1515'> +1.3442764e-12 </wgt>
<wgt id='1516'> +1.3446120e-12 </wgt>
<wgt id='1517'> +1.3414493e-12 </wgt>
<wgt id='1518'> +1.3391261e-12 </wgt>
<wgt id='1519'> +1.3411320e-12 </wgt>
<wgt id='1520'> +1.3406259e-12 </wgt>
<wgt id='1521'> +1.3397356e-12 </wgt>
<wgt id='1522'> +1.3426846e-12 </wgt>
<wgt id='1523'> +1.3427254e-12 </wgt>
<wgt id='1524'> +1.3383445e-12 </wgt>
<wgt id='1525'> +1.3395550e-12 </wgt>
<wgt id='1526'> +1.3409571e-12 </wgt>
<wgt id='1527'> +1.3397686e-12 </wgt>
<wgt id='1528'> +1.3407384e-12 </wgt>
<wgt id='1529'> +1.3408522e-12 </wgt>
<wgt id='1530'> +1.3408095e-12 </wgt>
<wgt id='1531'> +1.3422773e-12 </wgt>
<wgt id='1532'> +1.3361241e-12 </wgt>
<wgt id='1533'> +1.3405220e-12 </wgt>
<wgt id='1534'> +1.3400156e-12 </wgt>
<wgt id='1535'> +1.3355710e-12 </wgt>
<wgt id='1536'> +1.3436904e-12 </wgt>
<wgt id='1537'> +1.3429808e-12 </wgt>
<wgt id='1538'> +1.3272584e-12 </wgt>
<wgt id='1539'> +1.3385298e-12 </wgt>
<wgt id='1540'> +1.3392322e-12 </wgt>
<wgt id='1541'> +1.3374670e-12 </wgt>
<wgt id='1542'> +1.3381474e-12 </wgt>
<wgt id='1543'> +1.3407116e-12 </wgt>
<wgt id='1544'> +1.3382694e-12 </wgt>
<wgt id='1545'> +1.3384537e-12 </wgt>
<wgt id='1546'> +1.3405591e-12 </wgt>
<wgt id='1547'> +1.3387169e-12 </wgt>
<wgt id='1548'> +1.3408927e-12 </wgt>
<wgt id='1549'> +1.3387135e-12 </wgt>
<wgt id='1550'> +1.3398952e-12 </wgt>
<wgt id='1551'> +1.3398207e-12 </wgt>
<wgt id='1552'> +1.3416800e-12 </wgt>
<wgt id='1553'> +1.3401445e-12 </wgt>
<wgt id='1554'> +1.3389795e-12 </wgt>
<wgt id='1555'> +1.3419775e-12 </wgt>
<wgt id='1556'> +1.3435201e-12 </wgt>
<wgt id='1557'> +1.3397316e-12 </wgt>
<wgt id='1558'> +1.3398908e-12 </wgt>
<wgt id='1559'> +1.3382776e-12 </wgt>
<wgt id='1560'> +1.3397831e-12 </wgt>
<wgt id='1561'> +1.3400629e-12 </wgt>
<wgt id='1562'> +1.3397295e-12 </wgt>
<wgt id='1563'> +1.3399853e-12 </wgt>
<wgt id='1564'> +1.3386609e-12 </wgt>
<wgt id='1565'> +1.3400713e-12 </wgt>
<wgt id='1566'> +1.3399599e-12 </wgt>
<wgt id='1567'> +1.3392638e-12 </wgt>
<wgt id='1568'> +1.3397087e-12 </wgt>
<wgt id='1569'> +1.3431046e-12 </wgt>
<wgt id='1570'> +1.3406313e-12 </wgt>
<wgt id='1571'> +1.3408355e-12 </wgt>
<wgt id='1572'> +1.3402961e-12 </wgt>
<wgt id='1573'> +1.3397247e-12 </wgt>
<wgt id='1574'> +1.3407783e-12 </wgt>
<wgt id='1575'> +1.3394954e-12 </wgt>
<wgt id='1576'> +1.3405009e-12 </wgt>
<wgt id='1577'> +1.3414545e-12 </wgt>
<wgt id='1578'> +1.3408120e-12 </wgt>
<wgt id='1579'> +1.3391552e-12 </wgt>
<wgt id='1580'> +1.3395707e-12 </wgt>
<wgt id='1581'> +1.3402717e-12 </wgt>
<wgt id='1582'> +1.3407909e-12 </wgt>
<wgt id='1583'> +1.3391664e-12 </wgt>
<wgt id='1584'> +1.3395272e-12 </wgt>
<wgt id='1585'> +1.3400687e-12 </wgt>
<wgt id='1586'> +1.3399559e-12 </wgt>
<wgt id='1587'> +1.3403880e-12 </wgt>
<wgt id='1588'> +1.3385005e-12 </wgt>
<wgt id='1589'> +1.3414098e-12 </wgt>
<wgt id='1590'> +1.3401333e-12 </wgt>
<wgt id='1591'> +1.3400962e-12 </wgt>
<wgt id='1592'> +1.3399711e-12 </wgt>
<wgt id='1593'> +1.3409753e-12 </wgt>
<wgt id='1594'> +1.3396072e-12 </wgt>
<wgt id='1595'> +1.3393442e-12 </wgt>
<wgt id='1596'> +1.3391021e-12 </wgt>
<wgt id='1597'> +1.3394693e-12 </wgt>
<wgt id='1598'> +1.3402372e-12 </wgt>
<wgt id='1599'> +1.3407648e-12 </wgt>
<wgt id='1600'> +1.3388558e-12 </wgt>
<wgt id='1601'> +1.3404871e-12 </wgt>
<wgt id='1602'> +1.3397049e-12 </wgt>
<wgt id='1603'> +1.3410407e-12 </wgt>
<wgt id='1604'> +1.3402187e-12 </wgt>
<wgt id='1605'> +1.3406938e-12 </wgt>
<wgt id='1606'> +1.3399528e-12 </wgt>
<wgt id='1607'> +1.3403033e-12 </wgt>
<wgt id='1608'> +1.3405145e-12 </wgt>
<wgt id='1609'> +1.3402688e-12 </wgt>
<wgt id='1610'> +1.3252363e-12 </wgt>
<wgt id='1611'> +1.3539677e-12 </wgt>
<wgt id='1612'> +1.5447634e-12 </wgt>
<wgt id='1613'> +1.5147981e-12 </wgt>
<wgt id='1614'> +1.4816716e-12 </wgt>
<wgt id='1615'> +1.5277687e-12 </wgt>
<wgt id='1616'> +1.4767428e-12 </wgt>
<wgt id='1617'> +1.5343697e-12 </wgt>
<wgt id='1618'> +1.5366731e-12 </wgt>
<wgt id='1619'> +1.5081414e-12 </wgt>
<wgt id='1620'> +1.5240815e-12 </wgt>
<wgt id='1621'> +1.5514137e-12 </wgt>
<wgt id='1622'> +1.5572994e-12 </wgt>
<wgt id='1623'> +1.5546776e-12 </wgt>
<wgt id='1624'> +1.5785007e-12 </wgt>
<wgt id='1625'> +1.5092076e-12 </wgt>
<wgt id='1626'> +1.5368986e-12 </wgt>
<wgt id='1627'> +1.5639476e-12 </wgt>
<wgt id='1628'> +1.4557319e-12 </wgt>
<wgt id='1629'> +1.5750584e-12 </wgt>
<wgt id='1630'> +1.5062842e-12 </wgt>
<wgt id='1631'> +1.5162839e-12 </wgt>
<wgt id='1632'> +1.4753298e-12 </wgt>
<wgt id='1633'> +1.4905668e-12 </wgt>
<wgt id='1634'> +1.5390574e-12 </wgt>
<wgt id='1635'> +1.5656276e-12 </wgt>
<wgt id='1636'> +1.5508127e-12 </wgt>
<wgt id='1637'> +1.5774297e-12 </wgt>
<wgt id='1638'> +1.5474406e-12 </wgt>
<wgt id='1639'> +1.5403443e-12 </wgt>
<wgt id='1640'> +1.5380420e-12 </wgt>
<wgt id='1641'> +1.5513519e-12 </wgt>
<wgt id='1642'> +1.4841965e-12 </wgt>
<wgt id='1643'> +1.5211892e-12 </wgt>
<wgt id='1644'> +1.5777409e-12 </wgt>
<wgt id='1645'> +1.5091126e-12 </wgt>
<wgt id='1646'> +1.5630219e-12 </wgt>
<wgt id='1647'> +1.5830779e-12 </wgt>
<wgt id='1648'> +1.5443353e-12 </wgt>
<wgt id='1649'> +1.6051811e-12 </wgt>
<wgt id='1650'> +1.5192508e-12 </wgt>
<wgt id='1651'> +1.5596568e-12 </wgt>
<wgt id='1652'> +1.5315235e-12 </wgt>
<wgt id='1653'> +1.5402456e-12 </wgt>
<wgt id='1654'> +1.5454930e-12 </wgt>
<wgt id='1655'> +1.5769607e-12 </wgt>
<wgt id='1656'> +1.5464389e-12 </wgt>
<wgt id='1657'> +1.5461495e-12 </wgt>
<wgt id='1658'> +1.5343428e-12 </wgt>
<wgt id='1659'> +1.5785007e-12 </wgt>
<wgt id='1660'> +1.5564199e-12 </wgt>
<wgt id='1661'> +1.5831590e-12 </wgt>
<wgt id='1662'> +1.6091757e-12 </wgt>
<wgt id='1663'> +1.5451382e-12 </wgt>
<wgt id='1664'> +1.5310598e-12 </wgt>
<wgt id='1665'> +1.5248892e-12 </wgt>
<wgt id='1666'> +1.5683297e-12 </wgt>
<wgt id='1667'> +1.5568311e-12 </wgt>
<wgt id='1668'> +1.5646456e-12 </wgt>
<wgt id='1669'> +1.5552786e-12 </wgt>
<wgt id='1670'> +1.5240942e-12 </wgt>
<wgt id='1671'> +1.5145878e-12 </wgt>
<wgt id='1672'> +1.5733676e-12 </wgt>
<wgt id='1673'> +1.5453418e-12 </wgt>
<wgt id='1674'> +1.5292925e-12 </wgt>
<wgt id='1675'> +1.5295326e-12 </wgt>
<wgt id='1676'> +1.5235073e-12 </wgt>
<wgt id='1677'> +1.5539548e-12 </wgt>
<wgt id='1678'> +1.5280509e-12 </wgt>
<wgt id='1679'> +1.5553118e-12 </wgt>
<wgt id='1680'> +1.5694200e-12 </wgt>
<wgt id='1681'> +1.5750398e-12 </wgt>
<wgt id='1682'> +1.5362368e-12 </wgt>
<wgt id='1683'> +1.5621260e-12 </wgt>
<wgt id='1684'> +1.6077384e-12 </wgt>
<wgt id='1685'> +1.5352166e-12 </wgt>
<wgt id='1686'> +1.5437416e-12 </wgt>
<wgt id='1687'> +1.5752081e-12 </wgt>
<wgt id='1688'> +1.5097753e-12 </wgt>
<wgt id='1689'> +1.6074394e-12 </wgt>
<wgt id='1690'> +1.5405480e-12 </wgt>
<wgt id='1691'> +1.4891172e-12 </wgt>
<wgt id='1692'> +1.5431388e-12 </wgt>
<wgt id='1693'> +1.5522191e-12 </wgt>
<wgt id='1694'> +1.5390974e-12 </wgt>
<wgt id='1695'> +1.5565185e-12 </wgt>
<wgt id='1696'> +1.5298935e-12 </wgt>
<wgt id='1697'> +1.5298899e-12 </wgt>
<wgt id='1698'> +1.5510556e-12 </wgt>
<wgt id='1699'> +1.5624210e-12 </wgt>
<wgt id='1700'> +1.5264447e-12 </wgt>
<wgt id='1701'> +1.6012725e-12 </wgt>
<wgt id='1702'> +1.5008077e-12 </wgt>
<wgt id='1703'> +1.5222863e-12 </wgt>
<wgt id='1704'> +1.5322479e-12 </wgt>
<wgt id='1705'> +1.4864986e-12 </wgt>
<wgt id='1706'> +1.5759103e-12 </wgt>
<wgt id='1707'> +1.5564208e-12 </wgt>
<wgt id='1708'> +1.6183121e-12 </wgt>
<wgt id='1709'> +1.5955669e-12 </wgt>
<wgt id='1710'> +1.5454169e-12 </wgt>
<wgt id='1711'> +1.5536426e-12 </wgt>
<wgt id='1712'> +1.6181685e-12 </wgt>
<wgt id='1713'> +1.3438923e-12 </wgt>
<wgt id='1714'> +1.3299641e-12 </wgt>
<wgt id='1715'> +1.3041490e-12 </wgt>
<wgt id='1716'> +1.3735288e-12 </wgt>
<wgt id='1717'> +1.3525669e-12 </wgt>
<wgt id='1718'> +1.3873107e-12 </wgt>
<wgt id='1719'> +1.3669505e-12 </wgt>
<wgt id='1720'> +1.3044592e-12 </wgt>
<wgt id='1721'> +1.3177123e-12 </wgt>
<wgt id='1722'> +1.3351884e-12 </wgt>
<wgt id='1723'> +1.3910717e-12 </wgt>
<wgt id='1724'> +1.3465252e-12 </wgt>
<wgt id='1725'> +1.3592835e-12 </wgt>
<wgt id='1726'> +1.3527786e-12 </wgt>
<wgt id='1727'> +1.3834965e-12 </wgt>
<wgt id='1728'> +1.3260974e-12 </wgt>
<wgt id='1729'> +1.2876359e-12 </wgt>
<wgt id='1730'> +1.3183906e-12 </wgt>
<wgt id='1731'> +1.2838291e-12 </wgt>
<wgt id='1732'> +1.3451154e-12 </wgt>
<wgt id='1733'> +1.2856425e-12 </wgt>
<wgt id='1734'> +1.4048646e-12 </wgt>
<wgt id='1735'> +1.3212168e-12 </wgt>
<wgt id='1736'> +1.3723211e-12 </wgt>
<wgt id='1737'> +1.3825689e-12 </wgt>
<wgt id='1738'> +1.3404905e-12 </wgt>
<wgt id='1739'> +1.3483637e-12 </wgt>
<wgt id='1740'> +1.2717696e-12 </wgt>
<wgt id='1741'> +1.3814244e-12 </wgt>
<wgt id='1742'> +1.3262982e-12 </wgt>
<wgt id='1743'> +1.3225731e-12 </wgt>
<wgt id='1744'> +1.3688903e-12 </wgt>
<wgt id='1745'> +1.3599602e-12 </wgt>
<wgt id='1746'> +1.3306052e-12 </wgt>
<wgt id='1747'> +1.3989942e-12 </wgt>
<wgt id='1748'> +1.3465551e-12 </wgt>
<wgt id='1749'> +1.3443725e-12 </wgt>
<wgt id='1750'> +1.3173430e-12 </wgt>
<wgt id='1751'> +1.3277972e-12 </wgt>
<wgt id='1752'> +1.3250768e-12 </wgt>
<wgt id='1753'> +1.3504709e-12 </wgt>
<wgt id='1754'> +1.3566290e-12 </wgt>
<wgt id='1755'> +1.3575222e-12 </wgt>
<wgt id='1756'> +1.3680046e-12 </wgt>
<wgt id='1757'> +1.3652379e-12 </wgt>
<wgt id='1758'> +1.3894701e-12 </wgt>
<wgt id='1759'> +1.3714154e-12 </wgt>
<wgt id='1760'> +1.3398308e-12 </wgt>
<wgt id='1761'> +1.3402587e-12 </wgt>
<wgt id='1762'> +1.3260078e-12 </wgt>
<wgt id='1763'> +1.3642962e-12 </wgt>
<wgt id='1764'> +1.3896702e-12 </wgt>
<wgt id='1765'> +1.3452761e-12 </wgt>
<wgt id='1766'> +1.3789697e-12 </wgt>
<wgt id='1767'> +1.3367090e-12 </wgt>
<wgt id='1768'> +1.3668759e-12 </wgt>
<wgt id='1769'> +1.3433271e-12 </wgt>
<wgt id='1770'> +1.3356904e-12 </wgt>
<wgt id='1771'> +1.3940546e-12 </wgt>
<wgt id='1772'> +1.3243985e-12 </wgt>
<wgt id='1773'> +1.3519090e-12 </wgt>
<wgt id='1774'> +1.3344971e-12 </wgt>
<wgt id='1775'> +1.3433033e-12 </wgt>
<wgt id='1776'> +1.3959457e-12 </wgt>
<wgt id='1777'> +1.2848312e-12 </wgt>
<wgt id='1778'> +1.3563048e-12 </wgt>
<wgt id='1779'> +1.3317523e-12 </wgt>
<wgt id='1780'> +1.3402940e-12 </wgt>
<wgt id='1781'> +1.3703554e-12 </wgt>
<wgt id='1782'> +1.3371540e-12 </wgt>
<wgt id='1783'> +1.3499836e-12 </wgt>
<wgt id='1784'> +1.3409145e-12 </wgt>
<wgt id='1785'> +1.3557714e-12 </wgt>
<wgt id='1786'> +1.3304084e-12 </wgt>
<wgt id='1787'> +1.4275104e-12 </wgt>
<wgt id='1788'> +1.3265631e-12 </wgt>
<wgt id='1789'> +1.4240656e-12 </wgt>
<wgt id='1790'> +1.3457481e-12 </wgt>
<wgt id='1791'> +1.3309800e-12 </wgt>
<wgt id='1792'> +1.3246008e-12 </wgt>
<wgt id='1793'> +1.3264124e-12 </wgt>
<wgt id='1794'> +1.3680111e-12 </wgt>
<wgt id='1795'> +1.3533543e-12 </wgt>
<wgt id='1796'> +1.3052144e-12 </wgt>
<wgt id='1797'> +1.3429981e-12 </wgt>
<wgt id='1798'> +1.3350429e-12 </wgt>
<wgt id='1799'> +1.3251446e-12 </wgt>
<wgt id='1800'> +1.3655724e-12 </wgt>
<wgt id='1801'> +1.3424347e-12 </wgt>
<wgt id='1802'> +1.3036834e-12 </wgt>
<wgt id='1803'> +1.3470774e-12 </wgt>
<wgt id='1804'> +1.3542558e-12 </wgt>
<wgt id='1805'> +1.3087428e-12 </wgt>
<wgt id='1806'> +1.3117664e-12 </wgt>
<wgt id='1807'> +1.3234424e-12 </wgt>
<wgt id='1808'> +1.3165273e-12 </wgt>
<wgt id='1809'> +1.3220317e-12 </wgt>
<wgt id='1810'> +1.3120166e-12 </wgt>
<wgt id='1811'> +1.3560012e-12 </wgt>
<wgt id='1812'> +1.3210232e-12 </wgt>
<wgt id='1813'> +1.2673828e-12 </wgt>
<wgt id='1814'> +1.6798338e-12 </wgt>
<wgt id='1815'> +2.0360304e-12 </wgt>
<wgt id='1816'> +1.3438923e-12 </wgt>
<wgt id='1817'> +1.3299641e-12 </wgt>
<wgt id='1818'> +1.3041490e-12 </wgt>
<wgt id='1819'> +1.3735288e-12 </wgt>
<wgt id='1820'> +1.3525669e-12 </wgt>
<wgt id='1821'> +1.3873107e-12 </wgt>
<wgt id='1822'> +1.3669505e-12 </wgt>
<wgt id='1823'> +1.3044592e-12 </wgt>
<wgt id='1824'> +1.3177123e-12 </wgt>
<wgt id='1825'> +1.3351884e-12 </wgt>
<wgt id='1826'> +1.3910717e-12 </wgt>
<wgt id='1827'> +1.3465252e-12 </wgt>
<wgt id='1828'> +1.3592835e-12 </wgt>
<wgt id='1829'> +1.3527786e-12 </wgt>
<wgt id='1830'> +1.3834965e-12 </wgt>
<wgt id='1831'> +1.3260974e-12 </wgt>
<wgt id='1832'> +1.2876359e-12 </wgt>
<wgt id='1833'> +1.3183906e-12 </wgt>
<wgt id='1834'> +1.2838291e-12 </wgt>
<wgt id='1835'> +1.3451154e-12 </wgt>
<wgt id='1836'> +1.2856425e-12 </wgt>
<wgt id='1837'> +1.4048646e-12 </wgt>
<wgt id='1838'> +1.3212168e-12 </wgt>
<wgt id='1839'> +1.3723211e-12 </wgt>
<wgt id='1840'> +1.3825689e-12 </wgt>
<wgt id='1841'> +1.3404905e-12 </wgt>
<wgt id='1842'> +1.3483637e-12 </wgt>
<wgt id='1843'> +1.2717696e-12 </wgt>
<wgt id='1844'> +1.3814244e-12 </wgt>
<wgt id='1845'> +1.3262982e-12 </wgt>
<wgt id='1846'> +1.3225731e-12 </wgt>
<wgt id='1847'> +1.3688903e-12 </wgt>
<wgt id='1848'> +1.3599602e-12 </wgt>
<wgt id='1849'> +1.3306052e-12 </wgt>
<wgt id='1850'> +1.3989942e-12 </wgt>
<wgt id='1851'> +1.3465551e-12 </wgt>
<wgt id='1852'> +1.3443725e-12 </wgt>
<wgt id='1853'> +1.3173430e-12 </wgt>
<wgt id='1854'> +1.3277972e-12 </wgt>
<wgt id='1855'> +1.3250768e-12 </wgt>
<wgt id='1856'> +1.3504709e-12 </wgt>
<wgt id='1857'> +1.3566290e-12 </wgt>
<wgt id='1858'> +1.3575222e-12 </wgt>
<wgt id='1859'> +1.3680046e-12 </wgt>
<wgt id='1860'> +1.3652379e-12 </wgt>
<wgt id='1861'> +1.3894701e-12 </wgt>
<wgt id='1862'> +1.3714154e-12 </wgt>
<wgt id='1863'> +1.3398308e-12 </wgt>
<wgt id='1864'> +1.3402587e-12 </wgt>
<wgt id='1865'> +1.3260078e-12 </wgt>
<wgt id='1866'> +1.3642962e-12 </wgt>
<wgt id='1867'> +1.3896702e-12 </wgt>
<wgt id='1868'> +1.3452761e-12 </wgt>
<wgt id='1869'> +1.3789697e-12 </wgt>
<wgt id='1870'> +1.3367090e-12 </wgt>
<wgt id='1871'> +1.3668759e-12 </wgt>
<wgt id='1872'> +1.3433271e-12 </wgt>
<wgt id='1873'> +1.3356904e-12 </wgt>
<wgt id='1874'> +1.3940546e-12 </wgt>
<wgt id='1875'> +1.3243985e-12 </wgt>
<wgt id='1876'> +1.3519090e-12 </wgt>
<wgt id='1877'> +1.3344971e-12 </wgt>
<wgt id='1878'> +1.3433033e-12 </wgt>
<wgt id='1879'> +1.3959457e-12 </wgt>
<wgt id='1880'> +1.2848312e-12 </wgt>
<wgt id='1881'> +1.3563048e-12 </wgt>
<wgt id='1882'> +1.3317523e-12 </wgt>
<wgt id='1883'> +1.3402940e-12 </wgt>
<wgt id='1884'> +1.3703554e-12 </wgt>
<wgt id='1885'> +1.3371540e-12 </wgt>
<wgt id='1886'> +1.3499836e-12 </wgt>
<wgt id='1887'> +1.3409145e-12 </wgt>
<wgt id='1888'> +1.3557714e-12 </wgt>
<wgt id='1889'> +1.3304084e-12 </wgt>
<wgt id='1890'> +1.4275104e-12 </wgt>
<wgt id='1891'> +1.3265631e-12 </wgt>
<wgt id='1892'> +1.4240656e-12 </wgt>
<wgt id='1893'> +1.3457481e-12 </wgt>
<wgt id='1894'> +1.3309800e-12 </wgt>
<wgt id='1895'> +1.3246008e-12 </wgt>
<wgt id='1896'> +1.3264124e-12 </wgt>
<wgt id='1897'> +1.3680111e-12 </wgt>
<wgt id='1898'> +1.3533543e-12 </wgt>
<wgt id='1899'> +1.3052144e-12 </wgt>
<wgt id='1900'> +1.3429981e-12 </wgt>
<wgt id='1901'> +1.3350429e-12 </wgt>
<wgt id='1902'> +1.3251446e-12 </wgt>
<wgt id='1903'> +1.3655724e-12 </wgt>
<wgt id='1904'> +1.3424347e-12 </wgt>
<wgt id='1905'> +1.3036834e-12 </wgt>
<wgt id='1906'> +1.3470774e-12 </wgt>
<wgt id='1907'> +1.3542558e-12 </wgt>
<wgt id='1908'> +1.3087428e-12 </wgt>
<wgt id='1909'> +1.3117664e-12 </wgt>
<wgt id='1910'> +1.3234424e-12 </wgt>
<wgt id='1911'> +1.3165273e-12 </wgt>
<wgt id='1912'> +1.3220317e-12 </wgt>
<wgt id='1913'> +1.3120166e-12 </wgt>
<wgt id='1914'> +1.3560012e-12 </wgt>
<wgt id='1915'> +1.3210232e-12 </wgt>
<wgt id='1916'> +1.2673828e-12 </wgt>
<wgt id='1917'> +1.3361268e-12 </wgt>
<wgt id='1918'> +1.3599071e-12 </wgt>
<wgt id='1919'> +1.3107538e-12 </wgt>
</rwgt>
</event>
</LesHouchesEvents>
